<event>
 4    1  0.2185255E+006  0.2033532E+02  0.7546771E-02  0.1738741E+00
          1   -1    0    0  502    0 -0.00000000000E+00  0.00000000000E+00  0.27074247925E+03  0.27074247925E+03  0.00000000000E+00 0.  1.
         21   -1    0    0  503  502  0.00000000000E+00 -0.00000000000E+00 -0.12349894317E+02  0.12349894317E+02  0.00000000000E+00 0. -1.
         21    1    1    2  503  501 -0.18238762058E+02 -0.89929233183E+01 -0.33082454382E+01  0.20602660000E+02  0.00000000000E+00 0. -1.
          1    1    1    2  501    0  0.18238762058E+02  0.89929233183E+01  0.26170083037E+03  0.26248971356E+03  0.00000000000E+00 0.  1.
<mgrwt>
<rscale>  2 0.20335317E+02</rscale>
<asrwt>0</asrwt>
<pdfrwt beam="2">  1       21 0.18999840E-02 0.20335317E+02</pdfrwt>
<pdfrwt beam="1">  1        1 0.41652685E-01 0.20335317E+02</pdfrwt>
<totfact> 0.10690631E+06</totfact>
</mgrwt>
</event>
<event>
 4    1  0.2185255E+006  0.2098633E+02  0.7546771E-02  0.1726396E+00
          1   -1    0    0  503    0 -0.00000000000E+00  0.00000000000E+00  0.11064487791E+04  0.11064487791E+04  0.00000000000E+00 0. -1.
         21   -1    0    0  501  502  0.00000000000E+00 -0.00000000000E+00 -0.99284312306E+00  0.99284312306E+00  0.00000000000E+00 0. -1.
         21    1    1    2  503  502  0.15468824755E+02  0.14182430125E+02  0.12414766854E+03  0.12590897295E+03  0.00000000000E+00 0. -1.
          1    1    1    2  501    0 -0.15468824755E+02 -0.14182430125E+02  0.98130826740E+03  0.98153264924E+03  0.00000000000E+00 0. -1.
<mgrwt>
<rscale>  2 0.20986326E+02</rscale>
<asrwt>0</asrwt>
<pdfrwt beam="2">  1       21 0.15274598E-03 0.20986326E+02</pdfrwt>
<pdfrwt beam="1">  1        1 0.17022190E+00 0.20986326E+02</pdfrwt>
<totfact> 0.73563615E+06</totfact>
</mgrwt>
</event>
<event>
 4    1  0.2185255E+006  0.2244362E+02  0.7546771E-02  0.1700691E+00
         21   -1    0    0  501  502  0.00000000000E+00  0.00000000000E+00  0.76856472480E+00  0.76856472480E+00  0.00000000000E+00 0. -1.
          2   -1    0    0  503    0 -0.00000000000E+00 -0.00000000000E+00 -0.89785265860E+03  0.89785265860E+03  0.00000000000E+00 0. -1.
         21    1    1    2  503  502 -0.23003932854E-01 -0.22443610499E+02 -0.21505706997E+03  0.21622502058E+03  0.00000000000E+00 0. -1.
          2    1    1    2  501    0  0.23003932854E-01  0.22443610499E+02 -0.68202702391E+03  0.68239620274E+03  0.00000000000E+00 0. -1.
<mgrwt>
<rscale>  2 0.22443622E+02</rscale>
<asrwt>0</asrwt>
<pdfrwt beam="1">  1       21 0.11824077E-03 0.22443622E+02</pdfrwt>
<pdfrwt beam="2">  1        2 0.13813112E+00 0.22443622E+02</pdfrwt>
<totfact> 0.26010129E+07</totfact>
</mgrwt>
</event>
<event>
 4    1  0.2185255E+006  0.2362476E+02  0.7546771E-02  0.1681579E+00
          2   -1    0    0  503    0 -0.00000000000E+00  0.00000000000E+00  0.14369498250E+04  0.14369498250E+04  0.00000000000E+00 0.  1.
         21   -1    0    0  501  502  0.00000000000E+00 -0.00000000000E+00 -0.33282679398E+02  0.33282679398E+02  0.00000000000E+00 0. -1.
         21    1    1    2  503  502  0.18375878156E+02  0.14847772787E+02 -0.28980647983E+02  0.37389934638E+02  0.00000000000E+00 0. -1.
          2    1    1    2  501    0 -0.18375878156E+02 -0.14847772787E+02  0.14326477936E+04  0.14328425698E+04  0.00000000000E+00 0.  1.
<mgrwt>
<rscale>  2 0.23624759E+02</rscale>
<asrwt>0</asrwt>
<pdfrwt beam="2">  1       21 0.51204133E-02 0.23624759E+02</pdfrwt>
<pdfrwt beam="1">  1        2 0.22106916E+00 0.23624759E+02</pdfrwt>
<totfact> 0.49142395E+04</totfact>
</mgrwt>
</event>
<event>
 4    1  0.2185255E+006  0.2481886E+02  0.7546771E-02  0.1663617E+00
         21   -1    0    0  503  502  0.00000000000E+00  0.00000000000E+00  0.10468363498E+01  0.10468363498E+01  0.00000000000E+00 0. -1.
          2   -1    0    0  502    0 -0.00000000000E+00 -0.00000000000E+00 -0.13650796809E+04  0.13650796809E+04  0.00000000000E+00 0. -1.
         21    1    1    2  503  501 -0.23092276404E+02  0.90952031918E+01 -0.16678986831E+03  0.16862632096E+03  0.00000000000E+00 0. -1.
          2    1    1    2  501    0  0.23092276404E+02 -0.90952031918E+01 -0.11972429763E+04  0.11975001963E+04  0.00000000000E+00 0. -1.
<mgrwt>
<rscale>  2 0.24818863E+02</rscale>
<asrwt>0</asrwt>
<pdfrwt beam="1">  1       21 0.16105196E-03 0.24818863E+02</pdfrwt>
<pdfrwt beam="2">  1        2 0.21001197E+00 0.24818863E+02</pdfrwt>
<totfact> 0.98066105E+06</totfact>
</mgrwt>
</event>
<event>
 4    1  0.2185255E+006  0.2052537E+02  0.7546771E-02  0.1735078E+00
          2   -1    0    0  502    0 -0.00000000000E+00  0.00000000000E+00  0.80267606650E+03  0.80267606650E+03  0.00000000000E+00 0.  1.
         21   -1    0    0  503  502  0.00000000000E+00 -0.00000000000E+00 -0.20183454794E+01  0.20183454794E+01  0.00000000000E+00 0. -1.
         21    1    1    2  503  501  0.20153557899E+02 -0.38890751276E+01  0.54226901481E+02  0.57981442252E+02  0.00000000000E+00 0. -1.
          2    1    1    2  501    0 -0.20153557899E+02  0.38890751276E+01  0.74643081954E+03  0.74671296973E+03  0.00000000000E+00 0.  1.
<mgrwt>
<rscale>  2 0.20525370E+02</rscale>
<asrwt>0</asrwt>
<pdfrwt beam="2">  1       21 0.31051533E-03 0.20525370E+02</pdfrwt>
<pdfrwt beam="1">  1        2 0.12348837E+00 0.20525370E+02</pdfrwt>
<totfact> 0.71987262E+06</totfact>
</mgrwt>
</event>
<event>
 4    1  0.2185255E+006  0.2868683E+02  0.7546771E-02  0.1613075E+00
         21   -1    0    0  501  502  0.00000000000E+00  0.00000000000E+00  0.11185896474E+03  0.11185896474E+03  0.00000000000E+00 0. -1.
          4   -1    0    0  503    0 -0.00000000000E+00 -0.00000000000E+00 -0.77167475598E+02  0.77167475598E+02  0.00000000000E+00 0. -1.
         21    1    1    2  503  502  0.41308204999E+01  0.28387863907E+02  0.10724084940E+03  0.11101141506E+03  0.00000000000E+00 0. -1.
          4    1    1    2  501    0 -0.41308204999E+01 -0.28387863907E+02 -0.72549360254E+02  0.78015025274E+02  0.00000000000E+00 0. -1.
<mgrwt>
<rscale>  2 0.28686835E+02</rscale>
<asrwt>0</asrwt>
<pdfrwt beam="1">  1       21 0.17209071E-01 0.28686835E+02</pdfrwt>
<pdfrwt beam="2">  1        4 0.11871919E-01 0.28686835E+02</pdfrwt>
<totfact> 0.52446324E+04</totfact>
</mgrwt>
</event>
<event>
 4    1  0.2185255E+006  0.3652059E+02  0.7546771E-02  0.1535498E+00
          1   -1    0    0  502    0 -0.00000000000E+00  0.00000000000E+00  0.16044253488E+04  0.16044253488E+04  0.00000000000E+00 0. -1.
         21   -1    0    0  503  502  0.00000000000E+00 -0.00000000000E+00 -0.13915223085E+02  0.13915223085E+02  0.00000000000E+00 0.  1.
         21    1    1    2  503  501  0.33596741017E+02 -0.14318253567E+02  0.10626909868E+02  0.38035307354E+02  0.00000000000E+00 0.  1.
          1    1    1    2  501    0 -0.33596741017E+02  0.14318253567E+02  0.15798832159E+04  0.15803052646E+04  0.00000000000E+00 0. -1.
<mgrwt>
<rscale>  2 0.36520589E+02</rscale>
<asrwt>0</asrwt>
<pdfrwt beam="2">  1       21 0.21408048E-02 0.36520589E+02</pdfrwt>
<pdfrwt beam="1">  1        1 0.24683452E+00 0.36520589E+02</pdfrwt>
<totfact> 0.75995740E+04</totfact>
</mgrwt>
</event>
<event>
 4    1  0.2185255E+006  0.2104454E+02  0.7546771E-02  0.1725320E+00
         21   -1    0    0  503  502  0.00000000000E+00  0.00000000000E+00  0.60524877887E+02  0.60524877887E+02  0.00000000000E+00 0. -1.
         -1   -1    0    0    0  501 -0.00000000000E+00 -0.00000000000E+00 -0.49492116902E+03  0.49492116902E+03  0.00000000000E+00 0.  1.
         21    1    1    2  503  501 -0.20386329534E+02  0.52220921889E+01  0.58464224180E+02  0.62136448142E+02  0.00000000000E+00 0. -1.
         -1    1    1    2    0  502  0.20386329534E+02 -0.52220921889E+01 -0.49286051531E+03  0.49330959876E+03  0.00000000000E+00 0.  1.
<mgrwt>
<rscale>  2 0.21044540E+02</rscale>
<asrwt>0</asrwt>
<pdfrwt beam="1">  1       21 0.93115197E-02 0.21044540E+02</pdfrwt>
<pdfrwt beam="2">  1       -1 0.76141718E-01 0.21044540E+02</pdfrwt>
<totfact> 0.14648285E+04</totfact>
</mgrwt>
</event>
<event>
 4    1  0.2185255E+006  0.3319165E+02  0.7546771E-02  0.1565272E+00
          2   -1    0    0  503    0 -0.00000000000E+00  0.00000000000E+00  0.14322589324E+04  0.14322589324E+04  0.00000000000E+00 0. -1.
         21   -1    0    0  501  502  0.00000000000E+00 -0.00000000000E+00 -0.12458805153E+01  0.12458805153E+01  0.00000000000E+00 0. -1.
         21    1    1    2  503  502  0.31931841758E+02  0.90577626463E+01  0.27215602480E+03  0.27417255045E+03  0.00000000000E+00 0. -1.
          2    1    1    2  501    0 -0.31931841758E+02 -0.90577626463E+01  0.11588570271E+04  0.11593322624E+04  0.00000000000E+00 0. -1.
<mgrwt>
<rscale>  2 0.33191649E+02</rscale>
<asrwt>0</asrwt>
<pdfrwt beam="2">  1       21 0.19167507E-03 0.33191649E+02</pdfrwt>
<pdfrwt beam="1">  1        2 0.22034621E+00 0.33191649E+02</pdfrwt>
<totfact> 0.74893438E+06</totfact>
</mgrwt>
</event>
<event>
 4    1  0.2185255E+006  0.2360914E+02  0.7546771E-02  0.1681822E+00
         21   -1    0    0  501  502  0.00000000000E+00  0.00000000000E+00  0.31146528725E+01  0.31146528725E+01  0.00000000000E+00 0.  1.
          1   -1    0    0  503    0 -0.00000000000E+00 -0.00000000000E+00 -0.36687602214E+03  0.36687602214E+03  0.00000000000E+00 0.  1.
         21    1    1    2  503  502 -0.19566930078E+02  0.13210849346E+02 -0.49481407082E+02  0.54825185271E+02  0.00000000000E+00 0.  1.
          1    1    1    2  501    0  0.19566930078E+02 -0.13210849346E+02 -0.31427996218E+03  0.31516548974E+03  0.00000000000E+00 0.  1.
<mgrwt>
<rscale>  2 0.23609136E+02</rscale>
<asrwt>0</asrwt>
<pdfrwt beam="1">  1       21 0.47917725E-03 0.23609136E+02</pdfrwt>
<pdfrwt beam="2">  1        1 0.56442478E-01 0.23609136E+02</pdfrwt>
<totfact> 0.61468270E+06</totfact>
</mgrwt>
</event>
<event>
 4    1  0.2185255E+006  0.3327364E+02  0.7546771E-02  0.1564488E+00
          1   -1    0    0  503    0 -0.00000000000E+00  0.00000000000E+00  0.88983447925E+03  0.88983447925E+03  0.00000000000E+00 0.  1.
         21   -1    0    0  501  502  0.00000000000E+00 -0.00000000000E+00 -0.12442464189E+01  0.12442464189E+01  0.00000000000E+00 0.  1.
         21    1    1    2  503  502  0.21843726033E+02 -0.25099535625E+02  0.44167436238E+03  0.44292592772E+03  0.00000000000E+00 0.  1.
          1    1    1    2  501    0 -0.21843726033E+02  0.25099535625E+02  0.44691587045E+03  0.44815279795E+03  0.00000000000E+00 0.  1.
<mgrwt>
<rscale>  2 0.33273639E+02</rscale>
<asrwt>0</asrwt>
<pdfrwt beam="2">  1       21 0.19142324E-03 0.33273639E+02</pdfrwt>
<pdfrwt beam="1">  1        1 0.13689710E+00 0.33273639E+02</pdfrwt>
<totfact> 0.82594516E+06</totfact>
</mgrwt>
</event>
<event>
 4    1  0.2185255E+006  0.2799553E+02  0.7546771E-02  0.1621364E+00
          2   -1    0    0  502    0 -0.00000000000E+00  0.00000000000E+00  0.10221491005E+03  0.10221491005E+03  0.00000000000E+00 0. -1.
         21   -1    0    0  503  502  0.00000000000E+00 -0.00000000000E+00 -0.51789903402E+02  0.51789903402E+02  0.00000000000E+00 0. -1.
         21    1    1    2  503  501 -0.24999437339E+02 -0.12600697122E+02 -0.45861459287E+02  0.53731023470E+02  0.00000000000E+00 0. -1.
          2    1    1    2  501    0  0.24999437339E+02  0.12600697122E+02  0.96286465937E+02  0.10027378998E+03  0.00000000000E+00 0. -1.
<mgrwt>
<rscale>  2 0.27995525E+02</rscale>
<asrwt>0</asrwt>
<pdfrwt beam="2">  1       21 0.79676775E-02 0.27995525E+02</pdfrwt>
<pdfrwt beam="1">  1        2 0.15725371E-01 0.27995525E+02</pdfrwt>
<totfact> 0.44351414E+05</totfact>
</mgrwt>
</event>
<event>
 4    1  0.2185255E+006  0.2063520E+02  0.7546771E-02  0.1732984E+00
         21   -1    0    0  501  502  0.00000000000E+00  0.00000000000E+00  0.34205661394E+02  0.34205661394E+02  0.00000000000E+00 0. -1.
          4   -1    0    0  503    0 -0.00000000000E+00 -0.00000000000E+00 -0.64948437281E+02  0.64948437281E+02  0.00000000000E+00 0. -1.
         21    1    1    2  503  502  0.94469506967E+01  0.18345748281E+02  0.29201980050E+02  0.35757055197E+02  0.00000000000E+00 0. -1.
          4    1    1    2  501    0 -0.94469506967E+01 -0.18345748281E+02 -0.59944755937E+02  0.63397043478E+02  0.00000000000E+00 0. -1.
<mgrwt>
<rscale>  2 0.20635197E+02</rscale>
<asrwt>0</asrwt>
<pdfrwt beam="1">  1       21 0.52624095E-02 0.20635197E+02</pdfrwt>
<pdfrwt beam="2">  1        4 0.99920672E-02 0.20635197E+02</pdfrwt>
<totfact> 0.44165451E+05</totfact>
</mgrwt>
</event>
<event>
 4    1  0.2185255E+006  0.3281770E+02  0.7546771E-02  0.1568880E+00
         -2   -1    0    0    0  501 -0.00000000000E+00  0.00000000000E+00  0.57925966859E+03  0.57925966859E+03  0.00000000000E+00 0. -1.
         21   -1    0    0  503  502  0.00000000000E+00 -0.00000000000E+00 -0.15516629112E+02  0.15516629112E+02  0.00000000000E+00 0. -1.
         21    1    1    2  503  501 -0.97377754490E+01 -0.31339709602E+02  0.28688943562E+01  0.32942863013E+02  0.00000000000E+00 0. -1.
         -2    1    1    2    0  502  0.97377754490E+01  0.31339709602E+02  0.56087414513E+03  0.56183343469E+03  0.00000000000E+00 0. -1.
<mgrwt>
<rscale>  2 0.32817704E+02</rscale>
<asrwt>0</asrwt>
<pdfrwt beam="2">  1       21 0.23871741E-02 0.32817704E+02</pdfrwt>
<pdfrwt beam="1">  1       -2 0.89116856E-01 0.32817704E+02</pdfrwt>
<totfact> 0.72545991E+04</totfact>
</mgrwt>
</event>
<event>
 4    1  0.2185255E+006  0.2438384E+02  0.7546771E-02  0.1670013E+00
          2   -1    0    0  502    0 -0.00000000000E+00  0.00000000000E+00  0.88028273549E+02  0.88028273549E+02  0.00000000000E+00 0.  1.
         21   -1    0    0  503  502  0.00000000000E+00 -0.00000000000E+00 -0.10356781403E+02  0.10356781403E+02  0.00000000000E+00 0. -1.
         21    1    1    2  503  501  0.22839118366E+02  0.85408509408E+01  0.98231780645E+01  0.26288139718E+02  0.00000000000E+00 0. -1.
          2    1    1    2  501    0 -0.22839118366E+02 -0.85408509408E+01  0.67848314082E+02  0.72096915235E+02  0.00000000000E+00 0.  1.
<mgrwt>
<rscale>  2 0.24383836E+02</rscale>
<asrwt>0</asrwt>
<pdfrwt beam="2">  1       21 0.15933510E-02 0.24383836E+02</pdfrwt>
<pdfrwt beam="1">  1        2 0.13542811E-01 0.24383836E+02</pdfrwt>
<totfact> 0.64508899E+06</totfact>
</mgrwt>
</event>
<event>
 4    1  0.2185255E+006  0.2994667E+02  0.7546771E-02  0.1598679E+00
         21   -1    0    0  503  502  0.00000000000E+00  0.00000000000E+00  0.53616039453E+01  0.53616039453E+01  0.00000000000E+00 0.  1.
          2   -1    0    0  502    0 -0.00000000000E+00 -0.00000000000E+00 -0.21946647776E+03  0.21946647776E+03  0.00000000000E+00 0. -1.
         21    1    1    2  503  501 -0.20349251560E+02 -0.21970679001E+02 -0.52226956513E+02  0.60203469679E+02  0.00000000000E+00 0.  1.
          2    1    1    2  501    0  0.20349251560E+02  0.21970679001E+02 -0.16187791730E+03  0.16462461203E+03  0.00000000000E+00 0. -1.
<mgrwt>
<rscale>  2 0.29946666E+02</rscale>
<asrwt>0</asrwt>
<pdfrwt beam="1">  1       21 0.82486219E-03 0.29946666E+02</pdfrwt>
<pdfrwt beam="2">  1        2 0.33764072E-01 0.29946666E+02</pdfrwt>
<totfact> 0.70040010E+06</totfact>
</mgrwt>
</event>
<event>
 4    1  0.2185255E+006  0.2107039E+02  0.7546771E-02  0.1724843E+00
          1   -1    0    0  503    0 -0.00000000000E+00  0.00000000000E+00  0.45386919350E+02  0.45386919350E+02  0.00000000000E+00 0. -1.
         21   -1    0    0  501  502  0.00000000000E+00 -0.00000000000E+00 -0.10806333394E+03  0.10806333394E+03  0.00000000000E+00 0. -1.
         21    1    1    2  503  502  0.16551772091E+02  0.13038404984E+02 -0.10450847098E+03  0.10661135807E+03  0.00000000000E+00 0. -1.
          1    1    1    2  501    0 -0.16551772091E+02 -0.13038404984E+02  0.41832056386E+02  0.46838895219E+02  0.00000000000E+00 0. -1.
<mgrwt>
<rscale>  2 0.21070386E+02</rscale>
<asrwt>0</asrwt>
<pdfrwt beam="2">  1       21 0.16625128E-01 0.21070386E+02</pdfrwt>
<pdfrwt beam="1">  1        1 0.69826031E-02 0.21070386E+02</pdfrwt>
<totfact> 0.28377036E+05</totfact>
</mgrwt>
</event>
<event>
 4    1  0.2185255E+006  0.2762807E+02  0.7546771E-02  0.1625891E+00
         21   -1    0    0  501  502  0.00000000000E+00  0.00000000000E+00  0.56884647048E+02  0.56884647048E+02  0.00000000000E+00 0.  1.
         -4   -1    0    0    0  501 -0.00000000000E+00 -0.00000000000E+00 -0.17108456641E+02  0.17108456641E+02  0.00000000000E+00 0.  1.
         21    1    1    2  503  502 -0.22379209547E+02  0.16201267931E+02  0.37069666468E+02  0.46232783547E+02  0.00000000000E+00 0.  1.
         -4    1    1    2    0  503  0.22379209547E+02 -0.16201267931E+02  0.27065239396E+01  0.27760320141E+02  0.00000000000E+00 0.  1.
<mgrwt>
<rscale>  2 0.27628067E+02</rscale>
<asrwt>0</asrwt>
<pdfrwt beam="1">  1       21 0.87514841E-02 0.27628067E+02</pdfrwt>
<pdfrwt beam="2">  1       -4 0.26320703E-02 0.27628067E+02</pdfrwt>
<totfact> 0.17031279E+06</totfact>
</mgrwt>
</event>
<event>
 4    1  0.2185255E+006  0.2152858E+02  0.7546771E-02  0.1716535E+00
         21   -1    0    0  503  502  0.00000000000E+00  0.00000000000E+00  0.41010315885E+02  0.41010315885E+02  0.00000000000E+00 0.  1.
         -2   -1    0    0    0  501 -0.00000000000E+00 -0.00000000000E+00 -0.40101717857E+02  0.40101717857E+02  0.00000000000E+00 0.  1.
         21    1    1    2  503  501  0.15363046278E+02 -0.15081657039E+02  0.34823657023E+02  0.40941014380E+02  0.00000000000E+00 0.  1.
         -2    1    1    2    0  502 -0.15363046278E+02  0.15081657039E+02 -0.33915058994E+02  0.40171019362E+02  0.00000000000E+00 0.  1.
<mgrwt>
<rscale>  2 0.21528576E+02</rscale>
<asrwt>0</asrwt>
<pdfrwt beam="1">  1       21 0.63092793E-02 0.21528576E+02</pdfrwt>
<pdfrwt beam="2">  1       -2 0.61694951E-02 0.21528576E+02</pdfrwt>
<totfact> 0.13758686E+06</totfact>
</mgrwt>
</event>
<event>
 4    1  0.2185255E+006  0.6582898E+02  0.7546771E-02  0.1374880E+00
          2   -1    0    0  503    0 -0.00000000000E+00  0.00000000000E+00  0.17429040732E+04  0.17429040732E+04  0.00000000000E+00 0. -1.
         21   -1    0    0  501  502  0.00000000000E+00 -0.00000000000E+00 -0.27856019833E+01  0.27856019833E+01  0.00000000000E+00 0.  1.
         21    1    1    2  503  502  0.48954368013E+02  0.44010510201E+02  0.58396966594E+03  0.58766829580E+03  0.00000000000E+00 0.  1.
          2    1    1    2  501    0 -0.48954368013E+02 -0.44010510201E+02  0.11561488052E+04  0.11580213793E+04  0.00000000000E+00 0. -1.
<mgrwt>
<rscale>  2 0.65828984E+02</rscale>
<asrwt>0</asrwt>
<pdfrwt beam="2">  1       21 0.42855554E-03 0.65828984E+02</pdfrwt>
<pdfrwt beam="1">  1        2 0.26813822E+00 0.65828984E+02</pdfrwt>
<totfact> 0.17417224E+06</totfact>
</mgrwt>
</event>
<event>
 4    1  0.2185255E+006  0.3200145E+02  0.7546771E-02  0.1576964E+00
         -4   -1    0    0    0  501 -0.00000000000E+00  0.00000000000E+00  0.34069988342E+03  0.34069988342E+03  0.00000000000E+00 0. -1.
         21   -1    0    0  501  502  0.00000000000E+00 -0.00000000000E+00 -0.13866195789E+02  0.13866195789E+02  0.00000000000E+00 0.  1.
         21    1    1    2  503  502 -0.31701298316E+02 -0.43726997086E+01  0.65213943775E+01  0.32659170263E+02  0.00000000000E+00 0.  1.
         -4    1    1    2    0  503  0.31701298316E+02  0.43726997086E+01  0.32031229326E+03  0.32190690895E+03  0.00000000000E+00 0. -1.
<mgrwt>
<rscale>  2 0.32001450E+02</rscale>
<asrwt>0</asrwt>
<pdfrwt beam="2">  1       21 0.21332612E-02 0.32001450E+02</pdfrwt>
<pdfrwt beam="1">  1       -4 0.52415360E-01 0.32001450E+02</pdfrwt>
<totfact> 0.11453259E+05</totfact>
</mgrwt>
</event>
<event>
 4    1  0.2185255E+006  0.2357852E+02  0.7546771E-02  0.1682301E+00
         21   -1    0    0  501  502  0.00000000000E+00  0.00000000000E+00  0.20411462094E+01  0.20411462094E+01  0.00000000000E+00 0. -1.
         -2   -1    0    0    0  501 -0.00000000000E+00 -0.00000000000E+00 -0.13982149747E+04  0.13982149747E+04  0.00000000000E+00 0.  1.
         21    1    1    2  503  502 -0.18334538669E+02  0.14825357023E+02 -0.69840742043E+02  0.73713470737E+02  0.00000000000E+00 0. -1.
         -2    1    1    2    0  503  0.18334538669E+02 -0.14825357023E+02 -0.13263330864E+04  0.13265426501E+04  0.00000000000E+00 0.  1.
<mgrwt>
<rscale>  2 0.23578518E+02</rscale>
<asrwt>0</asrwt>
<pdfrwt beam="1">  1       21 0.31402223E-03 0.23578518E+02</pdfrwt>
<pdfrwt beam="2">  1       -2 0.21511017E+00 0.23578518E+02</pdfrwt>
<totfact> 0.17123357E+05</totfact>
</mgrwt>
</event>
<event>
 4    1  0.2185255E+006  0.2582054E+02  0.7546771E-02  0.1649488E+00
         21   -1    0    0  501  502  0.00000000000E+00  0.00000000000E+00  0.22541940504E+01  0.22541940504E+01  0.00000000000E+00 0. -1.
          1   -1    0    0  503    0 -0.00000000000E+00 -0.00000000000E+00 -0.39275552246E+03  0.39275552246E+03  0.00000000000E+00 0. -1.
         21    1    1    2  503  502 -0.94331615520E+01  0.24035719925E+02 -0.97100159109E+02  0.10047458021E+03  0.00000000000E+00 0. -1.
          1    1    1    2  501    0  0.94331615520E+01 -0.24035719925E+02 -0.29340116931E+03  0.29453513631E+03  0.00000000000E+00 0. -1.
<mgrwt>
<rscale>  2 0.25820542E+02</rscale>
<asrwt>0</asrwt>
<pdfrwt beam="1">  1       21 0.34679924E-03 0.25820542E+02</pdfrwt>
<pdfrwt beam="2">  1        1 0.60423899E-01 0.25820542E+02</pdfrwt>
<totfact> 0.93472628E+06</totfact>
</mgrwt>
</event>
<event>
 4    1  0.2185255E+006  0.3549110E+02  0.7546771E-02  0.1544282E+00
         21   -1    0    0  503  502  0.00000000000E+00  0.00000000000E+00  0.19018773439E+02  0.19018773439E+02  0.00000000000E+00 0.  1.
         -1   -1    0    0    0  501 -0.00000000000E+00 -0.00000000000E+00 -0.42392384816E+03  0.42392384816E+03  0.00000000000E+00 0.  1.
         21    1    1    2  503  501  0.99576502157E+00 -0.35477131020E+02  0.98408059211E+00  0.35504743176E+02  0.00000000000E+00 0.  1.
         -1    1    1    2    0  502 -0.99576502157E+00  0.35477131020E+02 -0.40588915531E+03  0.40743787842E+03  0.00000000000E+00 0.  1.
<mgrwt>
<rscale>  2 0.35491103E+02</rscale>
<asrwt>0</asrwt>
<pdfrwt beam="1">  1       21 0.29259653E-02 0.35491103E+02</pdfrwt>
<pdfrwt beam="2">  1       -1 0.65219050E-01 0.35491103E+02</pdfrwt>
<totfact> 0.13279828E+05</totfact>
</mgrwt>
</event>
<event>
 4    1  0.2185255E+006  0.2702037E+02  0.7546771E-02  0.1633571E+00
         21   -1    0    0  503  502  0.00000000000E+00  0.00000000000E+00  0.10413709568E+03  0.10413709568E+03  0.00000000000E+00 0. -1.
         -4   -1    0    0    0  501 -0.00000000000E+00 -0.00000000000E+00 -0.26396391429E+03  0.26396391429E+03  0.00000000000E+00 0. -1.
         21    1    1    2  503  501 -0.21109226493E+02  0.16867152222E+02  0.10167643119E+03  0.10520549855E+03  0.00000000000E+00 0. -1.
         -4    1    1    2    0  502  0.21109226493E+02 -0.16867152222E+02 -0.26150324979E+03  0.26289551141E+03  0.00000000000E+00 0. -1.
<mgrwt>
<rscale>  2 0.27020368E+02</rscale>
<asrwt>0</asrwt>
<pdfrwt beam="1">  1       21 0.16021092E-01 0.27020368E+02</pdfrwt>
<pdfrwt beam="2">  1       -4 0.40609832E-01 0.27020368E+02</pdfrwt>
<totfact> 0.67736760E+03</totfact>
</mgrwt>
</event>
<event>
 4    1  0.2185255E+006  0.2048010E+02  0.7546771E-02  0.1735946E+00
         21   -1    0    0  503  502  0.00000000000E+00  0.00000000000E+00  0.14227307707E+01  0.14227307707E+01  0.00000000000E+00 0.  1.
          2   -1    0    0  502    0 -0.00000000000E+00 -0.00000000000E+00 -0.66733190347E+03  0.66733190347E+03  0.00000000000E+00 0.  1.
         21    1    1    2  503  501 -0.18492244220E+02  0.88017883827E+01 -0.83126045363E+02  0.85611763168E+02  0.00000000000E+00 0.  1.
          2    1    1    2  501    0  0.18492244220E+02 -0.88017883827E+01 -0.58278312734E+03  0.58314287107E+03  0.00000000000E+00 0.  1.
<mgrwt>
<rscale>  2 0.20480102E+02</rscale>
<asrwt>0</asrwt>
<pdfrwt beam="1">  1       21 0.21888123E-03 0.20480102E+02</pdfrwt>
<pdfrwt beam="2">  1        2 0.10266665E+00 0.20480102E+02</pdfrwt>
<totfact> 0.14598138E+07</totfact>
</mgrwt>
</event>
<event>
 4    1  0.2185255E+006  0.3252423E+02  0.7546771E-02  0.1571753E+00
         -2   -1    0    0    0  501 -0.00000000000E+00  0.00000000000E+00  0.48181810344E+02  0.48181810344E+02  0.00000000000E+00 0.  1.
         21   -1    0    0  501  502  0.00000000000E+00 -0.00000000000E+00 -0.20258672765E+03  0.20258672765E+03  0.00000000000E+00 0. -1.
         21    1    1    2  503  502 -0.28753384762E+02  0.15200944928E+02 -0.19559782885E+03  0.19828347513E+03  0.00000000000E+00 0. -1.
         -2    1    1    2    0  503  0.28753384762E+02 -0.15200944928E+02  0.41192911542E+02  0.52485062858E+02  0.00000000000E+00 0.  1.
<mgrwt>
<rscale>  2 0.32524235E+02</rscale>
<asrwt>0</asrwt>
<pdfrwt beam="2">  1       21 0.31167189E-01 0.32524235E+02</pdfrwt>
<pdfrwt beam="1">  1       -2 0.74125861E-02 0.32524235E+02</pdfrwt>
<totfact> 0.73534508E+04</totfact>
</mgrwt>
</event>
<event>
 4    1  0.2185255E+006  0.2037703E+02  0.7546771E-02  0.1737933E+00
         21   -1    0    0  501  502  0.00000000000E+00  0.00000000000E+00  0.23500690050E+01  0.23500690050E+01  0.00000000000E+00 0. -1.
          4   -1    0    0  503    0 -0.00000000000E+00 -0.00000000000E+00 -0.17720162361E+03  0.17720162361E+03  0.00000000000E+00 0. -1.
         21    1    1    2  503  502 -0.78322869341E+01  0.18811664917E+02 -0.82581355663E+02  0.85058237453E+02  0.00000000000E+00 0. -1.
          4    1    1    2  501    0  0.78322869341E+01 -0.18811664917E+02 -0.92270198943E+02  0.94493455163E+02  0.00000000000E+00 0. -1.
<mgrwt>
<rscale>  2 0.20377033E+02</rscale>
<asrwt>0</asrwt>
<pdfrwt beam="1">  1       21 0.36154906E-03 0.20377033E+02</pdfrwt>
<pdfrwt beam="2">  1        4 0.27261790E-01 0.20377033E+02</pdfrwt>
<totfact> 0.46921995E+06</totfact>
</mgrwt>
</event>
<event>
 4    1  0.2185255E+006  0.3175273E+02  0.7546771E-02  0.1579485E+00
         21   -1    0    0  501  502  0.00000000000E+00  0.00000000000E+00  0.92312908049E+01  0.92312908049E+01  0.00000000000E+00 0. -1.
          1   -1    0    0  503    0 -0.00000000000E+00 -0.00000000000E+00 -0.12786714176E+03  0.12786714176E+03  0.00000000000E+00 0. -1.
         21    1    1    2  503  502 -0.27519898961E+02 -0.15839542609E+02 -0.33139937921E+02  0.45896529654E+02  0.00000000000E+00 0. -1.
          1    1    1    2  501    0  0.27519898961E+02  0.15839542609E+02 -0.85495913030E+02  0.91201902906E+02  0.00000000000E+00 0. -1.
<mgrwt>
<rscale>  2 0.31752731E+02</rscale>
<asrwt>0</asrwt>
<pdfrwt beam="1">  1       21 0.14201985E-02 0.31752731E+02</pdfrwt>
<pdfrwt beam="2">  1        1 0.19671869E-01 0.31752731E+02</pdfrwt>
<totfact> 0.44464632E+06</totfact>
</mgrwt>
</event>
<event>
 4    1  0.2185255E+006  0.2923681E+02  0.7546771E-02  0.1606681E+00
          2   -1    0    0  503    0 -0.00000000000E+00  0.00000000000E+00  0.19568175902E+04  0.19568175902E+04  0.00000000000E+00 0. -1.
         21   -1    0    0  501  502  0.00000000000E+00 -0.00000000000E+00 -0.40132262677E+01  0.40132262677E+01  0.00000000000E+00 0. -1.
         21    1    1    2  503  502  0.86834034135E+01 -0.27917550366E+02  0.50881149516E+02  0.58682897759E+02  0.00000000000E+00 0. -1.
          2    1    1    2  501    0 -0.86834034135E+01  0.27917550366E+02  0.19019232144E+04  0.19021479187E+04  0.00000000000E+00 0. -1.
<mgrwt>
<rscale>  2 0.29236811E+02</rscale>
<asrwt>0</asrwt>
<pdfrwt beam="2">  1       21 0.61742099E-03 0.29236811E+02</pdfrwt>
<pdfrwt beam="1">  1        2 0.30104810E+00 0.29236811E+02</pdfrwt>
<totfact> 0.73636312E+05</totfact>
</mgrwt>
</event>
<event>
 4    1  0.2185255E+006  0.2620864E+02  0.7546771E-02  0.1644225E+00
         21   -1    0    0  503  502  0.00000000000E+00  0.00000000000E+00  0.15295635069E+01  0.15295635069E+01  0.00000000000E+00 0.  1.
          2   -1    0    0  502    0 -0.00000000000E+00 -0.00000000000E+00 -0.85081735584E+03  0.85081735584E+03  0.00000000000E+00 0.  1.
         21    1    1    2  503  501 -0.25402000465E+02 -0.64522401989E+01 -0.13179706999E+03  0.13437767928E+03  0.00000000000E+00 0.  1.
          2    1    1    2  501    0  0.25402000465E+02  0.64522401989E+01 -0.71749072235E+03  0.71796924007E+03  0.00000000000E+00 0.  1.
<mgrwt>
<rscale>  2 0.26208644E+02</rscale>
<asrwt>0</asrwt>
<pdfrwt beam="1">  1       21 0.23531826E-03 0.26208644E+02</pdfrwt>
<pdfrwt beam="2">  1        2 0.13089453E+00 0.26208644E+02</pdfrwt>
<totfact> 0.10705032E+07</totfact>
</mgrwt>
</event>
<event>
 4    1  0.2185255E+006  0.2551305E+02  0.7546771E-02  0.1653740E+00
          2   -1    0    0  503    0 -0.00000000000E+00  0.00000000000E+00  0.84041942558E+03  0.84041942558E+03  0.00000000000E+00 0. -1.
         21   -1    0    0  501  502  0.00000000000E+00 -0.00000000000E+00 -0.86780038002E+01  0.86780038002E+01  0.00000000000E+00 0.  1.
         21    1    1    2  503  502  0.13592113840E+02 -0.21590970699E+02  0.10710214187E+02  0.27669916196E+02  0.00000000000E+00 0.  1.
          2    1    1    2  501    0 -0.13592113840E+02  0.21590970699E+02  0.82103120759E+03  0.82142751318E+03  0.00000000000E+00 0. -1.
<mgrwt>
<rscale>  2 0.25513047E+02</rscale>
<asrwt>0</asrwt>
<pdfrwt beam="2">  1       21 0.13350782E-02 0.25513047E+02</pdfrwt>
<pdfrwt beam="1">  1        2 0.12929523E+00 0.25513047E+02</pdfrwt>
<totfact> 0.81924681E+05</totfact>
</mgrwt>
</event>
<event>
 4    1  0.2185255E+006  0.3414985E+02  0.7546771E-02  0.1556282E+00
         21   -1    0    0  501  502  0.00000000000E+00  0.00000000000E+00  0.45128948030E+01  0.45128948030E+01  0.00000000000E+00 0. -1.
          2   -1    0    0  503    0 -0.00000000000E+00 -0.00000000000E+00 -0.57889132549E+03  0.57889132549E+03  0.00000000000E+00 0. -1.
         21    1    1    2  503  502  0.27432946194E+01  0.34039487586E+02 -0.70150543172E+02  0.78021222034E+02  0.00000000000E+00 0. -1.
          2    1    1    2  501    0 -0.27432946194E+01 -0.34039487586E+02 -0.50422788752E+03  0.50538299826E+03  0.00000000000E+00 0. -1.
<mgrwt>
<rscale>  2 0.34149852E+02</rscale>
<asrwt>0</asrwt>
<pdfrwt beam="1">  1       21 0.69429194E-03 0.34149852E+02</pdfrwt>
<pdfrwt beam="2">  1        2 0.89060149E-01 0.34149852E+02</pdfrwt>
<totfact> 0.34969155E+06</totfact>
</mgrwt>
</event>
<event>
 4    1  0.2185255E+006  0.2205834E+02  0.7546771E-02  0.1707245E+00
         21   -1    0    0  501  502  0.00000000000E+00  0.00000000000E+00  0.44948925944E+01  0.44948925944E+01  0.00000000000E+00 0.  1.
          2   -1    0    0  503    0 -0.00000000000E+00 -0.00000000000E+00 -0.48254447349E+03  0.48254447349E+03  0.00000000000E+00 0.  1.
         21    1    1    2  503  502  0.11604635288E+01 -0.22027795143E+02 -0.24551940822E+02  0.33005578810E+02  0.00000000000E+00 0.  1.
          2    1    1    2  501    0 -0.11604635288E+01  0.22027795143E+02 -0.45349764008E+03  0.45403378728E+03  0.00000000000E+00 0.  1.
<mgrwt>
<rscale>  2 0.22058342E+02</rscale>
<asrwt>0</asrwt>
<pdfrwt beam="1">  1       21 0.69152218E-03 0.22058342E+02</pdfrwt>
<pdfrwt beam="2">  1        2 0.74237585E-01 0.22058342E+02</pdfrwt>
<totfact> 0.38639940E+06</totfact>
</mgrwt>
</event>
<event>
 4    1  0.2185255E+006  0.2082431E+02  0.7546771E-02  0.1729416E+00
          4   -1    0    0  503    0 -0.00000000000E+00  0.00000000000E+00  0.49167634423E+01  0.49167634423E+01  0.00000000000E+00 0.  1.
         21   -1    0    0  501  502  0.00000000000E+00 -0.00000000000E+00 -0.21149592903E+03  0.21149592903E+03  0.00000000000E+00 0.  1.
         21    1    1    2  503  502  0.45244760319E+01  0.20326855197E+02 -0.18590830291E+03  0.18707097321E+03  0.00000000000E+00 0.  1.
          4    1    1    2  501    0 -0.45244760319E+01 -0.20326855197E+02 -0.20670862675E+02  0.29341719263E+02  0.00000000000E+00 0.  1.
<mgrwt>
<rscale>  2 0.20824311E+02</rscale>
<asrwt>0</asrwt>
<pdfrwt beam="2">  1       21 0.32537828E-01 0.20824311E+02</pdfrwt>
<pdfrwt beam="1">  1        4 0.75642531E-03 0.20824311E+02</pdfrwt>
<totfact> 0.96839658E+05</totfact>
</mgrwt>
</event>
<event>
 4    1  0.2185255E+006  0.3391066E+02  0.7546771E-02  0.1558492E+00
          3   -1    0    0  502    0 -0.00000000000E+00  0.00000000000E+00  0.37978922813E+03  0.37978922813E+03  0.00000000000E+00 0.  1.
         21   -1    0    0  503  502  0.00000000000E+00 -0.00000000000E+00 -0.36328983011E+01  0.36328983011E+01  0.00000000000E+00 0. -1.
         21    1    1    2  503  501  0.34373927827E+01 -0.33735993464E+02  0.10983853019E+03  0.11495405882E+03  0.00000000000E+00 0. -1.
          3    1    1    2  501    0 -0.34373927827E+01  0.33735993464E+02  0.26631779964E+03  0.26846806762E+03  0.00000000000E+00 0.  1.
<mgrwt>
<rscale>  2 0.33910661E+02</rscale>
<asrwt>0</asrwt>
<pdfrwt beam="2">  1       21 0.55890773E-03 0.33910661E+02</pdfrwt>
<pdfrwt beam="1">  1        3 0.58429081E-01 0.33910661E+02</pdfrwt>
<totfact> 0.92982276E+05</totfact>
</mgrwt>
</event>
<event>
 4    1  0.2185255E+006  0.2718169E+02  0.7546771E-02  0.1631508E+00
          1   -1    0    0  503    0 -0.00000000000E+00  0.00000000000E+00  0.26480021481E+03  0.26480021481E+03  0.00000000000E+00 0. -1.
         21   -1    0    0  501  502  0.00000000000E+00 -0.00000000000E+00 -0.28590954284E+02  0.28590954284E+02  0.00000000000E+00 0.  1.
         21    1    1    2  503  502 -0.23137443526E+02  0.14265438864E+02 -0.21249217964E+02  0.34501786954E+02  0.00000000000E+00 0.  1.
          1    1    1    2  501    0  0.23137443526E+02 -0.14265438864E+02  0.25745847849E+03  0.25888938214E+03  0.00000000000E+00 0. -1.
<mgrwt>
<rscale>  2 0.27181686E+02</rscale>
<asrwt>0</asrwt>
<pdfrwt beam="2">  1       21 0.43986085E-02 0.27181686E+02</pdfrwt>
<pdfrwt beam="1">  1        1 0.40738493E-01 0.27181686E+02</pdfrwt>
<totfact> 0.31267169E+05</totfact>
</mgrwt>
</event>
<event>
 4    1  0.2185255E+006  0.2093534E+02  0.7546771E-02  0.1727343E+00
         -2   -1    0    0    0  501 -0.00000000000E+00  0.00000000000E+00  0.25843602846E+02  0.25843602846E+02  0.00000000000E+00 0. -1.
         21   -1    0    0  501  502  0.00000000000E+00 -0.00000000000E+00 -0.12108268603E+04  0.12108268603E+04  0.00000000000E+00 0.  1.
         21    1    1    2  503  502 -0.20935326875E+02 -0.26509711214E-01 -0.12064812793E+04  0.12066629048E+04  0.00000000000E+00 0.  1.
         -2    1    1    2    0  503  0.20935326875E+02  0.26509711214E-01  0.21498021827E+02  0.30007558325E+02  0.00000000000E+00 0. -1.
<mgrwt>
<rscale>  2 0.20935344E+02</rscale>
<asrwt>0</asrwt>
<pdfrwt beam="2">  1       21 0.18628108E+00 0.20935344E+02</pdfrwt>
<pdfrwt beam="1">  1       -2 0.39759384E-02 0.20935344E+02</pdfrwt>
<totfact> 0.39954667E+03</totfact>
</mgrwt>
</event>
<event>
 4    1  0.2185255E+006  0.2363468E+02  0.7546771E-02  0.1681424E+00
          2   -1    0    0  503    0 -0.00000000000E+00  0.00000000000E+00  0.55094453171E+03  0.55094453171E+03  0.00000000000E+00 0. -1.
         21   -1    0    0  501  502  0.00000000000E+00 -0.00000000000E+00 -0.13810400674E+01  0.13810400674E+01  0.00000000000E+00 0.  1.
         21    1    1    2  503  502  0.23555851706E+02  0.19286733954E+01  0.13239059986E+03  0.13448371225E+03  0.00000000000E+00 0.  1.
          2    1    1    2  501    0 -0.23555851706E+02 -0.19286733954E+01  0.41717289178E+03  0.41784185952E+03  0.00000000000E+00 0. -1.
<mgrwt>
<rscale>  2 0.23634676E+02</rscale>
<asrwt>0</asrwt>
<pdfrwt beam="2">  1       21 0.21246814E-03 0.23634676E+02</pdfrwt>
<pdfrwt beam="1">  1        2 0.84760521E-01 0.23634676E+02</pdfrwt>
<totfact> 0.19389162E+07</totfact>
</mgrwt>
</event>
<event>
 4    1  0.2185255E+006  0.5850924E+02  0.7546771E-02  0.1404196E+00
          2   -1    0    0  502    0 -0.00000000000E+00  0.00000000000E+00  0.17895149295E+03  0.17895149295E+03  0.00000000000E+00 0.  1.
         21   -1    0    0  503  502  0.00000000000E+00 -0.00000000000E+00 -0.20827689616E+02  0.20827689616E+02  0.00000000000E+00 0.  1.
         21    1    1    2  503  501  0.52924714603E+02 -0.24946054951E+02  0.50542744507E+02  0.77316881052E+02  0.00000000000E+00 0.  1.
          2    1    1    2  501    0 -0.52924714603E+02  0.24946054951E+02  0.10758105883E+03  0.12246230151E+03  0.00000000000E+00 0.  1.
<mgrwt>
<rscale>  2 0.58509239E+02</rscale>
<asrwt>0</asrwt>
<pdfrwt beam="2">  1       21 0.32042601E-02 0.58509239E+02</pdfrwt>
<pdfrwt beam="1">  1        2 0.27530998E-01 0.58509239E+02</pdfrwt>
<totfact> 0.11857283E+06</totfact>
</mgrwt>
</event>
<event>
 4    1  0.2185255E+006  0.2531936E+02  0.7546771E-02  0.1656457E+00
          2   -1    0    0  503    0 -0.00000000000E+00  0.00000000000E+00  0.91616454550E+03  0.91616454550E+03  0.00000000000E+00 0.  1.
         21   -1    0    0  501  502  0.00000000000E+00 -0.00000000000E+00 -0.14114562708E+02  0.14114562708E+02  0.00000000000E+00 0.  1.
         21    1    1    2  503  502 -0.25317454017E+02  0.31044478719E+00 -0.24383177972E+01  0.25436494403E+02  0.00000000000E+00 0.  1.
          2    1    1    2  501    0  0.25317454017E+02 -0.31044478719E+00  0.90448830059E+03  0.90484261381E+03  0.00000000000E+00 0.  1.
<mgrwt>
<rscale>  2 0.25319357E+02</rscale>
<asrwt>0</asrwt>
<pdfrwt beam="2">  1       21 0.21714719E-02 0.25319357E+02</pdfrwt>
<pdfrwt beam="1">  1        2 0.14094834E+00 0.25319357E+02</pdfrwt>
<totfact> 0.35077511E+05</totfact>
</mgrwt>
</event>
<event>
 4    1  0.2185255E+006  0.2087390E+02  0.7546771E-02  0.1728488E+00
         21   -1    0    0  503  502  0.00000000000E+00  0.00000000000E+00  0.26126851788E+02  0.26126851788E+02  0.00000000000E+00 0. -1.
          2   -1    0    0  502    0 -0.00000000000E+00 -0.00000000000E+00 -0.47957513689E+03  0.47957513689E+03  0.00000000000E+00 0.  1.
         21    1    1    2  503  501 -0.12762786049E+02  0.16517599351E+02  0.21691541103E+02  0.30103866055E+02  0.00000000000E+00 0. -1.
          2    1    1    2  501    0  0.12762786049E+02 -0.16517599351E+02 -0.47513982620E+03  0.47559812262E+03  0.00000000000E+00 0.  1.
<mgrwt>
<rscale>  2 0.20873902E+02</rscale>
<asrwt>0</asrwt>
<pdfrwt beam="1">  1       21 0.40195157E-02 0.20873902E+02</pdfrwt>
<pdfrwt beam="2">  1        2 0.73780789E-01 0.20873902E+02</pdfrwt>
<totfact> 0.26347286E+05</totfact>
</mgrwt>
</event>
<event>
 4    1  0.2185255E+006  0.2378103E+02  0.7546771E-02  0.1679154E+00
         21   -1    0    0  501  502  0.00000000000E+00  0.00000000000E+00  0.28891910921E+01  0.28891910921E+01  0.00000000000E+00 0. -1.
          2   -1    0    0  503    0 -0.00000000000E+00 -0.00000000000E+00 -0.43399037763E+03  0.43399037763E+03  0.00000000000E+00 0.  1.
         21    1    1    2  503  502 -0.20887571253E+02 -0.11368674239E+02 -0.53703001791E+02  0.58732868040E+02  0.00000000000E+00 0. -1.
          2    1    1    2  501    0  0.20887571253E+02  0.11368674239E+02 -0.37739818475E+03  0.37814670068E+03  0.00000000000E+00 0.  1.
<mgrwt>
<rscale>  2 0.23781030E+02</rscale>
<asrwt>0</asrwt>
<pdfrwt beam="1">  1       21 0.44449134E-03 0.23781030E+02</pdfrwt>
<pdfrwt beam="2">  1        2 0.66767690E-01 0.23781030E+02</pdfrwt>
<totfact> 0.84165181E+06</totfact>
</mgrwt>
</event>
<event>
 4    1  0.2185255E+006  0.3066224E+02  0.7546771E-02  0.1590882E+00
         21   -1    0    0  503  502  0.00000000000E+00  0.00000000000E+00  0.14316691416E+01  0.14316691416E+01  0.00000000000E+00 0. -1.
          2   -1    0    0  502    0 -0.00000000000E+00 -0.00000000000E+00 -0.10537480098E+04  0.10537480098E+04  0.00000000000E+00 0. -1.
         21    1    1    2  503  501  0.26615710046E+02  0.15224228901E+02 -0.20230282968E+03  0.20461331351E+03  0.00000000000E+00 0. -1.
          2    1    1    2  501    0 -0.26615710046E+02 -0.15224228901E+02 -0.85001351097E+03  0.85056636543E+03  0.00000000000E+00 0. -1.
<mgrwt>
<rscale>  2 0.30662243E+02</rscale>
<asrwt>0</asrwt>
<pdfrwt beam="1">  1       21 0.22025669E-03 0.30662243E+02</pdfrwt>
<pdfrwt beam="2">  1        2 0.16211515E+00 0.30662243E+02</pdfrwt>
<totfact> 0.93772605E+06</totfact>
</mgrwt>
</event>
<event>
 4    1  0.2185255E+006  0.3116390E+02  0.7546771E-02  0.1585568E+00
          1   -1    0    0  503    0 -0.00000000000E+00  0.00000000000E+00  0.67091135268E+03  0.67091135268E+03  0.00000000000E+00 0.  1.
         21   -1    0    0  501  502  0.00000000000E+00 -0.00000000000E+00 -0.32113953439E+02  0.32113953439E+02  0.00000000000E+00 0. -1.
         21    1    1    2  503  502 -0.30287857654E+02  0.73371829001E+01 -0.24100226594E+02  0.39395551729E+02  0.00000000000E+00 0. -1.
          1    1    1    2  501    0  0.30287857654E+02 -0.73371829001E+01  0.66289762583E+03  0.66362975439E+03  0.00000000000E+00 0.  1.
<mgrwt>
<rscale>  2 0.31163899E+02</rscale>
<asrwt>0</asrwt>
<pdfrwt beam="2">  1       21 0.49406087E-02 0.31163899E+02</pdfrwt>
<pdfrwt beam="1">  1        1 0.10321712E+00 0.31163899E+02</pdfrwt>
<totfact> 0.85826419E+04</totfact>
</mgrwt>
</event>
<event>
 4    1  0.2185255E+006  0.3169527E+02  0.7546771E-02  0.1580072E+00
         -2   -1    0    0    0  501 -0.00000000000E+00  0.00000000000E+00  0.80536137751E+02  0.80536137751E+02  0.00000000000E+00 0.  1.
         21   -1    0    0  503  502  0.00000000000E+00 -0.00000000000E+00 -0.26559043674E+02  0.26559043674E+02  0.00000000000E+00 0.  1.
         21    1    1    2  503  501  0.23503316025E+02  0.21264620543E+02 -0.12007109001E+02  0.33893371292E+02  0.00000000000E+00 0.  1.
         -2    1    1    2    0  502 -0.23503316025E+02 -0.21264620543E+02  0.65984203078E+02  0.73201810133E+02  0.00000000000E+00 0.  1.
<mgrwt>
<rscale>  2 0.31695267E+02</rscale>
<asrwt>0</asrwt>
<pdfrwt beam="2">  1       21 0.40860067E-02 0.31695267E+02</pdfrwt>
<pdfrwt beam="1">  1       -2 0.12390175E-01 0.31695267E+02</pdfrwt>
<totfact> 0.10726884E+06</totfact>
</mgrwt>
</event>
<event>
 4    1  0.2185255E+006  0.2022519E+02  0.7546771E-02  0.1740887E+00
          2   -1    0    0  503    0 -0.00000000000E+00  0.00000000000E+00  0.37661724504E+02  0.37661724504E+02  0.00000000000E+00 0. -1.
         21   -1    0    0  501  502  0.00000000000E+00 -0.00000000000E+00 -0.14063449987E+02  0.14063449987E+02  0.00000000000E+00 0. -1.
         21    1    1    2  503  502  0.19858024769E+02  0.38363145837E+01 -0.54160157023E+00  0.20232443984E+02  0.00000000000E+00 0. -1.
          2    1    1    2  501    0 -0.19858024769E+02 -0.38363145837E+01  0.24139876087E+02  0.31492730507E+02  0.00000000000E+00 0. -1.
<mgrwt>
<rscale>  2 0.20225194E+02</rscale>
<asrwt>0</asrwt>
<pdfrwt beam="2">  1       21 0.21636077E-02 0.20225194E+02</pdfrwt>
<pdfrwt beam="1">  1        2 0.57941114E-02 0.20225194E+02</pdfrwt>
<totfact> 0.10250381E+07</totfact>
</mgrwt>
</event>
<event>
 4    1  0.2185255E+006  0.2627567E+02  0.7546771E-02  0.1643327E+00
          1   -1    0    0  503    0 -0.00000000000E+00  0.00000000000E+00  0.10373564984E+03  0.10373564984E+03  0.00000000000E+00 0. -1.
         21   -1    0    0  501  502  0.00000000000E+00 -0.00000000000E+00 -0.93162540133E+01  0.93162540133E+01  0.00000000000E+00 0. -1.
         21    1    1    2  503  502 -0.85279364020E+01 -0.24853271248E+02  0.17001068322E+02  0.31296119809E+02  0.00000000000E+00 0. -1.
          1    1    1    2  501    0  0.85279364020E+01  0.24853271248E+02  0.77418327501E+02  0.81755784041E+02  0.00000000000E+00 0. -1.
<mgrwt>
<rscale>  2 0.26275669E+02</rscale>
<asrwt>0</asrwt>
<pdfrwt beam="2">  1       21 0.14332699E-02 0.26275669E+02</pdfrwt>
<pdfrwt beam="1">  1        1 0.15959330E-01 0.26275669E+02</pdfrwt>
<totfact> 0.53945087E+06</totfact>
</mgrwt>
</event>
<event>
 4    1  0.2185255E+006  0.2395169E+02  0.7546771E-02  0.1676532E+00
         21   -1    0    0  503  502  0.00000000000E+00  0.00000000000E+00  0.15713733825E+01  0.15713733825E+01  0.00000000000E+00 0.  1.
          2   -1    0    0  502    0 -0.00000000000E+00 -0.00000000000E+00 -0.41746493634E+03  0.41746493634E+03  0.00000000000E+00 0.  1.
         21    1    1    2  503  501  0.29836730764E+01 -0.23765122295E+02 -0.28216288030E+03  0.28317763747E+03  0.00000000000E+00 0.  1.
          2    1    1    2  501    0 -0.29836730764E+01  0.23765122295E+02 -0.13373068265E+03  0.13585867225E+03  0.00000000000E+00 0.  1.
<mgrwt>
<rscale>  2 0.23951688E+02</rscale>
<asrwt>0</asrwt>
<pdfrwt beam="1">  1       21 0.24174957E-03 0.23951688E+02</pdfrwt>
<pdfrwt beam="2">  1        2 0.64225423E-01 0.23951688E+02</pdfrwt>
<totfact> 0.21352562E+07</totfact>
</mgrwt>
</event>
<event>
 4    1  0.2185255E+006  0.2066037E+02  0.7546771E-02  0.1732506E+00
          2   -1    0    0  503    0 -0.00000000000E+00  0.00000000000E+00  0.16457057915E+03  0.16457057915E+03  0.00000000000E+00 0.  1.
         21   -1    0    0  501  502  0.00000000000E+00 -0.00000000000E+00 -0.53927618209E+01  0.53927618209E+01  0.00000000000E+00 0. -1.
         21    1    1    2  503  502  0.47461548160E+01  0.20107830002E+02  0.18364590715E+02  0.27642521684E+02  0.00000000000E+00 0. -1.
          2    1    1    2  501    0 -0.47461548160E+01 -0.20107830002E+02  0.14081322662E+03  0.14232081929E+03  0.00000000000E+00 0.  1.
<mgrwt>
<rscale>  2 0.20660368E+02</rscale>
<asrwt>0</asrwt>
<pdfrwt beam="2">  1       21 0.82965579E-03 0.20660368E+02</pdfrwt>
<pdfrwt beam="1">  1        2 0.25318547E-01 0.20660368E+02</pdfrwt>
<totfact> 0.84314692E+06</totfact>
</mgrwt>
</event>
<event>
 4    1  0.2185255E+006  0.2134855E+02  0.7546771E-02  0.1719768E+00
          1   -1    0    0  502    0 -0.00000000000E+00  0.00000000000E+00  0.77360490764E+02  0.77360490764E+02  0.00000000000E+00 0.  1.
         21   -1    0    0  503  502  0.00000000000E+00 -0.00000000000E+00 -0.13075997837E+02  0.13075997837E+02  0.00000000000E+00 0. -1.
         21    1    1    2  503  501  0.21111260720E+02 -0.31741587141E+01 -0.13757376921E+01  0.21392832139E+02  0.00000000000E+00 0. -1.
          1    1    1    2  501    0 -0.21111260720E+02  0.31741587141E+01  0.65660230619E+02  0.69043656463E+02  0.00000000000E+00 0.  1.
<mgrwt>
<rscale>  2 0.21348551E+02</rscale>
<asrwt>0</asrwt>
<pdfrwt beam="2">  1       21 0.20116920E-02 0.21348551E+02</pdfrwt>
<pdfrwt beam="1">  1        1 0.11901614E-01 0.21348551E+02</pdfrwt>
<totfact> 0.43484807E+06</totfact>
</mgrwt>
</event>
<event>
 4    1  0.2185255E+006  0.2983251E+02  0.7546771E-02  0.1599947E+00
         21   -1    0    0  503  502  0.00000000000E+00  0.00000000000E+00  0.13111237792E+04  0.13111237792E+04  0.00000000000E+00 0. -1.
         -2   -1    0    0    0  501 -0.00000000000E+00 -0.00000000000E+00 -0.70374549842E+00  0.70374549842E+00  0.00000000000E+00 0.  1.
         21    1    1    2  503  501 -0.29233859058E+02 -0.59464457655E+01  0.77872375516E+03  0.77929497983E+03  0.00000000000E+00 0. -1.
         -2    1    1    2    0  502  0.29233859058E+02  0.59464457655E+01  0.53169627859E+03  0.53253254492E+03  0.00000000000E+00 0.  1.
<mgrwt>
<rscale>  2 0.29832511E+02</rscale>
<asrwt>0</asrwt>
<pdfrwt beam="1">  1       21 0.20170940E+00 0.29832511E+02</pdfrwt>
<pdfrwt beam="2">  1       -2 0.10826959E-03 0.29832511E+02</pdfrwt>
<totfact> 0.43457703E+05</totfact>
</mgrwt>
</event>
<event>
 4    1  0.2185255E+006  0.2903314E+02  0.7546771E-02  0.1609029E+00
         21   -1    0    0  501  502  0.00000000000E+00  0.00000000000E+00  0.91562927279E+02  0.91562927279E+02  0.00000000000E+00 0. -1.
          2   -1    0    0  503    0 -0.00000000000E+00 -0.00000000000E+00 -0.58832710834E+03  0.58832710834E+03  0.00000000000E+00 0.  1.
         21    1    1    2  503  502 -0.26166108726E+02 -0.12580070310E+02  0.88892767469E+02  0.93513889467E+02  0.00000000000E+00 0. -1.
          2    1    1    2  501    0  0.26166108726E+02  0.12580070310E+02 -0.58565694853E+03  0.58637614615E+03  0.00000000000E+00 0.  1.
<mgrwt>
<rscale>  2 0.29033143E+02</rscale>
<asrwt>0</asrwt>
<pdfrwt beam="1">  1       21 0.14086604E-01 0.29033143E+02</pdfrwt>
<pdfrwt beam="2">  1        2 0.90511865E-01 0.29033143E+02</pdfrwt>
<totfact> 0.28356654E+04</totfact>
</mgrwt>
</event>
<event>
 4    1  0.2185255E+006  0.2248604E+02  0.7546771E-02  0.1699979E+00
         21   -1    0    0  501  502  0.00000000000E+00  0.00000000000E+00  0.14181105201E+01  0.14181105201E+01  0.00000000000E+00 0. -1.
          2   -1    0    0  503    0 -0.00000000000E+00 -0.00000000000E+00 -0.15151538633E+04  0.15151538633E+04  0.00000000000E+00 0. -1.
         21    1    1    2  503  502 -0.21529013404E+02 -0.64902832991E+01 -0.93777350061E+02  0.96435541062E+02  0.00000000000E+00 0. -1.
          2    1    1    2  501    0  0.21529013404E+02  0.64902832991E+01 -0.14199584027E+04  0.14201364328E+04  0.00000000000E+00 0. -1.
<mgrwt>
<rscale>  2 0.22486044E+02</rscale>
<asrwt>0</asrwt>
<pdfrwt beam="1">  1       21 0.21817193E-03 0.22486044E+02</pdfrwt>
<pdfrwt beam="2">  1        2 0.23309944E+00 0.22486044E+02</pdfrwt>
<totfact> 0.52554467E+06</totfact>
</mgrwt>
</event>
<event>
 4    1  0.2185255E+006  0.3440815E+02  0.7546771E-02  0.1553920E+00
         21   -1    0    0  503  502  0.00000000000E+00  0.00000000000E+00  0.96758696067E+02  0.96758696067E+02  0.00000000000E+00 0.  1.
          1   -1    0    0  502    0 -0.00000000000E+00 -0.00000000000E+00 -0.49067783360E+03  0.49067783360E+03  0.00000000000E+00 0. -1.
         21    1    1    2  503  501 -0.21888071597E+02  0.26548688602E+02  0.93073418586E+02  0.99229944029E+02  0.00000000000E+00 0.  1.
          1    1    1    2  501    0  0.21888071597E+02 -0.26548688602E+02 -0.48699255612E+03  0.48820658564E+03  0.00000000000E+00 0. -1.
<mgrwt>
<rscale>  2 0.34408146E+02</rscale>
<asrwt>0</asrwt>
<pdfrwt beam="1">  1       21 0.14885953E-01 0.34408146E+02</pdfrwt>
<pdfrwt beam="2">  1        1 0.75488898E-01 0.34408146E+02</pdfrwt>
<totfact> 0.20455736E+04</totfact>
</mgrwt>
</event>
<event>
 4    1  0.2185255E+006  0.3148712E+02  0.7546771E-02  0.1582209E+00
          3   -1    0    0  502    0 -0.00000000000E+00  0.00000000000E+00  0.11528700302E+03  0.11528700302E+03  0.00000000000E+00 0.  1.
         21   -1    0    0  503  502  0.00000000000E+00 -0.00000000000E+00 -0.12534679491E+02  0.12534679491E+02  0.00000000000E+00 0.  1.
         21    1    1    2  503  501 -0.25307824632E+02  0.18733732842E+02  0.15567613394E+02  0.35125337302E+02  0.00000000000E+00 0.  1.
          3    1    1    2  501    0  0.25307824632E+02 -0.18733732842E+02  0.87184710134E+02  0.92696345208E+02  0.00000000000E+00 0.  1.
<mgrwt>
<rscale>  2 0.31487120E+02</rscale>
<asrwt>0</asrwt>
<pdfrwt beam="2">  1       21 0.19284123E-02 0.31487120E+02</pdfrwt>
<pdfrwt beam="1">  1        3 0.17736461E-01 0.31487120E+02</pdfrwt>
<totfact> 0.11899008E+06</totfact>
</mgrwt>
</event>
<event>
 4    1  0.2185255E+006  0.5324656E+02  0.7546771E-02  0.1428578E+00
         21   -1    0    0  503  502  0.00000000000E+00  0.00000000000E+00  0.37543164366E+01  0.37543164366E+01  0.00000000000E+00 0.  1.
          2   -1    0    0  502    0 -0.00000000000E+00 -0.00000000000E+00 -0.12014863617E+04  0.12014863617E+04  0.00000000000E+00 0. -1.
         21    1    1    2  503  501 -0.49332287472E+02  0.20037991089E+02 -0.23158416400E+03  0.23762664137E+03  0.00000000000E+00 0.  1.
          2    1    1    2  501    0  0.49332287472E+02 -0.20037991089E+02 -0.96614788128E+03  0.96761403678E+03  0.00000000000E+00 0. -1.
<mgrwt>
<rscale>  2 0.53246556E+02</rscale>
<asrwt>0</asrwt>
<pdfrwt beam="1">  1       21 0.57758680E-03 0.53246556E+02</pdfrwt>
<pdfrwt beam="2">  1        2 0.18484416E+00 0.53246556E+02</pdfrwt>
<totfact> 0.20348115E+06</totfact>
</mgrwt>
</event>
<event>
 4    1  0.2185255E+006  0.3827092E+02  0.7546771E-02  0.1521335E+00
         21   -1    0    0  501  502  0.00000000000E+00  0.00000000000E+00  0.31950721758E+01  0.31950721758E+01  0.00000000000E+00 0. -1.
          1   -1    0    0  503    0 -0.00000000000E+00 -0.00000000000E+00 -0.21767325393E+04  0.21767325393E+04  0.00000000000E+00 0. -1.
         21    1    1    2  503  502 -0.35855247878E+02  0.13381489781E+02 -0.11835377645E+03  0.12438761783E+03  0.00000000000E+00 0. -1.
          1    1    1    2  501    0  0.35855247878E+02 -0.13381489781E+02 -0.20551836907E+04  0.20555399937E+04  0.00000000000E+00 0. -1.
<mgrwt>
<rscale>  2 0.38270917E+02</rscale>
<asrwt>0</asrwt>
<pdfrwt beam="1">  1       21 0.49154962E-03 0.38270917E+02</pdfrwt>
<pdfrwt beam="2">  1        1 0.33488189E+00 0.38270917E+02</pdfrwt>
<totfact> 0.32512338E+05</totfact>
</mgrwt>
</event>
<event>
 4    1  0.2185255E+006  0.2445873E+02  0.7546771E-02  0.1668900E+00
          1   -1    0    0  503    0 -0.00000000000E+00  0.00000000000E+00  0.17805942050E+04  0.17805942050E+04  0.00000000000E+00 0.  1.
         21   -1    0    0  501  502  0.00000000000E+00 -0.00000000000E+00 -0.19137125931E+01  0.19137125931E+01  0.00000000000E+00 0. -1.
         21    1    1    2  503  502  0.11308770029E+02 -0.21687348410E+02  0.80093525918E+02  0.83744864049E+02  0.00000000000E+00 0. -1.
          1    1    1    2  501    0 -0.11308770029E+02  0.21687348410E+02  0.16985869665E+04  0.16987630535E+04  0.00000000000E+00 0.  1.
<mgrwt>
<rscale>  2 0.24458728E+02</rscale>
<asrwt>0</asrwt>
<pdfrwt beam="2">  1       21 0.29441875E-03 0.24458728E+02</pdfrwt>
<pdfrwt beam="1">  1        1 0.27393624E+00 0.24458728E+02</pdfrwt>
<totfact> 0.11453553E+06</totfact>
</mgrwt>
</event>
<event>
 4    1  0.2185255E+006  0.3660520E+02  0.7546771E-02  0.1534791E+00
         21   -1    0    0  501  502  0.00000000000E+00  0.00000000000E+00  0.18848475364E+01  0.18848475364E+01  0.00000000000E+00 0.  1.
          1   -1    0    0  503    0 -0.00000000000E+00 -0.00000000000E+00 -0.18501180256E+04  0.18501180256E+04  0.00000000000E+00 0.  1.
         21    1    1    2  503  502  0.31103919096E+02  0.19299923681E+02 -0.19748363190E+03  0.20084751855E+03  0.00000000000E+00 0.  1.
          1    1    1    2  501    0 -0.31103919096E+02 -0.19299923681E+02 -0.16507495462E+04  0.16511553546E+04  0.00000000000E+00 0.  1.
<mgrwt>
<rscale>  2 0.36605202E+02</rscale>
<asrwt>0</asrwt>
<pdfrwt beam="1">  1       21 0.28997604E-03 0.36605202E+02</pdfrwt>
<pdfrwt beam="2">  1        1 0.28463404E+00 0.36605202E+02</pdfrwt>
<totfact> 0.11193997E+06</totfact>
</mgrwt>
</event>
<event>
 4    1  0.2185255E+006  0.2128409E+02  0.7546771E-02  0.1720936E+00
         -2   -1    0    0    0  501 -0.00000000000E+00  0.00000000000E+00  0.14788680135E+03  0.14788680135E+03  0.00000000000E+00 0.  1.
         21   -1    0    0  503  502  0.00000000000E+00 -0.00000000000E+00 -0.28875656315E+02  0.28875656315E+02  0.00000000000E+00 0. -1.
         21    1    1    2  503  501 -0.30304833030E+01  0.21067245966E+02 -0.24056352989E+02  0.32120410968E+02  0.00000000000E+00 0. -1.
         -2    1    1    2    0  502  0.30304833030E+01 -0.21067245966E+02  0.14306749802E+03  0.14464204670E+03  0.00000000000E+00 0.  1.
<mgrwt>
<rscale>  2 0.21284095E+02</rscale>
<asrwt>0</asrwt>
<pdfrwt beam="2">  1       21 0.44424088E-02 0.21284095E+02</pdfrwt>
<pdfrwt beam="1">  1       -2 0.22751815E-01 0.21284095E+02</pdfrwt>
<totfact> 0.33089004E+05</totfact>
</mgrwt>
</event>
<event>
 4    1  0.2185255E+006  0.2531681E+02  0.7546771E-02  0.1656493E+00
         21   -1    0    0  503  502  0.00000000000E+00  0.00000000000E+00  0.57707235922E+00  0.57707235922E+00  0.00000000000E+00 0.  1.
          2   -1    0    0  502    0 -0.00000000000E+00 -0.00000000000E+00 -0.18038309234E+04  0.18038309234E+04  0.00000000000E+00 0.  1.
         21    1    1    2  503  501  0.69999740727E+01 -0.24329844238E+02 -0.34235670197E+03  0.34329149763E+03  0.00000000000E+00 0.  1.
          2    1    1    2  501    0 -0.69999740727E+01  0.24329844238E+02 -0.14608971490E+04  0.14611164981E+04  0.00000000000E+00 0.  1.
<mgrwt>
<rscale>  2 0.25316812E+02</rscale>
<asrwt>0</asrwt>
<pdfrwt beam="1">  1       21 0.88780239E-04 0.25316812E+02</pdfrwt>
<pdfrwt beam="2">  1        2 0.27751284E+00 0.25316812E+02</pdfrwt>
<totfact> 0.14348131E+07</totfact>
</mgrwt>
</event>
<event>
 4    1  0.2185255E+006  0.2138197E+02  0.7546771E-02  0.1719165E+00
          2   -1    0    0  503    0 -0.00000000000E+00  0.00000000000E+00  0.12716767255E+03  0.12716767255E+03  0.00000000000E+00 0. -1.
         21   -1    0    0  501  502  0.00000000000E+00 -0.00000000000E+00 -0.39774192812E+01  0.39774192812E+01  0.00000000000E+00 0.  1.
         21    1    1    2  503  502 -0.34724898278E+00 -0.21379147853E+02  0.41266945421E+02  0.46477406653E+02  0.00000000000E+00 0.  1.
          2    1    1    2  501    0  0.34724898278E+00  0.21379147853E+02  0.81923307851E+02  0.84667685182E+02  0.00000000000E+00 0. -1.
<mgrwt>
<rscale>  2 0.21381968E+02</rscale>
<asrwt>0</asrwt>
<pdfrwt beam="2">  1       21 0.61191075E-03 0.21381968E+02</pdfrwt>
<pdfrwt beam="1">  1        2 0.19564254E-01 0.21381968E+02</pdfrwt>
<totfact> 0.17506304E+07</totfact>
</mgrwt>
</event>
<event>
 4    1  0.2185255E+006  0.2516950E+02  0.7546771E-02  0.1658579E+00
         21   -1    0    0  501  502  0.00000000000E+00  0.00000000000E+00  0.13581247792E+03  0.13581247792E+03  0.00000000000E+00 0. -1.
          1   -1    0    0  503    0 -0.00000000000E+00 -0.00000000000E+00 -0.26340487488E+03  0.26340487488E+03  0.00000000000E+00 0. -1.
         21    1    1    2  503  502  0.13705089039E+02  0.21110998714E+02  0.13403718221E+03  0.13637987369E+03  0.00000000000E+00 0. -1.
          1    1    1    2  501    0 -0.13705089039E+02 -0.21110998714E+02 -0.26162957917E+03  0.26283747911E+03  0.00000000000E+00 0. -1.
<mgrwt>
<rscale>  2 0.25169500E+02</rscale>
<asrwt>0</asrwt>
<pdfrwt beam="1">  1       21 0.20894227E-01 0.25169500E+02</pdfrwt>
<pdfrwt beam="2">  1        1 0.40523827E-01 0.25169500E+02</pdfrwt>
<totfact> 0.23361861E+04</totfact>
</mgrwt>
</event>
<event>
 4    1  0.2185255E+006  0.2239117E+02  0.7546771E-02  0.1701573E+00
         -4   -1    0    0    0  501 -0.00000000000E+00  0.00000000000E+00  0.67316212501E+02  0.67316212501E+02  0.00000000000E+00 0.  1.
         21   -1    0    0  501  502  0.00000000000E+00 -0.00000000000E+00 -0.85221226151E+01  0.85221226151E+01  0.00000000000E+00 0.  1.
         21    1    1    2  503  502 -0.22342231467E+02 -0.14796522740E+01  0.15934372657E+02  0.27482156207E+02  0.00000000000E+00 0.  1.
         -4    1    1    2    0  503  0.22342231467E+02  0.14796522740E+01  0.42859717229E+02  0.48356178910E+02  0.00000000000E+00 0.  1.
<mgrwt>
<rscale>  2 0.22391174E+02</rscale>
<asrwt>0</asrwt>
<pdfrwt beam="2">  1       21 0.13110958E-02 0.22391174E+02</pdfrwt>
<pdfrwt beam="1">  1       -4 0.10356340E-01 0.22391174E+02</pdfrwt>
<totfact> 0.37113029E+06</totfact>
</mgrwt>
</event>
<event>
 4    1  0.2185255E+006  0.2486436E+02  0.7546771E-02  0.1662958E+00
          2   -1    0    0  502    0 -0.00000000000E+00  0.00000000000E+00  0.30527334256E+01  0.30527334256E+01  0.00000000000E+00 0.  1.
         21   -1    0    0  503  502  0.00000000000E+00 -0.00000000000E+00 -0.35804544451E+03  0.35804544451E+03  0.00000000000E+00 0. -1.
         21    1    1    2  503  501  0.24862149239E+02 -0.33147547713E+00 -0.29649127770E+03  0.29753203877E+03  0.00000000000E+00 0. -1.
          2    1    1    2  501    0 -0.24862149239E+02  0.33147547713E+00 -0.58501433386E+02  0.63566139170E+02  0.00000000000E+00 0.  1.
<mgrwt>
<rscale>  2 0.24864359E+02</rscale>
<asrwt>0</asrwt>
<pdfrwt beam="2">  1       21 0.55083916E-01 0.24864359E+02</pdfrwt>
<pdfrwt beam="1">  1        2 0.46965128E-03 0.24864359E+02</pdfrwt>
<totfact> 0.11266395E+06</totfact>
</mgrwt>
</event>
<event>
 4    1  0.2185255E+006  0.2633295E+02  0.7546771E-02  0.1642563E+00
         21   -1    0    0  503  502  0.00000000000E+00  0.00000000000E+00  0.50145832378E+03  0.50145832378E+03  0.00000000000E+00 0.  1.
         -3   -1    0    0    0  501 -0.00000000000E+00 -0.00000000000E+00 -0.14069347711E+01  0.14069347711E+01  0.00000000000E+00 0.  1.
         21    1    1    2  503  501  0.20214716780E+02  0.16875713286E+02  0.21710534792E+03  0.21869649418E+03  0.00000000000E+00 0.  1.
         -3    1    1    2    0  502 -0.20214716780E+02 -0.16875713286E+02  0.28294604109E+03  0.28416876437E+03  0.00000000000E+00 0.  1.
<mgrwt>
<rscale>  2 0.26332954E+02</rscale>
<asrwt>0</asrwt>
<pdfrwt beam="1">  1       21 0.77147292E-01 0.26332954E+02</pdfrwt>
<pdfrwt beam="2">  1       -3 0.21645190E-03 0.26332954E+02</pdfrwt>
<totfact> 0.13031785E+06</totfact>
</mgrwt>
</event>
<event>
 4    1  0.2185255E+006  0.8211333E+02  0.7546771E-02  0.1323159E+00
         21   -1    0    0  503  502  0.00000000000E+00  0.00000000000E+00  0.18767465498E+02  0.18767465498E+02  0.00000000000E+00 0. -1.
         -2   -1    0    0    0  501 -0.00000000000E+00 -0.00000000000E+00 -0.13956771134E+04  0.13956771134E+04  0.00000000000E+00 0. -1.
         21    1    1    2  503  501  0.79877960761E+02 -0.19029196568E+02 -0.79018235293E+02  0.11395823992E+03  0.00000000000E+00 0. -1.
         -2    1    1    2    0  502 -0.79877960761E+02  0.19029196568E+02 -0.12978914126E+04  0.13004863390E+04  0.00000000000E+00 0. -1.
<mgrwt>
<rscale>  2 0.82113330E+02</rscale>
<asrwt>0</asrwt>
<pdfrwt beam="1">  1       21 0.28873016E-02 0.82113330E+02</pdfrwt>
<pdfrwt beam="2">  1       -2 0.21471961E+00 0.82113330E+02</pdfrwt>
<totfact> 0.65248857E+03</totfact>
</mgrwt>
</event>
<event>
 4    1  0.2185255E+006  0.2974513E+02  0.7546771E-02  0.1600923E+00
          4   -1    0    0  502    0 -0.00000000000E+00  0.00000000000E+00  0.23974337244E+02  0.23974337244E+02  0.00000000000E+00 0.  1.
         21   -1    0    0  503  502  0.00000000000E+00 -0.00000000000E+00 -0.71818959620E+02  0.71818959620E+02  0.00000000000E+00 0. -1.
         21    1    1    2  503  501 -0.26593353664E+02 -0.13325393153E+02 -0.57317600827E+02  0.64576156020E+02  0.00000000000E+00 0. -1.
          4    1    1    2  501    0  0.26593353664E+02  0.13325393153E+02  0.94729784514E+01  0.31217140844E+02  0.00000000000E+00 0.  1.
<mgrwt>
<rscale>  2 0.29745127E+02</rscale>
<asrwt>0</asrwt>
<pdfrwt beam="2">  1       21 0.11049071E-01 0.29745127E+02</pdfrwt>
<pdfrwt beam="1">  1        4 0.36883596E-02 0.29745127E+02</pdfrwt>
<totfact> 0.71335679E+05</totfact>
</mgrwt>
</event>
<event>
 4    1  0.2185255E+006  0.3222487E+02  0.7546771E-02  0.1574722E+00
         -3   -1    0    0    0  501 -0.00000000000E+00  0.00000000000E+00  0.15917888140E+03  0.15917888140E+03  0.00000000000E+00 0. -1.
         21   -1    0    0  503  502  0.00000000000E+00 -0.00000000000E+00 -0.94651028827E+01  0.94651028827E+01  0.00000000000E+00 0. -1.
         21    1    1    2  503  501  0.32166221737E+02  0.19432655607E+01  0.27850999625E+02  0.42592490911E+02  0.00000000000E+00 0. -1.
         -3    1    1    2    0  502 -0.32166221737E+02 -0.19432655607E+01  0.12186277890E+03  0.12605149337E+03  0.00000000000E+00 0. -1.
<mgrwt>
<rscale>  2 0.32224868E+02</rscale>
<asrwt>0</asrwt>
<pdfrwt beam="2">  1       21 0.14561698E-02 0.32224868E+02</pdfrwt>
<pdfrwt beam="1">  1       -3 0.24489057E-01 0.32224868E+02</pdfrwt>
<totfact> 0.10675863E+06</totfact>
</mgrwt>
</event>
<event>
 4    1  0.2185255E+006  0.2165727E+02  0.7546771E-02  0.1714248E+00
         21   -1    0    0  501  502  0.00000000000E+00  0.00000000000E+00  0.26330828082E+01  0.26330828082E+01  0.00000000000E+00 0. -1.
          1   -1    0    0  503    0 -0.00000000000E+00 -0.00000000000E+00 -0.59949820944E+03  0.59949820944E+03  0.00000000000E+00 0. -1.
         21    1    1    2  503  502 -0.21622254831E+02  0.12310178278E+01 -0.46028167947E+02  0.50868748298E+02  0.00000000000E+00 0. -1.
          1    1    1    2  501    0  0.21622254831E+02 -0.12310178278E+01 -0.55083695868E+03  0.55126254395E+03  0.00000000000E+00 0. -1.
<mgrwt>
<rscale>  2 0.21657269E+02</rscale>
<asrwt>0</asrwt>
<pdfrwt beam="1">  1       21 0.40509033E-03 0.21657269E+02</pdfrwt>
<pdfrwt beam="2">  1        1 0.92230342E-01 0.21657269E+02</pdfrwt>
<totfact> 0.42784291E+06</totfact>
</mgrwt>
</event>
<event>
 4    1  0.2185255E+006  0.2459127E+02  0.7546771E-02  0.1666943E+00
         21   -1    0    0  503  502  0.00000000000E+00  0.00000000000E+00  0.58595114089E+01  0.58595114089E+01  0.00000000000E+00 0. -1.
          2   -1    0    0  502    0 -0.00000000000E+00 -0.00000000000E+00 -0.97261298244E+03  0.97261298244E+03  0.00000000000E+00 0. -1.
         21    1    1    2  503  501 -0.24321851995E+02  0.36301957534E+01 -0.20824899216E+02  0.32224326727E+02  0.00000000000E+00 0. -1.
          2    1    1    2  501    0  0.24321851995E+02 -0.36301957534E+01 -0.94592857181E+03  0.94624816712E+03  0.00000000000E+00 0. -1.
<mgrwt>
<rscale>  2 0.24591275E+02</rscale>
<asrwt>0</asrwt>
<pdfrwt beam="1">  1       21 0.90146366E-03 0.24591275E+02</pdfrwt>
<pdfrwt beam="2">  1        2 0.14963271E+00 0.24591275E+02</pdfrwt>
<totfact> 0.12373923E+06</totfact>
</mgrwt>
</event>
<event>
 4    1  0.2185255E+006  0.2129211E+02  0.7546771E-02  0.1720790E+00
         21   -1    0    0  503  502  0.00000000000E+00  0.00000000000E+00  0.96175329263E+01  0.96175329263E+01  0.00000000000E+00 0. -1.
         -4   -1    0    0    0  501 -0.00000000000E+00 -0.00000000000E+00 -0.13763583066E+03  0.13763583066E+03  0.00000000000E+00 0. -1.
         21    1    1    2  503  501  0.19823872375E+02  0.77696735776E+01 -0.43072780258E+01  0.21723406442E+02  0.00000000000E+00 0. -1.
         -4    1    1    2    0  502 -0.19823872375E+02 -0.77696735776E+01 -0.12371101970E+03  0.12552995714E+03  0.00000000000E+00 0. -1.
<mgrwt>
<rscale>  2 0.21292105E+02</rscale>
<asrwt>0</asrwt>
<pdfrwt beam="1">  1       21 0.14796206E-02 0.21292105E+02</pdfrwt>
<pdfrwt beam="2">  1       -4 0.21174740E-01 0.21292105E+02</pdfrwt>
<totfact> 0.91948811E+05</totfact>
</mgrwt>
</event>
<event>
 4    1  0.2185255E+006  0.2381623E+02  0.7546771E-02  0.1678611E+00
         -3   -1    0    0    0  501 -0.00000000000E+00  0.00000000000E+00  0.79774729070E+02  0.79774729070E+02  0.00000000000E+00 0. -1.
         21   -1    0    0  501  502  0.00000000000E+00 -0.00000000000E+00 -0.78271777985E+01  0.78271777985E+01  0.00000000000E+00 0. -1.
         21    1    1    2  503  502 -0.23438529833E+02 -0.42247126542E+01  0.22716962436E+02  0.32913116840E+02  0.00000000000E+00 0. -1.
         -3    1    1    2    0  503  0.23438529833E+02  0.42247126542E+01  0.49230588835E+02  0.54688790029E+02  0.00000000000E+00 0. -1.
<mgrwt>
<rscale>  2 0.23816231E+02</rscale>
<asrwt>0</asrwt>
<pdfrwt beam="2">  1       21 0.12041813E-02 0.23816231E+02</pdfrwt>
<pdfrwt beam="1">  1       -3 0.12273035E-01 0.23816231E+02</pdfrwt>
<totfact> 0.40433209E+06</totfact>
</mgrwt>
</event>
<event>
 4    1  0.2185255E+006  0.2384229E+02  0.7546771E-02  0.1678210E+00
         21   -1    0    0  501  502  0.00000000000E+00  0.00000000000E+00  0.77304248099E+01  0.77304248099E+01  0.00000000000E+00 0.  1.
         -4   -1    0    0    0  501 -0.00000000000E+00 -0.00000000000E+00 -0.22252310436E+03  0.22252310436E+03  0.00000000000E+00 0.  1.
         21    1    1    2  503  502 -0.57125793681E+01  0.23147810288E+02 -0.13193295273E+02  0.27249178416E+02  0.00000000000E+00 0.  1.
         -4    1    1    2    0  503  0.57125793681E+01 -0.23147810288E+02 -0.20159938427E+03  0.20300435075E+03  0.00000000000E+00 0.  1.
<mgrwt>
<rscale>  2 0.23842288E+02</rscale>
<asrwt>0</asrwt>
<pdfrwt beam="1">  1       21 0.11892962E-02 0.23842288E+02</pdfrwt>
<pdfrwt beam="2">  1       -4 0.34234322E-01 0.23842288E+02</pdfrwt>
<totfact> 0.57105411E+05</totfact>
</mgrwt>
</event>
<event>
 4    1  0.2185255E+006  0.3519753E+02  0.7546771E-02  0.1546853E+00
         21   -1    0    0  501  502  0.00000000000E+00  0.00000000000E+00  0.30724194218E+01  0.30724194218E+01  0.00000000000E+00 0.  1.
          4   -1    0    0  503    0 -0.00000000000E+00 -0.00000000000E+00 -0.51491092498E+03  0.51491092498E+03  0.00000000000E+00 0. -1.
         21    1    1    2  503  502  0.28458611136E+02  0.20711668976E+02 -0.13529749860E+03  0.13980085446E+03  0.00000000000E+00 0.  1.
          4    1    1    2  501    0 -0.28458611136E+02 -0.20711668976E+02 -0.37654100695E+03  0.37818248994E+03  0.00000000000E+00 0. -1.
<mgrwt>
<rscale>  2 0.35197525E+02</rscale>
<asrwt>0</asrwt>
<pdfrwt beam="1">  1       21 0.47268041E-03 0.35197525E+02</pdfrwt>
<pdfrwt beam="2">  1        4 0.79216983E-01 0.35197525E+02</pdfrwt>
<totfact> 0.50106776E+05</totfact>
</mgrwt>
</event>
<event>
 4    1  0.2185255E+006  0.2096497E+02  0.7546771E-02  0.1726792E+00
          2   -1    0    0  502    0 -0.00000000000E+00  0.00000000000E+00  0.64692917880E+03  0.64692917880E+03  0.00000000000E+00 0.  1.
         21   -1    0    0  503  502  0.00000000000E+00 -0.00000000000E+00 -0.27640985710E+03  0.27640985710E+03  0.00000000000E+00 0. -1.
         21    1    1    2  503  501  0.20140498446E+02  0.58215522990E+01 -0.27584212072E+03  0.27663767948E+03  0.00000000000E+00 0. -1.
          2    1    1    2  501    0 -0.20140498446E+02 -0.58215522990E+01  0.64636144242E+03  0.64670135642E+03  0.00000000000E+00 0.  1.
<mgrwt>
<rscale>  2 0.20964974E+02</rscale>
<asrwt>0</asrwt>
<pdfrwt beam="2">  1       21 0.42524594E-01 0.20964974E+02</pdfrwt>
<pdfrwt beam="1">  1        2 0.99527566E-01 0.20964974E+02</pdfrwt>
<totfact> 0.35562425E+03</totfact>
</mgrwt>
</event>
<event>
 4    1  0.2185255E+006  0.2942737E+02  0.7546771E-02  0.1604506E+00
         21   -1    0    0  501  502  0.00000000000E+00  0.00000000000E+00  0.47130623300E+01  0.47130623300E+01  0.00000000000E+00 0. -1.
         -1   -1    0    0    0  501 -0.00000000000E+00 -0.00000000000E+00 -0.97479763698E+03  0.97479763698E+03  0.00000000000E+00 0. -1.
         21    1    1    2  503  502  0.18217935973E+02  0.23110101857E+02 -0.43851445624E+02  0.52810219487E+02  0.00000000000E+00 0. -1.
         -1    1    1    2    0  503 -0.18217935973E+02 -0.23110101857E+02 -0.92623312903E+03  0.92670047983E+03  0.00000000000E+00 0. -1.
<mgrwt>
<rscale>  2 0.29427368E+02</rscale>
<asrwt>0</asrwt>
<pdfrwt beam="1">  1       21 0.72508635E-03 0.29427368E+02</pdfrwt>
<pdfrwt beam="2">  1       -1 0.14996890E+00 0.29427368E+02</pdfrwt>
<totfact> 0.18829693E+05</totfact>
</mgrwt>
</event>
<event>
 4    1  0.2185255E+006  0.3332777E+02  0.7546771E-02  0.1563972E+00
          2   -1    0    0  502    0 -0.00000000000E+00  0.00000000000E+00  0.26182347976E+03  0.26182347976E+03  0.00000000000E+00 0. -1.
         21   -1    0    0  503  502  0.00000000000E+00 -0.00000000000E+00 -0.62812756808E+01  0.62812756808E+01  0.00000000000E+00 0.  1.
         21    1    1    2  503  501 -0.31263813496E+02  0.11546172606E+02  0.51395610409E+02  0.61255603053E+02  0.00000000000E+00 0.  1.
          2    1    1    2  501    0  0.31263813496E+02 -0.11546172606E+02  0.20414659367E+03  0.20684915239E+03  0.00000000000E+00 0. -1.
<mgrwt>
<rscale>  2 0.33327768E+02</rscale>
<asrwt>0</asrwt>
<pdfrwt beam="2">  1       21 0.96635030E-03 0.33327768E+02</pdfrwt>
<pdfrwt beam="1">  1        2 0.40280527E-01 0.33327768E+02</pdfrwt>
<totfact> 0.47244433E+06</totfact>
</mgrwt>
</event>
<event>
 4    1  0.2185255E+006  0.2120170E+02  0.7546771E-02  0.1722435E+00
          3   -1    0    0  502    0 -0.00000000000E+00  0.00000000000E+00  0.22989519193E+03  0.22989519193E+03  0.00000000000E+00 0. -1.
         21   -1    0    0  503  502  0.00000000000E+00 -0.00000000000E+00 -0.20893476241E+02  0.20893476241E+02  0.00000000000E+00 0. -1.
         21    1    1    2  503  501 -0.15999115466E+02 -0.13911882570E+02 -0.14881934609E+02  0.25903361752E+02  0.00000000000E+00 0. -1.
          3    1    1    2  501    0  0.15999115466E+02  0.13911882570E+02  0.22388365030E+03  0.22488530642E+03  0.00000000000E+00 0. -1.
<mgrwt>
<rscale>  2 0.21201702E+02</rscale>
<asrwt>0</asrwt>
<pdfrwt beam="2">  1       21 0.32143811E-02 0.21201702E+02</pdfrwt>
<pdfrwt beam="1">  1        3 0.35368489E-01 0.21201702E+02</pdfrwt>
<totfact> 0.14437034E+05</totfact>
</mgrwt>
</event>
<event>
 4    1  0.2185255E+006  0.2627400E+02  0.7546771E-02  0.1643350E+00
         21   -1    0    0  503  502  0.00000000000E+00  0.00000000000E+00  0.74810933869E+01  0.74810933869E+01  0.00000000000E+00 0. -1.
          2   -1    0    0  502    0 -0.00000000000E+00 -0.00000000000E+00 -0.10504263582E+04  0.10504263582E+04  0.00000000000E+00 0.  1.
         21    1    1    2  503  501  0.20673750526E+02  0.16214778750E+02 -0.16286082022E+02  0.30912125103E+02  0.00000000000E+00 0. -1.
          2    1    1    2  501    0 -0.20673750526E+02 -0.16214778750E+02 -0.10266591828E+04  0.10269953265E+04  0.00000000000E+00 0.  1.
<mgrwt>
<rscale>  2 0.26273999E+02</rscale>
<asrwt>0</asrwt>
<pdfrwt beam="1">  1       21 0.11509374E-02 0.26273999E+02</pdfrwt>
<pdfrwt beam="2">  1        2 0.16160406E+00 0.26273999E+02</pdfrwt>
<totfact> 0.78471217E+05</totfact>
</mgrwt>
</event>
<event>
 4    1  0.2185255E+006  0.3237787E+02  0.7546771E-02  0.1573200E+00
         21   -1    0    0  503  502  0.00000000000E+00  0.00000000000E+00  0.15179272943E+03  0.15179272943E+03  0.00000000000E+00 0.  1.
         -3   -1    0    0    0  501 -0.00000000000E+00 -0.00000000000E+00 -0.25670691336E+02  0.25670691336E+02  0.00000000000E+00 0. -1.
         21    1    1    2  503  501  0.31500333551E+02  0.74870184581E+01  0.13892354274E+03  0.14264668656E+03  0.00000000000E+00 0.  1.
         -3    1    1    2    0  502 -0.31500333551E+02 -0.74870184581E+01 -0.12801504650E+02  0.34816734202E+02  0.00000000000E+00 0. -1.
<mgrwt>
<rscale>  2 0.32377870E+02</rscale>
<asrwt>0</asrwt>
<pdfrwt beam="1">  1       21 0.23352727E-01 0.32377870E+02</pdfrwt>
<pdfrwt beam="2">  1       -3 0.39493372E-02 0.32377870E+02</pdfrwt>
<totfact> 0.20987825E+05</totfact>
</mgrwt>
</event>
<event>
 4    1  0.2185255E+006  0.2088997E+02  0.7546771E-02  0.1728188E+00
          3   -1    0    0  503    0 -0.00000000000E+00  0.00000000000E+00  0.93956183128E+00  0.93956183128E+00  0.00000000000E+00 0.  1.
         21   -1    0    0  501  502  0.00000000000E+00 -0.00000000000E+00 -0.85640387187E+03  0.85640387187E+03  0.00000000000E+00 0. -1.
         21    1    1    2  503  502 -0.12786351777E+02 -0.16519681294E+02 -0.71773109648E+03  0.71803503920E+03  0.00000000000E+00 0. -1.
          3    1    1    2  501    0  0.12786351777E+02  0.16519681294E+02 -0.13773321355E+03  0.13930839450E+03  0.00000000000E+00 0.  1.
<mgrwt>
<rscale>  2 0.20889966E+02</rscale>
<asrwt>0</asrwt>
<pdfrwt beam="2">  1       21 0.13175430E+00 0.20889966E+02</pdfrwt>
<pdfrwt beam="1">  1        3 0.14454813E-03 0.20889966E+02</pdfrwt>
<totfact> 0.66136788E+05</totfact>
</mgrwt>
</event>
<event>
 4    1  0.2185255E+006  0.2035867E+02  0.7546771E-02  0.1738288E+00
         21   -1    0    0  503  502  0.00000000000E+00  0.00000000000E+00  0.11502684196E+02  0.11502684196E+02  0.00000000000E+00 0. -1.
          1   -1    0    0  502    0 -0.00000000000E+00 -0.00000000000E+00 -0.13225450457E+04  0.13225450457E+04  0.00000000000E+00 0. -1.
         21    1    1    2  503  501  0.10472798784E+02  0.17458407582E+02  0.23533524537E+01  0.20494237665E+02  0.00000000000E+00 0. -1.
          1    1    1    2  501    0 -0.10472798784E+02 -0.17458407582E+02 -0.13133957140E+04  0.13135534923E+04  0.00000000000E+00 0. -1.
<mgrwt>
<rscale>  2 0.20358672E+02</rscale>
<asrwt>0</asrwt>
<pdfrwt beam="1">  1       21 0.17696432E-02 0.20358672E+02</pdfrwt>
<pdfrwt beam="2">  1        1 0.20346853E+00 0.20358672E+02</pdfrwt>
<totfact> 0.14555344E+05</totfact>
</mgrwt>
</event>
<event>
 4    1  0.2185255E+006  0.2299592E+02  0.7546771E-02  0.1691576E+00
         -1   -1    0    0    0  501 -0.00000000000E+00  0.00000000000E+00  0.64008062491E+03  0.64008062491E+03  0.00000000000E+00 0.  1.
         21   -1    0    0  503  502  0.00000000000E+00 -0.00000000000E+00 -0.54806663404E+02  0.54806663404E+02  0.00000000000E+00 0.  1.
         21    1    1    2  503  501 -0.75000054857E+01 -0.21738500087E+02 -0.52178005892E+02  0.57020669648E+02  0.00000000000E+00 0.  1.
         -1    1    1    2    0  502  0.75000054857E+01  0.21738500087E+02  0.63745196740E+03  0.63786661867E+03  0.00000000000E+00 0.  1.
<mgrwt>
<rscale>  2 0.22995923E+02</rscale>
<asrwt>0</asrwt>
<pdfrwt beam="2">  1       21 0.84317948E-02 0.22995923E+02</pdfrwt>
<pdfrwt beam="1">  1       -1 0.98473937E-01 0.22995923E+02</pdfrwt>
<totfact> 0.10392582E+04</totfact>
</mgrwt>
</event>
<event>
 4    1  0.2185255E+006  0.2086377E+02  0.7546771E-02  0.1728677E+00
         21   -1    0    0  503  502  0.00000000000E+00  0.00000000000E+00  0.23399521492E+03  0.23399521492E+03  0.00000000000E+00 0.  1.
         -2   -1    0    0    0  501 -0.00000000000E+00 -0.00000000000E+00 -0.28216392945E+02  0.28216392945E+02  0.00000000000E+00 0.  1.
         21    1    1    2  503  501  0.17044670516E+02 -0.12032294508E+02  0.22959968803E+03  0.23054568669E+03  0.00000000000E+00 0.  1.
         -2    1    1    2    0  502 -0.17044670516E+02  0.12032294508E+02 -0.23820866061E+02  0.31665921178E+02  0.00000000000E+00 0.  1.
<mgrwt>
<rscale>  2 0.20863770E+02</rscale>
<asrwt>0</asrwt>
<pdfrwt beam="1">  1       21 0.35999263E-01 0.20863770E+02</pdfrwt>
<pdfrwt beam="2">  1       -2 0.43409837E-02 0.20863770E+02</pdfrwt>
<totfact> 0.11509070E+05</totfact>
</mgrwt>
</event>
<event>
 4    1  0.2185255E+006  0.2068671E+02  0.7546771E-02  0.1732007E+00
         -3   -1    0    0    0  501 -0.00000000000E+00  0.00000000000E+00  0.13547135367E+04  0.13547135367E+04  0.00000000000E+00 0. -1.
         21   -1    0    0  503  502  0.00000000000E+00 -0.00000000000E+00 -0.67752235503E+00  0.67752235503E+00  0.00000000000E+00 0. -1.
         21    1    1    2  503  501 -0.11352116835E+02  0.17293619130E+02  0.18190227119E+03  0.18307478276E+03  0.00000000000E+00 0. -1.
         -3    1    1    2    0  502  0.11352116835E+02 -0.17293619130E+02  0.11721337432E+04  0.11723162763E+04  0.00000000000E+00 0. -1.
<mgrwt>
<rscale>  2 0.20686706E+02</rscale>
<asrwt>0</asrwt>
<pdfrwt beam="2">  1       21 0.10423529E-03 0.20686706E+02</pdfrwt>
<pdfrwt beam="1">  1       -3 0.20841530E+00 0.20686706E+02</pdfrwt>
<totfact> 0.53505947E+05</totfact>
</mgrwt>
</event>
<event>
 4    1  0.2185255E+006  0.2178572E+02  0.7546771E-02  0.1711984E+00
         21   -1    0    0  503  502  0.00000000000E+00  0.00000000000E+00  0.13053094558E+01  0.13053094558E+01  0.00000000000E+00 0.  1.
          2   -1    0    0  502    0 -0.00000000000E+00 -0.00000000000E+00 -0.57635039617E+03  0.57635039617E+03  0.00000000000E+00 0.  1.
         21    1    1    2  503  501 -0.71623210107E+01  0.20574713898E+02 -0.11204346245E+03  0.11414182043E+03  0.00000000000E+00 0.  1.
          2    1    1    2  501    0  0.71623210107E+01 -0.20574713898E+02 -0.46300162427E+03  0.46351388519E+03  0.00000000000E+00 0.  1.
<mgrwt>
<rscale>  2 0.21785722E+02</rscale>
<asrwt>0</asrwt>
<pdfrwt beam="1">  1       21 0.20081689E-03 0.21785722E+02</pdfrwt>
<pdfrwt beam="2">  1        2 0.88669270E-01 0.21785722E+02</pdfrwt>
<totfact> 0.19612802E+07</totfact>
</mgrwt>
</event>
<event>
 4    1  0.2185255E+006  0.2340665E+02  0.7546771E-02  0.1685002E+00
          2   -1    0    0  502    0 -0.00000000000E+00  0.00000000000E+00  0.44987964580E+02  0.44987964580E+02  0.00000000000E+00 0.  1.
         21   -1    0    0  503  502  0.00000000000E+00 -0.00000000000E+00 -0.17401489065E+02  0.17401489065E+02  0.00000000000E+00 0.  1.
         21    1    1    2  503  501  0.22219724320E+02 -0.73590102058E+01 -0.32975139989E+01  0.23637782862E+02  0.00000000000E+00 0.  1.
          2    1    1    2  501    0 -0.22219724320E+02  0.73590102058E+01  0.30883989514E+02  0.38751670782E+02  0.00000000000E+00 0.  1.
<mgrwt>
<rscale>  2 0.23406648E+02</rscale>
<asrwt>0</asrwt>
<pdfrwt beam="2">  1       21 0.26771522E-02 0.23406648E+02</pdfrwt>
<pdfrwt beam="1">  1        2 0.69212253E-02 0.23406648E+02</pdfrwt>
<totfact> 0.62329408E+06</totfact>
</mgrwt>
</event>
<event>
 4    1  0.2185255E+006  0.2323747E+02  0.7546771E-02  0.1687689E+00
          4   -1    0    0  503    0 -0.00000000000E+00  0.00000000000E+00  0.53853803908E+03  0.53853803908E+03  0.00000000000E+00 0.  1.
         21   -1    0    0  501  502  0.00000000000E+00 -0.00000000000E+00 -0.12260217244E+01  0.12260217244E+01  0.00000000000E+00 0. -1.
         21    1    1    2  503  502  0.11218852379E+02 -0.20349879453E+02  0.15346680774E+03  0.15521611166E+03  0.00000000000E+00 0. -1.
          4    1    1    2  501    0 -0.11218852379E+02  0.20349879453E+02  0.38384520962E+03  0.38454794915E+03  0.00000000000E+00 0.  1.
<mgrwt>
<rscale>  2 0.23237475E+02</rscale>
<asrwt>0</asrwt>
<pdfrwt beam="2">  1       21 0.18861916E-03 0.23237475E+02</pdfrwt>
<pdfrwt beam="1">  1        4 0.82851817E-01 0.23237475E+02</pdfrwt>
<totfact> 0.14957940E+06</totfact>
</mgrwt>
</event>
<event>
 4    1  0.2185255E+006  0.2483681E+02  0.7546771E-02  0.1663357E+00
          2   -1    0    0  502    0 -0.00000000000E+00  0.00000000000E+00  0.57708920917E+03  0.57708920917E+03  0.00000000000E+00 0.  1.
         21   -1    0    0  503  502  0.00000000000E+00 -0.00000000000E+00 -0.18771385722E+02  0.18771385722E+02  0.00000000000E+00 0. -1.
         21    1    1    2  503  501  0.22433419491E+02 -0.10658755235E+02 -0.10164297897E+02  0.26836175677E+02  0.00000000000E+00 0. -1.
          2    1    1    2  501    0 -0.22433419491E+02  0.10658755235E+02  0.56848212134E+03  0.56902441921E+03  0.00000000000E+00 0.  1.
<mgrwt>
<rscale>  2 0.24836815E+02</rscale>
<asrwt>0</asrwt>
<pdfrwt beam="2">  1       21 0.28879059E-02 0.24836815E+02</pdfrwt>
<pdfrwt beam="1">  1        2 0.88782942E-01 0.24836815E+02</pdfrwt>
<totfact> 0.37535233E+05</totfact>
</mgrwt>
</event>
<event>
 4    1  0.2185255E+006  0.2155141E+02  0.7546771E-02  0.1716128E+00
          1   -1    0    0  502    0 -0.00000000000E+00  0.00000000000E+00  0.13699548021E+03  0.13699548021E+03  0.00000000000E+00 0. -1.
         21   -1    0    0  503  502  0.00000000000E+00 -0.00000000000E+00 -0.15795774885E+02  0.15795774885E+02  0.00000000000E+00 0.  1.
         21    1    1    2  503  501  0.16839358305E+02  0.13449874237E+02 -0.71025054079E+01  0.22691599507E+02  0.00000000000E+00 0.  1.
          1    1    1    2  501    0 -0.16839358305E+02 -0.13449874237E+02  0.12830221073E+03  0.13009965559E+03  0.00000000000E+00 0. -1.
<mgrwt>
<rscale>  2 0.21551406E+02</rscale>
<asrwt>0</asrwt>
<pdfrwt beam="2">  1       21 0.24301193E-02 0.21551406E+02</pdfrwt>
<pdfrwt beam="1">  1        1 0.21076227E-01 0.21551406E+02</pdfrwt>
<totfact> 0.16376689E+06</totfact>
</mgrwt>
</event>
<event>
 4    1  0.2185255E+006  0.2127871E+02  0.7546771E-02  0.1721033E+00
         21   -1    0    0  503  502  0.00000000000E+00  0.00000000000E+00  0.63078341572E+02  0.63078341572E+02  0.00000000000E+00 0. -1.
          2   -1    0    0  502    0 -0.00000000000E+00 -0.00000000000E+00 -0.20953429901E+03  0.20953429901E+03  0.00000000000E+00 0.  1.
         21    1    1    2  503  501  0.14444942676E+02  0.15624574285E+02  0.60723240478E+02  0.64343574852E+02  0.00000000000E+00 0. -1.
          2    1    1    2  501    0 -0.14444942676E+02 -0.15624574285E+02 -0.20717919792E+03  0.20826906573E+03  0.00000000000E+00 0.  1.
<mgrwt>
<rscale>  2 0.21278714E+02</rscale>
<asrwt>0</asrwt>
<pdfrwt beam="1">  1       21 0.97043601E-02 0.21278714E+02</pdfrwt>
<pdfrwt beam="2">  1        2 0.32236047E-01 0.21278714E+02</pdfrwt>
<totfact> 0.14526259E+05</totfact>
</mgrwt>
</event>
<event>
 4    1  0.2185255E+006  0.2479036E+02  0.7546771E-02  0.1664031E+00
         -2   -1    0    0    0  501 -0.00000000000E+00  0.00000000000E+00  0.15903276208E+03  0.15903276208E+03  0.00000000000E+00 0. -1.
         21   -1    0    0  503  502  0.00000000000E+00 -0.00000000000E+00 -0.54095416261E+01  0.54095416261E+01  0.00000000000E+00 0. -1.
         21    1    1    2  503  501  0.13532800793E+02 -0.20770784309E+02  0.32868476101E+02  0.41169149849E+02  0.00000000000E+00 0. -1.
         -2    1    1    2    0  502 -0.13532800793E+02  0.20770784309E+02  0.12075474435E+03  0.12327315385E+03  0.00000000000E+00 0. -1.
<mgrwt>
<rscale>  2 0.24790365E+02</rscale>
<asrwt>0</asrwt>
<pdfrwt beam="2">  1       21 0.83223729E-03 0.24790365E+02</pdfrwt>
<pdfrwt beam="1">  1       -2 0.24466575E-01 0.24790365E+02</pdfrwt>
<totfact> 0.39796715E+06</totfact>
</mgrwt>
</event>
<event>
 4    1  0.2185255E+006  0.2288944E+02  0.7546771E-02  0.1693309E+00
         -1   -1    0    0    0  501 -0.00000000000E+00  0.00000000000E+00  0.40007141902E+02  0.40007141902E+02  0.00000000000E+00 0. -1.
         21   -1    0    0  503  502  0.00000000000E+00 -0.00000000000E+00 -0.13899099995E+02  0.13899099995E+02  0.00000000000E+00 0. -1.
         21    1    1    2  503  501  0.94167139082E+01 -0.20862690686E+02  0.65744095142E+01  0.23814895002E+02  0.00000000000E+00 0. -1.
         -1    1    1    2    0  502 -0.94167139082E+01  0.20862690686E+02  0.19533632393E+02  0.30091346895E+02  0.00000000000E+00 0. -1.
<mgrwt>
<rscale>  2 0.22889438E+02</rscale>
<asrwt>0</asrwt>
<pdfrwt beam="2">  1       21 0.21383231E-02 0.22889438E+02</pdfrwt>
<pdfrwt beam="1">  1       -1 0.61549449E-02 0.22889438E+02</pdfrwt>
<totfact> 0.79069292E+06</totfact>
</mgrwt>
</event>
<event>
 4    1  0.2185255E+006  0.2122488E+02  0.7546771E-02  0.1722013E+00
          1   -1    0    0  502    0 -0.00000000000E+00  0.00000000000E+00  0.93527495145E+03  0.93527495145E+03  0.00000000000E+00 0. -1.
         21   -1    0    0  503  502  0.00000000000E+00 -0.00000000000E+00 -0.20129603273E+01  0.20129603273E+01  0.00000000000E+00 0. -1.
         21    1    1    2  503  501  0.15373485449E+02  0.14633913436E+02  0.57884595441E+02  0.61653238899E+02  0.00000000000E+00 0. -1.
          1    1    1    2  501    0 -0.15373485449E+02 -0.14633913436E+02  0.87537739568E+03  0.87563467287E+03  0.00000000000E+00 0. -1.
<mgrwt>
<rscale>  2 0.21224879E+02</rscale>
<asrwt>0</asrwt>
<pdfrwt beam="2">  1       21 0.30968695E-03 0.21224879E+02</pdfrwt>
<pdfrwt beam="1">  1        1 0.14388811E+00 0.21224879E+02</pdfrwt>
<totfact> 0.34567156E+06</totfact>
</mgrwt>
</event>
<event>
 4    1  0.2185255E+006  0.2243447E+02  0.7546771E-02  0.1700845E+00
         21   -1    0    0  501  502  0.00000000000E+00  0.00000000000E+00  0.24115355679E+02  0.24115355679E+02  0.00000000000E+00 0. -1.
          2   -1    0    0  503    0 -0.00000000000E+00 -0.00000000000E+00 -0.12525706796E+04  0.12525706796E+04  0.00000000000E+00 0. -1.
         21    1    1    2  503  502  0.57229226163E+01  0.21692244930E+02  0.18774876396E+02  0.29254082058E+02  0.00000000000E+00 0. -1.
          2    1    1    2  501    0 -0.57229226163E+01 -0.21692244930E+02 -0.12472302003E+04  0.12474319532E+04  0.00000000000E+00 0. -1.
<mgrwt>
<rscale>  2 0.22434468E+02</rscale>
<asrwt>0</asrwt>
<pdfrwt beam="1">  1       21 0.37100547E-02 0.22434468E+02</pdfrwt>
<pdfrwt beam="2">  1        2 0.19270318E+00 0.22434468E+02</pdfrwt>
<totfact> 0.10018135E+05</totfact>
</mgrwt>
</event>
<event>
 4    1  0.2185255E+006  0.2026571E+02  0.7546771E-02  0.1740095E+00
         21   -1    0    0  501  502  0.00000000000E+00  0.00000000000E+00  0.15594742025E+02  0.15594742025E+02  0.00000000000E+00 0. -1.
          1   -1    0    0  503    0 -0.00000000000E+00 -0.00000000000E+00 -0.30853233069E+03  0.30853233069E+03  0.00000000000E+00 0. -1.
         21    1    1    2  503  502 -0.15028587746E+02 -0.13595606460E+02  0.85237679560E+01  0.21985303837E+02  0.00000000000E+00 0. -1.
          1    1    1    2  501    0  0.15028587746E+02  0.13595606460E+02 -0.30146135662E+03  0.30214176887E+03  0.00000000000E+00 0. -1.
<mgrwt>
<rscale>  2 0.20265709E+02</rscale>
<asrwt>0</asrwt>
<pdfrwt beam="1">  1       21 0.23991911E-02 0.20265709E+02</pdfrwt>
<pdfrwt beam="2">  1        1 0.47466512E-01 0.20265709E+02</pdfrwt>
<totfact> 0.64368758E+05</totfact>
</mgrwt>
</event>
<event>
 4    1  0.2185255E+006  0.2226064E+02  0.7546771E-02  0.1703783E+00
         -1   -1    0    0    0  501 -0.00000000000E+00  0.00000000000E+00  0.19241378748E+03  0.19241378748E+03  0.00000000000E+00 0.  1.
         21   -1    0    0  503  502  0.00000000000E+00 -0.00000000000E+00 -0.42457135109E+01  0.42457135109E+01  0.00000000000E+00 0.  1.
         21    1    1    2  503  501 -0.18581819052E+02  0.12257728912E+02  0.32408488929E+02  0.39317249040E+02  0.00000000000E+00 0.  1.
         -1    1    1    2    0  502  0.18581819052E+02 -0.12257728912E+02  0.15575958504E+03  0.15734225196E+03  0.00000000000E+00 0.  1.
<mgrwt>
<rscale>  2 0.22260636E+02</rscale>
<asrwt>0</asrwt>
<pdfrwt beam="2">  1       21 0.65318684E-03 0.22260636E+02</pdfrwt>
<pdfrwt beam="1">  1       -1 0.29602114E-01 0.22260636E+02</pdfrwt>
<totfact> 0.46049237E+06</totfact>
</mgrwt>
</event>
<event>
 4    1  0.2185255E+006  0.2789298E+02  0.7546771E-02  0.1622619E+00
         -3   -1    0    0    0  501 -0.00000000000E+00  0.00000000000E+00  0.17152462405E+04  0.17152462405E+04  0.00000000000E+00 0.  1.
         21   -1    0    0  503  502  0.00000000000E+00 -0.00000000000E+00 -0.45359521519E+00  0.45359521519E+00  0.00000000000E+00 0.  1.
         21    1    1    2  503  501 -0.14605022516E+02 -0.23763662141E+02  0.85445179324E+03  0.85490694540E+03  0.00000000000E+00 0.  1.
         -3    1    1    2    0  502  0.14605022516E+02  0.23763662141E+02  0.86034085204E+03  0.86079289031E+03  0.00000000000E+00 0.  1.
<mgrwt>
<rscale>  2 0.27892980E+02</rscale>
<asrwt>0</asrwt>
<pdfrwt beam="2">  1       21 0.69785252E-04 0.27892980E+02</pdfrwt>
<pdfrwt beam="1">  1       -3 0.26387884E+00 0.27892980E+02</pdfrwt>
<totfact> 0.54063172E+05</totfact>
</mgrwt>
</event>
<event>
 4    1  0.2185255E+006  0.2578601E+02  0.7546771E-02  0.1649962E+00
         21   -1    0    0  503  502  0.00000000000E+00  0.00000000000E+00  0.20806916262E+03  0.20806916262E+03  0.00000000000E+00 0.  1.
          2   -1    0    0  502    0 -0.00000000000E+00 -0.00000000000E+00 -0.99123654153E+03  0.99123654153E+03  0.00000000000E+00 0. -1.
         21    1    1    2  503  501 -0.62669611260E+01 -0.25012869203E+02  0.20710176790E+03  0.20870088811E+03  0.00000000000E+00 0.  1.
          2    1    1    2  501    0  0.62669611260E+01  0.25012869203E+02 -0.99026914681E+03  0.99060481604E+03  0.00000000000E+00 0. -1.
<mgrwt>
<rscale>  2 0.25786012E+02</rscale>
<asrwt>0</asrwt>
<pdfrwt beam="1">  1       21 0.32010640E-01 0.25786012E+02</pdfrwt>
<pdfrwt beam="2">  1        2 0.15249793E+00 0.25786012E+02</pdfrwt>
<totfact> 0.36730024E+03</totfact>
</mgrwt>
</event>
<event>
 4    1  0.2185255E+006  0.5233911E+02  0.7546771E-02  0.1433118E+00
          1   -1    0    0  503    0 -0.00000000000E+00  0.00000000000E+00  0.28059108177E+02  0.28059108177E+02  0.00000000000E+00 0. -1.
         21   -1    0    0  501  502  0.00000000000E+00 -0.00000000000E+00 -0.12347162084E+03  0.12347162084E+03  0.00000000000E+00 0.  1.
         21    1    1    2  503  502  0.49123587333E+02  0.18062559120E+02 -0.82368395338E+02  0.97590652344E+02  0.00000000000E+00 0.  1.
          1    1    1    2  501    0 -0.49123587333E+02 -0.18062559120E+02 -0.13044117320E+02  0.53940076669E+02  0.00000000000E+00 0. -1.
<mgrwt>
<rscale>  2 0.52339114E+02</rscale>
<asrwt>0</asrwt>
<pdfrwt beam="2">  1       21 0.18995634E-01 0.52339114E+02</pdfrwt>
<pdfrwt beam="1">  1        1 0.43167858E-02 0.52339114E+02</pdfrwt>
<totfact> 0.47978393E+05</totfact>
</mgrwt>
</event>
<event>
 4    1  0.2185255E+006  0.2514665E+02  0.7546771E-02  0.1658904E+00
         -3   -1    0    0    0  501 -0.00000000000E+00  0.00000000000E+00  0.36513967004E+03  0.36513967004E+03  0.00000000000E+00 0.  1.
         21   -1    0    0  503  502  0.00000000000E+00 -0.00000000000E+00 -0.19538494283E+01  0.19538494283E+01  0.00000000000E+00 0.  1.
         21    1    1    2  503  501 -0.15732004469E+02  0.19617802335E+02  0.11971837678E+03  0.12233087865E+03  0.00000000000E+00 0.  1.
         -3    1    1    2    0  502  0.15732004469E+02 -0.19617802335E+02  0.24346744384E+03  0.24476264082E+03  0.00000000000E+00 0.  1.
<mgrwt>
<rscale>  2 0.25146653E+02</rscale>
<asrwt>0</asrwt>
<pdfrwt beam="2">  1       21 0.30059251E-03 0.25146653E+02</pdfrwt>
<pdfrwt beam="1">  1       -3 0.56175280E-01 0.25146653E+02</pdfrwt>
<totfact> 0.22739074E+06</totfact>
</mgrwt>
</event>
<event>
 4    1  0.2185255E+006  0.2497020E+02  0.7546771E-02  0.1661430E+00
          2   -1    0    0  503    0 -0.00000000000E+00  0.00000000000E+00  0.17243347791E+04  0.17243347791E+04  0.00000000000E+00 0.  1.
         21   -1    0    0  501  502  0.00000000000E+00 -0.00000000000E+00 -0.39145541292E+00  0.39145541292E+00  0.00000000000E+00 0.  1.
         21    1    1    2  503  502  0.24923002703E+02  0.15345881247E+01  0.62379668834E+03  0.62429625933E+03  0.00000000000E+00 0.  1.
          2    1    1    2  501    0 -0.24923002703E+02 -0.15345881247E+01  0.11001466353E+04  0.11004299752E+04  0.00000000000E+00 0.  1.
<mgrwt>
<rscale>  2 0.24970203E+02</rscale>
<asrwt>0</asrwt>
<pdfrwt beam="2">  1       21 0.60225290E-04 0.24970203E+02</pdfrwt>
<pdfrwt beam="1">  1        2 0.26527619E+00 0.24970203E+02</pdfrwt>
<totfact> 0.27033287E+07</totfact>
</mgrwt>
</event>
<event>
 4    1  0.2185255E+006  0.2363430E+02  0.7546771E-02  0.1681430E+00
         21   -1    0    0  503  502  0.00000000000E+00  0.00000000000E+00  0.18387627709E+01  0.18387627709E+01  0.00000000000E+00 0.  1.
          1   -1    0    0  502    0 -0.00000000000E+00 -0.00000000000E+00 -0.91448415920E+03  0.91448415920E+03  0.00000000000E+00 0. -1.
         21    1    1    2  503  501  0.21887485616E+02 -0.89172880575E+01 -0.81914141661E+02  0.85255537398E+02  0.00000000000E+00 0.  1.
          1    1    1    2  501    0 -0.21887485616E+02  0.89172880575E+01 -0.83073125476E+03  0.83106738457E+03  0.00000000000E+00 0. -1.
<mgrwt>
<rscale>  2 0.23634298E+02</rscale>
<asrwt>0</asrwt>
<pdfrwt beam="1">  1       21 0.28288663E-03 0.23634298E+02</pdfrwt>
<pdfrwt beam="2">  1        1 0.14068985E+00 0.23634298E+02</pdfrwt>
<totfact> 0.41751640E+06</totfact>
</mgrwt>
</event>
<event>
 4    1  0.2185255E+006  0.2161989E+02  0.7546771E-02  0.1714910E+00
         21   -1    0    0  501  502  0.00000000000E+00  0.00000000000E+00  0.10980071842E+02  0.10980071842E+02  0.00000000000E+00 0. -1.
          2   -1    0    0  503    0 -0.00000000000E+00 -0.00000000000E+00 -0.88706406340E+03  0.88706406340E+03  0.00000000000E+00 0.  1.
         21    1    1    2  503  502 -0.18952939124E+02  0.10402203743E+02  0.73423117339E-01  0.21620017001E+02  0.00000000000E+00 0. -1.
          2    1    1    2  501    0  0.18952939124E+02 -0.10402203743E+02 -0.87615741467E+03  0.87642411824E+03  0.00000000000E+00 0.  1.
<mgrwt>
<rscale>  2 0.21619892E+02</rscale>
<asrwt>0</asrwt>
<pdfrwt beam="1">  1       21 0.16892409E-02 0.21619892E+02</pdfrwt>
<pdfrwt beam="2">  1        2 0.13647147E+00 0.21619892E+02</pdfrwt>
<totfact> 0.52404288E+05</totfact>
</mgrwt>
</event>
<event>
 4    1  0.2185255E+006  0.2047173E+02  0.7546771E-02  0.1736107E+00
         21   -1    0    0  501  502  0.00000000000E+00  0.00000000000E+00  0.16319182868E+02  0.16319182868E+02  0.00000000000E+00 0. -1.
          1   -1    0    0  503    0 -0.00000000000E+00 -0.00000000000E+00 -0.60078502274E+02  0.60078502274E+02  0.00000000000E+00 0. -1.
         21    1    1    2  503  502  0.43829490825E+01 -0.19997036117E+02  0.70241166800E+01  0.21643241699E+02  0.00000000000E+00 0. -1.
          1    1    1    2  501    0 -0.43829490825E+01  0.19997036117E+02 -0.50783436086E+02  0.54754443443E+02  0.00000000000E+00 0. -1.
<mgrwt>
<rscale>  2 0.20471729E+02</rscale>
<asrwt>0</asrwt>
<pdfrwt beam="1">  1       21 0.25106435E-02 0.20471729E+02</pdfrwt>
<pdfrwt beam="2">  1        1 0.92428467E-02 0.20471729E+02</pdfrwt>
<totfact> 0.41794551E+06</totfact>
</mgrwt>
</event>
<event>
 4    1  0.2185255E+006  0.2438453E+02  0.7546771E-02  0.1670003E+00
         21   -1    0    0  501  502  0.00000000000E+00  0.00000000000E+00  0.23620889316E+01  0.23620889316E+01  0.00000000000E+00 0. -1.
          1   -1    0    0  503    0 -0.00000000000E+00 -0.00000000000E+00 -0.15306793483E+04  0.15306793483E+04  0.00000000000E+00 0.  1.
         21    1    1    2  503  502  0.22828265058E+02 -0.85718013950E+01 -0.63496430504E+02  0.68017660585E+02  0.00000000000E+00 0. -1.
          1    1    1    2  501    0 -0.22828265058E+02  0.85718013950E+01 -0.14648208288E+04  0.14650237766E+04  0.00000000000E+00 0.  1.
<mgrwt>
<rscale>  2 0.24384533E+02</rscale>
<asrwt>0</asrwt>
<pdfrwt beam="1">  1       21 0.36339783E-03 0.24384533E+02</pdfrwt>
<pdfrwt beam="2">  1        1 0.23548943E+00 0.24384533E+02</pdfrwt>
<totfact> 0.11841714E+06</totfact>
</mgrwt>
</event>
<event>
 4    1  0.2185255E+006  0.2143074E+02  0.7546771E-02  0.1718287E+00
         -2   -1    0    0    0  501 -0.00000000000E+00  0.00000000000E+00  0.21942637372E+02  0.21942637372E+02  0.00000000000E+00 0. -1.
         21   -1    0    0  501  502  0.00000000000E+00 -0.00000000000E+00 -0.45320336446E+02  0.45320336446E+02  0.00000000000E+00 0.  1.
         21    1    1    2  503  502  0.78778323382E+00 -0.21416253315E+02 -0.36360684995E+02  0.42206349307E+02  0.00000000000E+00 0.  1.
         -2    1    1    2    0  503 -0.78778323382E+00  0.21416253315E+02  0.12982985921E+02  0.25056624512E+02  0.00000000000E+00 0. -1.
<mgrwt>
<rscale>  2 0.21430737E+02</rscale>
<asrwt>0</asrwt>
<pdfrwt beam="2">  1       21 0.69723594E-02 0.21430737E+02</pdfrwt>
<pdfrwt beam="1">  1       -2 0.33757904E-02 0.21430737E+02</pdfrwt>
<totfact> 0.27394090E+06</totfact>
</mgrwt>
</event>
<event>
 4    1  0.2185255E+006  0.2256054E+02  0.7546771E-02  0.1698734E+00
         -3   -1    0    0    0  501 -0.00000000000E+00  0.00000000000E+00  0.46147468594E+02  0.46147468594E+02  0.00000000000E+00 0. -1.
         21   -1    0    0  503  502  0.00000000000E+00 -0.00000000000E+00 -0.16781032152E+02  0.16781032152E+02  0.00000000000E+00 0. -1.
         21    1    1    2  503  501  0.12656106599E+02 -0.18676214611E+02 -0.37374047015E+01  0.22868017412E+02  0.00000000000E+00 0. -1.
         -3    1    1    2    0  502 -0.12656106599E+02  0.18676214611E+02  0.33103841144E+02  0.40060483334E+02  0.00000000000E+00 0. -1.
<mgrwt>
<rscale>  2 0.22560541E+02</rscale>
<asrwt>0</asrwt>
<pdfrwt beam="2">  1       21 0.25816973E-02 0.22560541E+02</pdfrwt>
<pdfrwt beam="1">  1       -3 0.70996105E-02 0.22560541E+02</pdfrwt>
<totfact> 0.29037887E+06</totfact>
</mgrwt>
</event>
<event>
 4    1  0.2185255E+006  0.2504922E+02  0.7546771E-02  0.1660296E+00
         21   -1    0    0  501  502  0.00000000000E+00  0.00000000000E+00  0.14835575137E+03  0.14835575137E+03  0.00000000000E+00 0.  1.
          3   -1    0    0  503    0 -0.00000000000E+00 -0.00000000000E+00 -0.57103227077E+02  0.57103227077E+02  0.00000000000E+00 0. -1.
         21    1    1    2  503  502 -0.24992846608E+02  0.16796502330E+01  0.14447814826E+03  0.14663355322E+03  0.00000000000E+00 0.  1.
          3    1    1    2  501    0  0.24992846608E+02 -0.16796502330E+01 -0.53225623965E+02  0.58825425226E+02  0.00000000000E+00 0. -1.
<mgrwt>
<rscale>  2 0.25049224E+02</rscale>
<asrwt>0</asrwt>
<pdfrwt beam="1">  1       21 0.22823962E-01 0.25049224E+02</pdfrwt>
<pdfrwt beam="2">  1        3 0.87851119E-02 0.25049224E+02</pdfrwt>
<totfact> 0.60543138E+04</totfact>
</mgrwt>
</event>
<event>
 4    1  0.2185255E+006  0.2192378E+02  0.7546771E-02  0.1709573E+00
          2   -1    0    0  503    0 -0.00000000000E+00  0.00000000000E+00  0.79659047732E+03  0.79659047732E+03  0.00000000000E+00 0.  1.
         21   -1    0    0  501  502  0.00000000000E+00 -0.00000000000E+00 -0.25947876389E+02  0.25947876389E+02  0.00000000000E+00 0. -1.
         21    1    1    2  503  502  0.14952068054E+01 -0.21872736508E+02 -0.21137962889E+02  0.30454321875E+02  0.00000000000E+00 0. -1.
          2    1    1    2  501    0 -0.14952068054E+01  0.21872736508E+02  0.79178056382E+03  0.79208403183E+03  0.00000000000E+00 0.  1.
<mgrwt>
<rscale>  2 0.21923783E+02</rscale>
<asrwt>0</asrwt>
<pdfrwt beam="2">  1       21 0.39919816E-02 0.21923783E+02</pdfrwt>
<pdfrwt beam="1">  1        2 0.12255236E+00 0.21923783E+02</pdfrwt>
<totfact> 0.15719842E+05</totfact>
</mgrwt>
</event>
<event>
 4    1  0.2185255E+006  0.5409145E+02  0.7546771E-02  0.1424445E+00
         -3   -1    0    0    0  501 -0.00000000000E+00  0.00000000000E+00  0.76369217026E+03  0.76369217026E+03  0.00000000000E+00 0.  1.
         21   -1    0    0  501  502  0.00000000000E+00 -0.00000000000E+00 -0.79435122152E+02  0.79435122152E+02  0.00000000000E+00 0. -1.
         21    1    1    2  503  502  0.50173516929E+02 -0.20211453377E+02 -0.69143273301E+02  0.87787680749E+02  0.00000000000E+00 0. -1.
         -3    1    1    2    0  503 -0.50173516929E+02  0.20211453377E+02  0.75340032141E+03  0.75533961166E+03  0.00000000000E+00 0.  1.
<mgrwt>
<rscale>  2 0.54091447E+02</rscale>
<asrwt>0</asrwt>
<pdfrwt beam="2">  1       21 0.12220789E-01 0.54091447E+02</pdfrwt>
<pdfrwt beam="1">  1       -3 0.11749110E+00 0.54091447E+02</pdfrwt>
<totfact> 0.16795948E+03</totfact>
</mgrwt>
</event>
<event>
 4    1  0.2185255E+006  0.2437285E+02  0.7546771E-02  0.1670177E+00
          1   -1    0    0  502    0 -0.00000000000E+00  0.00000000000E+00  0.10440796859E+02  0.10440796859E+02  0.00000000000E+00 0. -1.
         21   -1    0    0  503  502  0.00000000000E+00 -0.00000000000E+00 -0.78390424122E+02  0.78390424122E+02  0.00000000000E+00 0.  1.
         21    1    1    2  503  501 -0.18207455703E+02  0.16202599855E+02 -0.57232729889E+02  0.62206278267E+02  0.00000000000E+00 0.  1.
          1    1    1    2  501    0  0.18207455703E+02 -0.16202599855E+02 -0.10716897374E+02  0.26624942714E+02  0.00000000000E+00 0. -1.
<mgrwt>
<rscale>  2 0.24372847E+02</rscale>
<asrwt>0</asrwt>
<pdfrwt beam="2">  1       21 0.12060065E-01 0.24372847E+02</pdfrwt>
<pdfrwt beam="1">  1        1 0.16062765E-02 0.24372847E+02</pdfrwt>
<totfact> 0.33839215E+06</totfact>
</mgrwt>
</event>
<event>
 4    1  0.2185255E+006  0.2124376E+02  0.7546771E-02  0.1721669E+00
          2   -1    0    0  503    0 -0.00000000000E+00  0.00000000000E+00  0.88282832349E+03  0.88282832349E+03  0.00000000000E+00 0.  1.
         21   -1    0    0  501  502  0.00000000000E+00 -0.00000000000E+00 -0.14037568257E+01  0.14037568257E+01  0.00000000000E+00 0.  1.
         21    1    1    2  503  502 -0.21241266235E+02 -0.32548712952E+00  0.88171381983E+02  0.90694486789E+02  0.00000000000E+00 0.  1.
          2    1    1    2  501    0  0.21241266235E+02  0.32548712952E+00  0.79325318468E+03  0.79353759353E+03  0.00000000000E+00 0.  1.
<mgrwt>
<rscale>  2 0.21243760E+02</rscale>
<asrwt>0</asrwt>
<pdfrwt beam="2">  1       21 0.21596329E-03 0.21243760E+02</pdfrwt>
<pdfrwt beam="1">  1        2 0.13581930E+00 0.21243760E+02</pdfrwt>
<totfact> 0.11014040E+07</totfact>
</mgrwt>
</event>
<event>
 4    1  0.2185255E+006  0.2310983E+02  0.7546771E-02  0.1689736E+00
          2   -1    0    0  503    0 -0.00000000000E+00  0.00000000000E+00  0.10960603740E+04  0.10960603740E+04  0.00000000000E+00 0. -1.
         21   -1    0    0  501  502  0.00000000000E+00 -0.00000000000E+00 -0.69514584278E+00  0.69514584278E+00  0.00000000000E+00 0. -1.
         21    1    1    2  503  502  0.20898317321E+02 -0.98653152953E+01  0.24779641198E+03  0.24887170571E+03  0.00000000000E+00 0. -1.
          2    1    1    2  501    0 -0.20898317321E+02  0.98653152953E+01  0.84756881621E+03  0.84788381416E+03  0.00000000000E+00 0. -1.
<mgrwt>
<rscale>  2 0.23109827E+02</rscale>
<asrwt>0</asrwt>
<pdfrwt beam="2">  1       21 0.10694639E-03 0.23109827E+02</pdfrwt>
<pdfrwt beam="1">  1        2 0.16862329E+00 0.23109827E+02</pdfrwt>
<totfact> 0.23609847E+07</totfact>
</mgrwt>
</event>
<event>
 4    1  0.2185255E+006  0.4210934E+02  0.7546771E-02  0.1493239E+00
          1   -1    0    0  503    0 -0.00000000000E+00  0.00000000000E+00  0.17165983537E+03  0.17165983537E+03  0.00000000000E+00 0.  1.
         21   -1    0    0  501  502  0.00000000000E+00 -0.00000000000E+00 -0.48116958918E+02  0.48116958918E+02  0.00000000000E+00 0.  1.
         21    1    1    2  503  502  0.10142264790E+02 -0.40869685449E+02 -0.35609818905E+02  0.55147583140E+02  0.00000000000E+00 0.  1.
          1    1    1    2  501    0 -0.10142264790E+02  0.40869685449E+02  0.15915269536E+03  0.16462921115E+03  0.00000000000E+00 0.  1.
<mgrwt>
<rscale>  2 0.42109342E+02</rscale>
<asrwt>0</asrwt>
<pdfrwt beam="2">  1       21 0.74026091E-02 0.42109342E+02</pdfrwt>
<pdfrwt beam="1">  1        1 0.26409205E-01 0.42109342E+02</pdfrwt>
<totfact> 0.23629844E+05</totfact>
</mgrwt>
</event>
<event>
 4    1  0.2185255E+006  0.2052390E+02  0.7546771E-02  0.1735106E+00
         21   -1    0    0  501  502  0.00000000000E+00  0.00000000000E+00  0.39373291812E+03  0.39373291812E+03  0.00000000000E+00 0. -1.
         -1   -1    0    0    0  501 -0.00000000000E+00 -0.00000000000E+00 -0.23496307860E+01  0.23496307860E+01  0.00000000000E+00 0.  1.
         21    1    1    2  503  502 -0.20078847376E+02 -0.42509310089E+01  0.34185068682E+03  0.34246623572E+03  0.00000000000E+00 0. -1.
         -1    1    1    2    0  503  0.20078847376E+02  0.42509310089E+01  0.49532600513E+02  0.53616313189E+02  0.00000000000E+00 0.  1.
<mgrwt>
<rscale>  2 0.20523901E+02</rscale>
<asrwt>0</asrwt>
<pdfrwt beam="1">  1       21 0.60574243E-01 0.20523901E+02</pdfrwt>
<pdfrwt beam="2">  1       -1 0.36148197E-03 0.20523901E+02</pdfrwt>
<totfact> 0.12347411E+06</totfact>
</mgrwt>
</event>
<event>
 4    1  0.2185255E+006  0.3776998E+02  0.7546771E-02  0.1525294E+00
          1   -1    0    0  502    0 -0.00000000000E+00  0.00000000000E+00  0.41143659255E+03  0.41143659255E+03  0.00000000000E+00 0. -1.
         21   -1    0    0  503  502  0.00000000000E+00 -0.00000000000E+00 -0.11443636853E+02  0.11443636853E+02  0.00000000000E+00 0. -1.
         21    1    1    2  503  501  0.28238957450E+02 -0.25082513648E+02  0.23471044490E+02  0.44468653433E+02  0.00000000000E+00 0. -1.
          1    1    1    2  501    0 -0.28238957450E+02  0.25082513648E+02  0.37652191121E+03  0.37841157597E+03  0.00000000000E+00 0. -1.
<mgrwt>
<rscale>  2 0.37769978E+02</rscale>
<asrwt>0</asrwt>
<pdfrwt beam="2">  1       21 0.17605598E-02 0.37769978E+02</pdfrwt>
<pdfrwt beam="1">  1        1 0.63297926E-01 0.37769978E+02</pdfrwt>
<totfact> 0.82374975E+05</totfact>
</mgrwt>
</event>
<event>
 4    1  0.2185255E+006  0.2243169E+02  0.7546771E-02  0.1700891E+00
         21   -1    0    0  503  502  0.00000000000E+00  0.00000000000E+00  0.15270396715E+03  0.15270396715E+03  0.00000000000E+00 0. -1.
         -4   -1    0    0    0  501 -0.00000000000E+00 -0.00000000000E+00 -0.33593241570E+01  0.33593241570E+01  0.00000000000E+00 0. -1.
         21    1    1    2  503  501  0.43221477357E+01  0.22011352335E+02  0.85458476448E+02  0.88353448090E+02  0.00000000000E+00 0. -1.
         -4    1    1    2    0  502 -0.43221477357E+01 -0.22011352335E+02  0.63886166550E+02  0.67709843222E+02  0.00000000000E+00 0. -1.
<mgrwt>
<rscale>  2 0.22431687E+02</rscale>
<asrwt>0</asrwt>
<pdfrwt beam="1">  1       21 0.23492913E-01 0.22431687E+02</pdfrwt>
<pdfrwt beam="2">  1       -4 0.51681922E-03 0.22431687E+02</pdfrwt>
<totfact> 0.30831711E+06</totfact>
</mgrwt>
</event>
<event>
 4    1  0.2185255E+006  0.3477090E+02  0.7546771E-02  0.1550645E+00
         21   -1    0    0  503  502  0.00000000000E+00  0.00000000000E+00  0.15192943988E+03  0.15192943988E+03  0.00000000000E+00 0. -1.
         -2   -1    0    0    0  501 -0.00000000000E+00 -0.00000000000E+00 -0.12346075350E+02  0.12346075350E+02  0.00000000000E+00 0.  1.
         21    1    1    2  503  501 -0.24514379963E+02  0.24658881011E+02  0.11876146771E+03  0.12374692502E+03  0.00000000000E+00 0. -1.
         -2    1    1    2    0  502  0.24514379963E+02 -0.24658881011E+02  0.20821896818E+02  0.40528590214E+02  0.00000000000E+00 0.  1.
<mgrwt>
<rscale>  2 0.34770896E+02</rscale>
<asrwt>0</asrwt>
<pdfrwt beam="1">  1       21 0.23373759E-01 0.34770896E+02</pdfrwt>
<pdfrwt beam="2">  1       -2 0.18993963E-02 0.34770896E+02</pdfrwt>
<totfact> 0.87407464E+05</totfact>
</mgrwt>
</event>
<event>
 4    1  0.2185255E+006  0.4187475E+02  0.7546771E-02  0.1494852E+00
         -4   -1    0    0    0  501 -0.00000000000E+00  0.00000000000E+00  0.35706181005E+02  0.35706181005E+02  0.00000000000E+00 0.  1.
         21   -1    0    0  501  502  0.00000000000E+00 -0.00000000000E+00 -0.18195304375E+03  0.18195304375E+03  0.00000000000E+00 0. -1.
         21    1    1    2  503  502 -0.29286611230E+02 -0.29929734636E+02 -0.16611390803E+03  0.17131060987E+03  0.00000000000E+00 0. -1.
         -4    1    1    2    0  503  0.29286611230E+02  0.29929734636E+02  0.19867045292E+02  0.46348614880E+02  0.00000000000E+00 0.  1.
<mgrwt>
<rscale>  2 0.41874749E+02</rscale>
<asrwt>0</asrwt>
<pdfrwt beam="2">  1       21 0.27992776E-01 0.41874749E+02</pdfrwt>
<pdfrwt beam="1">  1       -4 0.54932587E-02 0.41874749E+02</pdfrwt>
<totfact> 0.82796051E+04</totfact>
</mgrwt>
</event>
<event>
 4    1  0.2185255E+006  0.2003502E+02  0.7546771E-02  0.1744633E+00
         -4   -1    0    0    0  501 -0.00000000000E+00  0.00000000000E+00  0.20509775069E+01  0.20509775069E+01  0.00000000000E+00 0. -1.
         21   -1    0    0  501  502  0.00000000000E+00 -0.00000000000E+00 -0.55612530246E+03  0.55612530246E+03  0.00000000000E+00 0. -1.
         21    1    1    2  503  502 -0.58143762686E+01 -0.19172764104E+02 -0.50171238587E+03  0.50211225836E+03  0.00000000000E+00 0. -1.
         -4    1    1    2    0  503  0.58143762686E+01  0.19172764104E+02 -0.52361939082E+02  0.56064021612E+02  0.00000000000E+00 0. -1.
<mgrwt>
<rscale>  2 0.20035016E+02</rscale>
<asrwt>0</asrwt>
<pdfrwt beam="2">  1       21 0.85557658E-01 0.20035016E+02</pdfrwt>
<pdfrwt beam="1">  1       -4 0.31553530E-03 0.20035016E+02</pdfrwt>
<totfact> 0.49421307E+05</totfact>
</mgrwt>
</event>
<event>
 4    1  0.2185255E+006  0.2113537E+02  0.7546771E-02  0.1723649E+00
         -2   -1    0    0    0  501 -0.00000000000E+00  0.00000000000E+00  0.41027733719E+03  0.41027733719E+03  0.00000000000E+00 0.  1.
         21   -1    0    0  501  502  0.00000000000E+00 -0.00000000000E+00 -0.14856510666E+01  0.14856510666E+01  0.00000000000E+00 0. -1.
         21    1    1    2  503  502 -0.20902532098E+02  0.31286118133E+01  0.97986306289E+02  0.10023981385E+03  0.00000000000E+00 0. -1.
         -2    1    1    2    0  503  0.20902532098E+02 -0.31286118133E+01  0.31080537984E+03  0.31152317441E+03  0.00000000000E+00 0.  1.
<mgrwt>
<rscale>  2 0.21135375E+02</rscale>
<asrwt>0</asrwt>
<pdfrwt beam="2">  1       21 0.22856203E-03 0.21135375E+02</pdfrwt>
<pdfrwt beam="1">  1       -2 0.63119500E-01 0.21135375E+02</pdfrwt>
<totfact> 0.45448228E+06</totfact>
</mgrwt>
</event>
<event>
 4    1  0.2185255E+006  0.2149085E+02  0.7546771E-02  0.1717209E+00
         21   -1    0    0  503  502  0.00000000000E+00  0.00000000000E+00  0.16165459433E+02  0.16165459433E+02  0.00000000000E+00 0. -1.
         -2   -1    0    0    0  501 -0.00000000000E+00 -0.00000000000E+00 -0.90347319271E+02  0.90347319271E+02  0.00000000000E+00 0.  1.
         21    1    1    2  503  501  0.43599003559E+01  0.21043952716E+02  0.69469646187E+01  0.22585769733E+02  0.00000000000E+00 0. -1.
         -2    1    1    2    0  502 -0.43599003559E+01 -0.21043952716E+02 -0.81128824457E+02  0.83927008971E+02  0.00000000000E+00 0.  1.
<mgrwt>
<rscale>  2 0.21490851E+02</rscale>
<asrwt>0</asrwt>
<pdfrwt beam="1">  1       21 0.24869937E-02 0.21490851E+02</pdfrwt>
<pdfrwt beam="2">  1       -2 0.13899588E-01 0.21490851E+02</pdfrwt>
<totfact> 0.17877106E+06</totfact>
</mgrwt>
</event>
<event>
 4    1  0.2185255E+006  0.2360427E+02  0.7546771E-02  0.1681898E+00
         21   -1    0    0  501  502  0.00000000000E+00  0.00000000000E+00  0.84848299353E+02  0.84848299353E+02  0.00000000000E+00 0. -1.
          2   -1    0    0  503    0 -0.00000000000E+00 -0.00000000000E+00 -0.16372104742E+02  0.16372104742E+02  0.00000000000E+00 0. -1.
         21    1    1    2  503  502  0.20100157558E+02 -0.12375186748E+02  0.73405217632E+02  0.77106987728E+02  0.00000000000E+00 0. -1.
          2    1    1    2  501    0 -0.20100157558E+02  0.12375186748E+02 -0.49290230215E+01  0.24113416366E+02  0.00000000000E+00 0. -1.
<mgrwt>
<rscale>  2 0.23604270E+02</rscale>
<asrwt>0</asrwt>
<pdfrwt beam="1">  1       21 0.13053584E-01 0.23604270E+02</pdfrwt>
<pdfrwt beam="2">  1        2 0.25187854E-02 0.23604270E+02</pdfrwt>
<totfact> 0.17003535E+06</totfact>
</mgrwt>
</event>
<event>
 4    1  0.2185255E+006  0.2529436E+02  0.7546771E-02  0.1656810E+00
         21   -1    0    0  503  502  0.00000000000E+00  0.00000000000E+00  0.64000969816E+02  0.64000969816E+02  0.00000000000E+00 0. -1.
         -3   -1    0    0    0  501 -0.00000000000E+00 -0.00000000000E+00 -0.55788675660E+02  0.55788675660E+02  0.00000000000E+00 0.  1.
         21    1    1    2  503  501  0.21168642627E+02  0.13845323983E+02  0.58369985268E+02  0.63614932264E+02  0.00000000000E+00 0. -1.
         -3    1    1    2    0  502 -0.21168642627E+02 -0.13845323983E+02 -0.50157691111E+02  0.56174713212E+02  0.00000000000E+00 0.  1.
<mgrwt>
<rscale>  2 0.25294356E+02</rscale>
<asrwt>0</asrwt>
<pdfrwt beam="1">  1       21 0.98463030E-02 0.25294356E+02</pdfrwt>
<pdfrwt beam="2">  1       -3 0.85828732E-02 0.25294356E+02</pdfrwt>
<totfact> 0.26536055E+05</totfact>
</mgrwt>
</event>
<event>
 4    1  0.2185255E+006  0.4251311E+02  0.7546771E-02  0.1490492E+00
         21   -1    0    0  501  502  0.00000000000E+00  0.00000000000E+00  0.16695820930E+02  0.16695820930E+02  0.00000000000E+00 0. -1.
          2   -1    0    0  503    0 -0.00000000000E+00 -0.00000000000E+00 -0.16990609721E+03  0.16990609721E+03  0.00000000000E+00 0. -1.
         21    1    1    2  503  502 -0.24160513902E+02 -0.34980480856E+02 -0.20401968144E+02  0.47155114008E+02  0.00000000000E+00 0. -1.
          2    1    1    2  501    0  0.24160513902E+02  0.34980480856E+02 -0.13280830814E+03  0.13944680413E+03  0.00000000000E+00 0. -1.
<mgrwt>
<rscale>  2 0.42513109E+02</rscale>
<asrwt>0</asrwt>
<pdfrwt beam="1">  1       21 0.25685878E-02 0.42513109E+02</pdfrwt>
<pdfrwt beam="2">  1        2 0.26139399E-01 0.42513109E+02</pdfrwt>
<totfact> 0.16994125E+06</totfact>
</mgrwt>
</event>
<event>
 4    1  0.2185255E+006  0.2292013E+02  0.7546771E-02  0.1692808E+00
         21   -1    0    0  503  502  0.00000000000E+00  0.00000000000E+00  0.20159289373E+02  0.20159289373E+02  0.00000000000E+00 0.  1.
         -3   -1    0    0    0  501 -0.00000000000E+00 -0.00000000000E+00 -0.62106720275E+02  0.62106720275E+02  0.00000000000E+00 0. -1.
         21    1    1    2  503  501 -0.19287216626E+02  0.12382877527E+02  0.10363442368E+02  0.25154190878E+02  0.00000000000E+00 0.  1.
         -3    1    1    2    0  502  0.19287216626E+02 -0.12382877527E+02 -0.52310873270E+02  0.57111818770E+02  0.00000000000E+00 0. -1.
<mgrwt>
<rscale>  2 0.22920130E+02</rscale>
<asrwt>0</asrwt>
<pdfrwt beam="1">  1       21 0.31014292E-02 0.22920130E+02</pdfrwt>
<pdfrwt beam="2">  1       -3 0.95548799E-02 0.22920130E+02</pdfrwt>
<totfact> 0.13866935E+06</totfact>
</mgrwt>
</event>
<event>
 4    1  0.2185255E+006  0.2406249E+02  0.7546771E-02  0.1674845E+00
         21   -1    0    0  501  502  0.00000000000E+00  0.00000000000E+00  0.26748513957E+02  0.26748513957E+02  0.00000000000E+00 0.  1.
          3   -1    0    0  503    0 -0.00000000000E+00 -0.00000000000E+00 -0.37891898451E+02  0.37891898451E+02  0.00000000000E+00 0.  1.
         21    1    1    2  503  502  0.16616251953E+02  0.17404125950E+02  0.15590968075E+02  0.28671967400E+02  0.00000000000E+00 0.  1.
          3    1    1    2  501    0 -0.16616251953E+02 -0.17404125950E+02 -0.26734352569E+02  0.35968445009E+02  0.00000000000E+00 0.  1.
<mgrwt>
<rscale>  2 0.24062490E+02</rscale>
<asrwt>0</asrwt>
<pdfrwt beam="1">  1       21 0.41151560E-02 0.24062490E+02</pdfrwt>
<pdfrwt beam="2">  1        3 0.58295228E-02 0.24062490E+02</pdfrwt>
<totfact> 0.19408719E+06</totfact>
</mgrwt>
</event>
<event>
 4    1  0.2185255E+006  0.2136141E+02  0.7546771E-02  0.1719536E+00
          4   -1    0    0  503    0 -0.00000000000E+00  0.00000000000E+00  0.86015156416E+02  0.86015156416E+02  0.00000000000E+00 0. -1.
         21   -1    0    0  501  502  0.00000000000E+00 -0.00000000000E+00 -0.87502621230E+01  0.87502621230E+01  0.00000000000E+00 0.  1.
         21    1    1    2  503  502 -0.31889753698E+01  0.21122036693E+02  0.89006753489E+01  0.23141564762E+02  0.00000000000E+00 0.  1.
          4    1    1    2  501    0  0.31889753698E+01 -0.21122036693E+02  0.68364218944E+02  0.71623853777E+02  0.00000000000E+00 0. -1.
<mgrwt>
<rscale>  2 0.21361414E+02</rscale>
<asrwt>0</asrwt>
<pdfrwt beam="2">  1       21 0.13461942E-02 0.21361414E+02</pdfrwt>
<pdfrwt beam="1">  1        4 0.13233100E-01 0.21361414E+02</pdfrwt>
<totfact> 0.23412350E+06</totfact>
</mgrwt>
</event>
<event>
 4    1  0.2185255E+006  0.3277850E+02  0.7546771E-02  0.1569262E+00
         -3   -1    0    0    0  501 -0.00000000000E+00  0.00000000000E+00  0.28064361225E+03  0.28064361225E+03  0.00000000000E+00 0.  1.
         21   -1    0    0  503  502  0.00000000000E+00 -0.00000000000E+00 -0.67718319749E+01  0.67718319749E+01  0.00000000000E+00 0.  1.
         21    1    1    2  503  501  0.27221089052E+02 -0.18260398760E+02  0.42192181581E+02  0.53428550782E+02  0.00000000000E+00 0.  1.
         -3    1    1    2    0  502 -0.27221089052E+02  0.18260398760E+02  0.23167959869E+03  0.23398689344E+03  0.00000000000E+00 0.  1.
<mgrwt>
<rscale>  2 0.32778497E+02</rscale>
<asrwt>0</asrwt>
<pdfrwt beam="2">  1       21 0.10418205E-02 0.32778497E+02</pdfrwt>
<pdfrwt beam="1">  1       -3 0.43175931E-01 0.32778497E+02</pdfrwt>
<totfact> 0.64400568E+05</totfact>
</mgrwt>
</event>
<event>
 4    1  0.2185255E+006  0.2078924E+02  0.7546771E-02  0.1730074E+00
         21   -1    0    0  501  502  0.00000000000E+00  0.00000000000E+00  0.20086371498E+03  0.20086371498E+03  0.00000000000E+00 0.  1.
          2   -1    0    0  503    0 -0.00000000000E+00 -0.00000000000E+00 -0.54647124555E+01  0.54647124555E+01  0.00000000000E+00 0.  1.
         21    1    1    2  503  502 -0.17729342714E+02  0.10856477059E+02  0.17802599892E+03  0.17923573578E+03  0.00000000000E+00 0.  1.
          2    1    1    2  501    0  0.17729342714E+02 -0.10856477059E+02  0.17373003605E+02  0.27092691661E+02  0.00000000000E+00 0.  1.
<mgrwt>
<rscale>  2 0.20789245E+02</rscale>
<asrwt>0</asrwt>
<pdfrwt beam="1">  1       21 0.30902104E-01 0.20789245E+02</pdfrwt>
<pdfrwt beam="2">  1        2 0.84072515E-03 0.20789245E+02</pdfrwt>
<totfact> 0.15070372E+06</totfact>
</mgrwt>
</event>
<event>
 4    1  0.2185255E+006  0.2529045E+02  0.7546771E-02  0.1656865E+00
          1   -1    0    0  502    0 -0.00000000000E+00  0.00000000000E+00  0.91428828945E+03  0.91428828945E+03  0.00000000000E+00 0.  1.
         21   -1    0    0  503  502  0.00000000000E+00 -0.00000000000E+00 -0.74409719881E+00  0.74409719881E+00  0.00000000000E+00 0.  1.
         21    1    1    2  503  501 -0.20820624968E+02 -0.14356482266E+02  0.34485069677E+03  0.34577682119E+03  0.00000000000E+00 0.  1.
          1    1    1    2  501    0  0.20820624968E+02  0.14356482266E+02  0.56869349548E+03  0.56925556546E+03  0.00000000000E+00 0.  1.
<mgrwt>
<rscale>  2 0.25290453E+02</rscale>
<asrwt>0</asrwt>
<pdfrwt beam="2">  1       21 0.11447722E-03 0.25290453E+02</pdfrwt>
<pdfrwt beam="1">  1        1 0.14065884E+00 0.25290453E+02</pdfrwt>
<totfact> 0.15665967E+07</totfact>
</mgrwt>
</event>
<event>
 4    1  0.2185255E+006  0.2230083E+02  0.7546771E-02  0.1703101E+00
         21   -1    0    0  501  502  0.00000000000E+00  0.00000000000E+00  0.52899863592E+01  0.52899863592E+01  0.00000000000E+00 0.  1.
         -2   -1    0    0    0  501 -0.00000000000E+00 -0.00000000000E+00 -0.28910037254E+03  0.28910037254E+03  0.00000000000E+00 0. -1.
         21    1    1    2  503  502 -0.18459787335E+02  0.12512525673E+02 -0.20989147912E+02  0.30624685749E+02  0.00000000000E+00 0.  1.
         -2    1    1    2    0  503  0.18459787335E+02 -0.12512525673E+02 -0.26282123827E+03  0.26376567315E+03  0.00000000000E+00 0. -1.
<mgrwt>
<rscale>  2 0.22300831E+02</rscale>
<asrwt>0</asrwt>
<pdfrwt beam="1">  1       21 0.81384414E-03 0.22300831E+02</pdfrwt>
<pdfrwt beam="2">  1       -2 0.44476976E-01 0.22300831E+02</pdfrwt>
<totfact> 0.14034412E+06</totfact>
</mgrwt>
</event>
<event>
 4    1  0.2185255E+006  0.1129932E+03  0.7546771E-02  0.1255125E+00
          2   -1    0    0  502    0 -0.00000000000E+00  0.00000000000E+00  0.57185254773E+03  0.57185254773E+03  0.00000000000E+00 0. -1.
         21   -1    0    0  503  502  0.00000000000E+00 -0.00000000000E+00 -0.93119778529E+02  0.93119778529E+02  0.00000000000E+00 0.  1.
         21    1    1    2  503  501 -0.11084505612E+03 -0.21928099931E+02 -0.50533879109E+02  0.12377859658E+03  0.00000000000E+00 0.  1.
          2    1    1    2  501    0  0.11084505612E+03  0.21928099931E+02  0.52926664831E+03  0.54119372968E+03  0.00000000000E+00 0. -1.
<mgrwt>
<rscale>  2 0.11299322E+03</rscale>
<asrwt>0</asrwt>
<pdfrwt beam="2">  1       21 0.14326120E-01 0.11299322E+03</pdfrwt>
<pdfrwt beam="1">  1        2 0.87977313E-01 0.11299322E+03</pdfrwt>
<totfact> 0.28774857E+04</totfact>
</mgrwt>
</event>
<event>
 4    1  0.2185255E+006  0.2594386E+02  0.7546771E-02  0.1647804E+00
         21   -1    0    0  501  502  0.00000000000E+00  0.00000000000E+00  0.35317749542E+01  0.35317749542E+01  0.00000000000E+00 0. -1.
          2   -1    0    0  503    0 -0.00000000000E+00 -0.00000000000E+00 -0.14416752117E+04  0.14416752117E+04  0.00000000000E+00 0. -1.
         21    1    1    2  503  502 -0.25326807607E+02 -0.56246629239E+01 -0.45922100766E+02  0.52743941409E+02  0.00000000000E+00 0. -1.
          2    1    1    2  501    0  0.25326807607E+02  0.56246629239E+01 -0.13922213360E+04  0.13924630453E+04  0.00000000000E+00 0. -1.
<mgrwt>
<rscale>  2 0.25943863E+02</rscale>
<asrwt>0</asrwt>
<pdfrwt beam="1">  1       21 0.54335047E-03 0.25943863E+02</pdfrwt>
<pdfrwt beam="2">  1        2 0.22179599E+00 0.25943863E+02</pdfrwt>
<totfact> 0.15357107E+06</totfact>
</mgrwt>
</event>
<event>
 4    1  0.2185255E+006  0.2019616E+02  0.7546771E-02  0.1741455E+00
         21   -1    0    0  501  502  0.00000000000E+00  0.00000000000E+00  0.86258338582E+03  0.86258338582E+03  0.00000000000E+00 0.  1.
         -2   -1    0    0    0  501 -0.00000000000E+00 -0.00000000000E+00 -0.10805200231E+01  0.10805200231E+01  0.00000000000E+00 0.  1.
         21    1    1    2  503  502 -0.15302782014E+02 -0.13179895009E+02  0.75458898677E+03  0.75485920788E+03  0.00000000000E+00 0.  1.
         -2    1    1    2    0  503  0.15302782014E+02  0.13179895009E+02  0.10691387903E+03  0.10880469796E+03  0.00000000000E+00 0.  1.
<mgrwt>
<rscale>  2 0.20196157E+02</rscale>
<asrwt>0</asrwt>
<pdfrwt beam="1">  1       21 0.13270459E+00 0.20196157E+02</pdfrwt>
<pdfrwt beam="2">  1       -2 0.16623454E-03 0.20196157E+02</pdfrwt>
<totfact> 0.64307211E+05</totfact>
</mgrwt>
</event>
<event>
 4    1  0.2185255E+006  0.2018709E+02  0.7546771E-02  0.1741633E+00
         -4   -1    0    0    0  501 -0.00000000000E+00  0.00000000000E+00  0.35602758083E+02  0.35602758083E+02  0.00000000000E+00 0.  1.
         21   -1    0    0  503  502  0.00000000000E+00 -0.00000000000E+00 -0.90752112930E+02  0.90752112930E+02  0.00000000000E+00 0.  1.
         21    1    1    2  503  501  0.13800302029E+02  0.14733299024E+02 -0.86633697912E+02  0.88954572958E+02  0.00000000000E+00 0.  1.
         -4    1    1    2    0  502 -0.13800302029E+02 -0.14733299024E+02  0.31484343065E+02  0.37400298054E+02  0.00000000000E+00 0.  1.
<mgrwt>
<rscale>  2 0.20187086E+02</rscale>
<asrwt>0</asrwt>
<pdfrwt beam="2">  1       21 0.13961864E-01 0.20187086E+02</pdfrwt>
<pdfrwt beam="1">  1       -4 0.54773474E-02 0.20187086E+02</pdfrwt>
<totfact> 0.22837122E+05</totfact>
</mgrwt>
</event>
<event>
 4    1  0.2185255E+006  0.2067231E+02  0.7546771E-02  0.1732280E+00
         21   -1    0    0  501  502  0.00000000000E+00  0.00000000000E+00  0.36327086258E+03  0.36327086258E+03  0.00000000000E+00 0. -1.
         -1   -1    0    0    0  501 -0.00000000000E+00 -0.00000000000E+00 -0.63258498235E+01  0.63258498235E+01  0.00000000000E+00 0. -1.
         21    1    1    2  503  502 -0.19398789774E+02 -0.71436183893E+01  0.34520488761E+03  0.34582330569E+03  0.00000000000E+00 0. -1.
         -1    1    1    2    0  503  0.19398789774E+02  0.71436183893E+01  0.11740125149E+02  0.23773406716E+02  0.00000000000E+00 0. -1.
<mgrwt>
<rscale>  2 0.20672308E+02</rscale>
<asrwt>0</asrwt>
<pdfrwt beam="1">  1       21 0.55887809E-01 0.20672308E+02</pdfrwt>
<pdfrwt beam="2">  1       -1 0.97320795E-03 0.20672308E+02</pdfrwt>
<totfact> 0.38732981E+05</totfact>
</mgrwt>
</event>
<event>
 4    1  0.2185255E+006  0.2645747E+02  0.7546771E-02  0.1640909E+00
         21   -1    0    0  503  502  0.00000000000E+00  0.00000000000E+00  0.83590068296E+02  0.83590068296E+02  0.00000000000E+00 0. -1.
          2   -1    0    0  502    0 -0.00000000000E+00 -0.00000000000E+00 -0.14211825822E+04  0.14211825822E+04  0.00000000000E+00 0. -1.
         21    1    1    2  503  501 -0.21587779373E+02 -0.15295928404E+02  0.81370113674E+02  0.85563386114E+02  0.00000000000E+00 0. -1.
          2    1    1    2  501    0  0.21587779373E+02  0.15295928404E+02 -0.14189626276E+04  0.14192092644E+04  0.00000000000E+00 0. -1.
<mgrwt>
<rscale>  2 0.26457469E+02</rscale>
<asrwt>0</asrwt>
<pdfrwt beam="1">  1       21 0.12860012E-01 0.26457469E+02</pdfrwt>
<pdfrwt beam="2">  1        2 0.21864345E+00 0.26457469E+02</pdfrwt>
<totfact> 0.11044666E+04</totfact>
</mgrwt>
</event>
<event>
 4    1  0.2185255E+006  0.2360761E+02  0.7546771E-02  0.1681846E+00
         21   -1    0    0  503  502  0.00000000000E+00  0.00000000000E+00  0.18501082615E+02  0.18501082615E+02  0.00000000000E+00 0.  1.
          2   -1    0    0  502    0 -0.00000000000E+00 -0.00000000000E+00 -0.10977941104E+04  0.10977941104E+04  0.00000000000E+00 0.  1.
         21    1    1    2  503  501  0.23303567674E+02 -0.37766607300E+01  0.10789995357E+02  0.25956568194E+02  0.00000000000E+00 0.  1.
          2    1    1    2  501    0 -0.23303567674E+02  0.37766607300E+01 -0.10900830231E+04  0.10903386248E+04  0.00000000000E+00 0.  1.
<mgrwt>
<rscale>  2 0.23607614E+02</rscale>
<asrwt>0</asrwt>
<pdfrwt beam="1">  1       21 0.28463202E-02 0.23607614E+02</pdfrwt>
<pdfrwt beam="2">  1        2 0.16889141E+00 0.23607614E+02</pdfrwt>
<totfact> 0.18230546E+05</totfact>
</mgrwt>
</event>
<event>
 4    1  0.2185255E+006  0.3362387E+02  0.7546771E-02  0.1561172E+00
         21   -1    0    0  501  502  0.00000000000E+00  0.00000000000E+00  0.94793781097E+01  0.94793781097E+01  0.00000000000E+00 0. -1.
          2   -1    0    0  503    0 -0.00000000000E+00 -0.00000000000E+00 -0.54504360458E+03  0.54504360458E+03  0.00000000000E+00 0. -1.
         21    1    1    2  503  502  0.25628107221E+02 -0.21766134106E+02 -0.22726022378E+02  0.40583698289E+02  0.00000000000E+00 0. -1.
          2    1    1    2  501    0 -0.25628107221E+02  0.21766134106E+02 -0.51283820409E+03  0.51393928440E+03  0.00000000000E+00 0. -1.
<mgrwt>
<rscale>  2 0.33623868E+02</rscale>
<asrwt>0</asrwt>
<pdfrwt beam="1">  1       21 0.14583657E-02 0.33623868E+02</pdfrwt>
<pdfrwt beam="2">  1        2 0.83852871E-01 0.33623868E+02</pdfrwt>
<totfact> 0.12007443E+06</totfact>
</mgrwt>
</event>
<event>
 4    1  0.2185255E+006  0.2119075E+02  0.7546771E-02  0.1722635E+00
         21   -1    0    0  501  502  0.00000000000E+00  0.00000000000E+00  0.18047111841E+01  0.18047111841E+01  0.00000000000E+00 0.  1.
          2   -1    0    0  503    0 -0.00000000000E+00 -0.00000000000E+00 -0.32825951140E+03  0.32825951140E+03  0.00000000000E+00 0.  1.
         21    1    1    2  503  502 -0.83829191685E+01  0.19462134551E+02 -0.82041910443E+02  0.84734426795E+02  0.00000000000E+00 0.  1.
          2    1    1    2  501    0  0.83829191685E+01 -0.19462134551E+02 -0.24441288977E+03  0.24532979579E+03  0.00000000000E+00 0.  1.
<mgrwt>
<rscale>  2 0.21190753E+02</rscale>
<asrwt>0</asrwt>
<pdfrwt beam="1">  1       21 0.27764803E-03 0.21190753E+02</pdfrwt>
<pdfrwt beam="2">  1        2 0.50501435E-01 0.21190753E+02</pdfrwt>
<totfact> 0.21326197E+07</totfact>
</mgrwt>
</event>
<event>
 4    1  0.2185255E+006  0.5186568E+02  0.7546771E-02  0.1435531E+00
         -1   -1    0    0    0  501 -0.00000000000E+00  0.00000000000E+00  0.11123904398E+02  0.11123904398E+02  0.00000000000E+00 0. -1.
         21   -1    0    0  503  502  0.00000000000E+00 -0.00000000000E+00 -0.36958832353E+03  0.36958832353E+03  0.00000000000E+00 0. -1.
         21    1    1    2  503  501  0.12792679994E+02  0.50263265262E+02 -0.29115260439E+03  0.29573617895E+03  0.00000000000E+00 0. -1.
         -1    1    1    2    0  502 -0.12792679994E+02 -0.50263265262E+02 -0.67311814740E+02  0.84976048977E+02  0.00000000000E+00 0. -1.
<mgrwt>
<rscale>  2 0.51865677E+02</rscale>
<asrwt>0</asrwt>
<pdfrwt beam="2">  1       21 0.56859742E-01 0.51865677E+02</pdfrwt>
<pdfrwt beam="1">  1       -1 0.17113699E-02 0.51865677E+02</pdfrwt>
<totfact> 0.19728847E+05</totfact>
</mgrwt>
</event>
<event>
 4    1  0.2185255E+006  0.2279112E+02  0.7546771E-02  0.1694918E+00
         21   -1    0    0  503  502  0.00000000000E+00  0.00000000000E+00  0.83056589681E+02  0.83056589681E+02  0.00000000000E+00 0.  1.
          2   -1    0    0  502    0 -0.00000000000E+00 -0.00000000000E+00 -0.12851516163E+03  0.12851516163E+03  0.00000000000E+00 0.  1.
         21    1    1    2  503  501 -0.22286171492E+02  0.47709449627E+01  0.80450535653E+02  0.83616529720E+02  0.00000000000E+00 0.  1.
          2    1    1    2  501    0  0.22286171492E+02 -0.47709449627E+01 -0.12590910760E+03  0.12795522159E+03  0.00000000000E+00 0.  1.
<mgrwt>
<rscale>  2 0.22791124E+02</rscale>
<asrwt>0</asrwt>
<pdfrwt beam="1">  1       21 0.12777937E-01 0.22791124E+02</pdfrwt>
<pdfrwt beam="2">  1        2 0.19771563E-01 0.22791124E+02</pdfrwt>
<totfact> 0.15339036E+05</totfact>
</mgrwt>
</event>
<event>
 4    1  0.2185255E+006  0.2309982E+02  0.7546771E-02  0.1689897E+00
          1   -1    0    0  502    0 -0.00000000000E+00  0.00000000000E+00  0.12774534310E+04  0.12774534310E+04  0.00000000000E+00 0. -1.
         21   -1    0    0  503  502  0.00000000000E+00 -0.00000000000E+00 -0.95733458114E+02  0.95733458114E+02  0.00000000000E+00 0.  1.
         21    1    1    2  503  501  0.50070380849E+01 -0.22550639580E+02 -0.94233936920E+02  0.97023897280E+02  0.00000000000E+00 0.  1.
          1    1    1    2  501    0 -0.50070380849E+01  0.22550639580E+02  0.12759539099E+04  0.12761629919E+04  0.00000000000E+00 0. -1.
<mgrwt>
<rscale>  2 0.23099822E+02</rscale>
<asrwt>0</asrwt>
<pdfrwt beam="2">  1       21 0.14728225E-01 0.23099822E+02</pdfrwt>
<pdfrwt beam="1">  1        1 0.19653128E+00 0.23099822E+02</pdfrwt>
<totfact> 0.52853978E+03</totfact>
</mgrwt>
</event>
<event>
 4    1  0.2185255E+006  0.2095110E+02  0.7546771E-02  0.1727050E+00
          2   -1    0    0  502    0 -0.00000000000E+00  0.00000000000E+00  0.72408699155E+03  0.72408699155E+03  0.00000000000E+00 0. -1.
         21   -1    0    0  503  502  0.00000000000E+00 -0.00000000000E+00 -0.81043123073E+01  0.81043123073E+01  0.00000000000E+00 0. -1.
         21    1    1    2  503  501  0.20542600640E+02 -0.41170455575E+01  0.58539193926E+01  0.21753548617E+02  0.00000000000E+00 0. -1.
          2    1    1    2  501    0 -0.20542600640E+02  0.41170455575E+01  0.71012875985E+03  0.71043775524E+03  0.00000000000E+00 0. -1.
<mgrwt>
<rscale>  2 0.20951098E+02</rscale>
<asrwt>0</asrwt>
<pdfrwt beam="2">  1       21 0.12468178E-02 0.20951098E+02</pdfrwt>
<pdfrwt beam="1">  1        2 0.11139795E+00 0.20951098E+02</pdfrwt>
<totfact> 0.10382878E+06</totfact>
</mgrwt>
</event>
<event>
 4    1  0.2185255E+006  0.2536893E+02  0.7546771E-02  0.1655759E+00
          2   -1    0    0  503    0 -0.00000000000E+00  0.00000000000E+00  0.18459305117E+02  0.18459305117E+02  0.00000000000E+00 0.  1.
         21   -1    0    0  501  502  0.00000000000E+00 -0.00000000000E+00 -0.40437557507E+02  0.40437557507E+02  0.00000000000E+00 0.  1.
         21    1    1    2  503  502 -0.17312534340E+02 -0.18543432486E+02 -0.21921109752E+02  0.33527865819E+02  0.00000000000E+00 0.  1.
          2    1    1    2  501    0  0.17312534340E+02  0.18543432486E+02 -0.57142637826E-01  0.25368996805E+02  0.00000000000E+00 0.  1.
<mgrwt>
<rscale>  2 0.25368932E+02</rscale>
<asrwt>0</asrwt>
<pdfrwt beam="2">  1       21 0.62211626E-02 0.25368932E+02</pdfrwt>
<pdfrwt beam="1">  1        2 0.28398931E-02 0.25368932E+02</pdfrwt>
<totfact> 0.50455928E+06</totfact>
</mgrwt>
</event>
<event>
 4    1  0.2185255E+006  0.2143022E+02  0.7546771E-02  0.1718297E+00
         -2   -1    0    0    0  501 -0.00000000000E+00  0.00000000000E+00  0.40543205586E+02  0.40543205586E+02  0.00000000000E+00 0.  1.
         21   -1    0    0  501  502  0.00000000000E+00 -0.00000000000E+00 -0.30489837731E+03  0.30489837731E+03  0.00000000000E+00 0.  1.
         21    1    1    2  503  502 -0.18999040410E+02  0.99141649066E+01 -0.30165956592E+03  0.30241982063E+03  0.00000000000E+00 0.  1.
         -2    1    1    2    0  503  0.18999040410E+02 -0.99141649066E+01  0.37304394192E+02  0.43021762264E+02  0.00000000000E+00 0.  1.
<mgrwt>
<rscale>  2 0.21430217E+02</rscale>
<asrwt>0</asrwt>
<pdfrwt beam="2">  1       21 0.46907444E-01 0.21430217E+02</pdfrwt>
<pdfrwt beam="1">  1       -2 0.62374160E-02 0.21430217E+02</pdfrwt>
<totfact> 0.41922774E+04</totfact>
</mgrwt>
</event>
<event>
 4    1  0.2185255E+006  0.2549692E+02  0.7546771E-02  0.1653965E+00
         -1   -1    0    0    0  501 -0.00000000000E+00  0.00000000000E+00  0.63820236186E+02  0.63820236186E+02  0.00000000000E+00 0.  1.
         21   -1    0    0  503  502  0.00000000000E+00 -0.00000000000E+00 -0.13015073476E+02  0.13015073476E+02  0.00000000000E+00 0.  1.
         21    1    1    2  503  501  0.22266276535E+02  0.12421990367E+02  0.74921680000E+01  0.26574903514E+02  0.00000000000E+00 0.  1.
         -1    1    1    2    0  502 -0.22266276535E+02 -0.12421990367E+02  0.43312994710E+02  0.50260406148E+02  0.00000000000E+00 0.  1.
<mgrwt>
<rscale>  2 0.25496920E+02</rscale>
<asrwt>0</asrwt>
<pdfrwt beam="2">  1       21 0.20023190E-02 0.25496920E+02</pdfrwt>
<pdfrwt beam="1">  1       -1 0.98184977E-02 0.25496920E+02</pdfrwt>
<totfact> 0.46383087E+06</totfact>
</mgrwt>
</event>
<event>
 4    1  0.2185255E+006  0.2149132E+02  0.7546771E-02  0.1717201E+00
          2   -1    0    0  502    0 -0.00000000000E+00  0.00000000000E+00  0.13023236886E+04  0.13023236886E+04  0.00000000000E+00 0.  1.
         21   -1    0    0  503  502  0.00000000000E+00 -0.00000000000E+00 -0.21450056350E+02  0.21450056350E+02  0.00000000000E+00 0.  1.
         21    1    1    2  503  501 -0.16588547628E+01  0.21427202030E+02 -0.15955420407E+02  0.26766625232E+02  0.00000000000E+00 0.  1.
          2    1    1    2  501    0  0.16588547628E+01 -0.21427202030E+02  0.12968290526E+04  0.12970071197E+04  0.00000000000E+00 0.  1.
<mgrwt>
<rscale>  2 0.21491319E+02</rscale>
<asrwt>0</asrwt>
<pdfrwt beam="2">  1       21 0.33000097E-02 0.21491319E+02</pdfrwt>
<pdfrwt beam="1">  1        2 0.20035743E+00 0.21491319E+02</pdfrwt>
<totfact> 0.11339220E+05</totfact>
</mgrwt>
</event>
<event>
 4    1  0.2185255E+006  0.2724561E+02  0.7546771E-02  0.1630696E+00
          1   -1    0    0  502    0 -0.00000000000E+00  0.00000000000E+00  0.93126576208E+02  0.93126576208E+02  0.00000000000E+00 0. -1.
         21   -1    0    0  503  502  0.00000000000E+00 -0.00000000000E+00 -0.52405457267E+02  0.52405457267E+02  0.00000000000E+00 0. -1.
         21    1    1    2  503  501  0.25405322682E+02  0.98434145597E+01 -0.46643280395E+02  0.54017764085E+02  0.00000000000E+00 0. -1.
          1    1    1    2  501    0 -0.25405322682E+02 -0.98434145597E+01  0.87364399335E+02  0.91514269390E+02  0.00000000000E+00 0. -1.
<mgrwt>
<rscale>  2 0.27245609E+02</rscale>
<asrwt>0</asrwt>
<pdfrwt beam="2">  1       21 0.80623781E-02 0.27245609E+02</pdfrwt>
<pdfrwt beam="1">  1        1 0.14327166E-01 0.27245609E+02</pdfrwt>
<totfact> 0.40664454E+05</totfact>
</mgrwt>
</event>
<event>
 4    1  0.2185255E+006  0.2271648E+02  0.7546771E-02  0.1696147E+00
         21   -1    0    0  503  502  0.00000000000E+00  0.00000000000E+00  0.39504478444E+01  0.39504478444E+01  0.00000000000E+00 0. -1.
          1   -1    0    0  502    0 -0.00000000000E+00 -0.00000000000E+00 -0.68781444190E+03  0.68781444190E+03  0.00000000000E+00 0. -1.
         21    1    1    2  503  501  0.60732415113E+01 -0.21889596028E+02 -0.30621914302E+02  0.38127946605E+02  0.00000000000E+00 0. -1.
          1    1    1    2  501    0 -0.60732415113E+01  0.21889596028E+02 -0.65324207975E+03  0.65363694314E+03  0.00000000000E+00 0. -1.
<mgrwt>
<rscale>  2 0.22716485E+02</rscale>
<asrwt>0</asrwt>
<pdfrwt beam="1">  1       21 0.60776154E-03 0.22716485E+02</pdfrwt>
<pdfrwt beam="2">  1        1 0.10581755E+00 0.22716485E+02</pdfrwt>
<totfact> 0.19967242E+06</totfact>
</mgrwt>
</event>
<event>
 4    1  0.2185255E+006  0.2932394E+02  0.7546771E-02  0.1605684E+00
         21   -1    0    0  503  502  0.00000000000E+00  0.00000000000E+00  0.20493263257E+01  0.20493263257E+01  0.00000000000E+00 0.  1.
          2   -1    0    0  502    0 -0.00000000000E+00 -0.00000000000E+00 -0.53317212946E+03  0.53317212946E+03  0.00000000000E+00 0.  1.
         21    1    1    2  503  501 -0.27039348566E+02  0.11347556088E+02 -0.14204934673E+03  0.14504451147E+03  0.00000000000E+00 0.  1.
          2    1    1    2  501    0  0.27039348566E+02 -0.11347556088E+02 -0.38907345640E+03  0.39017694432E+03  0.00000000000E+00 0.  1.
<mgrwt>
<rscale>  2 0.29323939E+02</rscale>
<asrwt>0</asrwt>
<pdfrwt beam="1">  1       21 0.31528057E-03 0.29323939E+02</pdfrwt>
<pdfrwt beam="2">  1        2 0.82026587E-01 0.29323939E+02</pdfrwt>
<totfact> 0.11937930E+07</totfact>
</mgrwt>
</event>
<event>
 4    1  0.2185255E+006  0.2048018E+02  0.7546771E-02  0.1735944E+00
         21   -1    0    0  503  502  0.00000000000E+00  0.00000000000E+00  0.26862688427E+02  0.26862688427E+02  0.00000000000E+00 0. -1.
          1   -1    0    0  502    0 -0.00000000000E+00 -0.00000000000E+00 -0.51563130248E+02  0.51563130248E+02  0.00000000000E+00 0. -1.
         21    1    1    2  503  501  0.16939672301E+02  0.11510227518E+02  0.20391595076E+02  0.28900778275E+02  0.00000000000E+00 0. -1.
          1    1    1    2  501    0 -0.16939672301E+02 -0.11510227518E+02 -0.45092036896E+02  0.49525040400E+02  0.00000000000E+00 0. -1.
<mgrwt>
<rscale>  2 0.20480182E+02</rscale>
<asrwt>0</asrwt>
<pdfrwt beam="1">  1       21 0.41327214E-02 0.20480182E+02</pdfrwt>
<pdfrwt beam="2">  1        1 0.79327891E-02 0.20480182E+02</pdfrwt>
<totfact> 0.23303886E+06</totfact>
</mgrwt>
</event>
<event>
 4    1  0.2185255E+006  0.2296430E+02  0.7546771E-02  0.1692089E+00
         -1   -1    0    0    0  501 -0.00000000000E+00  0.00000000000E+00  0.56089417713E+03  0.56089417713E+03  0.00000000000E+00 0. -1.
         21   -1    0    0  503  502  0.00000000000E+00 -0.00000000000E+00 -0.11900487171E+01  0.11900487171E+01  0.00000000000E+00 0. -1.
         21    1    1    2  503  501  0.10473582690E+02  0.20436811701E+02  0.15108122706E+03  0.15281654484E+03  0.00000000000E+00 0. -1.
         -1    1    1    2    0  502 -0.10473582690E+02 -0.20436811701E+02  0.40862290134E+03  0.40926768100E+03  0.00000000000E+00 0. -1.
<mgrwt>
<rscale>  2 0.22964303E+02</rscale>
<asrwt>0</asrwt>
<pdfrwt beam="2">  1       21 0.18308487E-03 0.22964303E+02</pdfrwt>
<pdfrwt beam="1">  1       -1 0.86291201E-01 0.22964303E+02</pdfrwt>
<totfact> 0.45846630E+06</totfact>
</mgrwt>
</event>
<event>
 4    1  0.2185255E+006  0.2182390E+02  0.7546771E-02  0.1711315E+00
         -1   -1    0    0    0  501 -0.00000000000E+00  0.00000000000E+00  0.28243915484E+02  0.28243915484E+02  0.00000000000E+00 0. -1.
         21   -1    0    0  503  502  0.00000000000E+00 -0.00000000000E+00 -0.33093004312E+02  0.33093004312E+02  0.00000000000E+00 0. -1.
         21    1    1    2  503  501  0.65246767796E+01 -0.20825734709E+02 -0.23901889139E+02  0.32366385922E+02  0.00000000000E+00 0. -1.
         -1    1    1    2    0  502 -0.65246767796E+01  0.20825734709E+02  0.19052800311E+02  0.28970533874E+02  0.00000000000E+00 0. -1.
<mgrwt>
<rscale>  2 0.21823901E+02</rscale>
<asrwt>0</asrwt>
<pdfrwt beam="2">  1       21 0.50912314E-02 0.21823901E+02</pdfrwt>
<pdfrwt beam="1">  1       -1 0.43452178E-02 0.21823901E+02</pdfrwt>
<totfact> 0.32704896E+06</totfact>
</mgrwt>
</event>
<event>
 4    1  0.2185255E+006  0.3072931E+02  0.7546771E-02  0.1590164E+00
         21   -1    0    0  501  502  0.00000000000E+00  0.00000000000E+00  0.13283946470E+01  0.13283946470E+01  0.00000000000E+00 0. -1.
          1   -1    0    0  503    0 -0.00000000000E+00 -0.00000000000E+00 -0.23380773020E+04  0.23380773020E+04  0.00000000000E+00 0. -1.
         21    1    1    2  503  502  0.11784912626E+02  0.28379677050E+02 -0.19255350930E+03  0.19499011302E+03  0.00000000000E+00 0. -1.
          1    1    1    2  501    0 -0.11784912626E+02 -0.28379677050E+02 -0.21441953980E+04  0.21444155836E+04  0.00000000000E+00 0. -1.
<mgrwt>
<rscale>  2 0.30729306E+02</rscale>
<asrwt>0</asrwt>
<pdfrwt beam="1">  1       21 0.20437058E-03 0.30729306E+02</pdfrwt>
<pdfrwt beam="2">  1        1 0.35970038E+00 0.30729306E+02</pdfrwt>
<totfact> 0.93104055E+05</totfact>
</mgrwt>
</event>
<event>
 4    1  0.2185255E+006  0.2136592E+02  0.7546771E-02  0.1719454E+00
         -1   -1    0    0    0  501 -0.00000000000E+00  0.00000000000E+00  0.42075205498E+03  0.42075205498E+03  0.00000000000E+00 0.  1.
         21   -1    0    0  503  502  0.00000000000E+00 -0.00000000000E+00 -0.14103720643E+01  0.14103720643E+01  0.00000000000E+00 0.  1.
         21    1    1    2  503  501 -0.15940062049E+02 -0.14227337664E+02  0.10828112610E+03  0.11036894937E+03  0.00000000000E+00 0.  1.
         -1    1    1    2    0  502  0.15940062049E+02  0.14227337664E+02  0.31106055682E+03  0.31179347768E+03  0.00000000000E+00 0.  1.
<mgrwt>
<rscale>  2 0.21365924E+02</rscale>
<asrwt>0</asrwt>
<pdfrwt beam="2">  1       21 0.21698065E-03 0.21365924E+02</pdfrwt>
<pdfrwt beam="1">  1       -1 0.64730986E-01 0.21365924E+02</pdfrwt>
<totfact> 0.60763545E+06</totfact>
</mgrwt>
</event>
<event>
 4    1  0.2185255E+006  0.2794118E+02  0.7546771E-02  0.1622029E+00
         21   -1    0    0  501  502  0.00000000000E+00  0.00000000000E+00  0.27978418642E+01  0.27978418642E+01  0.00000000000E+00 0. -1.
          1   -1    0    0  503    0 -0.00000000000E+00 -0.00000000000E+00 -0.40462173441E+03  0.40462173441E+03  0.00000000000E+00 0. -1.
         21    1    1    2  503  502  0.16231613859E+02 -0.22743005906E+02 -0.87423761965E+02  0.91780301602E+02  0.00000000000E+00 0. -1.
          1    1    1    2  501    0 -0.16231613859E+02  0.22743005906E+02 -0.31440013058E+03  0.31563927467E+03  0.00000000000E+00 0. -1.
<mgrwt>
<rscale>  2 0.27941181E+02</rscale>
<asrwt>0</asrwt>
<pdfrwt beam="1">  1       21 0.43043746E-03 0.27941181E+02</pdfrwt>
<pdfrwt beam="2">  1        1 0.62249461E-01 0.27941181E+02</pdfrwt>
<totfact> 0.66954253E+06</totfact>
</mgrwt>
</event>
<event>
 4    1  0.2185255E+006  0.2144366E+02  0.7546771E-02  0.1718055E+00
         21   -1    0    0  503  502  0.00000000000E+00  0.00000000000E+00  0.31403283636E+02  0.31403283636E+02  0.00000000000E+00 0.  1.
         -4   -1    0    0    0  501 -0.00000000000E+00 -0.00000000000E+00 -0.27643553933E+02  0.27643553933E+02  0.00000000000E+00 0.  1.
         21    1    1    2  503  501  0.16391573720E+02 -0.13825587018E+02  0.22126588377E+02  0.30812602269E+02  0.00000000000E+00 0.  1.
         -4    1    1    2    0  502 -0.16391573720E+02  0.13825587018E+02 -0.18366858674E+02  0.28234235300E+02  0.00000000000E+00 0.  1.
<mgrwt>
<rscale>  2 0.21443660E+02</rscale>
<asrwt>0</asrwt>
<pdfrwt beam="1">  1       21 0.48312744E-02 0.21443660E+02</pdfrwt>
<pdfrwt beam="2">  1       -4 0.42528545E-02 0.21443660E+02</pdfrwt>
<totfact> 0.19419728E+06</totfact>
</mgrwt>
</event>
<event>
 4    1  0.2185255E+006  0.2004847E+02  0.7546771E-02  0.1744366E+00
         -2   -1    0    0    0  501 -0.00000000000E+00  0.00000000000E+00  0.25738138868E+03  0.25738138868E+03  0.00000000000E+00 0.  1.
         21   -1    0    0  501  502  0.00000000000E+00 -0.00000000000E+00 -0.19446283337E+01  0.19446283337E+01  0.00000000000E+00 0.  1.
         21    1    1    2  503  502  0.10054010719E+02 -0.17345253907E+02  0.70176773186E+02  0.72984385039E+02  0.00000000000E+00 0.  1.
         -2    1    1    2    0  503 -0.10054010719E+02  0.17345253907E+02  0.18525998716E+03  0.18634163198E+03  0.00000000000E+00 0.  1.
<mgrwt>
<rscale>  2 0.20048465E+02</rscale>
<asrwt>0</asrwt>
<pdfrwt beam="2">  1       21 0.29917379E-03 0.20048465E+02</pdfrwt>
<pdfrwt beam="1">  1       -2 0.39597110E-01 0.20048465E+02</pdfrwt>
<totfact> 0.73240274E+06</totfact>
</mgrwt>
</event>
<event>
 4    1  0.2185255E+006  0.2595829E+02  0.7546771E-02  0.1647607E+00
          2   -1    0    0  502    0 -0.00000000000E+00  0.00000000000E+00  0.13431335207E+04  0.13431335207E+04  0.00000000000E+00 0.  1.
         21   -1    0    0  503  502  0.00000000000E+00 -0.00000000000E+00 -0.92472462696E+00  0.92472462696E+00  0.00000000000E+00 0.  1.
         21    1    1    2  503  501  0.17175815906E+01 -0.25901401240E+02  0.21656517744E+03  0.21811535653E+03  0.00000000000E+00 0.  1.
          2    1    1    2  501    0 -0.17175815906E+01  0.25901401240E+02  0.11256436187E+04  0.11259428888E+04  0.00000000000E+00 0.  1.
<mgrwt>
<rscale>  2 0.25958287E+02</rscale>
<asrwt>0</asrwt>
<pdfrwt beam="2">  1       21 0.14226640E-03 0.25958287E+02</pdfrwt>
<pdfrwt beam="1">  1        2 0.20663437E+00 0.25958287E+02</pdfrwt>
<totfact> 0.12135484E+07</totfact>
</mgrwt>
</event>
<event>
 4    1  0.2185255E+006  0.2624797E+02  0.7546771E-02  0.1643698E+00
         -1   -1    0    0    0  501 -0.00000000000E+00  0.00000000000E+00  0.55690297491E+03  0.55690297491E+03  0.00000000000E+00 0. -1.
         21   -1    0    0  501  502  0.00000000000E+00 -0.00000000000E+00 -0.25112429606E+01  0.25112429606E+01  0.00000000000E+00 0. -1.
         21    1    1    2  503  502 -0.13264004942E+02 -0.22649991113E+02  0.77961260721E+02  0.82261255143E+02  0.00000000000E+00 0. -1.
         -1    1    1    2    0  503  0.13264004942E+02  0.22649991113E+02  0.47643047123E+03  0.47715296273E+03  0.00000000000E+00 0. -1.
<mgrwt>
<rscale>  2 0.26247970E+02</rscale>
<asrwt>0</asrwt>
<pdfrwt beam="2">  1       21 0.38634551E-03 0.26247970E+02</pdfrwt>
<pdfrwt beam="1">  1       -1 0.85677283E-01 0.26247970E+02</pdfrwt>
<totfact> 0.16213118E+06</totfact>
</mgrwt>
</event>
<event>
 4    1  0.2185255E+006  0.2772768E+02  0.7546771E-02  0.1624656E+00
         21   -1    0    0  501  502  0.00000000000E+00  0.00000000000E+00  0.37508364339E+01  0.37508364339E+01  0.00000000000E+00 0. -1.
         -2   -1    0    0    0  501 -0.00000000000E+00 -0.00000000000E+00 -0.35274637776E+03  0.35274637776E+03  0.00000000000E+00 0.  1.
         21    1    1    2  503  502 -0.22422048227E+02 -0.16311837306E+02 -0.59128177125E+02  0.65306704197E+02  0.00000000000E+00 0. -1.
         -2    1    1    2    0  503  0.22422048227E+02  0.16311837306E+02 -0.28986736420E+03  0.29119050999E+03  0.00000000000E+00 0.  1.
<mgrwt>
<rscale>  2 0.27727681E+02</rscale>
<asrwt>0</asrwt>
<pdfrwt beam="1">  1       21 0.57705182E-03 0.27727681E+02</pdfrwt>
<pdfrwt beam="2">  1       -2 0.54268667E-01 0.27727681E+02</pdfrwt>
<totfact> 0.16979217E+06</totfact>
</mgrwt>
</event>
<event>
 4    1  0.2185255E+006  0.2983006E+02  0.7546771E-02  0.1599975E+00
         -4   -1    0    0    0  501 -0.00000000000E+00  0.00000000000E+00  0.51065073100E+03  0.51065073100E+03  0.00000000000E+00 0. -1.
         21   -1    0    0  501  502  0.00000000000E+00 -0.00000000000E+00 -0.17971099011E+02  0.17971099011E+02  0.00000000000E+00 0. -1.
         21    1    1    2  503  502 -0.28876401474E+02  0.74823895825E+01 -0.48301289362E+01  0.30218584704E+02  0.00000000000E+00 0. -1.
         -4    1    1    2    0  503  0.28876401474E+02 -0.74823895825E+01  0.49750976092E+03  0.49840324530E+03  0.00000000000E+00 0. -1.
<mgrwt>
<rscale>  2 0.29830064E+02</rscale>
<asrwt>0</asrwt>
<pdfrwt beam="2">  1       21 0.27647848E-02 0.29830064E+02</pdfrwt>
<pdfrwt beam="1">  1       -4 0.78561640E-01 0.29830064E+02</pdfrwt>
<totfact> 0.32727854E+04</totfact>
</mgrwt>
</event>
<event>
 4    1  0.2185255E+006  0.2492895E+02  0.7546771E-02  0.1662024E+00
         21   -1    0    0  503  502  0.00000000000E+00  0.00000000000E+00  0.67262086535E+02  0.67262086535E+02  0.00000000000E+00 0.  1.
         -3   -1    0    0    0  501 -0.00000000000E+00 -0.00000000000E+00 -0.29229466239E+03  0.29229466239E+03  0.00000000000E+00 0. -1.
         21    1    1    2  503  501 -0.19193407520E+02 -0.15908040904E+02  0.64397924097E+02  0.69054654337E+02  0.00000000000E+00 0.  1.
         -3    1    1    2    0  502  0.19193407520E+02  0.15908040904E+02 -0.28943049995E+03  0.29050209459E+03  0.00000000000E+00 0. -1.
<mgrwt>
<rscale>  2 0.24928952E+02</rscale>
<asrwt>0</asrwt>
<pdfrwt beam="1">  1       21 0.10348013E-01 0.24928952E+02</pdfrwt>
<pdfrwt beam="2">  1       -3 0.44968409E-01 0.24928952E+02</pdfrwt>
<totfact> 0.14801606E+04</totfact>
</mgrwt>
</event>
<event>
 4    1  0.2185255E+006  0.4100241E+02  0.7546771E-02  0.1500962E+00
         -1   -1    0    0    0  501 -0.00000000000E+00  0.00000000000E+00  0.12130954999E+03  0.12130954999E+03  0.00000000000E+00 0.  1.
         21   -1    0    0  501  502  0.00000000000E+00 -0.00000000000E+00 -0.29576616275E+02  0.29576616275E+02  0.00000000000E+00 0.  1.
         21    1    1    2  503  502  0.37825774053E+02  0.15824306059E+02 -0.91309231827E+01  0.42006804248E+02  0.00000000000E+00 0.  1.
         -1    1    1    2    0  503 -0.37825774053E+02 -0.15824306059E+02  0.10086385690E+03  0.10887936202E+03  0.00000000000E+00 0.  1.
<mgrwt>
<rscale>  2 0.41002413E+02</rscale>
<asrwt>0</asrwt>
<pdfrwt beam="2">  1       21 0.45502487E-02 0.41002413E+02</pdfrwt>
<pdfrwt beam="1">  1       -1 0.18663007E-01 0.41002413E+02</pdfrwt>
<totfact> 0.53995373E+05</totfact>
</mgrwt>
</event>
<event>
 4    1  0.2185255E+006  0.2178346E+02  0.7546771E-02  0.1712024E+00
         21   -1    0    0  501  502  0.00000000000E+00  0.00000000000E+00  0.45682078828E+03  0.45682078828E+03  0.00000000000E+00 0.  1.
          3   -1    0    0  503    0 -0.00000000000E+00 -0.00000000000E+00 -0.10783472518E+02  0.10783472518E+02  0.00000000000E+00 0.  1.
         21    1    1    2  503  502 -0.67834242773E+01  0.20700342398E+02  0.44527494706E+03  0.44580746685E+03  0.00000000000E+00 0.  1.
          3    1    1    2  501    0  0.67834242773E+01 -0.20700342398E+02  0.76236870056E+00  0.21796793947E+02  0.00000000000E+00 0.  1.
<mgrwt>
<rscale>  2 0.21783457E+02</rscale>
<asrwt>0</asrwt>
<pdfrwt beam="1">  1       21 0.70280106E-01 0.21783457E+02</pdfrwt>
<pdfrwt beam="2">  1        3 0.16589961E-02 0.21783457E+02</pdfrwt>
<totfact> 0.83832896E+04</totfact>
</mgrwt>
</event>
<event>
 4    1  0.2185255E+006  0.2070767E+02  0.7546771E-02  0.1731611E+00
         21   -1    0    0  503  502  0.00000000000E+00  0.00000000000E+00  0.54547289645E+02  0.54547289645E+02  0.00000000000E+00 0. -1.
         -2   -1    0    0    0  501 -0.00000000000E+00 -0.00000000000E+00 -0.99395500811E+01  0.99395500811E+01  0.00000000000E+00 0. -1.
         21    1    1    2  503  501  0.20272728708E+02  0.42218430865E+01  0.37047907908E+02  0.42442372326E+02  0.00000000000E+00 0. -1.
         -2    1    1    2    0  502 -0.20272728708E+02 -0.42218430865E+01  0.75598316566E+01  0.22044467401E+02  0.00000000000E+00 0. -1.
<mgrwt>
<rscale>  2 0.20707667E+02</rscale>
<asrwt>0</asrwt>
<pdfrwt beam="1">  1       21 0.83918905E-02 0.20707667E+02</pdfrwt>
<pdfrwt beam="2">  1       -2 0.15291616E-02 0.20707667E+02</pdfrwt>
<totfact> 0.59557044E+06</totfact>
</mgrwt>
</event>
<event>
 4    1  0.2185255E+006  0.2128994E+02  0.7546771E-02  0.1720829E+00
         21   -1    0    0  503  502  0.00000000000E+00  0.00000000000E+00  0.20102705935E+01  0.20102705935E+01  0.00000000000E+00 0.  1.
         -2   -1    0    0    0  501 -0.00000000000E+00 -0.00000000000E+00 -0.31960684805E+03  0.31960684805E+03  0.00000000000E+00 0.  1.
         21    1    1    2  503  501  0.11478389932E+02  0.17930649967E+02 -0.71526446922E+02  0.74627704326E+02  0.00000000000E+00 0.  1.
         -2    1    1    2    0  502 -0.11478389932E+02 -0.17930649967E+02 -0.24607013054E+03  0.24698941432E+03  0.00000000000E+00 0.  1.
<mgrwt>
<rscale>  2 0.21289942E+02</rscale>
<asrwt>0</asrwt>
<pdfrwt beam="1">  1       21 0.30927234E-03 0.21289942E+02</pdfrwt>
<pdfrwt beam="2">  1       -2 0.49170293E-01 0.21289942E+02</pdfrwt>
<totfact> 0.47720896E+06</totfact>
</mgrwt>
</event>
<event>
 4    1  0.2185255E+006  0.3886340E+02  0.7546771E-02  0.1516746E+00
         21   -1    0    0  501  502  0.00000000000E+00  0.00000000000E+00  0.16108729571E+03  0.16108729571E+03  0.00000000000E+00 0.  1.
          4   -1    0    0  503    0 -0.00000000000E+00 -0.00000000000E+00 -0.11278175463E+02  0.11278175463E+02  0.00000000000E+00 0. -1.
         21    1    1    2  503  502  0.38599744519E+02 -0.45192090040E+01  0.11029775206E+03  0.11694425012E+03  0.00000000000E+00 0.  1.
          4    1    1    2  501    0 -0.38599744519E+02  0.45192090040E+01  0.39511368188E+02  0.55421221053E+02  0.00000000000E+00 0. -1.
<mgrwt>
<rscale>  2 0.38863396E+02</rscale>
<asrwt>0</asrwt>
<pdfrwt beam="1">  1       21 0.24782659E-01 0.38863396E+02</pdfrwt>
<pdfrwt beam="2">  1        4 0.17351040E-02 0.38863396E+02</pdfrwt>
<totfact> 0.58891498E+05</totfact>
</mgrwt>
</event>
<event>
 4    1  0.2185255E+006  0.2089893E+02  0.7546771E-02  0.1728021E+00
         21   -1    0    0  503  502  0.00000000000E+00  0.00000000000E+00  0.12273493443E+01  0.12273493443E+01  0.00000000000E+00 0. -1.
          1   -1    0    0  502    0 -0.00000000000E+00 -0.00000000000E+00 -0.68782680856E+03  0.68782680856E+03  0.00000000000E+00 0. -1.
         21    1    1    2  503  501 -0.17872657115E+02  0.10832058412E+02 -0.10395123239E+03  0.10603124104E+03  0.00000000000E+00 0. -1.
          1    1    1    2  501    0  0.17872657115E+02 -0.10832058412E+02 -0.58264822683E+03  0.58302291687E+03  0.00000000000E+00 0. -1.
<mgrwt>
<rscale>  2 0.20898932E+02</rscale>
<asrwt>0</asrwt>
<pdfrwt beam="1">  1       21 0.18882308E-03 0.20898932E+02</pdfrwt>
<pdfrwt beam="2">  1        1 0.10581945E+00 0.20898932E+02</pdfrwt>
<totfact> 0.10768745E+07</totfact>
</mgrwt>
</event>
<event>
 4    1  0.2185255E+006  0.4566523E+02  0.7546771E-02  0.1470231E+00
          2   -1    0    0  502    0 -0.00000000000E+00  0.00000000000E+00  0.20578521027E+04  0.20578521027E+04  0.00000000000E+00 0.  1.
         21   -1    0    0  503  502  0.00000000000E+00 -0.00000000000E+00 -0.34257061326E+01  0.34257061326E+01  0.00000000000E+00 0.  1.
         21    1    1    2  503  501 -0.41760618899E+02 -0.18476030130E+02  0.16233949684E+03  0.16863992769E+03  0.00000000000E+00 0.  1.
          2    1    1    2  501    0  0.41760618899E+02  0.18476030130E+02  0.18920868998E+04  0.18926378812E+04  0.00000000000E+00 0.  1.
<mgrwt>
<rscale>  2 0.45665227E+02</rscale>
<asrwt>0</asrwt>
<pdfrwt beam="2">  1       21 0.52703336E-03 0.45665227E+02</pdfrwt>
<pdfrwt beam="1">  1        2 0.31659164E+00 0.45665227E+02</pdfrwt>
<totfact> 0.86833612E+05</totfact>
</mgrwt>
</event>
<event>
 4    1  0.2185255E+006  0.2112418E+02  0.7546771E-02  0.1723854E+00
          2   -1    0    0  503    0 -0.00000000000E+00  0.00000000000E+00  0.14671790792E+01  0.14671790792E+01  0.00000000000E+00 0. -1.
         21   -1    0    0  501  502  0.00000000000E+00 -0.00000000000E+00 -0.35288665179E+03  0.35288665179E+03  0.00000000000E+00 0. -1.
         21    1    1    2  503  502  0.20448629738E+02 -0.52994857220E+01 -0.24155921124E+03  0.24248109935E+03  0.00000000000E+00 0. -1.
          2    1    1    2  501    0 -0.20448629738E+02  0.52994857220E+01 -0.10986026146E+03  0.11187273151E+03  0.00000000000E+00 0. -1.
<mgrwt>
<rscale>  2 0.21124181E+02</rscale>
<asrwt>0</asrwt>
<pdfrwt beam="2">  1       21 0.54290233E-01 0.21124181E+02</pdfrwt>
<pdfrwt beam="1">  1        2 0.22571995E-03 0.21124181E+02</pdfrwt>
<totfact> 0.29193571E+06</totfact>
</mgrwt>
</event>
<event>
 4    1  0.2185255E+006  0.2957059E+02  0.7546771E-02  0.1602884E+00
         21   -1    0    0  503  502  0.00000000000E+00  0.00000000000E+00  0.32422988805E+02  0.32422988805E+02  0.00000000000E+00 0.  1.
          1   -1    0    0  502    0 -0.00000000000E+00 -0.00000000000E+00 -0.11080745912E+03  0.11080745912E+03  0.00000000000E+00 0. -1.
         21    1    1    2  503  501  0.28747903135E+02 -0.69265963903E+01  0.23101184656E+02  0.37524450759E+02  0.00000000000E+00 0.  1.
          1    1    1    2  501    0 -0.28747903135E+02  0.69265963903E+01 -0.10148565497E+03  0.10570599716E+03  0.00000000000E+00 0. -1.
<mgrwt>
<rscale>  2 0.29570588E+02</rscale>
<asrwt>0</asrwt>
<pdfrwt beam="1">  1       21 0.49881521E-02 0.29570588E+02</pdfrwt>
<pdfrwt beam="2">  1        1 0.17047302E-01 0.29570588E+02</pdfrwt>
<totfact> 0.72755426E+05</totfact>
</mgrwt>
</event>
<event>
 4    1  0.2185255E+006  0.2073236E+02  0.7546771E-02  0.1731144E+00
          2   -1    0    0  503    0 -0.00000000000E+00  0.00000000000E+00  0.14903221126E+04  0.14903221126E+04  0.00000000000E+00 0.  1.
         21   -1    0    0  501  502  0.00000000000E+00 -0.00000000000E+00 -0.28841803926E+00  0.28841803926E+00  0.00000000000E+00 0.  1.
         21    1    1    2  503  502 -0.18614565370E+02  0.91284585903E+01  0.74247961054E+03  0.74276901044E+03  0.00000000000E+00 0.  1.
          2    1    1    2  501    0  0.18614565370E+02 -0.91284585903E+01  0.74755408404E+03  0.74784152022E+03  0.00000000000E+00 0.  1.
<mgrwt>
<rscale>  2 0.20732361E+02</rscale>
<asrwt>0</asrwt>
<pdfrwt beam="2">  1       21 0.44373199E-04 0.20732361E+02</pdfrwt>
<pdfrwt beam="1">  1        2 0.22927416E+00 0.20732361E+02</pdfrwt>
<totfact> 0.50898039E+07</totfact>
</mgrwt>
</event>
<event>
 4    1  0.2185255E+006  0.6601006E+02  0.7546771E-02  0.1374212E+00
         -1   -1    0    0    0  501 -0.00000000000E+00  0.00000000000E+00  0.52131476559E+02  0.52131476559E+02  0.00000000000E+00 0.  1.
         21   -1    0    0  503  502  0.00000000000E+00 -0.00000000000E+00 -0.15501690048E+03  0.15501690048E+03  0.00000000000E+00 0. -1.
         21    1    1    2  503  501  0.55396077438E+02  0.35897120003E+02 -0.12175202129E+03  0.13849506601E+03  0.00000000000E+00 0. -1.
         -1    1    1    2    0  502 -0.55396077438E+02 -0.35897120003E+02  0.18866597367E+02  0.68653311036E+02  0.00000000000E+00 0.  1.
<mgrwt>
<rscale>  2 0.66010065E+02</rscale>
<asrwt>0</asrwt>
<pdfrwt beam="2">  1       21 0.23848753E-01 0.66010065E+02</pdfrwt>
<pdfrwt beam="1">  1       -1 0.80202274E-02 0.66010065E+02</pdfrwt>
<totfact> 0.11858982E+05</totfact>
</mgrwt>
</event>
<event>
 4    1  0.2185255E+006  0.2016893E+02  0.7546771E-02  0.1741989E+00
         21   -1    0    0  503  502  0.00000000000E+00  0.00000000000E+00  0.22739468220E+02  0.22739468220E+02  0.00000000000E+00 0.  1.
          1   -1    0    0  502    0 -0.00000000000E+00 -0.00000000000E+00 -0.12775755765E+04  0.12775755765E+04  0.00000000000E+00 0.  1.
         21    1    1    2  503  501 -0.18495382523E+02 -0.80440364042E+01  0.18171577680E+02  0.27147595321E+02  0.00000000000E+00 0.  1.
          1    1    1    2  501    0  0.18495382523E+02  0.80440364042E+01 -0.12730076859E+04  0.12731674494E+04  0.00000000000E+00 0.  1.
<mgrwt>
<rscale>  2 0.20168929E+02</rscale>
<asrwt>0</asrwt>
<pdfrwt beam="1">  1       21 0.34983794E-02 0.20168929E+02</pdfrwt>
<pdfrwt beam="2">  1        1 0.19655011E+00 0.20168929E+02</pdfrwt>
<totfact> 0.54276426E+04</totfact>
</mgrwt>
</event>
<event>
 4    1  0.2185255E+006  0.5157593E+02  0.7546771E-02  0.1437022E+00
         -4   -1    0    0    0  501 -0.00000000000E+00  0.00000000000E+00  0.13077785114E+03  0.13077785114E+03  0.00000000000E+00 0. -1.
         21   -1    0    0  503  502  0.00000000000E+00 -0.00000000000E+00 -0.93500283732E+02  0.93500283732E+02  0.00000000000E+00 0.  1.
         21    1    1    2  503  501 -0.50500427440E+02  0.10477761365E+02 -0.80555561363E+02  0.95651843272E+02  0.00000000000E+00 0.  1.
         -4    1    1    2    0  502  0.50500427440E+02 -0.10477761365E+02  0.11783312877E+03  0.12862629160E+03  0.00000000000E+00 0. -1.
<mgrwt>
<rscale>  2 0.51575931E+02</rscale>
<asrwt>0</asrwt>
<pdfrwt beam="2">  1       21 0.14384659E-01 0.51575931E+02</pdfrwt>
<pdfrwt beam="1">  1       -4 0.20119670E-01 0.51575931E+02</pdfrwt>
<totfact> 0.33328008E+04</totfact>
</mgrwt>
</event>
<event>
 4    1  0.2185255E+006  0.2088141E+02  0.7546771E-02  0.1728348E+00
         21   -1    0    0  501  502  0.00000000000E+00  0.00000000000E+00  0.70262143268E+01  0.70262143268E+01  0.00000000000E+00 0.  1.
          2   -1    0    0  503    0 -0.00000000000E+00 -0.00000000000E+00 -0.23541015365E+03  0.23541015365E+03  0.00000000000E+00 0. -1.
         21    1    1    2  503  502 -0.19700204308E+02 -0.69235171287E+01 -0.10171277365E+02  0.23226881462E+02  0.00000000000E+00 0.  1.
          2    1    1    2  501    0  0.19700204308E+02  0.69235171287E+01 -0.21821266196E+03  0.21920948652E+03  0.00000000000E+00 0. -1.
<mgrwt>
<rscale>  2 0.20881407E+02</rscale>
<asrwt>0</asrwt>
<pdfrwt beam="1">  1       21 0.10809563E-02 0.20881407E+02</pdfrwt>
<pdfrwt beam="2">  1        2 0.36216937E-01 0.20881407E+02</pdfrwt>
<totfact> 0.39709167E+06</totfact>
</mgrwt>
</event>
<event>
 4    1  0.2185255E+006  0.2073822E+02  0.7546771E-02  0.1731034E+00
         -2   -1    0    0    0  501 -0.00000000000E+00  0.00000000000E+00  0.51895547587E+03  0.51895547587E+03  0.00000000000E+00 0. -1.
         21   -1    0    0  503  502  0.00000000000E+00 -0.00000000000E+00 -0.11259718658E+01  0.11259718658E+01  0.00000000000E+00 0. -1.
         21    1    1    2  503  501 -0.20152376663E+02  0.48944437584E+01  0.12530666794E+03  0.12701116052E+03  0.00000000000E+00 0. -1.
         -2    1    1    2    0  502  0.20152376663E+02 -0.48944437584E+01  0.39252283606E+03  0.39307028722E+03  0.00000000000E+00 0. -1.
<mgrwt>
<rscale>  2 0.20738222E+02</rscale>
<asrwt>0</asrwt>
<pdfrwt beam="2">  1       21 0.17322686E-03 0.20738222E+02</pdfrwt>
<pdfrwt beam="1">  1       -2 0.79839113E-01 0.20738222E+02</pdfrwt>
<totfact> 0.41593147E+06</totfact>
</mgrwt>
</event>
<event>
 4    1  0.2185255E+006  0.4240832E+02  0.7546771E-02  0.1491201E+00
          4   -1    0    0  503    0 -0.00000000000E+00  0.00000000000E+00  0.41855646599E+02  0.41855646599E+02  0.00000000000E+00 0.  1.
         21   -1    0    0  501  502  0.00000000000E+00 -0.00000000000E+00 -0.46350330469E+02  0.46350330469E+02  0.00000000000E+00 0. -1.
         21    1    1    2  503  502  0.38278705808E+02 -0.18253930971E+02 -0.14160622802E+02  0.44710049791E+02  0.00000000000E+00 0. -1.
          4    1    1    2  501    0 -0.38278705808E+02  0.18253930971E+02  0.96659389319E+01  0.43495927277E+02  0.00000000000E+00 0.  1.
<mgrwt>
<rscale>  2 0.42408317E+02</rscale>
<asrwt>0</asrwt>
<pdfrwt beam="2">  1       21 0.71308201E-02 0.42408317E+02</pdfrwt>
<pdfrwt beam="1">  1        4 0.64393302E-02 0.42408317E+02</pdfrwt>
<totfact> 0.69876972E+05</totfact>
</mgrwt>
</event>
<event>
 4    1  0.2185255E+006  0.2486314E+02  0.7546771E-02  0.1662975E+00
         21   -1    0    0  503  502  0.00000000000E+00  0.00000000000E+00  0.26208531455E+01  0.26208531455E+01  0.00000000000E+00 0.  1.
          2   -1    0    0  502    0 -0.00000000000E+00 -0.00000000000E+00 -0.17906777609E+04  0.17906777609E+04  0.00000000000E+00 0.  1.
         21    1    1    2  503  501 -0.21687449295E+02 -0.12158553041E+02 -0.58516821240E+02  0.63579825707E+02  0.00000000000E+00 0.  1.
          2    1    1    2  501    0  0.21687449295E+02  0.12158553041E+02 -0.17295400865E+04  0.17297187883E+04  0.00000000000E+00 0.  1.
<mgrwt>
<rscale>  2 0.24863143E+02</rscale>
<asrwt>0</asrwt>
<pdfrwt beam="1">  1       21 0.40320714E-03 0.24863143E+02</pdfrwt>
<pdfrwt beam="2">  1        2 0.27548960E+00 0.24863143E+02</pdfrwt>
<totfact> 0.16243224E+06</totfact>
</mgrwt>
</event>
<event>
 4    1  0.2185255E+006  0.2850879E+02  0.7546771E-02  0.1615182E+00
          2   -1    0    0  503    0 -0.00000000000E+00  0.00000000000E+00  0.25432680864E+03  0.25432680864E+03  0.00000000000E+00 0. -1.
         21   -1    0    0  501  502  0.00000000000E+00 -0.00000000000E+00 -0.54263696878E+02  0.54263696878E+02  0.00000000000E+00 0.  1.
         21    1    1    2  503  502 -0.26120651570E+01 -0.28388878243E+02 -0.49651383042E+02  0.57253918035E+02  0.00000000000E+00 0.  1.
          2    1    1    2  501    0  0.26120651570E+01  0.28388878243E+02  0.24971449481E+03  0.25133658749E+03  0.00000000000E+00 0. -1.
<mgrwt>
<rscale>  2 0.28508793E+02</rscale>
<asrwt>0</asrwt>
<pdfrwt beam="2">  1       21 0.83482612E-02 0.28508793E+02</pdfrwt>
<pdfrwt beam="1">  1        2 0.39127201E-01 0.28508793E+02</pdfrwt>
<totfact> 0.15876133E+05</totfact>
</mgrwt>
</event>
<event>
 4    1  0.2185255E+006  0.2248222E+02  0.7546771E-02  0.1700043E+00
         21   -1    0    0  503  502  0.00000000000E+00  0.00000000000E+00  0.58483126266E+01  0.58483126266E+01  0.00000000000E+00 0.  1.
         -1   -1    0    0    0  501 -0.00000000000E+00 -0.00000000000E+00 -0.11849019720E+03  0.11849019720E+03  0.00000000000E+00 0.  1.
         21    1    1    2  503  501 -0.14978973211E+02 -0.16765462936E+02 -0.23980953342E+02  0.32871515163E+02  0.00000000000E+00 0.  1.
         -1    1    1    2    0  502  0.14978973211E+02  0.16765462936E+02 -0.88660931226E+02  0.91466994658E+02  0.00000000000E+00 0.  1.
<mgrwt>
<rscale>  2 0.22482224E+02</rscale>
<asrwt>0</asrwt>
<pdfrwt beam="1">  1       21 0.89974047E-03 0.22482224E+02</pdfrwt>
<pdfrwt beam="2">  1       -1 0.18229260E-01 0.22482224E+02</pdfrwt>
<totfact> 0.60514411E+06</totfact>
</mgrwt>
</event>
<event>
 4    1  0.2185255E+006  0.2225028E+02  0.7546771E-02  0.1703959E+00
         21   -1    0    0  501  502  0.00000000000E+00  0.00000000000E+00  0.23024958071E+03  0.23024958071E+03  0.00000000000E+00 0. -1.
          4   -1    0    0  503    0 -0.00000000000E+00 -0.00000000000E+00 -0.34320851535E+01  0.34320851535E+01  0.00000000000E+00 0. -1.
         21    1    1    2  503  502  0.22215206045E+02 -0.12488438947E+01  0.18481657352E+03  0.18615112365E+03  0.00000000000E+00 0. -1.
          4    1    1    2  501    0 -0.22215206045E+02  0.12488438947E+01  0.42000922042E+02  0.47530542213E+02  0.00000000000E+00 0. -1.
<mgrwt>
<rscale>  2 0.22250281E+02</rscale>
<asrwt>0</asrwt>
<pdfrwt beam="1">  1       21 0.35423000E-01 0.22250281E+02</pdfrwt>
<pdfrwt beam="2">  1        4 0.52801328E-03 0.22250281E+02</pdfrwt>
<totfact> 0.14178939E+06</totfact>
</mgrwt>
</event>
<event>
 4    1  0.2185255E+006  0.3014634E+02  0.7546771E-02  0.1596477E+00
         21   -1    0    0  501  502  0.00000000000E+00  0.00000000000E+00  0.69444767346E+00  0.69444767346E+00  0.00000000000E+00 0.  1.
          1   -1    0    0  503    0 -0.00000000000E+00 -0.00000000000E+00 -0.14961838439E+04  0.14961838439E+04  0.00000000000E+00 0.  1.
         21    1    1    2  503  502 -0.55279915095E+01 -0.29635171141E+02 -0.48278368243E+03  0.48372397716E+03  0.00000000000E+00 0.  1.
          1    1    1    2  501    0  0.55279915095E+01  0.29635171141E+02 -0.10127057138E+04  0.10131543144E+04  0.00000000000E+00 0.  1.
<mgrwt>
<rscale>  2 0.30146344E+02</rscale>
<asrwt>0</asrwt>
<pdfrwt beam="1">  1       21 0.10683906E-03 0.30146344E+02</pdfrwt>
<pdfrwt beam="2">  1        1 0.23018007E+00 0.30146344E+02</pdfrwt>
<totfact> 0.76144146E+06</totfact>
</mgrwt>
</event>
<event>
 4    1  0.2185255E+006  0.2868660E+02  0.7546771E-02  0.1613077E+00
         21   -1    0    0  501  502  0.00000000000E+00  0.00000000000E+00  0.10103761504E+03  0.10103761504E+03  0.00000000000E+00 0. -1.
          4   -1    0    0  503    0 -0.00000000000E+00 -0.00000000000E+00 -0.10089735578E+03  0.10089735578E+03  0.00000000000E+00 0. -1.
         21    1    1    2  503  502  0.40310110788E+01 -0.28401971253E+02  0.96876698058E+02  0.10103472496E+03  0.00000000000E+00 0. -1.
          4    1    1    2  501    0 -0.40310110788E+01  0.28401971253E+02 -0.96736438805E+02  0.10090024586E+03  0.00000000000E+00 0. -1.
<mgrwt>
<rscale>  2 0.28686600E+02</rscale>
<asrwt>0</asrwt>
<pdfrwt beam="1">  1       21 0.15544249E-01 0.28686600E+02</pdfrwt>
<pdfrwt beam="2">  1        4 0.15522670E-01 0.28686600E+02</pdfrwt>
<totfact> 0.40049970E+04</totfact>
</mgrwt>
</event>
<event>
 4    1  0.2185255E+006  0.2464236E+02  0.7546771E-02  0.1666193E+00
         21   -1    0    0  501  502  0.00000000000E+00  0.00000000000E+00  0.25678889751E+01  0.25678889751E+01  0.00000000000E+00 0. -1.
         -1   -1    0    0    0  501 -0.00000000000E+00 -0.00000000000E+00 -0.38215240759E+03  0.38215240759E+03  0.00000000000E+00 0. -1.
         21    1    1    2  503  502 -0.31092961742E+01  0.24445410574E+02 -0.71026725922E+02  0.75180061293E+02  0.00000000000E+00 0. -1.
         -1    1    1    2    0  503  0.31092961742E+01 -0.24445410574E+02 -0.30855779269E+03  0.30954023527E+03  0.00000000000E+00 0. -1.
<mgrwt>
<rscale>  2 0.24642358E+02</rscale>
<asrwt>0</asrwt>
<pdfrwt beam="1">  1       21 0.39505982E-03 0.24642358E+02</pdfrwt>
<pdfrwt beam="2">  1       -1 0.58792681E-01 0.24642358E+02</pdfrwt>
<totfact> 0.31462109E+06</totfact>
</mgrwt>
</event>
<event>
 4    1  0.2185255E+006  0.3065575E+02  0.7546771E-02  0.1590951E+00
         21   -1    0    0  501  502  0.00000000000E+00  0.00000000000E+00  0.10088681686E+02  0.10088681686E+02  0.00000000000E+00 0.  1.
         -1   -1    0    0    0  501 -0.00000000000E+00 -0.00000000000E+00 -0.24151082133E+03  0.24151082133E+03  0.00000000000E+00 0.  1.
         21    1    1    2  503  502 -0.28471818665E+02  0.11363554519E+02 -0.17112855361E+02  0.35108754578E+02  0.00000000000E+00 0.  1.
         -1    1    1    2    0  503  0.28471818665E+02 -0.11363554519E+02 -0.21430928428E+03  0.21649074844E+03  0.00000000000E+00 0.  1.
<mgrwt>
<rscale>  2 0.30655747E+02</rscale>
<asrwt>0</asrwt>
<pdfrwt beam="1">  1       21 0.15521048E-02 0.30655747E+02</pdfrwt>
<pdfrwt beam="2">  1       -1 0.37155513E-01 0.30655747E+02</pdfrwt>
<totfact> 0.93290781E+05</totfact>
</mgrwt>
</event>
<event>
 4    1  0.2185255E+006  0.2010469E+02  0.7546771E-02  0.1743254E+00
          4   -1    0    0  502    0 -0.00000000000E+00  0.00000000000E+00  0.44235144334E+03  0.44235144334E+03  0.00000000000E+00 0. -1.
         21   -1    0    0  503  502  0.00000000000E+00 -0.00000000000E+00 -0.13257058240E+03  0.13257058240E+03  0.00000000000E+00 0.  1.
         21    1    1    2  503  501  0.17291045878E+02 -0.10257605977E+02 -0.13157819875E+03  0.13310530093E+03  0.00000000000E+00 0.  1.
          4    1    1    2  501    0 -0.17291045878E+02  0.10257605977E+02  0.44135905969E+03  0.44181672481E+03  0.00000000000E+00 0. -1.
<mgrwt>
<rscale>  2 0.20104695E+02</rscale>
<asrwt>0</asrwt>
<pdfrwt beam="2">  1       21 0.20395475E-01 0.20104695E+02</pdfrwt>
<pdfrwt beam="1">  1        4 0.68054067E-01 0.20104695E+02</pdfrwt>
<totfact> 0.15233249E+03</totfact>
</mgrwt>
</event>
<event>
 4    1  0.2185255E+006  0.2325880E+02  0.7546771E-02  0.1687349E+00
          4   -1    0    0  503    0 -0.00000000000E+00  0.00000000000E+00  0.96219073140E+03  0.96219073140E+03  0.00000000000E+00 0.  1.
         21   -1    0    0  501  502  0.00000000000E+00 -0.00000000000E+00 -0.24635405492E+01  0.24635405492E+01  0.00000000000E+00 0. -1.
         21    1    1    2  503  502 -0.87667665821E+01 -0.21543345007E+02  0.56134352578E+02  0.60762138292E+02  0.00000000000E+00 0. -1.
          4    1    1    2  501    0  0.87667665821E+01  0.21543345007E+02  0.90359283827E+03  0.90389213366E+03  0.00000000000E+00 0.  1.
<mgrwt>
<rscale>  2 0.23258803E+02</rscale>
<asrwt>0</asrwt>
<pdfrwt beam="2">  1       21 0.37900701E-03 0.23258803E+02</pdfrwt>
<pdfrwt beam="1">  1        4 0.14802904E+00 0.23258803E+02</pdfrwt>
<totfact> 0.14792822E+05</totfact>
</mgrwt>
</event>
<event>
 4    1  0.2185255E+006  0.5224434E+02  0.7546771E-02  0.1433599E+00
          1   -1    0    0  502    0 -0.00000000000E+00  0.00000000000E+00  0.44477842268E+02  0.44477842268E+02  0.00000000000E+00 0.  1.
         21   -1    0    0  503  502  0.00000000000E+00 -0.00000000000E+00 -0.90571251613E+02  0.90571251613E+02  0.00000000000E+00 0. -1.
         21    1    1    2  503  501  0.46965798845E+02  0.22884161016E+02 -0.61390018605E+02  0.80611447518E+02  0.00000000000E+00 0. -1.
          1    1    1    2  501    0 -0.46965798845E+02 -0.22884161016E+02  0.15296609260E+02  0.54437646362E+02  0.00000000000E+00 0.  1.
<mgrwt>
<rscale>  2 0.52244340E+02</rscale>
<asrwt>0</asrwt>
<pdfrwt beam="2">  1       21 0.13934039E-01 0.52244340E+02</pdfrwt>
<pdfrwt beam="1">  1        1 0.68427450E-02 0.52244340E+02</pdfrwt>
<totfact> 0.45127330E+05</totfact>
</mgrwt>
</event>
<event>
 4    1  0.2185255E+006  0.2114788E+02  0.7546771E-02  0.1723420E+00
          2   -1    0    0  503    0 -0.00000000000E+00  0.00000000000E+00  0.44582914198E+03  0.44582914198E+03  0.00000000000E+00 0. -1.
         21   -1    0    0  501  502  0.00000000000E+00 -0.00000000000E+00 -0.10223088599E+02  0.10223088599E+02  0.00000000000E+00 0.  1.
         21    1    1    2  503  502 -0.19512346524E+02 -0.81548309259E+01  0.12533345034E+01  0.21184989537E+02  0.00000000000E+00 0.  1.
          2    1    1    2  501    0  0.19512346524E+02  0.81548309259E+01  0.43435271888E+03  0.43486724104E+03  0.00000000000E+00 0. -1.
<mgrwt>
<rscale>  2 0.21147883E+02</rscale>
<asrwt>0</asrwt>
<pdfrwt beam="2">  1       21 0.15727832E-02 0.21147883E+02</pdfrwt>
<pdfrwt beam="1">  1        2 0.68589084E-01 0.21147883E+02</pdfrwt>
<totfact> 0.12070906E+06</totfact>
</mgrwt>
</event>
<event>
 4    1  0.2185255E+006  0.2204048E+02  0.7546771E-02  0.1707553E+00
         21   -1    0    0  503  502  0.00000000000E+00  0.00000000000E+00  0.52478342459E+02  0.52478342459E+02  0.00000000000E+00 0. -1.
          1   -1    0    0  502    0 -0.00000000000E+00 -0.00000000000E+00 -0.10840688135E+02  0.10840688135E+02  0.00000000000E+00 0. -1.
         21    1    1    2  503  501  0.18234826802E+02  0.12380374507E+02  0.32920218828E+02  0.39617210769E+02  0.00000000000E+00 0. -1.
          1    1    1    2  501    0 -0.18234826802E+02 -0.12380374507E+02  0.87174354957E+01  0.23701819826E+02  0.00000000000E+00 0. -1.
<mgrwt>
<rscale>  2 0.22040476E+02</rscale>
<asrwt>0</asrwt>
<pdfrwt beam="1">  1       21 0.80735910E-02 0.22040476E+02</pdfrwt>
<pdfrwt beam="2">  1        1 0.16677982E-02 0.22040476E+02</pdfrwt>
<totfact> 0.60765252E+06</totfact>
</mgrwt>
</event>
<event>
 4    1  0.2185255E+006  0.2640865E+02  0.7546771E-02  0.1641556E+00
         -4   -1    0    0    0  501 -0.00000000000E+00  0.00000000000E+00  0.25872708929E+03  0.25872708929E+03  0.00000000000E+00 0. -1.
         21   -1    0    0  501  502  0.00000000000E+00 -0.00000000000E+00 -0.54851400056E+01  0.54851400056E+01  0.00000000000E+00 0. -1.
         21    1    1    2  503  502  0.20667411956E+02  0.16440041940E+02  0.32410819530E+02  0.41807632301E+02  0.00000000000E+00 0. -1.
         -4    1    1    2    0  503 -0.20667411956E+02 -0.16440041940E+02  0.22083112976E+03  0.22240459700E+03  0.00000000000E+00 0. -1.
<mgrwt>
<rscale>  2 0.26408652E+02</rscale>
<asrwt>0</asrwt>
<pdfrwt beam="2">  1       21 0.84386789E-03 0.26408652E+02</pdfrwt>
<pdfrwt beam="1">  1       -4 0.39804158E-01 0.26408652E+02</pdfrwt>
<totfact> 0.75285155E+05</totfact>
</mgrwt>
</event>
<event>
 4    1  0.2185255E+006  0.2536650E+02  0.7546771E-02  0.1655793E+00
          1   -1    0    0  503    0 -0.00000000000E+00  0.00000000000E+00  0.19257061574E+03  0.19257061574E+03  0.00000000000E+00 0.  1.
         21   -1    0    0  501  502  0.00000000000E+00 -0.00000000000E+00 -0.10414471160E+02  0.10414471160E+02  0.00000000000E+00 0.  1.
         21    1    1    2  503  502 -0.52882723573E+00 -0.25360986476E+02  0.74371279971E+01  0.26434261218E+02  0.00000000000E+00 0.  1.
          1    1    1    2  501    0  0.52882723573E+00  0.25360986476E+02  0.17471901659E+03  0.17655082569E+03  0.00000000000E+00 0.  1.
<mgrwt>
<rscale>  2 0.25366499E+02</rscale>
<asrwt>0</asrwt>
<pdfrwt beam="2">  1       21 0.16022265E-02 0.25366499E+02</pdfrwt>
<pdfrwt beam="1">  1        1 0.29626246E-01 0.25366499E+02</pdfrwt>
<totfact> 0.21591624E+06</totfact>
</mgrwt>
</event>
<event>
 4    1  0.2185255E+006  0.2738688E+02  0.7546771E-02  0.1628910E+00
         21   -1    0    0  501  502  0.00000000000E+00  0.00000000000E+00  0.80425021536E+01  0.80425021536E+01  0.00000000000E+00 0.  1.
         -2   -1    0    0    0  501 -0.00000000000E+00 -0.00000000000E+00 -0.22780749034E+03  0.22780749034E+03  0.00000000000E+00 0.  1.
         21    1    1    2  503  502  0.26541663976E+02  0.67513768764E+01 -0.19254948018E+02  0.33478262194E+02  0.00000000000E+00 0.  1.
         -2    1    1    2    0  503 -0.26541663976E+02 -0.67513768764E+01 -0.20051004017E+03  0.20237173030E+03  0.00000000000E+00 0.  1.
<mgrwt>
<rscale>  2 0.27386877E+02</rscale>
<asrwt>0</asrwt>
<pdfrwt beam="1">  1       21 0.12373080E-02 0.27386877E+02</pdfrwt>
<pdfrwt beam="2">  1       -2 0.35047307E-01 0.27386877E+02</pdfrwt>
<totfact> 0.12099272E+06</totfact>
</mgrwt>
</event>
<event>
 4    1  0.2185255E+006  0.2100815E+02  0.7546771E-02  0.1725992E+00
         21   -1    0    0  503  502  0.00000000000E+00  0.00000000000E+00  0.71727612705E+00  0.71727612705E+00  0.00000000000E+00 0.  1.
          2   -1    0    0  502    0 -0.00000000000E+00 -0.00000000000E+00 -0.69123780170E+03  0.69123780170E+03  0.00000000000E+00 0.  1.
         21    1    1    2  503  501 -0.70085399056E+01 -0.19804614707E+02 -0.23058925494E+03  0.23154426551E+03  0.00000000000E+00 0.  1.
          2    1    1    2  501    0  0.70085399056E+01  0.19804614707E+02 -0.45993127064E+03  0.46041081232E+03  0.00000000000E+00 0.  1.
<mgrwt>
<rscale>  2 0.21008151E+02</rscale>
<asrwt>0</asrwt>
<pdfrwt beam="1">  1       21 0.11035039E-03 0.21008151E+02</pdfrwt>
<pdfrwt beam="2">  1        2 0.10634407E+00 0.21008151E+02</pdfrwt>
<totfact> 0.37756448E+07</totfact>
</mgrwt>
</event>
<event>
 4    1  0.2185255E+006  0.3949663E+02  0.7546771E-02  0.1511949E+00
          2   -1    0    0  503    0 -0.00000000000E+00  0.00000000000E+00  0.20493180699E+04  0.20493180699E+04  0.00000000000E+00 0.  1.
         21   -1    0    0  501  502  0.00000000000E+00 -0.00000000000E+00 -0.96034114741E+00  0.96034114741E+00  0.00000000000E+00 0.  1.
         21    1    1    2  503  502 -0.19891375484E+02  0.34122088103E+02  0.55738213748E+03  0.55877976959E+03  0.00000000000E+00 0.  1.
          2    1    1    2  501    0  0.19891375484E+02 -0.34122088103E+02  0.14909755913E+04  0.14914986415E+04  0.00000000000E+00 0.  1.
<mgrwt>
<rscale>  2 0.39496629E+02</rscale>
<asrwt>0</asrwt>
<pdfrwt beam="2">  1       21 0.14774643E-03 0.39496629E+02</pdfrwt>
<pdfrwt beam="1">  1        2 0.31527620E+00 0.39496629E+02</pdfrwt>
<totfact> 0.56881589E+06</totfact>
</mgrwt>
</event>
<event>
 4    1  0.2185255E+006  0.3981947E+02  0.7546771E-02  0.1509544E+00
         21   -1    0    0  503  502  0.00000000000E+00  0.00000000000E+00  0.36503287515E+02  0.36503287515E+02  0.00000000000E+00 0. -1.
          3   -1    0    0  502    0 -0.00000000000E+00 -0.00000000000E+00 -0.30321657886E+03  0.30321657886E+03  0.00000000000E+00 0. -1.
         21    1    1    2  503  501 -0.39081047842E+02  0.76329375646E+01  0.23866708133E+02  0.46424237133E+02  0.00000000000E+00 0. -1.
          3    1    1    2  501    0  0.39081047842E+02 -0.76329375646E+01 -0.29057999947E+03  0.29329562924E+03  0.00000000000E+00 0. -1.
<mgrwt>
<rscale>  2 0.39819468E+02</rscale>
<asrwt>0</asrwt>
<pdfrwt beam="1">  1       21 0.56158907E-02 0.39819468E+02</pdfrwt>
<pdfrwt beam="2">  1        3 0.46648702E-01 0.39819468E+02</pdfrwt>
<totfact> 0.41202719E+04</totfact>
</mgrwt>
</event>
<event>
 4    1  0.2185255E+006  0.2708569E+02  0.7546771E-02  0.1632734E+00
         21   -1    0    0  501  502  0.00000000000E+00  0.00000000000E+00  0.29434569246E+01  0.29434569246E+01  0.00000000000E+00 0. -1.
          1   -1    0    0  503    0 -0.00000000000E+00 -0.00000000000E+00 -0.31379825884E+03  0.31379825884E+03  0.00000000000E+00 0. -1.
         21    1    1    2  503  502  0.65370256250E+01 -0.26285012189E+02 -0.83595478211E+02  0.87873992439E+02  0.00000000000E+00 0. -1.
          1    1    1    2  501    0 -0.65370256250E+01  0.26285012189E+02 -0.22725932370E+03  0.22886772333E+03  0.00000000000E+00 0. -1.
<mgrwt>
<rscale>  2 0.27085689E+02</rscale>
<asrwt>0</asrwt>
<pdfrwt beam="1">  1       21 0.45283956E-03 0.27085689E+02</pdfrwt>
<pdfrwt beam="2">  1        1 0.48276651E-01 0.27085689E+02</pdfrwt>
<totfact> 0.83012627E+06</totfact>
</mgrwt>
</event>
<event>
 4    1  0.2185255E+006  0.2284525E+02  0.7546771E-02  0.1694031E+00
         -4   -1    0    0    0  501 -0.00000000000E+00  0.00000000000E+00  0.91251276099E+03  0.91251276099E+03  0.00000000000E+00 0.  1.
         21   -1    0    0  501  502  0.00000000000E+00 -0.00000000000E+00 -0.63119967637E+01  0.63119967637E+01  0.00000000000E+00 0. -1.
         21    1    1    2  503  502 -0.62942499623E+01  0.21961051189E+02  0.14996313234E+02  0.27327545857E+02  0.00000000000E+00 0. -1.
         -4    1    1    2    0  503  0.62942499623E+01 -0.21961051189E+02  0.89120445099E+03  0.89149721190E+03  0.00000000000E+00 0.  1.
<mgrwt>
<rscale>  2 0.22845248E+02</rscale>
<asrwt>0</asrwt>
<pdfrwt beam="2">  1       21 0.97107715E-03 0.22845248E+02</pdfrwt>
<pdfrwt beam="1">  1       -4 0.14038647E+00 0.22845248E+02</pdfrwt>
<totfact> 0.41302024E+04</totfact>
</mgrwt>
</event>
<event>
 4    1  0.2185255E+006  0.2145492E+02  0.7546771E-02  0.1717853E+00
         21   -1    0    0  503  502  0.00000000000E+00  0.00000000000E+00  0.13379246800E+02  0.13379246800E+02  0.00000000000E+00 0. -1.
         -2   -1    0    0    0  501 -0.00000000000E+00 -0.00000000000E+00 -0.11622830539E+03  0.11622830539E+03  0.00000000000E+00 0. -1.
         21    1    1    2  503  501  0.16688892753E+02 -0.13483119503E+02  0.29484008224E+01  0.21656562983E+02  0.00000000000E+00 0. -1.
         -2    1    1    2    0  502 -0.16688892753E+02  0.13483119503E+02 -0.10579745941E+03  0.10795098921E+03  0.00000000000E+00 0. -1.
<mgrwt>
<rscale>  2 0.21454921E+02</rscale>
<asrwt>0</asrwt>
<pdfrwt beam="1">  1       21 0.20583456E-02 0.21454921E+02</pdfrwt>
<pdfrwt beam="2">  1       -2 0.17881278E-01 0.21454921E+02</pdfrwt>
<totfact> 0.16142014E+06</totfact>
</mgrwt>
</event>
<event>
 4    1  0.2185255E+006  0.3253344E+02  0.7546771E-02  0.1571663E+00
         21   -1    0    0  503  502  0.00000000000E+00  0.00000000000E+00  0.66575942985E+01  0.66575942985E+01  0.00000000000E+00 0.  1.
          2   -1    0    0  502    0 -0.00000000000E+00 -0.00000000000E+00 -0.56719486561E+03  0.56719486561E+03  0.00000000000E+00 0. -1.
         21    1    1    2  503  501  0.14102865427E+02 -0.29317804100E+02 -0.36852980706E+02  0.49158586609E+02  0.00000000000E+00 0.  1.
          2    1    1    2  501    0 -0.14102865427E+02  0.29317804100E+02 -0.52368429060E+03  0.52469387330E+03  0.00000000000E+00 0. -1.
<mgrwt>
<rscale>  2 0.32533436E+02</rscale>
<asrwt>0</asrwt>
<pdfrwt beam="1">  1       21 0.10242449E-02 0.32533436E+02</pdfrwt>
<pdfrwt beam="2">  1        2 0.87260782E-01 0.32533436E+02</pdfrwt>
<totfact> 0.19661862E+06</totfact>
</mgrwt>
</event>
<event>
 4    1  0.2185255E+006  0.2860449E+02  0.7546771E-02  0.1614047E+00
         -2   -1    0    0    0  501 -0.00000000000E+00  0.00000000000E+00  0.42111190886E+02  0.42111190886E+02  0.00000000000E+00 0.  1.
         21   -1    0    0  501  502  0.00000000000E+00 -0.00000000000E+00 -0.17512408387E+03  0.17512408387E+03  0.00000000000E+00 0.  1.
         21    1    1    2  503  502  0.12281059249E+02 -0.25833943210E+02 -0.16892144937E+03  0.17132621836E+03  0.00000000000E+00 0.  1.
         -2    1    1    2    0  503 -0.12281059249E+02  0.25833943210E+02  0.35908556386E+02  0.45909056402E+02  0.00000000000E+00 0.  1.
<mgrwt>
<rscale>  2 0.28604493E+02</rscale>
<asrwt>0</asrwt>
<pdfrwt beam="2">  1       21 0.26942166E-01 0.28604493E+02</pdfrwt>
<pdfrwt beam="1">  1       -2 0.64786448E-02 0.28604493E+02</pdfrwt>
<totfact> 0.11529046E+05</totfact>
</mgrwt>
</event>
<event>
 4    1  0.2185255E+006  0.3179475E+02  0.7546771E-02  0.1579057E+00
          2   -1    0    0  503    0 -0.00000000000E+00  0.00000000000E+00  0.12004250792E+04  0.12004250792E+04  0.00000000000E+00 0.  1.
         21   -1    0    0  501  502  0.00000000000E+00 -0.00000000000E+00 -0.52808776186E+02  0.52808776186E+02  0.00000000000E+00 0. -1.
         21    1    1    2  503  502 -0.11874653825E+02  0.29494044447E+02 -0.47792475082E+02  0.57402323435E+02  0.00000000000E+00 0. -1.
          2    1    1    2  501    0  0.11874653825E+02 -0.29494044447E+02  0.11954087781E+04  0.11958315319E+04  0.00000000000E+00 0.  1.
<mgrwt>
<rscale>  2 0.31794749E+02</rscale>
<asrwt>0</asrwt>
<pdfrwt beam="2">  1       21 0.81244280E-02 0.31794749E+02</pdfrwt>
<pdfrwt beam="1">  1        2 0.18468076E+00 0.31794749E+02</pdfrwt>
<totfact> 0.30576401E+04</totfact>
</mgrwt>
</event>
<event>
 4    1  0.2185255E+006  0.6895045E+02  0.7546771E-02  0.1363699E+00
          2   -1    0    0  503    0 -0.00000000000E+00  0.00000000000E+00  0.91644793140E+03  0.91644793140E+03  0.00000000000E+00 0. -1.
         21   -1    0    0  501  502  0.00000000000E+00 -0.00000000000E+00 -0.24904315485E+02  0.24904315485E+02  0.00000000000E+00 0. -1.
         21    1    1    2  503  502 -0.48415363676E+01  0.68780257972E+02  0.26976160741E+02  0.74039702926E+02  0.00000000000E+00 0. -1.
          2    1    1    2  501    0  0.48415363676E+01 -0.68780257972E+02  0.86456745518E+03  0.86731254396E+03  0.00000000000E+00 0. -1.
<mgrwt>
<rscale>  2 0.68950449E+02</rscale>
<asrwt>0</asrwt>
<pdfrwt beam="2">  1       21 0.38314339E-02 0.68950449E+02</pdfrwt>
<pdfrwt beam="1">  1        2 0.14099196E+00 0.68950449E+02</pdfrwt>
<totfact> 0.15413884E+05</totfact>
</mgrwt>
</event>
<event>
 4    1  0.2185255E+006  0.3341346E+02  0.7546771E-02  0.1563158E+00
         -1   -1    0    0    0  501 -0.00000000000E+00  0.00000000000E+00  0.13194062531E+03  0.13194062531E+03  0.00000000000E+00 0. -1.
         21   -1    0    0  501  502  0.00000000000E+00 -0.00000000000E+00 -0.27443730356E+02  0.27443730356E+02  0.00000000000E+00 0.  1.
         21    1    1    2  503  502  0.28168451249E+01 -0.33294509538E+02 -0.14028726507E+02  0.36238986592E+02  0.00000000000E+00 0.  1.
         -1    1    1    2    0  503 -0.28168451249E+01  0.33294509538E+02  0.11852562146E+03  0.12314536907E+03  0.00000000000E+00 0. -1.
<mgrwt>
<rscale>  2 0.33413455E+02</rscale>
<asrwt>0</asrwt>
<pdfrwt beam="2">  1       21 0.42221125E-02 0.33413455E+02</pdfrwt>
<pdfrwt beam="1">  1       -1 0.20298557E-01 0.33413455E+02</pdfrwt>
<totfact> 0.51750523E+05</totfact>
</mgrwt>
</event>
<event>
 4    1  0.2185255E+006  0.2075981E+02  0.7546771E-02  0.1730627E+00
          2   -1    0    0  502    0 -0.00000000000E+00  0.00000000000E+00  0.48126464108E+03  0.48126464108E+03  0.00000000000E+00 0. -1.
         21   -1    0    0  503  502  0.00000000000E+00 -0.00000000000E+00 -0.12785086388E+01  0.12785086388E+01  0.00000000000E+00 0. -1.
         21    1    1    2  503  501  0.93951757720E+01  0.18512170001E+02  0.10793594829E+03  0.10991423338E+03  0.00000000000E+00 0. -1.
          2    1    1    2  501    0 -0.93951757720E+01 -0.18512170001E+02  0.37205018415E+03  0.37262891634E+03  0.00000000000E+00 0. -1.
<mgrwt>
<rscale>  2 0.20759811E+02</rscale>
<asrwt>0</asrwt>
<pdfrwt beam="2">  1       21 0.19669402E-03 0.20759811E+02</pdfrwt>
<pdfrwt beam="1">  1        2 0.74040570E-01 0.20759811E+02</pdfrwt>
<totfact> 0.23910542E+07</totfact>
</mgrwt>
</event>
<event>
 4    1  0.2185255E+006  0.3255412E+02  0.7546771E-02  0.1571459E+00
         -4   -1    0    0    0  501 -0.00000000000E+00  0.00000000000E+00  0.36876975312E+01  0.36876975312E+01  0.00000000000E+00 0. -1.
         21   -1    0    0  503  502  0.00000000000E+00 -0.00000000000E+00 -0.13223645321E+04  0.13223645321E+04  0.00000000000E+00 0.  1.
         21    1    1    2  503  501 -0.17509545333E+02 -0.27444239820E+02 -0.12459112845E+04  0.12463365112E+04  0.00000000000E+00 0.  1.
         -4    1    1    2    0  502  0.17509545333E+02  0.27444239820E+02 -0.72765550053E+02  0.79715718347E+02  0.00000000000E+00 0. -1.
<mgrwt>
<rscale>  2 0.32554116E+02</rscale>
<asrwt>0</asrwt>
<pdfrwt beam="2">  1       21 0.20344105E+00 0.32554116E+02</pdfrwt>
<pdfrwt beam="1">  1       -4 0.56733710E-03 0.32554116E+02</pdfrwt>
<totfact> 0.32217081E+04</totfact>
</mgrwt>
</event>
<event>
 4    1  0.2185255E+006  0.2018360E+02  0.7546771E-02  0.1741701E+00
         21   -1    0    0  503  502  0.00000000000E+00  0.00000000000E+00  0.25553517278E+01  0.25553517278E+01  0.00000000000E+00 0.  1.
         -4   -1    0    0    0  501 -0.00000000000E+00 -0.00000000000E+00 -0.24709481079E+03  0.24709481079E+03  0.00000000000E+00 0. -1.
         21    1    1    2  503  501  0.19806347384E+02  0.38841000817E+01 -0.47915768020E+02  0.51993253939E+02  0.00000000000E+00 0.  1.
         -4    1    1    2    0  502 -0.19806347384E+02 -0.38841000817E+01 -0.19662369104E+03  0.19765690858E+03  0.00000000000E+00 0. -1.
<mgrwt>
<rscale>  2 0.20183598E+02</rscale>
<asrwt>0</asrwt>
<pdfrwt beam="1">  1       21 0.39313098E-03 0.20183598E+02</pdfrwt>
<pdfrwt beam="2">  1       -4 0.38014592E-01 0.20183598E+02</pdfrwt>
<totfact> 0.22607771E+06</totfact>
</mgrwt>
</event>
<event>
 4    1  0.2185255E+006  0.2187708E+02  0.7546771E-02  0.1710387E+00
         -2   -1    0    0    0  501 -0.00000000000E+00  0.00000000000E+00  0.82430325701E+03  0.82430325701E+03  0.00000000000E+00 0. -1.
         21   -1    0    0  503  502  0.00000000000E+00 -0.00000000000E+00 -0.80787809581E+00  0.80787809581E+00  0.00000000000E+00 0. -1.
         21    1    1    2  503  501  0.12704492939E+02 -0.17810177339E+02  0.19293642263E+03  0.19417278320E+03  0.00000000000E+00 0. -1.
         -2    1    1    2    0  502 -0.12704492939E+02  0.17810177339E+02  0.63055895628E+03  0.63093835191E+03  0.00000000000E+00 0. -1.
<mgrwt>
<rscale>  2 0.21877078E+02</rscale>
<asrwt>0</asrwt>
<pdfrwt beam="2">  1       21 0.12428960E-03 0.21877078E+02</pdfrwt>
<pdfrwt beam="1">  1       -2 0.12681521E+00 0.21877078E+02</pdfrwt>
<totfact> 0.24352835E+06</totfact>
</mgrwt>
</event>
<event>
 4    1  0.2185255E+006  0.2055708E+02  0.7546771E-02  0.1734472E+00
          2   -1    0    0  503    0 -0.00000000000E+00  0.00000000000E+00  0.51995077026E+02  0.51995077026E+02  0.00000000000E+00 0.  1.
         21   -1    0    0  501  502  0.00000000000E+00 -0.00000000000E+00 -0.84947230373E+01  0.84947230373E+01  0.00000000000E+00 0. -1.
         21    1    1    2  503  502  0.19290086799E+02  0.71053470313E+01  0.15462305737E+02  0.25723069487E+02  0.00000000000E+00 0. -1.
          2    1    1    2  501    0 -0.19290086799E+02 -0.71053470313E+01  0.28038048252E+02  0.34766730576E+02  0.00000000000E+00 0.  1.
<mgrwt>
<rscale>  2 0.20557077E+02</rscale>
<asrwt>0</asrwt>
<pdfrwt beam="2">  1       21 0.13068805E-02 0.20557077E+02</pdfrwt>
<pdfrwt beam="1">  1        2 0.79992424E-02 0.20557077E+02</pdfrwt>
<totfact> 0.15109421E+07</totfact>
</mgrwt>
</event>
<event>
 4    1  0.2185255E+006  0.2056938E+02  0.7546771E-02  0.1734237E+00
         -1   -1    0    0    0  501 -0.00000000000E+00  0.00000000000E+00  0.83141504382E+01  0.83141504382E+01  0.00000000000E+00 0. -1.
         21   -1    0    0  503  502  0.00000000000E+00 -0.00000000000E+00 -0.11080819282E+03  0.11080819282E+03  0.00000000000E+00 0. -1.
         21    1    1    2  503  501  0.11587942124E+02  0.16994677466E+02 -0.95045596535E+02  0.97245899068E+02  0.00000000000E+00 0. -1.
         -1    1    1    2    0  502 -0.11587942124E+02 -0.16994677466E+02 -0.74484458455E+01  0.21876444189E+02  0.00000000000E+00 0. -1.
<mgrwt>
<rscale>  2 0.20569382E+02</rscale>
<asrwt>0</asrwt>
<pdfrwt beam="2">  1       21 0.17047413E-01 0.20569382E+02</pdfrwt>
<pdfrwt beam="1">  1       -1 0.12791002E-02 0.20569382E+02</pdfrwt>
<totfact> 0.23371024E+06</totfact>
</mgrwt>
</event>
<event>
 4    1  0.2185255E+006  0.2472223E+02  0.7546771E-02  0.1665024E+00
          4   -1    0    0  502    0 -0.00000000000E+00  0.00000000000E+00  0.22528769830E+02  0.22528769830E+02  0.00000000000E+00 0.  1.
         21   -1    0    0  503  502  0.00000000000E+00 -0.00000000000E+00 -0.66237976997E+02  0.66237976997E+02  0.00000000000E+00 0.  1.
         21    1    1    2  503  501  0.24708066430E+02 -0.83672521714E+00 -0.55958469447E+02  0.61176294090E+02  0.00000000000E+00 0.  1.
          4    1    1    2  501    0 -0.24708066430E+02  0.83672521714E+00  0.12249262280E+02  0.27590452736E+02  0.00000000000E+00 0.  1.
<mgrwt>
<rscale>  2 0.24722230E+02</rscale>
<asrwt>0</asrwt>
<pdfrwt beam="2">  1       21 0.10190458E-01 0.24722230E+02</pdfrwt>
<pdfrwt beam="1">  1        4 0.34659647E-02 0.24722230E+02</pdfrwt>
<totfact> 0.83844623E+05</totfact>
</mgrwt>
</event>
<event>
 4    1  0.2185255E+006  0.2881333E+02  0.7546771E-02  0.1611589E+00
         21   -1    0    0  501  502  0.00000000000E+00  0.00000000000E+00  0.11147091297E+01  0.11147091297E+01  0.00000000000E+00 0.  1.
          2   -1    0    0  503    0 -0.00000000000E+00 -0.00000000000E+00 -0.18164693374E+04  0.18164693374E+04  0.00000000000E+00 0. -1.
         21    1    1    2  503  502  0.19452725362E+02  0.21255577539E+02 -0.20962844437E+03  0.21159936859E+03  0.00000000000E+00 0.  1.
          2    1    1    2  501    0 -0.19452725362E+02 -0.21255577539E+02 -0.16057261839E+04  0.16059846779E+04  0.00000000000E+00 0. -1.
<mgrwt>
<rscale>  2 0.28813332E+02</rscale>
<asrwt>0</asrwt>
<pdfrwt beam="1">  1       21 0.17149395E-03 0.28813332E+02</pdfrwt>
<pdfrwt beam="2">  1        2 0.27945643E+00 0.28813332E+02</pdfrwt>
<totfact> 0.56337775E+06</totfact>
</mgrwt>
</event>
<event>
 4    1  0.2185255E+006  0.2243349E+02  0.7546771E-02  0.1700861E+00
          1   -1    0    0  502    0 -0.00000000000E+00  0.00000000000E+00  0.43593375729E+03  0.43593375729E+03  0.00000000000E+00 0.  1.
         21   -1    0    0  503  502  0.00000000000E+00 -0.00000000000E+00 -0.37709244724E+01  0.37709244724E+01  0.00000000000E+00 0.  1.
         21    1    1    2  503  501  0.11354755289E+02  0.19347631131E+02  0.32948719831E+02  0.39860750577E+02  0.00000000000E+00 0.  1.
          1    1    1    2  501    0 -0.11354755289E+02 -0.19347631131E+02  0.39921411298E+03  0.39984393118E+03  0.00000000000E+00 0.  1.
<mgrwt>
<rscale>  2 0.22433486E+02</rscale>
<asrwt>0</asrwt>
<pdfrwt beam="2">  1       21 0.58014257E-03 0.22433486E+02</pdfrwt>
<pdfrwt beam="1">  1        1 0.67066692E-01 0.22433486E+02</pdfrwt>
<totfact> 0.37394359E+06</totfact>
</mgrwt>
</event>
<event>
 4    1  0.2185255E+006  0.3550139E+02  0.7546771E-02  0.1544193E+00
         21   -1    0    0  503  502  0.00000000000E+00  0.00000000000E+00  0.29590156957E+02  0.29590156957E+02  0.00000000000E+00 0.  1.
          2   -1    0    0  502    0 -0.00000000000E+00 -0.00000000000E+00 -0.16303643642E+03  0.16303643642E+03  0.00000000000E+00 0. -1.
         21    1    1    2  503  501  0.29260656334E+02 -0.20103800636E+02  0.16058600343E+02  0.38964438326E+02  0.00000000000E+00 0.  1.
          2    1    1    2  501    0 -0.29260656334E+02  0.20103800636E+02 -0.14950487981E+03  0.15366215505E+03  0.00000000000E+00 0. -1.
<mgrwt>
<rscale>  2 0.35501392E+02</rscale>
<asrwt>0</asrwt>
<pdfrwt beam="1">  1       21 0.45523319E-02 0.35501392E+02</pdfrwt>
<pdfrwt beam="2">  1        2 0.25082528E-01 0.35501392E+02</pdfrwt>
<totfact> 0.69220587E+05</totfact>
</mgrwt>
</event>
<event>
 4    1  0.2185255E+006  0.2598966E+02  0.7546771E-02  0.1647181E+00
         21   -1    0    0  503  502  0.00000000000E+00  0.00000000000E+00  0.16456394845E+01  0.16456394845E+01  0.00000000000E+00 0. -1.
          2   -1    0    0  502    0 -0.00000000000E+00 -0.00000000000E+00 -0.99149899344E+03  0.99149899344E+03  0.00000000000E+00 0.  1.
         21    1    1    2  503  501 -0.23243671949E+02  0.11627305697E+02 -0.11478934943E+03  0.11769476312E+03  0.00000000000E+00 0. -1.
          2    1    1    2  501    0  0.23243671949E+02 -0.11627305697E+02 -0.87506400453E+03  0.87544986981E+03  0.00000000000E+00 0.  1.
<mgrwt>
<rscale>  2 0.25989662E+02</rscale>
<asrwt>0</asrwt>
<pdfrwt beam="1">  1       21 0.25317571E-03 0.25989662E+02</pdfrwt>
<pdfrwt beam="2">  1        2 0.15253806E+00 0.25989662E+02</pdfrwt>
<totfact> 0.79822722E+06</totfact>
</mgrwt>
</event>
<event>
 4    1  0.2185255E+006  0.2111911E+02  0.7546771E-02  0.1723947E+00
         21   -1    0    0  503  502  0.00000000000E+00  0.00000000000E+00  0.23874744377E+02  0.23874744377E+02  0.00000000000E+00 0. -1.
          1   -1    0    0  502    0 -0.00000000000E+00 -0.00000000000E+00 -0.29401336316E+02  0.29401336316E+02  0.00000000000E+00 0. -1.
         21    1    1    2  503  501  0.26742165827E+01  0.20949116646E+02  0.13321370623E+02  0.24969498149E+02  0.00000000000E+00 0. -1.
          1    1    1    2  501    0 -0.26742165827E+01 -0.20949116646E+02 -0.18847962562E+02  0.28306582544E+02  0.00000000000E+00 0. -1.
<mgrwt>
<rscale>  2 0.21119113E+02</rscale>
<asrwt>0</asrwt>
<pdfrwt beam="1">  1       21 0.36730376E-02 0.21119113E+02</pdfrwt>
<pdfrwt beam="2">  1        1 0.45232825E-02 0.21119113E+02</pdfrwt>
<totfact> 0.57647041E+06</totfact>
</mgrwt>
</event>
<event>
 4    1  0.2185255E+006  0.2006575E+02  0.7546771E-02  0.1744024E+00
         -4   -1    0    0    0  501 -0.00000000000E+00  0.00000000000E+00  0.96772214535E+02  0.96772214535E+02  0.00000000000E+00 0.  1.
         21   -1    0    0  501  502  0.00000000000E+00 -0.00000000000E+00 -0.58803597067E+01  0.58803597067E+01  0.00000000000E+00 0. -1.
         21    1    1    2  503  502 -0.13146116546E+02 -0.15159618911E+02  0.17689303989E+02  0.26749689743E+02  0.00000000000E+00 0. -1.
         -4    1    1    2    0  503  0.13146116546E+02  0.15159618911E+02  0.73202550839E+02  0.75902884498E+02  0.00000000000E+00 0.  1.
<mgrwt>
<rscale>  2 0.20065753E+02</rscale>
<asrwt>0</asrwt>
<pdfrwt beam="2">  1       21 0.90467079E-03 0.20065753E+02</pdfrwt>
<pdfrwt beam="1">  1       -4 0.14888032E-01 0.20065753E+02</pdfrwt>
<totfact> 0.33957471E+06</totfact>
</mgrwt>
</event>
<event>
 4    1  0.2185255E+006  0.2386081E+02  0.7546771E-02  0.1677925E+00
         21   -1    0    0  503  502  0.00000000000E+00  0.00000000000E+00  0.45745453914E+00  0.45745453914E+00  0.00000000000E+00 0.  1.
          2   -1    0    0  502    0 -0.00000000000E+00 -0.00000000000E+00 -0.19568486057E+04  0.19568486057E+04  0.00000000000E+00 0.  1.
         21    1    1    2  503  501 -0.23850467901E+02 -0.70248609645E+00 -0.38776023765E+03  0.38849368104E+03  0.00000000000E+00 0.  1.
          2    1    1    2  501    0  0.23850467901E+02  0.70248609645E+00 -0.15686309135E+04  0.15688123792E+04  0.00000000000E+00 0.  1.
<mgrwt>
<rscale>  2 0.23860811E+02</rscale>
<asrwt>0</asrwt>
<pdfrwt beam="1">  1       21 0.70377147E-04 0.23860811E+02</pdfrwt>
<pdfrwt beam="2">  1        2 0.30105566E+00 0.23860811E+02</pdfrwt>
<totfact> 0.16720935E+07</totfact>
</mgrwt>
</event>
<event>
 4    1  0.2185255E+006  0.2140752E+02  0.7546771E-02  0.1718705E+00
         21   -1    0    0  501  502  0.00000000000E+00  0.00000000000E+00  0.83637229106E+00  0.83637229106E+00  0.00000000000E+00 0. -1.
          2   -1    0    0  503    0 -0.00000000000E+00 -0.00000000000E+00 -0.13444982900E+04  0.13444982900E+04  0.00000000000E+00 0.  1.
         21    1    1    2  503  502  0.21732153381E+01 -0.21296927059E+02 -0.15407042147E+03  0.15555056007E+03  0.00000000000E+00 0. -1.
          2    1    1    2  501    0 -0.21732153381E+01  0.21296927059E+02 -0.11895914963E+04  0.11897841022E+04  0.00000000000E+00 0.  1.
<mgrwt>
<rscale>  2 0.21407521E+02</rscale>
<asrwt>0</asrwt>
<pdfrwt beam="1">  1       21 0.12867243E-03 0.21407521E+02</pdfrwt>
<pdfrwt beam="2">  1        2 0.20684626E+00 0.21407521E+02</pdfrwt>
<totfact> 0.13370022E+07</totfact>
</mgrwt>
</event>
<event>
 4    1  0.2185255E+006  0.3428348E+02  0.7546771E-02  0.1555057E+00
         21   -1    0    0  501  502  0.00000000000E+00  0.00000000000E+00  0.36597598080E+01  0.36597598080E+01  0.00000000000E+00 0.  1.
          2   -1    0    0  503    0 -0.00000000000E+00 -0.00000000000E+00 -0.79227647348E+03  0.79227647348E+03  0.00000000000E+00 0. -1.
         21    1    1    2  503  502 -0.19713122934E+02  0.28049063927E+02 -0.87423497137E+02  0.93905404821E+02  0.00000000000E+00 0.  1.
          2    1    1    2  501    0  0.19713122934E+02 -0.28049063927E+02 -0.70119321654E+03  0.70203082847E+03  0.00000000000E+00 0. -1.
<mgrwt>
<rscale>  2 0.34283483E+02</rscale>
<asrwt>0</asrwt>
<pdfrwt beam="1">  1       21 0.56303996E-03 0.34283483E+02</pdfrwt>
<pdfrwt beam="2">  1        2 0.12188869E+00 0.34283483E+02</pdfrwt>
<totfact> 0.33921190E+06</totfact>
</mgrwt>
</event>
<event>
 4    1  0.2185255E+006  0.2881751E+02  0.7546771E-02  0.1611540E+00
         21   -1    0    0  501  502  0.00000000000E+00  0.00000000000E+00  0.66433789353E+02  0.66433789353E+02  0.00000000000E+00 0. -1.
         -2   -1    0    0    0  501 -0.00000000000E+00 -0.00000000000E+00 -0.94996494221E+02  0.94996494221E+02  0.00000000000E+00 0.  1.
         21    1    1    2  503  502 -0.28812065712E+02 -0.56018895595E+00  0.60935978489E+02  0.67406545800E+02  0.00000000000E+00 0. -1.
         -2    1    1    2    0  503  0.28812065712E+02  0.56018895595E+00 -0.89498683357E+02  0.94023737774E+02  0.00000000000E+00 0.  1.
<mgrwt>
<rscale>  2 0.28817511E+02</rscale>
<asrwt>0</asrwt>
<pdfrwt beam="1">  1       21 0.10220583E-01 0.28817511E+02</pdfrwt>
<pdfrwt beam="2">  1       -2 0.14614845E-01 0.28817511E+02</pdfrwt>
<totfact> 0.18309658E+05</totfact>
</mgrwt>
</event>
<event>
 4    1  0.2185255E+006  0.2057080E+02  0.7546771E-02  0.1734210E+00
         21   -1    0    0  501  502  0.00000000000E+00  0.00000000000E+00  0.55315936048E+01  0.55315936048E+01  0.00000000000E+00 0. -1.
          1   -1    0    0  503    0 -0.00000000000E+00 -0.00000000000E+00 -0.26306259455E+03  0.26306259455E+03  0.00000000000E+00 0.  1.
         21    1    1    2  503  502 -0.18639295631E+02 -0.87025486148E+01 -0.15668446650E+02  0.25858420571E+02  0.00000000000E+00 0. -1.
          1    1    1    2  501    0  0.18639295631E+02  0.87025486148E+01 -0.24186255429E+03  0.24273576758E+03  0.00000000000E+00 0.  1.
<mgrwt>
<rscale>  2 0.20570797E+02</rscale>
<asrwt>0</asrwt>
<pdfrwt beam="1">  1       21 0.85101449E-03 0.20570797E+02</pdfrwt>
<pdfrwt beam="2">  1        1 0.40471164E-01 0.20570797E+02</pdfrwt>
<totfact> 0.37143211E+06</totfact>
</mgrwt>
</event>
<event>
 4    1  0.2185255E+006  0.2379500E+02  0.7546771E-02  0.1678938E+00
         21   -1    0    0  503  502  0.00000000000E+00  0.00000000000E+00  0.30139696930E+03  0.30139696930E+03  0.00000000000E+00 0. -1.
         -2   -1    0    0    0  501 -0.00000000000E+00 -0.00000000000E+00 -0.31354022160E+01  0.31354022160E+01  0.00000000000E+00 0.  1.
         21    1    1    2  503  501  0.21489001660E+02 -0.10218837858E+02  0.24553404888E+03  0.24668435500E+03  0.00000000000E+00 0. -1.
         -2    1    1    2    0  502 -0.21489001660E+02  0.10218837858E+02  0.52727518198E+02  0.57848016516E+02  0.00000000000E+00 0.  1.
<mgrwt>
<rscale>  2 0.23794996E+02</rscale>
<asrwt>0</asrwt>
<pdfrwt beam="1">  1       21 0.46368742E-01 0.23794996E+02</pdfrwt>
<pdfrwt beam="2">  1       -2 0.48236981E-03 0.23794996E+02</pdfrwt>
<totfact> 0.14659428E+06</totfact>
</mgrwt>
</event>
<event>
 4    1  0.2185255E+006  0.2231120E+02  0.7546771E-02  0.1702925E+00
         21   -1    0    0  501  502  0.00000000000E+00  0.00000000000E+00  0.88307445398E+02  0.88307445398E+02  0.00000000000E+00 0. -1.
          2   -1    0    0  503    0 -0.00000000000E+00 -0.00000000000E+00 -0.11152292436E+02  0.11152292436E+02  0.00000000000E+00 0. -1.
         21    1    1    2  503  502  0.22000713639E+02 -0.37091869371E+01  0.73549485080E+02  0.76859067285E+02  0.00000000000E+00 0. -1.
          2    1    1    2  501    0 -0.22000713639E+02  0.37091869371E+01  0.36056678826E+01  0.22600670549E+02  0.00000000000E+00 0. -1.
<mgrwt>
<rscale>  2 0.22311196E+02</rscale>
<asrwt>0</asrwt>
<pdfrwt beam="1">  1       21 0.13585760E-01 0.22311196E+02</pdfrwt>
<pdfrwt beam="2">  1        2 0.17157374E-02 0.22311196E+02</pdfrwt>
<totfact> 0.25607912E+06</totfact>
</mgrwt>
</event>
<event>
 4    1  0.2185255E+006  0.2543972E+02  0.7546771E-02  0.1654765E+00
          2   -1    0    0  503    0 -0.00000000000E+00  0.00000000000E+00  0.18783188664E+03  0.18783188664E+03  0.00000000000E+00 0. -1.
         21   -1    0    0  501  502  0.00000000000E+00 -0.00000000000E+00 -0.13530312698E+02  0.13530312698E+02  0.00000000000E+00 0. -1.
         21    1    1    2  503  502 -0.22537193160E+02 -0.11800608139E+02  0.22924592892E+00  0.25440754346E+02  0.00000000000E+00 0. -1.
          2    1    1    2  501    0  0.22537193160E+02  0.11800608139E+02  0.17407232801E+03  0.17592144499E+03  0.00000000000E+00 0. -1.
<mgrwt>
<rscale>  2 0.25439721E+02</rscale>
<asrwt>0</asrwt>
<pdfrwt beam="2">  1       21 0.20815867E-02 0.25439721E+02</pdfrwt>
<pdfrwt beam="1">  1        2 0.28897211E-01 0.25439721E+02</pdfrwt>
<totfact> 0.19286520E+06</totfact>
</mgrwt>
</event>
<event>
 4    1  0.2185255E+006  0.2058224E+02  0.7546771E-02  0.1733991E+00
         21   -1    0    0  501  502  0.00000000000E+00  0.00000000000E+00  0.13530853850E+03  0.13530853850E+03  0.00000000000E+00 0. -1.
         -4   -1    0    0    0  501 -0.00000000000E+00 -0.00000000000E+00 -0.40811157033E+02  0.40811157033E+02  0.00000000000E+00 0. -1.
         21    1    1    2  503  502  0.13853968096E+02  0.15221566093E+02  0.13186338471E+03  0.13346003421E+03  0.00000000000E+00 0. -1.
         -4    1    1    2    0  503 -0.13853968096E+02 -0.15221566093E+02 -0.37366003236E+02  0.42659661322E+02  0.00000000000E+00 0. -1.
<mgrwt>
<rscale>  2 0.20582238E+02</rscale>
<asrwt>0</asrwt>
<pdfrwt beam="1">  1       21 0.20816698E-01 0.20582238E+02</pdfrwt>
<pdfrwt beam="2">  1       -4 0.62786396E-02 0.20582238E+02</pdfrwt>
<totfact> 0.94021731E+04</totfact>
</mgrwt>
</event>
<event>
 4    1  0.2185255E+006  0.2447704E+02  0.7546771E-02  0.1668629E+00
          2   -1    0    0  503    0 -0.00000000000E+00  0.00000000000E+00  0.10526884369E+04  0.10526884369E+04  0.00000000000E+00 0. -1.
         21   -1    0    0  501  502  0.00000000000E+00 -0.00000000000E+00 -0.22266442846E+01  0.22266442846E+01  0.00000000000E+00 0. -1.
         21    1    1    2  503  502 -0.22842658503E+02  0.87942372144E+01  0.70148963933E+02  0.74296721304E+02  0.00000000000E+00 0. -1.
          2    1    1    2  501    0  0.22842658503E+02 -0.87942372144E+01  0.98031282864E+03  0.98061835984E+03  0.00000000000E+00 0. -1.
<mgrwt>
<rscale>  2 0.24477043E+02</rscale>
<asrwt>0</asrwt>
<pdfrwt beam="2">  1       21 0.34256150E-03 0.24477043E+02</pdfrwt>
<pdfrwt beam="1">  1        2 0.16195167E+00 0.24477043E+02</pdfrwt>
<totfact> 0.46950599E+06</totfact>
</mgrwt>
</event>
<event>
 4    1  0.2185255E+006  0.2213239E+02  0.7546771E-02  0.1705972E+00
         21   -1    0    0  503  502  0.00000000000E+00  0.00000000000E+00  0.43400045303E+02  0.43400045303E+02  0.00000000000E+00 0.  1.
         -3   -1    0    0    0  501 -0.00000000000E+00 -0.00000000000E+00 -0.15484721319E+02  0.15484721319E+02  0.00000000000E+00 0.  1.
         21    1    1    2  503  501  0.20733955777E+02  0.77424638925E+01  0.29287738662E+02  0.36709866592E+02  0.00000000000E+00 0.  1.
         -3    1    1    2    0  502 -0.20733955777E+02 -0.77424638925E+01 -0.13724146782E+01  0.22174900030E+02  0.00000000000E+00 0.  1.
<mgrwt>
<rscale>  2 0.22132390E+02</rscale>
<asrwt>0</asrwt>
<pdfrwt beam="1">  1       21 0.66769300E-02 0.22132390E+02</pdfrwt>
<pdfrwt beam="2">  1       -3 0.23822648E-02 0.22132390E+02</pdfrwt>
<totfact> 0.32844587E+06</totfact>
</mgrwt>
</event>
<event>
 4    1  0.2185255E+006  0.5672612E+02  0.7546771E-02  0.1412108E+00
         -1   -1    0    0    0  501 -0.00000000000E+00  0.00000000000E+00  0.26139826327E+02  0.26139826327E+02  0.00000000000E+00 0.  1.
         21   -1    0    0  501  502  0.00000000000E+00 -0.00000000000E+00 -0.26587262862E+03  0.26587262862E+03  0.00000000000E+00 0.  1.
         21    1    1    2  503  502 -0.33593764559E+02  0.45708983862E+02 -0.22685924683E+03  0.23384390113E+03  0.00000000000E+00 0.  1.
         -1    1    1    2    0  503  0.33593764559E+02 -0.45708983862E+02 -0.12873555462E+02  0.58168553817E+02  0.00000000000E+00 0.  1.
<mgrwt>
<rscale>  2 0.56726116E+02</rscale>
<asrwt>0</asrwt>
<pdfrwt beam="2">  1       21 0.40903479E-01 0.56726116E+02</pdfrwt>
<pdfrwt beam="1">  1       -1 0.40215120E-02 0.56726116E+02</pdfrwt>
<totfact> 0.11483525E+05</totfact>
</mgrwt>
</event>
<event>
 4    1  0.2185255E+006  0.2078113E+02  0.7546771E-02  0.1730226E+00
          2   -1    0    0  502    0 -0.00000000000E+00  0.00000000000E+00  0.38753619789E+03  0.38753619789E+03  0.00000000000E+00 0.  1.
         21   -1    0    0  503  502  0.00000000000E+00 -0.00000000000E+00 -0.16722741884E+01  0.16722741884E+01  0.00000000000E+00 0.  1.
         21    1    1    2  503  501 -0.15153534450E+02  0.14220610635E+02  0.80527976058E+02  0.83166160794E+02  0.00000000000E+00 0.  1.
          2    1    1    2  501    0  0.15153534450E+02 -0.14220610635E+02  0.30533594765E+03  0.30604231129E+03  0.00000000000E+00 0.  1.
<mgrwt>
<rscale>  2 0.20781130E+02</rscale>
<asrwt>0</asrwt>
<pdfrwt beam="2">  1       21 0.25727326E-03 0.20781130E+02</pdfrwt>
<pdfrwt beam="1">  1        2 0.59620882E-01 0.20781130E+02</pdfrwt>
<totfact> 0.20116140E+07</totfact>
</mgrwt>
</event>
<event>
 4    1  0.2185255E+006  0.2414931E+02  0.7546771E-02  0.1673530E+00
         21   -1    0    0  503  502  0.00000000000E+00  0.00000000000E+00  0.61264488096E+01  0.61264488096E+01  0.00000000000E+00 0.  1.
          1   -1    0    0  502    0 -0.00000000000E+00 -0.00000000000E+00 -0.57636660446E+03  0.57636660446E+03  0.00000000000E+00 0.  1.
         21    1    1    2  503  501  0.23268438279E+02  0.64629076962E+01 -0.19009177867E+02  0.30733340837E+02  0.00000000000E+00 0.  1.
          1    1    1    2  501    0 -0.23268438279E+02 -0.64629076962E+01 -0.55123097778E+03  0.55175971243E+03  0.00000000000E+00 0.  1.
<mgrwt>
<rscale>  2 0.24149315E+02</rscale>
<asrwt>0</asrwt>
<pdfrwt beam="1">  1       21 0.94253032E-03 0.24149315E+02</pdfrwt>
<pdfrwt beam="2">  1        1 0.88671810E-01 0.24149315E+02</pdfrwt>
<totfact> 0.13158961E+06</totfact>
</mgrwt>
</event>
<event>
 4    1  0.2185255E+006  0.2666389E+02  0.7546771E-02  0.1638192E+00
          2   -1    0    0  502    0 -0.00000000000E+00  0.00000000000E+00  0.92489393940E+01  0.92489393940E+01  0.00000000000E+00 0. -1.
         21   -1    0    0  503  502  0.00000000000E+00 -0.00000000000E+00 -0.14741921363E+03  0.14741921363E+03  0.00000000000E+00 0.  1.
         21    1    1    2  503  501 -0.26433753321E+02 -0.34956480140E+01 -0.12327534331E+03  0.12612602086E+03  0.00000000000E+00 0.  1.
          2    1    1    2  501    0  0.26433753321E+02  0.34956480140E+01 -0.14894930921E+02  0.30542132159E+02  0.00000000000E+00 0. -1.
<mgrwt>
<rscale>  2 0.26663887E+02</rscale>
<asrwt>0</asrwt>
<pdfrwt beam="2">  1       21 0.22679876E-01 0.26663887E+02</pdfrwt>
<pdfrwt beam="1">  1        2 0.14229139E-02 0.26663887E+02</pdfrwt>
<totfact> 0.14023976E+06</totfact>
</mgrwt>
</event>
<event>
 4    1  0.2185255E+006  0.3206914E+02  0.7546771E-02  0.1576282E+00
          1   -1    0    0  502    0 -0.00000000000E+00  0.00000000000E+00  0.16997374243E+04  0.16997374243E+04  0.00000000000E+00 0.  1.
         21   -1    0    0  503  502  0.00000000000E+00 -0.00000000000E+00 -0.31184731496E+03  0.31184731496E+03  0.00000000000E+00 0. -1.
         21    1    1    2  503  501 -0.40071936241E+01  0.31817796159E+02 -0.31087111241E+03  0.31252084456E+03  0.00000000000E+00 0. -1.
          1    1    1    2  501    0  0.40071936241E+01 -0.31817796159E+02  0.16987612218E+04  0.16990638947E+04  0.00000000000E+00 0.  1.
<mgrwt>
<rscale>  2 0.32069140E+02</rscale>
<asrwt>0</asrwt>
<pdfrwt beam="2">  1       21 0.47976511E-01 0.32069140E+02</pdfrwt>
<pdfrwt beam="1">  1        1 0.26149806E+00 0.32069140E+02</pdfrwt>
<totfact> 0.33239976E+02</totfact>
</mgrwt>
</event>
<event>
 4    1  0.2185255E+006  0.2199579E+02  0.7546771E-02  0.1708325E+00
         21   -1    0    0  501  502  0.00000000000E+00  0.00000000000E+00  0.44095089286E+03  0.44095089286E+03  0.00000000000E+00 0. -1.
          1   -1    0    0  503    0 -0.00000000000E+00 -0.00000000000E+00 -0.87376989288E+01  0.87376989288E+01  0.00000000000E+00 0. -1.
         21    1    1    2  503  502  0.20100784417E+02  0.89315788126E+01  0.42636045915E+03  0.42692745960E+03  0.00000000000E+00 0. -1.
          1    1    1    2  501    0 -0.20100784417E+02 -0.89315788126E+01  0.58527347869E+01  0.22761132194E+02  0.00000000000E+00 0. -1.
<mgrwt>
<rscale>  2 0.21995787E+02</rscale>
<asrwt>0</asrwt>
<pdfrwt beam="1">  1       21 0.67838582E-01 0.21995787E+02</pdfrwt>
<pdfrwt beam="2">  1        1 0.13442617E-02 0.21995787E+02</pdfrwt>
<totfact> 0.17883780E+05</totfact>
</mgrwt>
</event>
<event>
 4    1  0.2185255E+006  0.3383060E+02  0.7546771E-02  0.1559237E+00
          2   -1    0    0  503    0 -0.00000000000E+00  0.00000000000E+00  0.18204487394E+04  0.18204487394E+04  0.00000000000E+00 0.  1.
         21   -1    0    0  501  502  0.00000000000E+00 -0.00000000000E+00 -0.25372558882E+02  0.25372558882E+02  0.00000000000E+00 0. -1.
         21    1    1    2  503  502  0.20248735697E+02 -0.27101628009E+02 -0.13866621551E+02  0.36562176239E+02  0.00000000000E+00 0. -1.
          2    1    1    2  501    0 -0.20248735697E+02  0.27101628009E+02  0.18089428021E+04  0.18092591220E+04  0.00000000000E+00 0.  1.
<mgrwt>
<rscale>  2 0.33830601E+02</rscale>
<asrwt>0</asrwt>
<pdfrwt beam="2">  1       21 0.39034720E-02 0.33830601E+02</pdfrwt>
<pdfrwt beam="1">  1        2 0.28006893E+00 0.33830601E+02</pdfrwt>
<totfact> 0.50260176E+04</totfact>
</mgrwt>
</event>
<event>
 4    1  0.2185255E+006  0.2869392E+02  0.7546771E-02  0.1612991E+00
         -3   -1    0    0    0  501 -0.00000000000E+00  0.00000000000E+00  0.33410194683E+02  0.33410194683E+02  0.00000000000E+00 0.  1.
         21   -1    0    0  501  502  0.00000000000E+00 -0.00000000000E+00 -0.38546111668E+02  0.38546111668E+02  0.00000000000E+00 0.  1.
         21    1    1    2  503  502  0.19036348960E+02  0.21469944923E+02 -0.24175143216E+02  0.37520376681E+02  0.00000000000E+00 0.  1.
         -3    1    1    2    0  503 -0.19036348960E+02 -0.21469944923E+02  0.19039226232E+02  0.34435929670E+02  0.00000000000E+00 0.  1.
<mgrwt>
<rscale>  2 0.28693921E+02</rscale>
<asrwt>0</asrwt>
<pdfrwt beam="2">  1       21 0.59301710E-02 0.28693921E+02</pdfrwt>
<pdfrwt beam="1">  1       -3 0.51400299E-02 0.28693921E+02</pdfrwt>
<totfact> 0.13931860E+06</totfact>
</mgrwt>
</event>
<event>
 4    1  0.2185255E+006  0.2048851E+02  0.7546771E-02  0.1735784E+00
          2   -1    0    0  502    0 -0.00000000000E+00  0.00000000000E+00  0.95011058147E+01  0.95011058147E+01  0.00000000000E+00 0.  1.
         21   -1    0    0  503  502  0.00000000000E+00 -0.00000000000E+00 -0.89595868631E+02  0.89595868631E+02  0.00000000000E+00 0.  1.
         21    1    1    2  503  501  0.20393455235E+02  0.19713186706E+01 -0.75323437507E+02  0.78060229000E+02  0.00000000000E+00 0.  1.
          2    1    1    2  501    0 -0.20393455235E+02 -0.19713186706E+01 -0.47713253092E+01  0.21036745445E+02  0.00000000000E+00 0.  1.
<mgrwt>
<rscale>  2 0.20488512E+02</rscale>
<asrwt>0</asrwt>
<pdfrwt beam="2">  1       21 0.13783980E-01 0.20488512E+02</pdfrwt>
<pdfrwt beam="1">  1        2 0.14617086E-02 0.20488512E+02</pdfrwt>
<totfact> 0.30017867E+06</totfact>
</mgrwt>
</event>
<event>
 4    1  0.2185255E+006  0.2406684E+02  0.7546771E-02  0.1674779E+00
         21   -1    0    0  503  502  0.00000000000E+00  0.00000000000E+00  0.94479637206E+00  0.94479637206E+00  0.00000000000E+00 0.  1.
          2   -1    0    0  502    0 -0.00000000000E+00 -0.00000000000E+00 -0.97151407856E+03  0.97151407856E+03  0.00000000000E+00 0.  1.
         21    1    1    2  503  501  0.21035667485E+02 -0.11692447686E+02 -0.18993518801E+03  0.19145388030E+03  0.00000000000E+00 0.  1.
          2    1    1    2  501    0 -0.21035667485E+02  0.11692447686E+02 -0.78063409418E+03  0.78100499463E+03  0.00000000000E+00 0.  1.
<mgrwt>
<rscale>  2 0.24066837E+02</rscale>
<asrwt>0</asrwt>
<pdfrwt beam="1">  1       21 0.14535294E-03 0.24066837E+02</pdfrwt>
<pdfrwt beam="2">  1        2 0.14946406E+00 0.24066837E+02</pdfrwt>
<totfact> 0.17934521E+07</totfact>
</mgrwt>
</event>
<event>
 4    1  0.2185255E+006  0.3588777E+02  0.7546771E-02  0.1540855E+00
         21   -1    0    0  503  502  0.00000000000E+00  0.00000000000E+00  0.23328159941E+01  0.23328159941E+01  0.00000000000E+00 0.  1.
          1   -1    0    0  502    0 -0.00000000000E+00 -0.00000000000E+00 -0.13501008459E+04  0.13501008459E+04  0.00000000000E+00 0. -1.
         21    1    1    2  503  501 -0.23142410428E+02 -0.27429192662E+02 -0.15400006902E+03  0.15812638309E+03  0.00000000000E+00 0.  1.
          1    1    1    2  501    0  0.23142410428E+02  0.27429192662E+02 -0.11937679608E+04  0.11943072788E+04  0.00000000000E+00 0. -1.
<mgrwt>
<rscale>  2 0.35887766E+02</rscale>
<asrwt>0</asrwt>
<pdfrwt beam="1">  1       21 0.35889376E-03 0.35887766E+02</pdfrwt>
<pdfrwt beam="2">  1        1 0.20770841E+00 0.35887766E+02</pdfrwt>
<totfact> 0.16428464E+06</totfact>
</mgrwt>
</event>
<event>
 4    1  0.2185255E+006  0.3804866E+02  0.7546771E-02  0.1523083E+00
          2   -1    0    0  503    0 -0.00000000000E+00  0.00000000000E+00  0.15488268530E+03  0.15488268530E+03  0.00000000000E+00 0.  1.
         21   -1    0    0  501  502  0.00000000000E+00 -0.00000000000E+00 -0.16502554416E+02  0.16502554416E+02  0.00000000000E+00 0. -1.
         21    1    1    2  503  502  0.27639124867E+02  0.26149174349E+02  0.12763046006E+02  0.40132230014E+02  0.00000000000E+00 0. -1.
          2    1    1    2  501    0 -0.27639124867E+02 -0.26149174349E+02  0.12561708488E+03  0.13125300971E+03  0.00000000000E+00 0.  1.
<mgrwt>
<rscale>  2 0.38048660E+02</rscale>
<asrwt>0</asrwt>
<pdfrwt beam="2">  1       21 0.25388546E-02 0.38048660E+02</pdfrwt>
<pdfrwt beam="1">  1        2 0.23828104E-01 0.38048660E+02</pdfrwt>
<totfact> 0.18723622E+06</totfact>
</mgrwt>
</event>
<event>
 4    1  0.2185255E+006  0.2583432E+02  0.7546771E-02  0.1649300E+00
         21   -1    0    0  503  502  0.00000000000E+00  0.00000000000E+00  0.16770518460E+03  0.16770518460E+03  0.00000000000E+00 0.  1.
         -3   -1    0    0    0  501 -0.00000000000E+00 -0.00000000000E+00 -0.45280648420E+01  0.45280648420E+01  0.00000000000E+00 0. -1.
         21    1    1    2  503  501  0.25745246810E+02 -0.21434941689E+01  0.11155774816E+03  0.11451001474E+03  0.00000000000E+00 0.  1.
         -3    1    1    2    0  502 -0.25745246810E+02  0.21434941689E+01  0.51619371592E+02  0.57723234699E+02  0.00000000000E+00 0. -1.
<mgrwt>
<rscale>  2 0.25834324E+02</rscale>
<asrwt>0</asrwt>
<pdfrwt beam="1">  1       21 0.25800793E-01 0.25834324E+02</pdfrwt>
<pdfrwt beam="2">  1       -3 0.69662549E-03 0.25834324E+02</pdfrwt>
<totfact> 0.20675004E+06</totfact>
</mgrwt>
</event>
<event>
 4    1  0.2185255E+006  0.2408816E+02  0.7546771E-02  0.1674455E+00
         21   -1    0    0  501  502  0.00000000000E+00  0.00000000000E+00  0.11657451411E+01  0.11657451411E+01  0.00000000000E+00 0. -1.
          2   -1    0    0  503    0 -0.00000000000E+00 -0.00000000000E+00 -0.85565000144E+03  0.85565000144E+03  0.00000000000E+00 0. -1.
         21    1    1    2  503  502 -0.15526129855E+02 -0.18416804414E+02 -0.15016827061E+03  0.15208796432E+03  0.00000000000E+00 0. -1.
          2    1    1    2  501    0  0.15526129855E+02  0.18416804414E+02 -0.70431598569E+03  0.70472778226E+03  0.00000000000E+00 0. -1.
<mgrwt>
<rscale>  2 0.24088159E+02</rscale>
<asrwt>0</asrwt>
<pdfrwt beam="1">  1       21 0.17934440E-03 0.24088159E+02</pdfrwt>
<pdfrwt beam="2">  1        2 0.13163920E+00 0.24088159E+02</pdfrwt>
<totfact> 0.15435953E+07</totfact>
</mgrwt>
</event>
<event>
 4    1  0.2185255E+006  0.6516516E+02  0.7546771E-02  0.1377351E+00
         21   -1    0    0  503  502  0.00000000000E+00  0.00000000000E+00  0.17263491568E+02  0.17263491568E+02  0.00000000000E+00 0. -1.
          2   -1    0    0  502    0 -0.00000000000E+00 -0.00000000000E+00 -0.24102929167E+04  0.24102929167E+04  0.00000000000E+00 0.  1.
         21    1    1    2  503  501 -0.59110196521E+02 -0.27431426042E+02 -0.46338705659E+02  0.79961078717E+02  0.00000000000E+00 0. -1.
          2    1    1    2  501    0  0.59110196521E+02  0.27431426042E+02 -0.23466907194E+04  0.23475953295E+04  0.00000000000E+00 0.  1.
<mgrwt>
<rscale>  2 0.65165163E+02</rscale>
<asrwt>0</asrwt>
<pdfrwt beam="1">  1       21 0.26559222E-02 0.65165163E+02</pdfrwt>
<pdfrwt beam="2">  1        2 0.37081424E+00 0.65165163E+02</pdfrwt>
<totfact> 0.47428989E+04</totfact>
</mgrwt>
</event>
<event>
 4    1  0.2185255E+006  0.3996563E+02  0.7546771E-02  0.1508465E+00
         -2   -1    0    0    0  501 -0.00000000000E+00  0.00000000000E+00  0.14478154840E+04  0.14478154840E+04  0.00000000000E+00 0.  1.
         21   -1    0    0  503  502  0.00000000000E+00 -0.00000000000E+00 -0.96347567188E+01  0.96347567188E+01  0.00000000000E+00 0.  1.
         21    1    1    2  503  501  0.30362992966E+02  0.25987315191E+02  0.33354093064E+02  0.52055234288E+02  0.00000000000E+00 0.  1.
         -2    1    1    2    0  502 -0.30362992966E+02 -0.25987315191E+02  0.14048266343E+04  0.14053950065E+04  0.00000000000E+00 0.  1.
<mgrwt>
<rscale>  2 0.39965634E+02</rscale>
<asrwt>0</asrwt>
<pdfrwt beam="2">  1       21 0.14822714E-02 0.39965634E+02</pdfrwt>
<pdfrwt beam="1">  1       -2 0.22274067E+00 0.39965634E+02</pdfrwt>
<totfact> 0.16249469E+04</totfact>
</mgrwt>
</event>
<event>
 4    1  0.2185255E+006  0.3218340E+02  0.7546771E-02  0.1575137E+00
         21   -1    0    0  501  502  0.00000000000E+00  0.00000000000E+00  0.18308258318E+03  0.18308258318E+03  0.00000000000E+00 0.  1.
          1   -1    0    0  503    0 -0.00000000000E+00 -0.00000000000E+00 -0.15906147385E+02  0.15906147385E+02  0.00000000000E+00 0. -1.
         21    1    1    2  503  502 -0.31596388403E+02 -0.61188012445E+01  0.16345227515E+03  0.16659056918E+03  0.00000000000E+00 0.  1.
          1    1    1    2  501    0  0.31596388403E+02  0.61188012445E+01  0.37241606491E+01  0.32398161388E+02  0.00000000000E+00 0. -1.
<mgrwt>
<rscale>  2 0.32183404E+02</rscale>
<asrwt>0</asrwt>
<pdfrwt beam="1">  1       21 0.28166550E-01 0.32183404E+02</pdfrwt>
<pdfrwt beam="2">  1        1 0.24470997E-02 0.32183404E+02</pdfrwt>
<totfact> 0.46644714E+05</totfact>
</mgrwt>
</event>
<event>
 4    1  0.2185255E+006  0.2268381E+02  0.7546771E-02  0.1696687E+00
         21   -1    0    0  501  502  0.00000000000E+00  0.00000000000E+00  0.41963830745E+02  0.41963830745E+02  0.00000000000E+00 0. -1.
          4   -1    0    0  503    0 -0.00000000000E+00 -0.00000000000E+00 -0.32535940424E+02  0.32535940424E+02  0.00000000000E+00 0.  1.
         21    1    1    2  503  502 -0.89373091780E+01 -0.20848977109E+02  0.34118435661E+02  0.40971001865E+02  0.00000000000E+00 0. -1.
          4    1    1    2  501    0  0.89373091780E+01  0.20848977109E+02 -0.24690545341E+02  0.33528769304E+02  0.00000000000E+00 0.  1.
<mgrwt>
<rscale>  2 0.22683812E+02</rscale>
<asrwt>0</asrwt>
<pdfrwt beam="1">  1       21 0.64559740E-02 0.22683812E+02</pdfrwt>
<pdfrwt beam="2">  1        4 0.50055293E-02 0.22683812E+02</pdfrwt>
<totfact> 0.97673108E+05</totfact>
</mgrwt>
</event>
<event>
 4    1  0.2185255E+006  0.2182215E+02  0.7546771E-02  0.1711346E+00
          2   -1    0    0  502    0 -0.00000000000E+00  0.00000000000E+00  0.54800009534E+02  0.54800009534E+02  0.00000000000E+00 0.  1.
         21   -1    0    0  503  502  0.00000000000E+00 -0.00000000000E+00 -0.10512655901E+02  0.10512655901E+02  0.00000000000E+00 0.  1.
         21    1    1    2  503  501 -0.55379603193E+01  0.21107756560E+02  0.85456496845E+01  0.23435753029E+02  0.00000000000E+00 0.  1.
          2    1    1    2  501    0  0.55379603193E+01 -0.21107756560E+02  0.35741703949E+02  0.41876912406E+02  0.00000000000E+00 0.  1.
<mgrwt>
<rscale>  2 0.21822154E+02</rscale>
<asrwt>0</asrwt>
<pdfrwt beam="2">  1       21 0.16173317E-02 0.21822154E+02</pdfrwt>
<pdfrwt beam="1">  1        2 0.84307705E-02 0.21822154E+02</pdfrwt>
<totfact> 0.10486305E+07</totfact>
</mgrwt>
</event>
<event>
 4    1  0.2185255E+006  0.3906443E+02  0.7546771E-02  0.1515211E+00
         -1   -1    0    0    0  501 -0.00000000000E+00  0.00000000000E+00  0.59864295091E+02  0.59864295091E+02  0.00000000000E+00 0. -1.
         21   -1    0    0  503  502  0.00000000000E+00 -0.00000000000E+00 -0.40795385430E+02  0.40795385430E+02  0.00000000000E+00 0. -1.
         21    1    1    2  503  501  0.38454838833E+01  0.38874691186E+02 -0.21291830699E+02  0.44490127171E+02  0.00000000000E+00 0. -1.
         -1    1    1    2    0  502 -0.38454838833E+01 -0.38874691186E+02  0.40360740360E+02  0.56169553350E+02  0.00000000000E+00 0. -1.
<mgrwt>
<rscale>  2 0.39064426E+02</rscale>
<asrwt>0</asrwt>
<pdfrwt beam="2">  1       21 0.62762131E-02 0.39064426E+02</pdfrwt>
<pdfrwt beam="1">  1       -1 0.92098915E-02 0.39064426E+02</pdfrwt>
<totfact> 0.91393153E+05</totfact>
</mgrwt>
</event>
<event>
 4    1  0.2185255E+006  0.2509774E+02  0.7546771E-02  0.1659602E+00
          1   -1    0    0  503    0 -0.00000000000E+00  0.00000000000E+00  0.62272953364E+03  0.62272953364E+03  0.00000000000E+00 0. -1.
         21   -1    0    0  501  502  0.00000000000E+00 -0.00000000000E+00 -0.52200159492E+02  0.52200159492E+02  0.00000000000E+00 0.  1.
         21    1    1    2  503  502 -0.25094185122E+02  0.42261406334E+00 -0.48914549990E+02  0.54977540235E+02  0.00000000000E+00 0.  1.
          1    1    1    2  501    0  0.25094185122E+02 -0.42261406334E+00  0.61944392414E+03  0.61995215290E+03  0.00000000000E+00 0. -1.
<mgrwt>
<rscale>  2 0.25097744E+02</rscale>
<asrwt>0</asrwt>
<pdfrwt beam="2">  1       21 0.80307942E-02 0.25097744E+02</pdfrwt>
<pdfrwt beam="1">  1        1 0.95804538E-01 0.25097744E+02</pdfrwt>
<totfact> 0.42361227E+04</totfact>
</mgrwt>
</event>
<event>
 4    1  0.2185255E+006  0.2633784E+02  0.7546771E-02  0.1642498E+00
         21   -1    0    0  503  502  0.00000000000E+00  0.00000000000E+00  0.35244817327E+03  0.35244817327E+03  0.00000000000E+00 0.  1.
         -3   -1    0    0    0  501 -0.00000000000E+00 -0.00000000000E+00 -0.24536005558E+01  0.24536005558E+01  0.00000000000E+00 0.  1.
         21    1    1    2  503  501 -0.23329938809E+02  0.12222761297E+02  0.25392594090E+03  0.25528820067E+03  0.00000000000E+00 0.  1.
         -3    1    1    2    0  502  0.23329938809E+02 -0.12222761297E+02  0.96068631819E+02  0.99613573162E+02  0.00000000000E+00 0.  1.
<mgrwt>
<rscale>  2 0.26337842E+02</rscale>
<asrwt>0</asrwt>
<pdfrwt beam="1">  1       21 0.54222756E-01 0.26337842E+02</pdfrwt>
<pdfrwt beam="2">  1       -3 0.37747729E-03 0.26337842E+02</pdfrwt>
<totfact> 0.12244762E+06</totfact>
</mgrwt>
</event>
<event>
 4    1  0.2185255E+006  0.2633637E+02  0.7546771E-02  0.1642517E+00
         -2   -1    0    0    0  501 -0.00000000000E+00  0.00000000000E+00  0.36230244847E+01  0.36230244847E+01  0.00000000000E+00 0.  1.
         21   -1    0    0  503  502  0.00000000000E+00 -0.00000000000E+00 -0.20751859277E+03  0.20751859277E+03  0.00000000000E+00 0.  1.
         21    1    1    2  503  501  0.24430796072E+02 -0.98356774175E+01 -0.13133054570E+03  0.13394519992E+03  0.00000000000E+00 0.  1.
         -2    1    1    2    0  502 -0.24430796072E+02  0.98356774175E+01 -0.72565022583E+02  0.77196417336E+02  0.00000000000E+00 0.  1.
<mgrwt>
<rscale>  2 0.26336369E+02</rscale>
<asrwt>0</asrwt>
<pdfrwt beam="2">  1       21 0.31925929E-01 0.26336369E+02</pdfrwt>
<pdfrwt beam="1">  1       -2 0.55738852E-03 0.26336369E+02</pdfrwt>
<totfact> 0.24968820E+06</totfact>
</mgrwt>
</event>
<event>
 4    1  0.2185255E+006  0.4773258E+02  0.7546771E-02  0.1457970E+00
          4   -1    0    0  502    0 -0.00000000000E+00  0.00000000000E+00  0.26066764750E+02  0.26066764750E+02  0.00000000000E+00 0. -1.
         21   -1    0    0  503  502  0.00000000000E+00 -0.00000000000E+00 -0.11012173420E+03  0.11012173420E+03  0.00000000000E+00 0.  1.
         21    1    1    2  503  501  0.29693895129E+02 -0.37372077406E+02 -0.72954242628E+02  0.87182114537E+02  0.00000000000E+00 0.  1.
          4    1    1    2  501    0 -0.29693895129E+02  0.37372077406E+02 -0.11100726824E+02  0.49006384417E+02  0.00000000000E+00 0. -1.
<mgrwt>
<rscale>  2 0.47732584E+02</rscale>
<asrwt>0</asrwt>
<pdfrwt beam="2">  1       21 0.16941806E-01 0.47732584E+02</pdfrwt>
<pdfrwt beam="1">  1        4 0.40102714E-02 0.47732584E+02</pdfrwt>
<totfact> 0.34547891E+05</totfact>
</mgrwt>
</event>
<event>
 4    1  0.2185255E+006  0.3221379E+02  0.7546771E-02  0.1574833E+00
          3   -1    0    0  502    0 -0.00000000000E+00  0.00000000000E+00  0.10899068530E+02  0.10899068530E+02  0.00000000000E+00 0. -1.
         21   -1    0    0  503  502  0.00000000000E+00 -0.00000000000E+00 -0.17625930837E+03  0.17625930837E+03  0.00000000000E+00 0. -1.
         21    1    1    2  503  501  0.27046785519E+02  0.17498555366E+02 -0.14613588477E+03  0.14964432787E+03  0.00000000000E+00 0. -1.
          3    1    1    2  501    0 -0.27046785519E+02 -0.17498555366E+02 -0.19224355077E+02  0.37514049034E+02  0.00000000000E+00 0. -1.
<mgrwt>
<rscale>  2 0.32213787E+02</rscale>
<asrwt>0</asrwt>
<pdfrwt beam="2">  1       21 0.27116815E-01 0.32213787E+02</pdfrwt>
<pdfrwt beam="1">  1        3 0.16767799E-02 0.32213787E+02</pdfrwt>
<totfact> 0.56928628E+05</totfact>
</mgrwt>
</event>
<event>
 4    1  0.2185255E+006  0.2202033E+02  0.7546771E-02  0.1707901E+00
         21   -1    0    0  503  502  0.00000000000E+00  0.00000000000E+00  0.68397249980E+01  0.68397249980E+01  0.00000000000E+00 0.  1.
          1   -1    0    0  502    0 -0.00000000000E+00 -0.00000000000E+00 -0.84540946420E+02  0.84540946420E+02  0.00000000000E+00 0.  1.
         21    1    1    2  503  501  0.13200737527E+02 -0.17624856878E+02 -0.20493281356E+02  0.30081051045E+02  0.00000000000E+00 0.  1.
          1    1    1    2  501    0 -0.13200737527E+02  0.17624856878E+02 -0.57207940067E+02  0.61299620373E+02  0.00000000000E+00 0.  1.
<mgrwt>
<rscale>  2 0.22020333E+02</rscale>
<asrwt>0</asrwt>
<pdfrwt beam="1">  1       21 0.10522654E-02 0.22020333E+02</pdfrwt>
<pdfrwt beam="2">  1        1 0.13006299E-01 0.22020333E+02</pdfrwt>
<totfact> 0.10509970E+07</totfact>
</mgrwt>
</event>
<event>
 4    1  0.2185255E+006  0.2078581E+02  0.7546771E-02  0.1730138E+00
         21   -1    0    0  501  502  0.00000000000E+00  0.00000000000E+00  0.76779908782E+03  0.76779908782E+03  0.00000000000E+00 0.  1.
         -1   -1    0    0    0  501 -0.00000000000E+00 -0.00000000000E+00 -0.63526844892E+00  0.63526844892E+00  0.00000000000E+00 0. -1.
         21    1    1    2  503  502  0.13999935532E+02 -0.15363968532E+02  0.51343021509E+03  0.51385079108E+03  0.00000000000E+00 0.  1.
         -1    1    1    2    0  503 -0.13999935532E+02  0.15363968532E+02  0.25373360428E+03  0.25458356519E+03  0.00000000000E+00 0. -1.
<mgrwt>
<rscale>  2 0.20785806E+02</rscale>
<asrwt>0</asrwt>
<pdfrwt beam="1">  1       21 0.11812219E+00 0.20785806E+02</pdfrwt>
<pdfrwt beam="2">  1       -1 0.97734222E-04 0.20785806E+02</pdfrwt>
<totfact> 0.16937779E+06</totfact>
</mgrwt>
</event>
<event>
 4    1  0.2185255E+006  0.2466808E+02  0.7546771E-02  0.1665816E+00
         21   -1    0    0  501  502  0.00000000000E+00  0.00000000000E+00  0.13821911466E+02  0.13821911466E+02  0.00000000000E+00 0.  1.
          2   -1    0    0  503    0 -0.00000000000E+00 -0.00000000000E+00 -0.50841924626E+02  0.50841924626E+02  0.00000000000E+00 0. -1.
         21    1    1    2  503  502 -0.23415306356E+02 -0.77612829511E+01 -0.66712931319E+01  0.25554260639E+02  0.00000000000E+00 0.  1.
          2    1    1    2  501    0  0.23415306356E+02  0.77612829511E+01 -0.30348720028E+02  0.39109575453E+02  0.00000000000E+00 0. -1.
<mgrwt>
<rscale>  2 0.24668078E+02</rscale>
<asrwt>0</asrwt>
<pdfrwt beam="1">  1       21 0.21264479E-02 0.24668078E+02</pdfrwt>
<pdfrwt beam="2">  1        2 0.78218345E-02 0.24668078E+02</pdfrwt>
<totfact> 0.78115345E+06</totfact>
</mgrwt>
</event>
<event>
 4    1  0.2185255E+006  0.2129512E+02  0.7546771E-02  0.1720735E+00
         21   -1    0    0  501  502  0.00000000000E+00  0.00000000000E+00  0.14051333706E+02  0.14051333706E+02  0.00000000000E+00 0. -1.
          2   -1    0    0  503    0 -0.00000000000E+00 -0.00000000000E+00 -0.51200532929E+03  0.51200532929E+03  0.00000000000E+00 0.  1.
         21    1    1    2  503  502  0.23460961543E+01 -0.21165494893E+02  0.56266755013E+01  0.22025935132E+02  0.00000000000E+00 0. -1.
          2    1    1    2  501    0 -0.23460961543E+01  0.21165494893E+02 -0.50358067109E+03  0.50403072787E+03  0.00000000000E+00 0.  1.
<mgrwt>
<rscale>  2 0.21295125E+02</rscale>
<asrwt>0</asrwt>
<pdfrwt beam="1">  1       21 0.21617439E-02 0.21295125E+02</pdfrwt>
<pdfrwt beam="2">  1        2 0.78770042E-01 0.21295125E+02</pdfrwt>
<totfact> 0.64779161E+05</totfact>
</mgrwt>
</event>
<event>
 4    1  0.2185255E+006  0.2144694E+02  0.7546771E-02  0.1717996E+00
         21   -1    0    0  501  502  0.00000000000E+00  0.00000000000E+00  0.39252887698E+03  0.39252887698E+03  0.00000000000E+00 0.  1.
          4   -1    0    0  503    0 -0.00000000000E+00 -0.00000000000E+00 -0.51568088058E+02  0.51568088058E+02  0.00000000000E+00 0.  1.
         21    1    1    2  503  502  0.18255856488E+02  0.11255887115E+02  0.38999150359E+03  0.39058077803E+03  0.00000000000E+00 0.  1.
          4    1    1    2  501    0 -0.18255856488E+02 -0.11255887115E+02 -0.49030714671E+02  0.53516187009E+02  0.00000000000E+00 0.  1.
<mgrwt>
<rscale>  2 0.21446941E+02</rscale>
<asrwt>0</asrwt>
<pdfrwt beam="1">  1       21 0.60389056E-01 0.21446941E+02</pdfrwt>
<pdfrwt beam="2">  1        4 0.79335523E-02 0.21446941E+02</pdfrwt>
<totfact> 0.91538148E+03</totfact>
</mgrwt>
</event>
<event>
 4    1  0.2185255E+006  0.2193247E+02  0.7546771E-02  0.1709422E+00
         21   -1    0    0  501  502  0.00000000000E+00  0.00000000000E+00  0.42119398066E+02  0.42119398066E+02  0.00000000000E+00 0.  1.
          1   -1    0    0  503    0 -0.00000000000E+00 -0.00000000000E+00 -0.17293168489E+02  0.17293168489E+02  0.00000000000E+00 0.  1.
         21    1    1    2  503  502 -0.17253596002E+02  0.13540563898E+02  0.29724068549E+02  0.36939865955E+02  0.00000000000E+00 0.  1.
          1    1    1    2  501    0  0.17253596002E+02 -0.13540563898E+02 -0.48978389715E+01  0.22472700600E+02  0.00000000000E+00 0.  1.
<mgrwt>
<rscale>  2 0.21932475E+02</rscale>
<asrwt>0</asrwt>
<pdfrwt beam="1">  1       21 0.64799074E-02 0.21932475E+02</pdfrwt>
<pdfrwt beam="2">  1        1 0.26604875E-02 0.21932475E+02</pdfrwt>
<totfact> 0.47045694E+06</totfact>
</mgrwt>
</event>
<event>
 4    1  0.2185255E+006  0.3025061E+02  0.7546771E-02  0.1595335E+00
         21   -1    0    0  503  502  0.00000000000E+00  0.00000000000E+00  0.35505769693E+01  0.35505769693E+01  0.00000000000E+00 0. -1.
          1   -1    0    0  502    0 -0.00000000000E+00 -0.00000000000E+00 -0.81625952539E+03  0.81625952539E+03  0.00000000000E+00 0. -1.
         21    1    1    2  503  501 -0.14808950589E+02 -0.26377916008E+02 -0.67283048738E+02  0.73770645368E+02  0.00000000000E+00 0. -1.
          1    1    1    2  501    0  0.14808950589E+02  0.26377916008E+02 -0.74542589968E+03  0.74603945699E+03  0.00000000000E+00 0. -1.
<mgrwt>
<rscale>  2 0.30250611E+02</rscale>
<asrwt>0</asrwt>
<pdfrwt beam="1">  1       21 0.54624258E-03 0.30250611E+02</pdfrwt>
<pdfrwt beam="2">  1        1 0.12557840E+00 0.30250611E+02</pdfrwt>
<totfact> 0.19582666E+06</totfact>
</mgrwt>
</event>
<event>
 4    1  0.2185255E+006  0.2146251E+02  0.7546771E-02  0.1717717E+00
         21   -1    0    0  503  502  0.00000000000E+00  0.00000000000E+00  0.26682745151E+01  0.26682745151E+01  0.00000000000E+00 0. -1.
         -1   -1    0    0    0  501 -0.00000000000E+00 -0.00000000000E+00 -0.24835139741E+03  0.24835139741E+03  0.00000000000E+00 0. -1.
         21    1    1    2  503  501  0.39191690688E+01 -0.21101646187E+02 -0.53540879514E+02  0.57682450859E+02  0.00000000000E+00 0. -1.
         -1    1    1    2    0  502 -0.39191690688E+01  0.21101646187E+02 -0.19214224338E+03  0.19333722107E+03  0.00000000000E+00 0. -1.
<mgrwt>
<rscale>  2 0.21462511E+02</rscale>
<asrwt>0</asrwt>
<pdfrwt beam="1">  1       21 0.41050370E-03 0.21462511E+02</pdfrwt>
<pdfrwt beam="2">  1       -1 0.38207914E-01 0.21462511E+02</pdfrwt>
<totfact> 0.59862196E+06</totfact>
</mgrwt>
</event>
<event>
 4    1  0.2185255E+006  0.2625008E+02  0.7546771E-02  0.1643670E+00
         21   -1    0    0  503  502  0.00000000000E+00  0.00000000000E+00  0.14747611152E+02  0.14747611152E+02  0.00000000000E+00 0. -1.
          1   -1    0    0  502    0 -0.00000000000E+00 -0.00000000000E+00 -0.66966359912E+02  0.66966359912E+02  0.00000000000E+00 0. -1.
         21    1    1    2  503  501 -0.19480128862E+02  0.17595206968E+02 -0.36463089591E+01  0.26502118741E+02  0.00000000000E+00 0. -1.
          1    1    1    2  501    0  0.19480128862E+02 -0.17595206968E+02 -0.48572439801E+02  0.55211852323E+02  0.00000000000E+00 0. -1.
<mgrwt>
<rscale>  2 0.26250081E+02</rscale>
<asrwt>0</asrwt>
<pdfrwt beam="1">  1       21 0.22688632E-02 0.26250081E+02</pdfrwt>
<pdfrwt beam="2">  1        1 0.10302517E-01 0.26250081E+02</pdfrwt>
<totfact> 0.45666763E+06</totfact>
</mgrwt>
</event>
<event>
 4    1  0.2185255E+006  0.2180645E+02  0.7546771E-02  0.1711621E+00
         21   -1    0    0  503  502  0.00000000000E+00  0.00000000000E+00  0.16891041383E+03  0.16891041383E+03  0.00000000000E+00 0.  1.
         -2   -1    0    0    0  501 -0.00000000000E+00 -0.00000000000E+00 -0.31291084537E+02  0.31291084537E+02  0.00000000000E+00 0.  1.
         21    1    1    2  503  501 -0.13918320104E+01 -0.21761982706E+02  0.16430132153E+03  0.16574210492E+03  0.00000000000E+00 0.  1.
         -2    1    1    2    0  502  0.13918320104E+01  0.21761982706E+02 -0.26681992230E+02  0.34459393451E+02  0.00000000000E+00 0.  1.
<mgrwt>
<rscale>  2 0.21806446E+02</rscale>
<asrwt>0</asrwt>
<pdfrwt beam="1">  1       21 0.25986217E-01 0.21806446E+02</pdfrwt>
<pdfrwt beam="2">  1       -2 0.48140131E-02 0.21806446E+02</pdfrwt>
<totfact> 0.18109051E+05</totfact>
</mgrwt>
</event>
<event>
 4    1  0.2185255E+006  0.2450442E+02  0.7546771E-02  0.1668224E+00
          2   -1    0    0  502    0 -0.00000000000E+00  0.00000000000E+00  0.39737221049E+03  0.39737221049E+03  0.00000000000E+00 0. -1.
         21   -1    0    0  503  502  0.00000000000E+00 -0.00000000000E+00 -0.59538480984E+01  0.59538480984E+01  0.00000000000E+00 0. -1.
         21    1    1    2  503  501  0.44077584232E+01 -0.24104733189E+02  0.21507002437E+02  0.32603951452E+02  0.00000000000E+00 0. -1.
          2    1    1    2  501    0 -0.44077584232E+01  0.24104733189E+02  0.36991135996E+03  0.37072210714E+03  0.00000000000E+00 0. -1.
<mgrwt>
<rscale>  2 0.24504418E+02</rscale>
<asrwt>0</asrwt>
<pdfrwt beam="2">  1       21 0.91597694E-03 0.24504418E+02</pdfrwt>
<pdfrwt beam="1">  1        2 0.61134165E-01 0.24504418E+02</pdfrwt>
<totfact> 0.31591682E+06</totfact>
</mgrwt>
</event>
<event>
 4    1  0.2185255E+006  0.2266405E+02  0.7546771E-02  0.1697014E+00
         -2   -1    0    0    0  501 -0.00000000000E+00  0.00000000000E+00  0.91895864781E+01  0.91895864781E+01  0.00000000000E+00 0.  1.
         21   -1    0    0  503  502  0.00000000000E+00 -0.00000000000E+00 -0.36126222375E+03  0.36126222375E+03  0.00000000000E+00 0.  1.
         21    1    1    2  503  501 -0.22601528723E+02 -0.16822173392E+01 -0.34633101297E+03  0.34707179301E+03  0.00000000000E+00 0.  1.
         -2    1    1    2    0  502  0.22601528723E+02  0.16822173392E+01 -0.57416243053E+01  0.23380017225E+02  0.00000000000E+00 0.  1.
<mgrwt>
<rscale>  2 0.22664045E+02</rscale>
<asrwt>0</asrwt>
<pdfrwt beam="2">  1       21 0.55578813E-01 0.22664045E+02</pdfrwt>
<pdfrwt beam="1">  1       -2 0.14137823E-02 0.22664045E+02</pdfrwt>
<totfact> 0.23899311E+05</totfact>
</mgrwt>
</event>
<event>
 4    1  0.2185255E+006  0.2772752E+02  0.7546771E-02  0.1624658E+00
          1   -1    0    0  503    0 -0.00000000000E+00  0.00000000000E+00  0.95071703315E+03  0.95071703315E+03  0.00000000000E+00 0. -1.
         21   -1    0    0  501  502  0.00000000000E+00 -0.00000000000E+00 -0.11333891276E+01  0.11333891276E+01  0.00000000000E+00 0. -1.
         21    1    1    2  503  502 -0.26299322264E+02 -0.87841387757E+01  0.22004794318E+03  0.22178799053E+03  0.00000000000E+00 0. -1.
          1    1    1    2  501    0  0.26299322264E+02  0.87841387757E+01  0.72953570084E+03  0.73006243175E+03  0.00000000000E+00 0. -1.
<mgrwt>
<rscale>  2 0.27727521E+02</rscale>
<asrwt>0</asrwt>
<pdfrwt beam="2">  1       21 0.17436832E-03 0.27727521E+02</pdfrwt>
<pdfrwt beam="1">  1        1 0.14626352E+00 0.27727521E+02</pdfrwt>
<totfact> 0.82381485E+06</totfact>
</mgrwt>
</event>
<event>
 4    1  0.2185255E+006  0.2121961E+02  0.7546771E-02  0.1722109E+00
          2   -1    0    0  502    0 -0.00000000000E+00  0.00000000000E+00  0.10145990148E+03  0.10145990148E+03  0.00000000000E+00 0. -1.
         21   -1    0    0  503  502  0.00000000000E+00 -0.00000000000E+00 -0.35502539907E+02  0.35502539907E+02  0.00000000000E+00 0.  1.
         21    1    1    2  503  501  0.15362070022E+02 -0.14638264314E+02 -0.31079519149E+02  0.37632545596E+02  0.00000000000E+00 0.  1.
          2    1    1    2  501    0 -0.15362070022E+02  0.14638264314E+02  0.97036880719E+02  0.99329895787E+02  0.00000000000E+00 0. -1.
<mgrwt>
<rscale>  2 0.21219613E+02</rscale>
<asrwt>0</asrwt>
<pdfrwt beam="2">  1       21 0.54619292E-02 0.21219613E+02</pdfrwt>
<pdfrwt beam="1">  1        2 0.15609216E-01 0.21219613E+02</pdfrwt>
<totfact> 0.78371930E+05</totfact>
</mgrwt>
</event>
<event>
 4    1  0.2185255E+006  0.2216693E+02  0.7546771E-02  0.1705381E+00
         21   -1    0    0  503  502  0.00000000000E+00  0.00000000000E+00  0.64584847743E+01  0.64584847743E+01  0.00000000000E+00 0.  1.
         -2   -1    0    0    0  501 -0.00000000000E+00 -0.00000000000E+00 -0.18563929361E+03  0.18563929361E+03  0.00000000000E+00 0.  1.
         21    1    1    2  503  501 -0.39965514532E+01  0.21803680888E+02 -0.15803633408E+02  0.27223661633E+02  0.00000000000E+00 0.  1.
         -2    1    1    2    0  502  0.39965514532E+01 -0.21803680888E+02 -0.16337717542E+03  0.16487411675E+03  0.00000000000E+00 0.  1.
<mgrwt>
<rscale>  2 0.22166933E+02</rscale>
<asrwt>0</asrwt>
<pdfrwt beam="1">  1       21 0.99361313E-03 0.22166933E+02</pdfrwt>
<pdfrwt beam="2">  1       -2 0.28559889E-01 0.22166933E+02</pdfrwt>
<totfact> 0.22796929E+06</totfact>
</mgrwt>
</event>
<event>
 4    1  0.2185255E+006  0.2199299E+02  0.7546771E-02  0.1708373E+00
         21   -1    0    0  501  502  0.00000000000E+00  0.00000000000E+00  0.27347660761E+01  0.27347660761E+01  0.00000000000E+00 0.  1.
          1   -1    0    0  503    0 -0.00000000000E+00 -0.00000000000E+00 -0.11592970268E+04  0.11592970268E+04  0.00000000000E+00 0.  1.
         21    1    1    2  503  502 -0.21072760106E+02 -0.62952569588E+01 -0.43419630726E+02  0.48671920150E+02  0.00000000000E+00 0.  1.
          1    1    1    2  501    0  0.21072760106E+02  0.62952569588E+01 -0.11131426300E+04  0.11133598727E+04  0.00000000000E+00 0.  1.
<mgrwt>
<rscale>  2 0.21992987E+02</rscale>
<asrwt>0</asrwt>
<pdfrwt beam="1">  1       21 0.42073387E-03 0.21992987E+02</pdfrwt>
<pdfrwt beam="2">  1        1 0.17835312E+00 0.21992987E+02</pdfrwt>
<totfact> 0.15847161E+06</totfact>
</mgrwt>
</event>
<event>
 4    1  0.2185255E+006  0.2101118E+02  0.7546771E-02  0.1725936E+00
          1   -1    0    0  502    0 -0.00000000000E+00  0.00000000000E+00  0.13375017822E+04  0.13375017822E+04  0.00000000000E+00 0. -1.
         21   -1    0    0  503  502  0.00000000000E+00 -0.00000000000E+00 -0.23447193878E+01  0.23447193878E+01  0.00000000000E+00 0. -1.
         21    1    1    2  503  501  0.16890891157E+02  0.12496701721E+02  0.46596107943E+02  0.51114254698E+02  0.00000000000E+00 0. -1.
          1    1    1    2  501    0 -0.16890891157E+02 -0.12496701721E+02  0.12885609549E+04  0.12887322469E+04  0.00000000000E+00 0. -1.
<mgrwt>
<rscale>  2 0.21011182E+02</rscale>
<asrwt>0</asrwt>
<pdfrwt beam="2">  1       21 0.36072713E-03 0.21011182E+02</pdfrwt>
<pdfrwt beam="1">  1        1 0.20576889E+00 0.21011182E+02</pdfrwt>
<totfact> 0.15263024E+06</totfact>
</mgrwt>
</event>
<event>
 4    1  0.2185255E+006  0.2200368E+02  0.7546771E-02  0.1708188E+00
         21   -1    0    0  503  502  0.00000000000E+00  0.00000000000E+00  0.45683037293E+00  0.45683037293E+00  0.00000000000E+00 0.  1.
          1   -1    0    0  502    0 -0.00000000000E+00 -0.00000000000E+00 -0.16143514694E+04  0.16143514694E+04  0.00000000000E+00 0.  1.
         21    1    1    2  503  501  0.16410429746E+02 -0.14658088932E+02 -0.33373966234E+03  0.33446423425E+03  0.00000000000E+00 0.  1.
          1    1    1    2  501    0 -0.16410429746E+02  0.14658088932E+02 -0.12801549767E+04  0.12803440655E+04  0.00000000000E+00 0.  1.
<mgrwt>
<rscale>  2 0.22003676E+02</rscale>
<asrwt>0</asrwt>
<pdfrwt beam="1">  1       21 0.70280352E-04 0.22003676E+02</pdfrwt>
<pdfrwt beam="2">  1        1 0.24836616E+00 0.22003676E+02</pdfrwt>
<totfact> 0.10995559E+07</totfact>
</mgrwt>
</event>
<event>
 4    1  0.2185255E+006  0.2946084E+02  0.7546771E-02  0.1604126E+00
         21   -1    0    0  503  502  0.00000000000E+00  0.00000000000E+00  0.21925734658E+02  0.21925734658E+02  0.00000000000E+00 0.  1.
          3   -1    0    0  502    0 -0.00000000000E+00 -0.00000000000E+00 -0.54874219313E+02  0.54874219313E+02  0.00000000000E+00 0.  1.
         21    1    1    2  503  501  0.21131228869E+02  0.20528330566E+02  0.37947578971E+01  0.29704231632E+02  0.00000000000E+00 0.  1.
          3    1    1    2  501    0 -0.21131228869E+02 -0.20528330566E+02 -0.36743242552E+02  0.47095722339E+02  0.00000000000E+00 0.  1.
<mgrwt>
<rscale>  2 0.29460842E+02</rscale>
<asrwt>0</asrwt>
<pdfrwt beam="1">  1       21 0.33731900E-02 0.29460842E+02</pdfrwt>
<pdfrwt beam="2">  1        3 0.84421875E-02 0.29460842E+02</pdfrwt>
<totfact> 0.16115534E+06</totfact>
</mgrwt>
</event>
<event>
 4    1  0.2185255E+006  0.2162358E+02  0.7546771E-02  0.1714844E+00
          2   -1    0    0  503    0 -0.00000000000E+00  0.00000000000E+00  0.71847871834E+03  0.71847871834E+03  0.00000000000E+00 0.  1.
         21   -1    0    0  501  502  0.00000000000E+00 -0.00000000000E+00 -0.59245215136E+02  0.59245215136E+02  0.00000000000E+00 0.  1.
         21    1    1    2  503  502  0.18410675473E+02  0.11341359189E+02 -0.57103551593E+02  0.61060584703E+02  0.00000000000E+00 0.  1.
          2    1    1    2  501    0 -0.18410675473E+02 -0.11341359189E+02  0.71633705479E+03  0.71666334877E+03  0.00000000000E+00 0.  1.
<mgrwt>
<rscale>  2 0.21623584E+02</rscale>
<asrwt>0</asrwt>
<pdfrwt beam="2">  1       21 0.91146490E-02 0.21623584E+02</pdfrwt>
<pdfrwt beam="1">  1        2 0.11053518E+00 0.21623584E+02</pdfrwt>
<totfact> 0.46812177E+04</totfact>
</mgrwt>
</event>
<event>
 4    1  0.2185255E+006  0.2746243E+02  0.7546771E-02  0.1627960E+00
          1   -1    0    0  503    0 -0.00000000000E+00  0.00000000000E+00  0.92708569192E+03  0.92708569192E+03  0.00000000000E+00 0. -1.
         21   -1    0    0  501  502  0.00000000000E+00 -0.00000000000E+00 -0.27771067718E+01  0.27771067718E+01  0.00000000000E+00 0. -1.
         21    1    1    2  503  502  0.20862684061E+02  0.17858703809E+02  0.71205596948E+02  0.76317900421E+02  0.00000000000E+00 0. -1.
          1    1    1    2  501    0 -0.20862684061E+02 -0.17858703809E+02  0.85310298820E+03  0.85354489827E+03  0.00000000000E+00 0. -1.
<mgrwt>
<rscale>  2 0.27462427E+02</rscale>
<asrwt>0</asrwt>
<pdfrwt beam="2">  1       21 0.42724793E-03 0.27462427E+02</pdfrwt>
<pdfrwt beam="1">  1        1 0.14262832E+00 0.27462427E+02</pdfrwt>
<totfact> 0.23024706E+06</totfact>
</mgrwt>
</event>
<event>
 4    1  0.2185255E+006  0.2101133E+02  0.7546771E-02  0.1725934E+00
          1   -1    0    0  503    0 -0.00000000000E+00  0.00000000000E+00  0.12541167726E+04  0.12541167726E+04  0.00000000000E+00 0.  1.
         21   -1    0    0  501  502  0.00000000000E+00 -0.00000000000E+00 -0.37454672289E+00  0.37454672289E+00  0.00000000000E+00 0.  1.
         21    1    1    2  503  502  0.84796636475E+01 -0.19224232181E+02  0.47304811193E+03  0.47351451086E+03  0.00000000000E+00 0.  1.
          1    1    1    2  501    0 -0.84796636475E+01  0.19224232181E+02  0.78069411394E+03  0.78097680845E+03  0.00000000000E+00 0.  1.
<mgrwt>
<rscale>  2 0.21011325E+02</rscale>
<asrwt>0</asrwt>
<pdfrwt beam="2">  1       21 0.57623577E-04 0.21011325E+02</pdfrwt>
<pdfrwt beam="1">  1        1 0.19293768E+00 0.21011325E+02</pdfrwt>
<totfact> 0.23679109E+07</totfact>
</mgrwt>
</event>
<event>
 4    1  0.2185255E+006  0.3116793E+02  0.7546771E-02  0.1585526E+00
          4   -1    0    0  503    0 -0.00000000000E+00  0.00000000000E+00  0.51023583716E+02  0.51023583716E+02  0.00000000000E+00 0. -1.
         21   -1    0    0  501  502  0.00000000000E+00 -0.00000000000E+00 -0.22775595523E+02  0.22775595523E+02  0.00000000000E+00 0. -1.
         21    1    1    2  503  502  0.14807879005E+02  0.27425652371E+02 -0.82193090256E+00  0.31178762948E+02  0.00000000000E+00 0. -1.
          4    1    1    2  501    0 -0.14807879005E+02 -0.27425652371E+02  0.29069919096E+02  0.42620416291E+02  0.00000000000E+00 0. -1.
<mgrwt>
<rscale>  2 0.31167927E+02</rscale>
<asrwt>0</asrwt>
<pdfrwt beam="2">  1       21 0.35039378E-02 0.31167927E+02</pdfrwt>
<pdfrwt beam="1">  1        4 0.78497821E-02 0.31167927E+02</pdfrwt>
<totfact> 0.14546739E+06</totfact>
</mgrwt>
</event>
<event>
 4    1  0.2185255E+006  0.3306733E+02  0.7546771E-02  0.1566465E+00
         21   -1    0    0  503  502  0.00000000000E+00  0.00000000000E+00  0.65940765185E+03  0.65940765185E+03  0.00000000000E+00 0.  1.
          1   -1    0    0  502    0 -0.00000000000E+00 -0.00000000000E+00 -0.12672401242E+03  0.12672401242E+03  0.00000000000E+00 0.  1.
         21    1    1    2  503  501  0.32929115289E+02 -0.30201992939E+01  0.65682748153E+03  0.65765932573E+03  0.00000000000E+00 0.  1.
          1    1    1    2  501    0 -0.32929115289E+02  0.30201992939E+01 -0.12414384210E+03  0.12847233853E+03  0.00000000000E+00 0.  1.
<mgrwt>
<rscale>  2 0.33067329E+02</rscale>
<asrwt>0</asrwt>
<pdfrwt beam="1">  1       21 0.10144733E+00 0.33067329E+02</pdfrwt>
<pdfrwt beam="2">  1        1 0.19496002E-01 0.33067329E+02</pdfrwt>
<totfact> 0.25155651E+03</totfact>
</mgrwt>
</event>
<event>
 4    1  0.2185255E+006  0.2477000E+02  0.7546771E-02  0.1664328E+00
         21   -1    0    0  501  502  0.00000000000E+00  0.00000000000E+00  0.16423263062E+02  0.16423263062E+02  0.00000000000E+00 0.  1.
          2   -1    0    0  503    0 -0.00000000000E+00 -0.00000000000E+00 -0.37746367230E+02  0.37746367230E+02  0.00000000000E+00 0.  1.
         21    1    1    2  503  502 -0.22432492195E+02 -0.10504102333E+02 -0.79169471610E+01  0.26004440472E+02  0.00000000000E+00 0.  1.
          2    1    1    2  501    0  0.22432492195E+02  0.10504102333E+02 -0.13406157007E+02  0.28165189820E+02  0.00000000000E+00 0.  1.
<mgrwt>
<rscale>  2 0.24769999E+02</rscale>
<asrwt>0</asrwt>
<pdfrwt beam="1">  1       21 0.25266558E-02 0.24769999E+02</pdfrwt>
<pdfrwt beam="2">  1        2 0.58071335E-02 0.24769999E+02</pdfrwt>
<totfact> 0.85603775E+06</totfact>
</mgrwt>
</event>
<event>
 4    1  0.2185255E+006  0.2419440E+02  0.7546771E-02  0.1672850E+00
          2   -1    0    0  502    0 -0.00000000000E+00  0.00000000000E+00  0.59756329860E+03  0.59756329860E+03  0.00000000000E+00 0. -1.
         21   -1    0    0  503  502  0.00000000000E+00 -0.00000000000E+00 -0.27894794063E+02  0.27894794063E+02  0.00000000000E+00 0.  1.
         21    1    1    2  503  501  0.19510647633E+02 -0.14307460408E+02 -0.22354602844E+02  0.32940811507E+02  0.00000000000E+00 0.  1.
          2    1    1    2  501    0 -0.19510647633E+02  0.14307460408E+02  0.59202310738E+03  0.59251728115E+03  0.00000000000E+00 0. -1.
<mgrwt>
<rscale>  2 0.24194396E+02</rscale>
<asrwt>0</asrwt>
<pdfrwt beam="2">  1       21 0.42915072E-02 0.24194396E+02</pdfrwt>
<pdfrwt beam="1">  1        2 0.91932805E-01 0.24194396E+02</pdfrwt>
<totfact> 0.19359581E+05</totfact>
</mgrwt>
</event>
<event>
 4    1  0.2185255E+006  0.2808282E+02  0.7546771E-02  0.1620302E+00
         21   -1    0    0  501  502  0.00000000000E+00  0.00000000000E+00  0.57393031850E+02  0.57393031850E+02  0.00000000000E+00 0. -1.
          4   -1    0    0  503    0 -0.00000000000E+00 -0.00000000000E+00 -0.39613538967E+02  0.39613538967E+02  0.00000000000E+00 0.  1.
         21    1    1    2  503  502  0.20458140611E+02 -0.19238217035E+02  0.48088102810E+02  0.55687612122E+02  0.00000000000E+00 0. -1.
          4    1    1    2  501    0 -0.20458140611E+02  0.19238217035E+02 -0.30308609927E+02  0.41318958695E+02  0.00000000000E+00 0.  1.
<mgrwt>
<rscale>  2 0.28082815E+02</rscale>
<asrwt>0</asrwt>
<pdfrwt beam="1">  1       21 0.88296972E-02 0.28082815E+02</pdfrwt>
<pdfrwt beam="2">  1        4 0.60943906E-02 0.28082815E+02</pdfrwt>
<totfact> 0.46866273E+05</totfact>
</mgrwt>
</event>
<event>
 4    1  0.2185255E+006  0.2213819E+02  0.7546771E-02  0.1705873E+00
         21   -1    0    0  501  502  0.00000000000E+00  0.00000000000E+00  0.22846124856E+03  0.22846124856E+03  0.00000000000E+00 0. -1.
          4   -1    0    0  503    0 -0.00000000000E+00 -0.00000000000E+00 -0.21489436185E+01  0.21489436185E+01  0.00000000000E+00 0. -1.
         21    1    1    2  503  502 -0.22105445140E+02 -0.12036312239E+01  0.10835581991E+03  0.11059422744E+03  0.00000000000E+00 0. -1.
          4    1    1    2  501    0  0.22105445140E+02  0.12036312239E+01  0.11795648503E+03  0.12001596474E+03  0.00000000000E+00 0. -1.
<mgrwt>
<rscale>  2 0.22138189E+02</rscale>
<asrwt>0</asrwt>
<pdfrwt beam="1">  1       21 0.35147865E-01 0.22138189E+02</pdfrwt>
<pdfrwt beam="2">  1        4 0.33060689E-03 0.22138189E+02</pdfrwt>
<totfact> 0.27767210E+06</totfact>
</mgrwt>
</event>
<event>
 4    1  0.2185255E+006  0.2065639E+02  0.7546771E-02  0.1732581E+00
          1   -1    0    0  503    0 -0.00000000000E+00  0.00000000000E+00  0.17966843712E+01  0.17966843712E+01  0.00000000000E+00 0.  1.
         21   -1    0    0  501  502  0.00000000000E+00 -0.00000000000E+00 -0.34114091578E+03  0.34114091578E+03  0.00000000000E+00 0.  1.
         21    1    1    2  503  502 -0.15466116768E+02 -0.13692537326E+02 -0.26419008131E+03  0.26499638754E+03  0.00000000000E+00 0.  1.
          1    1    1    2  501    0  0.15466116768E+02  0.13692537326E+02 -0.75154150093E+02  0.77941212607E+02  0.00000000000E+00 0.  1.
<mgrwt>
<rscale>  2 0.20656388E+02</rscale>
<asrwt>0</asrwt>
<pdfrwt beam="2">  1       21 0.52483257E-01 0.20656388E+02</pdfrwt>
<pdfrwt beam="1">  1        1 0.27641277E-03 0.20656388E+02</pdfrwt>
<totfact> 0.23623836E+06</totfact>
</mgrwt>
</event>
<event>
 4    1  0.2185255E+006  0.2513054E+02  0.7546771E-02  0.1659134E+00
         21   -1    0    0  501  502  0.00000000000E+00  0.00000000000E+00  0.42953354886E+01  0.42953354886E+01  0.00000000000E+00 0.  1.
          2   -1    0    0  503    0 -0.00000000000E+00 -0.00000000000E+00 -0.15460463688E+03  0.15460463688E+03  0.00000000000E+00 0. -1.
         21    1    1    2  503  502  0.15514914492E+02  0.19769454218E+02 -0.57568989324E+02  0.62815065260E+02  0.00000000000E+00 0.  1.
          2    1    1    2  501    0 -0.15514914492E+02 -0.19769454218E+02 -0.92740312068E+02  0.96084907109E+02  0.00000000000E+00 0. -1.
<mgrwt>
<rscale>  2 0.25130537E+02</rscale>
<asrwt>0</asrwt>
<pdfrwt beam="1">  1       21 0.66082084E-03 0.25130537E+02</pdfrwt>
<pdfrwt beam="2">  1        2 0.23785329E-01 0.25130537E+02</pdfrwt>
<totfact> 0.13361021E+07</totfact>
</mgrwt>
</event>
<event>
 4    1  0.2185255E+006  0.2157133E+02  0.7546771E-02  0.1715773E+00
          2   -1    0    0  503    0 -0.00000000000E+00  0.00000000000E+00  0.40536887828E+03  0.40536887828E+03  0.00000000000E+00 0. -1.
         21   -1    0    0  501  502  0.00000000000E+00 -0.00000000000E+00 -0.17597577034E+02  0.17597577034E+02  0.00000000000E+00 0.  1.
         21    1    1    2  503  502  0.13359036121E+02 -0.16936891144E+02 -0.10583694763E+02  0.24027832248E+02  0.00000000000E+00 0.  1.
          2    1    1    2  501    0 -0.13359036121E+02  0.16936891144E+02  0.39835499601E+03  0.39893862307E+03  0.00000000000E+00 0. -1.
<mgrwt>
<rscale>  2 0.21571327E+02</rscale>
<asrwt>0</asrwt>
<pdfrwt beam="2">  1       21 0.27073199E-02 0.21571327E+02</pdfrwt>
<pdfrwt beam="1">  1        2 0.62364435E-01 0.21571327E+02</pdfrwt>
<totfact> 0.57926742E+05</totfact>
</mgrwt>
</event>
<event>
 4    1  0.2185255E+006  0.2201948E+02  0.7546771E-02  0.1707915E+00
         21   -1    0    0  503  502  0.00000000000E+00  0.00000000000E+00  0.49359673291E+02  0.49359673291E+02  0.00000000000E+00 0.  1.
         -2   -1    0    0    0  501 -0.00000000000E+00 -0.00000000000E+00 -0.18896079396E+03  0.18896079396E+03  0.00000000000E+00 0. -1.
         21    1    1    2  503  501  0.18985803645E+02 -0.11153336398E+02  0.46221123386E+02  0.51198143520E+02  0.00000000000E+00 0.  1.
         -2    1    1    2    0  502 -0.18985803645E+02  0.11153336398E+02 -0.18582224406E+03  0.18712232373E+03  0.00000000000E+00 0. -1.
<mgrwt>
<rscale>  2 0.22019483E+02</rscale>
<asrwt>0</asrwt>
<pdfrwt beam="1">  1       21 0.75937959E-02 0.22019483E+02</pdfrwt>
<pdfrwt beam="2">  1       -2 0.29070891E-01 0.22019483E+02</pdfrwt>
<totfact> 0.93741945E+04</totfact>
</mgrwt>
</event>
<event>
 4    1  0.2185255E+006  0.4215352E+02  0.7546771E-02  0.1492936E+00
          1   -1    0    0  503    0 -0.00000000000E+00  0.00000000000E+00  0.35315670868E+04  0.35315670868E+04  0.00000000000E+00 0. -1.
         21   -1    0    0  501  502  0.00000000000E+00 -0.00000000000E+00 -0.10164820587E+01  0.10164820587E+01  0.00000000000E+00 0. -1.
         21    1    1    2  503  502 -0.45434926016E+01  0.41907947987E+02  0.51008258005E+03  0.51182141211E+03  0.00000000000E+00 0. -1.
          1    1    1    2  501    0  0.45434926016E+01 -0.41907947987E+02  0.30204680247E+04  0.30207621567E+04  0.00000000000E+00 0. -1.
<mgrwt>
<rscale>  2 0.42153522E+02</rscale>
<asrwt>0</asrwt>
<pdfrwt beam="2">  1       21 0.15638468E-03 0.42153522E+02</pdfrwt>
<pdfrwt beam="1">  1        1 0.54330819E+00 0.42153522E+02</pdfrwt>
<totfact> 0.23103937E+05</totfact>
</mgrwt>
</event>
<event>
 4    1  0.2185255E+006  0.2380257E+02  0.7546771E-02  0.1678822E+00
          4   -1    0    0  503    0 -0.00000000000E+00  0.00000000000E+00  0.70475451342E+02  0.70475451342E+02  0.00000000000E+00 0. -1.
         21   -1    0    0  501  502  0.00000000000E+00 -0.00000000000E+00 -0.13770760316E+02  0.13770760316E+02  0.00000000000E+00 0. -1.
         21    1    1    2  503  502  0.18347181295E+02  0.15163873519E+02  0.11766869402E+01  0.23831632629E+02  0.00000000000E+00 0. -1.
          4    1    1    2  501    0 -0.18347181295E+02 -0.15163873519E+02  0.55528004085E+02  0.60414579029E+02  0.00000000000E+00 0. -1.
<mgrwt>
<rscale>  2 0.23802565E+02</rscale>
<asrwt>0</asrwt>
<pdfrwt beam="2">  1       21 0.21185785E-02 0.23802565E+02</pdfrwt>
<pdfrwt beam="1">  1        4 0.10842377E-01 0.23802565E+02</pdfrwt>
<totfact> 0.17046325E+06</totfact>
</mgrwt>
</event>
<event>
 4    1  0.2185255E+006  0.2365503E+02  0.7546771E-02  0.1681107E+00
         21   -1    0    0  501  502  0.00000000000E+00  0.00000000000E+00  0.19375345194E+03  0.19375345194E+03  0.00000000000E+00 0.  1.
         -3   -1    0    0    0  501 -0.00000000000E+00 -0.00000000000E+00 -0.39979371020E+02  0.39979371020E+02  0.00000000000E+00 0. -1.
         21    1    1    2  503  502 -0.10928462053E+02 -0.20979255867E+02  0.18945328015E+03  0.19092434580E+03  0.00000000000E+00 0.  1.
         -3    1    1    2    0  503  0.10928462053E+02  0.20979255867E+02 -0.35679199227E+02  0.42808477164E+02  0.00000000000E+00 0. -1.
<mgrwt>
<rscale>  2 0.23655030E+02</rscale>
<asrwt>0</asrwt>
<pdfrwt beam="1">  1       21 0.29808223E-01 0.23655030E+02</pdfrwt>
<pdfrwt beam="2">  1       -3 0.61506726E-02 0.23655030E+02</pdfrwt>
<totfact> 0.64116788E+04</totfact>
</mgrwt>
</event>
<event>
 4    1  0.2185255E+006  0.2304032E+02  0.7546771E-02  0.1690857E+00
         21   -1    0    0  501  502  0.00000000000E+00  0.00000000000E+00  0.14749952161E+02  0.14749952161E+02  0.00000000000E+00 0. -1.
          2   -1    0    0  503    0 -0.00000000000E+00 -0.00000000000E+00 -0.97257262968E+02  0.97257262968E+02  0.00000000000E+00 0.  1.
         21    1    1    2  503  502  0.33022059770E+01  0.22802453371E+02  0.31959449103E+01  0.23260922336E+02  0.00000000000E+00 0. -1.
          2    1    1    2  501    0 -0.33022059770E+01 -0.22802453371E+02 -0.85703255718E+02  0.88746292794E+02  0.00000000000E+00 0.  1.
<mgrwt>
<rscale>  2 0.23040322E+02</rscale>
<asrwt>0</asrwt>
<pdfrwt beam="1">  1       21 0.22692234E-02 0.23040322E+02</pdfrwt>
<pdfrwt beam="2">  1        2 0.14962656E-01 0.23040322E+02</pdfrwt>
<totfact> 0.33089486E+06</totfact>
</mgrwt>
</event>
<event>
 4    1  0.2185255E+006  0.2394366E+02  0.7546771E-02  0.1676655E+00
          2   -1    0    0  503    0 -0.00000000000E+00  0.00000000000E+00  0.65398917997E+03  0.65398917997E+03  0.00000000000E+00 0.  1.
         21   -1    0    0  501  502  0.00000000000E+00 -0.00000000000E+00 -0.37684668029E+01  0.37684668029E+01  0.00000000000E+00 0.  1.
         21    1    1    2  503  502 -0.23933032308E+02  0.71317671995E+00  0.37011617245E+02  0.44081271166E+02  0.00000000000E+00 0.  1.
          2    1    1    2  501    0  0.23933032308E+02 -0.71317671995E+00  0.61320909593E+03  0.61367637561E+03  0.00000000000E+00 0.  1.
<mgrwt>
<rscale>  2 0.23943656E+02</rscale>
<asrwt>0</asrwt>
<pdfrwt beam="2">  1       21 0.57976464E-03 0.23943656E+02</pdfrwt>
<pdfrwt beam="1">  1        2 0.10061363E+00 0.23943656E+02</pdfrwt>
<totfact> 0.37392867E+06</totfact>
</mgrwt>
</event>
<event>
 4    1  0.2185255E+006  0.2051753E+02  0.7546771E-02  0.1735228E+00
         21   -1    0    0  501  502  0.00000000000E+00  0.00000000000E+00  0.46869259033E+02  0.46869259033E+02  0.00000000000E+00 0. -1.
          1   -1    0    0  503    0 -0.00000000000E+00 -0.00000000000E+00 -0.54124591091E+03  0.54124591091E+03  0.00000000000E+00 0. -1.
         21    1    1    2  503  502 -0.78813176362E+01  0.18943442452E+02  0.44419163428E+02  0.48928838728E+02  0.00000000000E+00 0. -1.
          1    1    1    2  501    0  0.78813176362E+01 -0.18943442452E+02 -0.53879581530E+03  0.53918633122E+03  0.00000000000E+00 0. -1.
<mgrwt>
<rscale>  2 0.20517533E+02</rscale>
<asrwt>0</asrwt>
<pdfrwt beam="1">  1       21 0.72106551E-02 0.20517533E+02</pdfrwt>
<pdfrwt beam="2">  1        1 0.83268604E-01 0.20517533E+02</pdfrwt>
<totfact> 0.59200604E+04</totfact>
</mgrwt>
</event>
<event>
 4    1  0.2185255E+006  0.2563737E+02  0.7546771E-02  0.1652012E+00
         21   -1    0    0  501  502  0.00000000000E+00  0.00000000000E+00  0.72200489821E+02  0.72200489821E+02  0.00000000000E+00 0. -1.
          2   -1    0    0  503    0 -0.00000000000E+00 -0.00000000000E+00 -0.93576840550E+01  0.93576840550E+01  0.00000000000E+00 0.  1.
         21    1    1    2  503  502 -0.14936712870E+02  0.20836729978E+02  0.38142752185E+02  0.45958070583E+02  0.00000000000E+00 0. -1.
          2    1    1    2  501    0  0.14936712870E+02 -0.20836729978E+02  0.24700053582E+02  0.35600103293E+02  0.00000000000E+00 0.  1.
<mgrwt>
<rscale>  2 0.25637369E+02</rscale>
<asrwt>0</asrwt>
<pdfrwt beam="1">  1       21 0.11107767E-01 0.25637369E+02</pdfrwt>
<pdfrwt beam="2">  1        2 0.14396437E-02 0.25637369E+02</pdfrwt>
<totfact> 0.46747905E+06</totfact>
</mgrwt>
</event>
<event>
 4    1  0.2185255E+006  0.2378032E+02  0.7546771E-02  0.1679165E+00
         -3   -1    0    0    0  501 -0.00000000000E+00  0.00000000000E+00  0.62246959996E+00  0.62246959996E+00  0.00000000000E+00 0.  1.
         21   -1    0    0  501  502  0.00000000000E+00 -0.00000000000E+00 -0.13324585724E+04  0.13324585724E+04  0.00000000000E+00 0.  1.
         21    1    1    2  503  502 -0.17600613020E+01 -0.23715097779E+02 -0.10419022550E+04  0.10421736001E+04  0.00000000000E+00 0.  1.
         -3    1    1    2    0  503  0.17600613020E+01  0.23715097779E+02 -0.28993384776E+03  0.29090744191E+03  0.00000000000E+00 0.  1.
<mgrwt>
<rscale>  2 0.23780321E+02</rscale>
<asrwt>0</asrwt>
<pdfrwt beam="2">  1       21 0.20499279E+00 0.23780321E+02</pdfrwt>
<pdfrwt beam="1">  1       -3 0.95764943E-04 0.23780321E+02</pdfrwt>
<totfact> 0.41130770E+05</totfact>
</mgrwt>
</event>
<event>
 4    1  0.2185255E+006  0.2019050E+02  0.7546771E-02  0.1741566E+00
         21   -1    0    0  501  502  0.00000000000E+00  0.00000000000E+00  0.87537849051E+03  0.87537849051E+03  0.00000000000E+00 0.  1.
         -3   -1    0    0    0  501 -0.00000000000E+00 -0.00000000000E+00 -0.11811524310E+01  0.11811524310E+01  0.00000000000E+00 0.  1.
         21    1    1    2  503  502 -0.19894190859E+02  0.34463685629E+01  0.77820633221E+03  0.77846820859E+03  0.00000000000E+00 0.  1.
         -3    1    1    2    0  503  0.19894190859E+02 -0.34463685629E+01  0.95991005865E+02  0.98091434351E+02  0.00000000000E+00 0.  1.
<mgrwt>
<rscale>  2 0.20190500E+02</rscale>
<asrwt>0</asrwt>
<pdfrwt beam="1">  1       21 0.13467310E+00 0.20190500E+02</pdfrwt>
<pdfrwt beam="2">  1       -3 0.18171646E-03 0.20190500E+02</pdfrwt>
<totfact> 0.45398219E+05</totfact>
</mgrwt>
</event>
<event>
 4    1  0.2185255E+006  0.2283430E+02  0.7546771E-02  0.1694210E+00
         21   -1    0    0  503  502  0.00000000000E+00  0.00000000000E+00  0.19944216803E+01  0.19944216803E+01  0.00000000000E+00 0.  1.
          2   -1    0    0  502    0 -0.00000000000E+00 -0.00000000000E+00 -0.10792864777E+04  0.10792864777E+04  0.00000000000E+00 0. -1.
         21    1    1    2  503  501  0.21314613178E+02  0.81909910826E+01 -0.68017485384E+02  0.71748054941E+02  0.00000000000E+00 0.  1.
          2    1    1    2  501    0 -0.21314613178E+02 -0.81909910826E+01 -0.10092745707E+04  0.10095328445E+04  0.00000000000E+00 0. -1.
<mgrwt>
<rscale>  2 0.22834296E+02</rscale>
<asrwt>0</asrwt>
<pdfrwt beam="1">  1       21 0.30683497E-03 0.22834296E+02</pdfrwt>
<pdfrwt beam="2">  1        2 0.16604361E+00 0.22834296E+02</pdfrwt>
<totfact> 0.52595603E+06</totfact>
</mgrwt>
</event>
<event>
 4    1  0.2185255E+006  0.3360418E+02  0.7546771E-02  0.1561357E+00
          1   -1    0    0  502    0 -0.00000000000E+00  0.00000000000E+00  0.21648807591E+04  0.21648807591E+04  0.00000000000E+00 0. -1.
         21   -1    0    0  503  502  0.00000000000E+00 -0.00000000000E+00 -0.30563049365E+01  0.30563049365E+01  0.00000000000E+00 0.  1.
         21    1    1    2  503  501  0.15681442903E+02 -0.29720920412E+02  0.93768257261E+02  0.99607865309E+02  0.00000000000E+00 0.  1.
          1    1    1    2  501    0 -0.15681442903E+02  0.29720920412E+02  0.20680561969E+04  0.20683291988E+04  0.00000000000E+00 0. -1.
<mgrwt>
<rscale>  2 0.33604178E+02</rscale>
<asrwt>0</asrwt>
<pdfrwt beam="2">  1       21 0.47020249E-03 0.33604178E+02</pdfrwt>
<pdfrwt beam="1">  1        1 0.33305735E+00 0.33604178E+02</pdfrwt>
<totfact> 0.35016619E+05</totfact>
</mgrwt>
</event>
<event>
 4    1  0.2185255E+006  0.2060322E+02  0.7546771E-02  0.1733592E+00
         -2   -1    0    0    0  501 -0.00000000000E+00  0.00000000000E+00  0.33987371700E+02  0.33987371700E+02  0.00000000000E+00 0.  1.
         21   -1    0    0  501  502  0.00000000000E+00 -0.00000000000E+00 -0.41950491958E+02  0.41950491958E+02  0.00000000000E+00 0.  1.
         21    1    1    2  503  502  0.42361546797E+00 -0.20598869492E+02 -0.35800220121E+02  0.41305552110E+02  0.00000000000E+00 0.  1.
         -2    1    1    2    0  503 -0.42361546797E+00  0.20598869492E+02  0.27837099863E+02  0.34632311548E+02  0.00000000000E+00 0.  1.
<mgrwt>
<rscale>  2 0.20603225E+02</rscale>
<asrwt>0</asrwt>
<pdfrwt beam="2">  1       21 0.64539218E-02 0.20603225E+02</pdfrwt>
<pdfrwt beam="1">  1       -2 0.52288265E-02 0.20603225E+02</pdfrwt>
<totfact> 0.16607496E+06</totfact>
</mgrwt>
</event>
<event>
 4    1  0.2185255E+006  0.3513242E+02  0.7546771E-02  0.1547428E+00
         -4   -1    0    0    0  501 -0.00000000000E+00  0.00000000000E+00  0.56692726772E+02  0.56692726772E+02  0.00000000000E+00 0. -1.
         21   -1    0    0  503  502  0.00000000000E+00 -0.00000000000E+00 -0.11613207965E+03  0.11613207965E+03  0.00000000000E+00 0. -1.
         21    1    1    2  503  501 -0.24862319512E+02 -0.24822406557E+02 -0.10761210368E+03  0.11320181825E+03  0.00000000000E+00 0. -1.
         -4    1    1    2    0  502  0.24862319512E+02  0.24822406557E+02  0.48172750797E+02  0.59622988168E+02  0.00000000000E+00 0. -1.
<mgrwt>
<rscale>  2 0.35132418E+02</rscale>
<asrwt>0</asrwt>
<pdfrwt beam="2">  1       21 0.17866474E-01 0.35132418E+02</pdfrwt>
<pdfrwt beam="1">  1       -4 0.87219581E-02 0.35132418E+02</pdfrwt>
<totfact> 0.85469260E+04</totfact>
</mgrwt>
</event>
<event>
 4    1  0.2185255E+006  0.3299758E+02  0.7546771E-02  0.1567137E+00
          1   -1    0    0  503    0 -0.00000000000E+00  0.00000000000E+00  0.19184655565E+04  0.19184655565E+04  0.00000000000E+00 0.  1.
         21   -1    0    0  501  502  0.00000000000E+00 -0.00000000000E+00 -0.45211022727E+01  0.45211022727E+01  0.00000000000E+00 0.  1.
         21    1    1    2  503  502 -0.22872758605E+02  0.23783975517E+02  0.57852740688E+02  0.66601653003E+02  0.00000000000E+00 0.  1.
          1    1    1    2  501    0  0.22872758605E+02 -0.23783975517E+02  0.18560917136E+04  0.18563850058E+04  0.00000000000E+00 0.  1.
<mgrwt>
<rscale>  2 0.32997584E+02</rscale>
<asrwt>0</asrwt>
<pdfrwt beam="2">  1       21 0.69555573E-03 0.32997584E+02</pdfrwt>
<pdfrwt beam="1">  1        1 0.29514790E+00 0.32997584E+02</pdfrwt>
<totfact> 0.27381383E+05</totfact>
</mgrwt>
</event>
<event>
 4    1  0.2185255E+006  0.2745805E+02  0.7546771E-02  0.1628015E+00
          2   -1    0    0  503    0 -0.00000000000E+00  0.00000000000E+00  0.11194325923E+04  0.11194325923E+04  0.00000000000E+00 0. -1.
         21   -1    0    0  501  502  0.00000000000E+00 -0.00000000000E+00 -0.37812251726E+02  0.37812251726E+02  0.00000000000E+00 0. -1.
         21    1    1    2  503  502  0.25646843087E+02  0.98073432686E+01 -0.32635931680E+02  0.42650305730E+02  0.00000000000E+00 0. -1.
          2    1    1    2  501    0 -0.25646843087E+02 -0.98073432686E+01  0.11142562723E+04  0.11145945383E+04  0.00000000000E+00 0. -1.
<mgrwt>
<rscale>  2 0.27458051E+02</rscale>
<asrwt>0</asrwt>
<pdfrwt beam="2">  1       21 0.58172703E-02 0.27458051E+02</pdfrwt>
<pdfrwt beam="1">  1        2 0.17222037E+00 0.27458051E+02</pdfrwt>
<totfact> 0.57875121E+04</totfact>
</mgrwt>
</event>
<event>
 4    1  0.2185255E+006  0.2016904E+02  0.7546771E-02  0.1741987E+00
         21   -1    0    0  501  502  0.00000000000E+00  0.00000000000E+00  0.40980677033E+01  0.40980677033E+01  0.00000000000E+00 0.  1.
          2   -1    0    0  503    0 -0.00000000000E+00 -0.00000000000E+00 -0.12879598019E+03  0.12879598019E+03  0.00000000000E+00 0. -1.
         21    1    1    2  503  502  0.16451141352E+02 -0.11668336276E+02 -0.30531056704E+02  0.36591468223E+02  0.00000000000E+00 0.  1.
          2    1    1    2  501    0 -0.16451141352E+02  0.11668336276E+02 -0.94166855785E+02  0.96302579673E+02  0.00000000000E+00 0. -1.
<mgrwt>
<rscale>  2 0.20169039E+02</rscale>
<asrwt>0</asrwt>
<pdfrwt beam="1">  1       21 0.63047209E-03 0.20169039E+02</pdfrwt>
<pdfrwt beam="2">  1        2 0.19814762E-01 0.20169039E+02</pdfrwt>
<totfact> 0.16221453E+07</totfact>
</mgrwt>
</event>
<event>
 4    1  0.2185255E+006  0.2733690E+02  0.7546771E-02  0.1629540E+00
         21   -1    0    0  503  502  0.00000000000E+00  0.00000000000E+00  0.67291267534E+01  0.67291267534E+01  0.00000000000E+00 0.  1.
         -1   -1    0    0    0  501 -0.00000000000E+00 -0.00000000000E+00 -0.34232974980E+03  0.34232974980E+03  0.00000000000E+00 0.  1.
         21    1    1    2  503  501  0.24819435086E+02  0.11458706705E+02 -0.24347177558E+02  0.36607258466E+02  0.00000000000E+00 0.  1.
         -1    1    1    2    0  502 -0.24819435086E+02 -0.11458706705E+02 -0.31125344549E+03  0.31245161809E+03  0.00000000000E+00 0.  1.
<mgrwt>
<rscale>  2 0.27336904E+02</rscale>
<asrwt>0</asrwt>
<pdfrwt beam="1">  1       21 0.10352502E-02 0.27336904E+02</pdfrwt>
<pdfrwt beam="2">  1       -1 0.52666118E-01 0.27336904E+02</pdfrwt>
<totfact> 0.93235404E+05</totfact>
</mgrwt>
</event>
<event>
 4    1  0.2185255E+006  0.2021848E+02  0.7546771E-02  0.1741018E+00
         21   -1    0    0  503  502  0.00000000000E+00  0.00000000000E+00  0.47274773692E+01  0.47274773692E+01  0.00000000000E+00 0. -1.
          2   -1    0    0  502    0 -0.00000000000E+00 -0.00000000000E+00 -0.91874822456E+03  0.91874822456E+03  0.00000000000E+00 0.  1.
         21    1    1    2  503  501  0.18684927227E+02 -0.77240098341E+01 -0.17538197721E+02  0.26765186580E+02  0.00000000000E+00 0. -1.
          2    1    1    2  501    0 -0.18684927227E+02  0.77240098341E+01 -0.89648254947E+03  0.89671051535E+03  0.00000000000E+00 0.  1.
<mgrwt>
<rscale>  2 0.20218478E+02</rscale>
<asrwt>0</asrwt>
<pdfrwt beam="1">  1       21 0.72730459E-03 0.20218478E+02</pdfrwt>
<pdfrwt beam="2">  1        2 0.14134581E+00 0.20218478E+02</pdfrwt>
<totfact> 0.17608659E+06</totfact>
</mgrwt>
</event>
<event>
 4    1  0.2185255E+006  0.2176831E+02  0.7546771E-02  0.1712290E+00
          2   -1    0    0  503    0 -0.00000000000E+00  0.00000000000E+00  0.29904607070E+02  0.29904607070E+02  0.00000000000E+00 0. -1.
         21   -1    0    0  501  502  0.00000000000E+00 -0.00000000000E+00 -0.72296783409E+02  0.72296783409E+02  0.00000000000E+00 0. -1.
         21    1    1    2  503  502  0.30386988331E+01  0.21555172479E+02 -0.66350843980E+02  0.69830463611E+02  0.00000000000E+00 0. -1.
          2    1    1    2  501    0 -0.30386988331E+01 -0.21555172479E+02  0.23958667641E+02  0.32370926869E+02  0.00000000000E+00 0. -1.
<mgrwt>
<rscale>  2 0.21768306E+02</rscale>
<asrwt>0</asrwt>
<pdfrwt beam="2">  1       21 0.11122582E-01 0.21768306E+02</pdfrwt>
<pdfrwt beam="1">  1        2 0.46007088E-02 0.21768306E+02</pdfrwt>
<totfact> 0.10270381E+06</totfact>
</mgrwt>
</event>
<event>
 4    1  0.2185255E+006  0.2433868E+02  0.7546771E-02  0.1670686E+00
          1   -1    0    0  503    0 -0.00000000000E+00  0.00000000000E+00  0.22291328626E+03  0.22291328626E+03  0.00000000000E+00 0.  1.
         21   -1    0    0  501  502  0.00000000000E+00 -0.00000000000E+00 -0.39191778354E+01  0.39191778354E+01  0.00000000000E+00 0. -1.
         21    1    1    2  503  502  0.16141041998E+02 -0.18216429432E+02  0.45144200630E+02  0.51287136678E+02  0.00000000000E+00 0. -1.
          1    1    1    2  501    0 -0.16141041998E+02  0.18216429432E+02  0.17384990779E+03  0.17554532742E+03  0.00000000000E+00 0.  1.
<mgrwt>
<rscale>  2 0.24338684E+02</rscale>
<asrwt>0</asrwt>
<pdfrwt beam="2">  1       21 0.60295061E-03 0.24338684E+02</pdfrwt>
<pdfrwt beam="1">  1        1 0.34294342E-01 0.24338684E+02</pdfrwt>
<totfact> 0.78518123E+06</totfact>
</mgrwt>
</event>
<event>
 4    1  0.2185255E+006  0.2034653E+02  0.7546771E-02  0.1738523E+00
         21   -1    0    0  501  502  0.00000000000E+00  0.00000000000E+00  0.14345574470E+02  0.14345574470E+02  0.00000000000E+00 0. -1.
          1   -1    0    0  503    0 -0.00000000000E+00 -0.00000000000E+00 -0.15806908868E+03  0.15806908868E+03  0.00000000000E+00 0. -1.
         21    1    1    2  503  502  0.17621797013E+02  0.10171217855E+02  0.60801438245E+01  0.21235572786E+02  0.00000000000E+00 0. -1.
          1    1    1    2  501    0 -0.17621797013E+02 -0.10171217855E+02 -0.14980365803E+03  0.15117909036E+03  0.00000000000E+00 0. -1.
<mgrwt>
<rscale>  2 0.20346533E+02</rscale>
<asrwt>0</asrwt>
<pdfrwt beam="1">  1       21 0.22070115E-02 0.20346533E+02</pdfrwt>
<pdfrwt beam="2">  1        1 0.24318321E-01 0.20346533E+02</pdfrwt>
<totfact> 0.15832070E+06</totfact>
</mgrwt>
</event>
<event>
 4    1  0.2185255E+006  0.3356256E+02  0.7546771E-02  0.1561749E+00
          4   -1    0    0  503    0 -0.00000000000E+00  0.00000000000E+00  0.44633813478E+02  0.44633813478E+02  0.00000000000E+00 0. -1.
         21   -1    0    0  501  502  0.00000000000E+00 -0.00000000000E+00 -0.46212006573E+02  0.46212006573E+02  0.00000000000E+00 0. -1.
         21    1    1    2  503  502 -0.33423831755E+02  0.30484808275E+01 -0.31390647711E+02  0.45954526744E+02  0.00000000000E+00 0. -1.
          4    1    1    2  501    0  0.33423831755E+02 -0.30484808275E+01  0.29812454616E+02  0.44891293307E+02  0.00000000000E+00 0. -1.
<mgrwt>
<rscale>  2 0.33562565E+02</rscale>
<asrwt>0</asrwt>
<pdfrwt beam="2">  1       21 0.71095394E-02 0.33562565E+02</pdfrwt>
<pdfrwt beam="1">  1        4 0.68667406E-02 0.33562565E+02</pdfrwt>
<totfact> 0.58964381E+05</totfact>
</mgrwt>
</event>
<event>
 4    1  0.2185255E+006  0.2470097E+02  0.7546771E-02  0.1665334E+00
         21   -1    0    0  501  502  0.00000000000E+00  0.00000000000E+00  0.28653462696E+02  0.28653462696E+02  0.00000000000E+00 0.  1.
          3   -1    0    0  503    0 -0.00000000000E+00 -0.00000000000E+00 -0.97628794905E+02  0.97628794905E+02  0.00000000000E+00 0. -1.
         21    1    1    2  503  502  0.22364617518E+02  0.10486265451E+02  0.21344636347E+02  0.32645541512E+02  0.00000000000E+00 0.  1.
          3    1    1    2  501    0 -0.22364617518E+02 -0.10486265451E+02 -0.90319968556E+02  0.93636716089E+02  0.00000000000E+00 0. -1.
<mgrwt>
<rscale>  2 0.24700969E+02</rscale>
<asrwt>0</asrwt>
<pdfrwt beam="1">  1       21 0.44082251E-02 0.24700969E+02</pdfrwt>
<pdfrwt beam="2">  1        3 0.15019814E-01 0.24700969E+02</pdfrwt>
<totfact> 0.39730668E+05</totfact>
</mgrwt>
</event>
<event>
 4    1  0.2185255E+006  0.3440038E+02  0.7546771E-02  0.1553991E+00
         21   -1    0    0  501  502  0.00000000000E+00  0.00000000000E+00  0.18897918541E+02  0.18897918541E+02  0.00000000000E+00 0.  1.
          2   -1    0    0  503    0 -0.00000000000E+00 -0.00000000000E+00 -0.11806502608E+04  0.11806502608E+04  0.00000000000E+00 0. -1.
         21    1    1    2  503  502  0.26084390287E+01 -0.34301345457E+02  0.27756704604E+01  0.34512180471E+02  0.00000000000E+00 0.  1.
          2    1    1    2  501    0 -0.26084390287E+01  0.34301345457E+02 -0.11645280127E+04  0.11650359989E+04  0.00000000000E+00 0. -1.
<mgrwt>
<rscale>  2 0.34400382E+02</rscale>
<asrwt>0</asrwt>
<pdfrwt beam="1">  1       21 0.29073731E-02 0.34400382E+02</pdfrwt>
<pdfrwt beam="2">  1        2 0.18163844E+00 0.34400382E+02</pdfrwt>
<totfact> 0.16475763E+05</totfact>
</mgrwt>
</event>
<event>
 4    1  0.2185255E+006  0.2743958E+02  0.7546771E-02  0.1628247E+00
          2   -1    0    0  502    0 -0.00000000000E+00  0.00000000000E+00  0.48517014157E+02  0.48517014157E+02  0.00000000000E+00 0.  1.
         21   -1    0    0  503  502  0.00000000000E+00 -0.00000000000E+00 -0.13481381368E+03  0.13481381368E+03  0.00000000000E+00 0.  1.
         21    1    1    2  503  501  0.27174872185E+02 -0.38021856418E+01 -0.12937659277E+03  0.13225442545E+03  0.00000000000E+00 0.  1.
          2    1    1    2  501    0 -0.27174872185E+02  0.38021856418E+01  0.43079793252E+02  0.51076402384E+02  0.00000000000E+00 0.  1.
<mgrwt>
<rscale>  2 0.27439575E+02</rscale>
<asrwt>0</asrwt>
<pdfrwt beam="2">  1       21 0.20740587E-01 0.27439575E+02</pdfrwt>
<pdfrwt beam="1">  1        2 0.74641561E-02 0.27439575E+02</pdfrwt>
<totfact> 0.20496861E+05</totfact>
</mgrwt>
</event>
<event>
 4    1  0.2185255E+006  0.2129358E+02  0.7546771E-02  0.1720763E+00
         -2   -1    0    0    0  501 -0.00000000000E+00  0.00000000000E+00  0.15780121966E+02  0.15780121966E+02  0.00000000000E+00 0.  1.
         21   -1    0    0  501  502  0.00000000000E+00 -0.00000000000E+00 -0.12115566266E+03  0.12115566266E+03  0.00000000000E+00 0.  1.
         21    1    1    2  503  502  0.16085407010E+02 -0.13952646181E+02 -0.11248807328E+03  0.11448573398E+03  0.00000000000E+00 0.  1.
         -2    1    1    2    0  503 -0.16085407010E+02  0.13952646181E+02  0.71125325900E+01  0.22450050645E+02  0.00000000000E+00 0.  1.
<mgrwt>
<rscale>  2 0.21293582E+02</rscale>
<asrwt>0</asrwt>
<pdfrwt beam="2">  1       21 0.18639332E-01 0.21293582E+02</pdfrwt>
<pdfrwt beam="1">  1       -2 0.24277111E-02 0.21293582E+02</pdfrwt>
<totfact> 0.83862580E+05</totfact>
</mgrwt>
</event>
<event>
 4    1  0.2185255E+006  0.2859563E+02  0.7546771E-02  0.1614152E+00
         21   -1    0    0  503  502  0.00000000000E+00  0.00000000000E+00  0.10313794402E+02  0.10313794402E+02  0.00000000000E+00 0. -1.
          2   -1    0    0  502    0 -0.00000000000E+00 -0.00000000000E+00 -0.69635588576E+03  0.69635588576E+03  0.00000000000E+00 0.  1.
         21    1    1    2  503  501  0.12133946961E+02 -0.25893576417E+02 -0.10408197513E+02  0.30430914281E+02  0.00000000000E+00 0. -1.
          2    1    1    2  501    0 -0.12133946961E+02  0.25893576417E+02 -0.67563389385E+03  0.67623876588E+03  0.00000000000E+00 0.  1.
<mgrwt>
<rscale>  2 0.28595628E+02</rscale>
<asrwt>0</asrwt>
<pdfrwt beam="1">  1       21 0.15867374E-02 0.28595628E+02</pdfrwt>
<pdfrwt beam="2">  1        2 0.10713169E+00 0.28595628E+02</pdfrwt>
<totfact> 0.79173950E+05</totfact>
</mgrwt>
</event>
<event>
 4    1  0.2185255E+006  0.2104289E+02  0.7546771E-02  0.1725350E+00
         21   -1    0    0  501  502  0.00000000000E+00  0.00000000000E+00  0.14867477158E+02  0.14867477158E+02  0.00000000000E+00 0.  1.
          2   -1    0    0  503    0 -0.00000000000E+00 -0.00000000000E+00 -0.11031380744E+04  0.11031380744E+04  0.00000000000E+00 0. -1.
         21    1    1    2  503  502 -0.10921591694E+02 -0.17986720376E+02  0.72696550205E+01  0.22263224365E+02  0.00000000000E+00 0.  1.
          2    1    1    2  501    0  0.10921591694E+02  0.17986720376E+02 -0.10955402523E+04  0.10957423272E+04  0.00000000000E+00 0. -1.
<mgrwt>
<rscale>  2 0.21042891E+02</rscale>
<asrwt>0</asrwt>
<pdfrwt beam="1">  1       21 0.22873045E-02 0.21042891E+02</pdfrwt>
<pdfrwt beam="2">  1        2 0.16971353E+00 0.21042891E+02</pdfrwt>
<totfact> 0.25082506E+05</totfact>
</mgrwt>
</event>
<event>
 4    1  0.2185255E+006  0.2348210E+02  0.7546771E-02  0.1683813E+00
          3   -1    0    0  503    0 -0.00000000000E+00  0.00000000000E+00  0.25754703779E+02  0.25754703779E+02  0.00000000000E+00 0. -1.
         21   -1    0    0  501  502  0.00000000000E+00 -0.00000000000E+00 -0.22565809936E+02  0.22565809936E+02  0.00000000000E+00 0. -1.
         21    1    1    2  503  502  0.20514945272E+02 -0.11425674617E+02 -0.38733625389E+01  0.23799410861E+02  0.00000000000E+00 0. -1.
          3    1    1    2  501    0 -0.20514945272E+02  0.11425674617E+02  0.70622563817E+01  0.24521102854E+02  0.00000000000E+00 0. -1.
<mgrwt>
<rscale>  2 0.23482100E+02</rscale>
<asrwt>0</asrwt>
<pdfrwt beam="2">  1       21 0.34716631E-02 0.23482100E+02</pdfrwt>
<pdfrwt beam="1">  1        3 0.39622621E-02 0.23482100E+02</pdfrwt>
<totfact> 0.44919097E+06</totfact>
</mgrwt>
</event>
<event>
 4    1  0.2185255E+006  0.3722562E+02  0.7546771E-02  0.1529680E+00
         21   -1    0    0  503  502  0.00000000000E+00  0.00000000000E+00  0.10959046571E+03  0.10959046571E+03  0.00000000000E+00 0.  1.
         -2   -1    0    0    0  501 -0.00000000000E+00 -0.00000000000E+00 -0.52061304129E+03  0.52061304129E+03  0.00000000000E+00 0.  1.
         21    1    1    2  503  501  0.29776711053E+02 -0.22340419619E+02  0.10574030971E+03  0.11210156095E+03  0.00000000000E+00 0.  1.
         -2    1    1    2    0  502 -0.29776711053E+02  0.22340419619E+02 -0.51676288530E+03  0.51810194605E+03  0.00000000000E+00 0.  1.
<mgrwt>
<rscale>  2 0.37225621E+02</rscale>
<asrwt>0</asrwt>
<pdfrwt beam="1">  1       21 0.16860071E-01 0.37225621E+02</pdfrwt>
<pdfrwt beam="2">  1       -2 0.80094315E-01 0.37225621E+02</pdfrwt>
<totfact> 0.37114486E+03</totfact>
</mgrwt>
</event>
<event>
 4    1  0.2185255E+006  0.2863159E+02  0.7546771E-02  0.1613726E+00
         -4   -1    0    0    0  501 -0.00000000000E+00  0.00000000000E+00  0.22993724294E+03  0.22993724294E+03  0.00000000000E+00 0.  1.
         21   -1    0    0  501  502  0.00000000000E+00 -0.00000000000E+00 -0.11247600852E+02  0.11247600852E+02  0.00000000000E+00 0. -1.
         21    1    1    2  503  502 -0.21023196615E+02  0.19436904472E+02  0.96806477861E+01  0.30223881169E+02  0.00000000000E+00 0. -1.
         -4    1    1    2    0  503  0.21023196615E+02 -0.19436904472E+02  0.20900899430E+03  0.21096096262E+03  0.00000000000E+00 0.  1.
<mgrwt>
<rscale>  2 0.28631592E+02</rscale>
<asrwt>0</asrwt>
<pdfrwt beam="2">  1       21 0.17304003E-02 0.28631592E+02</pdfrwt>
<pdfrwt beam="1">  1       -4 0.35374957E-01 0.28631592E+02</pdfrwt>
<totfact> 0.32480578E+05</totfact>
</mgrwt>
</event>
<event>
 4    1  0.2185255E+006  0.2024465E+02  0.7546771E-02  0.1740506E+00
         -2   -1    0    0    0  501 -0.00000000000E+00  0.00000000000E+00  0.71398010697E+02  0.71398010697E+02  0.00000000000E+00 0. -1.
         21   -1    0    0  503  502  0.00000000000E+00 -0.00000000000E+00 -0.53809977365E+02  0.53809977365E+02  0.00000000000E+00 0.  1.
         21    1    1    2  503  501 -0.11134767143E+02  0.16907474496E+02 -0.50376622043E+02  0.54292262631E+02  0.00000000000E+00 0.  1.
         -2    1    1    2    0  502  0.11134767143E+02 -0.16907474496E+02  0.67964655374E+02  0.70915725430E+02  0.00000000000E+00 0. -1.
<mgrwt>
<rscale>  2 0.20244647E+02</rscale>
<asrwt>0</asrwt>
<pdfrwt beam="2">  1       21 0.82784580E-02 0.20244647E+02</pdfrwt>
<pdfrwt beam="1">  1       -2 0.10984309E-01 0.20244647E+02</pdfrwt>
<totfact> 0.37638723E+05</totfact>
</mgrwt>
</event>
<event>
 4    1  0.2185255E+006  0.2168039E+02  0.7546771E-02  0.1713839E+00
         -1   -1    0    0    0  501 -0.00000000000E+00  0.00000000000E+00  0.48745397481E+01  0.48745397481E+01  0.00000000000E+00 0.  1.
         21   -1    0    0  503  502  0.00000000000E+00 -0.00000000000E+00 -0.51356765348E+03  0.51356765348E+03  0.00000000000E+00 0. -1.
         21    1    1    2  503  501 -0.18743329156E+02 -0.10896188197E+02 -0.48796791851E+03  0.48844931037E+03  0.00000000000E+00 0. -1.
         -1    1    1    2    0  502  0.18743329156E+02  0.10896188197E+02 -0.20725195216E+02  0.29992882853E+02  0.00000000000E+00 0.  1.
<mgrwt>
<rscale>  2 0.21680390E+02</rscale>
<asrwt>0</asrwt>
<pdfrwt beam="2">  1       21 0.79010420E-01 0.21680390E+02</pdfrwt>
<pdfrwt beam="1">  1       -1 0.74992908E-03 0.21680390E+02</pdfrwt>
<totfact> 0.27468618E+05</totfact>
</mgrwt>
</event>
<event>
 4    1  0.2185255E+006  0.2448749E+02  0.7546771E-02  0.1668474E+00
         21   -1    0    0  503  502  0.00000000000E+00  0.00000000000E+00  0.47565700099E+03  0.47565700099E+03  0.00000000000E+00 0.  1.
          2   -1    0    0  502    0 -0.00000000000E+00 -0.00000000000E+00 -0.11059890128E+02  0.11059890128E+02  0.00000000000E+00 0. -1.
         21    1    1    2  503  501  0.56017219309E+01  0.23838159870E+02  0.46136802445E+03  0.46201741433E+03  0.00000000000E+00 0.  1.
          2    1    1    2  501    0 -0.56017219309E+01 -0.23838159870E+02  0.32290864072E+01  0.24699476788E+02  0.00000000000E+00 0. -1.
<mgrwt>
<rscale>  2 0.24487490E+02</rscale>
<asrwt>0</asrwt>
<pdfrwt beam="1">  1       21 0.73177984E-01 0.24487490E+02</pdfrwt>
<pdfrwt beam="2">  1        2 0.17015219E-02 0.24487490E+02</pdfrwt>
<totfact> 0.11754295E+05</totfact>
</mgrwt>
</event>
<event>
 4    1  0.2185255E+006  0.2180920E+02  0.7546771E-02  0.1711573E+00
         21   -1    0    0  503  502  0.00000000000E+00  0.00000000000E+00  0.10280749525E+01  0.10280749525E+01  0.00000000000E+00 0.  1.
          2   -1    0    0  502    0 -0.00000000000E+00 -0.00000000000E+00 -0.47239985991E+03  0.47239985991E+03  0.00000000000E+00 0.  1.
         21    1    1    2  503  501  0.16178237136E+02 -0.14625518086E+02 -0.20168273544E+03  0.20285848987E+03  0.00000000000E+00 0.  1.
          2    1    1    2  501    0 -0.16178237136E+02  0.14625518086E+02 -0.26968904952E+03  0.27056944500E+03  0.00000000000E+00 0.  1.
<mgrwt>
<rscale>  2 0.21809198E+02</rscale>
<asrwt>0</asrwt>
<pdfrwt beam="1">  1       21 0.15816526E-03 0.21809198E+02</pdfrwt>
<pdfrwt beam="2">  1        2 0.72676956E-01 0.21809198E+02</pdfrwt>
<totfact> 0.33834612E+07</totfact>
</mgrwt>
</event>
<event>
 4    1  0.2185255E+006  0.5130024E+02  0.7546771E-02  0.1438452E+00
          2   -1    0    0  503    0 -0.00000000000E+00  0.00000000000E+00  0.25084326059E+04  0.25084326059E+04  0.00000000000E+00 0.  1.
         21   -1    0    0  501  502  0.00000000000E+00 -0.00000000000E+00 -0.26866346386E+03  0.26866346386E+03  0.00000000000E+00 0.  1.
         21    1    1    2  503  502  0.30226695097E+02 -0.41449508112E+02 -0.26594962972E+03  0.27085221131E+03  0.00000000000E+00 0.  1.
          2    1    1    2  501    0 -0.30226695097E+02  0.41449508112E+02  0.25057187717E+04  0.25062438584E+04  0.00000000000E+00 0.  1.
<mgrwt>
<rscale>  2 0.51300242E+02</rscale>
<asrwt>0</asrwt>
<pdfrwt beam="2">  1       21 0.41332842E-01 0.51300242E+02</pdfrwt>
<pdfrwt beam="1">  1        2 0.38591269E+00 0.51300242E+02</pdfrwt>
<totfact> 0.36949821E+02</totfact>
</mgrwt>
</event>
<event>
 4    1  0.2185255E+006  0.2436018E+02  0.7546771E-02  0.1670366E+00
         21   -1    0    0  501  502  0.00000000000E+00  0.00000000000E+00  0.11221304619E+02  0.11221304619E+02  0.00000000000E+00 0.  1.
         -1   -1    0    0    0  501 -0.00000000000E+00 -0.00000000000E+00 -0.13413955374E+03  0.13413955374E+03  0.00000000000E+00 0. -1.
         21    1    1    2  503  502  0.24276114961E+02  0.20219979546E+01 -0.48915207809E+01  0.24846432518E+02  0.00000000000E+00 0.  1.
         -1    1    1    2    0  503 -0.24276114961E+02 -0.20219979546E+01 -0.11802672834E+03  0.12051442584E+03  0.00000000000E+00 0. -1.
<mgrwt>
<rscale>  2 0.24360177E+02</rscale>
<asrwt>0</asrwt>
<pdfrwt beam="1">  1       21 0.17263545E-02 0.24360177E+02</pdfrwt>
<pdfrwt beam="2">  1       -1 0.20636855E-01 0.24360177E+02</pdfrwt>
<totfact> 0.19134328E+06</totfact>
</mgrwt>
</event>
<event>
 4    1  0.2185255E+006  0.2220765E+02  0.7546771E-02  0.1704685E+00
         21   -1    0    0  501  502  0.00000000000E+00  0.00000000000E+00  0.36982256512E+00  0.36982256512E+00  0.00000000000E+00 0. -1.
          2   -1    0    0  503    0 -0.00000000000E+00 -0.00000000000E+00 -0.17943034741E+04  0.17943034741E+04  0.00000000000E+00 0. -1.
         21    1    1    2  503  502  0.14517851942E+02 -0.16805111509E+02 -0.44225311525E+03  0.44281034060E+03  0.00000000000E+00 0. -1.
          2    1    1    2  501    0 -0.14517851942E+02  0.16805111509E+02 -0.13516805363E+04  0.13518629561E+04  0.00000000000E+00 0. -1.
<mgrwt>
<rscale>  2 0.22207652E+02</rscale>
<asrwt>0</asrwt>
<pdfrwt beam="1">  1       21 0.56896092E-04 0.22207652E+02</pdfrwt>
<pdfrwt beam="2">  1        2 0.27604517E+00 0.22207652E+02</pdfrwt>
<totfact> 0.26418025E+07</totfact>
</mgrwt>
</event>
<event>
 4    1  0.2185255E+006  0.3296812E+02  0.7546771E-02  0.1567422E+00
         -2   -1    0    0    0  501 -0.00000000000E+00  0.00000000000E+00  0.40805560674E+03  0.40805560674E+03  0.00000000000E+00 0. -1.
         21   -1    0    0  501  502  0.00000000000E+00 -0.00000000000E+00 -0.39697246327E+01  0.39697246327E+01  0.00000000000E+00 0.  1.
         21    1    1    2  503  502 -0.29108122911E+02  0.15479465785E+02  0.83873240275E+02  0.90120015061E+02  0.00000000000E+00 0.  1.
         -2    1    1    2    0  503  0.29108122911E+02 -0.15479465785E+02  0.32021264184E+03  0.32190531632E+03  0.00000000000E+00 0. -1.
<mgrwt>
<rscale>  2 0.32968116E+02</rscale>
<asrwt>0</asrwt>
<pdfrwt beam="2">  1       21 0.61072719E-03 0.32968116E+02</pdfrwt>
<pdfrwt beam="1">  1       -2 0.62777753E-01 0.32968116E+02</pdfrwt>
<totfact> 0.12171828E+06</totfact>
</mgrwt>
</event>
<event>
 4    1  0.2185255E+006  0.2039415E+02  0.7546771E-02  0.1737602E+00
         21   -1    0    0  503  502  0.00000000000E+00  0.00000000000E+00  0.21073608572E+02  0.21073608572E+02  0.00000000000E+00 0. -1.
          3   -1    0    0  502    0 -0.00000000000E+00 -0.00000000000E+00 -0.95287899826E+03  0.95287899826E+03  0.00000000000E+00 0.  1.
         21    1    1    2  503  501  0.16451429603E+02  0.12052877356E+02  0.16003947382E+02  0.25923883203E+02  0.00000000000E+00 0. -1.
          3    1    1    2  501    0 -0.16451429603E+02 -0.12052877356E+02 -0.94780933707E+03  0.94802872363E+03  0.00000000000E+00 0.  1.
<mgrwt>
<rscale>  2 0.20394151E+02</rscale>
<asrwt>0</asrwt>
<pdfrwt beam="1">  1       21 0.32420942E-02 0.20394151E+02</pdfrwt>
<pdfrwt beam="2">  1        3 0.14659674E+00 0.20394151E+02</pdfrwt>
<totfact> 0.78347737E+03</totfact>
</mgrwt>
</event>
<event>
 4    1  0.2185255E+006  0.2146578E+02  0.7546771E-02  0.1717658E+00
         21   -1    0    0  503  502  0.00000000000E+00  0.00000000000E+00  0.27708843756E+03  0.27708843756E+03  0.00000000000E+00 0.  1.
         -4   -1    0    0    0  501 -0.00000000000E+00 -0.00000000000E+00 -0.56561958194E+01  0.56561958194E+01  0.00000000000E+00 0.  1.
         21    1    1    2  503  501 -0.21313039276E+02 -0.25562180038E+01  0.25450233144E+03  0.25540598388E+03  0.00000000000E+00 0.  1.
         -4    1    1    2    0  502  0.21313039276E+02  0.25562180038E+01  0.16929910301E+02  0.27338649500E+02  0.00000000000E+00 0.  1.
<mgrwt>
<rscale>  2 0.21465784E+02</rscale>
<asrwt>0</asrwt>
<pdfrwt beam="1">  1       21 0.42628980E-01 0.21465784E+02</pdfrwt>
<pdfrwt beam="2">  1       -4 0.87018419E-03 0.21465784E+02</pdfrwt>
<totfact> 0.48528815E+05</totfact>
</mgrwt>
</event>
<event>
 4    1  0.2185255E+006  0.2218528E+02  0.7546771E-02  0.1705067E+00
          4   -1    0    0  503    0 -0.00000000000E+00  0.00000000000E+00  0.11864867396E+04  0.11864867396E+04  0.00000000000E+00 0. -1.
         21   -1    0    0  501  502  0.00000000000E+00 -0.00000000000E+00 -0.56937128509E+00  0.56937128509E+00  0.00000000000E+00 0.  1.
         21    1    1    2  503  502 -0.12136019376E+02  0.18571578905E+02  0.28373680582E+03  0.28460281356E+03  0.00000000000E+00 0.  1.
          4    1    1    2  501    0  0.12136019376E+02 -0.18571578905E+02  0.90218056251E+03  0.90245329734E+03  0.00000000000E+00 0. -1.
<mgrwt>
<rscale>  2 0.22185277E+02</rscale>
<asrwt>0</asrwt>
<pdfrwt beam="2">  1       21 0.87596532E-04 0.22185277E+02</pdfrwt>
<pdfrwt beam="1">  1        4 0.18253444E+00 0.22185277E+02</pdfrwt>
<totfact> 0.71831540E+05</totfact>
</mgrwt>
</event>
<event>
 4    1  0.2185255E+006  0.3471632E+02  0.7546771E-02  0.1551134E+00
          1   -1    0    0  502    0 -0.00000000000E+00  0.00000000000E+00  0.45071065834E+03  0.45071065834E+03  0.00000000000E+00 0.  1.
         21   -1    0    0  503  502  0.00000000000E+00 -0.00000000000E+00 -0.26319343931E+03  0.26319343931E+03  0.00000000000E+00 0.  1.
         21    1    1    2  503  501  0.34624875764E+02 -0.25180911862E+01 -0.26137549041E+03  0.26367094984E+03  0.00000000000E+00 0.  1.
          1    1    1    2  501    0 -0.34624875764E+02  0.25180911862E+01  0.44889270943E+03  0.45023314781E+03  0.00000000000E+00 0.  1.
<mgrwt>
<rscale>  2 0.34716319E+02</rscale>
<asrwt>0</asrwt>
<pdfrwt beam="2">  1       21 0.40491298E-01 0.34716319E+02</pdfrwt>
<pdfrwt beam="1">  1        1 0.69340101E-01 0.34716319E+02</pdfrwt>
<totfact> 0.36921257E+03</totfact>
</mgrwt>
</event>
<event>
 4    1  0.2185255E+006  0.2175001E+02  0.7546771E-02  0.1712612E+00
          1   -1    0    0  503    0 -0.00000000000E+00  0.00000000000E+00  0.93974034498E+03  0.93974034498E+03  0.00000000000E+00 0.  1.
         21   -1    0    0  501  502  0.00000000000E+00 -0.00000000000E+00 -0.63793545661E+00  0.63793545661E+00  0.00000000000E+00 0.  1.
         21    1    1    2  503  502  0.18833908074E+02  0.10878741047E+02  0.25362449713E+03  0.25455539406E+03  0.00000000000E+00 0.  1.
          1    1    1    2  501    0 -0.18833908074E+02 -0.10878741047E+02  0.68547791240E+03  0.68582288639E+03  0.00000000000E+00 0.  1.
<mgrwt>
<rscale>  2 0.21750014E+02</rscale>
<asrwt>0</asrwt>
<pdfrwt beam="2">  1       21 0.98144668E-04 0.21750014E+02</pdfrwt>
<pdfrwt beam="1">  1        1 0.14457433E+00 0.21750014E+02</pdfrwt>
<totfact> 0.17998157E+07</totfact>
</mgrwt>
</event>
<event>
 4    1  0.2185255E+006  0.4716748E+02  0.7546771E-02  0.1461247E+00
         21   -1    0    0  503  502  0.00000000000E+00  0.00000000000E+00  0.21068690845E+02  0.21068690845E+02  0.00000000000E+00 0. -1.
          2   -1    0    0  502    0 -0.00000000000E+00 -0.00000000000E+00 -0.19958131164E+04  0.19958131164E+04  0.00000000000E+00 0. -1.
         21    1    1    2  503  501 -0.17909933114E+02  0.43634916293E+02 -0.59715414943E+01  0.47543989440E+02  0.00000000000E+00 0. -1.
          2    1    1    2  501    0  0.17909933114E+02 -0.43634916293E+02 -0.19687728840E+04  0.19693378178E+04  0.00000000000E+00 0. -1.
<mgrwt>
<rscale>  2 0.47167485E+02</rscale>
<asrwt>0</asrwt>
<pdfrwt beam="1">  1       21 0.32413363E-02 0.47167485E+02</pdfrwt>
<pdfrwt beam="2">  1        2 0.30704824E+00 0.47167485E+02</pdfrwt>
<totfact> 0.55739584E+04</totfact>
</mgrwt>
</event>
<event>
 4    1  0.2185255E+006  0.2561135E+02  0.7546771E-02  0.1652373E+00
         21   -1    0    0  503  502  0.00000000000E+00  0.00000000000E+00  0.11977924257E+02  0.11977924257E+02  0.00000000000E+00 0. -1.
         -1   -1    0    0    0  501 -0.00000000000E+00 -0.00000000000E+00 -0.70483408724E+02  0.70483408724E+02  0.00000000000E+00 0.  1.
         21    1    1    2  503  501 -0.60769414924E+01  0.24879956111E+02 -0.97805289839E+01  0.27415327487E+02  0.00000000000E+00 0. -1.
         -1    1    1    2    0  502  0.60769414924E+01 -0.24879956111E+02 -0.48724955484E+02  0.55046005494E+02  0.00000000000E+00 0.  1.
<mgrwt>
<rscale>  2 0.25611354E+02</rscale>
<asrwt>0</asrwt>
<pdfrwt beam="1">  1       21 0.18427576E-02 0.25611354E+02</pdfrwt>
<pdfrwt beam="2">  1       -1 0.10843601E-01 0.25611354E+02</pdfrwt>
<totfact> 0.45685023E+06</totfact>
</mgrwt>
</event>
<event>
 4    1  0.2185255E+006  0.2002608E+02  0.7546771E-02  0.1744810E+00
          2   -1    0    0  503    0 -0.00000000000E+00  0.00000000000E+00  0.71928711546E+03  0.71928711546E+03  0.00000000000E+00 0. -1.
         21   -1    0    0  501  502  0.00000000000E+00 -0.00000000000E+00 -0.16382134592E+01  0.16382134592E+01  0.00000000000E+00 0.  1.
         21    1    1    2  503  502 -0.86895147192E+01 -0.18042625115E+02  0.66059722450E+02  0.69028479031E+02  0.00000000000E+00 0.  1.
          2    1    1    2  501    0  0.86895147192E+01  0.18042625115E+02  0.65158917955E+03  0.65189684988E+03  0.00000000000E+00 0. -1.
<mgrwt>
<rscale>  2 0.20026083E+02</rscale>
<asrwt>0</asrwt>
<pdfrwt beam="2">  1       21 0.25203341E-03 0.20026083E+02</pdfrwt>
<pdfrwt beam="1">  1        2 0.11065930E+00 0.20026083E+02</pdfrwt>
<totfact> 0.10920570E+07</totfact>
</mgrwt>
</event>
<event>
 4    1  0.2185255E+006  0.2007991E+02  0.7546771E-02  0.1743744E+00
         -1   -1    0    0    0  501 -0.00000000000E+00  0.00000000000E+00  0.25402530462E+02  0.25402530462E+02  0.00000000000E+00 0.  1.
         21   -1    0    0  501  502  0.00000000000E+00 -0.00000000000E+00 -0.51230437977E+02  0.51230437977E+02  0.00000000000E+00 0. -1.
         21    1    1    2  503  502 -0.16411343154E+02  0.11570245333E+02 -0.44746019152E+02  0.49044969071E+02  0.00000000000E+00 0. -1.
         -1    1    1    2    0  503  0.16411343154E+02 -0.11570245333E+02  0.18918111638E+02  0.27587999368E+02  0.00000000000E+00 0.  1.
<mgrwt>
<rscale>  2 0.20079909E+02</rscale>
<asrwt>0</asrwt>
<pdfrwt beam="2">  1       21 0.78816058E-02 0.20079909E+02</pdfrwt>
<pdfrwt beam="1">  1       -1 0.39080816E-02 0.20079909E+02</pdfrwt>
<totfact> 0.18355200E+06</totfact>
</mgrwt>
</event>
<event>
 4    1  0.2185255E+006  0.2229182E+02  0.7546771E-02  0.1703253E+00
         21   -1    0    0  501  502  0.00000000000E+00  0.00000000000E+00  0.43457349783E+00  0.43457349783E+00  0.00000000000E+00 0. -1.
          2   -1    0    0  503    0 -0.00000000000E+00 -0.00000000000E+00 -0.12109144971E+04  0.12109144971E+04  0.00000000000E+00 0. -1.
         21    1    1    2  503  502 -0.68625343071E+01 -0.21209219478E+02 -0.46230808863E+03  0.46284521622E+03  0.00000000000E+00 0. -1.
          2    1    1    2  501    0  0.68625343071E+01  0.21209219478E+02 -0.74817183495E+03  0.74850385435E+03  0.00000000000E+00 0. -1.
<mgrwt>
<rscale>  2 0.22291823E+02</rscale>
<asrwt>0</asrwt>
<pdfrwt beam="1">  1       21 0.66859553E-04 0.22291823E+02</pdfrwt>
<pdfrwt beam="2">  1        2 0.18628871E+00 0.22291823E+02</pdfrwt>
<totfact> 0.39796757E+07</totfact>
</mgrwt>
</event>
<event>
 4    1  0.2185255E+006  0.5218053E+02  0.7546771E-02  0.1433923E+00
         21   -1    0    0  503  502  0.00000000000E+00  0.00000000000E+00  0.77883376829E+01  0.77883376829E+01  0.00000000000E+00 0. -1.
         -1   -1    0    0    0  501 -0.00000000000E+00 -0.00000000000E+00 -0.83516689758E+03  0.83516689758E+03  0.00000000000E+00 0. -1.
         21    1    1    2  503  501  0.21014315552E+02 -0.47761972978E+02 -0.92314236477E+02  0.10604115134E+03  0.00000000000E+00 0. -1.
         -1    1    1    2    0  502 -0.21014315552E+02  0.47761972978E+02 -0.73506432342E+03  0.73691408393E+03  0.00000000000E+00 0. -1.
<mgrwt>
<rscale>  2 0.52180528E+02</rscale>
<asrwt>0</asrwt>
<pdfrwt beam="1">  1       21 0.11982064E-02 0.52180528E+02</pdfrwt>
<pdfrwt beam="2">  1       -1 0.12848716E+00 0.52180528E+02</pdfrwt>
<totfact> 0.13628207E+05</totfact>
</mgrwt>
</event>
<event>
 4    1  0.2185255E+006  0.2034196E+02  0.7546771E-02  0.1738612E+00
         -3   -1    0    0    0  501 -0.00000000000E+00  0.00000000000E+00  0.14585406549E+02  0.14585406549E+02  0.00000000000E+00 0. -1.
         21   -1    0    0  503  502  0.00000000000E+00 -0.00000000000E+00 -0.11666552405E+03  0.11666552405E+03  0.00000000000E+00 0.  1.
         21    1    1    2  503  501 -0.10494067455E+02 -0.17426131896E+02 -0.10813126254E+03  0.11002802126E+03  0.00000000000E+00 0.  1.
         -3    1    1    2    0  502  0.10494067455E+02  0.17426131896E+02  0.60511450358E+01  0.21222909340E+02  0.00000000000E+00 0. -1.
<mgrwt>
<rscale>  2 0.20341965E+02</rscale>
<asrwt>0</asrwt>
<pdfrwt beam="2">  1       21 0.17948543E-01 0.20341965E+02</pdfrwt>
<pdfrwt beam="1">  1       -3 0.22439086E-02 0.20341965E+02</pdfrwt>
<totfact> 0.67219824E+05</totfact>
</mgrwt>
</event>
<event>
 4    1  0.2185255E+006  0.3283199E+02  0.7546771E-02  0.1568741E+00
         21   -1    0    0  501  502  0.00000000000E+00  0.00000000000E+00  0.44067105805E+01  0.44067105805E+01  0.00000000000E+00 0.  1.
          1   -1    0    0  503    0 -0.00000000000E+00 -0.00000000000E+00 -0.12651102988E+04  0.12651102988E+04  0.00000000000E+00 0.  1.
         21    1    1    2  503  502 -0.17960129695E+02  0.27484057881E+02 -0.60252879431E+02  0.68617411609E+02  0.00000000000E+00 0.  1.
          1    1    1    2  501    0  0.17960129695E+02 -0.27484057881E+02 -0.12004507088E+04  0.12008995978E+04  0.00000000000E+00 0.  1.
<mgrwt>
<rscale>  2 0.32831992E+02</rscale>
<asrwt>0</asrwt>
<pdfrwt beam="1">  1       21 0.67795513E-03 0.32831992E+02</pdfrwt>
<pdfrwt beam="2">  1        1 0.19463245E+00 0.32831992E+02</pdfrwt>
<totfact> 0.71039939E+05</totfact>
</mgrwt>
</event>
<event>
 4    1  0.2185255E+006  0.2605340E+02  0.7546771E-02  0.1646317E+00
         21   -1    0    0  501  502  0.00000000000E+00  0.00000000000E+00  0.13803429020E+01  0.13803429020E+01  0.00000000000E+00 0. -1.
          2   -1    0    0  503    0 -0.00000000000E+00 -0.00000000000E+00 -0.68408628958E+03  0.68408628958E+03  0.00000000000E+00 0. -1.
         21    1    1    2  503  502  0.14080512464E+02 -0.21920742294E+02 -0.15961961835E+03  0.16173188411E+03  0.00000000000E+00 0. -1.
          2    1    1    2  501    0 -0.14080512464E+02  0.21920742294E+02 -0.52308632833E+03  0.52373474838E+03  0.00000000000E+00 0. -1.
<mgrwt>
<rscale>  2 0.26053402E+02</rscale>
<asrwt>0</asrwt>
<pdfrwt beam="1">  1       21 0.21236060E-03 0.26053402E+02</pdfrwt>
<pdfrwt beam="2">  1        2 0.10524397E+00 0.26053402E+02</pdfrwt>
<totfact> 0.15858858E+07</totfact>
</mgrwt>
</event>
<event>
 4    1  0.2185255E+006  0.5023156E+02  0.7546771E-02  0.1444097E+00
          1   -1    0    0  502    0 -0.00000000000E+00  0.00000000000E+00  0.11454860493E+04  0.11454860493E+04  0.00000000000E+00 0.  1.
         21   -1    0    0  503  502  0.00000000000E+00 -0.00000000000E+00 -0.28948629522E+02  0.28948629522E+02  0.00000000000E+00 0. -1.
         21    1    1    2  503  501 -0.87662874029E+01 -0.49460710687E+02 -0.61655642786E+01  0.50608535638E+02  0.00000000000E+00 0. -1.
          1    1    1    2  501    0  0.87662874029E+01  0.49460710687E+02  0.11227029840E+04  0.11238261431E+04  0.00000000000E+00 0.  1.
<mgrwt>
<rscale>  2 0.50231561E+02</rscale>
<asrwt>0</asrwt>
<pdfrwt beam="2">  1       21 0.44536362E-02 0.50231561E+02</pdfrwt>
<pdfrwt beam="1">  1        1 0.17622859E+00 0.50231561E+02</pdfrwt>
<totfact> 0.46373730E+04</totfact>
</mgrwt>
</event>
<event>
 4    1  0.2185255E+006  0.2234678E+02  0.7546771E-02  0.1702323E+00
         21   -1    0    0  503  502  0.00000000000E+00  0.00000000000E+00  0.51682631062E+01  0.51682631062E+01  0.00000000000E+00 0. -1.
         -1   -1    0    0    0  501 -0.00000000000E+00 -0.00000000000E+00 -0.29319627373E+03  0.29319627373E+03  0.00000000000E+00 0.  1.
         21    1    1    2  503  501 -0.88981424209E+01  0.20498822808E+02 -0.21862443545E+02  0.31262519297E+02  0.00000000000E+00 0. -1.
         -1    1    1    2    0  502  0.88981424209E+01 -0.20498822808E+02 -0.26616556708E+03  0.26710201754E+03  0.00000000000E+00 0.  1.
<mgrwt>
<rscale>  2 0.22346782E+02</rscale>
<asrwt>0</asrwt>
<pdfrwt beam="1">  1       21 0.79511747E-03 0.22346782E+02</pdfrwt>
<pdfrwt beam="2">  1       -1 0.45107115E-01 0.22346782E+02</pdfrwt>
<totfact> 0.17283584E+06</totfact>
</mgrwt>
</event>
<event>
 4    1  0.2185255E+006  0.2833794E+02  0.7546771E-02  0.1617222E+00
         -4   -1    0    0    0  501 -0.00000000000E+00  0.00000000000E+00  0.26507460894E+02  0.26507460894E+02  0.00000000000E+00 0. -1.
         21   -1    0    0  501  502  0.00000000000E+00 -0.00000000000E+00 -0.17613370123E+03  0.17613370123E+03  0.00000000000E+00 0. -1.
         21    1    1    2  503  502 -0.77506909410E+01  0.27257394392E+02 -0.16700933750E+03  0.16939645088E+03  0.00000000000E+00 0. -1.
         -4    1    1    2    0  503  0.77506909410E+01 -0.27257394392E+02  0.17383097160E+02  0.33244711248E+02  0.00000000000E+00 0. -1.
<mgrwt>
<rscale>  2 0.28337939E+02</rscale>
<asrwt>0</asrwt>
<pdfrwt beam="2">  1       21 0.27097491E-01 0.28337939E+02</pdfrwt>
<pdfrwt beam="1">  1       -4 0.40780711E-02 0.28337939E+02</pdfrwt>
<totfact> 0.12626179E+05</totfact>
</mgrwt>
</event>
<event>
 4    1  0.2185255E+006  0.2066649E+02  0.7546771E-02  0.1732390E+00
         21   -1    0    0  501  502  0.00000000000E+00  0.00000000000E+00  0.45123400793E+01  0.45123400793E+01  0.00000000000E+00 0. -1.
         -1   -1    0    0    0  501 -0.00000000000E+00 -0.00000000000E+00 -0.13291271946E+03  0.13291271946E+03  0.00000000000E+00 0.  1.
         21    1    1    2  503  502 -0.11923595237E+02  0.16879922668E+02 -0.27334119706E+02  0.34267448297E+02  0.00000000000E+00 0. -1.
         -1    1    1    2    0  503  0.11923595237E+02 -0.16879922668E+02 -0.10106625967E+03  0.10315761124E+03  0.00000000000E+00 0.  1.
<mgrwt>
<rscale>  2 0.20666493E+02</rscale>
<asrwt>0</asrwt>
<pdfrwt beam="1">  1       21 0.69420620E-03 0.20666493E+02</pdfrwt>
<pdfrwt beam="2">  1       -1 0.20448110E-01 0.20666493E+02</pdfrwt>
<totfact> 0.72943354E+06</totfact>
</mgrwt>
</event>
<event>
 4    1  0.2185255E+006  0.2428480E+02  0.7546771E-02  0.1671492E+00
         21   -1    0    0  501  502  0.00000000000E+00  0.00000000000E+00  0.26073808854E+01  0.26073808854E+01  0.00000000000E+00 0. -1.
          2   -1    0    0  503    0 -0.00000000000E+00 -0.00000000000E+00 -0.66793957411E+03  0.66793957411E+03  0.00000000000E+00 0. -1.
         21    1    1    2  503  502 -0.13806684130E+01  0.24245524595E+02 -0.60006429051E+02  0.64734250870E+02  0.00000000000E+00 0. -1.
          2    1    1    2  501    0  0.13806684130E+01 -0.24245524595E+02 -0.60532576417E+03  0.60581270412E+03  0.00000000000E+00 0. -1.
<mgrwt>
<rscale>  2 0.24284804E+02</rscale>
<asrwt>0</asrwt>
<pdfrwt beam="1">  1       21 0.40113571E-03 0.24284804E+02</pdfrwt>
<pdfrwt beam="2">  1        2 0.10275989E+00 0.24284804E+02</pdfrwt>
<totfact> 0.63169154E+06</totfact>
</mgrwt>
</event>
<event>
 4    1  0.2185255E+006  0.2212518E+02  0.7546771E-02  0.1706096E+00
         21   -1    0    0  501  502  0.00000000000E+00  0.00000000000E+00  0.64799973271E+00  0.64799973271E+00  0.00000000000E+00 0. -1.
          2   -1    0    0  503    0 -0.00000000000E+00 -0.00000000000E+00 -0.10753044618E+04  0.10753044618E+04  0.00000000000E+00 0. -1.
         21    1    1    2  503  502 -0.21516060262E+02  0.51558555913E+01 -0.24391368542E+03  0.24491510699E+03  0.00000000000E+00 0. -1.
          2    1    1    2  501    0  0.21516060262E+02 -0.51558555913E+01 -0.83074277665E+03  0.83103735454E+03  0.00000000000E+00 0. -1.
<mgrwt>
<rscale>  2 0.22125182E+02</rscale>
<asrwt>0</asrwt>
<pdfrwt beam="1">  1       21 0.99693878E-04 0.22125182E+02</pdfrwt>
<pdfrwt beam="2">  1        2 0.16542878E+00 0.22125182E+02</pdfrwt>
<totfact> 0.26433212E+07</totfact>
</mgrwt>
</event>
<event>
 4    1  0.2185255E+006  0.4308161E+02  0.7546771E-02  0.1486686E+00
         21   -1    0    0  501  502  0.00000000000E+00  0.00000000000E+00  0.32839544043E+01  0.32839544043E+01  0.00000000000E+00 0. -1.
          2   -1    0    0  503    0 -0.00000000000E+00 -0.00000000000E+00 -0.65000228901E+03  0.65000228901E+03  0.00000000000E+00 0.  1.
         21    1    1    2  503  502 -0.19818563423E+01  0.43036003196E+02 -0.20536213418E+03  0.20983238902E+03  0.00000000000E+00 0. -1.
          2    1    1    2  501    0  0.19818563423E+01 -0.43036003196E+02 -0.44135620043E+03  0.44345385440E+03  0.00000000000E+00 0.  1.
<mgrwt>
<rscale>  2 0.43081612E+02</rscale>
<asrwt>0</asrwt>
<pdfrwt beam="1">  1       21 0.50522391E-03 0.43081612E+02</pdfrwt>
<pdfrwt beam="2">  1        2 0.10000032E+00 0.43081612E+02</pdfrwt>
<totfact> 0.51964603E+06</totfact>
</mgrwt>
</event>
<event>
 4    1  0.2185255E+006  0.2115564E+02  0.7546771E-02  0.1723278E+00
         -2   -1    0    0    0  501 -0.00000000000E+00  0.00000000000E+00  0.10769652570E+03  0.10769652570E+03  0.00000000000E+00 0. -1.
         21   -1    0    0  501  502  0.00000000000E+00 -0.00000000000E+00 -0.41684324222E+01  0.41684324222E+01  0.00000000000E+00 0. -1.
         21    1    1    2  503  502  0.49693544920E+01  0.20563716628E+02  0.48680108925E+02  0.53078375357E+02  0.00000000000E+00 0. -1.
         -2    1    1    2    0  503 -0.49693544920E+01 -0.20563716628E+02  0.54847984352E+02  0.58786582764E+02  0.00000000000E+00 0. -1.
<mgrwt>
<rscale>  2 0.21155636E+02</rscale>
<asrwt>0</asrwt>
<pdfrwt beam="2">  1       21 0.64129738E-03 0.21155636E+02</pdfrwt>
<pdfrwt beam="1">  1       -2 0.16568694E-01 0.21155636E+02</pdfrwt>
<totfact> 0.10475570E+07</totfact>
</mgrwt>
</event>
<event>
 4    1  0.2185255E+006  0.2303201E+02  0.7546771E-02  0.1690992E+00
          2   -1    0    0  503    0 -0.00000000000E+00  0.00000000000E+00  0.59245609995E+01  0.59245609995E+01  0.00000000000E+00 0.  1.
         21   -1    0    0  501  502  0.00000000000E+00 -0.00000000000E+00 -0.19384573832E+03  0.19384573832E+03  0.00000000000E+00 0.  1.
         21    1    1    2  503  502  0.13126243453E+02 -0.18925514551E+02 -0.16723140857E+03  0.16881000379E+03  0.00000000000E+00 0.  1.
          2    1    1    2  501    0 -0.13126243453E+02  0.18925514551E+02 -0.20689768752E+02  0.30960295529E+02  0.00000000000E+00 0.  1.
<mgrwt>
<rscale>  2 0.23032007E+02</rscale>
<asrwt>0</asrwt>
<pdfrwt beam="2">  1       21 0.29822424E-01 0.23032007E+02</pdfrwt>
<pdfrwt beam="1">  1        2 0.91147085E-03 0.23032007E+02</pdfrwt>
<totfact> 0.14828746E+06</totfact>
</mgrwt>
</event>
<event>
 4    1  0.2185255E+006  0.2699397E+02  0.7546771E-02  0.1633910E+00
          1   -1    0    0  503    0 -0.00000000000E+00  0.00000000000E+00  0.34685313241E+03  0.34685313241E+03  0.00000000000E+00 0.  1.
         21   -1    0    0  501  502  0.00000000000E+00 -0.00000000000E+00 -0.11528515199E+03  0.11528515199E+03  0.00000000000E+00 0.  1.
         21    1    1    2  503  502 -0.18500213985E+02  0.19657478449E+02 -0.11317011178E+03  0.11634495509E+03  0.00000000000E+00 0.  1.
          1    1    1    2  501    0  0.18500213985E+02 -0.19657478449E+02  0.34473809220E+03  0.34579332930E+03  0.00000000000E+00 0.  1.
<mgrwt>
<rscale>  2 0.26993969E+02</rscale>
<asrwt>0</asrwt>
<pdfrwt beam="2">  1       21 0.17736177E-01 0.26993969E+02</pdfrwt>
<pdfrwt beam="1">  1        1 0.53362020E-01 0.26993969E+02</pdfrwt>
<totfact> 0.22668331E+04</totfact>
</mgrwt>
</event>
<event>
 4    1  0.2185255E+006  0.2143906E+02  0.7546771E-02  0.1718138E+00
          1   -1    0    0  503    0 -0.00000000000E+00  0.00000000000E+00  0.18283186243E+03  0.18283186243E+03  0.00000000000E+00 0.  1.
         21   -1    0    0  501  502  0.00000000000E+00 -0.00000000000E+00 -0.29448775766E+01  0.29448775766E+01  0.00000000000E+00 0.  1.
         21    1    1    2  503  502 -0.15451050331E+01  0.21383311536E+02  0.54411379003E+02  0.58482745548E+02  0.00000000000E+00 0.  1.
          1    1    1    2  501    0  0.15451050331E+01 -0.21383311536E+02  0.12547560585E+03  0.12729399446E+03  0.00000000000E+00 0.  1.
<mgrwt>
<rscale>  2 0.21439062E+02</rscale>
<asrwt>0</asrwt>
<pdfrwt beam="2">  1       21 0.45305823E-03 0.21439062E+02</pdfrwt>
<pdfrwt beam="1">  1        1 0.28127970E-01 0.21439062E+02</pdfrwt>
<totfact> 0.14520851E+07</totfact>
</mgrwt>
</event>
<event>
 4    1  0.2185255E+006  0.2130291E+02  0.7546771E-02  0.1720594E+00
         21   -1    0    0  501  502  0.00000000000E+00  0.00000000000E+00  0.83043572446E+02  0.83043572446E+02  0.00000000000E+00 0. -1.
         -1   -1    0    0    0  501 -0.00000000000E+00 -0.00000000000E+00 -0.20516333220E+02  0.20516333220E+02  0.00000000000E+00 0.  1.
         21    1    1    2  503  502 -0.20947686411E+02  0.38740877543E+01  0.75614532642E+02  0.78558078315E+02  0.00000000000E+00 0. -1.
         -1    1    1    2    0  503  0.20947686411E+02 -0.38740877543E+01 -0.13087293417E+02  0.25001827351E+02  0.00000000000E+00 0.  1.
<mgrwt>
<rscale>  2 0.21302913E+02</rscale>
<asrwt>0</asrwt>
<pdfrwt beam="1">  1       21 0.12775934E-01 0.21302913E+02</pdfrwt>
<pdfrwt beam="2">  1       -1 0.31563590E-02 0.21302913E+02</pdfrwt>
<totfact> 0.11277409E+06</totfact>
</mgrwt>
</event>
<event>
 4    1  0.2185255E+006  0.2328666E+02  0.7546771E-02  0.1686905E+00
         21   -1    0    0  501  502  0.00000000000E+00  0.00000000000E+00  0.40953799368E+01  0.40953799368E+01  0.00000000000E+00 0. -1.
         -2   -1    0    0    0  501 -0.00000000000E+00 -0.00000000000E+00 -0.17516780915E+03  0.17516780915E+03  0.00000000000E+00 0.  1.
         21    1    1    2  503  502 -0.16346315887E+02 -0.16585132781E+02 -0.41252665403E+02  0.47371416226E+02  0.00000000000E+00 0. -1.
         -2    1    1    2    0  503  0.16346315887E+02  0.16585132781E+02 -0.12981976381E+03  0.13189177286E+03  0.00000000000E+00 0.  1.
<mgrwt>
<rscale>  2 0.23286663E+02</rscale>
<asrwt>0</asrwt>
<pdfrwt beam="1">  1       21 0.63005861E-03 0.23286663E+02</pdfrwt>
<pdfrwt beam="2">  1       -2 0.26948887E-01 0.23286663E+02</pdfrwt>
<totfact> 0.50336695E+06</totfact>
</mgrwt>
</event>
<event>
 4    1  0.2185255E+006  0.2508504E+02  0.7546771E-02  0.1659784E+00
         21   -1    0    0  501  502  0.00000000000E+00  0.00000000000E+00  0.18558606391E+02  0.18558606391E+02  0.00000000000E+00 0.  1.
          1   -1    0    0  503    0 -0.00000000000E+00 -0.00000000000E+00 -0.41021203603E+02  0.41021203603E+02  0.00000000000E+00 0. -1.
         21    1    1    2  503  502  0.44045014936E+01 -0.24695331217E+02  0.11749547141E+01  0.25112537425E+02  0.00000000000E+00 0.  1.
          1    1    1    2  501    0 -0.44045014936E+01  0.24695331217E+02 -0.23637551925E+02  0.34467272569E+02  0.00000000000E+00 0. -1.
<mgrwt>
<rscale>  2 0.25085036E+02</rscale>
<asrwt>0</asrwt>
<pdfrwt beam="1">  1       21 0.28551702E-02 0.25085036E+02</pdfrwt>
<pdfrwt beam="2">  1        1 0.63109544E-02 0.25085036E+02</pdfrwt>
<totfact> 0.58635341E+06</totfact>
</mgrwt>
</event>
<event>
 4    1  0.2185255E+006  0.2053385E+02  0.7546771E-02  0.1734916E+00
         21   -1    0    0  501  502  0.00000000000E+00  0.00000000000E+00  0.13630933859E+03  0.13630933859E+03  0.00000000000E+00 0. -1.
          1   -1    0    0  503    0 -0.00000000000E+00 -0.00000000000E+00 -0.29165101039E+02  0.29165101039E+02  0.00000000000E+00 0.  1.
         21    1    1    2  503  502 -0.18744911135E+02 -0.83825544259E+01  0.13179883693E+03  0.13338880136E+03  0.00000000000E+00 0. -1.
          1    1    1    2  501    0  0.18744911135E+02  0.83825544259E+01 -0.24654599383E+02  0.32085638265E+02  0.00000000000E+00 0.  1.
<mgrwt>
<rscale>  2 0.20533848E+02</rscale>
<asrwt>0</asrwt>
<pdfrwt beam="1">  1       21 0.20970667E-01 0.20533848E+02</pdfrwt>
<pdfrwt beam="2">  1        1 0.44869387E-02 0.20533848E+02</pdfrwt>
<totfact> 0.33200661E+05</totfact>
</mgrwt>
</event>
<event>
 4    1  0.2185255E+006  0.2186081E+02  0.7546771E-02  0.1710670E+00
          4   -1    0    0  503    0 -0.00000000000E+00  0.00000000000E+00  0.10882960647E+03  0.10882960647E+03  0.00000000000E+00 0. -1.
         21   -1    0    0  501  502  0.00000000000E+00 -0.00000000000E+00 -0.56725192021E+01  0.56725192021E+01  0.00000000000E+00 0.  1.
         21    1    1    2  503  502 -0.98792547377E+01  0.19501166037E+02  0.24369065574E+02  0.32737539736E+02  0.00000000000E+00 0.  1.
          4    1    1    2  501    0  0.98792547377E+01 -0.19501166037E+02  0.78788021697E+02  0.81764585940E+02  0.00000000000E+00 0. -1.
<mgrwt>
<rscale>  2 0.21860813E+02</rscale>
<asrwt>0</asrwt>
<pdfrwt beam="2">  1       21 0.87269534E-03 0.21860813E+02</pdfrwt>
<pdfrwt beam="1">  1        4 0.16743015E-01 0.21860813E+02</pdfrwt>
<totfact> 0.30703877E+06</totfact>
</mgrwt>
</event>
<event>
 4    1  0.2185255E+006  0.2064225E+02  0.7546771E-02  0.1732850E+00
         21   -1    0    0  503  502  0.00000000000E+00  0.00000000000E+00  0.45600238547E+01  0.45600238547E+01  0.00000000000E+00 0. -1.
          1   -1    0    0  502    0 -0.00000000000E+00 -0.00000000000E+00 -0.66475688645E+03  0.66475688645E+03  0.00000000000E+00 0.  1.
         21    1    1    2  503  501 -0.66199526884E+01 -0.19551950326E+02 -0.19851317001E+02  0.28638738133E+02  0.00000000000E+00 0. -1.
          1    1    1    2  501    0  0.66199526884E+01  0.19551950326E+02 -0.64034554560E+03  0.64067817218E+03  0.00000000000E+00 0.  1.
<mgrwt>
<rscale>  2 0.20642251E+02</rscale>
<asrwt>0</asrwt>
<pdfrwt beam="1">  1       21 0.70154224E-03 0.20642251E+02</pdfrwt>
<pdfrwt beam="2">  1        1 0.10227027E+00 0.20642251E+02</pdfrwt>
<totfact> 0.16535778E+06</totfact>
</mgrwt>
</event>
<event>
 4    1  0.2185255E+006  0.2473516E+02  0.7546771E-02  0.1664835E+00
         21   -1    0    0  501  502  0.00000000000E+00  0.00000000000E+00  0.86373086587E+00  0.86373086587E+00  0.00000000000E+00 0. -1.
          2   -1    0    0  503    0 -0.00000000000E+00 -0.00000000000E+00 -0.12004746247E+04  0.12004746247E+04  0.00000000000E+00 0. -1.
         21    1    1    2  503  502 -0.23942334799E+02 -0.62123140004E+01 -0.21521887734E+03  0.21663562358E+03  0.00000000000E+00 0. -1.
          2    1    1    2  501    0  0.23942334799E+02  0.62123140004E+01 -0.98439201650E+03  0.98470273199E+03  0.00000000000E+00 0. -1.
<mgrwt>
<rscale>  2 0.24735162E+02</rscale>
<asrwt>0</asrwt>
<pdfrwt beam="1">  1       21 0.13288172E-03 0.24735162E+02</pdfrwt>
<pdfrwt beam="2">  1        2 0.18468834E+00 0.24735162E+02</pdfrwt>
<totfact> 0.15573610E+07</totfact>
</mgrwt>
</event>
<event>
 4    1  0.2185255E+006  0.2396714E+02  0.7546771E-02  0.1676296E+00
          2   -1    0    0  502    0 -0.00000000000E+00  0.00000000000E+00  0.58653092739E+03  0.58653092739E+03  0.00000000000E+00 0.  1.
         21   -1    0    0  503  502  0.00000000000E+00 -0.00000000000E+00 -0.23025920148E+02  0.23025920148E+02  0.00000000000E+00 0.  1.
         21    1    1    2  503  501  0.77211585783E+01  0.22689369828E+02 -0.16473946776E+02  0.29082893862E+02  0.00000000000E+00 0.  1.
          2    1    1    2  501    0 -0.77211585783E+01 -0.22689369828E+02  0.57997895401E+03  0.58047395367E+03  0.00000000000E+00 0.  1.
<mgrwt>
<rscale>  2 0.23967140E+02</rscale>
<asrwt>0</asrwt>
<pdfrwt beam="2">  1       21 0.35424497E-02 0.23967140E+02</pdfrwt>
<pdfrwt beam="1">  1        2 0.90235516E-01 0.23967140E+02</pdfrwt>
<totfact> 0.26679124E+05</totfact>
</mgrwt>
</event>
<event>
 4    1  0.2185255E+006  0.2473484E+02  0.7546771E-02  0.1664840E+00
         -3   -1    0    0    0  501 -0.00000000000E+00  0.00000000000E+00  0.89621981292E+03  0.89621981292E+03  0.00000000000E+00 0. -1.
         21   -1    0    0  501  502  0.00000000000E+00 -0.00000000000E+00 -0.75438366296E+03  0.75438366296E+03  0.00000000000E+00 0. -1.
         21    1    1    2  503  502 -0.23812012780E+02  0.66933177016E+01 -0.75401016129E+03  0.75441575791E+03  0.00000000000E+00 0. -1.
         -3    1    1    2    0  503  0.23812012780E+02 -0.66933177016E+01  0.89584631125E+03  0.89618771797E+03  0.00000000000E+00 0. -1.
<mgrwt>
<rscale>  2 0.24734843E+02</rscale>
<asrwt>0</asrwt>
<pdfrwt beam="2">  1       21 0.11605902E+00 0.24734843E+02</pdfrwt>
<pdfrwt beam="1">  1       -3 0.13787997E+00 0.24734843E+02</pdfrwt>
<totfact> 0.14924663E+01</totfact>
</mgrwt>
</event>
<event>
 4    1  0.2185255E+006  0.2421509E+02  0.7546771E-02  0.1672539E+00
          2   -1    0    0  503    0 -0.00000000000E+00  0.00000000000E+00  0.36689121880E+03  0.36689121880E+03  0.00000000000E+00 0.  1.
         21   -1    0    0  501  502  0.00000000000E+00 -0.00000000000E+00 -0.58262582268E+01  0.58262582268E+01  0.00000000000E+00 0.  1.
         21    1    1    2  503  502  0.14895619061E+02 -0.19091653648E+02  0.21778488274E+02  0.32567979024E+02  0.00000000000E+00 0.  1.
          2    1    1    2  501    0 -0.14895619061E+02  0.19091653648E+02  0.33928647230E+03  0.34014949800E+03  0.00000000000E+00 0.  1.
<mgrwt>
<rscale>  2 0.24215093E+02</rscale>
<asrwt>0</asrwt>
<pdfrwt beam="2">  1       21 0.89634771E-03 0.24215093E+02</pdfrwt>
<pdfrwt beam="1">  1        2 0.56444785E-01 0.24215093E+02</pdfrwt>
<totfact> 0.35219487E+06</totfact>
</mgrwt>
</event>
<event>
 4    1  0.2185255E+006  0.2561847E+02  0.7546771E-02  0.1652274E+00
         21   -1    0    0  501  502  0.00000000000E+00  0.00000000000E+00  0.23198064905E+02  0.23198064905E+02  0.00000000000E+00 0.  1.
          2   -1    0    0  503    0 -0.00000000000E+00 -0.00000000000E+00 -0.44432367576E+02  0.44432367576E+02  0.00000000000E+00 0.  1.
         21    1    1    2  503  502  0.25184571795E+02 -0.46950535117E+01  0.97639178226E+01  0.27416058710E+02  0.00000000000E+00 0.  1.
          2    1    1    2  501    0 -0.25184571795E+02  0.46950535117E+01 -0.30998220493E+02  0.40214373770E+02  0.00000000000E+00 0.  1.
<mgrwt>
<rscale>  2 0.25618473E+02</rscale>
<asrwt>0</asrwt>
<pdfrwt beam="1">  1       21 0.35689331E-02 0.25618473E+02</pdfrwt>
<pdfrwt beam="2">  1        2 0.68357488E-02 0.25618473E+02</pdfrwt>
<totfact> 0.41353442E+06</totfact>
</mgrwt>
</event>
<event>
 4    1  0.2185255E+006  0.2028069E+02  0.7546771E-02  0.1739803E+00
          1   -1    0    0  503    0 -0.00000000000E+00  0.00000000000E+00  0.51471611206E+03  0.51471611206E+03  0.00000000000E+00 0.  1.
         21   -1    0    0  501  502  0.00000000000E+00 -0.00000000000E+00 -0.43020449431E+01  0.43020449431E+01  0.00000000000E+00 0.  1.
         21    1    1    2  503  502  0.20262878877E+02  0.84976757170E+00  0.21036559735E+02  0.29220595661E+02  0.00000000000E+00 0.  1.
          1    1    1    2  501    0 -0.20262878877E+02 -0.84976757170E+00  0.48937750738E+03  0.48979756134E+03  0.00000000000E+00 0.  1.
<mgrwt>
<rscale>  2 0.20280689E+02</rscale>
<asrwt>0</asrwt>
<pdfrwt beam="2">  1       21 0.66185347E-03 0.20280689E+02</pdfrwt>
<pdfrwt beam="1">  1        1 0.79187046E-01 0.20280689E+02</pdfrwt>
<totfact> 0.24652830E+06</totfact>
</mgrwt>
</event>
<event>
 4    1  0.2185255E+006  0.3767677E+02  0.7546771E-02  0.1526039E+00
         -1   -1    0    0    0  501 -0.00000000000E+00  0.00000000000E+00  0.16542796039E+02  0.16542796039E+02  0.00000000000E+00 0. -1.
         21   -1    0    0  503  502  0.00000000000E+00 -0.00000000000E+00 -0.10537358630E+03  0.10537358630E+03  0.00000000000E+00 0. -1.
         21    1    1    2  503  501  0.36174316462E+02 -0.10533637916E+02 -0.70681126989E+02  0.80095945039E+02  0.00000000000E+00 0. -1.
         -1    1    1    2    0  502 -0.36174316462E+02  0.10533637916E+02 -0.18149663274E+02  0.41820437302E+02  0.00000000000E+00 0. -1.
<mgrwt>
<rscale>  2 0.37676766E+02</rscale>
<asrwt>0</asrwt>
<pdfrwt beam="2">  1       21 0.16211320E-01 0.37676766E+02</pdfrwt>
<pdfrwt beam="1">  1       -1 0.25450457E-02 0.37676766E+02</pdfrwt>
<totfact> 0.11413111E+06</totfact>
</mgrwt>
</event>
<event>
 4    1  0.2185255E+006  0.2770888E+02  0.7546771E-02  0.1624888E+00
         21   -1    0    0  501  502  0.00000000000E+00  0.00000000000E+00  0.68929780228E+01  0.68929780228E+01  0.00000000000E+00 0. -1.
          2   -1    0    0  503    0 -0.00000000000E+00 -0.00000000000E+00 -0.11192715273E+03  0.11192715273E+03  0.00000000000E+00 0. -1.
         21    1    1    2  503  502  0.69316522441E+01  0.26827863230E+02 -0.48386557611E+02  0.55758775146E+02  0.00000000000E+00 0. -1.
          2    1    1    2  501    0 -0.69316522441E+01 -0.26827863230E+02 -0.56647617097E+02  0.63061355608E+02  0.00000000000E+00 0. -1.
<mgrwt>
<rscale>  2 0.27708880E+02</rscale>
<asrwt>0</asrwt>
<pdfrwt beam="1">  1       21 0.10604582E-02 0.27708880E+02</pdfrwt>
<pdfrwt beam="2">  1        2 0.17219561E-01 0.27708880E+02</pdfrwt>
<totfact> 0.95146374E+06</totfact>
</mgrwt>
</event>
<event>
 4    1  0.2185255E+006  0.4695845E+02  0.7546771E-02  0.1462473E+00
          1   -1    0    0  503    0 -0.00000000000E+00  0.00000000000E+00  0.45167630017E+02  0.45167630017E+02  0.00000000000E+00 0.  1.
         21   -1    0    0  501  502  0.00000000000E+00 -0.00000000000E+00 -0.16303565166E+03  0.16303565166E+03  0.00000000000E+00 0. -1.
         21    1    1    2  503  502 -0.43060826015E+02 -0.18731283175E+02 -0.14606619253E+03  0.15342890310E+03  0.00000000000E+00 0. -1.
          1    1    1    2  501    0  0.43060826015E+02  0.18731283175E+02  0.28198170890E+02  0.54774378573E+02  0.00000000000E+00 0.  1.
<mgrwt>
<rscale>  2 0.46958447E+02</rscale>
<asrwt>0</asrwt>
<pdfrwt beam="2">  1       21 0.25082408E-01 0.46958447E+02</pdfrwt>
<pdfrwt beam="1">  1        1 0.69488662E-02 0.46958447E+02</pdfrwt>
<totfact> 0.15290694E+05</totfact>
</mgrwt>
</event>
<event>
 4    1  0.2185255E+006  0.2089699E+02  0.7546771E-02  0.1728057E+00
         21   -1    0    0  503  502  0.00000000000E+00  0.00000000000E+00  0.24919063124E+02  0.24919063124E+02  0.00000000000E+00 0.  1.
         -4   -1    0    0    0  501 -0.00000000000E+00 -0.00000000000E+00 -0.20160893653E+02  0.20160893653E+02  0.00000000000E+00 0.  1.
         21    1    1    2  503  501  0.92717571045E+01  0.18727487584E+02  0.10530561442E+02  0.23400363144E+02  0.00000000000E+00 0.  1.
         -4    1    1    2    0  502 -0.92717571045E+01 -0.18727487584E+02 -0.57723919715E+01  0.21679593632E+02  0.00000000000E+00 0.  1.
<mgrwt>
<rscale>  2 0.20896992E+02</rscale>
<asrwt>0</asrwt>
<pdfrwt beam="1">  1       21 0.38337020E-02 0.20896992E+02</pdfrwt>
<pdfrwt beam="2">  1       -4 0.31016760E-02 0.20896992E+02</pdfrwt>
<totfact> 0.44410663E+06</totfact>
</mgrwt>
</event>
<event>
 4    1  0.2185255E+006  0.2496834E+02  0.7546771E-02  0.1661457E+00
         -2   -1    0    0    0  501 -0.00000000000E+00  0.00000000000E+00  0.15059529449E+04  0.15059529449E+04  0.00000000000E+00 0. -1.
         21   -1    0    0  503  502  0.00000000000E+00 -0.00000000000E+00 -0.71075868990E+00  0.71075868990E+00  0.00000000000E+00 0. -1.
         21    1    1    2  503  501 -0.11405548951E+02  0.22211060533E+02  0.26582208568E+03  0.26699213283E+03  0.00000000000E+00 0. -1.
         -2    1    1    2    0  502  0.11405548951E+02 -0.22211060533E+02  0.12394201005E+04  0.12396715707E+04  0.00000000000E+00 0. -1.
<mgrwt>
<rscale>  2 0.24968335E+02</rscale>
<asrwt>0</asrwt>
<pdfrwt beam="2">  1       21 0.10934870E-03 0.24968335E+02</pdfrwt>
<pdfrwt beam="1">  1       -2 0.23168251E+00 0.24968335E+02</pdfrwt>
<totfact> 0.64342577E+05</totfact>
</mgrwt>
</event>
<event>
 4    1  0.2185255E+006  0.3918241E+02  0.7546771E-02  0.1514316E+00
         21   -1    0    0  503  502  0.00000000000E+00  0.00000000000E+00  0.23586575341E+02  0.23586575341E+02  0.00000000000E+00 0. -1.
          2   -1    0    0  502    0 -0.00000000000E+00 -0.00000000000E+00 -0.57484681167E+03  0.57484681167E+03  0.00000000000E+00 0. -1.
         21    1    1    2  503  501  0.23683651253E+02  0.31214509529E+02  0.61374999106E+01  0.39660179613E+02  0.00000000000E+00 0. -1.
          2    1    1    2  501    0 -0.23683651253E+02 -0.31214509529E+02 -0.55739773624E+03  0.55877320740E+03  0.00000000000E+00 0. -1.
<mgrwt>
<rscale>  2 0.39182406E+02</rscale>
<asrwt>0</asrwt>
<pdfrwt beam="1">  1       21 0.36287041E-02 0.39182406E+02</pdfrwt>
<pdfrwt beam="2">  1        2 0.88437967E-01 0.39182406E+02</pdfrwt>
<totfact> 0.27734426E+05</totfact>
</mgrwt>
</event>
<event>
 4    1  0.2185255E+006  0.2029591E+02  0.7546771E-02  0.1739507E+00
          2   -1    0    0  503    0 -0.00000000000E+00  0.00000000000E+00  0.20411707377E+01  0.20411707377E+01  0.00000000000E+00 0. -1.
         21   -1    0    0  501  502  0.00000000000E+00 -0.00000000000E+00 -0.20192916409E+03  0.20192916409E+03  0.00000000000E+00 0.  1.
         21    1    1    2  503  502 -0.40874529430E+01  0.19880062529E+02 -0.97443659332E+02  0.99534872792E+02  0.00000000000E+00 0.  1.
          2    1    1    2  501    0  0.40874529430E+01 -0.19880062529E+02 -0.10244433402E+03  0.10443546203E+03  0.00000000000E+00 0. -1.
<mgrwt>
<rscale>  2 0.20295915E+02</rscale>
<asrwt>0</asrwt>
<pdfrwt beam="2">  1       21 0.31066031E-01 0.20295915E+02</pdfrwt>
<pdfrwt beam="1">  1        2 0.31402621E-03 0.20295915E+02</pdfrwt>
<totfact> 0.53632166E+06</totfact>
</mgrwt>
</event>
<event>
 4    1  0.2185255E+006  0.2242877E+02  0.7546771E-02  0.1700940E+00
         -4   -1    0    0    0  501 -0.00000000000E+00  0.00000000000E+00  0.72571494455E+03  0.72571494455E+03  0.00000000000E+00 0. -1.
         21   -1    0    0  501  502  0.00000000000E+00 -0.00000000000E+00 -0.76678699906E+00  0.76678699906E+00  0.00000000000E+00 0. -1.
         21    1    1    2  503  502 -0.13484508823E+02 -0.17922546226E+02  0.24992997245E+03  0.25093433557E+03  0.00000000000E+00 0. -1.
         -4    1    1    2    0  503  0.13484508823E+02  0.17922546226E+02  0.47501818510E+03  0.47554739597E+03  0.00000000000E+00 0. -1.
<mgrwt>
<rscale>  2 0.22428768E+02</rscale>
<asrwt>0</asrwt>
<pdfrwt beam="2">  1       21 0.11796781E-03 0.22428768E+02</pdfrwt>
<pdfrwt beam="1">  1       -4 0.11164790E+00 0.22428768E+02</pdfrwt>
<totfact> 0.15075656E+06</totfact>
</mgrwt>
</event>
<event>
 4    1  0.2185255E+006  0.2295736E+02  0.7546771E-02  0.1692202E+00
         -4   -1    0    0    0  501 -0.00000000000E+00  0.00000000000E+00  0.57591833102E+03  0.57591833102E+03  0.00000000000E+00 0.  1.
         21   -1    0    0  503  502  0.00000000000E+00 -0.00000000000E+00 -0.11867146687E+03  0.11867146687E+03  0.00000000000E+00 0.  1.
         21    1    1    2  503  501 -0.22863599808E+02  0.20727199799E+01 -0.11732979978E+03  0.11955468322E+03  0.00000000000E+00 0.  1.
         -4    1    1    2    0  502  0.22863599808E+02 -0.20727199799E+01  0.57457666393E+03  0.57503511467E+03  0.00000000000E+00 0.  1.
<mgrwt>
<rscale>  2 0.22957360E+02</rscale>
<asrwt>0</asrwt>
<pdfrwt beam="2">  1       21 0.18257149E-01 0.22957360E+02</pdfrwt>
<pdfrwt beam="1">  1       -4 0.88602819E-01 0.22957360E+02</pdfrwt>
<totfact> 0.10897437E+03</totfact>
</mgrwt>
</event>
<event>
 4    1  0.2185255E+006  0.2446256E+02  0.7546771E-02  0.1668844E+00
         21   -1    0    0  503  502  0.00000000000E+00  0.00000000000E+00  0.16398002906E+02  0.16398002906E+02  0.00000000000E+00 0.  1.
          2   -1    0    0  502    0 -0.00000000000E+00 -0.00000000000E+00 -0.13992609783E+03  0.13992609783E+03  0.00000000000E+00 0.  1.
         21    1    1    2  503  501 -0.23740576215E+02  0.58993095334E+01  0.54369582799E+01  0.25059475800E+02  0.00000000000E+00 0.  1.
          2    1    1    2  501    0  0.23740576215E+02 -0.58993095334E+01 -0.12896505320E+03  0.13126462493E+03  0.00000000000E+00 0.  1.
<mgrwt>
<rscale>  2 0.24462559E+02</rscale>
<asrwt>0</asrwt>
<pdfrwt beam="1">  1       21 0.25227698E-02 0.24462559E+02</pdfrwt>
<pdfrwt beam="2">  1        2 0.21527091E-01 0.24462559E+02</pdfrwt>
<totfact> 0.19276961E+06</totfact>
</mgrwt>
</event>
<event>
 4    1  0.2185255E+006  0.2328423E+02  0.7546771E-02  0.1686944E+00
          2   -1    0    0  503    0 -0.00000000000E+00  0.00000000000E+00  0.11721469295E+04  0.11721469295E+04  0.00000000000E+00 0. -1.
         21   -1    0    0  501  502  0.00000000000E+00 -0.00000000000E+00 -0.75366684508E+00  0.75366684508E+00  0.00000000000E+00 0. -1.
         21    1    1    2  503  502 -0.21775797566E+02  0.82444044906E+01  0.22120418236E+03  0.22242627062E+03  0.00000000000E+00 0. -1.
          2    1    1    2  501    0  0.21775797566E+02 -0.82444044906E+01  0.95018908031E+03  0.95047432575E+03  0.00000000000E+00 0. -1.
<mgrwt>
<rscale>  2 0.23284234E+02</rscale>
<asrwt>0</asrwt>
<pdfrwt beam="2">  1       21 0.11594968E-03 0.23284234E+02</pdfrwt>
<pdfrwt beam="1">  1        2 0.18032884E+00 0.23284234E+02</pdfrwt>
<totfact> 0.19268922E+07</totfact>
</mgrwt>
</event>
<event>
 4    1  0.2185255E+006  0.2228394E+02  0.7546771E-02  0.1703387E+00
          2   -1    0    0  502    0 -0.00000000000E+00  0.00000000000E+00  0.85808861939E+03  0.85808861939E+03  0.00000000000E+00 0. -1.
         21   -1    0    0  503  502  0.00000000000E+00 -0.00000000000E+00 -0.18179725027E+01  0.18179725027E+01  0.00000000000E+00 0.  1.
         21    1    1    2  503  501  0.20186379896E+02  0.94384269250E+01  0.73149138046E+02  0.76468099447E+02  0.00000000000E+00 0.  1.
          2    1    1    2  501    0 -0.20186379896E+02 -0.94384269250E+01  0.78312150884E+03  0.78343849245E+03  0.00000000000E+00 0. -1.
<mgrwt>
<rscale>  2 0.22283937E+02</rscale>
<asrwt>0</asrwt>
<pdfrwt beam="2">  1       21 0.27968876E-03 0.22283937E+02</pdfrwt>
<pdfrwt beam="1">  1        2 0.13201331E+00 0.22283937E+02</pdfrwt>
<totfact> 0.79260492E+06</totfact>
</mgrwt>
</event>
<event>
 4    1  0.2185255E+006  0.2220800E+02  0.7546771E-02  0.1704679E+00
         21   -1    0    0  503  502  0.00000000000E+00  0.00000000000E+00  0.12365714420E+04  0.12365714420E+04  0.00000000000E+00 0.  1.
          2   -1    0    0  502    0 -0.00000000000E+00 -0.00000000000E+00 -0.40051150569E+03  0.40051150569E+03  0.00000000000E+00 0. -1.
         21    1    1    2  503  501 -0.18727291655E+02  0.11936660701E+02  0.12361637769E+04  0.12363632470E+04  0.00000000000E+00 0.  1.
          2    1    1    2  501    0  0.18727291655E+02 -0.11936660701E+02 -0.40010384053E+03  0.40071970070E+03  0.00000000000E+00 0. -1.
<mgrwt>
<rscale>  2 0.22208001E+02</rscale>
<asrwt>0</asrwt>
<pdfrwt beam="1">  1       21 0.19024176E+00 0.22208001E+02</pdfrwt>
<pdfrwt beam="2">  1        2 0.61617155E-01 0.22208001E+02</pdfrwt>
<totfact> 0.22704256E+02</totfact>
</mgrwt>
</event>
<event>
 4    1  0.2185255E+006  0.7455475E+02  0.7546771E-02  0.1345255E+00
          2   -1    0    0  503    0 -0.00000000000E+00  0.00000000000E+00  0.25338900206E+02  0.25338900206E+02  0.00000000000E+00 0.  1.
         21   -1    0    0  501  502  0.00000000000E+00 -0.00000000000E+00 -0.26494028042E+03  0.26494028042E+03  0.00000000000E+00 0.  1.
         21    1    1    2  503  502  0.14708058807E+01  0.74540239482E+02 -0.17999942169E+03  0.19482864877E+03  0.00000000000E+00 0.  1.
          2    1    1    2  501    0 -0.14708058807E+01 -0.74540239482E+02 -0.59601958525E+02  0.95450531858E+02  0.00000000000E+00 0.  1.
<mgrwt>
<rscale>  2 0.74554749E+02</rscale>
<asrwt>0</asrwt>
<pdfrwt beam="2">  1       21 0.40760042E-01 0.74554749E+02</pdfrwt>
<pdfrwt beam="1">  1        2 0.38982925E-02 0.74554749E+02</pdfrwt>
<totfact> 0.14453310E+05</totfact>
</mgrwt>
</event>
<event>
 4    1  0.2185255E+006  0.2307879E+02  0.7546771E-02  0.1690236E+00
         21   -1    0    0  503  502  0.00000000000E+00  0.00000000000E+00  0.11385608231E+02  0.11385608231E+02  0.00000000000E+00 0.  1.
         -1   -1    0    0    0  501 -0.00000000000E+00 -0.00000000000E+00 -0.78901646143E+02  0.78901646143E+02  0.00000000000E+00 0.  1.
         21    1    1    2  503  501  0.10830046280E+02 -0.20379910805E+02 -0.49545204050E+01  0.23604616906E+02  0.00000000000E+00 0.  1.
         -1    1    1    2    0  502 -0.10830046280E+02  0.20379910805E+02 -0.62561517508E+02  0.66682637468E+02  0.00000000000E+00 0.  1.
<mgrwt>
<rscale>  2 0.23078793E+02</rscale>
<asrwt>0</asrwt>
<pdfrwt beam="1">  1       21 0.17516321E-02 0.23078793E+02</pdfrwt>
<pdfrwt beam="2">  1       -1 0.12138714E-01 0.23078793E+02</pdfrwt>
<totfact> 0.40681744E+06</totfact>
</mgrwt>
</event>
<event>
 4    1  0.2185255E+006  0.2720810E+02  0.7546771E-02  0.1631172E+00
         21   -1    0    0  503  502  0.00000000000E+00  0.00000000000E+00  0.60171532295E+01  0.60171532295E+01  0.00000000000E+00 0.  1.
          1   -1    0    0  502    0 -0.00000000000E+00 -0.00000000000E+00 -0.12110879230E+04  0.12110879230E+04  0.00000000000E+00 0.  1.
         21    1    1    2  503  501  0.25317427638E+02 -0.99653581949E+01 -0.25720344322E+02  0.37440841580E+02  0.00000000000E+00 0.  1.
          1    1    1    2  501    0 -0.25317427638E+02  0.99653581949E+01 -0.11793504254E+04  0.11796642346E+04  0.00000000000E+00 0.  1.
<mgrwt>
<rscale>  2 0.27208096E+02</rscale>
<asrwt>0</asrwt>
<pdfrwt beam="1">  1       21 0.92571668E-03 0.27208096E+02</pdfrwt>
<pdfrwt beam="2">  1        1 0.18632106E+00 0.27208096E+02</pdfrwt>
<totfact> 0.47009869E+05</totfact>
</mgrwt>
</event>
<event>
 4    1  0.2185255E+006  0.4230844E+02  0.7546771E-02  0.1491880E+00
         21   -1    0    0  503  502  0.00000000000E+00  0.00000000000E+00  0.28481873344E+02  0.28481873344E+02  0.00000000000E+00 0. -1.
          1   -1    0    0  502    0 -0.00000000000E+00 -0.00000000000E+00 -0.19043626260E+03  0.19043626260E+03  0.00000000000E+00 0. -1.
         21    1    1    2  503  501  0.38826036211E+02 -0.16809021991E+02  0.86177994105E+01  0.43177202026E+02  0.00000000000E+00 0. -1.
          1    1    1    2  501    0 -0.38826036211E+02  0.16809021991E+02 -0.17057218867E+03  0.17574093392E+03  0.00000000000E+00 0. -1.
<mgrwt>
<rscale>  2 0.42308443E+02</rscale>
<asrwt>0</asrwt>
<pdfrwt beam="1">  1       21 0.43818266E-02 0.42308443E+02</pdfrwt>
<pdfrwt beam="2">  1        1 0.29297887E-01 0.42308443E+02</pdfrwt>
<totfact> 0.49294268E+05</totfact>
</mgrwt>
</event>
<event>
 4    1  0.2185255E+006  0.2021514E+02  0.7546771E-02  0.1741083E+00
         21   -1    0    0  503  502  0.00000000000E+00  0.00000000000E+00  0.56127316047E+03  0.56127316047E+03  0.00000000000E+00 0.  1.
         -2   -1    0    0    0  501 -0.00000000000E+00 -0.00000000000E+00 -0.76186393947E+00  0.76186393947E+00  0.00000000000E+00 0.  1.
         21    1    1    2  503  501 -0.11369609424E+02  0.16714774246E+02  0.33943232580E+03  0.34003375640E+03  0.00000000000E+00 0.  1.
         -2    1    1    2    0  502  0.11369609424E+02 -0.16714774246E+02  0.22107897073E+03  0.22200126800E+03  0.00000000000E+00 0.  1.
<mgrwt>
<rscale>  2 0.20215135E+02</rscale>
<asrwt>0</asrwt>
<pdfrwt beam="1">  1       21 0.86349387E-01 0.20215135E+02</pdfrwt>
<pdfrwt beam="2">  1       -2 0.11721029E-03 0.20215135E+02</pdfrwt>
<totfact> 0.26215693E+06</totfact>
</mgrwt>
</event>
<event>
 4    1  0.2185255E+006  0.2614141E+02  0.7546771E-02  0.1645129E+00
         21   -1    0    0  503  502  0.00000000000E+00  0.00000000000E+00  0.19957257794E+02  0.19957257794E+02  0.00000000000E+00 0. -1.
         -1   -1    0    0    0  501 -0.00000000000E+00 -0.00000000000E+00 -0.87832935175E+02  0.87832935175E+02  0.00000000000E+00 0.  1.
         21    1    1    2  503  501 -0.44851509655E+01  0.25753766628E+02  0.81606885586E+01  0.27385578549E+02  0.00000000000E+00 0. -1.
         -1    1    1    2    0  502  0.44851509655E+01 -0.25753766628E+02 -0.76036365940E+02  0.80404614420E+02  0.00000000000E+00 0.  1.
<mgrwt>
<rscale>  2 0.26141405E+02</rscale>
<asrwt>0</asrwt>
<pdfrwt beam="1">  1       21 0.30703473E-02 0.26141405E+02</pdfrwt>
<pdfrwt beam="2">  1       -1 0.13512759E-01 0.26141405E+02</pdfrwt>
<totfact> 0.15068221E+06</totfact>
</mgrwt>
</event>
<event>
 4    1  0.2185255E+006  0.3053857E+02  0.7546771E-02  0.1592211E+00
         21   -1    0    0  503  502  0.00000000000E+00  0.00000000000E+00  0.18212609483E+03  0.18212609483E+03  0.00000000000E+00 0.  1.
         -2   -1    0    0    0  501 -0.00000000000E+00 -0.00000000000E+00 -0.35883027548E+02  0.35883027548E+02  0.00000000000E+00 0.  1.
         21    1    1    2  503  501 -0.29825679360E+02  0.65599616614E+01  0.17404916259E+03  0.17670799428E+03  0.00000000000E+00 0.  1.
         -2    1    1    2    0  502  0.29825679360E+02 -0.65599616614E+01 -0.27806095302E+02  0.41301128098E+02  0.00000000000E+00 0.  1.
<mgrwt>
<rscale>  2 0.30538570E+02</rscale>
<asrwt>0</asrwt>
<pdfrwt beam="1">  1       21 0.28019399E-01 0.30538570E+02</pdfrwt>
<pdfrwt beam="2">  1       -2 0.55204659E-02 0.30538570E+02</pdfrwt>
<totfact> 0.13647266E+05</totfact>
</mgrwt>
</event>
<event>
 4    1  0.2185255E+006  0.2884955E+02  0.7546771E-02  0.1611165E+00
         -1   -1    0    0    0  501 -0.00000000000E+00  0.00000000000E+00  0.90045189492E+02  0.90045189492E+02  0.00000000000E+00 0. -1.
         21   -1    0    0  503  502  0.00000000000E+00 -0.00000000000E+00 -0.20809987345E+03  0.20809987345E+03  0.00000000000E+00 0. -1.
         21    1    1    2  503  501 -0.20802316688E+02  0.19989002713E+02 -0.20475162045E+03  0.20677408611E+03  0.00000000000E+00 0. -1.
         -1    1    1    2    0  502  0.20802316688E+02 -0.19989002713E+02  0.86696936496E+02  0.91370976829E+02  0.00000000000E+00 0. -1.
<mgrwt>
<rscale>  2 0.28849551E+02</rscale>
<asrwt>0</asrwt>
<pdfrwt beam="2">  1       21 0.32015365E-01 0.28849551E+02</pdfrwt>
<pdfrwt beam="1">  1       -1 0.13853106E-01 0.28849551E+02</pdfrwt>
<totfact> 0.28785990E+04</totfact>
</mgrwt>
</event>
<event>
 4    1  0.2185255E+006  0.4551540E+02  0.7546771E-02  0.1471150E+00
         21   -1    0    0  503  502  0.00000000000E+00  0.00000000000E+00  0.42825286013E+03  0.42825286013E+03  0.00000000000E+00 0. -1.
          4   -1    0    0  502    0 -0.00000000000E+00 -0.00000000000E+00 -0.15168335750E+03  0.15168335750E+03  0.00000000000E+00 0.  1.
         21    1    1    2  503  501 -0.39805679458E+02 -0.22071690047E+02  0.42359159803E+03  0.42602992095E+03  0.00000000000E+00 0. -1.
          4    1    1    2  501    0  0.39805679458E+02  0.22071690047E+02 -0.14702209540E+03  0.15390629667E+03  0.00000000000E+00 0.  1.
<mgrwt>
<rscale>  2 0.45515400E+02</rscale>
<asrwt>0</asrwt>
<pdfrwt beam="1">  1       21 0.65885055E-01 0.45515400E+02</pdfrwt>
<pdfrwt beam="2">  1        4 0.23335901E-01 0.45515400E+02</pdfrwt>
<totfact> 0.14177872E+03</totfact>
</mgrwt>
</event>
<event>
 4    1  0.2185255E+006  0.2069229E+02  0.7546771E-02  0.1731901E+00
          2   -1    0    0  503    0 -0.00000000000E+00  0.00000000000E+00  0.71250524085E+03  0.71250524085E+03  0.00000000000E+00 0.  1.
         21   -1    0    0  501  502  0.00000000000E+00 -0.00000000000E+00 -0.27150694765E+01  0.27150694765E+01  0.00000000000E+00 0. -1.
         21    1    1    2  503  502  0.20641993445E+02 -0.14418488702E+01  0.39332533618E+02  0.44443436212E+02  0.00000000000E+00 0. -1.
          2    1    1    2  501    0 -0.20641993445E+02  0.14418488702E+01  0.67045763776E+03  0.67077687412E+03  0.00000000000E+00 0.  1.
<mgrwt>
<rscale>  2 0.20692289E+02</rscale>
<asrwt>0</asrwt>
<pdfrwt beam="2">  1       21 0.41770357E-03 0.20692289E+02</pdfrwt>
<pdfrwt beam="1">  1        2 0.10961604E+00 0.20692289E+02</pdfrwt>
<totfact> 0.53394481E+06</totfact>
</mgrwt>
</event>
<event>
 4    1  0.2185255E+006  0.2774333E+02  0.7546771E-02  0.1624462E+00
         21   -1    0    0  503  502  0.00000000000E+00  0.00000000000E+00  0.74714345220E+01  0.74714345220E+01  0.00000000000E+00 0.  1.
          1   -1    0    0  502    0 -0.00000000000E+00 -0.00000000000E+00 -0.42010450762E+03  0.42010450762E+03  0.00000000000E+00 0.  1.
         21    1    1    2  503  501  0.25918408824E+02  0.98958789329E+01 -0.20581657345E+02  0.34544130542E+02  0.00000000000E+00 0.  1.
          1    1    1    2  501    0 -0.25918408824E+02 -0.98958789329E+01 -0.39205141575E+03  0.39303181160E+03  0.00000000000E+00 0.  1.
<mgrwt>
<rscale>  2 0.27743330E+02</rscale>
<asrwt>0</asrwt>
<pdfrwt beam="1">  1       21 0.11494515E-02 0.27743330E+02</pdfrwt>
<pdfrwt beam="2">  1        1 0.64631459E-01 0.27743330E+02</pdfrwt>
<totfact> 0.14687208E+06</totfact>
</mgrwt>
</event>
<event>
 4    1  0.2185255E+006  0.2210403E+02  0.7546771E-02  0.1706459E+00
         -4   -1    0    0    0  501 -0.00000000000E+00  0.00000000000E+00  0.61809275068E+02  0.61809275068E+02  0.00000000000E+00 0.  1.
         21   -1    0    0  503  502  0.00000000000E+00 -0.00000000000E+00 -0.51471505505E+02  0.51471505505E+02  0.00000000000E+00 0. -1.
         21    1    1    2  503  501 -0.15599129875E+02  0.15660631852E+02 -0.46941022437E+02  0.51884948013E+02  0.00000000000E+00 0. -1.
         -4    1    1    2    0  502  0.15599129875E+02 -0.15660631852E+02  0.57278791999E+02  0.61395832560E+02  0.00000000000E+00 0.  1.
<mgrwt>
<rscale>  2 0.22104032E+02</rscale>
<asrwt>0</asrwt>
<pdfrwt beam="2">  1       21 0.79186931E-02 0.22104032E+02</pdfrwt>
<pdfrwt beam="1">  1       -4 0.95091193E-02 0.22104032E+02</pdfrwt>
<totfact> 0.25455594E+05</totfact>
</mgrwt>
</event>
<event>
 4    1  0.2185255E+006  0.2813004E+02  0.7546771E-02  0.1619729E+00
          4   -1    0    0  502    0 -0.00000000000E+00  0.00000000000E+00  0.31240857922E+03  0.31240857922E+03  0.00000000000E+00 0. -1.
         21   -1    0    0  503  502  0.00000000000E+00 -0.00000000000E+00 -0.28193694018E+01  0.28193694018E+01  0.00000000000E+00 0. -1.
         21    1    1    2  503  501  0.20287905132E+02  0.19485888969E+02  0.10455345013E+03  0.10827152395E+03  0.00000000000E+00 0. -1.
          4    1    1    2  501    0 -0.20287905132E+02 -0.19485888969E+02  0.20503575968E+03  0.20695642467E+03  0.00000000000E+00 0. -1.
<mgrwt>
<rscale>  2 0.28130037E+02</rscale>
<asrwt>0</asrwt>
<pdfrwt beam="2">  1       21 0.43374938E-03 0.28130037E+02</pdfrwt>
<pdfrwt beam="1">  1        4 0.48062831E-01 0.28130037E+02</pdfrwt>
<totfact> 0.14507225E+06</totfact>
</mgrwt>
</event>
<event>
 4    1  0.2185255E+006  0.2248489E+02  0.7546771E-02  0.1699999E+00
          1   -1    0    0  502    0 -0.00000000000E+00  0.00000000000E+00  0.12758128067E+03  0.12758128067E+03  0.00000000000E+00 0.  1.
         21   -1    0    0  503  502  0.00000000000E+00 -0.00000000000E+00 -0.23618875068E+02  0.23618875068E+02  0.00000000000E+00 0.  1.
         21    1    1    2  503  501 -0.16444902363E+02 -0.15334125733E+02 -0.16985872270E+02  0.28179604016E+02  0.00000000000E+00 0.  1.
          1    1    1    2  501    0  0.16444902363E+02  0.15334125733E+02  0.12094827787E+03  0.12302055172E+03  0.00000000000E+00 0.  1.
<mgrwt>
<rscale>  2 0.22484889E+02</rscale>
<asrwt>0</asrwt>
<pdfrwt beam="2">  1       21 0.36336732E-02 0.22484889E+02</pdfrwt>
<pdfrwt beam="1">  1        1 0.19627889E-01 0.22484889E+02</pdfrwt>
<totfact> 0.96270252E+05</totfact>
</mgrwt>
</event>
<event>
 4    1  0.2185255E+006  0.2279133E+02  0.7546771E-02  0.1694915E+00
         21   -1    0    0  501  502  0.00000000000E+00  0.00000000000E+00  0.23327417303E+03  0.23327417303E+03  0.00000000000E+00 0. -1.
          1   -1    0    0  503    0 -0.00000000000E+00 -0.00000000000E+00 -0.47690992722E+01  0.47690992722E+01  0.00000000000E+00 0. -1.
         21    1    1    2  503  502  0.17373044674E+02 -0.14752019773E+02  0.20115354033E+03  0.20244058772E+03  0.00000000000E+00 0. -1.
          1    1    1    2  501    0 -0.17373044674E+02  0.14752019773E+02  0.27351533423E+02  0.35602684579E+02  0.00000000000E+00 0. -1.
<mgrwt>
<rscale>  2 0.22791331E+02</rscale>
<asrwt>0</asrwt>
<pdfrwt beam="1">  1       21 0.35888325E-01 0.22791331E+02</pdfrwt>
<pdfrwt beam="2">  1        1 0.73370776E-03 0.22791331E+02</pdfrwt>
<totfact> 0.13763221E+06</totfact>
</mgrwt>
</event>
<event>
 4    1  0.2185255E+006  0.2033065E+02  0.7546771E-02  0.1738831E+00
         21   -1    0    0  503  502  0.00000000000E+00  0.00000000000E+00  0.17723480365E+02  0.17723480365E+02  0.00000000000E+00 0.  1.
          3   -1    0    0  502    0 -0.00000000000E+00 -0.00000000000E+00 -0.86215587463E+03  0.86215587463E+03  0.00000000000E+00 0. -1.
         21    1    1    2  503  501 -0.20261067209E+02  0.16806780436E+01  0.11732495317E+02  0.23473111628E+02  0.00000000000E+00 0.  1.
          3    1    1    2  501    0  0.20261067209E+02 -0.16806780436E+01 -0.85616488958E+03  0.85640624337E+03  0.00000000000E+00 0. -1.
<mgrwt>
<rscale>  2 0.20330655E+02</rscale>
<asrwt>0</asrwt>
<pdfrwt beam="1">  1       21 0.27266892E-02 0.20330655E+02</pdfrwt>
<pdfrwt beam="2">  1        3 0.13263937E+00 0.20330655E+02</pdfrwt>
<totfact> 0.12877440E+04</totfact>
</mgrwt>
</event>
<event>
 4    1  0.2185255E+006  0.2041319E+02  0.7546771E-02  0.1737234E+00
         21   -1    0    0  503  502  0.00000000000E+00  0.00000000000E+00  0.23532564123E+01  0.23532564123E+01  0.00000000000E+00 0. -1.
          2   -1    0    0  502    0 -0.00000000000E+00 -0.00000000000E+00 -0.10988772763E+04  0.10988772763E+04  0.00000000000E+00 0.  1.
         21    1    1    2  503  501 -0.19441087390E+02  0.62243349122E+01 -0.43957320924E+02  0.48465908501E+02  0.00000000000E+00 0. -1.
          2    1    1    2  501    0  0.19441087390E+02 -0.62243349122E+01 -0.10525666989E+04  0.10527646242E+04  0.00000000000E+00 0.  1.
<mgrwt>
<rscale>  2 0.20413188E+02</rscale>
<asrwt>0</asrwt>
<pdfrwt beam="1">  1       21 0.36203843E-03 0.20413188E+02</pdfrwt>
<pdfrwt beam="2">  1        2 0.16905852E+00 0.20413188E+02</pdfrwt>
<totfact> 0.39378130E+06</totfact>
</mgrwt>
</event>
<event>
 4    1  0.2185255E+006  0.2157827E+02  0.7546771E-02  0.1715649E+00
         -2   -1    0    0    0  501 -0.00000000000E+00  0.00000000000E+00  0.62803953878E+03  0.62803953878E+03  0.00000000000E+00 0.  1.
         21   -1    0    0  503  502  0.00000000000E+00 -0.00000000000E+00 -0.67908382637E+01  0.67908382637E+01  0.00000000000E+00 0.  1.
         21    1    1    2  503  501 -0.11323192937E+01  0.21548540264E+02  0.11036689017E+02  0.24236960184E+02  0.00000000000E+00 0.  1.
         -2    1    1    2    0  502  0.11323192937E+01 -0.21548540264E+02  0.61021201150E+03  0.61059341686E+03  0.00000000000E+00 0.  1.
<mgrwt>
<rscale>  2 0.21578270E+02</rscale>
<asrwt>0</asrwt>
<pdfrwt beam="2">  1       21 0.10447448E-02 0.21578270E+02</pdfrwt>
<pdfrwt beam="1">  1       -2 0.96621422E-01 0.21578270E+02</pdfrwt>
<totfact> 0.20028477E+05</totfact>
</mgrwt>
</event>
<event>
 4    1  0.2185255E+006  0.2039417E+02  0.7546771E-02  0.1737601E+00
         21   -1    0    0  501  502  0.00000000000E+00  0.00000000000E+00  0.10721254771E+01  0.10721254771E+01  0.00000000000E+00 0.  1.
          2   -1    0    0  503    0 -0.00000000000E+00 -0.00000000000E+00 -0.49448089014E+03  0.49448089014E+03  0.00000000000E+00 0. -1.
         21    1    1    2  503  502 -0.11416164928E+02 -0.16899506146E+02 -0.13169317482E+03  0.13326295218E+03  0.00000000000E+00 0.  1.
          2    1    1    2  501    0  0.11416164928E+02  0.16899506146E+02 -0.36171558984E+03  0.36229006343E+03  0.00000000000E+00 0. -1.
<mgrwt>
<rscale>  2 0.20394169E+02</rscale>
<asrwt>0</asrwt>
<pdfrwt beam="1">  1       21 0.16494218E-03 0.20394169E+02</pdfrwt>
<pdfrwt beam="2">  1        2 0.76074074E-01 0.20394169E+02</pdfrwt>
<totfact> 0.29792861E+07</totfact>
</mgrwt>
</event>
<event>
 4    1  0.2185255E+006  0.2637714E+02  0.7546771E-02  0.1641975E+00
         21   -1    0    0  503  502  0.00000000000E+00  0.00000000000E+00  0.13563778265E+01  0.13563778265E+01  0.00000000000E+00 0. -1.
          2   -1    0    0  502    0 -0.00000000000E+00 -0.00000000000E+00 -0.18305302424E+04  0.18305302424E+04  0.00000000000E+00 0. -1.
         21    1    1    2  503  501  0.26600538736E+01 -0.26242669437E+02 -0.13750156921E+03  0.14000869659E+03  0.00000000000E+00 0. -1.
          2    1    1    2  501    0 -0.26600538736E+01  0.26242669437E+02 -0.16916722953E+04  0.16918779236E+04  0.00000000000E+00 0. -1.
<mgrwt>
<rscale>  2 0.26377141E+02</rscale>
<asrwt>0</asrwt>
<pdfrwt beam="1">  1       21 0.20867362E-03 0.26377141E+02</pdfrwt>
<pdfrwt beam="2">  1        2 0.28161988E+00 0.26377141E+02</pdfrwt>
<totfact> 0.41123544E+06</totfact>
</mgrwt>
</event>
<event>
 4    1  0.2185255E+006  0.2200879E+02  0.7546771E-02  0.1708100E+00
         21   -1    0    0  501  502  0.00000000000E+00  0.00000000000E+00  0.40624613751E+02  0.40624613751E+02  0.00000000000E+00 0. -1.
          1   -1    0    0  503    0 -0.00000000000E+00 -0.00000000000E+00 -0.16878071443E+02  0.16878071443E+02  0.00000000000E+00 0. -1.
         21    1    1    2  503  502 -0.64947962386E+01  0.21028653756E+02  0.27450878936E+02  0.35184334743E+02  0.00000000000E+00 0. -1.
          1    1    1    2  501    0  0.64947962386E+01 -0.21028653756E+02 -0.37043366290E+01  0.22318350450E+02  0.00000000000E+00 0. -1.
<mgrwt>
<rscale>  2 0.22008786E+02</rscale>
<asrwt>0</asrwt>
<pdfrwt beam="1">  1       21 0.62499406E-02 0.22008786E+02</pdfrwt>
<pdfrwt beam="2">  1        1 0.25966264E-02 0.22008786E+02</pdfrwt>
<totfact> 0.51516092E+06</totfact>
</mgrwt>
</event>
<event>
 4    1  0.2185255E+006  0.2134622E+02  0.7546771E-02  0.1719810E+00
         21   -1    0    0  501  502  0.00000000000E+00  0.00000000000E+00  0.92419920808E+00  0.92419920808E+00  0.00000000000E+00 0. -1.
          2   -1    0    0  503    0 -0.00000000000E+00 -0.00000000000E+00 -0.12778307906E+04  0.12778307906E+04  0.00000000000E+00 0. -1.
         21    1    1    2  503  502  0.96093041110E+01 -0.19061017558E+02 -0.13738210307E+03  0.13903058426E+03  0.00000000000E+00 0. -1.
          2    1    1    2  501    0 -0.96093041110E+01  0.19061017558E+02 -0.11395244883E+04  0.11397244056E+04  0.00000000000E+00 0. -1.
<mgrwt>
<rscale>  2 0.21346220E+02</rscale>
<asrwt>0</asrwt>
<pdfrwt beam="1">  1       21 0.14218550E-03 0.21346220E+02</pdfrwt>
<pdfrwt beam="2">  1        2 0.19658796E+00 0.21346220E+02</pdfrwt>
<totfact> 0.12478820E+07</totfact>
</mgrwt>
</event>
<event>
 4    1  0.2185255E+006  0.2302088E+02  0.7546771E-02  0.1691172E+00
         21   -1    0    0  501  502  0.00000000000E+00  0.00000000000E+00  0.33194582306E+02  0.33194582306E+02  0.00000000000E+00 0.  1.
         -2   -1    0    0    0  501 -0.00000000000E+00 -0.00000000000E+00 -0.15966909320E+02  0.15966909320E+02  0.00000000000E+00 0.  1.
         21    1    1    2  503  502  0.20424536722E+01  0.22930096844E+02  0.83658914189E+01  0.24493858363E+02  0.00000000000E+00 0.  1.
         -2    1    1    2    0  503 -0.20424536722E+01 -0.22930096844E+02  0.88617815668E+01  0.24667633263E+02  0.00000000000E+00 0.  1.
<mgrwt>
<rscale>  2 0.23020881E+02</rscale>
<asrwt>0</asrwt>
<pdfrwt beam="1">  1       21 0.51068588E-02 0.23020881E+02</pdfrwt>
<pdfrwt beam="2">  1       -2 0.24564476E-02 0.23020881E+02</pdfrwt>
<totfact> 0.71618266E+06</totfact>
</mgrwt>
</event>
<event>
 4    1  0.2185255E+006  0.2211677E+02  0.7546771E-02  0.1706240E+00
          2   -1    0    0  503    0 -0.00000000000E+00  0.00000000000E+00  0.18778414830E+02  0.18778414830E+02  0.00000000000E+00 0.  1.
         21   -1    0    0  501  502  0.00000000000E+00 -0.00000000000E+00 -0.30657011390E+02  0.30657011390E+02  0.00000000000E+00 0. -1.
         21    1    1    2  503  502  0.34021644935E+00  0.22114156843E+02 -0.15522670110E+02  0.27020454612E+02  0.00000000000E+00 0. -1.
          2    1    1    2  501    0 -0.34021644935E+00 -0.22114156843E+02  0.36440735496E+01  0.22414971607E+02  0.00000000000E+00 0.  1.
<mgrwt>
<rscale>  2 0.22116774E+02</rscale>
<asrwt>0</asrwt>
<pdfrwt beam="2">  1       21 0.47164632E-02 0.22116774E+02</pdfrwt>
<pdfrwt beam="1">  1        2 0.28889870E-02 0.22116774E+02</pdfrwt>
<totfact> 0.73928493E+06</totfact>
</mgrwt>
</event>
<event>
 4    1  0.2185255E+006  0.5281767E+02  0.7546771E-02  0.1430710E+00
         21   -1    0    0  503  502  0.00000000000E+00  0.00000000000E+00  0.88584312540E+02  0.88584312540E+02  0.00000000000E+00 0. -1.
          2   -1    0    0  502    0 -0.00000000000E+00 -0.00000000000E+00 -0.11141427707E+04  0.11141427707E+04  0.00000000000E+00 0.  1.
         21    1    1    2  503  501  0.29521216554E+02 -0.43797306035E+02  0.80024389213E+02  0.95883309870E+02  0.00000000000E+00 0. -1.
          2    1    1    2  501    0 -0.29521216554E+02  0.43797306035E+02 -0.11055828474E+04  0.11068437734E+04  0.00000000000E+00 0.  1.
<mgrwt>
<rscale>  2 0.52817670E+02</rscale>
<asrwt>0</asrwt>
<pdfrwt beam="1">  1       21 0.13628355E-01 0.52817670E+02</pdfrwt>
<pdfrwt beam="2">  1        2 0.17140659E+00 0.52817670E+02</pdfrwt>
<totfact> 0.14045773E+04</totfact>
</mgrwt>
</event>
<event>
 4    1  0.2185255E+006  0.2989066E+02  0.7546771E-02  0.1599300E+00
         21   -1    0    0  501  502  0.00000000000E+00  0.00000000000E+00  0.29544291848E+02  0.29544291848E+02  0.00000000000E+00 0.  1.
         -4   -1    0    0    0  501 -0.00000000000E+00 -0.00000000000E+00 -0.33043418490E+02  0.33043418490E+02  0.00000000000E+00 0.  1.
         21    1    1    2  503  502  0.15736414319E+02  0.25412929424E+02  0.73637387606E+01  0.30784352617E+02  0.00000000000E+00 0.  1.
         -4    1    1    2    0  503 -0.15736414319E+02 -0.25412929424E+02 -0.10862865402E+02  0.31803357720E+02  0.00000000000E+00 0.  1.
<mgrwt>
<rscale>  2 0.29890663E+02</rscale>
<asrwt>0</asrwt>
<pdfrwt beam="1">  1       21 0.45452757E-02 0.29890663E+02</pdfrwt>
<pdfrwt beam="2">  1       -4 0.50836028E-02 0.29890663E+02</pdfrwt>
<totfact> 0.18719814E+06</totfact>
</mgrwt>
</event>
<event>
 4    1  0.2185255E+006  0.2918483E+02  0.7546771E-02  0.1607278E+00
         -1   -1    0    0    0  501 -0.00000000000E+00  0.00000000000E+00  0.36660095966E+02  0.36660095966E+02  0.00000000000E+00 0. -1.
         21   -1    0    0  503  502  0.00000000000E+00 -0.00000000000E+00 -0.55627112541E+02  0.55627112541E+02  0.00000000000E+00 0.  1.
         21    1    1    2  503  501 -0.22008461686E+02  0.19167210170E+02 -0.44695918632E+02  0.53380515863E+02  0.00000000000E+00 0.  1.
         -1    1    1    2    0  502  0.22008461686E+02 -0.19167210170E+02  0.25728902057E+02  0.38906692644E+02  0.00000000000E+00 0. -1.
<mgrwt>
<rscale>  2 0.29184831E+02</rscale>
<asrwt>0</asrwt>
<pdfrwt beam="2">  1       21 0.85580173E-02 0.29184831E+02</pdfrwt>
<pdfrwt beam="1">  1       -1 0.56400147E-02 0.29184831E+02</pdfrwt>
<totfact> 0.10502390E+06</totfact>
</mgrwt>
</event>
<event>
 4    1  0.2185255E+006  0.2071706E+02  0.7546771E-02  0.1731433E+00
          1   -1    0    0  503    0 -0.00000000000E+00  0.00000000000E+00  0.50288025311E+03  0.50288025311E+03  0.00000000000E+00 0. -1.
         21   -1    0    0  501  502  0.00000000000E+00 -0.00000000000E+00 -0.13982354398E+01  0.13982354398E+01  0.00000000000E+00 0.  1.
         21    1    1    2  503  502 -0.14099142190E+02  0.15179290854E+02  0.93360003170E+02  0.95630993266E+02  0.00000000000E+00 0.  1.
          1    1    1    2  501    0  0.14099142190E+02 -0.15179290854E+02  0.40812201450E+03  0.40864749528E+03  0.00000000000E+00 0. -1.
<mgrwt>
<rscale>  2 0.20717063E+02</rscale>
<asrwt>0</asrwt>
<pdfrwt beam="2">  1       21 0.21511355E-03 0.20717063E+02</pdfrwt>
<pdfrwt beam="1">  1        1 0.77366048E-01 0.20717063E+02</pdfrwt>
<totfact> 0.13144368E+07</totfact>
</mgrwt>
</event>
<event>
 4    1  0.2185255E+006  0.2848839E+02  0.7546771E-02  0.1615425E+00
         21   -1    0    0  503  502  0.00000000000E+00  0.00000000000E+00  0.65115494158E+01  0.65115494158E+01  0.00000000000E+00 0. -1.
          2   -1    0    0  502    0 -0.00000000000E+00 -0.00000000000E+00 -0.67538284684E+03  0.67538284684E+03  0.00000000000E+00 0. -1.
         21    1    1    2  503  501  0.73402497397E+01 -0.27526519957E+02 -0.26551586244E+02  0.38943231751E+02  0.00000000000E+00 0. -1.
          2    1    1    2  501    0 -0.73402497397E+01  0.27526519957E+02 -0.64231971118E+03  0.64295116450E+03  0.00000000000E+00 0. -1.
<mgrwt>
<rscale>  2 0.28488394E+02</rscale>
<asrwt>0</asrwt>
<pdfrwt beam="1">  1       21 0.10017775E-02 0.28488394E+02</pdfrwt>
<pdfrwt beam="2">  1        2 0.10390499E+00 0.28488394E+02</pdfrwt>
<totfact> 0.16486134E+06</totfact>
</mgrwt>
</event>
<event>
 4    1  0.2185255E+006  0.2559054E+02  0.7546771E-02  0.1652662E+00
          3   -1    0    0  503    0 -0.00000000000E+00  0.00000000000E+00  0.17328236523E+02  0.17328236523E+02  0.00000000000E+00 0. -1.
         21   -1    0    0  501  502  0.00000000000E+00 -0.00000000000E+00 -0.87153872280E+02  0.87153872280E+02  0.00000000000E+00 0. -1.
         21    1    1    2  503  502  0.51017447776E+01  0.25076840936E+02 -0.74228210372E+02  0.78515622434E+02  0.00000000000E+00 0. -1.
          3    1    1    2  501    0 -0.51017447776E+01 -0.25076840936E+02  0.44025746148E+01  0.25966486369E+02  0.00000000000E+00 0. -1.
<mgrwt>
<rscale>  2 0.25590540E+02</rscale>
<asrwt>0</asrwt>
<pdfrwt beam="2">  1       21 0.13408288E-01 0.25590540E+02</pdfrwt>
<pdfrwt beam="1">  1        3 0.26658825E-02 0.25590540E+02</pdfrwt>
<totfact> 0.92793246E+05</totfact>
</mgrwt>
</event>
<event>
 4    1  0.2185255E+006  0.2199198E+02  0.7546771E-02  0.1708391E+00
         -1   -1    0    0    0  501 -0.00000000000E+00  0.00000000000E+00  0.61589038000E+02  0.61589038000E+02  0.00000000000E+00 0.  1.
         21   -1    0    0  503  502  0.00000000000E+00 -0.00000000000E+00 -0.25255968265E+03  0.25255968265E+03  0.00000000000E+00 0. -1.
         21    1    1    2  503  501 -0.14490136584E+02 -0.16543374642E+02 -0.25009845064E+03  0.25106350255E+03  0.00000000000E+00 0. -1.
         -1    1    1    2    0  502  0.14490136584E+02  0.16543374642E+02  0.59127805982E+02  0.63085218103E+02  0.00000000000E+00 0.  1.
<mgrwt>
<rscale>  2 0.21991983E+02</rscale>
<asrwt>0</asrwt>
<pdfrwt beam="2">  1       21 0.38855336E-01 0.21991983E+02</pdfrwt>
<pdfrwt beam="1">  1       -1 0.94752365E-02 0.21991983E+02</pdfrwt>
<totfact> 0.34194245E+04</totfact>
</mgrwt>
</event>
<event>
 4    1  0.2185255E+006  0.2312822E+02  0.7546771E-02  0.1689440E+00
          2   -1    0    0  503    0 -0.00000000000E+00  0.00000000000E+00  0.30146987916E+02  0.30146987916E+02  0.00000000000E+00 0. -1.
         21   -1    0    0  501  502  0.00000000000E+00 -0.00000000000E+00 -0.48103056829E+02  0.48103056829E+02  0.00000000000E+00 0.  1.
         21    1    1    2  503  502  0.19492702923E+02  0.12447862495E+02 -0.40060508471E+02  0.46257530056E+02  0.00000000000E+00 0.  1.
          2    1    1    2  501    0 -0.19492702923E+02 -0.12447862495E+02  0.22104439558E+02  0.31992514689E+02  0.00000000000E+00 0. -1.
<mgrwt>
<rscale>  2 0.23128224E+02</rscale>
<asrwt>0</asrwt>
<pdfrwt beam="2">  1       21 0.74004703E-02 0.23128224E+02</pdfrwt>
<pdfrwt beam="1">  1        2 0.46379982E-02 0.23128224E+02</pdfrwt>
<totfact> 0.20138462E+06</totfact>
</mgrwt>
</event>
<event>
 4    1  0.2185255E+006  0.3775244E+02  0.7546771E-02  0.1525434E+00
         21   -1    0    0  501  502  0.00000000000E+00  0.00000000000E+00  0.11643410022E+01  0.11643410022E+01  0.00000000000E+00 0. -1.
          2   -1    0    0  503    0 -0.00000000000E+00 -0.00000000000E+00 -0.30064748441E+04  0.30064748441E+04  0.00000000000E+00 0. -1.
         21    1    1    2  503  502 -0.11266383026E+02 -0.36032145763E+02 -0.34476107336E+03  0.34682192062E+03  0.00000000000E+00 0. -1.
          2    1    1    2  501    0  0.11266383026E+02  0.36032145763E+02 -0.26605494297E+04  0.26608172645E+04  0.00000000000E+00 0. -1.
<mgrwt>
<rscale>  2 0.37752443E+02</rscale>
<asrwt>0</asrwt>
<pdfrwt beam="1">  1       21 0.17912804E-03 0.37752443E+02</pdfrwt>
<pdfrwt beam="2">  1        2 0.46253807E+00 0.37752443E+02</pdfrwt>
<totfact> 0.13925363E+06</totfact>
</mgrwt>
</event>
<event>
 4    1  0.2185255E+006  0.2054636E+02  0.7546771E-02  0.1734676E+00
         21   -1    0    0  501  502  0.00000000000E+00  0.00000000000E+00  0.16732951755E+02  0.16732951755E+02  0.00000000000E+00 0. -1.
          2   -1    0    0  503    0 -0.00000000000E+00 -0.00000000000E+00 -0.84230777151E+02  0.84230777151E+02  0.00000000000E+00 0.  1.
         21    1    1    2  503  502 -0.19405811055E+02  0.67503741249E+01  0.85017084216E+01  0.22235829187E+02  0.00000000000E+00 0. -1.
          2    1    1    2  501    0  0.19405811055E+02 -0.67503741249E+01 -0.75999533818E+02  0.78727899718E+02  0.00000000000E+00 0.  1.
<mgrwt>
<rscale>  2 0.20546364E+02</rscale>
<asrwt>0</asrwt>
<pdfrwt beam="1">  1       21 0.25743003E-02 0.20546364E+02</pdfrwt>
<pdfrwt beam="2">  1        2 0.12958581E-01 0.20546364E+02</pdfrwt>
<totfact> 0.31003274E+06</totfact>
</mgrwt>
</event>
<event>
 4    1  0.2185255E+006  0.2590514E+02  0.7546771E-02  0.1648331E+00
          1   -1    0    0  503    0 -0.00000000000E+00  0.00000000000E+00  0.11173683127E+03  0.11173683127E+03  0.00000000000E+00 0.  1.
         21   -1    0    0  501  502  0.00000000000E+00 -0.00000000000E+00 -0.16365973572E+02  0.16365973572E+02  0.00000000000E+00 0.  1.
         21    1    1    2  503  502 -0.24755494821E+02  0.76316252868E+01 -0.32757999972E+01  0.26111436077E+02  0.00000000000E+00 0.  1.
          1    1    1    2  501    0  0.24755494821E+02 -0.76316252868E+01  0.98646657695E+02  0.10199136877E+03  0.00000000000E+00 0.  1.
<mgrwt>
<rscale>  2 0.25905139E+02</rscale>
<asrwt>0</asrwt>
<pdfrwt beam="2">  1       21 0.25178422E-02 0.25905139E+02</pdfrwt>
<pdfrwt beam="1">  1        1 0.17190281E-01 0.25905139E+02</pdfrwt>
<totfact> 0.20641610E+06</totfact>
</mgrwt>
</event>
<event>
 4    1  0.2185255E+006  0.3697321E+02  0.7546771E-02  0.1531745E+00
         -1   -1    0    0    0  501 -0.00000000000E+00  0.00000000000E+00  0.66043211192E+01  0.66043211192E+01  0.00000000000E+00 0.  1.
         21   -1    0    0  501  502  0.00000000000E+00 -0.00000000000E+00 -0.11382844283E+04  0.11382844283E+04  0.00000000000E+00 0. -1.
         21    1    1    2  503  502  0.35088923885E+02 -0.11652715645E+02 -0.10836277808E+04  0.10842583575E+04  0.00000000000E+00 0. -1.
         -1    1    1    2    0  503 -0.35088923885E+02  0.11652715645E+02 -0.48052326404E+02  0.60630392001E+02  0.00000000000E+00 0.  1.
<mgrwt>
<rscale>  2 0.36973211E+02</rscale>
<asrwt>0</asrwt>
<pdfrwt beam="2">  1       21 0.17512084E+00 0.36973211E+02</pdfrwt>
<pdfrwt beam="1">  1       -1 0.10160485E-02 0.36973211E+02</pdfrwt>
<totfact> 0.31064938E+04</totfact>
</mgrwt>
</event>
<event>
 4    1  0.2185255E+006  0.2155631E+02  0.7546771E-02  0.1716040E+00
         -2   -1    0    0    0  501 -0.00000000000E+00  0.00000000000E+00  0.60044986607E+01  0.60044986607E+01  0.00000000000E+00 0.  1.
         21   -1    0    0  503  502  0.00000000000E+00 -0.00000000000E+00 -0.15457418295E+03  0.15457418295E+03  0.00000000000E+00 0.  1.
         21    1    1    2  503  501  0.19273356982E+01 -0.21469972481E+02 -0.13102101520E+03  0.13278245655E+03  0.00000000000E+00 0.  1.
         -2    1    1    2    0  502 -0.19273356982E+01  0.21469972481E+02 -0.17548669087E+02  0.27796225067E+02  0.00000000000E+00 0.  1.
<mgrwt>
<rscale>  2 0.21556306E+02</rscale>
<asrwt>0</asrwt>
<pdfrwt beam="2">  1       21 0.23780646E-01 0.21556306E+02</pdfrwt>
<pdfrwt beam="1">  1       -2 0.92376892E-03 0.21556306E+02</pdfrwt>
<totfact> 0.20439721E+06</totfact>
</mgrwt>
</event>
<event>
 4    1  0.2185255E+006  0.2009527E+02  0.7546771E-02  0.1743440E+00
          4   -1    0    0  503    0 -0.00000000000E+00  0.00000000000E+00  0.15118041747E+02  0.15118041747E+02  0.00000000000E+00 0. -1.
         21   -1    0    0  501  502  0.00000000000E+00 -0.00000000000E+00 -0.39719636475E+02  0.39719636475E+02  0.00000000000E+00 0. -1.
         21    1    1    2  503  502  0.15850964819E+02 -0.12351786863E+02 -0.27992151712E+02  0.34458384783E+02  0.00000000000E+00 0. -1.
          4    1    1    2  501    0 -0.15850964819E+02  0.12351786863E+02  0.33905569844E+01  0.20379293439E+02  0.00000000000E+00 0. -1.
<mgrwt>
<rscale>  2 0.20095266E+02</rscale>
<asrwt>0</asrwt>
<pdfrwt beam="2">  1       21 0.61107133E-02 0.20095266E+02</pdfrwt>
<pdfrwt beam="1">  1        4 0.23258526E-02 0.20095266E+02</pdfrwt>
<totfact> 0.31930433E+06</totfact>
</mgrwt>
</event>
<event>
 4    1  0.2185255E+006  0.2301257E+02  0.7546771E-02  0.1691307E+00
         21   -1    0    0  503  502  0.00000000000E+00  0.00000000000E+00  0.10549387129E+04  0.10549387129E+04  0.00000000000E+00 0.  1.
         -4   -1    0    0    0  501 -0.00000000000E+00 -0.00000000000E+00 -0.80673588021E+00  0.80673588021E+00  0.00000000000E+00 0.  1.
         21    1    1    2  503  501 -0.19868139768E+02  0.11611855775E+02  0.85149975511E+03  0.85181066624E+03  0.00000000000E+00 0.  1.
         -4    1    1    2    0  502  0.19868139768E+02 -0.11611855775E+02  0.20263222186E+03  0.20393478249E+03  0.00000000000E+00 0.  1.
<mgrwt>
<rscale>  2 0.23012566E+02</rscale>
<asrwt>0</asrwt>
<pdfrwt beam="1">  1       21 0.16229716E+00 0.23012566E+02</pdfrwt>
<pdfrwt beam="2">  1       -4 0.12411406E-03 0.23012566E+02</pdfrwt>
<totfact> 0.44620219E+05</totfact>
</mgrwt>
</event>
<event>
 4    1  0.2185255E+006  0.2016228E+02  0.7546771E-02  0.1742120E+00
         21   -1    0    0  503  502  0.00000000000E+00  0.00000000000E+00  0.47562906228E+02  0.47562906228E+02  0.00000000000E+00 0.  1.
          2   -1    0    0  502    0 -0.00000000000E+00 -0.00000000000E+00 -0.98821104867E+01  0.98821104867E+01  0.00000000000E+00 0.  1.
         21    1    1    2  503  501 -0.15531851304E+02 -0.12856088753E+02  0.29398004421E+02  0.35647722043E+02  0.00000000000E+00 0.  1.
          2    1    1    2  501    0  0.15531851304E+02  0.12856088753E+02  0.82827913208E+01  0.21797294672E+02  0.00000000000E+00 0.  1.
<mgrwt>
<rscale>  2 0.20162277E+02</rscale>
<asrwt>0</asrwt>
<pdfrwt beam="1">  1       21 0.73173701E-02 0.20162277E+02</pdfrwt>
<pdfrwt beam="2">  1        2 0.15203247E-02 0.20162277E+02</pdfrwt>
<totfact> 0.80592614E+06</totfact>
</mgrwt>
</event>
<event>
 4    1  0.2185255E+006  0.2776352E+02  0.7546771E-02  0.1624213E+00
         21   -1    0    0  501  502  0.00000000000E+00  0.00000000000E+00  0.20336599138E+02  0.20336599138E+02  0.00000000000E+00 0. -1.
         -4   -1    0    0    0  501 -0.00000000000E+00 -0.00000000000E+00 -0.15740722945E+03  0.15740722945E+03  0.00000000000E+00 0. -1.
         21    1    1    2  503  502 -0.26875908153E+02  0.69641125326E+01  0.89009263556E+01  0.29155441900E+02  0.00000000000E+00 0. -1.
         -4    1    1    2    0  503  0.26875908153E+02 -0.69641125326E+01 -0.14597155667E+03  0.14858838669E+03  0.00000000000E+00 0. -1.
<mgrwt>
<rscale>  2 0.27763525E+02</rscale>
<asrwt>0</asrwt>
<pdfrwt beam="1">  1       21 0.31287077E-02 0.27763525E+02</pdfrwt>
<pdfrwt beam="2">  1       -4 0.24216496E-01 0.27763525E+02</pdfrwt>
<totfact> 0.25421786E+05</totfact>
</mgrwt>
</event>
<event>
 4    1  0.2185255E+006  0.2104671E+02  0.7546771E-02  0.1725280E+00
          2   -1    0    0  503    0 -0.00000000000E+00  0.00000000000E+00  0.28441620217E+03  0.28441620217E+03  0.00000000000E+00 0. -1.
         21   -1    0    0  501  502  0.00000000000E+00 -0.00000000000E+00 -0.18059732747E+01  0.18059732747E+01  0.00000000000E+00 0. -1.
         21    1    1    2  503  502 -0.21044020030E+02  0.33654692223E+00  0.88216539428E+02  0.90692457633E+02  0.00000000000E+00 0. -1.
          2    1    1    2  501    0  0.21044020030E+02 -0.33654692223E+00  0.19439368946E+03  0.19552971781E+03  0.00000000000E+00 0. -1.
<mgrwt>
<rscale>  2 0.21046711E+02</rscale>
<asrwt>0</asrwt>
<pdfrwt beam="2">  1       21 0.27784227E-03 0.21046711E+02</pdfrwt>
<pdfrwt beam="1">  1        2 0.43756303E-01 0.21046711E+02</pdfrwt>
<totfact> 0.24466468E+07</totfact>
</mgrwt>
</event>
<event>
 4    1  0.2185255E+006  0.2604343E+02  0.7546771E-02  0.1646452E+00
          2   -1    0    0  502    0 -0.00000000000E+00  0.00000000000E+00  0.20745948829E+04  0.20745948829E+04  0.00000000000E+00 0. -1.
         21   -1    0    0  503  502  0.00000000000E+00 -0.00000000000E+00 -0.87856917392E+00  0.87856917392E+00  0.00000000000E+00 0.  1.
         21    1    1    2  503  501 -0.10439146523E+02  0.23859679904E+02  0.21456944723E+03  0.21614418288E+03  0.00000000000E+00 0.  1.
          2    1    1    2  501    0  0.10439146523E+02 -0.23859679904E+02  0.18591468665E+04  0.18593292692E+04  0.00000000000E+00 0. -1.
<mgrwt>
<rscale>  2 0.26043427E+02</rscale>
<asrwt>0</asrwt>
<pdfrwt beam="2">  1       21 0.13516615E-03 0.26043427E+02</pdfrwt>
<pdfrwt beam="1">  1        2 0.31916452E+00 0.26043427E+02</pdfrwt>
<totfact> 0.59037553E+06</totfact>
</mgrwt>
</event>
<event>
 4    1  0.2185255E+006  0.2472607E+02  0.7546771E-02  0.1664968E+00
         21   -1    0    0  503  502  0.00000000000E+00  0.00000000000E+00  0.10087746155E+01  0.10087746155E+01  0.00000000000E+00 0.  1.
          2   -1    0    0  502    0 -0.00000000000E+00 -0.00000000000E+00 -0.80161334104E+03  0.80161334104E+03  0.00000000000E+00 0.  1.
         21    1    1    2  503  501  0.16987144436E+02  0.17967070297E+02 -0.20209004963E+03  0.20359706985E+03  0.00000000000E+00 0.  1.
          2    1    1    2  501    0 -0.16987144436E+02 -0.17967070297E+02 -0.59851451679E+03  0.59902504581E+03  0.00000000000E+00 0.  1.
<mgrwt>
<rscale>  2 0.24726073E+02</rscale>
<asrwt>0</asrwt>
<pdfrwt beam="1">  1       21 0.15519636E-03 0.24726073E+02</pdfrwt>
<pdfrwt beam="2">  1        2 0.12332492E+00 0.24726073E+02</pdfrwt>
<totfact> 0.20639048E+07</totfact>
</mgrwt>
</event>
<event>
 4    1  0.2185255E+006  0.7154347E+02  0.7546771E-02  0.1354922E+00
         21   -1    0    0  503  502  0.00000000000E+00  0.00000000000E+00  0.39553271960E+02  0.39553271960E+02  0.00000000000E+00 0.  1.
         -3   -1    0    0    0  501 -0.00000000000E+00 -0.00000000000E+00 -0.28617490587E+03  0.28617490587E+03  0.00000000000E+00 0.  1.
         21    1    1    2  503  501  0.35779338782E+02 -0.61954077166E+02 -0.27688730032E+01  0.71597034987E+02  0.00000000000E+00 0.  1.
         -3    1    1    2    0  502 -0.35779338782E+02  0.61954077166E+02 -0.24385276091E+03  0.25413114285E+03  0.00000000000E+00 0.  1.
<mgrwt>
<rscale>  2 0.71543475E+02</rscale>
<asrwt>0</asrwt>
<pdfrwt beam="1">  1       21 0.60851188E-02 0.71543475E+02</pdfrwt>
<pdfrwt beam="2">  1       -3 0.44026908E-01 0.71543475E+02</pdfrwt>
<totfact> 0.44113665E+04</totfact>
</mgrwt>
</event>
<event>
 4    1  0.2185255E+006  0.2266895E+02  0.7546771E-02  0.1696933E+00
         21   -1    0    0  503  502  0.00000000000E+00  0.00000000000E+00  0.28615254849E+02  0.28615254849E+02  0.00000000000E+00 0.  1.
         -2   -1    0    0    0  501 -0.00000000000E+00 -0.00000000000E+00 -0.20279726897E+02  0.20279726897E+02  0.00000000000E+00 0.  1.
         21    1    1    2  503  501  0.21300074864E+02  0.77580943817E+01  0.12439203880E+02  0.25857590970E+02  0.00000000000E+00 0.  1.
         -2    1    1    2    0  502 -0.21300074864E+02 -0.77580943817E+01 -0.41036759282E+01  0.23037390776E+02  0.00000000000E+00 0.  1.
<mgrwt>
<rscale>  2 0.22668948E+02</rscale>
<asrwt>0</asrwt>
<pdfrwt beam="1">  1       21 0.44023469E-02 0.22668948E+02</pdfrwt>
<pdfrwt beam="2">  1       -2 0.31199580E-02 0.22668948E+02</pdfrwt>
<totfact> 0.64781928E+06</totfact>
</mgrwt>
</event>
<event>
 4    1  0.2185255E+006  0.2325335E+02  0.7546771E-02  0.1687436E+00
         21   -1    0    0  503  502  0.00000000000E+00  0.00000000000E+00  0.22734129860E+01  0.22734129860E+01  0.00000000000E+00 0.  1.
         -1   -1    0    0    0  501 -0.00000000000E+00 -0.00000000000E+00 -0.31607132675E+03  0.31607132675E+03  0.00000000000E+00 0.  1.
         21    1    1    2  503  501  0.23158403779E+02 -0.20992286207E+01 -0.77712043489E+02  0.81116460288E+02  0.00000000000E+00 0.  1.
         -1    1    1    2    0  502 -0.23158403779E+02  0.20992286207E+01 -0.23608587028E+03  0.23722827945E+03  0.00000000000E+00 0.  1.
<mgrwt>
<rscale>  2 0.23253353E+02</rscale>
<asrwt>0</asrwt>
<pdfrwt beam="1">  1       21 0.34975567E-03 0.23253353E+02</pdfrwt>
<pdfrwt beam="2">  1       -1 0.48626383E-01 0.23253353E+02</pdfrwt>
<totfact> 0.51673417E+06</totfact>
</mgrwt>
</event>
<event>
 4    1  0.2185255E+006  0.2004397E+02  0.7546771E-02  0.1744455E+00
         -3   -1    0    0    0  501 -0.00000000000E+00  0.00000000000E+00  0.11645314392E+02  0.11645314392E+02  0.00000000000E+00 0. -1.
         21   -1    0    0  503  502  0.00000000000E+00 -0.00000000000E+00 -0.16772073706E+03  0.16772073706E+03  0.00000000000E+00 0.  1.
         21    1    1    2  503  501 -0.14259366026E+02 -0.14086568450E+02 -0.15796648049E+03  0.15923306783E+03  0.00000000000E+00 0.  1.
         -3    1    1    2    0  502  0.14259366026E+02  0.14086568450E+02  0.18910578196E+01  0.20132983630E+02  0.00000000000E+00 0. -1.
<mgrwt>
<rscale>  2 0.20043975E+02</rscale>
<asrwt>0</asrwt>
<pdfrwt beam="2">  1       21 0.25803189E-01 0.20043975E+02</pdfrwt>
<pdfrwt beam="1">  1       -3 0.17915869E-02 0.20043975E+02</pdfrwt>
<totfact> 0.49130597E+05</totfact>
</mgrwt>
</event>
<event>
 4    1  0.2185255E+006  0.2132579E+02  0.7546771E-02  0.1720180E+00
         -1   -1    0    0    0  501 -0.00000000000E+00  0.00000000000E+00  0.10267425175E+04  0.10267425175E+04  0.00000000000E+00 0.  1.
         21   -1    0    0  503  502  0.00000000000E+00 -0.00000000000E+00 -0.68328384180E+00  0.68328384180E+00  0.00000000000E+00 0.  1.
         21    1    1    2  503  501 -0.18809395765E+02 -0.10049666363E+02  0.20835727979E+03  0.20944580494E+03  0.00000000000E+00 0.  1.
         -1    1    1    2    0  502  0.18809395765E+02  0.10049666363E+02  0.81770195390E+03  0.81797999644E+03  0.00000000000E+00 0.  1.
<mgrwt>
<rscale>  2 0.21325786E+02</rscale>
<asrwt>0</asrwt>
<pdfrwt beam="2">  1       21 0.10512141E-03 0.21325786E+02</pdfrwt>
<pdfrwt beam="1">  1       -1 0.15795915E+00 0.21325786E+02</pdfrwt>
<totfact> 0.25902128E+06</totfact>
</mgrwt>
</event>
<event>
 4    1  0.2185255E+006  0.2352957E+02  0.7546771E-02  0.1683067E+00
          2   -1    0    0  502    0 -0.00000000000E+00  0.00000000000E+00  0.42547720770E+03  0.42547720770E+03  0.00000000000E+00 0. -1.
         21   -1    0    0  503  502  0.00000000000E+00 -0.00000000000E+00 -0.93075644936E+02  0.93075644936E+02  0.00000000000E+00 0. -1.
         21    1    1    2  503  501  0.19254761623E+02  0.13523855601E+02 -0.91256888871E+02  0.94241499786E+02  0.00000000000E+00 0. -1.
          2    1    1    2  501    0 -0.19254761623E+02 -0.13523855601E+02  0.42365845164E+03  0.42431135285E+03  0.00000000000E+00 0. -1.
<mgrwt>
<rscale>  2 0.23529567E+02</rscale>
<asrwt>0</asrwt>
<pdfrwt beam="2">  1       21 0.14319330E-01 0.23529567E+02</pdfrwt>
<pdfrwt beam="1">  1        2 0.65458031E-01 0.23529567E+02</pdfrwt>
<totfact> 0.38010739E+04</totfact>
</mgrwt>
</event>
<event>
 4    1  0.2185255E+006  0.2501905E+02  0.7546771E-02  0.1660728E+00
         21   -1    0    0  501  502  0.00000000000E+00  0.00000000000E+00  0.58721186650E+00  0.58721186650E+00  0.00000000000E+00 0.  1.
          2   -1    0    0  503    0 -0.00000000000E+00 -0.00000000000E+00 -0.16124155786E+04  0.16124155786E+04  0.00000000000E+00 0.  1.
         21    1    1    2  503  502 -0.24969195034E+02 -0.15786549977E+01 -0.33641124332E+03  0.33734029923E+03  0.00000000000E+00 0.  1.
          2    1    1    2  501    0  0.24969195034E+02  0.15786549977E+01 -0.12754171235E+04  0.12756624913E+04  0.00000000000E+00 0.  1.
<mgrwt>
<rscale>  2 0.25019050E+02</rscale>
<asrwt>0</asrwt>
<pdfrwt beam="1">  1       21 0.90341082E-04 0.25019050E+02</pdfrwt>
<pdfrwt beam="2">  1        2 0.24806175E+00 0.25019050E+02</pdfrwt>
<totfact> 0.17154248E+07</totfact>
</mgrwt>
</event>
<event>
 4    1  0.2185255E+006  0.2663802E+02  0.7546771E-02  0.1638531E+00
         21   -1    0    0  501  502  0.00000000000E+00  0.00000000000E+00  0.23036563183E+03  0.23036563183E+03  0.00000000000E+00 0.  1.
          1   -1    0    0  503    0 -0.00000000000E+00 -0.00000000000E+00 -0.70609564917E+01  0.70609564917E+01  0.00000000000E+00 0.  1.
         21    1    1    2  503  502  0.25407830387E+02  0.80016440286E+01  0.20078719402E+03  0.20254649203E+03  0.00000000000E+00 0.  1.
          1    1    1    2  501    0 -0.25407830387E+02 -0.80016440286E+01  0.22517481314E+02  0.34880096285E+02  0.00000000000E+00 0.  1.
<mgrwt>
<rscale>  2 0.26638021E+02</rscale>
<asrwt>0</asrwt>
<pdfrwt beam="1">  1       21 0.35440861E-01 0.26638021E+02</pdfrwt>
<pdfrwt beam="2">  1        1 0.10863012E-02 0.26638021E+02</pdfrwt>
<totfact> 0.86655932E+05</totfact>
</mgrwt>
</event>
<event>
 4    1  0.2185255E+006  0.2112836E+02  0.7546771E-02  0.1723777E+00
         -4   -1    0    0    0  501 -0.00000000000E+00  0.00000000000E+00  0.50729747579E+01  0.50729747579E+01  0.00000000000E+00 0.  1.
         21   -1    0    0  503  502  0.00000000000E+00 -0.00000000000E+00 -0.88209574945E+02  0.88209574945E+02  0.00000000000E+00 0.  1.
         21    1    1    2  503  501  0.21000073876E+02 -0.23248017111E+01 -0.39279975969E+02  0.44601842091E+02  0.00000000000E+00 0.  1.
         -4    1    1    2    0  502 -0.21000073876E+02  0.23248017111E+01 -0.43856624218E+02  0.48680707612E+02  0.00000000000E+00 0.  1.
<mgrwt>
<rscale>  2 0.21128365E+02</rscale>
<asrwt>0</asrwt>
<pdfrwt beam="2">  1       21 0.13570703E-01 0.21128365E+02</pdfrwt>
<pdfrwt beam="1">  1       -4 0.78045772E-03 0.21128365E+02</pdfrwt>
<totfact> 0.43022949E+06</totfact>
</mgrwt>
</event>
<event>
 4    1  0.2185255E+006  0.2752061E+02  0.7546771E-02  0.1627232E+00
          1   -1    0    0  503    0 -0.00000000000E+00  0.00000000000E+00  0.92165095974E+03  0.92165095974E+03  0.00000000000E+00 0.  1.
         21   -1    0    0  501  502  0.00000000000E+00 -0.00000000000E+00 -0.82297013496E+00  0.82297013496E+00  0.00000000000E+00 0.  1.
         21    1    1    2  503  502 -0.42497820837E+00  0.27517330519E+02  0.44279228633E+03  0.44364669830E+03  0.00000000000E+00 0.  1.
          1    1    1    2  501    0  0.42497820837E+00 -0.27517330519E+02  0.47803570328E+03  0.47882723157E+03  0.00000000000E+00 0.  1.
<mgrwt>
<rscale>  2 0.27520612E+02</rscale>
<asrwt>0</asrwt>
<pdfrwt beam="2">  1       21 0.12661153E-03 0.27520612E+02</pdfrwt>
<pdfrwt beam="1">  1        1 0.14179163E+00 0.27520612E+02</pdfrwt>
<totfact> 0.13677640E+07</totfact>
</mgrwt>
</event>
<event>
 4    1  0.2185255E+006  0.2873438E+02  0.7546771E-02  0.1612515E+00
          1   -1    0    0  502    0 -0.00000000000E+00  0.00000000000E+00  0.72442229126E+03  0.72442229126E+03  0.00000000000E+00 0. -1.
         21   -1    0    0  503  502  0.00000000000E+00 -0.00000000000E+00 -0.83349371197E+01  0.83349371197E+01  0.00000000000E+00 0. -1.
         21    1    1    2  503  501 -0.62994997579E+01  0.28035349752E+02  0.17635626849E+02  0.33714683259E+02  0.00000000000E+00 0. -1.
          1    1    1    2  501    0  0.62994997579E+01 -0.28035349752E+02  0.69845172729E+03  0.69904254512E+03  0.00000000000E+00 0. -1.
<mgrwt>
<rscale>  2 0.28734379E+02</rscale>
<asrwt>0</asrwt>
<pdfrwt beam="2">  1       21 0.12822986E-02 0.28734379E+02</pdfrwt>
<pdfrwt beam="1">  1        1 0.11144953E+00 0.28734379E+02</pdfrwt>
<totfact> 0.63282362E+05</totfact>
</mgrwt>
</event>
<event>
 4    1  0.2185255E+006  0.2701139E+02  0.7546771E-02  0.1633686E+00
         21   -1    0    0  501  502  0.00000000000E+00  0.00000000000E+00  0.16275555447E+01  0.16275555447E+01  0.00000000000E+00 0.  1.
          2   -1    0    0  503    0 -0.00000000000E+00 -0.00000000000E+00 -0.45005663573E+03  0.45005663573E+03  0.00000000000E+00 0.  1.
         21    1    1    2  503  502  0.22667138697E+02 -0.14690669207E+02 -0.21006015436E+03  0.21178971502E+03  0.00000000000E+00 0.  1.
          2    1    1    2  501    0 -0.22667138697E+02  0.14690669207E+02 -0.23836892582E+03  0.23989447625E+03  0.00000000000E+00 0.  1.
<mgrwt>
<rscale>  2 0.27011385E+02</rscale>
<asrwt>0</asrwt>
<pdfrwt beam="1">  1       21 0.25039290E-03 0.27011385E+02</pdfrwt>
<pdfrwt beam="2">  1        2 0.69239553E-01 0.27011385E+02</pdfrwt>
<totfact> 0.19466374E+07</totfact>
</mgrwt>
</event>
<event>
 4    1  0.2185255E+006  0.4491145E+02  0.7546771E-02  0.1474895E+00
         21   -1    0    0  501  502  0.00000000000E+00  0.00000000000E+00  0.14965264797E+02  0.14965264797E+02  0.00000000000E+00 0.  1.
          1   -1    0    0  503    0 -0.00000000000E+00 -0.00000000000E+00 -0.20238784250E+03  0.20238784250E+03  0.00000000000E+00 0.  1.
         21    1    1    2  503  502 -0.26222159032E+02  0.36461443021E+02 -0.30899974698E+02  0.54514648378E+02  0.00000000000E+00 0.  1.
          1    1    1    2  501    0  0.26222159032E+02 -0.36461443021E+02 -0.15652260301E+03  0.16283845892E+03  0.00000000000E+00 0.  1.
<mgrwt>
<rscale>  2 0.44911451E+02</rscale>
<asrwt>0</asrwt>
<pdfrwt beam="1">  1       21 0.23023484E-02 0.44911451E+02</pdfrwt>
<pdfrwt beam="2">  1        1 0.31136592E-01 0.44911451E+02</pdfrwt>
<totfact> 0.12913440E+06</totfact>
</mgrwt>
</event>
<event>
 4    1  0.2185255E+006  0.3335984E+02  0.7546771E-02  0.1563667E+00
          3   -1    0    0  503    0 -0.00000000000E+00  0.00000000000E+00  0.26921378984E+03  0.26921378984E+03  0.00000000000E+00 0. -1.
         21   -1    0    0  501  502  0.00000000000E+00 -0.00000000000E+00 -0.34260353419E+03  0.34260353419E+03  0.00000000000E+00 0. -1.
         21    1    1    2  503  502 -0.28180771833E+01  0.33240593759E+02 -0.34075240621E+03  0.34238148456E+03  0.00000000000E+00 0. -1.
          3    1    1    2  501    0  0.28180771833E+01 -0.33240593759E+02  0.26736266186E+03  0.26943583946E+03  0.00000000000E+00 0. -1.
<mgrwt>
<rscale>  2 0.33359836E+02</rscale>
<asrwt>0</asrwt>
<pdfrwt beam="2">  1       21 0.52708236E-01 0.33359836E+02</pdfrwt>
<pdfrwt beam="1">  1        3 0.41417506E-01 0.33359836E+02</pdfrwt>
<totfact> 0.95419012E+02</totfact>
</mgrwt>
</event>
<event>
 4    1  0.2185255E+006  0.2708249E+02  0.7546771E-02  0.1632775E+00
         -3   -1    0    0    0  501 -0.00000000000E+00  0.00000000000E+00  0.60612743018E+02  0.60612743018E+02  0.00000000000E+00 0. -1.
         21   -1    0    0  503  502  0.00000000000E+00 -0.00000000000E+00 -0.95761630409E+02  0.95761630409E+02  0.00000000000E+00 0. -1.
         21    1    1    2  503  501  0.16062286258E+02  0.21805137701E+02 -0.90654853756E+02  0.94613759990E+02  0.00000000000E+00 0. -1.
         -3    1    1    2    0  502 -0.16062286258E+02 -0.21805137701E+02  0.55505966365E+02  0.61760613437E+02  0.00000000000E+00 0. -1.
<mgrwt>
<rscale>  2 0.27082486E+02</rscale>
<asrwt>0</asrwt>
<pdfrwt beam="2">  1       21 0.14732558E-01 0.27082486E+02</pdfrwt>
<pdfrwt beam="1">  1       -3 0.93250375E-02 0.27082486E+02</pdfrwt>
<totfact> 0.12036418E+05</totfact>
</mgrwt>
</event>
<event>
 4    1  0.2185255E+006  0.3976309E+02  0.7546771E-02  0.1509962E+00
         21   -1    0    0  501  502  0.00000000000E+00  0.00000000000E+00  0.31154486135E+02  0.31154486135E+02  0.00000000000E+00 0.  1.
          1   -1    0    0  503    0 -0.00000000000E+00 -0.00000000000E+00 -0.70770541826E+02  0.70770541826E+02  0.00000000000E+00 0.  1.
         21    1    1    2  503  502 -0.57192261923E+01 -0.39349639756E+02  0.72974949268E+01  0.40427183050E+02  0.00000000000E+00 0.  1.
          1    1    1    2  501    0  0.57192261923E+01  0.39349639756E+02 -0.46913550618E+02  0.61497844911E+02  0.00000000000E+00 0.  1.
<mgrwt>
<rscale>  2 0.39763095E+02</rscale>
<asrwt>0</asrwt>
<pdfrwt beam="1">  1       21 0.47929979E-02 0.39763095E+02</pdfrwt>
<pdfrwt beam="2">  1        1 0.10887776E-01 0.39763095E+02</pdfrwt>
<totfact> 0.14264413E+06</totfact>
</mgrwt>
</event>
<event>
 4    1  0.2185255E+006  0.2514845E+02  0.7546771E-02  0.1658879E+00
         21   -1    0    0  501  502  0.00000000000E+00  0.00000000000E+00  0.23591585666E+02  0.23591585666E+02  0.00000000000E+00 0.  1.
          2   -1    0    0  503    0 -0.00000000000E+00 -0.00000000000E+00 -0.66757159276E+02  0.66757159276E+02  0.00000000000E+00 0.  1.
         21    1    1    2  503  502  0.21729445621E+02  0.12660004801E+02  0.13363153200E+02  0.28478384645E+02  0.00000000000E+00 0.  1.
          2    1    1    2  501    0 -0.21729445621E+02 -0.12660004801E+02 -0.56528726809E+02  0.61870360297E+02  0.00000000000E+00 0.  1.
<mgrwt>
<rscale>  2 0.25148450E+02</rscale>
<asrwt>0</asrwt>
<pdfrwt beam="1">  1       21 0.36294747E-02 0.25148450E+02</pdfrwt>
<pdfrwt beam="2">  1        2 0.10270332E-01 0.25148450E+02</pdfrwt>
<totfact> 0.24838968E+06</totfact>
</mgrwt>
</event>
<event>
 4    1  0.2185255E+006  0.2124785E+02  0.7546771E-02  0.1721594E+00
         21   -1    0    0  503  502  0.00000000000E+00  0.00000000000E+00  0.38628207787E+02  0.38628207787E+02  0.00000000000E+00 0.  1.
          4   -1    0    0  502    0 -0.00000000000E+00 -0.00000000000E+00 -0.48120729829E+02  0.48120729829E+02  0.00000000000E+00 0.  1.
         21    1    1    2  503  501  0.19299707215E+01 -0.21160013508E+02  0.32994992445E+02  0.39244623645E+02  0.00000000000E+00 0.  1.
          4    1    1    2  501    0 -0.19299707215E+01  0.21160013508E+02 -0.42487514487E+02  0.47504313971E+02  0.00000000000E+00 0.  1.
<mgrwt>
<rscale>  2 0.21247846E+02</rscale>
<asrwt>0</asrwt>
<pdfrwt beam="1">  1       21 0.59428012E-02 0.21247846E+02</pdfrwt>
<pdfrwt beam="2">  1        4 0.74031892E-02 0.21247846E+02</pdfrwt>
<totfact> 0.59202768E+05</totfact>
</mgrwt>
</event>
<event>
 4    1  0.2185255E+006  0.3439690E+02  0.7546771E-02  0.1554022E+00
         -4   -1    0    0    0  501 -0.00000000000E+00  0.00000000000E+00  0.25696037918E+03  0.25696037918E+03  0.00000000000E+00 0.  1.
         21   -1    0    0  503  502  0.00000000000E+00 -0.00000000000E+00 -0.10293116305E+02  0.10293116305E+02  0.00000000000E+00 0. -1.
         21    1    1    2  503  501  0.34145282397E+02  0.41529141077E+01  0.23992912376E+02  0.41938131216E+02  0.00000000000E+00 0. -1.
         -4    1    1    2    0  502 -0.34145282397E+02 -0.41529141077E+01  0.22267435050E+03  0.22531536427E+03  0.00000000000E+00 0.  1.
<mgrwt>
<rscale>  2 0.34396904E+02</rscale>
<asrwt>0</asrwt>
<pdfrwt beam="2">  1       21 0.15835565E-02 0.34396904E+02</pdfrwt>
<pdfrwt beam="1">  1       -4 0.39532361E-01 0.34396904E+02</pdfrwt>
<totfact> 0.32106957E+05</totfact>
</mgrwt>
</event>
<event>
 4    1  0.2185255E+006  0.2021319E+02  0.7546771E-02  0.1741121E+00
         21   -1    0    0  501  502  0.00000000000E+00  0.00000000000E+00  0.46055168900E+01  0.46055168900E+01  0.00000000000E+00 0. -1.
          2   -1    0    0  503    0 -0.00000000000E+00 -0.00000000000E+00 -0.11185464240E+03  0.11185464240E+03  0.00000000000E+00 0. -1.
         21    1    1    2  503  502  0.20211811792E+02  0.23631390917E+00 -0.27138988269E+02  0.33839294680E+02  0.00000000000E+00 0. -1.
          2    1    1    2  501    0 -0.20211811792E+02 -0.23631390917E+00 -0.80110137239E+02  0.82620864609E+02  0.00000000000E+00 0. -1.
<mgrwt>
<rscale>  2 0.20213193E+02</rscale>
<asrwt>0</asrwt>
<pdfrwt beam="1">  1       21 0.70854112E-03 0.20213193E+02</pdfrwt>
<pdfrwt beam="2">  1        2 0.17208405E-01 0.20213193E+02</pdfrwt>
<totfact> 0.15868738E+07</totfact>
</mgrwt>
</event>
<event>
 4    1  0.2185255E+006  0.3489964E+02  0.7546771E-02  0.1549494E+00
          4   -1    0    0  502    0 -0.00000000000E+00  0.00000000000E+00  0.19108270740E+03  0.19108270740E+03  0.00000000000E+00 0. -1.
         21   -1    0    0  503  502  0.00000000000E+00 -0.00000000000E+00 -0.10979468005E+02  0.10979468005E+02  0.00000000000E+00 0. -1.
         21    1    1    2  503  501  0.34840858314E+02 -0.20246355037E+01  0.24618821124E+02  0.42709143172E+02  0.00000000000E+00 0. -1.
          4    1    1    2  501    0 -0.34840858314E+02  0.20246355037E+01  0.15548441827E+03  0.15935303224E+03  0.00000000000E+00 0. -1.
<mgrwt>
<rscale>  2 0.34899635E+02</rscale>
<asrwt>0</asrwt>
<pdfrwt beam="2">  1       21 0.16891491E-02 0.34899635E+02</pdfrwt>
<pdfrwt beam="1">  1        4 0.29397337E-01 0.34899635E+02</pdfrwt>
<totfact> 0.50650487E+05</totfact>
</mgrwt>
</event>
<event>
 4    1  0.2185255E+006  0.4051581E+02  0.7546771E-02  0.1504450E+00
          1   -1    0    0  502    0 -0.00000000000E+00  0.00000000000E+00  0.30569472221E+02  0.30569472221E+02  0.00000000000E+00 0.  1.
         21   -1    0    0  503  502  0.00000000000E+00 -0.00000000000E+00 -0.32688965750E+03  0.32688965750E+03  0.00000000000E+00 0. -1.
         21    1    1    2  503  501 -0.27521516591E+02  0.29733764939E+02 -0.31155150808E+03  0.31417490803E+03  0.00000000000E+00 0. -1.
          1    1    1    2  501    0  0.27521516591E+02 -0.29733764939E+02  0.15231322798E+02  0.43284221687E+02  0.00000000000E+00 0.  1.
<mgrwt>
<rscale>  2 0.40515807E+02</rscale>
<asrwt>0</asrwt>
<pdfrwt beam="2">  1       21 0.50290717E-01 0.40515807E+02</pdfrwt>
<pdfrwt beam="1">  1        1 0.47029956E-02 0.40515807E+02</pdfrwt>
<totfact> 0.66900472E+04</totfact>
</mgrwt>
</event>
<event>
 4    1  0.2185255E+006  0.2953644E+02  0.7546771E-02  0.1603270E+00
         -4   -1    0    0    0  501 -0.00000000000E+00  0.00000000000E+00  0.23590580159E+03  0.23590580159E+03  0.00000000000E+00 0. -1.
         21   -1    0    0  501  502  0.00000000000E+00 -0.00000000000E+00 -0.16477787639E+03  0.16477787639E+03  0.00000000000E+00 0.  1.
         21    1    1    2  503  502  0.51719567765E+00 -0.29531915266E+02 -0.16251699375E+03  0.16517922014E+03  0.00000000000E+00 0.  1.
         -4    1    1    2    0  503 -0.51719567765E+00  0.29531915266E+02  0.23364491894E+03  0.23550445783E+03  0.00000000000E+00 0. -1.
<mgrwt>
<rscale>  2 0.29536444E+02</rscale>
<asrwt>0</asrwt>
<pdfrwt beam="2">  1       21 0.25350442E-01 0.29536444E+02</pdfrwt>
<pdfrwt beam="1">  1       -4 0.36293201E-01 0.29536444E+02</pdfrwt>
<totfact> 0.37938174E+03</totfact>
</mgrwt>
</event>
<event>
 4    1  0.2185255E+006  0.3165886E+02  0.7546771E-02  0.1580444E+00
          1   -1    0    0  502    0 -0.00000000000E+00  0.00000000000E+00  0.29759182410E+02  0.29759182410E+02  0.00000000000E+00 0. -1.
         21   -1    0    0  503  502  0.00000000000E+00 -0.00000000000E+00 -0.49002829726E+03  0.49002829726E+03  0.00000000000E+00 0. -1.
         21    1    1    2  503  501  0.31516212639E+02 -0.30019852004E+01 -0.48093803094E+03  0.48197891362E+03  0.00000000000E+00 0. -1.
          1    1    1    2  501    0 -0.31516212639E+02  0.30019852004E+01  0.20668916089E+02  0.37808566047E+02  0.00000000000E+00 0. -1.
<mgrwt>
<rscale>  2 0.31658862E+02</rscale>
<asrwt>0</asrwt>
<pdfrwt beam="2">  1       21 0.75388961E-01 0.31658862E+02</pdfrwt>
<pdfrwt beam="1">  1        1 0.45783362E-02 0.31658862E+02</pdfrwt>
<totfact> 0.29818711E+04</totfact>
</mgrwt>
</event>
<event>
 4    1  0.2185255E+006  0.2013232E+02  0.7546771E-02  0.1742709E+00
         21   -1    0    0  501  502  0.00000000000E+00  0.00000000000E+00  0.87894547508E+00  0.87894547508E+00  0.00000000000E+00 0.  1.
          1   -1    0    0  503    0 -0.00000000000E+00 -0.00000000000E+00 -0.11739793277E+04  0.11739793277E+04  0.00000000000E+00 0. -1.
         21    1    1    2  503  502  0.20006429648E+02  0.22479444329E+01 -0.12880550098E+03  0.13036935055E+03  0.00000000000E+00 0.  1.
          1    1    1    2  501    0 -0.20006429648E+02 -0.22479444329E+01 -0.10442948812E+04  0.10444889226E+04  0.00000000000E+00 0. -1.
<mgrwt>
<rscale>  2 0.20132324E+02</rscale>
<asrwt>0</asrwt>
<pdfrwt beam="1">  1       21 0.13522181E-03 0.20132324E+02</pdfrwt>
<pdfrwt beam="2">  1        1 0.18061297E+00 0.20132324E+02</pdfrwt>
<totfact> 0.78507335E+06</totfact>
</mgrwt>
</event>
<event>
 4    1  0.2185255E+006  0.2109674E+02  0.7546771E-02  0.1724358E+00
         -3   -1    0    0    0  501 -0.00000000000E+00  0.00000000000E+00  0.11049268910E+03  0.11049268910E+03  0.00000000000E+00 0.  1.
         21   -1    0    0  503  502  0.00000000000E+00 -0.00000000000E+00 -0.44683495886E+01  0.44683495886E+01  0.00000000000E+00 0.  1.
         21    1    1    2  503  501 -0.30764774459E+01 -0.20871213191E+02  0.34969054085E+02  0.40840017106E+02  0.00000000000E+00 0.  1.
         -3    1    1    2    0  502  0.30764774459E+01  0.20871213191E+02  0.71055285430E+02  0.74121021587E+02  0.00000000000E+00 0.  1.
<mgrwt>
<rscale>  2 0.21096736E+02</rscale>
<asrwt>0</asrwt>
<pdfrwt beam="2">  1       21 0.68743849E-03 0.21096736E+02</pdfrwt>
<pdfrwt beam="1">  1       -3 0.16998873E-01 0.21096736E+02</pdfrwt>
<totfact> 0.52458853E+06</totfact>
</mgrwt>
</event>
<event>
 4    1  0.2185255E+006  0.2262629E+02  0.7546771E-02  0.1697640E+00
          2   -1    0    0  503    0 -0.00000000000E+00  0.00000000000E+00  0.97260745439E+03  0.97260745439E+03  0.00000000000E+00 0.  1.
         21   -1    0    0  501  502  0.00000000000E+00 -0.00000000000E+00 -0.11904751399E+01  0.11904751399E+01  0.00000000000E+00 0.  1.
         21    1    1    2  503  502  0.70270683176E+01  0.21507421882E+02  0.12204646921E+03  0.12412610334E+03  0.00000000000E+00 0.  1.
          2    1    1    2  501    0 -0.70270683176E+01 -0.21507421882E+02  0.84937051004E+03  0.84967182619E+03  0.00000000000E+00 0.  1.
<mgrwt>
<rscale>  2 0.22626287E+02</rscale>
<asrwt>0</asrwt>
<pdfrwt beam="2">  1       21 0.18315080E-03 0.22626287E+02</pdfrwt>
<pdfrwt beam="1">  1        2 0.14963128E+00 0.22626287E+02</pdfrwt>
<totfact> 0.12640494E+07</totfact>
</mgrwt>
</event>
<event>
 4    1  0.2185255E+006  0.2284023E+02  0.7546771E-02  0.1694113E+00
         21   -1    0    0  501  502  0.00000000000E+00  0.00000000000E+00  0.12189447298E+02  0.12189447298E+02  0.00000000000E+00 0. -1.
          1   -1    0    0  503    0 -0.00000000000E+00 -0.00000000000E+00 -0.43136555412E+03  0.43136555412E+03  0.00000000000E+00 0.  1.
         21    1    1    2  503  502 -0.21710865444E+02  0.70932668287E+01  0.90045016133E+00  0.22857972857E+02  0.00000000000E+00 0. -1.
          1    1    1    2  501    0  0.21710865444E+02 -0.70932668287E+01 -0.42007655698E+03  0.42069702856E+03  0.00000000000E+00 0.  1.
<mgrwt>
<rscale>  2 0.22840230E+02</rscale>
<asrwt>0</asrwt>
<pdfrwt beam="1">  1       21 0.18752992E-02 0.22840230E+02</pdfrwt>
<pdfrwt beam="2">  1        1 0.66363945E-01 0.22840230E+02</pdfrwt>
<totfact> 0.65126833E+05</totfact>
</mgrwt>
</event>
<event>
 4    1  0.2185255E+006  0.2328423E+02  0.7546771E-02  0.1686944E+00
         -4   -1    0    0    0  501 -0.00000000000E+00  0.00000000000E+00  0.10230024203E+01  0.10230024203E+01  0.00000000000E+00 0.  1.
         21   -1    0    0  503  502  0.00000000000E+00 -0.00000000000E+00 -0.67965442578E+03  0.67965442578E+03  0.00000000000E+00 0.  1.
         21    1    1    2  503  501 -0.29426244693E+00  0.23282367894E+02 -0.49903713434E+03  0.49958004033E+03  0.00000000000E+00 0.  1.
         -4    1    1    2    0  502  0.29426244693E+00 -0.23282367894E+02 -0.17959428902E+03  0.18109738787E+03  0.00000000000E+00 0.  1.
<mgrwt>
<rscale>  2 0.23284227E+02</rscale>
<asrwt>0</asrwt>
<pdfrwt beam="2">  1       21 0.10456253E+00 0.23284227E+02</pdfrwt>
<pdfrwt beam="1">  1       -4 0.15738452E-03 0.23284227E+02</pdfrwt>
<totfact> 0.88943604E+05</totfact>
</mgrwt>
</event>
<event>
 4    1  0.2185255E+006  0.2099933E+02  0.7546771E-02  0.1726156E+00
         21   -1    0    0  503  502  0.00000000000E+00  0.00000000000E+00  0.81754253598E+00  0.81754253598E+00  0.00000000000E+00 0.  1.
          1   -1    0    0  502    0 -0.00000000000E+00 -0.00000000000E+00 -0.71244726967E+03  0.71244726967E+03  0.00000000000E+00 0. -1.
         21    1    1    2  503  501  0.17133318479E+02 -0.12141714828E+02 -0.18004553661E+03  0.18126601197E+03  0.00000000000E+00 0.  1.
          1    1    1    2  501    0 -0.17133318479E+02  0.12141714828E+02 -0.53158419052E+03  0.53199880024E+03  0.00000000000E+00 0. -1.
<mgrwt>
<rscale>  2 0.20999330E+02</rscale>
<asrwt>0</asrwt>
<pdfrwt beam="1">  1       21 0.12577567E-03 0.20999330E+02</pdfrwt>
<pdfrwt beam="2">  1        1 0.10960736E+00 0.20999330E+02</pdfrwt>
<totfact> 0.18423192E+07</totfact>
</mgrwt>
</event>
<event>
 4    1  0.2185255E+006  0.2222727E+02  0.7546771E-02  0.1704351E+00
          4   -1    0    0  503    0 -0.00000000000E+00  0.00000000000E+00  0.11066949466E+04  0.11066949466E+04  0.00000000000E+00 0. -1.
         21   -1    0    0  501  502  0.00000000000E+00 -0.00000000000E+00 -0.77488004529E+00  0.77488004529E+00  0.00000000000E+00 0.  1.
         21    1    1    2  503  502  0.74564830381E+01 -0.20939251461E+02  0.19244318603E+03  0.19372256255E+03  0.00000000000E+00 0.  1.
          4    1    1    2  501    0 -0.74564830381E+01  0.20939251461E+02  0.91347688049E+03  0.91374726406E+03  0.00000000000E+00 0. -1.
<mgrwt>
<rscale>  2 0.22227267E+02</rscale>
<asrwt>0</asrwt>
<pdfrwt beam="2">  1       21 0.11921320E-03 0.22227267E+02</pdfrwt>
<pdfrwt beam="1">  1        4 0.17025950E+00 0.22227267E+02</pdfrwt>
<totfact> 0.55168017E+05</totfact>
</mgrwt>
</event>
<event>
 4    1  0.2185255E+006  0.2209755E+02  0.7546771E-02  0.1706570E+00
         21   -1    0    0  503  502  0.00000000000E+00  0.00000000000E+00  0.29185186109E+02  0.29185186109E+02  0.00000000000E+00 0. -1.
         -1   -1    0    0    0  501 -0.00000000000E+00 -0.00000000000E+00 -0.14307219157E+03  0.14307219157E+03  0.00000000000E+00 0. -1.
         21    1    1    2  503  501 -0.49655624092E+01  0.21532420110E+02  0.23992627497E+02  0.32618217303E+02  0.00000000000E+00 0. -1.
         -1    1    1    2    0  502  0.49655624092E+01 -0.21532420110E+02 -0.13787963296E+03  0.13963916037E+03  0.00000000000E+00 0. -1.
<mgrwt>
<rscale>  2 0.22097555E+02</rscale>
<asrwt>0</asrwt>
<pdfrwt beam="1">  1       21 0.44900286E-02 0.22097555E+02</pdfrwt>
<pdfrwt beam="2">  1       -1 0.22011107E-01 0.22097555E+02</pdfrwt>
<totfact> 0.38393403E+05</totfact>
</mgrwt>
</event>
<event>
 4    1  0.2185255E+006  0.2251953E+02  0.7546771E-02  0.1699419E+00
         21   -1    0    0  503  502  0.00000000000E+00  0.00000000000E+00  0.62004624644E+01  0.62004624644E+01  0.00000000000E+00 0. -1.
         -1   -1    0    0    0  501 -0.00000000000E+00 -0.00000000000E+00 -0.13994226513E+04  0.13994226513E+04  0.00000000000E+00 0.  1.
         21    1    1    2  503  501 -0.11864491690E+02  0.19140618391E+02 -0.14646561696E+02  0.26863566498E+02  0.00000000000E+00 0. -1.
         -1    1    1    2    0  502  0.11864491690E+02 -0.19140618391E+02 -0.13785756272E+04  0.13787595473E+04  0.00000000000E+00 0.  1.
<mgrwt>
<rscale>  2 0.22519535E+02</rscale>
<asrwt>0</asrwt>
<pdfrwt beam="1">  1       21 0.95391657E-03 0.22519535E+02</pdfrwt>
<pdfrwt beam="2">  1       -1 0.21529596E+00 0.22519535E+02</pdfrwt>
<totfact> 0.44912059E+04</totfact>
</mgrwt>
</event>
<event>
 4    1  0.2185255E+006  0.2045002E+02  0.7546771E-02  0.1736524E+00
         21   -1    0    0  503  502  0.00000000000E+00  0.00000000000E+00  0.23805403606E+01  0.23805403606E+01  0.00000000000E+00 0.  1.
         -1   -1    0    0    0  501 -0.00000000000E+00 -0.00000000000E+00 -0.23648331794E+03  0.23648331794E+03  0.00000000000E+00 0.  1.
         21    1    1    2  503  501 -0.30493205299E+01 -0.20221393950E+02 -0.56489538451E+02  0.60077209351E+02  0.00000000000E+00 0.  1.
         -1    1    1    2    0  502  0.30493205299E+01  0.20221393950E+02 -0.17761323913E+03  0.17878664895E+03  0.00000000000E+00 0.  1.
<mgrwt>
<rscale>  2 0.20450015E+02</rscale>
<asrwt>0</asrwt>
<pdfrwt beam="1">  1       21 0.36623708E-03 0.20450015E+02</pdfrwt>
<pdfrwt beam="2">  1       -1 0.36382039E-01 0.20450015E+02</pdfrwt>
<totfact> 0.75486084E+06</totfact>
</mgrwt>
</event>
<event>
 4    1  0.2185255E+006  0.2279149E+02  0.7546771E-02  0.1694912E+00
         21   -1    0    0  503  502  0.00000000000E+00  0.00000000000E+00  0.55381739318E+01  0.55381739318E+01  0.00000000000E+00 0. -1.
          1   -1    0    0  502    0 -0.00000000000E+00 -0.00000000000E+00 -0.30412432197E+03  0.30412432197E+03  0.00000000000E+00 0.  1.
         21    1    1    2  503  501 -0.15516736007E+02  0.16693797173E+02 -0.20532428116E+02  0.30676254085E+02  0.00000000000E+00 0. -1.
          1    1    1    2  501    0  0.15516736007E+02 -0.16693797173E+02 -0.27805371992E+03  0.27898624181E+03  0.00000000000E+00 0.  1.
<mgrwt>
<rscale>  2 0.22791489E+02</rscale>
<asrwt>0</asrwt>
<pdfrwt beam="1">  1       21 0.85202689E-03 0.22791489E+02</pdfrwt>
<pdfrwt beam="2">  1        1 0.46788350E-01 0.22791489E+02</pdfrwt>
<totfact> 0.32211539E+06</totfact>
</mgrwt>
</event>
<event>
 4    1  0.2185255E+006  0.3057178E+02  0.7546771E-02  0.1591853E+00
         -2   -1    0    0    0  501 -0.00000000000E+00  0.00000000000E+00  0.45393515853E+03  0.45393515853E+03  0.00000000000E+00 0. -1.
         21   -1    0    0  501  502  0.00000000000E+00 -0.00000000000E+00 -0.34054296053E+01  0.34054296053E+01  0.00000000000E+00 0. -1.
         21    1    1    2  503  502  0.28504451923E+02  0.11051246813E+02  0.81476994297E+02  0.87023757878E+02  0.00000000000E+00 0. -1.
         -2    1    1    2    0  503 -0.28504451923E+02 -0.11051246813E+02  0.36905273463E+03  0.37031683026E+03  0.00000000000E+00 0. -1.
<mgrwt>
<rscale>  2 0.30571782E+02</rscale>
<asrwt>0</asrwt>
<pdfrwt beam="2">  1       21 0.52391261E-03 0.30571782E+02</pdfrwt>
<pdfrwt beam="1">  1       -2 0.69836130E-01 0.30571782E+02</pdfrwt>
<totfact> 0.12116797E+06</totfact>
</mgrwt>
</event>
<event>
 4    1  0.2185255E+006  0.2542949E+02  0.7546771E-02  0.1654908E+00
         21   -1    0    0  503  502  0.00000000000E+00  0.00000000000E+00  0.42691417410E+00  0.42691417410E+00  0.00000000000E+00 0. -1.
         -4   -1    0    0    0  501 -0.00000000000E+00 -0.00000000000E+00 -0.15488523999E+04  0.15488523999E+04  0.00000000000E+00 0. -1.
         21    1    1    2  503  501 -0.12248070000E+01 -0.25399979540E+02 -0.88919301978E+03  0.88955656680E+03  0.00000000000E+00 0. -1.
         -4    1    1    2    0  502  0.12248070000E+01  0.25399979540E+02 -0.65923246594E+03  0.65972274727E+03  0.00000000000E+00 0. -1.
<mgrwt>
<rscale>  2 0.25429493E+02</rscale>
<asrwt>0</asrwt>
<pdfrwt beam="1">  1       21 0.65678673E-04 0.25429493E+02</pdfrwt>
<pdfrwt beam="2">  1       -4 0.23828655E+00 0.25429493E+02</pdfrwt>
<totfact> 0.55506346E+05</totfact>
</mgrwt>
</event>
<event>
 4    1  0.2185255E+006  0.2090572E+02  0.7546771E-02  0.1727894E+00
         21   -1    0    0  501  502  0.00000000000E+00  0.00000000000E+00  0.39279405055E+01  0.39279405055E+01  0.00000000000E+00 0.  1.
          2   -1    0    0  503    0 -0.00000000000E+00 -0.00000000000E+00 -0.61034404255E+03  0.61034404255E+03  0.00000000000E+00 0.  1.
         21    1    1    2  503  502  0.95921263009E+01  0.18575264238E+02 -0.25475204628E+02  0.32955050892E+02  0.00000000000E+00 0.  1.
          2    1    1    2  501    0 -0.95921263009E+01 -0.18575264238E+02 -0.58094089742E+03  0.58131693216E+03  0.00000000000E+00 0.  1.
<mgrwt>
<rscale>  2 0.20905725E+02</rscale>
<asrwt>0</asrwt>
<pdfrwt beam="1">  1       21 0.60429856E-03 0.20905725E+02</pdfrwt>
<pdfrwt beam="2">  1        2 0.93899080E-01 0.20905725E+02</pdfrwt>
<totfact> 0.36652277E+06</totfact>
</mgrwt>
</event>
<event>
 4    1  0.2185255E+006  0.4968798E+02  0.7546771E-02  0.1447032E+00
         -1   -1    0    0    0  501 -0.00000000000E+00  0.00000000000E+00  0.13396281024E+04  0.13396281024E+04  0.00000000000E+00 0. -1.
         21   -1    0    0  501  502  0.00000000000E+00 -0.00000000000E+00 -0.20901816910E+01  0.20901816910E+01  0.00000000000E+00 0. -1.
         21    1    1    2  503  502 -0.55191009735E+01  0.49380509003E+02  0.43805528402E+03  0.44086429545E+03  0.00000000000E+00 0. -1.
         -1    1    1    2    0  503  0.55191009735E+01 -0.49380509003E+02  0.89948263668E+03  0.90085398864E+03  0.00000000000E+00 0. -1.
<mgrwt>
<rscale>  2 0.49687978E+02</rscale>
<asrwt>0</asrwt>
<pdfrwt beam="2">  1       21 0.32156748E-03 0.49687978E+02</pdfrwt>
<pdfrwt beam="1">  1       -1 0.20609594E+00 0.49687978E+02</pdfrwt>
<totfact> 0.28692240E+05</totfact>
</mgrwt>
</event>
<event>
 4    1  0.2185255E+006  0.2329126E+02  0.7546771E-02  0.1686832E+00
         21   -1    0    0  501  502  0.00000000000E+00  0.00000000000E+00  0.90086483095E+02  0.90086483095E+02  0.00000000000E+00 0. -1.
          1   -1    0    0  503    0 -0.00000000000E+00 -0.00000000000E+00 -0.19656181847E+03  0.19656181847E+03  0.00000000000E+00 0. -1.
         21    1    1    2  503  502 -0.23155395913E+02  0.25120556350E+01  0.87873991408E+02  0.90908311772E+02  0.00000000000E+00 0. -1.
          1    1    1    2  501    0  0.23155395913E+02 -0.25120556350E+01 -0.19434932678E+03  0.19573998979E+03  0.00000000000E+00 0. -1.
<mgrwt>
<rscale>  2 0.23291260E+02</rscale>
<asrwt>0</asrwt>
<pdfrwt beam="1">  1       21 0.13859459E-01 0.23291260E+02</pdfrwt>
<pdfrwt beam="2">  1        1 0.30240279E-01 0.23291260E+02</pdfrwt>
<totfact> 0.66221732E+04</totfact>
</mgrwt>
</event>
<event>
 4    1  0.2185255E+006  0.2748467E+02  0.7546771E-02  0.1627682E+00
         21   -1    0    0  503  502  0.00000000000E+00  0.00000000000E+00  0.65263003470E+00  0.65263003470E+00  0.00000000000E+00 0.  1.
          2   -1    0    0  502    0 -0.00000000000E+00 -0.00000000000E+00 -0.23480511018E+04  0.23480511018E+04  0.00000000000E+00 0. -1.
         21    1    1    2  503  501  0.27481683783E+02  0.40497696342E+00 -0.33747657504E+03  0.33859392441E+03  0.00000000000E+00 0.  1.
          2    1    1    2  501    0 -0.27481683783E+02 -0.40497696342E+00 -0.20099218967E+04  0.20101098074E+04  0.00000000000E+00 0. -1.
<mgrwt>
<rscale>  2 0.27484668E+02</rscale>
<asrwt>0</asrwt>
<pdfrwt beam="1">  1       21 0.10040480E-03 0.27484668E+02</pdfrwt>
<pdfrwt beam="2">  1        2 0.36123799E+00 0.27484668E+02</pdfrwt>
<totfact> 0.67562841E+06</totfact>
</mgrwt>
</event>
<event>
 4    1  0.2185255E+006  0.2142000E+02  0.7546771E-02  0.1718480E+00
         21   -1    0    0  503  502  0.00000000000E+00  0.00000000000E+00  0.37468369469E+03  0.37468369469E+03  0.00000000000E+00 0. -1.
          4   -1    0    0  502    0 -0.00000000000E+00 -0.00000000000E+00 -0.61379896538E+01  0.61379896538E+01  0.00000000000E+00 0. -1.
         21    1    1    2  503  501 -0.20119064364E+02 -0.73511538608E+01  0.35463446031E+03  0.35528075750E+03  0.00000000000E+00 0. -1.
          4    1    1    2  501    0  0.20119064364E+02  0.73511538608E+01  0.13911244727E+02  0.25540926840E+02  0.00000000000E+00 0. -1.
<mgrwt>
<rscale>  2 0.21419996E+02</rscale>
<asrwt>0</asrwt>
<pdfrwt beam="1">  1       21 0.57643627E-01 0.21419996E+02</pdfrwt>
<pdfrwt beam="2">  1        4 0.94430640E-03 0.21419996E+02</pdfrwt>
<totfact> 0.24048721E+05</totfact>
</mgrwt>
</event>
<event>
 4    1  0.2185255E+006  0.2102741E+02  0.7546771E-02  0.1725636E+00
          2   -1    0    0  502    0 -0.00000000000E+00  0.00000000000E+00  0.54197263557E+02  0.54197263557E+02  0.00000000000E+00 0.  1.
         21   -1    0    0  503  502  0.00000000000E+00 -0.00000000000E+00 -0.30477898781E+02  0.30477898781E+02  0.00000000000E+00 0.  1.
         21    1    1    2  503  501 -0.79443694681E+01  0.19468920664E+02 -0.24371102150E+02  0.32188546070E+02  0.00000000000E+00 0.  1.
          2    1    1    2  501    0  0.79443694681E+01 -0.19468920664E+02  0.48090466926E+02  0.52486616268E+02  0.00000000000E+00 0.  1.
<mgrwt>
<rscale>  2 0.21027408E+02</rscale>
<asrwt>0</asrwt>
<pdfrwt beam="2">  1       21 0.46889075E-02 0.21027408E+02</pdfrwt>
<pdfrwt beam="1">  1        2 0.83380406E-02 0.21027408E+02</pdfrwt>
<totfact> 0.20219063E+06</totfact>
</mgrwt>
</event>
<event>
 4    1  0.2185255E+006  0.2520525E+02  0.7546771E-02  0.1658071E+00
         -4   -1    0    0    0  501 -0.00000000000E+00  0.00000000000E+00  0.15243049297E+01  0.15243049297E+01  0.00000000000E+00 0. -1.
         21   -1    0    0  501  502  0.00000000000E+00 -0.00000000000E+00 -0.51501767025E+03  0.51501767025E+03  0.00000000000E+00 0. -1.
         21    1    1    2  503  502 -0.77352981078E+01 -0.23988950776E+02 -0.36954344726E+03  0.37040203025E+03  0.00000000000E+00 0. -1.
         -4    1    1    2    0  503  0.77352981078E+01  0.23988950776E+02 -0.14394991805E+03  0.14613994493E+03  0.00000000000E+00 0. -1.
<mgrwt>
<rscale>  2 0.25205249E+02</rscale>
<asrwt>0</asrwt>
<pdfrwt beam="2">  1       21 0.79233436E-01 0.25205249E+02</pdfrwt>
<pdfrwt beam="1">  1       -4 0.23450860E-03 0.25205249E+02</pdfrwt>
<totfact> 0.95450532E+05</totfact>
</mgrwt>
</event>
<event>
 4    1  0.2185255E+006  0.2064543E+02  0.7546771E-02  0.1732789E+00
         21   -1    0    0  503  502  0.00000000000E+00  0.00000000000E+00  0.17382460320E+03  0.17382460320E+03  0.00000000000E+00 0. -1.
          4   -1    0    0  502    0 -0.00000000000E+00 -0.00000000000E+00 -0.23685997144E+03  0.23685997144E+03  0.00000000000E+00 0. -1.
         21    1    1    2  503  501  0.45417840447E+01 -0.20139664378E+02  0.17275893539E+03  0.17398817097E+03  0.00000000000E+00 0. -1.
          4    1    1    2  501    0 -0.45417840447E+01  0.20139664378E+02 -0.23579430363E+03  0.23669640367E+03  0.00000000000E+00 0. -1.
<mgrwt>
<rscale>  2 0.20645433E+02</rscale>
<asrwt>0</asrwt>
<pdfrwt beam="1">  1       21 0.26742247E-01 0.20645433E+02</pdfrwt>
<pdfrwt beam="2">  1        4 0.36439996E-01 0.20645433E+02</pdfrwt>
<totfact> 0.31895931E+03</totfact>
</mgrwt>
</event>
<event>
 4    1  0.2185255E+006  0.2623134E+02  0.7546771E-02  0.1643921E+00
         21   -1    0    0  503  502  0.00000000000E+00  0.00000000000E+00  0.20040428298E+02  0.20040428298E+02  0.00000000000E+00 0.  1.
          1   -1    0    0  502    0 -0.00000000000E+00 -0.00000000000E+00 -0.36976741998E+02  0.36976741998E+02  0.00000000000E+00 0. -1.
         21    1    1    2  503  501 -0.98803111454E+01  0.24299439428E+02 -0.84778379151E+00  0.26245038431E+02  0.00000000000E+00 0.  1.
          1    1    1    2  501    0  0.98803111454E+01 -0.24299439428E+02 -0.16088529908E+02  0.30772131864E+02  0.00000000000E+00 0. -1.
<mgrwt>
<rscale>  2 0.26231342E+02</rscale>
<asrwt>0</asrwt>
<pdfrwt beam="1">  1       21 0.30831429E-02 0.26231342E+02</pdfrwt>
<pdfrwt beam="2">  1        1 0.56887294E-02 0.26231342E+02</pdfrwt>
<totfact> 0.60119223E+06</totfact>
</mgrwt>
</event>
<event>
 4    1  0.2185255E+006  0.2454969E+02  0.7546771E-02  0.1667555E+00
         21   -1    0    0  501  502  0.00000000000E+00  0.00000000000E+00  0.51714303495E+02  0.51714303495E+02  0.00000000000E+00 0.  1.
         -2   -1    0    0    0  501 -0.00000000000E+00 -0.00000000000E+00 -0.51966363872E+03  0.51966363872E+03  0.00000000000E+00 0. -1.
         21    1    1    2  503  502  0.14115203291E+02  0.20086021684E+02  0.48492655340E+02  0.54352781465E+02  0.00000000000E+00 0.  1.
         -2    1    1    2    0  503 -0.14115203291E+02 -0.20086021684E+02 -0.51644199056E+03  0.51702516075E+03  0.00000000000E+00 0. -1.
<mgrwt>
<rscale>  2 0.24549689E+02</rscale>
<asrwt>0</asrwt>
<pdfrwt beam="1">  1       21 0.79560463E-02 0.24549689E+02</pdfrwt>
<pdfrwt beam="2">  1       -2 0.79948256E-01 0.24549689E+02</pdfrwt>
<totfact> 0.12969081E+04</totfact>
</mgrwt>
</event>
<event>
 4    1  0.2185255E+006  0.2145130E+02  0.7546771E-02  0.1717918E+00
         -1   -1    0    0    0  501 -0.00000000000E+00  0.00000000000E+00  0.85682484924E+03  0.85682484924E+03  0.00000000000E+00 0. -1.
         21   -1    0    0  501  502  0.00000000000E+00 -0.00000000000E+00 -0.82225780896E+00  0.82225780896E+00  0.00000000000E+00 0. -1.
         21    1    1    2  503  502 -0.36007480438E+00 -0.21448279279E+02  0.17544695157E+03  0.17675347565E+03  0.00000000000E+00 0. -1.
         -1    1    1    2    0  503  0.36007480438E+00  0.21448279279E+02  0.68055563986E+03  0.68089363140E+03  0.00000000000E+00 0. -1.
<mgrwt>
<rscale>  2 0.21451302E+02</rscale>
<asrwt>0</asrwt>
<pdfrwt beam="2">  1       21 0.12650189E-03 0.21451302E+02</pdfrwt>
<pdfrwt beam="1">  1       -1 0.13181849E+00 0.21451302E+02</pdfrwt>
<totfact> 0.30850781E+06</totfact>
</mgrwt>
</event>
<event>
 4    1  0.2185255E+006  0.2199366E+02  0.7546771E-02  0.1708362E+00
         -2   -1    0    0    0  501 -0.00000000000E+00  0.00000000000E+00  0.15019015378E+03  0.15019015378E+03  0.00000000000E+00 0. -1.
         21   -1    0    0  503  502  0.00000000000E+00 -0.00000000000E+00 -0.24577778132E+03  0.24577778132E+03  0.00000000000E+00 0.  1.
         21    1    1    2  503  501 -0.16310531289E+02  0.14754244731E+02 -0.24447629127E+03  0.24546359844E+03  0.00000000000E+00 0.  1.
         -2    1    1    2    0  502  0.16310531289E+02 -0.14754244731E+02  0.14888866372E+03  0.15050433666E+03  0.00000000000E+00 0. -1.
<mgrwt>
<rscale>  2 0.21993662E+02</rscale>
<asrwt>0</asrwt>
<pdfrwt beam="2">  1       21 0.37811966E-01 0.21993662E+02</pdfrwt>
<pdfrwt beam="1">  1       -2 0.23106178E-01 0.21993662E+02</pdfrwt>
<totfact> 0.86205064E+03</totfact>
</mgrwt>
</event>
<event>
 4    1  0.2185255E+006  0.2746287E+02  0.7546771E-02  0.1627955E+00
          2   -1    0    0  503    0 -0.00000000000E+00  0.00000000000E+00  0.27735514930E+03  0.27735514930E+03  0.00000000000E+00 0.  1.
         21   -1    0    0  501  502  0.00000000000E+00 -0.00000000000E+00 -0.34156463758E+01  0.34156463758E+01  0.00000000000E+00 0.  1.
         21    1    1    2  503  502  0.18775929167E+01  0.27398607073E+02  0.73582586057E+02  0.78540473614E+02  0.00000000000E+00 0.  1.
          2    1    1    2  501    0 -0.18775929167E+01 -0.27398607073E+02  0.20035691687E+03  0.20223032206E+03  0.00000000000E+00 0.  1.
<mgrwt>
<rscale>  2 0.27462866E+02</rscale>
<asrwt>0</asrwt>
<pdfrwt beam="2">  1       21 0.52548428E-03 0.27462866E+02</pdfrwt>
<pdfrwt beam="1">  1        2 0.42670005E-01 0.27462866E+02</pdfrwt>
<totfact> 0.10634856E+07</totfact>
</mgrwt>
</event>
<event>
 4    1  0.2185255E+006  0.2069828E+02  0.7546771E-02  0.1731788E+00
         21   -1    0    0  501  502  0.00000000000E+00  0.00000000000E+00  0.57043371786E+00  0.57043371786E+00  0.00000000000E+00 0.  1.
          1   -1    0    0  503    0 -0.00000000000E+00 -0.00000000000E+00 -0.89322460256E+03  0.89322460256E+03  0.00000000000E+00 0. -1.
         21    1    1    2  503  502  0.49465041686E+01 -0.20098529708E+02 -0.26802632565E+03  0.26882434793E+03  0.00000000000E+00 0.  1.
          1    1    1    2  501    0 -0.49465041686E+01  0.20098529708E+02 -0.62462784320E+03  0.62497068835E+03  0.00000000000E+00 0. -1.
<mgrwt>
<rscale>  2 0.20698280E+02</rscale>
<asrwt>0</asrwt>
<pdfrwt beam="1">  1       21 0.87759386E-04 0.20698280E+02</pdfrwt>
<pdfrwt beam="2">  1        1 0.13741862E+00 0.20698280E+02</pdfrwt>
<totfact> 0.22405609E+07</totfact>
</mgrwt>
</event>
<event>
 4    1  0.2185255E+006  0.2171793E+02  0.7546771E-02  0.1713176E+00
         -1   -1    0    0    0  501 -0.00000000000E+00  0.00000000000E+00  0.43798785061E+03  0.43798785061E+03  0.00000000000E+00 0.  1.
         21   -1    0    0  503  502  0.00000000000E+00 -0.00000000000E+00 -0.86492408795E+01  0.86492408795E+01  0.00000000000E+00 0. -1.
         21    1    1    2  503  501  0.19217753612E+02  0.10116635334E+02  0.57151927849E+01  0.22457332721E+02  0.00000000000E+00 0. -1.
         -1    1    1    2    0  502 -0.19217753612E+02 -0.10116635334E+02  0.42362341694E+03  0.42417975877E+03  0.00000000000E+00 0.  1.
<mgrwt>
<rscale>  2 0.21717927E+02</rscale>
<asrwt>0</asrwt>
<pdfrwt beam="2">  1       21 0.13306528E-02 0.21717927E+02</pdfrwt>
<pdfrwt beam="1">  1       -1 0.67382729E-01 0.21717927E+02</pdfrwt>
<totfact> 0.39036717E+05</totfact>
</mgrwt>
</event>
<event>
 4    1  0.2185255E+006  0.2830093E+02  0.7546771E-02  0.1617666E+00
         21   -1    0    0  503  502  0.00000000000E+00  0.00000000000E+00  0.17422409001E+02  0.17422409001E+02  0.00000000000E+00 0. -1.
         -4   -1    0    0    0  501 -0.00000000000E+00 -0.00000000000E+00 -0.49495991802E+02  0.49495991802E+02  0.00000000000E+00 0. -1.
         21    1    1    2  503  501  0.37887182359E+01 -0.28046183221E+02 -0.71089036531E+01  0.29180118065E+02  0.00000000000E+00 0. -1.
         -4    1    1    2    0  502 -0.37887182359E+01  0.28046183221E+02 -0.24964679147E+02  0.37738282738E+02  0.00000000000E+00 0. -1.
<mgrwt>
<rscale>  2 0.28300932E+02</rscale>
<asrwt>0</asrwt>
<pdfrwt beam="1">  1       21 0.26803706E-02 0.28300932E+02</pdfrwt>
<pdfrwt beam="2">  1       -4 0.76147680E-02 0.28300932E+02</pdfrwt>
<totfact> 0.22417005E+06</totfact>
</mgrwt>
</event>
<event>
 4    1  0.2185255E+006  0.2930601E+02  0.7546771E-02  0.1605889E+00
         -2   -1    0    0    0  501 -0.00000000000E+00  0.00000000000E+00  0.57591323933E+02  0.57591323933E+02  0.00000000000E+00 0. -1.
         21   -1    0    0  503  502  0.00000000000E+00 -0.00000000000E+00 -0.26812921219E+02  0.26812921219E+02  0.00000000000E+00 0. -1.
         21    1    1    2  503  501 -0.25876584179E+02 -0.13756624328E+02 -0.12725902179E+02  0.31949818590E+02  0.00000000000E+00 0. -1.
         -2    1    1    2    0  502  0.25876584179E+02  0.13756624328E+02  0.43504304893E+02  0.52454426562E+02  0.00000000000E+00 0. -1.
<mgrwt>
<rscale>  2 0.29306012E+02</rscale>
<asrwt>0</asrwt>
<pdfrwt beam="2">  1       21 0.41250648E-02 0.29306012E+02</pdfrwt>
<pdfrwt beam="1">  1       -2 0.88602036E-02 0.29306012E+02</pdfrwt>
<totfact> 0.17245354E+06</totfact>
</mgrwt>
</event>
<event>
 4    1  0.2185255E+006  0.2087889E+02  0.7546771E-02  0.1728395E+00
         21   -1    0    0  501  502  0.00000000000E+00  0.00000000000E+00  0.42131003862E+01  0.42131003862E+01  0.00000000000E+00 0. -1.
          2   -1    0    0  503    0 -0.00000000000E+00 -0.00000000000E+00 -0.13986168258E+04  0.13986168258E+04  0.00000000000E+00 0.  1.
         21    1    1    2  503  502 -0.10346887114E+02  0.18134774650E+02 -0.22230714245E+02  0.30498078307E+02  0.00000000000E+00 0. -1.
          2    1    1    2  501    0  0.10346887114E+02 -0.18134774650E+02 -0.13721730111E+04  0.13723318478E+04  0.00000000000E+00 0.  1.
<mgrwt>
<rscale>  2 0.20878892E+02</rscale>
<asrwt>0</asrwt>
<pdfrwt beam="1">  1       21 0.64816911E-03 0.20878892E+02</pdfrwt>
<pdfrwt beam="2">  1        2 0.21517188E+00 0.20878892E+02</pdfrwt>
<totfact> 0.11974862E+06</totfact>
</mgrwt>
</event>
<event>
 4    1  0.2185255E+006  0.2411534E+02  0.7546771E-02  0.1674044E+00
          2   -1    0    0  503    0 -0.00000000000E+00  0.00000000000E+00  0.83336275480E+03  0.83336275480E+03  0.00000000000E+00 0.  1.
         21   -1    0    0  501  502  0.00000000000E+00 -0.00000000000E+00 -0.86850307426E+01  0.86850307426E+01  0.00000000000E+00 0.  1.
         21    1    1    2  503  502  0.50248568737E+01  0.23586026743E+02  0.85835757288E+01  0.25597414252E+02  0.00000000000E+00 0.  1.
          2    1    1    2  501    0 -0.50248568737E+01 -0.23586026743E+02  0.81609414833E+03  0.81645037129E+03  0.00000000000E+00 0.  1.
<mgrwt>
<rscale>  2 0.24115345E+02</rscale>
<asrwt>0</asrwt>
<pdfrwt beam="2">  1       21 0.13361592E-02 0.24115345E+02</pdfrwt>
<pdfrwt beam="1">  1        2 0.12820959E+00 0.24115345E+02</pdfrwt>
<totfact> 0.81896112E+05</totfact>
</mgrwt>
</event>
<event>
 4    1  0.2185255E+006  0.2589234E+02  0.7546771E-02  0.1648506E+00
         21   -1    0    0  501  502  0.00000000000E+00  0.00000000000E+00  0.99668587307E+02  0.99668587307E+02  0.00000000000E+00 0. -1.
         -1   -1    0    0    0  501 -0.00000000000E+00 -0.00000000000E+00 -0.37627182872E+02  0.37627182872E+02  0.00000000000E+00 0. -1.
         21    1    1    2  503  502 -0.21156486111E+02  0.14927028773E+02  0.93230800647E+02  0.96759471277E+02  0.00000000000E+00 0. -1.
         -1    1    1    2    0  503  0.21156486111E+02 -0.14927028773E+02 -0.31189396213E+02  0.40536298902E+02  0.00000000000E+00 0. -1.
<mgrwt>
<rscale>  2 0.25892337E+02</rscale>
<asrwt>0</asrwt>
<pdfrwt beam="1">  1       21 0.15333629E-01 0.25892337E+02</pdfrwt>
<pdfrwt beam="2">  1       -1 0.57887974E-02 0.25892337E+02</pdfrwt>
<totfact> 0.37078428E+05</totfact>
</mgrwt>
</event>
<event>
 4    1  0.2185255E+006  0.2190906E+02  0.7546771E-02  0.1709830E+00
         21   -1    0    0  501  502  0.00000000000E+00  0.00000000000E+00  0.16874764967E+01  0.16874764967E+01  0.00000000000E+00 0. -1.
          1   -1    0    0  503    0 -0.00000000000E+00 -0.00000000000E+00 -0.12543311159E+04  0.12543311159E+04  0.00000000000E+00 0.  1.
         21    1    1    2  503  502 -0.21665928054E+02 -0.32549149506E+01 -0.74093510498E+02  0.77264838107E+02  0.00000000000E+00 0. -1.
          1    1    1    2  501    0  0.21665928054E+02  0.32549149506E+01 -0.11785501289E+04  0.11787537543E+04  0.00000000000E+00 0.  1.
<mgrwt>
<rscale>  2 0.21909060E+02</rscale>
<asrwt>0</asrwt>
<pdfrwt beam="1">  1       21 0.25961227E-03 0.21909060E+02</pdfrwt>
<pdfrwt beam="2">  1        1 0.19297364E+00 0.21909060E+02</pdfrwt>
<totfact> 0.27916826E+06</totfact>
</mgrwt>
</event>
<event>
 4    1  0.2185255E+006  0.2947713E+02  0.7546771E-02  0.1603941E+00
         -3   -1    0    0    0  501 -0.00000000000E+00  0.00000000000E+00  0.20885308078E+03  0.20885308078E+03  0.00000000000E+00 0.  1.
         21   -1    0    0  503  502  0.00000000000E+00 -0.00000000000E+00 -0.53163064171E+01  0.53163064171E+01  0.00000000000E+00 0. -1.
         21    1    1    2  503  501  0.10551818485E+02  0.27523812752E+02  0.51834678710E+02  0.59629984560E+02  0.00000000000E+00 0. -1.
         -3    1    1    2    0  502 -0.10551818485E+02 -0.27523812752E+02  0.15170209565E+03  0.15453940264E+03  0.00000000000E+00 0.  1.
<mgrwt>
<rscale>  2 0.29477129E+02</rscale>
<asrwt>0</asrwt>
<pdfrwt beam="2">  1       21 0.81789346E-03 0.29477129E+02</pdfrwt>
<pdfrwt beam="1">  1       -3 0.32131237E-01 0.29477129E+02</pdfrwt>
<totfact> 0.15459793E+06</totfact>
</mgrwt>
</event>
<event>
 4    1  0.2185255E+006  0.2059468E+02  0.7546771E-02  0.1733754E+00
          2   -1    0    0  502    0 -0.00000000000E+00  0.00000000000E+00  0.63382330374E+02  0.63382330374E+02  0.00000000000E+00 0. -1.
         21   -1    0    0  503  502  0.00000000000E+00 -0.00000000000E+00 -0.13754886185E+02  0.13754886185E+02  0.00000000000E+00 0.  1.
         21    1    1    2  503  501  0.19669369973E+02 -0.61038289149E+01 -0.28240621772E+01  0.20787404113E+02  0.00000000000E+00 0.  1.
          2    1    1    2  501    0 -0.19669369973E+02  0.61038289149E+01  0.52451506367E+02  0.56349812446E+02  0.00000000000E+00 0. -1.
<mgrwt>
<rscale>  2 0.20594680E+02</rscale>
<asrwt>0</asrwt>
<pdfrwt beam="2">  1       21 0.21161364E-02 0.20594680E+02</pdfrwt>
<pdfrwt beam="1">  1        2 0.97511276E-02 0.20594680E+02</pdfrwt>
<totfact> 0.57797373E+06</totfact>
</mgrwt>
</event>
<event>
 4    1  0.2185255E+006  0.2237793E+02  0.7546771E-02  0.1701797E+00
         -2   -1    0    0    0  501 -0.00000000000E+00  0.00000000000E+00  0.50823066062E+03  0.50823066062E+03  0.00000000000E+00 0. -1.
         21   -1    0    0  501  502  0.00000000000E+00 -0.00000000000E+00 -0.45565661976E+01  0.45565661976E+01  0.00000000000E+00 0.  1.
         21    1    1    2  503  502 -0.17180564800E+02  0.14338755076E+02  0.24851590189E+02  0.33442087837E+02  0.00000000000E+00 0.  1.
         -2    1    1    2    0  503  0.17180564800E+02 -0.14338755076E+02  0.47882250423E+03  0.47934513898E+03  0.00000000000E+00 0. -1.
<mgrwt>
<rscale>  2 0.22377929E+02</rscale>
<asrwt>0</asrwt>
<pdfrwt beam="2">  1       21 0.70101059E-03 0.22377929E+02</pdfrwt>
<pdfrwt beam="1">  1       -2 0.78189288E-01 0.22377929E+02</pdfrwt>
<totfact> 0.57723377E+05</totfact>
</mgrwt>
</event>
<event>
 4    1  0.2185255E+006  0.2249777E+02  0.7546771E-02  0.1699783E+00
         21   -1    0    0  501  502  0.00000000000E+00  0.00000000000E+00  0.58449525681E+00  0.58449525681E+00  0.00000000000E+00 0. -1.
          1   -1    0    0  503    0 -0.00000000000E+00 -0.00000000000E+00 -0.12360020197E+04  0.12360020197E+04  0.00000000000E+00 0.  1.
         21    1    1    2  503  502 -0.16396560108E+02  0.15404627824E+02 -0.27940236392E+03  0.28030667261E+03  0.00000000000E+00 0. -1.
          1    1    1    2  501    0  0.16396560108E+02 -0.15404627824E+02 -0.95601516053E+03  0.95627984237E+03  0.00000000000E+00 0.  1.
<mgrwt>
<rscale>  2 0.22497772E+02</rscale>
<asrwt>0</asrwt>
<pdfrwt beam="1">  1       21 0.89921527E-04 0.22497772E+02</pdfrwt>
<pdfrwt beam="2">  1        1 0.19015589E+00 0.22497772E+02</pdfrwt>
<totfact> 0.13190407E+07</totfact>
</mgrwt>
</event>
<event>
 4    1  0.2185255E+006  0.2011062E+02  0.7546771E-02  0.1743137E+00
         21   -1    0    0  503  502  0.00000000000E+00  0.00000000000E+00  0.29516855409E+01  0.29516855409E+01  0.00000000000E+00 0.  1.
          2   -1    0    0  502    0 -0.00000000000E+00 -0.00000000000E+00 -0.88084328701E+03  0.88084328701E+03  0.00000000000E+00 0.  1.
         21    1    1    2  503  501  0.36468665252E+01  0.19777198662E+02 -0.32869763692E+02  0.38533862868E+02  0.00000000000E+00 0.  1.
          2    1    1    2  501    0 -0.36468665252E+01 -0.19777198662E+02 -0.84502183778E+03  0.84526110968E+03  0.00000000000E+00 0.  1.
<mgrwt>
<rscale>  2 0.20110625E+02</rscale>
<asrwt>0</asrwt>
<pdfrwt beam="1">  1       21 0.45410573E-03 0.20110625E+02</pdfrwt>
<pdfrwt beam="2">  1        2 0.13551427E+00 0.20110625E+02</pdfrwt>
<totfact> 0.36991973E+06</totfact>
</mgrwt>
</event>
<event>
 4    1  0.2185255E+006  0.7630634E+02  0.7546771E-02  0.1339873E+00
         -1   -1    0    0    0  501 -0.00000000000E+00  0.00000000000E+00  0.21590216126E+02  0.21590216126E+02  0.00000000000E+00 0. -1.
         21   -1    0    0  501  502  0.00000000000E+00 -0.00000000000E+00 -0.47420227685E+03  0.47420227685E+03  0.00000000000E+00 0.  1.
         21    1    1    2  503  502  0.73873754300E+02  0.19113519999E+02 -0.38910369772E+03  0.39651525292E+03  0.00000000000E+00 0.  1.
         -1    1    1    2    0  503 -0.73873754300E+02 -0.19113519999E+02 -0.63508363004E+02  0.99277240053E+02  0.00000000000E+00 0. -1.
<mgrwt>
<rscale>  2 0.76306345E+02</rscale>
<asrwt>0</asrwt>
<pdfrwt beam="2">  1       21 0.72954192E-01 0.76306345E+02</pdfrwt>
<pdfrwt beam="1">  1       -1 0.33215719E-02 0.76306345E+02</pdfrwt>
<totfact> 0.46945429E+04</totfact>
</mgrwt>
</event>
<event>
 4    1  0.2185255E+006  0.3291188E+02  0.7546771E-02  0.1567966E+00
          2   -1    0    0  502    0 -0.00000000000E+00  0.00000000000E+00  0.17791213416E+03  0.17791213416E+03  0.00000000000E+00 0.  1.
         21   -1    0    0  503  502  0.00000000000E+00 -0.00000000000E+00 -0.18812970730E+02  0.18812970730E+02  0.00000000000E+00 0. -1.
         21    1    1    2  503  501  0.25934322526E+02  0.20263334633E+02 -0.13457532961E+01  0.32939381708E+02  0.00000000000E+00 0. -1.
          2    1    1    2  501    0 -0.25934322526E+02 -0.20263334633E+02  0.16044491673E+03  0.16378572318E+03  0.00000000000E+00 0.  1.
<mgrwt>
<rscale>  2 0.32911880E+02</rscale>
<asrwt>0</asrwt>
<pdfrwt beam="2">  1       21 0.28943033E-02 0.32911880E+02</pdfrwt>
<pdfrwt beam="1">  1        2 0.27371096E-01 0.32911880E+02</pdfrwt>
<totfact> 0.12832370E+06</totfact>
</mgrwt>
</event>
<event>
 4    1  0.2185255E+006  0.2000782E+02  0.7546771E-02  0.1745173E+00
         21   -1    0    0  503  502  0.00000000000E+00  0.00000000000E+00  0.18151473179E+03  0.18151473179E+03  0.00000000000E+00 0. -1.
          1   -1    0    0  502    0 -0.00000000000E+00 -0.00000000000E+00 -0.74837910159E+01  0.74837910159E+01  0.00000000000E+00 0. -1.
         21    1    1    2  503  501 -0.19837324445E+02 -0.26063872202E+01  0.16637851931E+03  0.16757721917E+03  0.00000000000E+00 0. -1.
          1    1    1    2  501    0  0.19837324445E+02  0.26063872202E+01  0.76524214677E+01  0.21421303644E+02  0.00000000000E+00 0. -1.
<mgrwt>
<rscale>  2 0.20007816E+02</rscale>
<asrwt>0</asrwt>
<pdfrwt beam="1">  1       21 0.27925340E-01 0.20007816E+02</pdfrwt>
<pdfrwt beam="2">  1        1 0.11513526E-02 0.20007816E+02</pdfrwt>
<totfact> 0.11656612E+06</totfact>
</mgrwt>
</event>
<event>
 4    1  0.2185255E+006  0.2962049E+02  0.7546771E-02  0.1602322E+00
          2   -1    0    0  503    0 -0.00000000000E+00  0.00000000000E+00  0.36516732189E+03  0.36516732189E+03  0.00000000000E+00 0.  1.
         21   -1    0    0  501  502  0.00000000000E+00 -0.00000000000E+00 -0.24060589983E+01  0.24060589983E+01  0.00000000000E+00 0.  1.
         21    1    1    2  503  502 -0.26743685489E+02  0.12733763977E+02  0.17447439039E+03  0.17697086303E+03  0.00000000000E+00 0.  1.
          2    1    1    2  501    0  0.26743685489E+02 -0.12733763977E+02  0.18828687250E+03  0.19060251786E+03  0.00000000000E+00 0.  1.
<mgrwt>
<rscale>  2 0.29620491E+02</rscale>
<asrwt>0</asrwt>
<pdfrwt beam="2">  1       21 0.37016321E-03 0.29620491E+02</pdfrwt>
<pdfrwt beam="1">  1        2 0.56179544E-01 0.29620491E+02</pdfrwt>
<totfact> 0.13856398E+07</totfact>
</mgrwt>
</event>
<event>
 4    1  0.2185255E+006  0.2546198E+02  0.7546771E-02  0.1654454E+00
         21   -1    0    0  501  502  0.00000000000E+00  0.00000000000E+00  0.32910191602E+01  0.32910191602E+01  0.00000000000E+00 0. -1.
          1   -1    0    0  503    0 -0.00000000000E+00 -0.00000000000E+00 -0.92404422453E+03  0.92404422453E+03  0.00000000000E+00 0. -1.
         21    1    1    2  503  502  0.13054108729E+02 -0.21860982768E+02 -0.49091972136E+02  0.55302206561E+02  0.00000000000E+00 0. -1.
          1    1    1    2  501    0 -0.13054108729E+02  0.21860982768E+02 -0.87166123324E+03  0.87203303713E+03  0.00000000000E+00 0. -1.
<mgrwt>
<rscale>  2 0.25461978E+02</rscale>
<asrwt>0</asrwt>
<pdfrwt beam="1">  1       21 0.50630954E-03 0.25461978E+02</pdfrwt>
<pdfrwt beam="2">  1        1 0.14216096E+00 0.25461978E+02</pdfrwt>
<totfact> 0.17753170E+06</totfact>
</mgrwt>
</event>
<event>
 4    1  0.2185255E+006  0.2546444E+02  0.7546771E-02  0.1654419E+00
          1   -1    0    0  503    0 -0.00000000000E+00  0.00000000000E+00  0.97738580486E+03  0.97738580486E+03  0.00000000000E+00 0. -1.
         21   -1    0    0  501  502  0.00000000000E+00 -0.00000000000E+00 -0.72287670035E+00  0.72287670035E+00  0.00000000000E+00 0. -1.
         21    1    1    2  503  502  0.23802637397E+02 -0.90483254176E+01  0.34809886595E+03  0.34902902202E+03  0.00000000000E+00 0. -1.
          1    1    1    2  501    0 -0.23802637397E+02  0.90483254176E+01  0.62856406221E+03  0.62907965953E+03  0.00000000000E+00 0. -1.
<mgrwt>
<rscale>  2 0.25464441E+02</rscale>
<asrwt>0</asrwt>
<pdfrwt beam="2">  1       21 0.11121258E-03 0.25464441E+02</pdfrwt>
<pdfrwt beam="1">  1        1 0.15036599E+00 0.25464441E+02</pdfrwt>
<totfact> 0.14789676E+07</totfact>
</mgrwt>
</event>
<event>
 4    1  0.2185255E+006  0.3100003E+02  0.7546771E-02  0.1587291E+00
          2   -1    0    0  503    0 -0.00000000000E+00  0.00000000000E+00  0.20003996662E+04  0.20003996662E+04  0.00000000000E+00 0.  1.
         21   -1    0    0  501  502  0.00000000000E+00 -0.00000000000E+00 -0.80767982520E+00  0.80767982520E+00  0.00000000000E+00 0.  1.
         21    1    1    2  503  502  0.29273302253E+02 -0.10201745021E+02  0.36285553895E+03  0.36417735236E+03  0.00000000000E+00 0.  1.
          2    1    1    2  501    0 -0.29273302253E+02  0.10201745021E+02  0.16367364475E+04  0.16370299937E+04  0.00000000000E+00 0.  1.
<mgrwt>
<rscale>  2 0.31000029E+02</rscale>
<asrwt>0</asrwt>
<pdfrwt beam="2">  1       21 0.12426004E-03 0.31000029E+02</pdfrwt>
<pdfrwt beam="1">  1        2 0.30774983E+00 0.31000029E+02</pdfrwt>
<totfact> 0.74410339E+06</totfact>
</mgrwt>
</event>
<event>
 4    1  0.2185255E+006  0.2093788E+02  0.7546771E-02  0.1727296E+00
          2   -1    0    0  503    0 -0.00000000000E+00  0.00000000000E+00  0.13075725522E+04  0.13075725522E+04  0.00000000000E+00 0.  1.
         21   -1    0    0  501  502  0.00000000000E+00 -0.00000000000E+00 -0.13512037165E+01  0.13512037165E+01  0.00000000000E+00 0.  1.
         21    1    1    2  503  502  0.14454836252E+02  0.15147694067E+02  0.85623833018E+02  0.88146671561E+02  0.00000000000E+00 0.  1.
          2    1    1    2  501    0 -0.14454836252E+02 -0.15147694067E+02  0.12205975155E+04  0.12207770844E+04  0.00000000000E+00 0.  1.
<mgrwt>
<rscale>  2 0.20937883E+02</rscale>
<asrwt>0</asrwt>
<pdfrwt beam="2">  1       21 0.20787854E-03 0.20937883E+02</pdfrwt>
<pdfrwt beam="1">  1        2 0.20116400E+00 0.20937883E+02</pdfrwt>
<totfact> 0.69657430E+06</totfact>
</mgrwt>
</event>
<event>
 4    1  0.2185255E+006  0.2174744E+02  0.7546771E-02  0.1712657E+00
          4   -1    0    0  502    0 -0.00000000000E+00  0.00000000000E+00  0.27733686909E+01  0.27733686909E+01  0.00000000000E+00 0.  1.
         21   -1    0    0  503  502  0.00000000000E+00 -0.00000000000E+00 -0.26514766824E+03  0.26514766824E+03  0.00000000000E+00 0.  1.
         21    1    1    2  503  501 -0.19109190024E+02  0.10382201157E+02 -0.21120960094E+03  0.21232627433E+03  0.00000000000E+00 0.  1.
          4    1    1    2  501    0  0.19109190024E+02 -0.10382201157E+02 -0.51164698615E+02  0.55594762601E+02  0.00000000000E+00 0.  1.
<mgrwt>
<rscale>  2 0.21747442E+02</rscale>
<asrwt>0</asrwt>
<pdfrwt beam="2">  1       21 0.40791949E-01 0.21747442E+02</pdfrwt>
<pdfrwt beam="1">  1        4 0.42667210E-03 0.21747442E+02</pdfrwt>
<totfact> 0.14584263E+06</totfact>
</mgrwt>
</event>
<event>
 4    1  0.2185255E+006  0.2386473E+02  0.7546771E-02  0.1677865E+00
         21   -1    0    0  503  502  0.00000000000E+00  0.00000000000E+00  0.68398964380E+01  0.68398964380E+01  0.00000000000E+00 0. -1.
         -1   -1    0    0    0  501 -0.00000000000E+00 -0.00000000000E+00 -0.91712638538E+02  0.91712638538E+02  0.00000000000E+00 0.  1.
         21    1    1    2  503  501  0.16049846489E+02 -0.17661471436E+02 -0.27481368919E+02  0.36397126030E+02  0.00000000000E+00 0. -1.
         -1    1    1    2    0  502 -0.16049846489E+02  0.17661471436E+02 -0.57391373181E+02  0.62155408946E+02  0.00000000000E+00 0.  1.
<mgrwt>
<rscale>  2 0.23864726E+02</rscale>
<asrwt>0</asrwt>
<pdfrwt beam="1">  1       21 0.10522918E-02 0.23864726E+02</pdfrwt>
<pdfrwt beam="2">  1       -1 0.14109637E-01 0.23864726E+02</pdfrwt>
<totfact> 0.71350264E+06</totfact>
</mgrwt>
</event>
<event>
 4    1  0.2185255E+006  0.3164253E+02  0.7546771E-02  0.1580611E+00
         21   -1    0    0  501  502  0.00000000000E+00  0.00000000000E+00  0.43530249949E+01  0.43530249949E+01  0.00000000000E+00 0.  1.
         -2   -1    0    0    0  501 -0.00000000000E+00 -0.00000000000E+00 -0.36328917601E+03  0.36328917601E+03  0.00000000000E+00 0. -1.
         21    1    1    2  503  502 -0.31243909287E+02 -0.50067713160E+01 -0.68129308078E+02  0.75118920691E+02  0.00000000000E+00 0.  1.
         -2    1    1    2    0  503  0.31243909287E+02  0.50067713160E+01 -0.29080684293E+03  0.29252328031E+03  0.00000000000E+00 0. -1.
<mgrwt>
<rscale>  2 0.31642529E+02</rscale>
<asrwt>0</asrwt>
<pdfrwt beam="1">  1       21 0.66969626E-03 0.31642529E+02</pdfrwt>
<pdfrwt beam="2">  1       -2 0.55890634E-01 0.31642529E+02</pdfrwt>
<totfact> 0.13233330E+06</totfact>
</mgrwt>
</event>
<event>
 4    1  0.2185255E+006  0.2042037E+02  0.7546771E-02  0.1737096E+00
         21   -1    0    0  503  502  0.00000000000E+00  0.00000000000E+00  0.29221602559E+00  0.29221602559E+00  0.00000000000E+00 0. -1.
          2   -1    0    0  502    0 -0.00000000000E+00 -0.00000000000E+00 -0.17922278090E+04  0.17922278090E+04  0.00000000000E+00 0.  1.
         21    1    1    2  503  501  0.16308952855E+02 -0.12288587141E+02 -0.49137209061E+03  0.49179622076E+03  0.00000000000E+00 0. -1.
          2    1    1    2  501    0 -0.16308952855E+02  0.12288587141E+02 -0.13005635023E+04  0.13007238042E+04  0.00000000000E+00 0.  1.
<mgrwt>
<rscale>  2 0.20420365E+02</rscale>
<asrwt>0</asrwt>
<pdfrwt beam="1">  1       21 0.44956030E-04 0.20420365E+02</pdfrwt>
<pdfrwt beam="2">  1        2 0.27572908E+00 0.20420365E+02</pdfrwt>
<totfact> 0.36065504E+07</totfact>
</mgrwt>
</event>
<event>
 4    1  0.2185255E+006  0.2288623E+02  0.7546771E-02  0.1693361E+00
         21   -1    0    0  503  502  0.00000000000E+00  0.00000000000E+00  0.86729282652E+00  0.86729282652E+00  0.00000000000E+00 0. -1.
          2   -1    0    0  502    0 -0.00000000000E+00 -0.00000000000E+00 -0.68878546336E+03  0.68878546336E+03  0.00000000000E+00 0. -1.
         21    1    1    2  503  501 -0.21419461389E+02 -0.80613897794E+01 -0.22292362224E+03  0.22409533838E+03  0.00000000000E+00 0. -1.
          2    1    1    2  501    0  0.21419461389E+02  0.80613897794E+01 -0.46499454829E+03  0.46555741781E+03  0.00000000000E+00 0. -1.
<mgrwt>
<rscale>  2 0.22886226E+02</rscale>
<asrwt>0</asrwt>
<pdfrwt beam="1">  1       21 0.13342895E-03 0.22886226E+02</pdfrwt>
<pdfrwt beam="2">  1        2 0.10596757E+00 0.22886226E+02</pdfrwt>
<totfact> 0.29671970E+07</totfact>
</mgrwt>
</event>
<event>
 4    1  0.2185255E+006  0.2242691E+02  0.7546771E-02  0.1700972E+00
         21   -1    0    0  501  502  0.00000000000E+00  0.00000000000E+00  0.84417927502E+00  0.84417927502E+00  0.00000000000E+00 0. -1.
          2   -1    0    0  503    0 -0.00000000000E+00 -0.00000000000E+00 -0.13039047403E+04  0.13039047403E+04  0.00000000000E+00 0. -1.
         21    1    1    2  503  502 -0.20991068680E+02 -0.78956628444E+01 -0.17077821963E+03  0.17224449703E+03  0.00000000000E+00 0. -1.
          2    1    1    2  501    0  0.20991068680E+02  0.78956628444E+01 -0.11322823414E+04  0.11325044226E+04  0.00000000000E+00 0. -1.
<mgrwt>
<rscale>  2 0.22426914E+02</rscale>
<asrwt>0</asrwt>
<pdfrwt beam="1">  1       21 0.12987344E-03 0.22426914E+02</pdfrwt>
<pdfrwt beam="2">  1        2 0.20060118E+00 0.22426914E+02</pdfrwt>
<totfact> 0.13964530E+07</totfact>
</mgrwt>
</event>
<event>
 4    1  0.2185255E+006  0.2313879E+02  0.7546771E-02  0.1689270E+00
         21   -1    0    0  503  502  0.00000000000E+00  0.00000000000E+00  0.15840874820E+02  0.15840874820E+02  0.00000000000E+00 0. -1.
          1   -1    0    0  502    0 -0.00000000000E+00 -0.00000000000E+00 -0.61899399408E+02  0.61899399408E+02  0.00000000000E+00 0. -1.
         21    1    1    2  503  501 -0.44950143738E+01  0.22697983414E+02  0.31604143856E+01  0.23353625508E+02  0.00000000000E+00 0. -1.
          1    1    1    2  501    0  0.44950143738E+01 -0.22697983414E+02 -0.49218938974E+02  0.54386648720E+02  0.00000000000E+00 0. -1.
<mgrwt>
<rscale>  2 0.23138790E+02</rscale>
<asrwt>0</asrwt>
<pdfrwt beam="1">  1       21 0.24370577E-02 0.23138790E+02</pdfrwt>
<pdfrwt beam="2">  1        1 0.95229844E-02 0.23138790E+02</pdfrwt>
<totfact> 0.43619315E+06</totfact>
</mgrwt>
</event>
<event>
 4    1  0.2185255E+006  0.2469576E+02  0.7546771E-02  0.1665411E+00
          1   -1    0    0  503    0 -0.00000000000E+00  0.00000000000E+00  0.16939622151E+04  0.16939622151E+04  0.00000000000E+00 0. -1.
         21   -1    0    0  501  502  0.00000000000E+00 -0.00000000000E+00 -0.22791113667E+01  0.22791113667E+01  0.00000000000E+00 0.  1.
         21    1    1    2  503  502 -0.24332596406E+02 -0.42196138028E+01  0.67587566776E+02  0.71958040351E+02  0.00000000000E+00 0.  1.
          1    1    1    2  501    0  0.24332596406E+02  0.42196138028E+01  0.16240955369E+04  0.16242832861E+04  0.00000000000E+00 0. -1.
<mgrwt>
<rscale>  2 0.24695756E+02</rscale>
<asrwt>0</asrwt>
<pdfrwt beam="2">  1       21 0.35063387E-03 0.24695756E+02</pdfrwt>
<pdfrwt beam="1">  1        1 0.26060856E+00 0.24695756E+02</pdfrwt>
<totfact> 0.99958959E+05</totfact>
</mgrwt>
</event>
<event>
 4    1  0.2185255E+006  0.3657128E+02  0.7546771E-02  0.1535074E+00
          4   -1    0    0  503    0 -0.00000000000E+00  0.00000000000E+00  0.18361222157E+02  0.18361222157E+02  0.00000000000E+00 0.  1.
         21   -1    0    0  501  502  0.00000000000E+00 -0.00000000000E+00 -0.75865641828E+02  0.75865641828E+02  0.00000000000E+00 0.  1.
         21    1    1    2  503  502 -0.29523645281E+02  0.21582700303E+02 -0.38158637924E+02  0.52853951899E+02  0.00000000000E+00 0.  1.
          4    1    1    2  501    0  0.29523645281E+02 -0.21582700303E+02 -0.19345781747E+02  0.41372912086E+02  0.00000000000E+00 0.  1.
<mgrwt>
<rscale>  2 0.36571281E+02</rscale>
<asrwt>0</asrwt>
<pdfrwt beam="2">  1       21 0.11671637E-01 0.36571281E+02</pdfrwt>
<pdfrwt beam="1">  1        4 0.28248034E-02 0.36571281E+02</pdfrwt>
<totfact> 0.10443656E+06</totfact>
</mgrwt>
</event>
<event>
 4    1  0.2185255E+006  0.3754255E+02  0.7546771E-02  0.1527116E+00
          2   -1    0    0  502    0 -0.00000000000E+00  0.00000000000E+00  0.61278763675E+03  0.61278763675E+03  0.00000000000E+00 0. -1.
         21   -1    0    0  503  502  0.00000000000E+00 -0.00000000000E+00 -0.45680280444E+01  0.45680280444E+01  0.00000000000E+00 0. -1.
         21    1    1    2  503  501 -0.29506083854E+02  0.23212796648E+02  0.86609247406E+02  0.94395999115E+02  0.00000000000E+00 0. -1.
          2    1    1    2  501    0  0.29506083854E+02 -0.23212796648E+02  0.52161036130E+03  0.52295966568E+03  0.00000000000E+00 0. -1.
<mgrwt>
<rscale>  2 0.37542548E+02</rscale>
<asrwt>0</asrwt>
<pdfrwt beam="2">  1       21 0.70277403E-03 0.37542548E+02</pdfrwt>
<pdfrwt beam="1">  1        2 0.94274956E-01 0.37542548E+02</pdfrwt>
<totfact> 0.32873950E+06</totfact>
</mgrwt>
</event>
<event>
 4    1  0.2185255E+006  0.2586624E+02  0.7546771E-02  0.1648863E+00
         -4   -1    0    0    0  501 -0.00000000000E+00  0.00000000000E+00  0.13483186457E+03  0.13483186457E+03  0.00000000000E+00 0. -1.
         21   -1    0    0  501  502  0.00000000000E+00 -0.00000000000E+00 -0.22406563754E+02  0.22406563754E+02  0.00000000000E+00 0. -1.
         21    1    1    2  503  502 -0.18973359293E+02  0.17580505441E+02 -0.13156863216E+02  0.29020089319E+02  0.00000000000E+00 0. -1.
         -4    1    1    2    0  503  0.18973359293E+02 -0.17580505441E+02  0.12558216403E+03  0.12821833901E+03  0.00000000000E+00 0. -1.
<mgrwt>
<rscale>  2 0.25866243E+02</rscale>
<asrwt>0</asrwt>
<pdfrwt beam="2">  1       21 0.34471637E-02 0.25866243E+02</pdfrwt>
<pdfrwt beam="1">  1       -4 0.20743363E-01 0.25866243E+02</pdfrwt>
<totfact> 0.27918692E+05</totfact>
</mgrwt>
</event>
<event>
 4    1  0.2185255E+006  0.2331079E+02  0.7546771E-02  0.1686521E+00
         21   -1    0    0  503  502  0.00000000000E+00  0.00000000000E+00  0.35305913654E+02  0.35305913654E+02  0.00000000000E+00 0. -1.
          2   -1    0    0  502    0 -0.00000000000E+00 -0.00000000000E+00 -0.22765892449E+02  0.22765892449E+02  0.00000000000E+00 0. -1.
         21    1    1    2  503  501  0.20158756165E+02  0.11705449318E+02  0.22796138629E+02  0.32604553827E+02  0.00000000000E+00 0. -1.
          2    1    1    2  501    0 -0.20158756165E+02 -0.11705449318E+02 -0.10256117425E+02  0.25467252276E+02  0.00000000000E+00 0. -1.
<mgrwt>
<rscale>  2 0.23310791E+02</rscale>
<asrwt>0</asrwt>
<pdfrwt beam="1">  1       21 0.54316790E-02 0.23310791E+02</pdfrwt>
<pdfrwt beam="2">  1        2 0.35024450E-02 0.23310791E+02</pdfrwt>
<totfact> 0.47074761E+06</totfact>
</mgrwt>
</event>
<event>
 4    1  0.2185255E+006  0.2000516E+02  0.7546771E-02  0.1745225E+00
         21   -1    0    0  503  502  0.00000000000E+00  0.00000000000E+00  0.36641239530E+03  0.36641239530E+03  0.00000000000E+00 0.  1.
          4   -1    0    0  502    0 -0.00000000000E+00 -0.00000000000E+00 -0.11337516501E+01  0.11337516501E+01  0.00000000000E+00 0.  1.
         21    1    1    2  503  501  0.13705611042E+02 -0.14572673200E+02  0.21780837496E+03  0.21872515809E+03  0.00000000000E+00 0.  1.
          4    1    1    2  501    0 -0.13705611042E+02  0.14572673200E+02  0.14747026869E+03  0.14882098886E+03  0.00000000000E+00 0.  1.
<mgrwt>
<rscale>  2 0.20005164E+02</rscale>
<asrwt>0</asrwt>
<pdfrwt beam="1">  1       21 0.56371043E-01 0.20005164E+02</pdfrwt>
<pdfrwt beam="2">  1        4 0.17442362E-03 0.20005164E+02</pdfrwt>
<totfact> 0.26287390E+06</totfact>
</mgrwt>
</event>
<event>
 4    1  0.2185255E+006  0.2760027E+02  0.7546771E-02  0.1626237E+00
          2   -1    0    0  502    0 -0.00000000000E+00  0.00000000000E+00  0.22077161318E+04  0.22077161318E+04  0.00000000000E+00 0.  1.
         21   -1    0    0  503  502  0.00000000000E+00 -0.00000000000E+00 -0.59000107452E+00  0.59000107452E+00  0.00000000000E+00 0. -1.
         21    1    1    2  503  501  0.21111019048E+02  0.17779187496E+02  0.39211749466E+03  0.39308765467E+03  0.00000000000E+00 0. -1.
          2    1    1    2  501    0 -0.21111019048E+02 -0.17779187496E+02  0.18150086361E+04  0.18152184782E+04  0.00000000000E+00 0.  1.
<mgrwt>
<rscale>  2 0.27600265E+02</rscale>
<asrwt>0</asrwt>
<pdfrwt beam="2">  1       21 0.90771163E-04 0.27600265E+02</pdfrwt>
<pdfrwt beam="1">  1        2 0.33964202E+00 0.27600265E+02</pdfrwt>
<totfact> 0.91250204E+06</totfact>
</mgrwt>
</event>
<event>
 4    1  0.2185255E+006  0.2833122E+02  0.7546771E-02  0.1617303E+00
          2   -1    0    0  503    0 -0.00000000000E+00  0.00000000000E+00  0.24564803351E+03  0.24564803351E+03  0.00000000000E+00 0.  1.
         21   -1    0    0  501  502  0.00000000000E+00 -0.00000000000E+00 -0.38446923783E+01  0.38446923783E+01  0.00000000000E+00 0. -1.
         21    1    1    2  503  502 -0.93211644392E+01  0.26753951890E+02  0.72567681219E+02  0.77902030819E+02  0.00000000000E+00 0. -1.
          2    1    1    2  501    0  0.93211644392E+01 -0.26753951890E+02  0.16923565991E+03  0.17159069507E+03  0.00000000000E+00 0.  1.
<mgrwt>
<rscale>  2 0.28331220E+02</rscale>
<asrwt>0</asrwt>
<pdfrwt beam="2">  1       21 0.59149133E-03 0.28331220E+02</pdfrwt>
<pdfrwt beam="1">  1        2 0.37791993E-01 0.28331220E+02</pdfrwt>
<totfact> 0.10149692E+07</totfact>
</mgrwt>
</event>
<event>
 4    1  0.2185255E+006  0.2809869E+02  0.7546771E-02  0.1620109E+00
         21   -1    0    0  501  502  0.00000000000E+00  0.00000000000E+00  0.75591222366E+02  0.75591222366E+02  0.00000000000E+00 0. -1.
          2   -1    0    0  503    0 -0.00000000000E+00 -0.00000000000E+00 -0.17751666485E+04  0.17751666485E+04  0.00000000000E+00 0. -1.
         21    1    1    2  503  502  0.18995218325E+01  0.28034409052E+02  0.72864810593E+02  0.78094922350E+02  0.00000000000E+00 0. -1.
          2    1    1    2  501    0 -0.18995218325E+01 -0.28034409052E+02 -0.17724402367E+04  0.17726629485E+04  0.00000000000E+00 0. -1.
<mgrwt>
<rscale>  2 0.28098688E+02</rscale>
<asrwt>0</asrwt>
<pdfrwt beam="1">  1       21 0.11629420E-01 0.28098688E+02</pdfrwt>
<pdfrwt beam="2">  1        2 0.27310254E+00 0.28098688E+02</pdfrwt>
<totfact> 0.88768423E+03</totfact>
</mgrwt>
</event>
<event>
 4    1  0.2185255E+006  0.2811018E+02  0.7546771E-02  0.1619969E+00
          2   -1    0    0  503    0 -0.00000000000E+00  0.00000000000E+00  0.72137917568E+03  0.72137917568E+03  0.00000000000E+00 0.  1.
         21   -1    0    0  501  502  0.00000000000E+00 -0.00000000000E+00 -0.80397154219E+01  0.80397154219E+01  0.00000000000E+00 0. -1.
         21    1    1    2  503  502 -0.39641704372E+01  0.27829260366E+02  0.17714685401E+02  0.33226381967E+02  0.00000000000E+00 0. -1.
          2    1    1    2  501    0  0.39641704372E+01 -0.27829260366E+02  0.69562477485E+03  0.69619250913E+03  0.00000000000E+00 0.  1.
<mgrwt>
<rscale>  2 0.28110183E+02</rscale>
<asrwt>0</asrwt>
<pdfrwt beam="2">  1       21 0.12368799E-02 0.28110183E+02</pdfrwt>
<pdfrwt beam="1">  1        2 0.11098136E+00 0.28110183E+02</pdfrwt>
<totfact> 0.11112019E+06</totfact>
</mgrwt>
</event>
<event>
 4    1  0.2185255E+006  0.2490682E+02  0.7546771E-02  0.1662344E+00
         21   -1    0    0  503  502  0.00000000000E+00  0.00000000000E+00  0.97069805990E+01  0.97069805990E+01  0.00000000000E+00 0.  1.
          2   -1    0    0  502    0 -0.00000000000E+00 -0.00000000000E+00 -0.21702228697E+03  0.21702228697E+03  0.00000000000E+00 0.  1.
         21    1    1    2  503  501  0.20614082925E+02  0.13978887951E+02 -0.84364065308E+01  0.26296818787E+02  0.00000000000E+00 0.  1.
          2    1    1    2  501    0 -0.20614082925E+02 -0.13978887951E+02 -0.19887889984E+03  0.20043244879E+03  0.00000000000E+00 0.  1.
<mgrwt>
<rscale>  2 0.24906821E+02</rscale>
<asrwt>0</asrwt>
<pdfrwt beam="1">  1       21 0.14933818E-02 0.24906821E+02</pdfrwt>
<pdfrwt beam="2">  1        2 0.33388040E-01 0.24906821E+02</pdfrwt>
<totfact> 0.27591324E+06</totfact>
</mgrwt>
</event>
<event>
 4    1  0.2185255E+006  0.2697948E+02  0.7546771E-02  0.1634097E+00
          2   -1    0    0  502    0 -0.00000000000E+00  0.00000000000E+00  0.62202488218E+03  0.62202488218E+03  0.00000000000E+00 0. -1.
         21   -1    0    0  503  502  0.00000000000E+00 -0.00000000000E+00 -0.17551384949E+01  0.17551384949E+01  0.00000000000E+00 0.  1.
         21    1    1    2  503  501  0.13161795329E+02 -0.23551206337E+02  0.13008132913E+03  0.13284970593E+03  0.00000000000E+00 0.  1.
          2    1    1    2  501    0 -0.13161795329E+02  0.23551206337E+02  0.49018841456E+03  0.49093031475E+03  0.00000000000E+00 0. -1.
<mgrwt>
<rscale>  2 0.26979477E+02</rscale>
<asrwt>0</asrwt>
<pdfrwt beam="2">  1       21 0.27002180E-03 0.26979477E+02</pdfrwt>
<pdfrwt beam="1">  1        2 0.95695960E-01 0.26979477E+02</pdfrwt>
<totfact> 0.12488551E+07</totfact>
</mgrwt>
</event>
<event>
 4    1  0.2185255E+006  0.2879272E+02  0.7546771E-02  0.1611830E+00
          2   -1    0    0  503    0 -0.00000000000E+00  0.00000000000E+00  0.10528596138E+04  0.10528596138E+04  0.00000000000E+00 0.  1.
         21   -1    0    0  501  502  0.00000000000E+00 -0.00000000000E+00 -0.13109298134E+01  0.13109298134E+01  0.00000000000E+00 0.  1.
         21    1    1    2  503  502  0.20457261024E+00  0.28791993986E+02  0.19268386110E+03  0.19482323038E+03  0.00000000000E+00 0.  1.
          2    1    1    2  501    0 -0.20457261024E+00 -0.28791993986E+02  0.85886482291E+03  0.85934731325E+03  0.00000000000E+00 0.  1.
<mgrwt>
<rscale>  2 0.28792721E+02</rscale>
<asrwt>0</asrwt>
<pdfrwt beam="2">  1       21 0.20168235E-03 0.28792721E+02</pdfrwt>
<pdfrwt beam="1">  1        2 0.16197773E+00 0.28792721E+02</pdfrwt>
<totfact> 0.10531267E+07</totfact>
</mgrwt>
</event>
<event>
 4    1  0.2185255E+006  0.3810081E+02  0.7546771E-02  0.1522671E+00
         -2   -1    0    0    0  501 -0.00000000000E+00  0.00000000000E+00  0.75498911471E+01  0.75498911471E+01  0.00000000000E+00 0. -1.
         21   -1    0    0  503  502  0.00000000000E+00 -0.00000000000E+00 -0.25850366606E+03  0.25850366606E+03  0.00000000000E+00 0. -1.
         21    1    1    2  503  501 -0.20383745328E+02 -0.32189672493E+02 -0.19280887626E+03  0.19653736249E+03  0.00000000000E+00 0. -1.
         -2    1    1    2    0  502  0.20383745328E+02  0.32189672493E+02 -0.58144898645E+02  0.69516194712E+02  0.00000000000E+00 0. -1.
<mgrwt>
<rscale>  2 0.38100815E+02</rscale>
<asrwt>0</asrwt>
<pdfrwt beam="2">  1       21 0.39769797E-01 0.38100815E+02</pdfrwt>
<pdfrwt beam="1">  1       -2 0.11615216E-02 0.38100815E+02</pdfrwt>
<totfact> 0.65421215E+05</totfact>
</mgrwt>
</event>
<event>
 4    1  0.2185255E+006  0.2396023E+02  0.7546771E-02  0.1676402E+00
          1   -1    0    0  502    0 -0.00000000000E+00  0.00000000000E+00  0.40372440866E+01  0.40372440866E+01  0.00000000000E+00 0.  1.
         21   -1    0    0  503  502  0.00000000000E+00 -0.00000000000E+00 -0.93923903027E+03  0.93923903027E+03  0.00000000000E+00 0. -1.
         21    1    1    2  503  501  0.66452635239E+01  0.23020277991E+02 -0.90207197197E+03  0.90239012370E+03  0.00000000000E+00 0. -1.
          1    1    1    2  501    0 -0.66452635239E+01 -0.23020277991E+02 -0.33129814206E+02  0.40886150655E+02  0.00000000000E+00 0.  1.
<mgrwt>
<rscale>  2 0.23960232E+02</rscale>
<asrwt>0</asrwt>
<pdfrwt beam="2">  1       21 0.14449839E+00 0.23960232E+02</pdfrwt>
<pdfrwt beam="1">  1        1 0.62111416E-03 0.23960232E+02</pdfrwt>
<totfact> 0.95926633E+04</totfact>
</mgrwt>
</event>
<event>
 4    1  0.2185255E+006  0.2729701E+02  0.7546771E-02  0.1630044E+00
         21   -1    0    0  503  502  0.00000000000E+00  0.00000000000E+00  0.45160232584E+03  0.45160232584E+03  0.00000000000E+00 0.  1.
         -4   -1    0    0    0  501 -0.00000000000E+00 -0.00000000000E+00 -0.22943639681E+01  0.22943639681E+01  0.00000000000E+00 0. -1.
         21    1    1    2  503  501  0.41684468330E+01 -0.26976859966E+02  0.34492863284E+03  0.34600706449E+03  0.00000000000E+00 0.  1.
         -4    1    1    2    0  502 -0.41684468330E+01  0.26976859966E+02  0.10437932903E+03  0.10788962532E+03  0.00000000000E+00 0. -1.
<mgrwt>
<rscale>  2 0.27297013E+02</rscale>
<asrwt>0</asrwt>
<pdfrwt beam="1">  1       21 0.69477210E-01 0.27297013E+02</pdfrwt>
<pdfrwt beam="2">  1       -4 0.35297943E-03 0.27297013E+02</pdfrwt>
<totfact> 0.72572942E+05</totfact>
</mgrwt>
</event>
<event>
 4    1  0.2185255E+006  0.2160500E+02  0.7546771E-02  0.1715174E+00
         21   -1    0    0  503  502  0.00000000000E+00  0.00000000000E+00  0.79918590482E+01  0.79918590482E+01  0.00000000000E+00 0.  1.
          2   -1    0    0  502    0 -0.00000000000E+00 -0.00000000000E+00 -0.22158965979E+03  0.22158965979E+03  0.00000000000E+00 0. -1.
         21    1    1    2  503  501 -0.30937474644E+01  0.21382346520E+02 -0.82912555088E+01  0.23141325243E+02  0.00000000000E+00 0.  1.
          2    1    1    2  501    0  0.30937474644E+01 -0.21382346520E+02 -0.20530654523E+03  0.20644019359E+03  0.00000000000E+00 0. -1.
<mgrwt>
<rscale>  2 0.21605000E+02</rscale>
<asrwt>0</asrwt>
<pdfrwt beam="1">  1       21 0.12295169E-02 0.21605000E+02</pdfrwt>
<pdfrwt beam="2">  1        2 0.34090713E-01 0.21605000E+02</pdfrwt>
<totfact> 0.35052518E+06</totfact>
</mgrwt>
</event>
<event>
 4    1  0.2185255E+006  0.2111620E+02  0.7546771E-02  0.1724001E+00
         21   -1    0    0  503  502  0.00000000000E+00  0.00000000000E+00  0.12491868975E+02  0.12491868975E+02  0.00000000000E+00 0. -1.
         -1   -1    0    0    0  501 -0.00000000000E+00 -0.00000000000E+00 -0.83097015196E+02  0.83097015196E+02  0.00000000000E+00 0. -1.
         21    1    1    2  503  501  0.72057424433E+01 -0.19848706715E+02  0.79552545859E+00  0.21131179408E+02  0.00000000000E+00 0. -1.
         -1    1    1    2    0  502 -0.72057424433E+01  0.19848706715E+02 -0.71400671679E+02  0.74457704763E+02  0.00000000000E+00 0. -1.
<mgrwt>
<rscale>  2 0.21116200E+02</rscale>
<asrwt>0</asrwt>
<pdfrwt beam="1">  1       21 0.19218259E-02 0.21116200E+02</pdfrwt>
<pdfrwt beam="2">  1       -1 0.12784157E-01 0.21116200E+02</pdfrwt>
<totfact> 0.31917259E+06</totfact>
</mgrwt>
</event>
<event>
 4    1  0.2185255E+006  0.3488526E+02  0.7546771E-02  0.1549622E+00
         21   -1    0    0  503  502  0.00000000000E+00  0.00000000000E+00  0.16726798031E+03  0.16726798031E+03  0.00000000000E+00 0. -1.
          1   -1    0    0  502    0 -0.00000000000E+00 -0.00000000000E+00 -0.78029192172E+02  0.78029192172E+02  0.00000000000E+00 0.  1.
         21    1    1    2  503  501  0.18894209357E+02  0.29325588948E+02  0.16141005623E+03  0.16513687525E+03  0.00000000000E+00 0. -1.
          1    1    1    2  501    0 -0.18894209357E+02 -0.29325588948E+02 -0.72171268093E+02  0.80160297234E+02  0.00000000000E+00 0.  1.
<mgrwt>
<rscale>  2 0.34885259E+02</rscale>
<asrwt>0</asrwt>
<pdfrwt beam="1">  1       21 0.25733535E-01 0.34885259E+02</pdfrwt>
<pdfrwt beam="2">  1        1 0.12004491E-01 0.34885259E+02</pdfrwt>
<totfact> 0.70697604E+04</totfact>
</mgrwt>
</event>
<event>
 4    1  0.2185255E+006  0.2494456E+02  0.7546771E-02  0.1661800E+00
         21   -1    0    0  501  502  0.00000000000E+00  0.00000000000E+00  0.41919511083E+02  0.41919511083E+02  0.00000000000E+00 0. -1.
          3   -1    0    0  503    0 -0.00000000000E+00 -0.00000000000E+00 -0.18694349890E+02  0.18694349890E+02  0.00000000000E+00 0.  1.
         21    1    1    2  503  502 -0.18918519699E+02 -0.16257936250E+02  0.25367781125E+02  0.35577453505E+02  0.00000000000E+00 0. -1.
          3    1    1    2  501    0  0.18918519699E+02  0.16257936250E+02 -0.21426199316E+01  0.25036407467E+02  0.00000000000E+00 0.  1.
<mgrwt>
<rscale>  2 0.24944556E+02</rscale>
<asrwt>0</asrwt>
<pdfrwt beam="1">  1       21 0.64491555E-02 0.24944556E+02</pdfrwt>
<pdfrwt beam="2">  1        3 0.28760538E-02 0.24944556E+02</pdfrwt>
<totfact> 0.27600787E+06</totfact>
</mgrwt>
</event>
<event>
 4    1  0.2185255E+006  0.2390665E+02  0.7546771E-02  0.1677222E+00
         21   -1    0    0  503  502  0.00000000000E+00  0.00000000000E+00  0.10111506727E+03  0.10111506727E+03  0.00000000000E+00 0. -1.
          2   -1    0    0  502    0 -0.00000000000E+00 -0.00000000000E+00 -0.18080803932E+03  0.18080803932E+03  0.00000000000E+00 0.  1.
         21    1    1    2  503  501 -0.13975075288E+02  0.19396521081E+02  0.98894269468E+02  0.10174283411E+03  0.00000000000E+00 0. -1.
          2    1    1    2  501    0  0.13975075288E+02 -0.19396521081E+02 -0.17858724152E+03  0.18018027249E+03  0.00000000000E+00 0.  1.
<mgrwt>
<rscale>  2 0.23906647E+02</rscale>
<asrwt>0</asrwt>
<pdfrwt beam="1">  1       21 0.15556164E-01 0.23906647E+02</pdfrwt>
<pdfrwt beam="2">  1        2 0.27816621E-01 0.23906647E+02</pdfrwt>
<totfact> 0.77450391E+04</totfact>
</mgrwt>
</event>
<event>
 4    1  0.2185255E+006  0.2541094E+02  0.7546771E-02  0.1655169E+00
          1   -1    0    0  503    0 -0.00000000000E+00  0.00000000000E+00  0.16789164202E+04  0.16789164202E+04  0.00000000000E+00 0. -1.
         21   -1    0    0  501  502  0.00000000000E+00 -0.00000000000E+00 -0.40834522977E+00  0.40834522977E+00  0.00000000000E+00 0. -1.
         21    1    1    2  503  502 -0.21778133111E+02 -0.13093088105E+02  0.63678757760E+03  0.63729438647E+03  0.00000000000E+00 0. -1.
          1    1    1    2  501    0  0.21778133111E+02  0.13093088105E+02  0.10417204974E+04  0.10420303790E+04  0.00000000000E+00 0. -1.
<mgrwt>
<rscale>  2 0.25410943E+02</rscale>
<asrwt>0</asrwt>
<pdfrwt beam="2">  1       21 0.62823687E-04 0.25410943E+02</pdfrwt>
<pdfrwt beam="1">  1        1 0.25828931E+00 0.25410943E+02</pdfrwt>
<totfact> 0.12190125E+07</totfact>
</mgrwt>
</event>
<event>
 4    1  0.2185255E+006  0.2420559E+02  0.7546771E-02  0.1672682E+00
          1   -1    0    0  503    0 -0.00000000000E+00  0.00000000000E+00  0.77321669728E+03  0.77321669728E+03  0.00000000000E+00 0. -1.
         21   -1    0    0  501  502  0.00000000000E+00 -0.00000000000E+00 -0.76293986746E+00  0.76293986746E+00  0.00000000000E+00 0. -1.
         21    1    1    2  503  502 -0.22147413984E+02 -0.97674331701E+01  0.35433196404E+03  0.35515778386E+03  0.00000000000E+00 0. -1.
          1    1    1    2  501    0  0.22147413984E+02  0.97674331701E+01  0.41812179338E+03  0.41882185329E+03  0.00000000000E+00 0. -1.
<mgrwt>
<rscale>  2 0.24205592E+02</rscale>
<asrwt>0</asrwt>
<pdfrwt beam="2">  1       21 0.11737598E-03 0.24205592E+02</pdfrwt>
<pdfrwt beam="1">  1        1 0.11895579E+00 0.24205592E+02</pdfrwt>
<totfact> 0.18965644E+07</totfact>
</mgrwt>
</event>
<event>
 4    1  0.2185255E+006  0.2836351E+02  0.7546771E-02  0.1616916E+00
          1   -1    0    0  503    0 -0.00000000000E+00  0.00000000000E+00  0.70217798406E+02  0.70217798406E+02  0.00000000000E+00 0.  1.
         21   -1    0    0  501  502  0.00000000000E+00 -0.00000000000E+00 -0.12282463460E+02  0.12282463460E+02  0.00000000000E+00 0. -1.
         21    1    1    2  503  502 -0.28231016699E+02  0.27383430333E+01  0.18274204567E+02  0.33740708039E+02  0.00000000000E+00 0. -1.
          1    1    1    2  501    0  0.28231016699E+02 -0.27383430333E+01  0.39661130379E+02  0.48759553827E+02  0.00000000000E+00 0.  1.
<mgrwt>
<rscale>  2 0.28363512E+02</rscale>
<asrwt>0</asrwt>
<pdfrwt beam="2">  1       21 0.18896098E-02 0.28363512E+02</pdfrwt>
<pdfrwt beam="1">  1        1 0.10802738E-01 0.28363512E+02</pdfrwt>
<totfact> 0.58261953E+06</totfact>
</mgrwt>
</event>
<event>
 4    1  0.2185255E+006  0.3770034E+02  0.7546771E-02  0.1525850E+00
         21   -1    0    0  501  502  0.00000000000E+00  0.00000000000E+00  0.12338680678E+03  0.12338680678E+03  0.00000000000E+00 0. -1.
          2   -1    0    0  503    0 -0.00000000000E+00 -0.00000000000E+00 -0.34967649280E+02  0.34967649280E+02  0.00000000000E+00 0.  1.
         21    1    1    2  503  502  0.25292114155E+02 -0.27957550370E+02  0.10904678017E+03  0.11537987661E+03  0.00000000000E+00 0. -1.
          2    1    1    2  501    0 -0.25292114155E+02  0.27957550370E+02 -0.20627622676E+02  0.42974579444E+02  0.00000000000E+00 0.  1.
<mgrwt>
<rscale>  2 0.37700340E+02</rscale>
<asrwt>0</asrwt>
<pdfrwt beam="1">  1       21 0.18982585E-01 0.37700340E+02</pdfrwt>
<pdfrwt beam="2">  1        2 0.53796384E-02 0.37700340E+02</pdfrwt>
<totfact> 0.37260786E+05</totfact>
</mgrwt>
</event>
<event>
 4    1  0.2185255E+006  0.2826572E+02  0.7546771E-02  0.1618090E+00
         -2   -1    0    0    0  501 -0.00000000000E+00  0.00000000000E+00  0.15459968175E+03  0.15459968175E+03  0.00000000000E+00 0. -1.
         21   -1    0    0  503  502  0.00000000000E+00 -0.00000000000E+00 -0.13590810203E+03  0.13590810203E+03  0.00000000000E+00 0.  1.
         21    1    1    2  503  501 -0.26520767833E+02 -0.97775124881E+01 -0.13311971827E+03  0.13608750960E+03  0.00000000000E+00 0.  1.
         -2    1    1    2    0  502  0.26520767833E+02  0.97775124881E+01  0.15181129799E+03  0.15442027417E+03  0.00000000000E+00 0. -1.
<mgrwt>
<rscale>  2 0.28265719E+02</rscale>
<asrwt>0</asrwt>
<pdfrwt beam="2">  1       21 0.20908939E-01 0.28265719E+02</pdfrwt>
<pdfrwt beam="1">  1       -2 0.23784566E-01 0.28265719E+02</pdfrwt>
<totfact> 0.24443490E+04</totfact>
</mgrwt>
</event>
<event>
 4    1  0.2185255E+006  0.3567129E+02  0.7546771E-02  0.1542719E+00
         -2   -1    0    0    0  501 -0.00000000000E+00  0.00000000000E+00  0.30555037036E+01  0.30555037036E+01  0.00000000000E+00 0. -1.
         21   -1    0    0  501  502  0.00000000000E+00 -0.00000000000E+00 -0.16915235113E+04  0.16915235113E+04  0.00000000000E+00 0.  1.
         21    1    1    2  503  502  0.16812517825E+02  0.31460773061E+02 -0.15798678991E+04  0.15802705527E+04  0.00000000000E+00 0.  1.
         -2    1    1    2    0  503 -0.16812517825E+02 -0.31460773061E+02 -0.10860010843E+03  0.11430846228E+03  0.00000000000E+00 0. -1.
<mgrwt>
<rscale>  2 0.35671291E+02</rscale>
<asrwt>0</asrwt>
<pdfrwt beam="2">  1       21 0.26023435E+00 0.35671291E+02</pdfrwt>
<pdfrwt beam="1">  1       -2 0.47007756E-03 0.35671291E+02</pdfrwt>
<totfact> 0.29635057E+04</totfact>
</mgrwt>
</event>
<event>
 4    1  0.2185255E+006  0.3721788E+02  0.7546771E-02  0.1529743E+00
         21   -1    0    0  501  502  0.00000000000E+00  0.00000000000E+00  0.49167788550E+02  0.49167788550E+02  0.00000000000E+00 0.  1.
          2   -1    0    0  503    0 -0.00000000000E+00 -0.00000000000E+00 -0.15885157787E+04  0.15885157787E+04  0.00000000000E+00 0.  1.
         21    1    1    2  503  502 -0.34369024120E+02  0.14280771539E+02  0.41874230658E+02  0.56023400896E+02  0.00000000000E+00 0.  1.
          2    1    1    2  501    0  0.34369024120E+02 -0.14280771539E+02 -0.15812222208E+04  0.15816601663E+04  0.00000000000E+00 0.  1.
<mgrwt>
<rscale>  2 0.37217875E+02</rscale>
<asrwt>0</asrwt>
<pdfrwt beam="1">  1       21 0.75642758E-02 0.37217875E+02</pdfrwt>
<pdfrwt beam="2">  1        2 0.24438702E+00 0.37217875E+02</pdfrwt>
<totfact> 0.22128969E+04</totfact>
</mgrwt>
</event>
<event>
 4    1  0.2185255E+006  0.2106512E+02  0.7546771E-02  0.1724940E+00
         21   -1    0    0  501  502  0.00000000000E+00  0.00000000000E+00  0.90893798274E+01  0.90893798274E+01  0.00000000000E+00 0.  1.
          1   -1    0    0  503    0 -0.00000000000E+00 -0.00000000000E+00 -0.31640817765E+03  0.31640817765E+03  0.00000000000E+00 0. -1.
         21    1    1    2  503  502  0.61031434050E+01 -0.20161623563E+02 -0.39918261535E+01  0.21440011664E+02  0.00000000000E+00 0.  1.
          1    1    1    2  501    0 -0.61031434050E+01  0.20161623563E+02 -0.30332697167E+03  0.30405754582E+03  0.00000000000E+00 0. -1.
<mgrwt>
<rscale>  2 0.21065123E+02</rscale>
<asrwt>0</asrwt>
<pdfrwt beam="1">  1       21 0.13983660E-02 0.21065123E+02</pdfrwt>
<pdfrwt beam="2">  1        1 0.48678187E-01 0.21065123E+02</pdfrwt>
<totfact> 0.14349317E+06</totfact>
</mgrwt>
</event>
<event>
 4    1  0.2185255E+006  0.2324741E+02  0.7546771E-02  0.1687531E+00
         21   -1    0    0  501  502  0.00000000000E+00  0.00000000000E+00  0.79134253298E+02  0.79134253298E+02  0.00000000000E+00 0. -1.
         -2   -1    0    0    0  501 -0.00000000000E+00 -0.00000000000E+00 -0.33230962507E+02  0.33230962507E+02  0.00000000000E+00 0.  1.
         21    1    1    2  503  502  0.23177624525E+02  0.17999831033E+01  0.73029413392E+02  0.76640312095E+02  0.00000000000E+00 0. -1.
         -2    1    1    2    0  503 -0.23177624525E+02 -0.17999831033E+01 -0.27126122600E+02  0.35724903710E+02  0.00000000000E+00 0.  1.
<mgrwt>
<rscale>  2 0.23247413E+02</rscale>
<asrwt>0</asrwt>
<pdfrwt beam="1">  1       21 0.12174500E-01 0.23247413E+02</pdfrwt>
<pdfrwt beam="2">  1       -2 0.51124558E-02 0.23247413E+02</pdfrwt>
<totfact> 0.62350292E+05</totfact>
</mgrwt>
</event>
<event>
 4    1  0.2185255E+006  0.3522691E+02  0.7546771E-02  0.1546595E+00
          2   -1    0    0  503    0 -0.00000000000E+00  0.00000000000E+00  0.31234479575E+04  0.31234479575E+04  0.00000000000E+00 0.  1.
         21   -1    0    0  501  502  0.00000000000E+00 -0.00000000000E+00 -0.42818958584E+00  0.42818958584E+00  0.00000000000E+00 0. -1.
         21    1    1    2  503  502  0.64282682761E+01  0.34635419581E+02  0.11419669132E+04  0.11425101163E+04  0.00000000000E+00 0. -1.
          2    1    1    2  501    0 -0.64282682761E+01 -0.34635419581E+02  0.19810528547E+04  0.19813660308E+04  0.00000000000E+00 0.  1.
<mgrwt>
<rscale>  2 0.35226906E+02</rscale>
<asrwt>0</asrwt>
<pdfrwt beam="2">  1       21 0.65877822E-04 0.35226906E+02</pdfrwt>
<pdfrwt beam="1">  1        2 0.48051221E+00 0.35226906E+02</pdfrwt>
<totfact> 0.50654797E+06</totfact>
</mgrwt>
</event>
<event>
 4    1  0.2185255E+006  0.3717263E+02  0.7546771E-02  0.1530112E+00
         21   -1    0    0  501  502  0.00000000000E+00  0.00000000000E+00  0.71034609181E+02  0.71034609181E+02  0.00000000000E+00 0.  1.
          2   -1    0    0  503    0 -0.00000000000E+00 -0.00000000000E+00 -0.73682743274E+03  0.73682743274E+03  0.00000000000E+00 0. -1.
         21    1    1    2  503  502  0.26011294918E+02 -0.26555915539E+02  0.65666972647E+02  0.75458302459E+02  0.00000000000E+00 0.  1.
          2    1    1    2  501    0 -0.26011294918E+02  0.26555915539E+02 -0.73145979620E+03  0.73240373946E+03  0.00000000000E+00 0. -1.
<mgrwt>
<rscale>  2 0.37172626E+02</rscale>
<asrwt>0</asrwt>
<pdfrwt beam="1">  1       21 0.10928402E-01 0.37172626E+02</pdfrwt>
<pdfrwt beam="2">  1        2 0.11335806E+00 0.37172626E+02</pdfrwt>
<totfact> 0.34413337E+04</totfact>
</mgrwt>
</event>
<event>
 4    1  0.2185255E+006  0.3524575E+02  0.7546771E-02  0.1546429E+00
         -3   -1    0    0    0  501 -0.00000000000E+00  0.00000000000E+00  0.21031703205E+03  0.21031703205E+03  0.00000000000E+00 0.  1.
         21   -1    0    0  503  502  0.00000000000E+00 -0.00000000000E+00 -0.11206225009E+02  0.11206225009E+02  0.00000000000E+00 0.  1.
         21    1    1    2  503  501  0.33164364484E+02 -0.11932648042E+02  0.23385861974E+02  0.42298483438E+02  0.00000000000E+00 0.  1.
         -3    1    1    2    0  502 -0.33164364484E+02  0.11932648042E+02  0.17572494507E+03  0.17922477363E+03  0.00000000000E+00 0.  1.
<mgrwt>
<rscale>  2 0.35245754E+02</rscale>
<asrwt>0</asrwt>
<pdfrwt beam="2">  1       21 0.17240348E-02 0.35245754E+02</pdfrwt>
<pdfrwt beam="1">  1       -3 0.32356464E-01 0.35245754E+02</pdfrwt>
<totfact> 0.51603416E+05</totfact>
</mgrwt>
</event>
<event>
 4    1  0.2185255E+006  0.2103845E+02  0.7546771E-02  0.1725432E+00
         21   -1    0    0  501  502  0.00000000000E+00  0.00000000000E+00  0.10276778137E+01  0.10276778137E+01  0.00000000000E+00 0. -1.
          2   -1    0    0  503    0 -0.00000000000E+00 -0.00000000000E+00 -0.13477399323E+04  0.13477399323E+04  0.00000000000E+00 0.  1.
         21    1    1    2  503  502 -0.59784611927E+01  0.20171128960E+02 -0.11706873131E+03  0.11894412256E+03  0.00000000000E+00 0. -1.
          2    1    1    2  501    0  0.59784611927E+01 -0.20171128960E+02 -0.12296435232E+04  0.12298234876E+04  0.00000000000E+00 0.  1.
<mgrwt>
<rscale>  2 0.21038452E+02</rscale>
<asrwt>0</asrwt>
<pdfrwt beam="1">  1       21 0.15810420E-03 0.21038452E+02</pdfrwt>
<pdfrwt beam="2">  1        2 0.20734470E+00 0.21038452E+02</pdfrwt>
<totfact> 0.98815765E+06</totfact>
</mgrwt>
</event>
<event>
 4    1  0.2185255E+006  0.2542125E+02  0.7546771E-02  0.1655024E+00
          4   -1    0    0  503    0 -0.00000000000E+00  0.00000000000E+00  0.37419044450E+01  0.37419044450E+01  0.00000000000E+00 0. -1.
         21   -1    0    0  501  502  0.00000000000E+00 -0.00000000000E+00 -0.18119832670E+03  0.18119832670E+03  0.00000000000E+00 0. -1.
         21    1    1    2  503  502  0.25059082071E+02 -0.42758063831E+01 -0.10874990192E+03  0.11168160673E+03  0.00000000000E+00 0. -1.
          4    1    1    2  501    0 -0.25059082071E+02  0.42758063831E+01 -0.68706520334E+02  0.73258624413E+02  0.00000000000E+00 0. -1.
<mgrwt>
<rscale>  2 0.25421253E+02</rscale>
<asrwt>0</asrwt>
<pdfrwt beam="2">  1       21 0.27876659E-01 0.25421253E+02</pdfrwt>
<pdfrwt beam="1">  1        4 0.57567775E-03 0.25421253E+02</pdfrwt>
<totfact> 0.20508994E+06</totfact>
</mgrwt>
</event>
<event>
 4    1  0.2185255E+006  0.2753056E+02  0.7546771E-02  0.1627107E+00
          1   -1    0    0  503    0 -0.00000000000E+00  0.00000000000E+00  0.10142877225E+02  0.10142877225E+02  0.00000000000E+00 0. -1.
         21   -1    0    0  501  502  0.00000000000E+00 -0.00000000000E+00 -0.84167913872E+02  0.84167913872E+02  0.00000000000E+00 0. -1.
         21    1    1    2  503  502 -0.20909244943E+02 -0.17909086974E+02 -0.52806762106E+02  0.59552380678E+02  0.00000000000E+00 0. -1.
          1    1    1    2  501    0  0.20909244943E+02  0.17909086974E+02 -0.21218274542E+02  0.34758410419E+02  0.00000000000E+00 0. -1.
<mgrwt>
<rscale>  2 0.27530563E+02</rscale>
<asrwt>0</asrwt>
<pdfrwt beam="2">  1       21 0.12948910E-01 0.27530563E+02</pdfrwt>
<pdfrwt beam="1">  1        1 0.15604426E-02 0.27530563E+02</pdfrwt>
<totfact> 0.32170671E+06</totfact>
</mgrwt>
</event>
<event>
 4    1  0.2185255E+006  0.4164104E+02  0.7546771E-02  0.1496471E+00
         -2   -1    0    0    0  501 -0.00000000000E+00  0.00000000000E+00  0.21616124304E+03  0.21616124304E+03  0.00000000000E+00 0.  1.
         21   -1    0    0  503  502  0.00000000000E+00 -0.00000000000E+00 -0.93051777442E+03  0.93051777442E+03  0.00000000000E+00 0. -1.
         21    1    1    2  503  501 -0.31300245342E+02 -0.27463993526E+02 -0.92804114205E+03  0.92897488536E+03  0.00000000000E+00 0. -1.
         -2    1    1    2    0  502  0.31300245342E+02  0.27463993526E+02  0.21368461067E+03  0.21770413210E+03  0.00000000000E+00 0.  1.
<mgrwt>
<rscale>  2 0.41641041E+02</rscale>
<asrwt>0</asrwt>
<pdfrwt beam="2">  1       21 0.14315658E+00 0.41641041E+02</pdfrwt>
<pdfrwt beam="1">  1       -2 0.33255576E-01 0.41641041E+02</pdfrwt>
<totfact> 0.27347498E+02</totfact>
</mgrwt>
</event>
<event>
 4    1  0.2185255E+006  0.2297945E+02  0.7546771E-02  0.1691844E+00
         21   -1    0    0  503  502  0.00000000000E+00  0.00000000000E+00  0.60669965346E+02  0.60669965346E+02  0.00000000000E+00 0. -1.
          1   -1    0    0  502    0 -0.00000000000E+00 -0.00000000000E+00 -0.41025319661E+02  0.41025319661E+02  0.00000000000E+00 0. -1.
         21    1    1    2  503  501 -0.28857484209E+01  0.22797530651E+02  0.54955010542E+02  0.59565998115E+02  0.00000000000E+00 0. -1.
          1    1    1    2  501    0  0.28857484209E+01 -0.22797530651E+02 -0.35310364857E+02  0.42129286893E+02  0.00000000000E+00 0. -1.
<mgrwt>
<rscale>  2 0.22979446E+02</rscale>
<asrwt>0</asrwt>
<pdfrwt beam="1">  1       21 0.93338409E-02 0.22979446E+02</pdfrwt>
<pdfrwt beam="2">  1        1 0.63115876E-02 0.22979446E+02</pdfrwt>
<totfact> 0.86317743E+05</totfact>
</mgrwt>
</event>
<event>
 4    1  0.2185255E+006  0.2169787E+02  0.7546771E-02  0.1713530E+00
         21   -1    0    0  501  502  0.00000000000E+00  0.00000000000E+00  0.14936898450E+02  0.14936898450E+02  0.00000000000E+00 0. -1.
         -4   -1    0    0    0  501 -0.00000000000E+00 -0.00000000000E+00 -0.36122706752E+02  0.36122706752E+02  0.00000000000E+00 0. -1.
         21    1    1    2  503  502  0.34848066026E+01  0.21416197877E+02 -0.14789463160E+01  0.21748211208E+02  0.00000000000E+00 0. -1.
         -4    1    1    2    0  503 -0.34848066026E+01 -0.21416197877E+02 -0.19706861986E+02  0.29311393994E+02  0.00000000000E+00 0. -1.
<mgrwt>
<rscale>  2 0.21697866E+02</rscale>
<asrwt>0</asrwt>
<pdfrwt beam="1">  1       21 0.22979844E-02 0.21697866E+02</pdfrwt>
<pdfrwt beam="2">  1       -4 0.55573394E-02 0.21697866E+02</pdfrwt>
<totfact> 0.41365530E+06</totfact>
</mgrwt>
</event>
<event>
 4    1  0.2185255E+006  0.2749117E+02  0.7546771E-02  0.1627600E+00
         21   -1    0    0  501  502  0.00000000000E+00  0.00000000000E+00  0.84478751614E+02  0.84478751614E+02  0.00000000000E+00 0.  1.
          1   -1    0    0  503    0 -0.00000000000E+00 -0.00000000000E+00 -0.16291415314E+03  0.16291415314E+03  0.00000000000E+00 0. -1.
         21    1    1    2  503  502  0.70725413482E+01 -0.26565837301E+02  0.81034488666E+02  0.85570747957E+02  0.00000000000E+00 0.  1.
          1    1    1    2  501    0 -0.70725413482E+01  0.26565837301E+02 -0.15946989019E+03  0.16182215680E+03  0.00000000000E+00 0. -1.
<mgrwt>
<rscale>  2 0.27491172E+02</rscale>
<asrwt>0</asrwt>
<pdfrwt beam="1">  1       21 0.12996731E-01 0.27491172E+02</pdfrwt>
<pdfrwt beam="2">  1        1 0.25063716E-01 0.27491172E+02</pdfrwt>
<totfact> 0.93550933E+04</totfact>
</mgrwt>
</event>
<event>
 4    1  0.2185255E+006  0.3374480E+02  0.7546771E-02  0.1560038E+00
         -4   -1    0    0    0  501 -0.00000000000E+00  0.00000000000E+00  0.42728368272E+02  0.42728368272E+02  0.00000000000E+00 0. -1.
         21   -1    0    0  503  502  0.00000000000E+00 -0.00000000000E+00 -0.30968736233E+02  0.30968736233E+02  0.00000000000E+00 0. -1.
         21    1    1    2  503  501 -0.24914329370E+02 -0.22759339341E+02 -0.78807611649E+01  0.34652817082E+02  0.00000000000E+00 0. -1.
         -4    1    1    2    0  502  0.24914329370E+02  0.22759339341E+02  0.19640393204E+02  0.39044287423E+02  0.00000000000E+00 0. -1.
<mgrwt>
<rscale>  2 0.33744797E+02</rscale>
<asrwt>0</asrwt>
<pdfrwt beam="2">  1       21 0.47644209E-02 0.33744797E+02</pdfrwt>
<pdfrwt beam="1">  1       -4 0.65735951E-02 0.33744797E+02</pdfrwt>
<totfact> 0.12140309E+06</totfact>
</mgrwt>
</event>
<event>
 4    1  0.2185255E+006  0.3029913E+02  0.7546771E-02  0.1594806E+00
         -2   -1    0    0    0  501 -0.00000000000E+00  0.00000000000E+00  0.42432934151E+03  0.42432934151E+03  0.00000000000E+00 0. -1.
         21   -1    0    0  503  502  0.00000000000E+00 -0.00000000000E+00 -0.40983272992E+01  0.40983272992E+01  0.00000000000E+00 0. -1.
         21    1    1    2  503  501 -0.26296154747E+02 -0.15051563891E+02  0.62929986837E+02  0.69844259416E+02  0.00000000000E+00 0. -1.
         -2    1    1    2    0  502  0.26296154747E+02  0.15051563891E+02  0.35730102737E+03  0.35858340939E+03  0.00000000000E+00 0. -1.
<mgrwt>
<rscale>  2 0.30299131E+02</rscale>
<asrwt>0</asrwt>
<pdfrwt beam="2">  1       21 0.63051223E-03 0.30299131E+02</pdfrwt>
<pdfrwt beam="1">  1       -2 0.65281402E-01 0.30299131E+02</pdfrwt>
<totfact> 0.10525645E+06</totfact>
</mgrwt>
</event>
<event>
 4    1  0.2185255E+006  0.2232084E+02  0.7546771E-02  0.1702762E+00
          2   -1    0    0  503    0 -0.00000000000E+00  0.00000000000E+00  0.70926949464E+03  0.70926949464E+03  0.00000000000E+00 0.  1.
         21   -1    0    0  501  502  0.00000000000E+00 -0.00000000000E+00 -0.51319066966E+01  0.51319066966E+01  0.00000000000E+00 0.  1.
         21    1    1    2  503  502 -0.22126044661E+02  0.29424735704E+01  0.20213618226E+02  0.30113292162E+02  0.00000000000E+00 0.  1.
          2    1    1    2  501    0  0.22126044661E+02 -0.29424735704E+01  0.68392396971E+03  0.68428810917E+03  0.00000000000E+00 0.  1.
<mgrwt>
<rscale>  2 0.22320842E+02</rscale>
<asrwt>0</asrwt>
<pdfrwt beam="2">  1       21 0.78952467E-03 0.22320842E+02</pdfrwt>
<pdfrwt beam="1">  1        2 0.10911831E+00 0.22320842E+02</pdfrwt>
<totfact> 0.21323542E+06</totfact>
</mgrwt>
</event>
<event>
 4    1  0.2185255E+006  0.2184443E+02  0.7546771E-02  0.1710956E+00
         -2   -1    0    0    0  501 -0.00000000000E+00  0.00000000000E+00  0.24445615401E+02  0.24445615401E+02  0.00000000000E+00 0. -1.
         21   -1    0    0  503  502  0.00000000000E+00 -0.00000000000E+00 -0.27937405062E+02  0.27937405062E+02  0.00000000000E+00 0. -1.
         21    1    1    2  503  501  0.14719749011E+02 -0.16140269376E+02 -0.16122477925E+02  0.27149836112E+02  0.00000000000E+00 0. -1.
         -2    1    1    2    0  502 -0.14719749011E+02  0.16140269376E+02  0.12630688264E+02  0.25233184351E+02  0.00000000000E+00 0. -1.
<mgrwt>
<rscale>  2 0.21844434E+02</rscale>
<asrwt>0</asrwt>
<pdfrwt beam="2">  1       21 0.42980623E-02 0.21844434E+02</pdfrwt>
<pdfrwt beam="1">  1       -2 0.37608639E-02 0.21844434E+02</pdfrwt>
<totfact> 0.51264696E+06</totfact>
</mgrwt>
</event>
<event>
 4    1  0.2185255E+006  0.2692368E+02  0.7546771E-02  0.1634816E+00
          1   -1    0    0  502    0 -0.00000000000E+00  0.00000000000E+00  0.12085693180E+04  0.12085693180E+04  0.00000000000E+00 0.  1.
         21   -1    0    0  503  502  0.00000000000E+00 -0.00000000000E+00 -0.27564334290E+02  0.27564334290E+02  0.00000000000E+00 0. -1.
         21    1    1    2  503  501 -0.16749271465E+02 -0.21079524195E+02 -0.20802925932E+02  0.34024199656E+02  0.00000000000E+00 0. -1.
          1    1    1    2  501    0  0.16749271465E+02  0.21079524195E+02  0.12018079097E+04  0.12021094527E+04  0.00000000000E+00 0.  1.
<mgrwt>
<rscale>  2 0.26923678E+02</rscale>
<asrwt>0</asrwt>
<pdfrwt beam="2">  1       21 0.42406678E-02 0.26923678E+02</pdfrwt>
<pdfrwt beam="1">  1        1 0.18593370E+00 0.26923678E+02</pdfrwt>
<totfact> 0.44914789E+04</totfact>
</mgrwt>
</event>
<event>
 4    1  0.2185255E+006  0.2211370E+02  0.7546771E-02  0.1706293E+00
         21   -1    0    0  501  502  0.00000000000E+00  0.00000000000E+00  0.77783464739E+00  0.77783464739E+00  0.00000000000E+00 0. -1.
          2   -1    0    0  503    0 -0.00000000000E+00 -0.00000000000E+00 -0.76489156134E+03  0.76489156134E+03  0.00000000000E+00 0. -1.
         21    1    1    2  503  502 -0.19693210106E+02  0.10059488618E+02 -0.22050777554E+03  0.22161384187E+03  0.00000000000E+00 0. -1.
          2    1    1    2  501    0  0.19693210106E+02 -0.10059488618E+02 -0.54360595116E+03  0.54405555412E+03  0.00000000000E+00 0. -1.
<mgrwt>
<rscale>  2 0.22113702E+02</rscale>
<asrwt>0</asrwt>
<pdfrwt beam="1">  1       21 0.11966666E-03 0.22113702E+02</pdfrwt>
<pdfrwt beam="2">  1        2 0.11767583E+00 0.22113702E+02</pdfrwt>
<totfact> 0.30593829E+07</totfact>
</mgrwt>
</event>
<event>
 4    1  0.2185255E+006  0.2661109E+02  0.7546771E-02  0.1638884E+00
          1   -1    0    0  503    0 -0.00000000000E+00  0.00000000000E+00  0.43828641540E+01  0.43828641540E+01  0.00000000000E+00 0. -1.
         21   -1    0    0  501  502  0.00000000000E+00 -0.00000000000E+00 -0.46249028178E+03  0.46249028178E+03  0.00000000000E+00 0. -1.
         21    1    1    2  503  502 -0.23892846371E+02 -0.11716732551E+02 -0.41734992071E+03  0.41819744887E+03  0.00000000000E+00 0. -1.
          1    1    1    2  501    0  0.23892846371E+02  0.11716732551E+02 -0.40757496923E+02  0.48675697065E+02  0.00000000000E+00 0. -1.
<mgrwt>
<rscale>  2 0.26611087E+02</rscale>
<asrwt>0</asrwt>
<pdfrwt beam="2">  1       21 0.71152329E-01 0.26611087E+02</pdfrwt>
<pdfrwt beam="1">  1        1 0.67428700E-03 0.26611087E+02</pdfrwt>
<totfact> 0.41633813E+05</totfact>
</mgrwt>
</event>
<event>
 4    1  0.2185255E+006  0.2889234E+02  0.7546771E-02  0.1610665E+00
         21   -1    0    0  501  502  0.00000000000E+00  0.00000000000E+00  0.27413358714E+01  0.27413358714E+01  0.00000000000E+00 0.  1.
          2   -1    0    0  503    0 -0.00000000000E+00 -0.00000000000E+00 -0.30608862362E+03  0.30608862362E+03  0.00000000000E+00 0.  1.
         21    1    1    2  503  502 -0.26657271893E+02  0.11142581570E+02 -0.14058826868E+03  0.14352640370E+03  0.00000000000E+00 0.  1.
          2    1    1    2  501    0  0.26657271893E+02 -0.11142581570E+02 -0.16275901907E+03  0.16530355579E+03  0.00000000000E+00 0.  1.
<mgrwt>
<rscale>  2 0.28892339E+02</rscale>
<asrwt>0</asrwt>
<pdfrwt beam="1">  1       21 0.42174405E-03 0.28892339E+02</pdfrwt>
<pdfrwt beam="2">  1        2 0.47090550E-01 0.28892339E+02</pdfrwt>
<totfact> 0.13536712E+07</totfact>
</mgrwt>
</event>
<event>
 4    1  0.2185255E+006  0.2206177E+02  0.7546771E-02  0.1707186E+00
         21   -1    0    0  503  502  0.00000000000E+00  0.00000000000E+00  0.46167307619E+01  0.46167307619E+01  0.00000000000E+00 0. -1.
         -4   -1    0    0    0  501 -0.00000000000E+00 -0.00000000000E+00 -0.76050108635E+03  0.76050108635E+03  0.00000000000E+00 0.  1.
         21    1    1    2  503  501  0.21048680039E+02 -0.66086923577E+01 -0.22888459951E+02  0.31789988125E+02  0.00000000000E+00 0. -1.
         -4    1    1    2    0  502 -0.21048680039E+02  0.66086923577E+01 -0.73299589563E+03  0.73332782898E+03  0.00000000000E+00 0.  1.
<mgrwt>
<rscale>  2 0.22061771E+02</rscale>
<asrwt>0</asrwt>
<pdfrwt beam="1">  1       21 0.71026591E-03 0.22061771E+02</pdfrwt>
<pdfrwt beam="2">  1       -4 0.11700023E+00 0.22061771E+02</pdfrwt>
<totfact> 0.98955625E+04</totfact>
</mgrwt>
</event>
<event>
 4    1  0.2185255E+006  0.2445036E+02  0.7546771E-02  0.1669024E+00
         -2   -1    0    0    0  501 -0.00000000000E+00  0.00000000000E+00  0.99555506464E+00  0.99555506464E+00  0.00000000000E+00 0.  1.
         21   -1    0    0  503  502  0.00000000000E+00 -0.00000000000E+00 -0.60173936539E+03  0.60173936539E+03  0.00000000000E+00 0.  1.
         21    1    1    2  503  501  0.14979218047E+02 -0.19324676049E+02 -0.31410832472E+03  0.31505850209E+03  0.00000000000E+00 0.  1.
         -2    1    1    2    0  502 -0.14979218047E+02  0.19324676049E+02 -0.28663548560E+03  0.28767641836E+03  0.00000000000E+00 0.  1.
<mgrwt>
<rscale>  2 0.24450359E+02</rscale>
<asrwt>0</asrwt>
<pdfrwt beam="2">  1       21 0.92575222E-01 0.24450359E+02</pdfrwt>
<pdfrwt beam="1">  1       -2 0.15316243E-03 0.24450359E+02</pdfrwt>
<totfact> 0.16653147E+06</totfact>
</mgrwt>
</event>
<event>
 4    1  0.2185255E+006  0.3263111E+02  0.7546771E-02  0.1570703E+00
         21   -1    0    0  503  502  0.00000000000E+00  0.00000000000E+00  0.15734811617E+02  0.15734811617E+02  0.00000000000E+00 0. -1.
         -2   -1    0    0    0  501 -0.00000000000E+00 -0.00000000000E+00 -0.67900313296E+02  0.67900313296E+02  0.00000000000E+00 0. -1.
         21    1    1    2  503  501 -0.30008783239E+02  0.12816491542E+02 -0.28513231675E+02  0.43333519445E+02  0.00000000000E+00 0. -1.
         -2    1    1    2    0  502  0.30008783239E+02 -0.12816491542E+02 -0.23652270004E+02  0.40301605467E+02  0.00000000000E+00 0. -1.
<mgrwt>
<rscale>  2 0.32631113E+02</rscale>
<asrwt>0</asrwt>
<pdfrwt beam="1">  1       21 0.24207402E-02 0.32631113E+02</pdfrwt>
<pdfrwt beam="2">  1       -2 0.10446202E-01 0.32631113E+02</pdfrwt>
<totfact> 0.32021878E+06</totfact>
</mgrwt>
</event>
<event>
 4    1  0.2185255E+006  0.2779206E+02  0.7546771E-02  0.1623860E+00
         21   -1    0    0  501  502  0.00000000000E+00  0.00000000000E+00  0.18145875057E+02  0.18145875057E+02  0.00000000000E+00 0.  1.
          2   -1    0    0  503    0 -0.00000000000E+00 -0.00000000000E+00 -0.11191154898E+03  0.11191154898E+03  0.00000000000E+00 0.  1.
         21    1    1    2  503  502  0.12377334802E+01  0.27764483417E+02  0.43061796077E+01  0.28123685861E+02  0.00000000000E+00 0.  1.
          2    1    1    2  501    0 -0.12377334802E+01 -0.27764483417E+02 -0.98071853527E+02  0.10193373817E+03  0.00000000000E+00 0.  1.
<mgrwt>
<rscale>  2 0.27792059E+02</rscale>
<asrwt>0</asrwt>
<pdfrwt beam="1">  1       21 0.27916731E-02 0.27792059E+02</pdfrwt>
<pdfrwt beam="2">  1        2 0.17217161E-01 0.27792059E+02</pdfrwt>
<totfact> 0.21497919E+06</totfact>
</mgrwt>
</event>
<event>
 4    1  0.2185255E+006  0.3454342E+02  0.7546771E-02  0.1552693E+00
          2   -1    0    0  502    0 -0.00000000000E+00  0.00000000000E+00  0.13814779602E+04  0.13814779602E+04  0.00000000000E+00 0. -1.
         21   -1    0    0  503  502  0.00000000000E+00 -0.00000000000E+00 -0.84384963337E+02  0.84384963337E+02  0.00000000000E+00 0. -1.
         21    1    1    2  503  501 -0.25745330039E+02 -0.23030978738E+02 -0.80624246059E+02  0.87712696077E+02  0.00000000000E+00 0. -1.
          2    1    1    2  501    0  0.25745330039E+02  0.23030978738E+02  0.13777172429E+04  0.13781502274E+04  0.00000000000E+00 0. -1.
<mgrwt>
<rscale>  2 0.34543422E+02</rscale>
<asrwt>0</asrwt>
<pdfrwt beam="2">  1       21 0.12982303E-01 0.34543422E+02</pdfrwt>
<pdfrwt beam="1">  1        2 0.21253505E+00 0.34543422E+02</pdfrwt>
<totfact> 0.11269741E+04</totfact>
</mgrwt>
</event>
<event>
 4    1  0.2185255E+006  0.2310822E+02  0.7546771E-02  0.1689762E+00
         21   -1    0    0  501  502  0.00000000000E+00  0.00000000000E+00  0.60367731915E+01  0.60367731915E+01  0.00000000000E+00 0. -1.
          2   -1    0    0  503    0 -0.00000000000E+00 -0.00000000000E+00 -0.10236260667E+04  0.10236260667E+04  0.00000000000E+00 0. -1.
         21    1    1    2  503  502  0.22121745459E+02 -0.66796720931E+01 -0.16710195932E+02  0.28517017542E+02  0.00000000000E+00 0. -1.
          2    1    1    2  501    0 -0.22121745459E+02  0.66796720931E+01 -0.10008790976E+04  0.10011458224E+04  0.00000000000E+00 0. -1.
<mgrwt>
<rscale>  2 0.23108216E+02</rscale>
<asrwt>0</asrwt>
<pdfrwt beam="1">  1       21 0.92873555E-03 0.23108216E+02</pdfrwt>
<pdfrwt beam="2">  1        2 0.15748073E+00 0.23108216E+02</pdfrwt>
<totfact> 0.10983274E+06</totfact>
</mgrwt>
</event>
<event>
 4    1  0.2185255E+006  0.2258126E+02  0.7546771E-02  0.1698389E+00
         21   -1    0    0  501  502  0.00000000000E+00  0.00000000000E+00  0.17190680179E+02  0.17190680179E+02  0.00000000000E+00 0. -1.
          1   -1    0    0  503    0 -0.00000000000E+00 -0.00000000000E+00 -0.30187923271E+02  0.30187923271E+02  0.00000000000E+00 0.  1.
         21    1    1    2  503  502  0.15877135130E+02 -0.16057082505E+02 -0.33724266833E+01  0.22831701213E+02  0.00000000000E+00 0. -1.
          1    1    1    2  501    0 -0.15877135130E+02  0.16057082505E+02 -0.96248164090E+01  0.24546902237E+02  0.00000000000E+00 0.  1.
<mgrwt>
<rscale>  2 0.22581260E+02</rscale>
<asrwt>0</asrwt>
<pdfrwt beam="1">  1       21 0.26447200E-02 0.22581260E+02</pdfrwt>
<pdfrwt beam="2">  1        1 0.46442959E-02 0.22581260E+02</pdfrwt>
<totfact> 0.94830497E+06</totfact>
</mgrwt>
</event>
<event>
 4    1  0.2185255E+006  0.2246293E+02  0.7546771E-02  0.1700367E+00
         -4   -1    0    0    0  501 -0.00000000000E+00  0.00000000000E+00  0.11408773642E+03  0.11408773642E+03  0.00000000000E+00 0. -1.
         21   -1    0    0  503  502  0.00000000000E+00 -0.00000000000E+00 -0.49646267644E+01  0.49646267644E+01  0.00000000000E+00 0. -1.
         21    1    1    2  503  501 -0.12819808869E+02  0.18445481069E+02  0.34895878234E+02  0.41500669742E+02  0.00000000000E+00 0. -1.
         -4    1    1    2    0  502  0.12819808869E+02 -0.18445481069E+02  0.74227231423E+02  0.77551693444E+02  0.00000000000E+00 0. -1.
<mgrwt>
<rscale>  2 0.22462931E+02</rscale>
<asrwt>0</asrwt>
<pdfrwt beam="2">  1       21 0.76378882E-03 0.22462931E+02</pdfrwt>
<pdfrwt beam="1">  1       -4 0.17551957E-01 0.22462931E+02</pdfrwt>
<totfact> 0.35043658E+06</totfact>
</mgrwt>
</event>
<event>
 4    1  0.2185255E+006  0.3202124E+02  0.7546771E-02  0.1576764E+00
         21   -1    0    0  501  502  0.00000000000E+00  0.00000000000E+00  0.36696094321E+01  0.36696094321E+01  0.00000000000E+00 0. -1.
          1   -1    0    0  503    0 -0.00000000000E+00 -0.00000000000E+00 -0.96124969408E+03  0.96124969408E+03  0.00000000000E+00 0. -1.
         21    1    1    2  503  502  0.29440403085E+02 -0.12594538690E+02 -0.72458004029E+02  0.79218192901E+02  0.00000000000E+00 0. -1.
          1    1    1    2  501    0 -0.29440403085E+02  0.12594538690E+02 -0.88512208062E+03  0.88570111061E+03  0.00000000000E+00 0. -1.
<mgrwt>
<rscale>  2 0.32021239E+02</rscale>
<asrwt>0</asrwt>
<pdfrwt beam="1">  1       21 0.56455490E-03 0.32021239E+02</pdfrwt>
<pdfrwt beam="2">  1        1 0.14788467E+00 0.32021239E+02</pdfrwt>
<totfact> 0.14777512E+06</totfact>
</mgrwt>
</event>
<event>
 4    1  0.2185255E+006  0.4428559E+02  0.7546771E-02  0.1478851E+00
         21   -1    0    0  501  502  0.00000000000E+00  0.00000000000E+00  0.77513661502E+01  0.77513661502E+01  0.00000000000E+00 0. -1.
          2   -1    0    0  503    0 -0.00000000000E+00 -0.00000000000E+00 -0.33438746988E+03  0.33438746988E+03  0.00000000000E+00 0. -1.
         21    1    1    2  503  502 -0.39887193509E+02  0.19241236264E+02 -0.78929094249E+02  0.90504228067E+02  0.00000000000E+00 0. -1.
          2    1    1    2  501    0  0.39887193509E+02 -0.19241236264E+02 -0.24770700948E+03  0.25163460796E+03  0.00000000000E+00 0. -1.
<mgrwt>
<rscale>  2 0.44285589E+02</rscale>
<asrwt>0</asrwt>
<pdfrwt beam="1">  1       21 0.11925180E-02 0.44285589E+02</pdfrwt>
<pdfrwt beam="2">  1        2 0.51444220E-01 0.44285589E+02</pdfrwt>
<totfact> 0.28255259E+06</totfact>
</mgrwt>
</event>
<event>
 4    1  0.2185255E+006  0.2307005E+02  0.7546771E-02  0.1690377E+00
         21   -1    0    0  503  502  0.00000000000E+00  0.00000000000E+00  0.50819314173E+01  0.50819314173E+01  0.00000000000E+00 0.  1.
          2   -1    0    0  502    0 -0.00000000000E+00 -0.00000000000E+00 -0.24361030459E+03  0.24361030459E+03  0.00000000000E+00 0.  1.
         21    1    1    2  503  501 -0.12915410156E+02  0.19115941920E+02 -0.25377103014E+02  0.34296128242E+02  0.00000000000E+00 0.  1.
          2    1    1    2  501    0  0.12915410156E+02 -0.19115941920E+02 -0.21315127015E+03  0.21439610776E+03  0.00000000000E+00 0.  1.
<mgrwt>
<rscale>  2 0.23070047E+02</rscale>
<asrwt>0</asrwt>
<pdfrwt beam="1">  1       21 0.78183570E-03 0.23070047E+02</pdfrwt>
<pdfrwt beam="2">  1        2 0.37478504E-01 0.23070047E+02</pdfrwt>
<totfact> 0.63970281E+06</totfact>
</mgrwt>
</event>
<event>
 4    1  0.2185255E+006  0.2135244E+02  0.7546771E-02  0.1719698E+00
         -3   -1    0    0    0  501 -0.00000000000E+00  0.00000000000E+00  0.16038600618E+03  0.16038600618E+03  0.00000000000E+00 0. -1.
         21   -1    0    0  501  502  0.00000000000E+00 -0.00000000000E+00 -0.30690767221E+01  0.30690767221E+01  0.00000000000E+00 0. -1.
         21    1    1    2  503  502  0.79261548892E+01 -0.19826821528E+02  0.56461402699E+02  0.60364035468E+02  0.00000000000E+00 0. -1.
         -3    1    1    2    0  503 -0.79261548892E+01  0.19826821528E+02  0.10085552676E+03  0.10309104743E+03  0.00000000000E+00 0. -1.
<mgrwt>
<rscale>  2 0.21352442E+02</rscale>
<asrwt>0</asrwt>
<pdfrwt beam="2">  1       21 0.47216577E-03 0.21352442E+02</pdfrwt>
<pdfrwt beam="1">  1       -3 0.24674764E-01 0.21352442E+02</pdfrwt>
<totfact> 0.49153964E+06</totfact>
</mgrwt>
</event>
<event>
 4    1  0.2185255E+006  0.2066083E+02  0.7546771E-02  0.1732497E+00
          2   -1    0    0  503    0 -0.00000000000E+00  0.00000000000E+00  0.12665884897E+04  0.12665884897E+04  0.00000000000E+00 0. -1.
         21   -1    0    0  501  502  0.00000000000E+00 -0.00000000000E+00 -0.71658668436E+02  0.71658668436E+02  0.00000000000E+00 0.  1.
         21    1    1    2  503  502  0.17282181383E+02  0.11322372107E+02 -0.70083310854E+02  0.73065315737E+02  0.00000000000E+00 0.  1.
          2    1    1    2  501    0 -0.17282181383E+02 -0.11322372107E+02  0.12650131321E+04  0.12651818424E+04  0.00000000000E+00 0. -1.
<mgrwt>
<rscale>  2 0.20660830E+02</rscale>
<asrwt>0</asrwt>
<pdfrwt beam="2">  1       21 0.11024411E-01 0.20660830E+02</pdfrwt>
<pdfrwt beam="1">  1        2 0.19485975E+00 0.20660830E+02</pdfrwt>
<totfact> 0.17036586E+04</totfact>
</mgrwt>
</event>
<event>
 4    1  0.2185255E+006  0.2386350E+02  0.7546771E-02  0.1677884E+00
         21   -1    0    0  503  502  0.00000000000E+00  0.00000000000E+00  0.24608248577E+02  0.24608248577E+02  0.00000000000E+00 0.  1.
          3   -1    0    0  502    0 -0.00000000000E+00 -0.00000000000E+00 -0.64279908590E+02  0.64279908590E+02  0.00000000000E+00 0.  1.
         21    1    1    2  503  501 -0.12740222553E+02  0.20178041182E+02  0.15719206895E+02  0.28575515429E+02  0.00000000000E+00 0.  1.
          3    1    1    2  501    0  0.12740222553E+02 -0.20178041182E+02 -0.55390866907E+02  0.60312641738E+02  0.00000000000E+00 0.  1.
<mgrwt>
<rscale>  2 0.23863500E+02</rscale>
<asrwt>0</asrwt>
<pdfrwt beam="1">  1       21 0.37858844E-02 0.23863500E+02</pdfrwt>
<pdfrwt beam="2">  1        3 0.98892166E-02 0.23863500E+02</pdfrwt>
<totfact> 0.97532818E+05</totfact>
</mgrwt>
</event>
<event>
 4    1  0.2185255E+006  0.2261943E+02  0.7546771E-02  0.1697754E+00
          1   -1    0    0  502    0 -0.00000000000E+00  0.00000000000E+00  0.13494905090E+03  0.13494905090E+03  0.00000000000E+00 0. -1.
         21   -1    0    0  503  502  0.00000000000E+00 -0.00000000000E+00 -0.22011334806E+02  0.22011334806E+02  0.00000000000E+00 0. -1.
         21    1    1    2  503  501 -0.10575960125E+02  0.19994691703E+02 -0.14933230807E+02  0.27104243417E+02  0.00000000000E+00 0. -1.
          1    1    1    2  501    0  0.10575960125E+02 -0.19994691703E+02  0.12787094690E+03  0.12985614229E+03  0.00000000000E+00 0. -1.
<mgrwt>
<rscale>  2 0.22619430E+02</rscale>
<asrwt>0</asrwt>
<pdfrwt beam="2">  1       21 0.33863593E-02 0.22619430E+02</pdfrwt>
<pdfrwt beam="1">  1        1 0.20761392E-01 0.22619430E+02</pdfrwt>
<totfact> 0.10069035E+06</totfact>
</mgrwt>
</event>
<event>
 4    1  0.2185255E+006  0.2451355E+02  0.7546771E-02  0.1668089E+00
         21   -1    0    0  501  502  0.00000000000E+00  0.00000000000E+00  0.98337311966E+00  0.98337311966E+00  0.00000000000E+00 0.  1.
          2   -1    0    0  503    0 -0.00000000000E+00 -0.00000000000E+00 -0.75038866963E+03  0.75038866963E+03  0.00000000000E+00 0.  1.
         21    1    1    2  503  502 -0.16772965903E+02 -0.17876849659E+02 -0.21282767727E+03  0.21423476457E+03  0.00000000000E+00 0.  1.
          2    1    1    2  501    0  0.16772965903E+02  0.17876849659E+02 -0.53657761924E+03  0.53713727818E+03  0.00000000000E+00 0.  1.
<mgrwt>
<rscale>  2 0.24513550E+02</rscale>
<asrwt>0</asrwt>
<pdfrwt beam="1">  1       21 0.15128858E-03 0.24513550E+02</pdfrwt>
<pdfrwt beam="2">  1        2 0.11544410E+00 0.24513550E+02</pdfrwt>
<totfact> 0.23008606E+07</totfact>
</mgrwt>
</event>
<event>
 4    1  0.2185255E+006  0.3227191E+02  0.7546771E-02  0.1574253E+00
          3   -1    0    0  502    0 -0.00000000000E+00  0.00000000000E+00  0.12914935095E+02  0.12914935095E+02  0.00000000000E+00 0.  1.
         21   -1    0    0  503  502  0.00000000000E+00 -0.00000000000E+00 -0.51570286019E+03  0.51570286019E+03  0.00000000000E+00 0.  1.
         21    1    1    2  503  501  0.29410119633E+01  0.32137622234E+02 -0.49415970525E+03  0.49521236920E+03  0.00000000000E+00 0.  1.
          3    1    1    2  501    0 -0.29410119633E+01 -0.32137622234E+02 -0.86282198421E+01  0.33405426084E+02  0.00000000000E+00 0.  1.
<mgrwt>
<rscale>  2 0.32271912E+02</rscale>
<asrwt>0</asrwt>
<pdfrwt beam="2">  1       21 0.79338899E-01 0.32271912E+02</pdfrwt>
<pdfrwt beam="1">  1        3 0.19869131E-02 0.32271912E+02</pdfrwt>
<totfact> 0.54269201E+04</totfact>
</mgrwt>
</event>
<event>
 4    1  0.2185255E+006  0.2157619E+02  0.7546771E-02  0.1715686E+00
         21   -1    0    0  501  502  0.00000000000E+00  0.00000000000E+00  0.11257829492E+02  0.11257829492E+02  0.00000000000E+00 0. -1.
          2   -1    0    0  503    0 -0.00000000000E+00 -0.00000000000E+00 -0.45367037688E+03  0.45367037688E+03  0.00000000000E+00 0.  1.
         21    1    1    2  503  502 -0.19232195643E+02 -0.97803096700E+01  0.41024351683E+00  0.21580085872E+02  0.00000000000E+00 0. -1.
          2    1    1    2  501    0  0.19232195643E+02  0.97803096700E+01 -0.44282279091E+03  0.44334812050E+03  0.00000000000E+00 0.  1.
<mgrwt>
<rscale>  2 0.21576186E+02</rscale>
<asrwt>0</asrwt>
<pdfrwt beam="1">  1       21 0.17319740E-02 0.21576186E+02</pdfrwt>
<pdfrwt beam="2">  1        2 0.69795432E-01 0.21576186E+02</pdfrwt>
<totfact> 0.10286881E+06</totfact>
</mgrwt>
</event>
<event>
 4    1  0.2185255E+006  0.2178852E+02  0.7546771E-02  0.1711935E+00
         -2   -1    0    0    0  501 -0.00000000000E+00  0.00000000000E+00  0.12873287800E+03  0.12873287800E+03  0.00000000000E+00 0.  1.
         21   -1    0    0  501  502  0.00000000000E+00 -0.00000000000E+00 -0.87876132041E+01  0.87876132041E+01  0.00000000000E+00 0. -1.
         21    1    1    2  503  502  0.30271453259E+01 -0.21577211779E+02  0.75909358207E+01  0.23072970845E+02  0.00000000000E+00 0. -1.
         -2    1    1    2    0  503 -0.30271453259E+01  0.21577211779E+02  0.11235432897E+03  0.11444752035E+03  0.00000000000E+00 0.  1.
<mgrwt>
<rscale>  2 0.21788522E+02</rscale>
<asrwt>0</asrwt>
<pdfrwt beam="2">  1       21 0.13519406E-02 0.21788522E+02</pdfrwt>
<pdfrwt beam="1">  1       -2 0.19805057E-01 0.21788522E+02</pdfrwt>
<totfact> 0.26113706E+06</totfact>
</mgrwt>
</event>
<event>
 4    1  0.2185255E+006  0.2481715E+02  0.7546771E-02  0.1663642E+00
          1   -1    0    0  503    0 -0.00000000000E+00  0.00000000000E+00  0.19599107411E+01  0.19599107411E+01  0.00000000000E+00 0.  1.
         21   -1    0    0  501  502  0.00000000000E+00 -0.00000000000E+00 -0.51895534854E+03  0.51895534854E+03  0.00000000000E+00 0.  1.
         21    1    1    2  503  502  0.24786750191E+02  0.12280432915E+01 -0.42208237624E+03  0.42281133312E+03  0.00000000000E+00 0.  1.
          1    1    1    2  501    0 -0.24786750191E+02 -0.12280432915E+01 -0.94913061557E+02  0.98103926168E+02  0.00000000000E+00 0.  1.
<mgrwt>
<rscale>  2 0.24817153E+02</rscale>
<asrwt>0</asrwt>
<pdfrwt beam="2">  1       21 0.79839354E-01 0.24817153E+02</pdfrwt>
<pdfrwt beam="1">  1        1 0.30152447E-03 0.24817153E+02</pdfrwt>
<totfact> 0.94091712E+05</totfact>
</mgrwt>
</event>
<event>
 4    1  0.2185255E+006  0.5744591E+02  0.7546771E-02  0.1408874E+00
          2   -1    0    0  503    0 -0.00000000000E+00  0.00000000000E+00  0.35091982768E+03  0.35091982768E+03  0.00000000000E+00 0. -1.
         21   -1    0    0  501  502  0.00000000000E+00 -0.00000000000E+00 -0.14049644095E+02  0.14049644095E+02  0.00000000000E+00 0.  1.
         21    1    1    2  503  502 -0.23861952865E+02  0.52255520050E+02  0.63500365917E+02  0.85629017522E+02  0.00000000000E+00 0.  1.
          2    1    1    2  501    0  0.23861952865E+02 -0.52255520050E+02  0.27336981767E+03  0.27934045425E+03  0.00000000000E+00 0. -1.
<mgrwt>
<rscale>  2 0.57445906E+02</rscale>
<asrwt>0</asrwt>
<pdfrwt beam="2">  1       21 0.21614840E-02 0.57445906E+02</pdfrwt>
<pdfrwt beam="1">  1        2 0.53987659E-01 0.57445906E+02</pdfrwt>
<totfact> 0.11034503E+06</totfact>
</mgrwt>
</event>
<event>
 4    1  0.2185255E+006  0.2132427E+02  0.7546771E-02  0.1720207E+00
          1   -1    0    0  502    0 -0.00000000000E+00  0.00000000000E+00  0.70589571739E+03  0.70589571739E+03  0.00000000000E+00 0.  1.
         21   -1    0    0  503  502  0.00000000000E+00 -0.00000000000E+00 -0.36904902423E+01  0.36904902423E+01  0.00000000000E+00 0.  1.
         21    1    1    2  503  501 -0.10018698918E+02  0.18824187177E+02  0.28758191697E+02  0.35801647177E+02  0.00000000000E+00 0.  1.
          1    1    1    2  501    0  0.10018698918E+02 -0.18824187177E+02  0.67344703545E+03  0.67378456046E+03  0.00000000000E+00 0.  1.
<mgrwt>
<rscale>  2 0.21324267E+02</rscale>
<asrwt>0</asrwt>
<pdfrwt beam="2">  1       21 0.56776829E-03 0.21324267E+02</pdfrwt>
<pdfrwt beam="1">  1        1 0.10859923E+00 0.21324267E+02</pdfrwt>
<totfact> 0.21059695E+06</totfact>
</mgrwt>
</event>
<event>
 4    1  0.2185255E+006  0.2061210E+02  0.7546771E-02  0.1733423E+00
         -2   -1    0    0    0  501 -0.00000000000E+00  0.00000000000E+00  0.13469650186E+03  0.13469650186E+03  0.00000000000E+00 0. -1.
         21   -1    0    0  501  502  0.00000000000E+00 -0.00000000000E+00 -0.11103935762E+02  0.11103935762E+02  0.00000000000E+00 0.  1.
         21    1    1    2  503  502  0.14804776970E+02  0.14341452007E+02  0.11307976288E+00  0.20612410190E+02  0.00000000000E+00 0.  1.
         -2    1    1    2    0  503 -0.14804776970E+02 -0.14341452007E+02  0.12347948634E+03  0.12518802743E+03  0.00000000000E+00 0. -1.
<mgrwt>
<rscale>  2 0.20612100E+02</rscale>
<asrwt>0</asrwt>
<pdfrwt beam="2">  1       21 0.17082979E-02 0.20612100E+02</pdfrwt>
<pdfrwt beam="1">  1       -2 0.20722538E-01 0.20612100E+02</pdfrwt>
<totfact> 0.16771816E+06</totfact>
</mgrwt>
</event>
<event>
 4    1  0.2185255E+006  0.2207575E+02  0.7546771E-02  0.1706945E+00
         -3   -1    0    0    0  501 -0.00000000000E+00  0.00000000000E+00  0.84806149712E+02  0.84806149712E+02  0.00000000000E+00 0. -1.
         21   -1    0    0  501  502  0.00000000000E+00 -0.00000000000E+00 -0.47726234180E+02  0.47726234180E+02  0.00000000000E+00 0. -1.
         21    1    1    2  503  502  0.70380967747E+01 -0.20923762052E+02 -0.43608916595E+02  0.48878177454E+02  0.00000000000E+00 0. -1.
         -3    1    1    2    0  503 -0.70380967747E+01  0.20923762052E+02  0.80688832128E+02  0.83654206438E+02  0.00000000000E+00 0. -1.
<mgrwt>
<rscale>  2 0.22075747E+02</rscale>
<asrwt>0</asrwt>
<pdfrwt beam="2">  1       21 0.73424976E-02 0.22075747E+02</pdfrwt>
<pdfrwt beam="1">  1       -3 0.13047100E-01 0.22075747E+02</pdfrwt>
<totfact> 0.21267773E+05</totfact>
</mgrwt>
</event>
<event>
 4    1  0.2185255E+006  0.2539981E+02  0.7546771E-02  0.1655325E+00
          3   -1    0    0  502    0 -0.00000000000E+00  0.00000000000E+00  0.10710673918E+03  0.10710673918E+03  0.00000000000E+00 0.  1.
         21   -1    0    0  503  502  0.00000000000E+00 -0.00000000000E+00 -0.14043818790E+02  0.14043818790E+02  0.00000000000E+00 0. -1.
         21    1    1    2  503  501  0.89771692706E+01 -0.23760483071E+02  0.75412791113E+00  0.25410998264E+02  0.00000000000E+00 0. -1.
          3    1    1    2  501    0 -0.89771692706E+01  0.23760483071E+02  0.92308792474E+02  0.95739559702E+02  0.00000000000E+00 0.  1.
<mgrwt>
<rscale>  2 0.25399806E+02</rscale>
<asrwt>0</asrwt>
<pdfrwt beam="2">  1       21 0.21605876E-02 0.25399806E+02</pdfrwt>
<pdfrwt beam="1">  1        3 0.16477959E-01 0.25399806E+02</pdfrwt>
<totfact> 0.10509333E+06</totfact>
</mgrwt>
</event>
<event>
 4    1  0.2185255E+006  0.2198055E+02  0.7546771E-02  0.1708589E+00
         -3   -1    0    0    0  501 -0.00000000000E+00  0.00000000000E+00  0.13654142616E+03  0.13654142616E+03  0.00000000000E+00 0. -1.
         21   -1    0    0  501  502  0.00000000000E+00 -0.00000000000E+00 -0.12655039332E+04  0.12655039332E+04  0.00000000000E+00 0. -1.
         21    1    1    2  503  502 -0.21163491537E+02 -0.59372613027E+01 -0.12645231906E+04  0.12647142144E+04  0.00000000000E+00 0. -1.
         -3    1    1    2    0  503  0.21163491537E+02  0.59372613027E+01  0.13556068358E+03  0.13733114497E+03  0.00000000000E+00 0. -1.
<mgrwt>
<rscale>  2 0.21980547E+02</rscale>
<asrwt>0</asrwt>
<pdfrwt beam="2">  1       21 0.19469291E+00 0.21980547E+02</pdfrwt>
<pdfrwt beam="1">  1       -3 0.21006374E-01 0.21980547E+02</pdfrwt>
<totfact> 0.17187210E+02</totfact>
</mgrwt>
</event>
<event>
 4    1  0.2185255E+006  0.3414659E+02  0.7546771E-02  0.1556312E+00
         21   -1    0    0  501  502  0.00000000000E+00  0.00000000000E+00  0.61552198267E+01  0.61552198267E+01  0.00000000000E+00 0.  1.
          2   -1    0    0  503    0 -0.00000000000E+00 -0.00000000000E+00 -0.46997077483E+03  0.46997077483E+03  0.00000000000E+00 0.  1.
         21    1    1    2  503  502  0.31988672848E+02 -0.11946326119E+02 -0.47977326189E+02  0.58888145891E+02  0.00000000000E+00 0.  1.
          2    1    1    2  501    0 -0.31988672848E+02  0.11946326119E+02 -0.41583822882E+03  0.41723784877E+03  0.00000000000E+00 0.  1.
<mgrwt>
<rscale>  2 0.34146594E+02</rscale>
<asrwt>0</asrwt>
<pdfrwt beam="1">  1       21 0.94695692E-03 0.34146594E+02</pdfrwt>
<pdfrwt beam="2">  1        2 0.72303194E-01 0.34146594E+02</pdfrwt>
<totfact> 0.27158985E+06</totfact>
</mgrwt>
</event>
<event>
 4    1  0.2185255E+006  0.2092792E+02  0.7546771E-02  0.1727481E+00
         -4   -1    0    0    0  501 -0.00000000000E+00  0.00000000000E+00  0.11918400545E+03  0.11918400545E+03  0.00000000000E+00 0. -1.
         21   -1    0    0  501  502  0.00000000000E+00 -0.00000000000E+00 -0.11637052956E+02  0.11637052956E+02  0.00000000000E+00 0. -1.
         21    1    1    2  503  502 -0.77973885421E+01 -0.19421083747E+02 -0.33235282499E+00  0.20930557097E+02  0.00000000000E+00 0. -1.
         -4    1    1    2    0  503  0.77973885421E+01  0.19421083747E+02  0.10787930532E+03  0.10989050131E+03  0.00000000000E+00 0. -1.
<mgrwt>
<rscale>  2 0.20927918E+02</rscale>
<asrwt>0</asrwt>
<pdfrwt beam="2">  1       21 0.17903159E-02 0.20927918E+02</pdfrwt>
<pdfrwt beam="1">  1       -4 0.18336000E-01 0.20927918E+02</pdfrwt>
<totfact> 0.87371941E+05</totfact>
</mgrwt>
</event>
<event>
 4    1  0.2185255E+006  0.2201563E+02  0.7546771E-02  0.1707982E+00
         21   -1    0    0  503  502  0.00000000000E+00  0.00000000000E+00  0.12053294803E+02  0.12053294803E+02  0.00000000000E+00 0.  1.
          2   -1    0    0  502    0 -0.00000000000E+00 -0.00000000000E+00 -0.56096216491E+03  0.56096216491E+03  0.00000000000E+00 0.  1.
         21    1    1    2  503  501  0.21973174411E+02 -0.13665435032E+01  0.15933333608E+01  0.22073208785E+02  0.00000000000E+00 0.  1.
          2    1    1    2  501    0 -0.21973174411E+02  0.13665435032E+01 -0.55050220347E+03  0.55094225093E+03  0.00000000000E+00 0.  1.
<mgrwt>
<rscale>  2 0.22015627E+02</rscale>
<asrwt>0</asrwt>
<pdfrwt beam="1">  1       21 0.18543530E-02 0.22015627E+02</pdfrwt>
<pdfrwt beam="2">  1        2 0.86301874E-01 0.22015627E+02</pdfrwt>
<totfact> 0.75097343E+05</totfact>
</mgrwt>
</event>
<event>
 4    1  0.2185255E+006  0.5138233E+02  0.7546771E-02  0.1438025E+00
          3   -1    0    0  502    0 -0.00000000000E+00  0.00000000000E+00  0.13252132372E+02  0.13252132372E+02  0.00000000000E+00 0. -1.
         21   -1    0    0  503  502  0.00000000000E+00 -0.00000000000E+00 -0.22948175215E+03  0.22948175215E+03  0.00000000000E+00 0. -1.
         21    1    1    2  503  501 -0.52847619532E+01  0.51109830791E+02 -0.15218493538E+03  0.16062502317E+03  0.00000000000E+00 0. -1.
          3    1    1    2  501    0  0.52847619532E+01 -0.51109830791E+02 -0.64044684397E+02  0.82108861348E+02  0.00000000000E+00 0. -1.
<mgrwt>
<rscale>  2 0.51382327E+02</rscale>
<asrwt>0</asrwt>
<pdfrwt beam="2">  1       21 0.35304884E-01 0.51382327E+02</pdfrwt>
<pdfrwt beam="1">  1        3 0.20387896E-02 0.51382327E+02</pdfrwt>
<totfact> 0.28995178E+05</totfact>
</mgrwt>
</event>
<event>
 4    1  0.2185255E+006  0.3072851E+02  0.7546771E-02  0.1590173E+00
         21   -1    0    0  501  502  0.00000000000E+00  0.00000000000E+00  0.20193142629E+03  0.20193142629E+03  0.00000000000E+00 0. -1.
          2   -1    0    0  503    0 -0.00000000000E+00 -0.00000000000E+00 -0.12433353899E+02  0.12433353899E+02  0.00000000000E+00 0. -1.
         21    1    1    2  503  502 -0.52235282115E+01 -0.30281282935E+02  0.17941029208E+03  0.18202278497E+03  0.00000000000E+00 0. -1.
          2    1    1    2  501    0  0.52235282115E+01  0.30281282935E+02  0.10087780308E+02  0.32341995218E+02  0.00000000000E+00 0. -1.
<mgrwt>
<rscale>  2 0.30728510E+02</rscale>
<asrwt>0</asrwt>
<pdfrwt beam="1">  1       21 0.31066371E-01 0.30728510E+02</pdfrwt>
<pdfrwt beam="2">  1        2 0.19128238E-02 0.30728510E+02</pdfrwt>
<totfact> 0.55470573E+05</totfact>
</mgrwt>
</event>
<event>
 4    1  0.2185255E+006  0.2921070E+02  0.7546771E-02  0.1606981E+00
         21   -1    0    0  501  502  0.00000000000E+00  0.00000000000E+00  0.12925855679E+02  0.12925855679E+02  0.00000000000E+00 0. -1.
         -3   -1    0    0    0  501 -0.00000000000E+00 -0.00000000000E+00 -0.11693332860E+03  0.11693332860E+03  0.00000000000E+00 0. -1.
         21    1    1    2  503  502  0.30908574777E+01  0.29046710901E+02 -0.91565492997E+01  0.30612206865E+02  0.00000000000E+00 0. -1.
         -3    1    1    2    0  503 -0.30908574777E+01 -0.29046710901E+02 -0.94850923620E+02  0.99246977414E+02  0.00000000000E+00 0. -1.
<mgrwt>
<rscale>  2 0.29210697E+02</rscale>
<asrwt>0</asrwt>
<pdfrwt beam="1">  1       21 0.19885931E-02 0.29210697E+02</pdfrwt>
<pdfrwt beam="2">  1       -3 0.17989743E-01 0.29210697E+02</pdfrwt>
<totfact> 0.10824058E+06</totfact>
</mgrwt>
</event>
<event>
 4    1  0.2185255E+006  0.2744473E+02  0.7546771E-02  0.1628182E+00
         -4   -1    0    0    0  501 -0.00000000000E+00  0.00000000000E+00  0.38664929314E+03  0.38664929314E+03  0.00000000000E+00 0. -1.
         21   -1    0    0  503  502  0.00000000000E+00 -0.00000000000E+00 -0.41685066912E+01  0.41685066912E+01  0.00000000000E+00 0. -1.
         21    1    1    2  503  501 -0.10727412373E+02 -0.25261349597E+02  0.48622181095E+02  0.55833051629E+02  0.00000000000E+00 0. -1.
         -4    1    1    2    0  502  0.10727412373E+02  0.25261349597E+02  0.33385860535E+03  0.33498474820E+03  0.00000000000E+00 0. -1.
<mgrwt>
<rscale>  2 0.27444729E+02</rscale>
<asrwt>0</asrwt>
<pdfrwt beam="2">  1       21 0.64130903E-03 0.27444729E+02</pdfrwt>
<pdfrwt beam="1">  1       -4 0.59484478E-01 0.27444729E+02</pdfrwt>
<totfact> 0.52703124E+05</totfact>
</mgrwt>
</event>
<event>
 4    1  0.2185255E+006  0.2507248E+02  0.7546771E-02  0.1659963E+00
         21   -1    0    0  501  502  0.00000000000E+00  0.00000000000E+00  0.31611843072E+03  0.31611843072E+03  0.00000000000E+00 0. -1.
         -3   -1    0    0    0  501 -0.00000000000E+00 -0.00000000000E+00 -0.73502589575E+02  0.73502589575E+02  0.00000000000E+00 0. -1.
         21    1    1    2  503  502 -0.16085926033E+02 -0.19232063505E+02  0.31346509491E+03  0.31446620646E+03  0.00000000000E+00 0. -1.
         -3    1    1    2    0  503  0.16085926033E+02  0.19232063505E+02 -0.70849253763E+02  0.75154813829E+02  0.00000000000E+00 0. -1.
<mgrwt>
<rscale>  2 0.25072481E+02</rscale>
<asrwt>0</asrwt>
<pdfrwt beam="1">  1       21 0.48633604E-01 0.25072481E+02</pdfrwt>
<pdfrwt beam="2">  1       -3 0.11308091E-01 0.25072481E+02</pdfrwt>
<totfact> 0.10024766E+04</totfact>
</mgrwt>
</event>
<event>
 4    1  0.2185255E+006  0.2009372E+02  0.7546771E-02  0.1743471E+00
         21   -1    0    0  501  502  0.00000000000E+00  0.00000000000E+00  0.78831840659E+01  0.78831840659E+01  0.00000000000E+00 0. -1.
         -1   -1    0    0    0  501 -0.00000000000E+00 -0.00000000000E+00 -0.98852962508E+02  0.98852962508E+02  0.00000000000E+00 0. -1.
         21    1    1    2  503  502 -0.46001630682E+01 -0.19560063979E+02 -0.84380200018E+01  0.21793526210E+02  0.00000000000E+00 0. -1.
         -1    1    1    2    0  503  0.46001630682E+01  0.19560063979E+02 -0.82531758441E+02  0.84942620364E+02  0.00000000000E+00 0. -1.
<mgrwt>
<rscale>  2 0.20093720E+02</rscale>
<asrwt>0</asrwt>
<pdfrwt beam="1">  1       21 0.12127975E-02 0.20093720E+02</pdfrwt>
<pdfrwt beam="2">  1       -1 0.15208149E-01 0.20093720E+02</pdfrwt>
<totfact> 0.48961770E+06</totfact>
</mgrwt>
</event>
<event>
 4    1  0.2185255E+006  0.2605091E+02  0.7546771E-02  0.1646350E+00
          1   -1    0    0  503    0 -0.00000000000E+00  0.00000000000E+00  0.13303963894E+03  0.13303963894E+03  0.00000000000E+00 0. -1.
         21   -1    0    0  501  502  0.00000000000E+00 -0.00000000000E+00 -0.34924269910E+02  0.34924269910E+02  0.00000000000E+00 0. -1.
         21    1    1    2  503  502 -0.94022476730E+01 -0.24295015565E+02 -0.28548999349E+02  0.38648355805E+02  0.00000000000E+00 0. -1.
          1    1    1    2  501    0  0.94022476730E+01  0.24295015565E+02  0.12666436838E+03  0.12931555305E+03  0.00000000000E+00 0. -1.
<mgrwt>
<rscale>  2 0.26050913E+02</rscale>
<asrwt>0</asrwt>
<pdfrwt beam="2">  1       21 0.53729647E-02 0.26050913E+02</pdfrwt>
<pdfrwt beam="1">  1        1 0.20467637E-01 0.26050913E+02</pdfrwt>
<totfact> 0.50649575E+05</totfact>
</mgrwt>
</event>
<event>
 4    1  0.2185255E+006  0.2157860E+02  0.7546771E-02  0.1715643E+00
          2   -1    0    0  503    0 -0.00000000000E+00  0.00000000000E+00  0.12513809494E+04  0.12513809494E+04  0.00000000000E+00 0. -1.
         21   -1    0    0  501  502  0.00000000000E+00 -0.00000000000E+00 -0.34628449224E+02  0.34628449224E+02  0.00000000000E+00 0.  1.
         21    1    1    2  503  502 -0.44562588138E+00  0.21574001085E+02 -0.31164435392E+02  0.37905911657E+02  0.00000000000E+00 0.  1.
          2    1    1    2  501    0  0.44562588138E+00 -0.21574001085E+02  0.12479169356E+04  0.12481034870E+04  0.00000000000E+00 0. -1.
<mgrwt>
<rscale>  2 0.21578603E+02</rscale>
<asrwt>0</asrwt>
<pdfrwt beam="2">  1       21 0.53274547E-02 0.21578603E+02</pdfrwt>
<pdfrwt beam="1">  1        2 0.19252011E+00 0.21578603E+02</pdfrwt>
<totfact> 0.56484157E+04</totfact>
</mgrwt>
</event>
<event>
 4    1  0.2185255E+006  0.3397985E+02  0.7546771E-02  0.1557851E+00
         21   -1    0    0  501  502  0.00000000000E+00  0.00000000000E+00  0.13297499169E+03  0.13297499169E+03  0.00000000000E+00 0.  1.
          1   -1    0    0  503    0 -0.00000000000E+00 -0.00000000000E+00 -0.20901458293E+02  0.20901458293E+02  0.00000000000E+00 0.  1.
         21    1    1    2  503  502 -0.17413116149E+02  0.29178998071E+02  0.11486162812E+03  0.11978240337E+03  0.00000000000E+00 0.  1.
          1    1    1    2  501    0  0.17413116149E+02 -0.29178998071E+02 -0.27880947223E+01  0.34094046615E+02  0.00000000000E+00 0.  1.
<mgrwt>
<rscale>  2 0.33979855E+02</rscale>
<asrwt>0</asrwt>
<pdfrwt beam="1">  1       21 0.20457690E-01 0.33979855E+02</pdfrwt>
<pdfrwt beam="2">  1        1 0.32156091E-02 0.33979855E+02</pdfrwt>
<totfact> 0.58347888E+05</totfact>
</mgrwt>
</event>
<event>
 4    1  0.2185255E+006  0.4223682E+02  0.7546771E-02  0.1492368E+00
          1   -1    0    0  503    0 -0.00000000000E+00  0.00000000000E+00  0.22745797610E+03  0.22745797610E+03  0.00000000000E+00 0. -1.
         21   -1    0    0  501  502  0.00000000000E+00 -0.00000000000E+00 -0.14065552262E+02  0.14065552262E+02  0.00000000000E+00 0. -1.
         21    1    1    2  503  502 -0.60826031666E+01 -0.41796546387E+02  0.26373959897E+02  0.49794930583E+02  0.00000000000E+00 0. -1.
          1    1    1    2  501    0  0.60826031666E+01  0.41796546387E+02  0.18701846394E+03  0.19172859778E+03  0.00000000000E+00 0. -1.
<mgrwt>
<rscale>  2 0.42236825E+02</rscale>
<asrwt>0</asrwt>
<pdfrwt beam="2">  1       21 0.21639313E-02 0.42236825E+02</pdfrwt>
<pdfrwt beam="1">  1        1 0.34993532E-01 0.42236825E+02</pdfrwt>
<totfact> 0.12269729E+06</totfact>
</mgrwt>
</event>
<event>
 4    1  0.2185255E+006  0.2407620E+02  0.7546771E-02  0.1674637E+00
         21   -1    0    0  503  502  0.00000000000E+00  0.00000000000E+00  0.36152593703E+02  0.36152593703E+02  0.00000000000E+00 0.  1.
         -2   -1    0    0    0  501 -0.00000000000E+00 -0.00000000000E+00 -0.15582261686E+03  0.15582261686E+03  0.00000000000E+00 0. -1.
         21    1    1    2  503  501 -0.18161430711E+02 -0.15805877191E+02  0.31080111426E+02  0.39314585659E+02  0.00000000000E+00 0.  1.
         -2    1    1    2    0  502  0.18161430711E+02  0.15805877191E+02 -0.15075013459E+03  0.15266062491E+03  0.00000000000E+00 0. -1.
<mgrwt>
<rscale>  2 0.24076198E+02</rscale>
<asrwt>0</asrwt>
<pdfrwt beam="1">  1       21 0.55619375E-02 0.24076198E+02</pdfrwt>
<pdfrwt beam="2">  1       -2 0.23972710E-01 0.24076198E+02</pdfrwt>
<totfact> 0.21743630E+05</totfact>
</mgrwt>
</event>
<event>
 4    1  0.2185255E+006  0.2053167E+02  0.7546771E-02  0.1734957E+00
          2   -1    0    0  502    0 -0.00000000000E+00  0.00000000000E+00  0.29699675823E+03  0.29699675823E+03  0.00000000000E+00 0. -1.
         21   -1    0    0  503  502  0.00000000000E+00 -0.00000000000E+00 -0.16469832919E+01  0.16469832919E+01  0.00000000000E+00 0. -1.
         21    1    1    2  503  501  0.13389222288E+02  0.15565288928E+02  0.92164562801E+02  0.94423811241E+02  0.00000000000E+00 0. -1.
          2    1    1    2  501    0 -0.13389222288E+02 -0.15565288928E+02  0.20318521214E+03  0.20421993028E+03  0.00000000000E+00 0. -1.
<mgrwt>
<rscale>  2 0.20531670E+02</rscale>
<asrwt>0</asrwt>
<pdfrwt beam="2">  1       21 0.25338228E-03 0.20531670E+02</pdfrwt>
<pdfrwt beam="1">  1        2 0.45691766E-01 0.20531670E+02</pdfrwt>
<totfact> 0.26584936E+07</totfact>
</mgrwt>
</event>
<event>
 4    1  0.2185255E+006  0.4057228E+02  0.7546771E-02  0.1504042E+00
         21   -1    0    0  501  502  0.00000000000E+00  0.00000000000E+00  0.27321646126E+02  0.27321646126E+02  0.00000000000E+00 0.  1.
          2   -1    0    0  503    0 -0.00000000000E+00 -0.00000000000E+00 -0.14484946244E+03  0.14484946244E+03  0.00000000000E+00 0.  1.
         21    1    1    2  503  502  0.40497681534E+02  0.24592761828E+01  0.70257176653E+01  0.41176096921E+02  0.00000000000E+00 0.  1.
          2    1    1    2  501    0 -0.40497681534E+02 -0.24592761828E+01 -0.12455353398E+03  0.13099501165E+03  0.00000000000E+00 0.  1.
<mgrwt>
<rscale>  2 0.40572284E+02</rscale>
<asrwt>0</asrwt>
<pdfrwt beam="1">  1       21 0.42033302E-02 0.40572284E+02</pdfrwt>
<pdfrwt beam="2">  1        2 0.22284533E-01 0.40572284E+02</pdfrwt>
<totfact> 0.91050846E+05</totfact>
</mgrwt>
</event>
<event>
 4    1  0.2185255E+006  0.2232579E+02  0.7546771E-02  0.1702678E+00
         21   -1    0    0  501  502  0.00000000000E+00  0.00000000000E+00  0.24698581658E+01  0.24698581658E+01  0.00000000000E+00 0.  1.
         -2   -1    0    0    0  501 -0.00000000000E+00 -0.00000000000E+00 -0.34127786344E+03  0.34127786344E+03  0.00000000000E+00 0.  1.
         21    1    1    2  503  502 -0.21606172884E+02 -0.56226398954E+01 -0.59530325226E+02  0.63579087817E+02  0.00000000000E+00 0.  1.
         -2    1    1    2    0  503  0.21606172884E+02  0.56226398954E+01 -0.27927768005E+03  0.28016863379E+03  0.00000000000E+00 0.  1.
<mgrwt>
<rscale>  2 0.22325787E+02</rscale>
<asrwt>0</asrwt>
<pdfrwt beam="1">  1       21 0.37997834E-03 0.22325787E+02</pdfrwt>
<pdfrwt beam="2">  1       -2 0.52504264E-01 0.22325787E+02</pdfrwt>
<totfact> 0.31640723E+06</totfact>
</mgrwt>
</event>
<event>
 4    1  0.2185255E+006  0.2785052E+02  0.7546771E-02  0.1623141E+00
         21   -1    0    0  501  502  0.00000000000E+00  0.00000000000E+00  0.88981374634E+01  0.88981374634E+01  0.00000000000E+00 0.  1.
          1   -1    0    0  503    0 -0.00000000000E+00 -0.00000000000E+00 -0.95990541329E+03  0.95990541329E+03  0.00000000000E+00 0. -1.
         21    1    1    2  503  502 -0.27553435263E+02  0.40570176017E+01 -0.13619774294E+02  0.31002410203E+02  0.00000000000E+00 0.  1.
          1    1    1    2  501    0  0.27553435263E+02 -0.40570176017E+01 -0.93738750153E+03  0.93780114055E+03  0.00000000000E+00 0. -1.
<mgrwt>
<rscale>  2 0.27850515E+02</rscale>
<asrwt>0</asrwt>
<pdfrwt beam="1">  1       21 0.13689449E-02 0.27850515E+02</pdfrwt>
<pdfrwt beam="2">  1        1 0.14767768E+00 0.27850515E+02</pdfrwt>
<totfact> 0.38130676E+05</totfact>
</mgrwt>
</event>
<event>
 4    1  0.2185255E+006  0.2768763E+02  0.7546771E-02  0.1625152E+00
         21   -1    0    0  501  502  0.00000000000E+00  0.00000000000E+00  0.15362084586E+01  0.15362084586E+01  0.00000000000E+00 0. -1.
          2   -1    0    0  503    0 -0.00000000000E+00 -0.00000000000E+00 -0.18965904016E+04  0.18965904016E+04  0.00000000000E+00 0.  1.
         21    1    1    2  503  502  0.24937295987E+02  0.12030638532E+02 -0.13283289950E+03  0.13568781885E+03  0.00000000000E+00 0. -1.
          2    1    1    2  501    0 -0.24937295987E+02 -0.12030638532E+02 -0.17622212937E+04  0.17624387912E+04  0.00000000000E+00 0.  1.
<mgrwt>
<rscale>  2 0.27687633E+02</rscale>
<asrwt>0</asrwt>
<pdfrwt beam="1">  1       21 0.23633911E-03 0.27687633E+02</pdfrwt>
<pdfrwt beam="2">  1        2 0.29178395E+00 0.27687633E+02</pdfrwt>
<totfact> 0.32200873E+06</totfact>
</mgrwt>
</event>
<event>
 4    1  0.2185255E+006  0.2015961E+02  0.7546771E-02  0.1742173E+00
          1   -1    0    0  502    0 -0.00000000000E+00  0.00000000000E+00  0.15401888450E+04  0.15401888450E+04  0.00000000000E+00 0. -1.
         21   -1    0    0  503  502  0.00000000000E+00 -0.00000000000E+00 -0.50929395641E+00  0.50929395641E+00  0.00000000000E+00 0. -1.
         21    1    1    2  503  501 -0.19836388992E+02 -0.35954754945E+01  0.23507635062E+03  0.23593918791E+03  0.00000000000E+00 0. -1.
          1    1    1    2  501    0  0.19836388992E+02  0.35954754945E+01  0.13046032004E+04  0.13047589511E+04  0.00000000000E+00 0. -1.
<mgrwt>
<rscale>  2 0.20159607E+02</rscale>
<asrwt>0</asrwt>
<pdfrwt beam="2">  1       21 0.78354149E-04 0.20159607E+02</pdfrwt>
<pdfrwt beam="1">  1        1 0.23694840E+00 0.20159607E+02</pdfrwt>
<totfact> 0.10215093E+07</totfact>
</mgrwt>
</event>
<event>
 4    1  0.2185255E+006  0.2712632E+02  0.7546771E-02  0.1632214E+00
         -1   -1    0    0    0  501 -0.00000000000E+00  0.00000000000E+00  0.91063656984E+02  0.91063656984E+02  0.00000000000E+00 0.  1.
         21   -1    0    0  503  502  0.00000000000E+00 -0.00000000000E+00 -0.23481577097E+03  0.23481577097E+03  0.00000000000E+00 0.  1.
         21    1    1    2  503  501 -0.20913873041E+02 -0.17275625127E+02 -0.23198769028E+03  0.23356824645E+03  0.00000000000E+00 0.  1.
         -1    1    1    2    0  502  0.20913873041E+02  0.17275625127E+02  0.88235576287E+02  0.92311181510E+02  0.00000000000E+00 0.  1.
<mgrwt>
<rscale>  2 0.27126321E+02</rscale>
<asrwt>0</asrwt>
<pdfrwt beam="2">  1       21 0.36125504E-01 0.27126321E+02</pdfrwt>
<pdfrwt beam="1">  1       -1 0.14009793E-01 0.27126321E+02</pdfrwt>
<totfact> 0.22514562E+04</totfact>
</mgrwt>
</event>
<event>
 4    1  0.2185255E+006  0.3844327E+02  0.7546771E-02  0.1519990E+00
         21   -1    0    0  503  502  0.00000000000E+00  0.00000000000E+00  0.13880237065E+03  0.13880237065E+03  0.00000000000E+00 0. -1.
          3   -1    0    0  502    0 -0.00000000000E+00 -0.00000000000E+00 -0.13361034303E+02  0.13361034303E+02  0.00000000000E+00 0. -1.
         21    1    1    2  503  501 -0.30957575650E+02 -0.22792841086E+02  0.97008136552E+02  0.10434780138E+03  0.00000000000E+00 0. -1.
          3    1    1    2  501    0  0.30957575650E+02  0.22792841086E+02  0.28433199796E+02  0.47815603578E+02  0.00000000000E+00 0. -1.
<mgrwt>
<rscale>  2 0.38443271E+02</rscale>
<asrwt>0</asrwt>
<pdfrwt beam="1">  1       21 0.21354210E-01 0.38443271E+02</pdfrwt>
<pdfrwt beam="2">  1        3 0.20555438E-02 0.38443271E+02</pdfrwt>
<totfact> 0.68039161E+05</totfact>
</mgrwt>
</event>
<event>
 4    1  0.2185255E+006  0.2475999E+02  0.7546771E-02  0.1664473E+00
          3   -1    0    0  503    0 -0.00000000000E+00  0.00000000000E+00  0.62759951068E+02  0.62759951068E+02  0.00000000000E+00 0. -1.
         21   -1    0    0  501  502  0.00000000000E+00 -0.00000000000E+00 -0.13568146184E+02  0.13568146184E+02  0.00000000000E+00 0. -1.
         21    1    1    2  503  502  0.21444300252E+02  0.12377357700E+02  0.43993085622E+01  0.25147781468E+02  0.00000000000E+00 0. -1.
          3    1    1    2  501    0 -0.21444300252E+02 -0.12377357700E+02  0.44792496323E+02  0.51180315784E+02  0.00000000000E+00 0. -1.
<mgrwt>
<rscale>  2 0.24759988E+02</rscale>
<asrwt>0</asrwt>
<pdfrwt beam="2">  1       21 0.20874071E-02 0.24759988E+02</pdfrwt>
<pdfrwt beam="1">  1        3 0.96553769E-02 0.24759988E+02</pdfrwt>
<totfact> 0.25936819E+06</totfact>
</mgrwt>
</event>
<event>
 4    1  0.2185255E+006  0.2312658E+02  0.7546771E-02  0.1689466E+00
         21   -1    0    0  501  502  0.00000000000E+00  0.00000000000E+00  0.12662447378E+02  0.12662447378E+02  0.00000000000E+00 0.  1.
          4   -1    0    0  503    0 -0.00000000000E+00 -0.00000000000E+00 -0.26256425706E+03  0.26256425706E+03  0.00000000000E+00 0.  1.
         21    1    1    2  503  502  0.20799056225E+02  0.10111279566E+02  0.11086368794E+01  0.23153137801E+02  0.00000000000E+00 0.  1.
          4    1    1    2  501    0 -0.20799056225E+02 -0.10111279566E+02 -0.25101044656E+03  0.25207356664E+03  0.00000000000E+00 0.  1.
<mgrwt>
<rscale>  2 0.23126580E+02</rscale>
<asrwt>0</asrwt>
<pdfrwt beam="1">  1       21 0.19480689E-02 0.23126580E+02</pdfrwt>
<pdfrwt beam="2">  1        4 0.40394500E-01 0.23126580E+02</pdfrwt>
<totfact> 0.19570604E+05</totfact>
</mgrwt>
</event>
<event>
 4    1  0.2185255E+006  0.2347920E+02  0.7546771E-02  0.1683858E+00
          1   -1    0    0  503    0 -0.00000000000E+00  0.00000000000E+00  0.12494581227E+03  0.12494581227E+03  0.00000000000E+00 0.  1.
         21   -1    0    0  501  502  0.00000000000E+00 -0.00000000000E+00 -0.24556614823E+02  0.24556614823E+02  0.00000000000E+00 0. -1.
         21    1    1    2  503  502  0.15220433040E+02  0.17877675623E+02 -0.17509108832E+02  0.29288935790E+02  0.00000000000E+00 0. -1.
          1    1    1    2  501    0 -0.15220433040E+02 -0.17877675623E+02  0.11789830628E+03  0.12021349130E+03  0.00000000000E+00 0.  1.
<mgrwt>
<rscale>  2 0.23479201E+02</rscale>
<asrwt>0</asrwt>
<pdfrwt beam="2">  1       21 0.37779408E-02 0.23479201E+02</pdfrwt>
<pdfrwt beam="1">  1        1 0.19222432E-01 0.23479201E+02</pdfrwt>
<totfact> 0.93693970E+05</totfact>
</mgrwt>
</event>
<event>
 4    1  0.2185255E+006  0.2599644E+02  0.7546771E-02  0.1647089E+00
         21   -1    0    0  503  502  0.00000000000E+00  0.00000000000E+00  0.86847628220E+03  0.86847628220E+03  0.00000000000E+00 0. -1.
         -2   -1    0    0    0  501 -0.00000000000E+00 -0.00000000000E+00 -0.13312698515E+01  0.13312698515E+01  0.00000000000E+00 0. -1.
         21    1    1    2  503  501  0.25325320792E+02 -0.58687970524E+01  0.71389975046E+03  0.71437291967E+03  0.00000000000E+00 0. -1.
         -2    1    1    2    0  502 -0.25325320792E+02  0.58687970524E+01  0.15324526189E+03  0.15543463238E+03  0.00000000000E+00 0. -1.
<mgrwt>
<rscale>  2 0.25996435E+02</rscale>
<asrwt>0</asrwt>
<pdfrwt beam="1">  1       21 0.13361128E+00 0.25996435E+02</pdfrwt>
<pdfrwt beam="2">  1       -2 0.20481144E-03 0.25996435E+02</pdfrwt>
<totfact> 0.50334823E+05</totfact>
</mgrwt>
</event>
<event>
 4    1  0.2185255E+006  0.2269206E+02  0.7546771E-02  0.1696551E+00
          2   -1    0    0  502    0 -0.00000000000E+00  0.00000000000E+00  0.87461923816E+03  0.87461923816E+03  0.00000000000E+00 0.  1.
         21   -1    0    0  503  502  0.00000000000E+00 -0.00000000000E+00 -0.20897033187E+01  0.20897033187E+01  0.00000000000E+00 0.  1.
         21    1    1    2  503  501  0.77914475620E+01  0.21312511726E+02  0.64757690246E+02  0.68618425056E+02  0.00000000000E+00 0.  1.
          2    1    1    2  501    0 -0.77914475620E+01 -0.21312511726E+02  0.80777184459E+03  0.80809051642E+03  0.00000000000E+00 0.  1.
<mgrwt>
<rscale>  2 0.22692065E+02</rscale>
<asrwt>0</asrwt>
<pdfrwt beam="2">  1       21 0.32149352E-03 0.22692065E+02</pdfrwt>
<pdfrwt beam="1">  1        2 0.13455651E+00 0.22692065E+02</pdfrwt>
<totfact> 0.63565391E+06</totfact>
</mgrwt>
</event>
<event>
 4    1  0.2185255E+006  0.3044360E+02  0.7546771E-02  0.1593236E+00
         21   -1    0    0  501  502  0.00000000000E+00  0.00000000000E+00  0.99470621837E+00  0.99470621837E+00  0.00000000000E+00 0.  1.
          2   -1    0    0  503    0 -0.00000000000E+00 -0.00000000000E+00 -0.93422385586E+03  0.93422385586E+03  0.00000000000E+00 0.  1.
         21    1    1    2  503  502  0.22209048078E+02 -0.20822364537E+02 -0.49070094205E+03  0.49164441135E+03  0.00000000000E+00 0.  1.
          2    1    1    2  501    0 -0.22209048078E+02  0.20822364537E+02 -0.44252820760E+03  0.44357415074E+03  0.00000000000E+00 0.  1.
<mgrwt>
<rscale>  2 0.30443598E+02</rscale>
<asrwt>0</asrwt>
<pdfrwt beam="1">  1       21 0.15303163E-03 0.30443598E+02</pdfrwt>
<pdfrwt beam="2">  1        2 0.14372684E+00 0.30443598E+02</pdfrwt>
<totfact> 0.18518522E+07</totfact>
</mgrwt>
</event>
<event>
 4    1  0.2185255E+006  0.2067752E+02  0.7546771E-02  0.1732181E+00
          1   -1    0    0  503    0 -0.00000000000E+00  0.00000000000E+00  0.18666141014E+03  0.18666141014E+03  0.00000000000E+00 0. -1.
         21   -1    0    0  501  502  0.00000000000E+00 -0.00000000000E+00 -0.12584152515E+04  0.12584152515E+04  0.00000000000E+00 0. -1.
         21    1    1    2  503  502 -0.15698449703E+02 -0.13458020837E+02 -0.12577573713E+04  0.12579273288E+04  0.00000000000E+00 0. -1.
          1    1    1    2  501    0  0.15698449703E+02  0.13458020837E+02  0.18600352989E+03  0.18714933283E+03  0.00000000000E+00 0. -1.
<mgrwt>
<rscale>  2 0.20677516E+02</rscale>
<asrwt>0</asrwt>
<pdfrwt beam="2">  1       21 0.19360235E+00 0.20677516E+02</pdfrwt>
<pdfrwt beam="1">  1        1 0.28717139E-01 0.20677516E+02</pdfrwt>
<totfact> 0.36177764E+02</totfact>
</mgrwt>
</event>
<event>
 4    1  0.2185255E+006  0.2484840E+02  0.7546771E-02  0.1663189E+00
          2   -1    0    0  503    0 -0.00000000000E+00  0.00000000000E+00  0.19338281293E+01  0.19338281293E+01  0.00000000000E+00 0.  1.
         21   -1    0    0  501  502  0.00000000000E+00 -0.00000000000E+00 -0.96794599301E+03  0.96794599301E+03  0.00000000000E+00 0.  1.
         21    1    1    2  503  502  0.24716807010E+02 -0.25539032186E+01 -0.87998838153E+03  0.88033913612E+03  0.00000000000E+00 0.  1.
          2    1    1    2  501    0 -0.24716807010E+02  0.25539032186E+01 -0.86023783356E+02  0.89540685017E+02  0.00000000000E+00 0.  1.
<mgrwt>
<rscale>  2 0.24848400E+02</rscale>
<asrwt>0</asrwt>
<pdfrwt beam="2">  1       21 0.14891502E+00 0.24848400E+02</pdfrwt>
<pdfrwt beam="1">  1        2 0.29751152E-03 0.24848400E+02</pdfrwt>
<totfact> 0.23959143E+05</totfact>
</mgrwt>
</event>
<event>
 4    1  0.2185255E+006  0.3214872E+02  0.7546771E-02  0.1575484E+00
         21   -1    0    0  503  502  0.00000000000E+00  0.00000000000E+00  0.75028041025E+01  0.75028041025E+01  0.00000000000E+00 0.  1.
          2   -1    0    0  502    0 -0.00000000000E+00 -0.00000000000E+00 -0.14250445856E+03  0.14250445856E+03  0.00000000000E+00 0.  1.
         21    1    1    2  503  501  0.23910854250E+02 -0.21489798927E+02 -0.53806486916E+02  0.62679170728E+02  0.00000000000E+00 0.  1.
          2    1    1    2  501    0 -0.23910854250E+02  0.21489798927E+02 -0.81195167539E+02  0.87328091933E+02  0.00000000000E+00 0.  1.
<mgrwt>
<rscale>  2 0.32148723E+02</rscale>
<asrwt>0</asrwt>
<pdfrwt beam="1">  1       21 0.11542776E-02 0.32148723E+02</pdfrwt>
<pdfrwt beam="2">  1        2 0.21923762E-01 0.32148723E+02</pdfrwt>
<totfact> 0.66970723E+06</totfact>
</mgrwt>
</event>
<event>
 4    1  0.2185255E+006  0.2316751E+02  0.7546771E-02  0.1688809E+00
          1   -1    0    0  503    0 -0.00000000000E+00  0.00000000000E+00  0.27101853674E+03  0.27101853674E+03  0.00000000000E+00 0.  1.
         21   -1    0    0  501  502  0.00000000000E+00 -0.00000000000E+00 -0.19829737791E+01  0.19829737791E+01  0.00000000000E+00 0. -1.
         21    1    1    2  503  502 -0.13337174465E+02 -0.18943429076E+02  0.13940501147E+03  0.14131698748E+03  0.00000000000E+00 0. -1.
          1    1    1    2  501    0  0.13337174465E+02  0.18943429076E+02  0.12963055149E+03  0.13168452304E+03  0.00000000000E+00 0.  1.
<mgrwt>
<rscale>  2 0.23167514E+02</rscale>
<asrwt>0</asrwt>
<pdfrwt beam="2">  1       21 0.30507310E-03 0.23167514E+02</pdfrwt>
<pdfrwt beam="1">  1        1 0.41695130E-01 0.23167514E+02</pdfrwt>
<totfact> 0.16823259E+07</totfact>
</mgrwt>
</event>
<event>
 4    1  0.2185255E+006  0.2270420E+02  0.7546771E-02  0.1696350E+00
         21   -1    0    0  503  502  0.00000000000E+00  0.00000000000E+00  0.12790683759E+01  0.12790683759E+01  0.00000000000E+00 0. -1.
          2   -1    0    0  502    0 -0.00000000000E+00 -0.00000000000E+00 -0.75162340768E+03  0.75162340768E+03  0.00000000000E+00 0. -1.
         21    1    1    2  503  501  0.95664413542E+01  0.20590378300E+02 -0.11879514749E+03  0.12094530807E+03  0.00000000000E+00 0. -1.
          2    1    1    2  501    0 -0.95664413542E+01 -0.20590378300E+02 -0.63154919182E+03  0.63195716798E+03  0.00000000000E+00 0. -1.
<mgrwt>
<rscale>  2 0.22704195E+02</rscale>
<asrwt>0</asrwt>
<pdfrwt beam="1">  1       21 0.19678005E-03 0.22704195E+02</pdfrwt>
<pdfrwt beam="2">  1        2 0.11563420E+00 0.22704195E+02</pdfrwt>
<totfact> 0.15398021E+07</totfact>
</mgrwt>
</event>
<event>
 4    1  0.2185255E+006  0.2600259E+02  0.7546771E-02  0.1647005E+00
         21   -1    0    0  501  502  0.00000000000E+00  0.00000000000E+00  0.33299300920E+01  0.33299300920E+01  0.00000000000E+00 0. -1.
          3   -1    0    0  503    0 -0.00000000000E+00 -0.00000000000E+00 -0.65295290294E+03  0.65295290294E+03  0.00000000000E+00 0.  1.
         21    1    1    2  503  502  0.14075552396E+02 -0.21863524665E+02 -0.52428113742E+02  0.58522149624E+02  0.00000000000E+00 0. -1.
          3    1    1    2  501    0 -0.14075552396E+02  0.21863524665E+02 -0.59719485911E+03  0.59776068341E+03  0.00000000000E+00 0.  1.
<mgrwt>
<rscale>  2 0.26002594E+02</rscale>
<asrwt>0</asrwt>
<pdfrwt beam="1">  1       21 0.51229669E-03 0.26002594E+02</pdfrwt>
<pdfrwt beam="2">  1        3 0.10045434E+00 0.26002594E+02</pdfrwt>
<totfact> 0.31836753E+05</totfact>
</mgrwt>
</event>
<event>
 4    1  0.2185255E+006  0.2698957E+02  0.7546771E-02  0.1633967E+00
         -2   -1    0    0    0  501 -0.00000000000E+00  0.00000000000E+00  0.74284991409E+03  0.74284991409E+03  0.00000000000E+00 0.  1.
         21   -1    0    0  503  502  0.00000000000E+00 -0.00000000000E+00 -0.10532307902E+01  0.10532307902E+01  0.00000000000E+00 0. -1.
         21    1    1    2  503  501 -0.17347825070E+02 -0.20675824389E+02  0.27322128501E+03  0.27455110150E+03  0.00000000000E+00 0. -1.
         -2    1    1    2    0  502  0.17347825070E+02  0.20675824389E+02  0.46857539829E+03  0.46935204338E+03  0.00000000000E+00 0.  1.
<mgrwt>
<rscale>  2 0.26989567E+02</rscale>
<asrwt>0</asrwt>
<pdfrwt beam="2">  1       21 0.16203610E-03 0.26989567E+02</pdfrwt>
<pdfrwt beam="1">  1       -2 0.11428418E+00 0.26989567E+02</pdfrwt>
<totfact> 0.22497081E+06</totfact>
</mgrwt>
</event>
<event>
 4    1  0.2185255E+006  0.2495510E+02  0.7546771E-02  0.1661648E+00
         21   -1    0    0  503  502  0.00000000000E+00  0.00000000000E+00  0.34940036405E+01  0.34940036405E+01  0.00000000000E+00 0.  1.
          2   -1    0    0  502    0 -0.00000000000E+00 -0.00000000000E+00 -0.91834136029E+03  0.91834136029E+03  0.00000000000E+00 0. -1.
         21    1    1    2  503  501 -0.17293085063E+02 -0.17991841201E+02 -0.43645027348E+02  0.50275695451E+02  0.00000000000E+00 0.  1.
          2    1    1    2  501    0  0.17293085063E+02  0.17991841201E+02 -0.87120232930E+03  0.87155966848E+03  0.00000000000E+00 0. -1.
<mgrwt>
<rscale>  2 0.24955103E+02</rscale>
<asrwt>0</asrwt>
<pdfrwt beam="1">  1       21 0.53753841E-03 0.24955103E+02</pdfrwt>
<pdfrwt beam="2">  1        2 0.14128345E+00 0.24955103E+02</pdfrwt>
<totfact> 0.28767704E+06</totfact>
</mgrwt>
</event>
<event>
 4    1  0.2185255E+006  0.2396819E+02  0.7546771E-02  0.1676280E+00
         21   -1    0    0  501  502  0.00000000000E+00  0.00000000000E+00  0.89328081862E+01  0.89328081862E+01  0.00000000000E+00 0. -1.
          1   -1    0    0  503    0 -0.00000000000E+00 -0.00000000000E+00 -0.65931890405E+03  0.65931890405E+03  0.00000000000E+00 0. -1.
         21    1    1    2  503  502  0.12555720504E+02 -0.20416368758E+02 -0.77806873566E+01  0.25199470756E+02  0.00000000000E+00 0. -1.
          1    1    1    2  501    0 -0.12555720504E+02  0.20416368758E+02 -0.64260540851E+03  0.64305224148E+03  0.00000000000E+00 0. -1.
<mgrwt>
<rscale>  2 0.23968192E+02</rscale>
<asrwt>0</asrwt>
<pdfrwt beam="1">  1       21 0.13742778E-02 0.23968192E+02</pdfrwt>
<pdfrwt beam="2">  1        1 0.10143371E+00 0.23968192E+02</pdfrwt>
<totfact> 0.62709347E+05</totfact>
</mgrwt>
</event>
<event>
 4    1  0.2185255E+006  0.2486968E+02  0.7546771E-02  0.1662881E+00
          4   -1    0    0  502    0 -0.00000000000E+00  0.00000000000E+00  0.36218439949E+02  0.36218439949E+02  0.00000000000E+00 0.  1.
         21   -1    0    0  503  502  0.00000000000E+00 -0.00000000000E+00 -0.12241100432E+04  0.12241100432E+04  0.00000000000E+00 0. -1.
         21    1    1    2  503  501 -0.18733050829E+02  0.16357681997E+02 -0.12196990481E+04  0.12199525683E+04  0.00000000000E+00 0. -1.
          4    1    1    2  501    0  0.18733050829E+02 -0.16357681997E+02  0.31807444840E+02  0.40375914862E+02  0.00000000000E+00 0.  1.
<mgrwt>
<rscale>  2 0.24869679E+02</rscale>
<asrwt>0</asrwt>
<pdfrwt beam="2">  1       21 0.18832459E+00 0.24869679E+02</pdfrwt>
<pdfrwt beam="1">  1        4 0.55720685E-02 0.24869679E+02</pdfrwt>
<totfact> 0.12933177E+03</totfact>
</mgrwt>
</event>
<event>
 4    1  0.2185255E+006  0.2273056E+02  0.7546771E-02  0.1695915E+00
         21   -1    0    0  503  502  0.00000000000E+00  0.00000000000E+00  0.95291719633E+01  0.95291719633E+01  0.00000000000E+00 0.  1.
          1   -1    0    0  502    0 -0.00000000000E+00 -0.00000000000E+00 -0.35459369002E+03  0.35459369002E+03  0.00000000000E+00 0.  1.
         21    1    1    2  503  501 -0.13952591365E+02 -0.17944460783E+02 -0.49674247601E+01  0.23267010710E+02  0.00000000000E+00 0.  1.
          1    1    1    2  501    0  0.13952591365E+02  0.17944460783E+02 -0.34009709329E+03  0.34085585127E+03  0.00000000000E+00 0.  1.
<mgrwt>
<rscale>  2 0.22730563E+02</rscale>
<asrwt>0</asrwt>
<pdfrwt beam="1">  1       21 0.14660262E-02 0.22730563E+02</pdfrwt>
<pdfrwt beam="2">  1        1 0.54552884E-01 0.22730563E+02</pdfrwt>
<totfact> 0.11903868E+06</totfact>
</mgrwt>
</event>
<event>
 4    1  0.2185255E+006  0.2822915E+02  0.7546771E-02  0.1618530E+00
         21   -1    0    0  501  502  0.00000000000E+00  0.00000000000E+00  0.34183688147E+01  0.34183688147E+01  0.00000000000E+00 0. -1.
          2   -1    0    0  503    0 -0.00000000000E+00 -0.00000000000E+00 -0.62356589588E+03  0.62356589588E+03  0.00000000000E+00 0.  1.
         21    1    1    2  503  502  0.49045024309E+01 -0.27799829472E+02 -0.62008022501E+02  0.68131340199E+02  0.00000000000E+00 0. -1.
          2    1    1    2  501    0 -0.49045024309E+01  0.27799829472E+02 -0.55813950456E+03  0.55885292450E+03  0.00000000000E+00 0.  1.
<mgrwt>
<rscale>  2 0.28229146E+02</rscale>
<asrwt>0</asrwt>
<pdfrwt beam="1">  1       21 0.52590280E-03 0.28229146E+02</pdfrwt>
<pdfrwt beam="2">  1        2 0.95933232E-01 0.28229146E+02</pdfrwt>
<totfact> 0.47130979E+06</totfact>
</mgrwt>
</event>
<event>
 4    1  0.2185255E+006  0.2226679E+02  0.7546771E-02  0.1703678E+00
         21   -1    0    0  503  502  0.00000000000E+00  0.00000000000E+00  0.51635516628E+01  0.51635516628E+01  0.00000000000E+00 0.  1.
         -1   -1    0    0    0  501 -0.00000000000E+00 -0.00000000000E+00 -0.48241853435E+03  0.48241853435E+03  0.00000000000E+00 0.  1.
         21    1    1    2  503  501 -0.20245649120E+02 -0.92694962406E+01 -0.20443503878E+02  0.30228243741E+02  0.00000000000E+00 0.  1.
         -1    1    1    2    0  502  0.20245649120E+02  0.92694962406E+01 -0.45681147881E+03  0.45735384227E+03  0.00000000000E+00 0.  1.
<mgrwt>
<rscale>  2 0.22266788E+02</rscale>
<asrwt>0</asrwt>
<pdfrwt beam="1">  1       21 0.79439237E-03 0.22266788E+02</pdfrwt>
<pdfrwt beam="2">  1       -1 0.74218254E-01 0.22266788E+02</pdfrwt>
<totfact> 0.71017246E+05</totfact>
</mgrwt>
</event>
<event>
 4    1  0.2185255E+006  0.2420694E+02  0.7546771E-02  0.1672661E+00
         21   -1    0    0  503  502  0.00000000000E+00  0.00000000000E+00  0.11974854557E+04  0.11974854557E+04  0.00000000000E+00 0. -1.
          2   -1    0    0  502    0 -0.00000000000E+00 -0.00000000000E+00 -0.64827266740E+01  0.64827266740E+01  0.00000000000E+00 0. -1.
         21    1    1    2  503  501  0.14737623417E+02 -0.19203598856E+02  0.11743198084E+04  0.11745692778E+04  0.00000000000E+00 0. -1.
          2    1    1    2  501    0 -0.14737623417E+02  0.19203598856E+02  0.16682920568E+02  0.29398904600E+02  0.00000000000E+00 0. -1.
<mgrwt>
<rscale>  2 0.24206936E+02</rscale>
<asrwt>0</asrwt>
<pdfrwt beam="1">  1       21 0.18422836E+00 0.24206936E+02</pdfrwt>
<pdfrwt beam="2">  1        2 0.99734352E-03 0.24206936E+02</pdfrwt>
<totfact> 0.28983672E+04</totfact>
</mgrwt>
</event>
<event>
 4    1  0.2185255E+006  0.2073028E+02  0.7546771E-02  0.1731184E+00
         21   -1    0    0  501  502  0.00000000000E+00  0.00000000000E+00  0.19766987440E+02  0.19766987440E+02  0.00000000000E+00 0. -1.
          1   -1    0    0  503    0 -0.00000000000E+00 -0.00000000000E+00 -0.65198435569E+03  0.65198435569E+03  0.00000000000E+00 0.  1.
         21    1    1    2  503  502  0.32107649402E+01  0.20480125680E+02  0.14119597049E+02  0.25082017068E+02  0.00000000000E+00 0. -1.
          1    1    1    2  501    0 -0.32107649402E+01 -0.20480125680E+02 -0.64633696530E+03  0.64666932606E+03  0.00000000000E+00 0.  1.
<mgrwt>
<rscale>  2 0.20730281E+02</rscale>
<asrwt>0</asrwt>
<pdfrwt beam="1">  1       21 0.30410750E-02 0.20730281E+02</pdfrwt>
<pdfrwt beam="2">  1        1 0.10030528E+00 0.20730281E+02</pdfrwt>
<totfact> 0.18410282E+05</totfact>
</mgrwt>
</event>
<event>
 4    1  0.2185255E+006  0.2246097E+02  0.7546771E-02  0.1700400E+00
         21   -1    0    0  503  502  0.00000000000E+00  0.00000000000E+00  0.29944640893E+02  0.29944640893E+02  0.00000000000E+00 0.  1.
          2   -1    0    0  502    0 -0.00000000000E+00 -0.00000000000E+00 -0.18258046124E+03  0.18258046124E+03  0.00000000000E+00 0. -1.
         21    1    1    2  503  501 -0.74513792528E+01  0.21188963748E+02  0.24923318269E+02  0.33550961700E+02  0.00000000000E+00 0.  1.
          2    1    1    2  501    0  0.74513792528E+01 -0.21188963748E+02 -0.17755913861E+03  0.17897414043E+03  0.00000000000E+00 0. -1.
<mgrwt>
<rscale>  2 0.22460971E+02</rscale>
<asrwt>0</asrwt>
<pdfrwt beam="1">  1       21 0.46068678E-02 0.22460971E+02</pdfrwt>
<pdfrwt beam="2">  1        2 0.28089302E-01 0.22460971E+02</pdfrwt>
<totfact> 0.55983533E+05</totfact>
</mgrwt>
</event>
<event>
 4    1  0.2185255E+006  0.2045737E+02  0.7546771E-02  0.1736383E+00
         -4   -1    0    0    0  501 -0.00000000000E+00  0.00000000000E+00  0.17684346023E+02  0.17684346023E+02  0.00000000000E+00 0. -1.
         21   -1    0    0  501  502  0.00000000000E+00 -0.00000000000E+00 -0.31030590563E+02  0.31030590563E+02  0.00000000000E+00 0. -1.
         21    1    1    2  503  502 -0.12332309504E+02  0.16322323453E+02 -0.18539936867E+02  0.27608574024E+02  0.00000000000E+00 0. -1.
         -4    1    1    2    0  503  0.12332309504E+02 -0.16322323453E+02  0.51936923266E+01  0.21106362562E+02  0.00000000000E+00 0. -1.
<mgrwt>
<rscale>  2 0.20457373E+02</rscale>
<asrwt>0</asrwt>
<pdfrwt beam="2">  1       21 0.47739370E-02 0.20457373E+02</pdfrwt>
<pdfrwt beam="1">  1       -4 0.27206686E-02 0.20457373E+02</pdfrwt>
<totfact> 0.37824942E+06</totfact>
</mgrwt>
</event>
<event>
 4    1  0.2185255E+006  0.2261516E+02  0.7546771E-02  0.1697825E+00
         -1   -1    0    0    0  501 -0.00000000000E+00  0.00000000000E+00  0.87811401117E+03  0.87811401117E+03  0.00000000000E+00 0.  1.
         21   -1    0    0  503  502  0.00000000000E+00 -0.00000000000E+00 -0.22525086755E+01  0.22525086755E+01  0.00000000000E+00 0.  1.
         21    1    1    2  503  501 -0.19872050851E+02 -0.10795690366E+02  0.58905666764E+02  0.63097725097E+02  0.00000000000E+00 0.  1.
         -1    1    1    2    0  502  0.19872050851E+02  0.10795690366E+02  0.81695583573E+03  0.81726879475E+03  0.00000000000E+00 0.  1.
<mgrwt>
<rscale>  2 0.22615157E+02</rscale>
<asrwt>0</asrwt>
<pdfrwt beam="2">  1       21 0.34654050E-03 0.22615157E+02</pdfrwt>
<pdfrwt beam="1">  1       -1 0.13509419E+00 0.22615157E+02</pdfrwt>
<totfact> 0.68914698E+05</totfact>
</mgrwt>
</event>
<event>
 4    1  0.2185255E+006  0.2148210E+02  0.7546771E-02  0.1717366E+00
          1   -1    0    0  502    0 -0.00000000000E+00  0.00000000000E+00  0.40992064372E+02  0.40992064372E+02  0.00000000000E+00 0. -1.
         21   -1    0    0  503  502  0.00000000000E+00 -0.00000000000E+00 -0.40998448222E+03  0.40998448222E+03  0.00000000000E+00 0. -1.
         21    1    1    2  503  501  0.21445291206E+02  0.12569812008E+01 -0.40686708147E+03  0.40743380137E+03  0.00000000000E+00 0. -1.
          1    1    1    2  501    0 -0.21445291206E+02 -0.12569812008E+01  0.37874663623E+02  0.43542745219E+02  0.00000000000E+00 0. -1.
<mgrwt>
<rscale>  2 0.21482098E+02</rscale>
<asrwt>0</asrwt>
<pdfrwt beam="2">  1       21 0.63074537E-01 0.21482098E+02</pdfrwt>
<pdfrwt beam="1">  1        1 0.63064713E-02 0.21482098E+02</pdfrwt>
<totfact> 0.27857712E+04</totfact>
</mgrwt>
</event>
<event>
 4    1  0.2185255E+006  0.2438230E+02  0.7546771E-02  0.1670036E+00
         21   -1    0    0  501  502  0.00000000000E+00  0.00000000000E+00  0.14388572106E+01  0.14388572106E+01  0.00000000000E+00 0.  1.
          2   -1    0    0  503    0 -0.00000000000E+00 -0.00000000000E+00 -0.50891323773E+03  0.50891323773E+03  0.00000000000E+00 0.  1.
         21    1    1    2  503  502  0.13569053452E+02  0.20257777275E+02 -0.14305809609E+03  0.14512103779E+03  0.00000000000E+00 0.  1.
          2    1    1    2  501    0 -0.13569053452E+02 -0.20257777275E+02 -0.36441628443E+03  0.36523105715E+03  0.00000000000E+00 0.  1.
<mgrwt>
<rscale>  2 0.24382304E+02</rscale>
<asrwt>0</asrwt>
<pdfrwt beam="1">  1       21 0.22136287E-03 0.24382304E+02</pdfrwt>
<pdfrwt beam="2">  1        2 0.78294266E-01 0.24382304E+02</pdfrwt>
<totfact> 0.19991673E+07</totfact>
</mgrwt>
</event>
<event>
 4    1  0.2185255E+006  0.3217410E+02  0.7546771E-02  0.1575230E+00
          2   -1    0    0  503    0 -0.00000000000E+00  0.00000000000E+00  0.31964653649E+02  0.31964653649E+02  0.00000000000E+00 0. -1.
         21   -1    0    0  501  502  0.00000000000E+00 -0.00000000000E+00 -0.80882332218E+02  0.80882332218E+02  0.00000000000E+00 0. -1.
         21    1    1    2  503  502 -0.17396937406E+02  0.27065095403E+02 -0.68149881875E+02  0.75362983088E+02  0.00000000000E+00 0. -1.
          2    1    1    2  501    0  0.17396937406E+02 -0.27065095403E+02  0.19232203306E+02  0.37484002778E+02  0.00000000000E+00 0. -1.
<mgrwt>
<rscale>  2 0.32174102E+02</rscale>
<asrwt>0</asrwt>
<pdfrwt beam="2">  1       21 0.12443436E-01 0.32174102E+02</pdfrwt>
<pdfrwt beam="1">  1        2 0.49176389E-02 0.32174102E+02</pdfrwt>
<totfact> 0.84583502E+05</totfact>
</mgrwt>
</event>
<event>
 4    1  0.2185255E+006  0.2532671E+02  0.7546771E-02  0.1656353E+00
         -1   -1    0    0    0  501 -0.00000000000E+00  0.00000000000E+00  0.47186634830E+03  0.47186634830E+03  0.00000000000E+00 0. -1.
         21   -1    0    0  503  502  0.00000000000E+00 -0.00000000000E+00 -0.54948643121E+01  0.54948643121E+01  0.00000000000E+00 0. -1.
         21    1    1    2  503  501 -0.25197250385E+02  0.25575215226E+01  0.26122883166E+02  0.36384713386E+02  0.00000000000E+00 0. -1.
         -1    1    1    2    0  502  0.25197250385E+02 -0.25575215226E+01  0.44024860082E+03  0.44097649922E+03  0.00000000000E+00 0. -1.
<mgrwt>
<rscale>  2 0.25326712E+02</rscale>
<asrwt>0</asrwt>
<pdfrwt beam="2">  1       21 0.84536411E-03 0.25326712E+02</pdfrwt>
<pdfrwt beam="1">  1       -1 0.72594791E-01 0.25326712E+02</pdfrwt>
<totfact> 0.69360987E+05</totfact>
</mgrwt>
</event>
<event>
 4    1  0.2185255E+006  0.2170124E+02  0.7546771E-02  0.1713471E+00
         21   -1    0    0  501  502  0.00000000000E+00  0.00000000000E+00  0.81347468148E+00  0.81347468148E+00  0.00000000000E+00 0.  1.
          2   -1    0    0  503    0 -0.00000000000E+00 -0.00000000000E+00 -0.85911186688E+03  0.85911186688E+03  0.00000000000E+00 0.  1.
         21    1    1    2  503  502  0.18650996576E+02 -0.11094328378E+02 -0.18360653677E+03  0.18488456977E+03  0.00000000000E+00 0.  1.
          2    1    1    2  501    0 -0.18650996576E+02  0.11094328378E+02 -0.67469185543E+03  0.67504077179E+03  0.00000000000E+00 0.  1.
<mgrwt>
<rscale>  2 0.21701239E+02</rscale>
<asrwt>0</asrwt>
<pdfrwt beam="1">  1       21 0.12514962E-03 0.21701239E+02</pdfrwt>
<pdfrwt beam="2">  1        2 0.13217141E+00 0.21701239E+02</pdfrwt>
<totfact> 0.25015042E+07</totfact>
</mgrwt>
</event>
<event>
 4    1  0.2185255E+006  0.2152686E+02  0.7546771E-02  0.1716566E+00
         -3   -1    0    0    0  501 -0.00000000000E+00  0.00000000000E+00  0.11595905791E+02  0.11595905791E+02  0.00000000000E+00 0. -1.
         21   -1    0    0  503  502  0.00000000000E+00 -0.00000000000E+00 -0.31139473905E+03  0.31139473905E+03  0.00000000000E+00 0. -1.
         21    1    1    2  503  501 -0.15776865673E+01  0.21468966107E+02 -0.30067629103E+03  0.30144591155E+03  0.00000000000E+00 0. -1.
         -3    1    1    2    0  502  0.15776865673E+01 -0.21468966107E+02  0.87745777103E+00  0.21544733295E+02  0.00000000000E+00 0. -1.
<mgrwt>
<rscale>  2 0.21526858E+02</rscale>
<asrwt>0</asrwt>
<pdfrwt beam="2">  1       21 0.47906871E-01 0.21526858E+02</pdfrwt>
<pdfrwt beam="1">  1       -3 0.17839860E-02 0.21526858E+02</pdfrwt>
<totfact> 0.16099490E+05</totfact>
</mgrwt>
</event>
<event>
 4    1  0.2185255E+006  0.2284193E+02  0.7546771E-02  0.1694085E+00
         21   -1    0    0  501  502  0.00000000000E+00  0.00000000000E+00  0.10905022888E+01  0.10905022888E+01  0.00000000000E+00 0. -1.
         -1   -1    0    0    0  501 -0.00000000000E+00 -0.00000000000E+00 -0.97292759938E+03  0.97292759938E+03  0.00000000000E+00 0. -1.
         21    1    1    2  503  502  0.15356704025E+02 -0.16909327241E+02 -0.13872718012E+03  0.14059510735E+03  0.00000000000E+00 0. -1.
         -1    1    1    2    0  503 -0.15356704025E+02  0.16909327241E+02 -0.83310991697E+03  0.83342299432E+03  0.00000000000E+00 0. -1.
<mgrwt>
<rscale>  2 0.22841929E+02</rscale>
<asrwt>0</asrwt>
<pdfrwt beam="1">  1       21 0.16776934E-03 0.22841929E+02</pdfrwt>
<pdfrwt beam="2">  1       -1 0.14968138E+00 0.22841929E+02</pdfrwt>
<totfact> 0.15449728E+06</totfact>
</mgrwt>
</event>
<event>
 4    1  0.2185255E+006  0.3082289E+02  0.7546771E-02  0.1589167E+00
          2   -1    0    0  503    0 -0.00000000000E+00  0.00000000000E+00  0.20620509876E+04  0.20620509876E+04  0.00000000000E+00 0.  1.
         21   -1    0    0  501  502  0.00000000000E+00 -0.00000000000E+00 -0.10674546059E+01  0.10674546059E+01  0.00000000000E+00 0.  1.
         21    1    1    2  503  502 -0.14747628018E+02 -0.27065803609E+02  0.25278657038E+03  0.25465879216E+03  0.00000000000E+00 0.  1.
          2    1    1    2  501    0  0.14747628018E+02  0.27065803609E+02  0.18081969626E+04  0.18084596500E+04  0.00000000000E+00 0.  1.
<mgrwt>
<rscale>  2 0.30822885E+02</rscale>
<asrwt>0</asrwt>
<pdfrwt beam="2">  1       21 0.16422544E-03 0.30822885E+02</pdfrwt>
<pdfrwt beam="1">  1        2 0.31723542E+00 0.30822885E+02</pdfrwt>
<totfact> 0.46419856E+06</totfact>
</mgrwt>
</event>
<event>
 4    1  0.2185255E+006  0.3986403E+02  0.7546771E-02  0.1509214E+00
         21   -1    0    0  503  502  0.00000000000E+00  0.00000000000E+00  0.22139138573E+04  0.22139138573E+04  0.00000000000E+00 0. -1.
          3   -1    0    0  502    0 -0.00000000000E+00 -0.00000000000E+00 -0.10985095114E+01  0.10985095114E+01  0.00000000000E+00 0. -1.
         21    1    1    2  503  501 -0.37839032722E+02 -0.12543862243E+02  0.17584004506E+04  0.17588522637E+04  0.00000000000E+00 0. -1.
          3    1    1    2  501    0  0.37839032722E+02  0.12543862243E+02  0.45441489722E+03  0.45616010314E+03  0.00000000000E+00 0. -1.
<mgrwt>
<rscale>  2 0.39864030E+02</rscale>
<asrwt>0</asrwt>
<pdfrwt beam="1">  1       21 0.34059856E+00 0.39864030E+02</pdfrwt>
<pdfrwt beam="2">  1        3 0.16900324E-03 0.39864030E+02</pdfrwt>
<totfact> 0.39271941E+04</totfact>
</mgrwt>
</event>
<event>
 4    1  0.2185255E+006  0.2094905E+02  0.7546771E-02  0.1727088E+00
          1   -1    0    0  503    0 -0.00000000000E+00  0.00000000000E+00  0.11761823540E+04  0.11761823540E+04  0.00000000000E+00 0.  1.
         21   -1    0    0  501  502  0.00000000000E+00 -0.00000000000E+00 -0.52803668628E+01  0.52803668628E+01  0.00000000000E+00 0.  1.
         21    1    1    2  503  502  0.20461044489E+02  0.44953848854E+01  0.15973298733E+02  0.26344052446E+02  0.00000000000E+00 0.  1.
          1    1    1    2  501    0 -0.20461044489E+02 -0.44953848854E+01  0.11549286884E+04  0.11551186684E+04  0.00000000000E+00 0.  1.
<mgrwt>
<rscale>  2 0.20949053E+02</rscale>
<asrwt>0</asrwt>
<pdfrwt beam="2">  1       21 0.81236507E-03 0.20949053E+02</pdfrwt>
<pdfrwt beam="1">  1        1 0.18095092E+00 0.20949053E+02</pdfrwt>
<totfact> 0.58025835E+05</totfact>
</mgrwt>
</event>
<event>
 4    1  0.2185255E+006  0.2549612E+02  0.7546771E-02  0.1653977E+00
          1   -1    0    0  503    0 -0.00000000000E+00  0.00000000000E+00  0.23749725699E+03  0.23749725699E+03  0.00000000000E+00 0. -1.
         21   -1    0    0  501  502  0.00000000000E+00 -0.00000000000E+00 -0.98501768681E+02  0.98501768681E+02  0.00000000000E+00 0. -1.
         21    1    1    2  503  502  0.96518957490E+01 -0.23598579956E+02 -0.96151202748E+02  0.99474146678E+02  0.00000000000E+00 0. -1.
          1    1    1    2  501    0 -0.96518957490E+01  0.23598579956E+02  0.23514669105E+03  0.23652487899E+03  0.00000000000E+00 0. -1.
<mgrwt>
<rscale>  2 0.25496119E+02</rscale>
<asrwt>0</asrwt>
<pdfrwt beam="2">  1       21 0.15154118E-01 0.25496119E+02</pdfrwt>
<pdfrwt beam="1">  1        1 0.36538039E-01 0.25496119E+02</pdfrwt>
<totfact> 0.46010782E+04</totfact>
</mgrwt>
</event>
<event>
 4    1  0.2185255E+006  0.2744552E+02  0.7546771E-02  0.1628173E+00
         21   -1    0    0  501  502  0.00000000000E+00  0.00000000000E+00  0.76986416499E+01  0.76986416499E+01  0.00000000000E+00 0.  1.
          1   -1    0    0  503    0 -0.00000000000E+00 -0.00000000000E+00 -0.17473833676E+03  0.17473833676E+03  0.00000000000E+00 0.  1.
         21    1    1    2  503  502 -0.23731745744E+00  0.27444489170E+02 -0.23008131266E+02  0.35813829866E+02  0.00000000000E+00 0.  1.
          1    1    1    2  501    0  0.23731745744E+00 -0.27444489170E+02 -0.14403156384E+03  0.14662314854E+03  0.00000000000E+00 0.  1.
<mgrwt>
<rscale>  2 0.27445515E+02</rscale>
<asrwt>0</asrwt>
<pdfrwt beam="1">  1       21 0.11844064E-02 0.27445515E+02</pdfrwt>
<pdfrwt beam="2">  1        1 0.26882821E-01 0.27445515E+02</pdfrwt>
<totfact> 0.39049067E+06</totfact>
</mgrwt>
</event>
<event>
 4    1  0.2185255E+006  0.2100423E+02  0.7546771E-02  0.1726065E+00
         21   -1    0    0  503  502  0.00000000000E+00  0.00000000000E+00  0.13897299340E+01  0.13897299340E+01  0.00000000000E+00 0. -1.
         -1   -1    0    0    0  501 -0.00000000000E+00 -0.00000000000E+00 -0.39976187317E+03  0.39976187317E+03  0.00000000000E+00 0. -1.
         21    1    1    2  503  501  0.46804088776E-01 -0.21004181586E+02 -0.10817509412E+03  0.11019541199E+03  0.00000000000E+00 0. -1.
         -1    1    1    2    0  502 -0.46804088776E-01  0.21004181586E+02 -0.29019704911E+03  0.29095619111E+03  0.00000000000E+00 0. -1.
<mgrwt>
<rscale>  2 0.21004234E+02</rscale>
<asrwt>0</asrwt>
<pdfrwt beam="1">  1       21 0.21380468E-03 0.21004234E+02</pdfrwt>
<pdfrwt beam="2">  1       -1 0.61501804E-01 0.21004234E+02</pdfrwt>
<totfact> 0.67768172E+06</totfact>
</mgrwt>
</event>
<event>
 4    1  0.2185255E+006  0.2362079E+02  0.7546771E-02  0.1681641E+00
         21   -1    0    0  503  502  0.00000000000E+00  0.00000000000E+00  0.48141325078E+02  0.48141325078E+02  0.00000000000E+00 0. -1.
         -1   -1    0    0    0  501 -0.00000000000E+00 -0.00000000000E+00 -0.18033484075E+02  0.18033484075E+02  0.00000000000E+00 0.  1.
         21    1    1    2  503  501  0.10719365320E+02 -0.21048439705E+02  0.34832482223E+02  0.42086142906E+02  0.00000000000E+00 0. -1.
         -1    1    1    2    0  502 -0.10719365320E+02  0.21048439705E+02 -0.47246412209E+01  0.24088666247E+02  0.00000000000E+00 0.  1.
<mgrwt>
<rscale>  2 0.23620788E+02</rscale>
<asrwt>0</asrwt>
<pdfrwt beam="1">  1       21 0.74063577E-02 0.23620788E+02</pdfrwt>
<pdfrwt beam="2">  1       -1 0.27743822E-02 0.23620788E+02</pdfrwt>
<totfact> 0.34001666E+06</totfact>
</mgrwt>
</event>
<event>
 4    1  0.2185255E+006  0.2225177E+02  0.7546771E-02  0.1703934E+00
          2   -1    0    0  503    0 -0.00000000000E+00  0.00000000000E+00  0.20406283644E+03  0.20406283644E+03  0.00000000000E+00 0.  1.
         21   -1    0    0  501  502  0.00000000000E+00 -0.00000000000E+00 -0.32007649984E+01  0.32007649984E+01  0.00000000000E+00 0. -1.
         21    1    1    2  503  502 -0.16264437303E+02  0.15185820214E+02  0.49458657339E+02  0.54233751872E+02  0.00000000000E+00 0. -1.
          2    1    1    2  501    0  0.16264437303E+02 -0.15185820214E+02  0.15140341410E+03  0.15302984956E+03  0.00000000000E+00 0.  1.
<mgrwt>
<rscale>  2 0.22251765E+02</rscale>
<asrwt>0</asrwt>
<pdfrwt beam="2">  1       21 0.49242554E-03 0.22251765E+02</pdfrwt>
<pdfrwt beam="1">  1        2 0.31394272E-01 0.22251765E+02</pdfrwt>
<totfact> 0.14998491E+07</totfact>
</mgrwt>
</event>
<event>
 4    1  0.2185255E+006  0.2181470E+02  0.7546771E-02  0.1711477E+00
         21   -1    0    0  503  502  0.00000000000E+00  0.00000000000E+00  0.37725602267E+02  0.37725602267E+02  0.00000000000E+00 0. -1.
          2   -1    0    0  502    0 -0.00000000000E+00 -0.00000000000E+00 -0.53947724510E+03  0.53947724510E+03  0.00000000000E+00 0.  1.
         21    1    1    2  503  501 -0.26516475896E+00 -0.21813086129E+02  0.34331547643E+02  0.40675990490E+02  0.00000000000E+00 0. -1.
          2    1    1    2  501    0  0.26516475896E+00  0.21813086129E+02 -0.53608319047E+03  0.53652685687E+03  0.00000000000E+00 0.  1.
<mgrwt>
<rscale>  2 0.21814698E+02</rscale>
<asrwt>0</asrwt>
<pdfrwt beam="1">  1       21 0.58039391E-02 0.21814698E+02</pdfrwt>
<pdfrwt beam="2">  1        2 0.82996495E-01 0.21814698E+02</pdfrwt>
<totfact> 0.13144214E+05</totfact>
</mgrwt>
</event>
<event>
 4    1  0.2185255E+006  0.2638798E+02  0.7546771E-02  0.1641831E+00
          3   -1    0    0  502    0 -0.00000000000E+00  0.00000000000E+00  0.11633134660E+03  0.11633134660E+03  0.00000000000E+00 0.  1.
         21   -1    0    0  503  502  0.00000000000E+00 -0.00000000000E+00 -0.27500768821E+02  0.27500768821E+02  0.00000000000E+00 0.  1.
         21    1    1    2  503  501 -0.23403072163E+02 -0.12191049306E+02 -0.19194615655E+02  0.32630641121E+02  0.00000000000E+00 0.  1.
          3    1    1    2  501    0  0.23403072163E+02  0.12191049306E+02  0.10802519343E+03  0.11120147430E+03  0.00000000000E+00 0.  1.
<mgrwt>
<rscale>  2 0.26387980E+02</rscale>
<asrwt>0</asrwt>
<pdfrwt beam="2">  1       21 0.42308876E-02 0.26387980E+02</pdfrwt>
<pdfrwt beam="1">  1        3 0.17897130E-01 0.26387980E+02</pdfrwt>
<totfact> 0.32404915E+05</totfact>
</mgrwt>
</event>
<event>
 4    1  0.2185255E+006  0.2875841E+02  0.7546771E-02  0.1612233E+00
         21   -1    0    0  503  502  0.00000000000E+00  0.00000000000E+00  0.82015461221E+01  0.82015461221E+01  0.00000000000E+00 0. -1.
          2   -1    0    0  502    0 -0.00000000000E+00 -0.00000000000E+00 -0.87644787576E+03  0.87644787576E+03  0.00000000000E+00 0. -1.
         21    1    1    2  503  501 -0.28398778794E+02 -0.45338390666E+01 -0.18021763410E+02  0.33938625341E+02  0.00000000000E+00 0. -1.
          2    1    1    2  501    0  0.28398778794E+02  0.45338390666E+01 -0.85022456623E+03  0.85071079654E+03  0.00000000000E+00 0. -1.
<mgrwt>
<rscale>  2 0.28758413E+02</rscale>
<asrwt>0</asrwt>
<pdfrwt beam="1">  1       21 0.12617776E-02 0.28758413E+02</pdfrwt>
<pdfrwt beam="2">  1        2 0.13483800E+00 0.28758413E+02</pdfrwt>
<totfact> 0.86535396E+05</totfact>
</mgrwt>
</event>
<event>
 4    1  0.2185255E+006  0.2195530E+02  0.7546771E-02  0.1709026E+00
         21   -1    0    0  501  502  0.00000000000E+00  0.00000000000E+00  0.98382900008E+02  0.98382900008E+02  0.00000000000E+00 0. -1.
          1   -1    0    0  503    0 -0.00000000000E+00 -0.00000000000E+00 -0.77607272662E+03  0.77607272662E+03  0.00000000000E+00 0.  1.
         21    1    1    2  503  502 -0.21845280239E+02 -0.21952121265E+01  0.97000538582E+02  0.99454209113E+02  0.00000000000E+00 0. -1.
          1    1    1    2  501    0  0.21845280239E+02  0.21952121265E+01 -0.77469036519E+03  0.77500141752E+03  0.00000000000E+00 0.  1.
<mgrwt>
<rscale>  2 0.21955301E+02</rscale>
<asrwt>0</asrwt>
<pdfrwt beam="1">  1       21 0.15135831E-01 0.21955301E+02</pdfrwt>
<pdfrwt beam="2">  1        1 0.11939580E+00 0.21955301E+02</pdfrwt>
<totfact> 0.10976363E+04</totfact>
</mgrwt>
</event>
<event>
 4    1  0.2185255E+006  0.2429028E+02  0.7546771E-02  0.1671410E+00
         21   -1    0    0  503  502  0.00000000000E+00  0.00000000000E+00  0.36306614441E+03  0.36306614441E+03  0.00000000000E+00 0.  1.
          2   -1    0    0  502    0 -0.00000000000E+00 -0.00000000000E+00 -0.68892066311E+01  0.68892066311E+01  0.00000000000E+00 0. -1.
         21    1    1    2  503  501 -0.38422740632E+01 -0.23984465216E+02  0.33978368896E+03  0.34065080790E+03  0.00000000000E+00 0.  1.
          2    1    1    2  501    0  0.38422740632E+01  0.23984465216E+02  0.16393248819E+02  0.29304543138E+02  0.00000000000E+00 0. -1.
<mgrwt>
<rscale>  2 0.24290279E+02</rscale>
<asrwt>0</asrwt>
<pdfrwt beam="1">  1       21 0.55856315E-01 0.24290279E+02</pdfrwt>
<pdfrwt beam="2">  1        2 0.10598782E-02 0.24290279E+02</pdfrwt>
<totfact> 0.37508447E+05</totfact>
</mgrwt>
</event>
<event>
 4    1  0.2185255E+006  0.3084739E+02  0.7546771E-02  0.1588906E+00
         21   -1    0    0  503  502  0.00000000000E+00  0.00000000000E+00  0.15517817417E+01  0.15517817417E+01  0.00000000000E+00 0. -1.
         -3   -1    0    0    0  501 -0.00000000000E+00 -0.00000000000E+00 -0.61558806528E+03  0.61558806528E+03  0.00000000000E+00 0. -1.
         21    1    1    2  503  501 -0.13864686421E+01 -0.30816213241E+02 -0.28782175688E+03  0.28947007623E+03  0.00000000000E+00 0. -1.
         -3    1    1    2    0  502  0.13864686421E+01  0.30816213241E+02 -0.32621452666E+03  0.32766977080E+03  0.00000000000E+00 0. -1.
<mgrwt>
<rscale>  2 0.30847387E+02</rscale>
<asrwt>0</asrwt>
<pdfrwt beam="1">  1       21 0.23873514E-03 0.30847387E+02</pdfrwt>
<pdfrwt beam="2">  1       -3 0.94706061E-01 0.30847387E+02</pdfrwt>
<totfact> 0.11718780E+06</totfact>
</mgrwt>
</event>
<event>
 4    1  0.2185255E+006  0.2061562E+02  0.7546771E-02  0.1733356E+00
         21   -1    0    0  503  502  0.00000000000E+00  0.00000000000E+00  0.12654229078E+02  0.12654229078E+02  0.00000000000E+00 0.  1.
         -1   -1    0    0    0  501 -0.00000000000E+00 -0.00000000000E+00 -0.20046270900E+03  0.20046270900E+03  0.00000000000E+00 0.  1.
         21    1    1    2  503  501 -0.15910502944E+02  0.13109530281E+02  0.33187886767E+01  0.20881049935E+02  0.00000000000E+00 0.  1.
         -1    1    1    2    0  502  0.15910502944E+02 -0.13109530281E+02 -0.19112726860E+03  0.19223588814E+03  0.00000000000E+00 0.  1.
<mgrwt>
<rscale>  2 0.20615622E+02</rscale>
<asrwt>0</asrwt>
<pdfrwt beam="1">  1       21 0.19468045E-02 0.20615622E+02</pdfrwt>
<pdfrwt beam="2">  1       -1 0.30840417E-01 0.20615622E+02</pdfrwt>
<totfact> 0.81858451E+05</totfact>
</mgrwt>
</event>
<event>
 4    1  0.2185255E+006  0.3825592E+02  0.7546771E-02  0.1521453E+00
         21   -1    0    0  501  502  0.00000000000E+00  0.00000000000E+00  0.36737269487E+01  0.36737269487E+01  0.00000000000E+00 0. -1.
          2   -1    0    0  503    0 -0.00000000000E+00 -0.00000000000E+00 -0.48837148884E+03  0.48837148884E+03  0.00000000000E+00 0.  1.
         21    1    1    2  503  502 -0.35610597387E+02  0.13978573197E+02 -0.13673610174E+03  0.14198688910E+03  0.00000000000E+00 0. -1.
          2    1    1    2  501    0  0.35610597387E+02 -0.13978573197E+02 -0.34796166015E+03  0.35005832669E+03  0.00000000000E+00 0.  1.
<mgrwt>
<rscale>  2 0.38255917E+02</rscale>
<asrwt>0</asrwt>
<pdfrwt beam="1">  1       21 0.56518866E-03 0.38255917E+02</pdfrwt>
<pdfrwt beam="2">  1        2 0.75134089E-01 0.38255917E+02</pdfrwt>
<totfact> 0.58196984E+06</totfact>
</mgrwt>
</event>
<event>
 4    1  0.2185255E+006  0.2004546E+02  0.7546771E-02  0.1744426E+00
          1   -1    0    0  503    0 -0.00000000000E+00  0.00000000000E+00  0.85674397042E+03  0.85674397042E+03  0.00000000000E+00 0.  1.
         21   -1    0    0  501  502  0.00000000000E+00 -0.00000000000E+00 -0.70114206067E+00  0.70114206067E+00  0.00000000000E+00 0. -1.
         21    1    1    2  503  502  0.13482747624E+02  0.14833609569E+02  0.18133682757E+03  0.18244140290E+03  0.00000000000E+00 0. -1.
          1    1    1    2  501    0 -0.13482747624E+02 -0.14833609569E+02  0.67470600079E+03  0.67500370959E+03  0.00000000000E+00 0.  1.
<mgrwt>
<rscale>  2 0.20045460E+02</rscale>
<asrwt>0</asrwt>
<pdfrwt beam="2">  1       21 0.10786869E-03 0.20045460E+02</pdfrwt>
<pdfrwt beam="1">  1        1 0.13180593E+00 0.20045460E+02</pdfrwt>
<totfact> 0.17588328E+07</totfact>
</mgrwt>
</event>
<event>
 4    1  0.2185255E+006  0.2225481E+02  0.7546771E-02  0.1703882E+00
          1   -1    0    0  502    0 -0.00000000000E+00  0.00000000000E+00  0.12904146457E+04  0.12904146457E+04  0.00000000000E+00 0.  1.
         21   -1    0    0  503  502  0.00000000000E+00 -0.00000000000E+00 -0.13845057202E+01  0.13845057202E+01  0.00000000000E+00 0.  1.
         21    1    1    2  503  501 -0.21446461863E+02 -0.59435656362E+01  0.95393887581E+02  0.97955451542E+02  0.00000000000E+00 0.  1.
          1    1    1    2  501    0  0.21446461863E+02  0.59435656362E+01  0.11936362524E+04  0.11938436999E+04  0.00000000000E+00 0.  1.
<mgrwt>
<rscale>  2 0.22254813E+02</rscale>
<asrwt>0</asrwt>
<pdfrwt beam="2">  1       21 0.21300191E-03 0.22254813E+02</pdfrwt>
<pdfrwt beam="1">  1        1 0.19852437E+00 0.22254813E+02</pdfrwt>
<totfact> 0.35428990E+06</totfact>
</mgrwt>
</event>
<event>
 4    1  0.2185255E+006  0.2020815E+02  0.7546771E-02  0.1741220E+00
         21   -1    0    0  501  502  0.00000000000E+00  0.00000000000E+00  0.11456174572E+02  0.11456174572E+02  0.00000000000E+00 0. -1.
         -4   -1    0    0    0  501 -0.00000000000E+00 -0.00000000000E+00 -0.54537257802E+02  0.54537257802E+02  0.00000000000E+00 0. -1.
         21    1    1    2  503  502  0.15399619981E+02  0.13085151830E+02 -0.21204262360E+01  0.20319096963E+02  0.00000000000E+00 0. -1.
         -4    1    1    2    0  503 -0.15399619981E+02 -0.13085151830E+02 -0.40960656993E+02  0.45674335412E+02  0.00000000000E+00 0. -1.
<mgrwt>
<rscale>  2 0.20208154E+02</rscale>
<asrwt>0</asrwt>
<pdfrwt beam="1">  1       21 0.17624884E-02 0.20208154E+02</pdfrwt>
<pdfrwt beam="2">  1       -4 0.83903475E-02 0.20208154E+02</pdfrwt>
<totfact> 0.31550430E+06</totfact>
</mgrwt>
</event>
<event>
 4    1  0.2185255E+006  0.2103967E+02  0.7546771E-02  0.1725410E+00
          2   -1    0    0  502    0 -0.00000000000E+00  0.00000000000E+00  0.93745483999E+00  0.93745483999E+00  0.00000000000E+00 0.  1.
         21   -1    0    0  503  502  0.00000000000E+00 -0.00000000000E+00 -0.11339721836E+04  0.11339721836E+04  0.00000000000E+00 0. -1.
         21    1    1    2  503  501 -0.20858941900E+02 -0.27517707167E+01 -0.10000120811E+04  0.10002333878E+04  0.00000000000E+00 0. -1.
          2    1    1    2  501    0  0.20858941900E+02  0.27517707167E+01 -0.13302264766E+03  0.13467625065E+03  0.00000000000E+00 0.  1.
<mgrwt>
<rscale>  2 0.21039670E+02</rscale>
<asrwt>0</asrwt>
<pdfrwt beam="2">  1       21 0.17445741E+00 0.21039670E+02</pdfrwt>
<pdfrwt beam="1">  1        2 0.14422370E-03 0.21039670E+02</pdfrwt>
<totfact> 0.41292820E+05</totfact>
</mgrwt>
</event>
<event>
 4    1  0.2185255E+006  0.2728950E+02  0.7546771E-02  0.1630140E+00
          1   -1    0    0  503    0 -0.00000000000E+00  0.00000000000E+00  0.33527457118E+03  0.33527457118E+03  0.00000000000E+00 0.  1.
         21   -1    0    0  501  502  0.00000000000E+00 -0.00000000000E+00 -0.10182261605E+02  0.10182261605E+02  0.00000000000E+00 0. -1.
         21    1    1    2  503  502 -0.13891969912E+02 -0.23488927496E+02  0.98153012973E+01  0.29000977268E+02  0.00000000000E+00 0. -1.
          1    1    1    2  501    0  0.13891969912E+02  0.23488927496E+02  0.31527700827E+03  0.31645585551E+03  0.00000000000E+00 0.  1.
<mgrwt>
<rscale>  2 0.27289495E+02</rscale>
<asrwt>0</asrwt>
<pdfrwt beam="2">  1       21 0.15665020E-02 0.27289495E+02</pdfrwt>
<pdfrwt beam="1">  1        1 0.51580695E-01 0.27289495E+02</pdfrwt>
<totfact> 0.11904798E+06</totfact>
</mgrwt>
</event>
<event>
 4    1  0.2185255E+006  0.2449152E+02  0.7546771E-02  0.1668415E+00
         21   -1    0    0  503  502  0.00000000000E+00  0.00000000000E+00  0.11839019045E+03  0.11839019045E+03  0.00000000000E+00 0.  1.
         -2   -1    0    0    0  501 -0.00000000000E+00 -0.00000000000E+00 -0.82363946132E+02  0.82363946132E+02  0.00000000000E+00 0.  1.
         21    1    1    2  503  501 -0.23373557508E+02  0.73151360872E+01  0.11525386268E+03  0.11782736214E+03  0.00000000000E+00 0.  1.
         -2    1    1    2    0  502  0.23373557508E+02 -0.73151360872E+01 -0.79227618366E+02  0.82926774437E+02  0.00000000000E+00 0.  1.
<mgrwt>
<rscale>  2 0.24491517E+02</rscale>
<asrwt>0</asrwt>
<pdfrwt beam="1">  1       21 0.18213875E-01 0.24491517E+02</pdfrwt>
<pdfrwt beam="2">  1       -2 0.12671376E-01 0.24491517E+02</pdfrwt>
<totfact> 0.83485300E+04</totfact>
</mgrwt>
</event>
<event>
 4    1  0.2185255E+006  0.3194714E+02  0.7546771E-02  0.1577512E+00
          3   -1    0    0  503    0 -0.00000000000E+00  0.00000000000E+00  0.61948391688E+02  0.61948391688E+02  0.00000000000E+00 0. -1.
         21   -1    0    0  501  502  0.00000000000E+00 -0.00000000000E+00 -0.59223558451E+02  0.59223558451E+02  0.00000000000E+00 0. -1.
         21    1    1    2  503  502  0.11185723926E+02 -0.29924895466E+02 -0.50111112683E+02  0.59428472996E+02  0.00000000000E+00 0. -1.
          3    1    1    2  501    0 -0.11185723926E+02  0.29924895466E+02  0.52835945919E+02  0.61743477142E+02  0.00000000000E+00 0. -1.
<mgrwt>
<rscale>  2 0.31947141E+02</rscale>
<asrwt>0</asrwt>
<pdfrwt beam="2">  1       21 0.91113167E-02 0.31947141E+02</pdfrwt>
<pdfrwt beam="1">  1        3 0.95305218E-02 0.31947141E+02</pdfrwt>
<totfact> 0.27274802E+05</totfact>
</mgrwt>
</event>
<event>
 4    1  0.2185255E+006  0.2049856E+02  0.7546771E-02  0.1735592E+00
         21   -1    0    0  503  502  0.00000000000E+00  0.00000000000E+00  0.40030535479E+01  0.40030535479E+01  0.00000000000E+00 0.  1.
         -1   -1    0    0    0  501 -0.00000000000E+00 -0.00000000000E+00 -0.10685722867E+03  0.10685722867E+03  0.00000000000E+00 0.  1.
         21    1    1    2  503  501 -0.19223240911E+02 -0.71174461005E+01 -0.58798135048E+02  0.62268866340E+02  0.00000000000E+00 0.  1.
         -1    1    1    2    0  502  0.19223240911E+02  0.71174461005E+01 -0.44056040079E+02  0.48591415883E+02  0.00000000000E+00 0.  1.
<mgrwt>
<rscale>  2 0.20498562E+02</rscale>
<asrwt>0</asrwt>
<pdfrwt beam="1">  1       21 0.61585445E-03 0.20498562E+02</pdfrwt>
<pdfrwt beam="2">  1       -1 0.16439572E-01 0.20498562E+02</pdfrwt>
<totfact> 0.12048128E+07</totfact>
</mgrwt>
</event>
<event>
 4    1  0.2185255E+006  0.3994210E+02  0.7546771E-02  0.1508638E+00
         21   -1    0    0  503  502  0.00000000000E+00  0.00000000000E+00  0.33737790993E+02  0.33737790993E+02  0.00000000000E+00 0. -1.
         -1   -1    0    0    0  501 -0.00000000000E+00 -0.00000000000E+00 -0.52076690746E+03  0.52076690746E+03  0.00000000000E+00 0.  1.
         21    1    1    2  503  501 -0.15131899127E+02 -0.36964809749E+02  0.20850559697E+02  0.45056823797E+02  0.00000000000E+00 0. -1.
         -1    1    1    2    0  502  0.15131899127E+02  0.36964809749E+02 -0.50787967617E+03  0.50944787466E+03  0.00000000000E+00 0.  1.
<mgrwt>
<rscale>  2 0.39942102E+02</rscale>
<asrwt>0</asrwt>
<pdfrwt beam="1">  1       21 0.51904305E-02 0.39942102E+02</pdfrwt>
<pdfrwt beam="2">  1       -1 0.80117969E-01 0.39942102E+02</pdfrwt>
<totfact> 0.36088828E+04</totfact>
</mgrwt>
</event>
<event>
 4    1  0.2185255E+006  0.2257482E+02  0.7546771E-02  0.1698496E+00
         -2   -1    0    0    0  501 -0.00000000000E+00  0.00000000000E+00  0.45026772799E+03  0.45026772799E+03  0.00000000000E+00 0.  1.
         21   -1    0    0  501  502  0.00000000000E+00 -0.00000000000E+00 -0.37066205252E+01  0.37066205252E+01  0.00000000000E+00 0.  1.
         21    1    1    2  503  502  0.22180512397E+02 -0.42008559666E+01  0.34096732483E+02  0.40892658107E+02  0.00000000000E+00 0.  1.
         -2    1    1    2    0  503 -0.22180512397E+02  0.42008559666E+01  0.41246437498E+03  0.41308169041E+03  0.00000000000E+00 0.  1.
<mgrwt>
<rscale>  2 0.22574816E+02</rscale>
<asrwt>0</asrwt>
<pdfrwt beam="2">  1       21 0.57024967E-03 0.22574816E+02</pdfrwt>
<pdfrwt beam="1">  1       -2 0.69271915E-01 0.22574816E+02</pdfrwt>
<totfact> 0.10094039E+06</totfact>
</mgrwt>
</event>
<event>
 4    1  0.2185255E+006  0.2898396E+02  0.7546771E-02  0.1609599E+00
         21   -1    0    0  503  502  0.00000000000E+00  0.00000000000E+00  0.92851273837E+00  0.92851273837E+00  0.00000000000E+00 0. -1.
          2   -1    0    0  502    0 -0.00000000000E+00 -0.00000000000E+00 -0.15246374308E+04  0.15246374308E+04  0.00000000000E+00 0. -1.
         21    1    1    2  503  501 -0.47869861133E+01  0.28585915297E+02 -0.27547535095E+03  0.27699591833E+03  0.00000000000E+00 0. -1.
          2    1    1    2  501    0  0.47869861133E+01 -0.28585915297E+02 -0.12482335671E+04  0.12485700252E+04  0.00000000000E+00 0. -1.
<mgrwt>
<rscale>  2 0.28983957E+02</rscale>
<asrwt>0</asrwt>
<pdfrwt beam="1">  1       21 0.14284841E-03 0.28983957E+02</pdfrwt>
<pdfrwt beam="2">  1        2 0.23455912E+00 0.28983957E+02</pdfrwt>
<totfact> 0.10095010E+07</totfact>
</mgrwt>
</event>
<event>
 4    1  0.2185255E+006  0.2399186E+02  0.7546771E-02  0.1675919E+00
         21   -1    0    0  501  502  0.00000000000E+00  0.00000000000E+00  0.46600691343E+03  0.46600691343E+03  0.00000000000E+00 0.  1.
          1   -1    0    0  503    0 -0.00000000000E+00 -0.00000000000E+00 -0.54023013836E+02  0.54023013836E+02  0.00000000000E+00 0. -1.
         21    1    1    2  503  502  0.55950083979E+01 -0.23330349670E+02  0.46301720375E+03  0.46363837234E+03  0.00000000000E+00 0.  1.
          1    1    1    2  501    0 -0.55950083979E+01  0.23330349670E+02 -0.51033304153E+02  0.56391554931E+02  0.00000000000E+00 0. -1.
<mgrwt>
<rscale>  2 0.23991860E+02</rscale>
<asrwt>0</asrwt>
<pdfrwt beam="1">  1       21 0.71693369E-01 0.23991860E+02</pdfrwt>
<pdfrwt beam="2">  1        1 0.83112332E-02 0.23991860E+02</pdfrwt>
<totfact> 0.15231876E+04</totfact>
</mgrwt>
</event>
<event>
 4    1  0.2185255E+006  0.3400078E+02  0.7546771E-02  0.1557657E+00
         21   -1    0    0  501  502  0.00000000000E+00  0.00000000000E+00  0.60269403554E+02  0.60269403554E+02  0.00000000000E+00 0.  1.
          1   -1    0    0  503    0 -0.00000000000E+00 -0.00000000000E+00 -0.26552978001E+02  0.26552978001E+02  0.00000000000E+00 0. -1.
         21    1    1    2  503  502  0.40500489675E+01 -0.33758701692E+02  0.39731294338E+02  0.52293676351E+02  0.00000000000E+00 0.  1.
          1    1    1    2  501    0 -0.40500489675E+01  0.33758701692E+02 -0.60148687853E+01  0.34528705204E+02  0.00000000000E+00 0. -1.
<mgrwt>
<rscale>  2 0.34000777E+02</rscale>
<asrwt>0</asrwt>
<pdfrwt beam="1">  1       21 0.92722159E-02 0.34000777E+02</pdfrwt>
<pdfrwt beam="2">  1        1 0.40850736E-02 0.34000777E+02</pdfrwt>
<totfact> 0.16605942E+06</totfact>
</mgrwt>
</event>
<event>
 4    1  0.2185255E+006  0.2629655E+02  0.7546771E-02  0.1643048E+00
         21   -1    0    0  501  502  0.00000000000E+00  0.00000000000E+00  0.43964803607E+02  0.43964803607E+02  0.00000000000E+00 0.  1.
         -2   -1    0    0    0  501 -0.00000000000E+00 -0.00000000000E+00 -0.38775627845E+02  0.38775627845E+02  0.00000000000E+00 0. -1.
         21    1    1    2  503  502 -0.17475223609E+02  0.19650070523E+02  0.34489028773E+02  0.43370517836E+02  0.00000000000E+00 0.  1.
         -2    1    1    2    0  503  0.17475223609E+02 -0.19650070523E+02 -0.29299853010E+02  0.39369913616E+02  0.00000000000E+00 0. -1.
<mgrwt>
<rscale>  2 0.26296553E+02</rscale>
<asrwt>0</asrwt>
<pdfrwt beam="1">  1       21 0.67638159E-02 0.26296553E+02</pdfrwt>
<pdfrwt beam="2">  1       -2 0.59654812E-02 0.26296553E+02</pdfrwt>
<totfact> 0.13545037E+06</totfact>
</mgrwt>
</event>
<event>
 4    1  0.2185255E+006  0.2246615E+02  0.7546771E-02  0.1700313E+00
         21   -1    0    0  501  502  0.00000000000E+00  0.00000000000E+00  0.33990411819E+02  0.33990411819E+02  0.00000000000E+00 0.  1.
         -4   -1    0    0    0  501 -0.00000000000E+00 -0.00000000000E+00 -0.51774433718E+02  0.51774433718E+02  0.00000000000E+00 0. -1.
         21    1    1    2  503  502  0.17352328733E+02 -0.14269702101E+02  0.27322592258E+02  0.35373037164E+02  0.00000000000E+00 0.  1.
         -4    1    1    2    0  503 -0.17352328733E+02  0.14269702101E+02 -0.45106614156E+02  0.50391808374E+02  0.00000000000E+00 0. -1.
<mgrwt>
<rscale>  2 0.22466146E+02</rscale>
<asrwt>0</asrwt>
<pdfrwt beam="1">  1       21 0.52292942E-02 0.22466146E+02</pdfrwt>
<pdfrwt beam="2">  1       -4 0.79652974E-02 0.22466146E+02</pdfrwt>
<totfact> 0.66217312E+05</totfact>
</mgrwt>
</event>
<event>
 4    1  0.2185255E+006  0.2034735E+02  0.7546771E-02  0.1738508E+00
          1   -1    0    0  503    0 -0.00000000000E+00  0.00000000000E+00  0.21002150326E+03  0.21002150326E+03  0.00000000000E+00 0.  1.
         21   -1    0    0  501  502  0.00000000000E+00 -0.00000000000E+00 -0.37058090653E+01  0.37058090653E+01  0.00000000000E+00 0. -1.
         21    1    1    2  503  502  0.14206862774E+02  0.14566387099E+02  0.30047764131E+02  0.36288878631E+02  0.00000000000E+00 0. -1.
          1    1    1    2  501    0 -0.14206862774E+02 -0.14566387099E+02  0.17626793007E+03  0.17743843370E+03  0.00000000000E+00 0.  1.
<mgrwt>
<rscale>  2 0.20347348E+02</rscale>
<asrwt>0</asrwt>
<pdfrwt beam="2">  1       21 0.57012464E-03 0.20347348E+02</pdfrwt>
<pdfrwt beam="1">  1        1 0.32310991E-01 0.20347348E+02</pdfrwt>
<totfact> 0.86823628E+06</totfact>
</mgrwt>
</event>
<event>
 4    1  0.2185255E+006  0.2190596E+02  0.7546771E-02  0.1709884E+00
         21   -1    0    0  501  502  0.00000000000E+00  0.00000000000E+00  0.52458697945E+02  0.52458697945E+02  0.00000000000E+00 0. -1.
          2   -1    0    0  503    0 -0.00000000000E+00 -0.00000000000E+00 -0.12496745681E+02  0.12496745681E+02  0.00000000000E+00 0. -1.
         21    1    1    2  503  502 -0.20823874120E+02  0.67997908882E+01  0.36794334768E+02  0.42821652940E+02  0.00000000000E+00 0. -1.
          2    1    1    2  501    0  0.20823874120E+02 -0.67997908882E+01  0.31676174963E+01  0.22133790686E+02  0.00000000000E+00 0. -1.
<mgrwt>
<rscale>  2 0.21905956E+02</rscale>
<asrwt>0</asrwt>
<pdfrwt beam="1">  1       21 0.80705688E-02 0.21905956E+02</pdfrwt>
<pdfrwt beam="2">  1        2 0.19225763E-02 0.21905956E+02</pdfrwt>
<totfact> 0.52187556E+06</totfact>
</mgrwt>
</event>
<event>
 4    1  0.2185255E+006  0.2515201E+02  0.7546771E-02  0.1658828E+00
         -1   -1    0    0    0  501 -0.00000000000E+00  0.00000000000E+00  0.10165028580E+03  0.10165028580E+03  0.00000000000E+00 0. -1.
         21   -1    0    0  501  502  0.00000000000E+00 -0.00000000000E+00 -0.89144436940E+02  0.89144436940E+02  0.00000000000E+00 0.  1.
         21    1    1    2  503  502 -0.11149330377E+02 -0.22545860045E+02 -0.85754159657E+02  0.89366656374E+02  0.00000000000E+00 0.  1.
         -1    1    1    2    0  503  0.11149330377E+02  0.22545860045E+02  0.98260008518E+02  0.10142806637E+03  0.00000000000E+00 0. -1.
<mgrwt>
<rscale>  2 0.25152005E+02</rscale>
<asrwt>0</asrwt>
<pdfrwt beam="2">  1       21 0.13714529E-01 0.25152005E+02</pdfrwt>
<pdfrwt beam="1">  1       -1 0.15638505E-01 0.25152005E+02</pdfrwt>
<totfact> 0.10601935E+05</totfact>
</mgrwt>
</event>
<event>
 4    1  0.2185255E+006  0.2133896E+02  0.7546771E-02  0.1719942E+00
         21   -1    0    0  501  502  0.00000000000E+00  0.00000000000E+00  0.36496808393E+01  0.36496808393E+01  0.00000000000E+00 0.  1.
         -1   -1    0    0    0  501 -0.00000000000E+00 -0.00000000000E+00 -0.61262744353E+03  0.61262744353E+03  0.00000000000E+00 0.  1.
         21    1    1    2  503  502  0.24814019795E+01  0.21194192909E+02 -0.29511687903E+02  0.36418276891E+02  0.00000000000E+00 0.  1.
         -1    1    1    2    0  503 -0.24814019795E+01 -0.21194192909E+02 -0.57946607479E+03  0.57985884748E+03  0.00000000000E+00 0.  1.
<mgrwt>
<rscale>  2 0.21338959E+02</rscale>
<asrwt>0</asrwt>
<pdfrwt beam="1">  1       21 0.56148927E-03 0.21338959E+02</pdfrwt>
<pdfrwt beam="2">  1       -1 0.94250391E-01 0.21338959E+02</pdfrwt>
<totfact> 0.73558101E+05</totfact>
</mgrwt>
</event>
<event>
 4    1  0.2185255E+006  0.2007528E+02  0.7546771E-02  0.1743835E+00
         -1   -1    0    0    0  501 -0.00000000000E+00  0.00000000000E+00  0.23343969162E+03  0.23343969162E+03  0.00000000000E+00 0. -1.
         21   -1    0    0  501  502  0.00000000000E+00 -0.00000000000E+00 -0.43617220174E+01  0.43617220174E+01  0.00000000000E+00 0. -1.
         21    1    1    2  503  502  0.18019638488E+02 -0.88492670040E+01  0.22118135501E+02  0.29870199460E+02  0.00000000000E+00 0. -1.
         -1    1    1    2    0  503 -0.18019638488E+02  0.88492670040E+01  0.20695983410E+03  0.20793121417E+03  0.00000000000E+00 0. -1.
<mgrwt>
<rscale>  2 0.20075281E+02</rscale>
<asrwt>0</asrwt>
<pdfrwt beam="2">  1       21 0.67103434E-03 0.20075281E+02</pdfrwt>
<pdfrwt beam="1">  1       -1 0.35913789E-01 0.20075281E+02</pdfrwt>
<totfact> 0.31511753E+06</totfact>
</mgrwt>
</event>
<event>
 4    1  0.2185255E+006  0.4386194E+02  0.7546771E-02  0.1481574E+00
          2   -1    0    0  502    0 -0.00000000000E+00  0.00000000000E+00  0.21618741214E+04  0.21618741214E+04  0.00000000000E+00 0.  1.
         21   -1    0    0  503  502  0.00000000000E+00 -0.00000000000E+00 -0.18981786334E+02  0.18981786334E+02  0.00000000000E+00 0.  1.
         21    1    1    2  503  501  0.15379046489E+02  0.41077426841E+02  0.68858831262E+01  0.44399160501E+02  0.00000000000E+00 0.  1.
          2    1    1    2  501    0 -0.15379046489E+02 -0.41077426841E+02  0.21360064519E+04  0.21364567472E+04  0.00000000000E+00 0.  1.
<mgrwt>
<rscale>  2 0.43861943E+02</rscale>
<asrwt>0</asrwt>
<pdfrwt beam="2">  1       21 0.29202765E-02 0.43861943E+02</pdfrwt>
<pdfrwt beam="1">  1        2 0.33259582E+00 0.43861943E+02</pdfrwt>
<totfact> 0.54673103E+04</totfact>
</mgrwt>
</event>
<event>
 4    1  0.2185255E+006  0.2962008E+02  0.7546771E-02  0.1602326E+00
          1   -1    0    0  502    0 -0.00000000000E+00  0.00000000000E+00  0.32416911322E+03  0.32416911322E+03  0.00000000000E+00 0.  1.
         21   -1    0    0  503  502  0.00000000000E+00 -0.00000000000E+00 -0.24323832861E+03  0.24323832861E+03  0.00000000000E+00 0. -1.
         21    1    1    2  503  501 -0.20255547515E+02  0.21611620890E+02 -0.24165556118E+03  0.24346408280E+03  0.00000000000E+00 0. -1.
          1    1    1    2  501    0  0.20255547515E+02 -0.21611620890E+02  0.32258634580E+03  0.32394335903E+03  0.00000000000E+00 0.  1.
<mgrwt>
<rscale>  2 0.29620084E+02</rscale>
<asrwt>0</asrwt>
<pdfrwt beam="2">  1       21 0.37421281E-01 0.29620084E+02</pdfrwt>
<pdfrwt beam="1">  1        1 0.49872171E-01 0.29620084E+02</pdfrwt>
<totfact> 0.63727297E+03</totfact>
</mgrwt>
</event>
<event>
 4    1  0.2185255E+006  0.2059207E+02  0.7546771E-02  0.1733804E+00
         21   -1    0    0  501  502  0.00000000000E+00  0.00000000000E+00  0.11034182858E+02  0.11034182858E+02  0.00000000000E+00 0.  1.
          2   -1    0    0  503    0 -0.00000000000E+00 -0.00000000000E+00 -0.40108251940E+03  0.40108251940E+03  0.00000000000E+00 0. -1.
         21    1    1    2  503  502  0.20295017146E+02  0.34850443787E+01  0.91410051834E+00  0.20612346665E+02  0.00000000000E+00 0.  1.
          2    1    1    2  501    0 -0.20295017146E+02 -0.34850443787E+01 -0.39096243706E+03  0.39150435559E+03  0.00000000000E+00 0. -1.
<mgrwt>
<rscale>  2 0.20592068E+02</rscale>
<asrwt>0</asrwt>
<pdfrwt beam="1">  1       21 0.16975665E-02 0.20592068E+02</pdfrwt>
<pdfrwt beam="2">  1        2 0.61705007E-01 0.20592068E+02</pdfrwt>
<totfact> 0.11867481E+06</totfact>
</mgrwt>
</event>
<event>
 4    1  0.2185255E+006  0.2072059E+02  0.7546771E-02  0.1731367E+00
         21   -1    0    0  501  502  0.00000000000E+00  0.00000000000E+00  0.21689261829E+01  0.21689261829E+01  0.00000000000E+00 0. -1.
          1   -1    0    0  503    0 -0.00000000000E+00 -0.00000000000E+00 -0.54536086035E+03  0.54536086035E+03  0.00000000000E+00 0.  1.
         21    1    1    2  503  502 -0.18957300391E+02 -0.83644331383E+01 -0.53093521422E+02  0.56993552239E+02  0.00000000000E+00 0. -1.
          1    1    1    2  501    0  0.18957300391E+02  0.83644331383E+01 -0.49009841274E+03  0.49053623429E+03  0.00000000000E+00 0.  1.
<mgrwt>
<rscale>  2 0.20720593E+02</rscale>
<asrwt>0</asrwt>
<pdfrwt beam="1">  1       21 0.33368107E-03 0.20720593E+02</pdfrwt>
<pdfrwt beam="2">  1        1 0.83901641E-01 0.20720593E+02</pdfrwt>
<totfact> 0.63104628E+06</totfact>
</mgrwt>
</event>
<event>
 4    1  0.2185255E+006  0.2074062E+02  0.7546771E-02  0.1730989E+00
         -4   -1    0    0    0  501 -0.00000000000E+00  0.00000000000E+00  0.61639272470E+02  0.61639272470E+02  0.00000000000E+00 0.  1.
         21   -1    0    0  501  502  0.00000000000E+00 -0.00000000000E+00 -0.14763542522E+02  0.14763542522E+02  0.00000000000E+00 0. -1.
         21    1    1    2  503  502 -0.12437858162E+01 -0.20703289555E+02 -0.43019728270E+01  0.21182071942E+02  0.00000000000E+00 0. -1.
         -4    1    1    2    0  503  0.12437858162E+01  0.20703289555E+02  0.51177702776E+02  0.55220743050E+02  0.00000000000E+00 0.  1.
<mgrwt>
<rscale>  2 0.20740617E+02</rscale>
<asrwt>0</asrwt>
<pdfrwt beam="2">  1       21 0.22713143E-02 0.20740617E+02</pdfrwt>
<pdfrwt beam="1">  1       -4 0.94829649E-02 0.20740617E+02</pdfrwt>
<totfact> 0.17853428E+06</totfact>
</mgrwt>
</event>
<event>
 4    1  0.2185255E+006  0.2234503E+02  0.7546771E-02  0.1702352E+00
         -2   -1    0    0    0  501 -0.00000000000E+00  0.00000000000E+00  0.11125271331E+04  0.11125271331E+04  0.00000000000E+00 0. -1.
         21   -1    0    0  503  502  0.00000000000E+00 -0.00000000000E+00 -0.23364913060E+01  0.23364913060E+01  0.00000000000E+00 0.  1.
         21    1    1    2  503  501  0.20570471461E+02 -0.87267476323E+01  0.54051933614E+02  0.58488562538E+02  0.00000000000E+00 0.  1.
         -2    1    1    2    0  502 -0.20570471461E+02  0.87267476323E+01  0.10561387082E+04  0.10563750619E+04  0.00000000000E+00 0. -1.
<mgrwt>
<rscale>  2 0.22345031E+02</rscale>
<asrwt>0</asrwt>
<pdfrwt beam="2">  1       21 0.35946109E-03 0.22345031E+02</pdfrwt>
<pdfrwt beam="1">  1       -2 0.17115760E+00 0.22345031E+02</pdfrwt>
<totfact> 0.25497561E+05</totfact>
</mgrwt>
</event>
<event>
 4    1  0.2185255E+006  0.2215134E+02  0.7546771E-02  0.1705648E+00
          2   -1    0    0  503    0 -0.00000000000E+00  0.00000000000E+00  0.33513755804E+02  0.33513755804E+02  0.00000000000E+00 0.  1.
         21   -1    0    0  501  502  0.00000000000E+00 -0.00000000000E+00 -0.25984917028E+02  0.25984917028E+02  0.00000000000E+00 0. -1.
         21    1    1    2  503  502  0.72372274924E+01 -0.20935725969E+02 -0.15891530327E+02  0.27262113267E+02  0.00000000000E+00 0. -1.
          2    1    1    2  501    0 -0.72372274924E+01  0.20935725969E+02  0.23420369104E+02  0.32236559565E+02  0.00000000000E+00 0.  1.
<mgrwt>
<rscale>  2 0.22151345E+02</rscale>
<asrwt>0</asrwt>
<pdfrwt beam="2">  1       21 0.39976796E-02 0.22151345E+02</pdfrwt>
<pdfrwt beam="1">  1        2 0.51559624E-02 0.22151345E+02</pdfrwt>
<totfact> 0.46794763E+06</totfact>
</mgrwt>
</event>
<event>
 4    1  0.2185255E+006  0.2790873E+02  0.7546771E-02  0.1622426E+00
         21   -1    0    0  503  502  0.00000000000E+00  0.00000000000E+00  0.28903885510E+01  0.28903885510E+01  0.00000000000E+00 0. -1.
          2   -1    0    0  502    0 -0.00000000000E+00 -0.00000000000E+00 -0.49905590552E+03  0.49905590552E+03  0.00000000000E+00 0. -1.
         21    1    1    2  503  501  0.27409990136E+02 -0.52525635717E+01 -0.77860079568E+02  0.82710875788E+02  0.00000000000E+00 0. -1.
          2    1    1    2  501    0 -0.27409990136E+02  0.52525635717E+01 -0.41830543740E+03  0.41923541828E+03  0.00000000000E+00 0. -1.
<mgrwt>
<rscale>  2 0.27908726E+02</rscale>
<asrwt>0</asrwt>
<pdfrwt beam="1">  1       21 0.44467525E-03 0.27908726E+02</pdfrwt>
<pdfrwt beam="2">  1        2 0.76777816E-01 0.27908726E+02</pdfrwt>
<totfact> 0.76024495E+06</totfact>
</mgrwt>
</event>
<event>
 4    1  0.2185255E+006  0.2755073E+02  0.7546771E-02  0.1626855E+00
         21   -1    0    0  501  502  0.00000000000E+00  0.00000000000E+00  0.12947256764E+01  0.12947256764E+01  0.00000000000E+00 0. -1.
          2   -1    0    0  503    0 -0.00000000000E+00 -0.00000000000E+00 -0.58821620823E+03  0.58821620823E+03  0.00000000000E+00 0. -1.
         21    1    1    2  503  502 -0.44534622276E+01  0.27188409788E+02 -0.27645281633E+03  0.27782225002E+03  0.00000000000E+00 0. -1.
          2    1    1    2  501    0  0.44534622276E+01 -0.27188409788E+02 -0.31046866622E+03  0.31168868388E+03  0.00000000000E+00 0. -1.
<mgrwt>
<rscale>  2 0.27550734E+02</rscale>
<asrwt>0</asrwt>
<pdfrwt beam="1">  1       21 0.19918907E-03 0.27550734E+02</pdfrwt>
<pdfrwt beam="2">  1        2 0.90494572E-01 0.27550734E+02</pdfrwt>
<totfact> 0.20746366E+07</totfact>
</mgrwt>
</event>
<event>
 4    1  0.2185255E+006  0.2043112E+02  0.7546771E-02  0.1736888E+00
         21   -1    0    0  501  502  0.00000000000E+00  0.00000000000E+00  0.17983534506E+03  0.17983534506E+03  0.00000000000E+00 0. -1.
          3   -1    0    0  503    0 -0.00000000000E+00 -0.00000000000E+00 -0.95247118932E+02  0.95247118932E+02  0.00000000000E+00 0.  1.
         21    1    1    2  503  502 -0.13740858717E+02 -0.15120166575E+02  0.17814906076E+03  0.17931681038E+03  0.00000000000E+00 0. -1.
          3    1    1    2  501    0  0.13740858717E+02  0.15120166575E+02 -0.93560834629E+02  0.95765653614E+02  0.00000000000E+00 0.  1.
<mgrwt>
<rscale>  2 0.20431119E+02</rscale>
<asrwt>0</asrwt>
<pdfrwt beam="1">  1       21 0.27666976E-01 0.20431119E+02</pdfrwt>
<pdfrwt beam="2">  1        3 0.14653403E-01 0.20431119E+02</pdfrwt>
<totfact> 0.18240709E+04</totfact>
</mgrwt>
</event>
<event>
 4    1  0.2185255E+006  0.2057819E+02  0.7546771E-02  0.1734069E+00
         -2   -1    0    0    0  501 -0.00000000000E+00  0.00000000000E+00  0.12691191289E+03  0.12691191289E+03  0.00000000000E+00 0.  1.
         21   -1    0    0  503  502  0.00000000000E+00 -0.00000000000E+00 -0.36937905238E+01  0.36937905238E+01  0.00000000000E+00 0.  1.
         21    1    1    2  503  501 -0.20439293144E+02  0.23869135100E+01  0.41303792139E+02  0.46146129907E+02  0.00000000000E+00 0.  1.
         -2    1    1    2    0  502  0.20439293144E+02 -0.23869135100E+01  0.81914330224E+02  0.84459573504E+02  0.00000000000E+00 0.  1.
<mgrwt>
<rscale>  2 0.20578194E+02</rscale>
<asrwt>0</asrwt>
<pdfrwt beam="2">  1       21 0.56827556E-03 0.20578194E+02</pdfrwt>
<pdfrwt beam="1">  1       -2 0.19524906E-01 0.20578194E+02</pdfrwt>
<totfact> 0.95700834E+06</totfact>
</mgrwt>
</event>
<event>
 4    1  0.2185255E+006  0.2784359E+02  0.7546771E-02  0.1623226E+00
          2   -1    0    0  502    0 -0.00000000000E+00  0.00000000000E+00  0.89144157023E+03  0.89144157023E+03  0.00000000000E+00 0.  1.
         21   -1    0    0  503  502  0.00000000000E+00 -0.00000000000E+00 -0.26398488850E+01  0.26398488850E+01  0.00000000000E+00 0. -1.
         21    1    1    2  503  501 -0.27510313922E+02 -0.42951468310E+01  0.78329849899E+02  0.83131408286E+02  0.00000000000E+00 0. -1.
          2    1    1    2  501    0  0.27510313922E+02  0.42951468310E+01  0.81047187145E+03  0.81095001083E+03  0.00000000000E+00 0.  1.
<mgrwt>
<rscale>  2 0.27843593E+02</rscale>
<asrwt>0</asrwt>
<pdfrwt beam="2">  1       21 0.40613131E-03 0.27843593E+02</pdfrwt>
<pdfrwt beam="1">  1        2 0.13714462E+00 0.27843593E+02</pdfrwt>
<totfact> 0.46132859E+06</totfact>
</mgrwt>
</event>
<event>
 4    1  0.2185255E+006  0.2314113E+02  0.7546771E-02  0.1689233E+00
         21   -1    0    0  503  502  0.00000000000E+00  0.00000000000E+00  0.78850243364E+01  0.78850243364E+01  0.00000000000E+00 0. -1.
          1   -1    0    0  502    0 -0.00000000000E+00 -0.00000000000E+00 -0.60802749600E+03  0.60802749600E+03  0.00000000000E+00 0. -1.
         21    1    1    2  503  501 -0.11349701164E+02  0.20166708626E+02 -0.98230471337E+01  0.25139691890E+02  0.00000000000E+00 0. -1.
          1    1    1    2  501    0  0.11349701164E+02 -0.20166708626E+02 -0.59031942453E+03  0.59077282845E+03  0.00000000000E+00 0. -1.
<mgrwt>
<rscale>  2 0.23141129E+02</rscale>
<asrwt>0</asrwt>
<pdfrwt beam="1">  1       21 0.12130802E-02 0.23141129E+02</pdfrwt>
<pdfrwt beam="2">  1        1 0.93542726E-01 0.23141129E+02</pdfrwt>
<totfact> 0.83478490E+05</totfact>
</mgrwt>
</event>
<event>
 4    1  0.2185255E+006  0.2614257E+02  0.7546771E-02  0.1645113E+00
          2   -1    0    0  503    0 -0.00000000000E+00  0.00000000000E+00  0.12396965475E+04  0.12396965475E+04  0.00000000000E+00 0.  1.
         21   -1    0    0  501  502  0.00000000000E+00 -0.00000000000E+00 -0.39444468107E+01  0.39444468107E+01  0.00000000000E+00 0.  1.
         21    1    1    2  503  502  0.22910253565E+02  0.12591825141E+02  0.41144286635E+02  0.48747165061E+02  0.00000000000E+00 0.  1.
          2    1    1    2  501    0 -0.22910253565E+02 -0.12591825141E+02  0.11946078141E+04  0.11948938293E+04  0.00000000000E+00 0.  1.
<mgrwt>
<rscale>  2 0.26142566E+02</rscale>
<asrwt>0</asrwt>
<pdfrwt beam="2">  1       21 0.60683896E-03 0.26142566E+02</pdfrwt>
<pdfrwt beam="1">  1        2 0.19072224E+00 0.26142566E+02</pdfrwt>
<totfact> 0.16374421E+06</totfact>
</mgrwt>
</event>
<event>
 4    1  0.2185255E+006  0.3462725E+02  0.7546771E-02  0.1551936E+00
         -1   -1    0    0    0  501 -0.00000000000E+00  0.00000000000E+00  0.27228091381E+02  0.27228091381E+02  0.00000000000E+00 0.  1.
         21   -1    0    0  503  502  0.00000000000E+00 -0.00000000000E+00 -0.68289053078E+02  0.68289053078E+02  0.00000000000E+00 0.  1.
         21    1    1    2  503  501 -0.16622995348E+02 -0.30376352323E+02 -0.48991402588E+02  0.59993368653E+02  0.00000000000E+00 0.  1.
         -1    1    1    2    0  502  0.16622995348E+02  0.30376352323E+02  0.79304408911E+01  0.35523775806E+02  0.00000000000E+00 0.  1.
<mgrwt>
<rscale>  2 0.34627255E+02</rscale>
<asrwt>0</asrwt>
<pdfrwt beam="2">  1       21 0.10506008E-01 0.34627255E+02</pdfrwt>
<pdfrwt beam="1">  1       -1 0.41889372E-02 0.34627255E+02</pdfrwt>
<totfact> 0.11751967E+06</totfact>
</mgrwt>
</event>
<event>
 4    1  0.2185255E+006  0.3764942E+02  0.7546771E-02  0.1526258E+00
         21   -1    0    0  501  502  0.00000000000E+00  0.00000000000E+00  0.10404073170E+04  0.10404073170E+04  0.00000000000E+00 0. -1.
          2   -1    0    0  503    0 -0.00000000000E+00 -0.00000000000E+00 -0.14933925231E+02  0.14933925231E+02  0.00000000000E+00 0. -1.
         21    1    1    2  503  502  0.33598028484E+02 -0.16989752134E+02  0.10157619892E+04  0.10164594915E+04  0.00000000000E+00 0. -1.
          2    1    1    2  501    0 -0.33598028484E+02  0.16989752134E+02  0.97114025193E+01  0.38881750661E+02  0.00000000000E+00 0. -1.
<mgrwt>
<rscale>  2 0.37649425E+02</rscale>
<asrwt>0</asrwt>
<pdfrwt beam="1">  1       21 0.16006261E+00 0.37649425E+02</pdfrwt>
<pdfrwt beam="2">  1        2 0.22975278E-02 0.37649425E+02</pdfrwt>
<totfact> 0.13967408E+04</totfact>
</mgrwt>
</event>
<event>
 4    1  0.2185255E+006  0.2012042E+02  0.7546771E-02  0.1742944E+00
         21   -1    0    0  501  502  0.00000000000E+00  0.00000000000E+00  0.56453547050E+01  0.56453547050E+01  0.00000000000E+00 0.  1.
          2   -1    0    0  503    0 -0.00000000000E+00 -0.00000000000E+00 -0.73709936197E+02  0.73709936197E+02  0.00000000000E+00 0. -1.
         21    1    1    2  503  502  0.16706830228E+02 -0.11212179604E+02 -0.27497407690E+02  0.34072548737E+02  0.00000000000E+00 0.  1.
          2    1    1    2  501    0 -0.16706830228E+02  0.11212179604E+02 -0.40567173803E+02  0.45282742166E+02  0.00000000000E+00 0. -1.
<mgrwt>
<rscale>  2 0.20120416E+02</rscale>
<asrwt>0</asrwt>
<pdfrwt beam="1">  1       21 0.86851612E-03 0.20120416E+02</pdfrwt>
<pdfrwt beam="2">  1        2 0.11339990E-01 0.20120416E+02</pdfrwt>
<totfact> 0.18526851E+07</totfact>
</mgrwt>
</event>
<event>
 4    1  0.2185255E+006  0.2724107E+02  0.7546771E-02  0.1630753E+00
          2   -1    0    0  502    0 -0.00000000000E+00  0.00000000000E+00  0.93913069388E+02  0.93913069388E+02  0.00000000000E+00 0. -1.
         21   -1    0    0  503  502  0.00000000000E+00 -0.00000000000E+00 -0.47821872466E+02  0.47821872466E+02  0.00000000000E+00 0. -1.
         21    1    1    2  503  501  0.62761425614E+01  0.26508228290E+02 -0.41702894267E+02  0.49811720737E+02  0.00000000000E+00 0. -1.
          2    1    1    2  501    0 -0.62761425614E+01 -0.26508228290E+02  0.87794091190E+02  0.91923221116E+02  0.00000000000E+00 0. -1.
<mgrwt>
<rscale>  2 0.27241074E+02</rscale>
<asrwt>0</asrwt>
<pdfrwt beam="2">  1       21 0.73572111E-02 0.27241074E+02</pdfrwt>
<pdfrwt beam="1">  1        2 0.14448165E-01 0.27241074E+02</pdfrwt>
<totfact> 0.55257180E+05</totfact>
</mgrwt>
</event>
<event>
 4    1  0.2185255E+006  0.2258191E+02  0.7546771E-02  0.1698378E+00
         21   -1    0    0  503  502  0.00000000000E+00  0.00000000000E+00  0.10621768378E+03  0.10621768378E+03  0.00000000000E+00 0. -1.
          1   -1    0    0  502    0 -0.00000000000E+00 -0.00000000000E+00 -0.21100394972E+02  0.21100394972E+02  0.00000000000E+00 0.  1.
         21    1    1    2  503  501  0.52019772915E+01 -0.21974573326E+02  0.98508840936E+02  0.10106401033E+03  0.00000000000E+00 0. -1.
          1    1    1    2  501    0 -0.52019772915E+01  0.21974573326E+02 -0.13391552127E+02  0.26254068427E+02  0.00000000000E+00 0.  1.
<mgrwt>
<rscale>  2 0.22581905E+02</rscale>
<asrwt>0</asrwt>
<pdfrwt beam="1">  1       21 0.16341182E-01 0.22581905E+02</pdfrwt>
<pdfrwt beam="2">  1        1 0.32462147E-02 0.22581905E+02</pdfrwt>
<totfact> 0.79011776E+05</totfact>
</mgrwt>
</event>
<event>
 4    1  0.2185255E+006  0.2059914E+02  0.7546771E-02  0.1733669E+00
          4   -1    0    0  503    0 -0.00000000000E+00  0.00000000000E+00  0.82472915689E+01  0.82472915689E+01  0.00000000000E+00 0.  1.
         21   -1    0    0  501  502  0.00000000000E+00 -0.00000000000E+00 -0.10503004749E+03  0.10503004749E+03  0.00000000000E+00 0. -1.
         21    1    1    2  503  502 -0.10545261239E+02  0.17695255704E+02 -0.88844970221E+02  0.91201717871E+02  0.00000000000E+00 0. -1.
          4    1    1    2  501    0  0.10545261239E+02 -0.17695255704E+02 -0.79377857002E+01  0.22075621188E+02  0.00000000000E+00 0.  1.
<mgrwt>
<rscale>  2 0.20599141E+02</rscale>
<asrwt>0</asrwt>
<pdfrwt beam="2">  1       21 0.16158469E-01 0.20599141E+02</pdfrwt>
<pdfrwt beam="1">  1        4 0.12688141E-02 0.20599141E+02</pdfrwt>
<totfact> 0.15751556E+06</totfact>
</mgrwt>
</event>
<event>
 4    1  0.2185255E+006  0.2047843E+02  0.7546771E-02  0.1735978E+00
          2   -1    0    0  503    0 -0.00000000000E+00  0.00000000000E+00  0.73850561781E+02  0.73850561781E+02  0.00000000000E+00 0.  1.
         21   -1    0    0  501  502  0.00000000000E+00 -0.00000000000E+00 -0.66827163065E+01  0.66827163065E+01  0.00000000000E+00 0.  1.
         21    1    1    2  503  502  0.13649443409E+02 -0.15266263228E+02  0.17975254042E+02  0.27248410159E+02  0.00000000000E+00 0.  1.
          2    1    1    2  501    0 -0.13649443409E+02  0.15266263228E+02  0.49192591432E+02  0.53284867928E+02  0.00000000000E+00 0.  1.
<mgrwt>
<rscale>  2 0.20478430E+02</rscale>
<asrwt>0</asrwt>
<pdfrwt beam="2">  1       21 0.10281103E-02 0.20478430E+02</pdfrwt>
<pdfrwt beam="1">  1        2 0.11361624E-01 0.20478430E+02</pdfrwt>
<totfact> 0.14455349E+07</totfact>
</mgrwt>
</event>
<event>
 4    1  0.2185255E+006  0.2658731E+02  0.7546771E-02  0.1639197E+00
         -1   -1    0    0    0  501 -0.00000000000E+00  0.00000000000E+00  0.54703918811E+03  0.54703918811E+03  0.00000000000E+00 0. -1.
         21   -1    0    0  503  502  0.00000000000E+00 -0.00000000000E+00 -0.18426405330E+01  0.18426405330E+01  0.00000000000E+00 0. -1.
         21    1    1    2  503  501  0.23049441283E+02 -0.13251729503E+02  0.12260112592E+03  0.12545087148E+03  0.00000000000E+00 0. -1.
         -1    1    1    2    0  502 -0.23049441283E+02  0.13251729503E+02  0.42259542166E+03  0.42343095717E+03  0.00000000000E+00 0. -1.
<mgrwt>
<rscale>  2 0.26587310E+02</rscale>
<asrwt>0</asrwt>
<pdfrwt beam="2">  1       21 0.28348360E-03 0.26587310E+02</pdfrwt>
<pdfrwt beam="1">  1       -1 0.84159746E-01 0.26587310E+02</pdfrwt>
<totfact> 0.26537057E+06</totfact>
</mgrwt>
</event>
<event>
 4    1  0.2185255E+006  0.3175764E+02  0.7546771E-02  0.1579435E+00
         21   -1    0    0  501  502  0.00000000000E+00  0.00000000000E+00  0.11799938815E+02  0.11799938815E+02  0.00000000000E+00 0. -1.
          2   -1    0    0  503    0 -0.00000000000E+00 -0.00000000000E+00 -0.31777931130E+03  0.31777931130E+03  0.00000000000E+00 0.  1.
         21    1    1    2  503  502 -0.31754545283E+02  0.44306690141E+00 -0.12093306253E+02  0.33982282304E+02  0.00000000000E+00 0. -1.
          2    1    1    2  501    0  0.31754545283E+02 -0.44306690141E+00 -0.29388606624E+03  0.29559696782E+03  0.00000000000E+00 0.  1.
<mgrwt>
<rscale>  2 0.31757636E+02</rscale>
<asrwt>0</asrwt>
<pdfrwt beam="1">  1       21 0.18153748E-02 0.31757636E+02</pdfrwt>
<pdfrwt beam="2">  1        2 0.48889135E-01 0.31757636E+02</pdfrwt>
<totfact> 0.14663208E+06</totfact>
</mgrwt>
</event>
<event>
 4    1  0.2185255E+006  0.2976744E+02  0.7546771E-02  0.1600674E+00
          2   -1    0    0  502    0 -0.00000000000E+00  0.00000000000E+00  0.13103588099E+04  0.13103588099E+04  0.00000000000E+00 0. -1.
         21   -1    0    0  503  502  0.00000000000E+00 -0.00000000000E+00 -0.87038172344E+01  0.87038172344E+01  0.00000000000E+00 0.  1.
         21    1    1    2  503  501  0.52671303866E+01 -0.29297739406E+02  0.17434681293E+02  0.34497366691E+02  0.00000000000E+00 0.  1.
          2    1    1    2  501    0 -0.52671303866E+01  0.29297739406E+02  0.12842203113E+04  0.12845652604E+04  0.00000000000E+00 0. -1.
<mgrwt>
<rscale>  2 0.29767435E+02</rscale>
<asrwt>0</asrwt>
<pdfrwt beam="2">  1       21 0.13390498E-02 0.29767435E+02</pdfrwt>
<pdfrwt beam="1">  1        2 0.20159351E+00 0.29767435E+02</pdfrwt>
<totfact> 0.46598102E+05</totfact>
</mgrwt>
</event>
<event>
 4    1  0.2185255E+006  0.2175090E+02  0.7546771E-02  0.1712596E+00
         -2   -1    0    0    0  501 -0.00000000000E+00  0.00000000000E+00  0.20928774992E+01  0.20928774992E+01  0.00000000000E+00 0. -1.
         21   -1    0    0  503  502  0.00000000000E+00 -0.00000000000E+00 -0.28721784682E+03  0.28721784682E+03  0.00000000000E+00 0. -1.
         21    1    1    2  503  501 -0.21676202110E+02  0.18010377798E+01 -0.20931680354E+03  0.21044387783E+03  0.00000000000E+00 0. -1.
         -2    1    1    2    0  502  0.21676202110E+02 -0.18010377798E+01 -0.75808165787E+02  0.78866846488E+02  0.00000000000E+00 0. -1.
<mgrwt>
<rscale>  2 0.21750896E+02</rscale>
<asrwt>0</asrwt>
<pdfrwt beam="2">  1       21 0.44187341E-01 0.21750896E+02</pdfrwt>
<pdfrwt beam="1">  1       -2 0.32198130E-03 0.21750896E+02</pdfrwt>
<totfact> 0.26962708E+06</totfact>
</mgrwt>
</event>
<event>
 4    1  0.2185255E+006  0.2169216E+02  0.7546771E-02  0.1713631E+00
          1   -1    0    0  503    0 -0.00000000000E+00  0.00000000000E+00  0.34428301719E+03  0.34428301719E+03  0.00000000000E+00 0.  1.
         21   -1    0    0  501  502  0.00000000000E+00 -0.00000000000E+00 -0.50387495698E+01  0.50387495698E+01  0.00000000000E+00 0.  1.
         21    1    1    2  503  502 -0.11998567747E+02  0.18071646035E+02  0.20519481412E+02  0.29859657329E+02  0.00000000000E+00 0.  1.
          1    1    1    2  501    0  0.11998567747E+02 -0.18071646035E+02  0.31872478621E+03  0.31946210943E+03  0.00000000000E+00 0.  1.
<mgrwt>
<rscale>  2 0.21692165E+02</rscale>
<asrwt>0</asrwt>
<pdfrwt beam="2">  1       21 0.77519251E-03 0.21692165E+02</pdfrwt>
<pdfrwt beam="1">  1        1 0.52966599E-01 0.21692165E+02</pdfrwt>
<totfact> 0.31756757E+06</totfact>
</mgrwt>
</event>
<event>
 4    1  0.2185255E+006  0.3727779E+02  0.7546771E-02  0.1529256E+00
          1   -1    0    0  502    0 -0.00000000000E+00  0.00000000000E+00  0.81826454812E+02  0.81826454812E+02  0.00000000000E+00 0. -1.
         21   -1    0    0  503  502  0.00000000000E+00 -0.00000000000E+00 -0.19524991108E+02  0.19524991108E+02  0.00000000000E+00 0. -1.
         21    1    1    2  503  501  0.10119436925E+02  0.35877996968E+02  0.12864776523E+02  0.39435214530E+02  0.00000000000E+00 0. -1.
          1    1    1    2  501    0 -0.10119436925E+02 -0.35877996968E+02  0.49436687181E+02  0.61916231390E+02  0.00000000000E+00 0. -1.
<mgrwt>
<rscale>  2 0.37277791E+02</rscale>
<asrwt>0</asrwt>
<pdfrwt beam="2">  1       21 0.30038448E-02 0.37277791E+02</pdfrwt>
<pdfrwt beam="1">  1        1 0.12588685E-01 0.37277791E+02</pdfrwt>
<totfact> 0.24812667E+06</totfact>
</mgrwt>
</event>
<event>
 4    1  0.2185255E+006  0.2542663E+02  0.7546771E-02  0.1654949E+00
          4   -1    0    0  503    0 -0.00000000000E+00  0.00000000000E+00  0.24272759099E+03  0.24272759099E+03  0.00000000000E+00 0.  1.
         21   -1    0    0  501  502  0.00000000000E+00 -0.00000000000E+00 -0.79028719554E+01  0.79028719554E+01  0.00000000000E+00 0. -1.
         21    1    1    2  503  502  0.55358074635E+00  0.25420601010E+02  0.15377268206E+02  0.29714874807E+02  0.00000000000E+00 0. -1.
          4    1    1    2  501    0 -0.55358074635E+00 -0.25420601010E+02  0.21944745082E+03  0.22091558813E+03  0.00000000000E+00 0.  1.
<mgrwt>
<rscale>  2 0.25426628E+02</rscale>
<asrwt>0</asrwt>
<pdfrwt beam="2">  1       21 0.12158266E-02 0.25426628E+02</pdfrwt>
<pdfrwt beam="1">  1        4 0.37342701E-01 0.25426628E+02</pdfrwt>
<totfact> 0.48210225E+05</totfact>
</mgrwt>
</event>
<event>
 4    1  0.2185255E+006  0.2146381E+02  0.7546771E-02  0.1717694E+00
         21   -1    0    0  503  502  0.00000000000E+00  0.00000000000E+00  0.85549730005E+02  0.85549730005E+02  0.00000000000E+00 0.  1.
          3   -1    0    0  502    0 -0.00000000000E+00 -0.00000000000E+00 -0.20997550528E+02  0.20997550528E+02  0.00000000000E+00 0.  1.
         21    1    1    2  503  501 -0.17927966760E+02  0.11801824095E+02  0.78213171241E+02  0.81104840791E+02  0.00000000000E+00 0.  1.
          3    1    1    2  501    0  0.17927966760E+02 -0.11801824095E+02 -0.13660991763E+02  0.25442439743E+02  0.00000000000E+00 0.  1.
<mgrwt>
<rscale>  2 0.21463808E+02</rscale>
<asrwt>0</asrwt>
<pdfrwt beam="1">  1       21 0.13161497E-01 0.21463808E+02</pdfrwt>
<pdfrwt beam="2">  1        3 0.32303924E-02 0.21463808E+02</pdfrwt>
<totfact> 0.68046102E+05</totfact>
</mgrwt>
</event>
<event>
 4    1  0.2185255E+006  0.4131883E+02  0.7546771E-02  0.1498725E+00
         21   -1    0    0  501  502  0.00000000000E+00  0.00000000000E+00  0.34696319099E+01  0.34696319099E+01  0.00000000000E+00 0.  1.
          2   -1    0    0  503    0 -0.00000000000E+00 -0.00000000000E+00 -0.23247631632E+04  0.23247631632E+04  0.00000000000E+00 0.  1.
         21    1    1    2  503  502  0.67102739075E+01  0.40770312052E+02 -0.12704360345E+03  0.13359387447E+03  0.00000000000E+00 0.  1.
          2    1    1    2  501    0 -0.67102739075E+01 -0.40770312052E+02 -0.21942499278E+04  0.21946389206E+04  0.00000000000E+00 0.  1.
<mgrwt>
<rscale>  2 0.41318835E+02</rscale>
<asrwt>0</asrwt>
<pdfrwt beam="1">  1       21 0.53378819E-03 0.41318835E+02</pdfrwt>
<pdfrwt beam="2">  1        2 0.35765677E+00 0.41318835E+02</pdfrwt>
<totfact> 0.62595775E+05</totfact>
</mgrwt>
</event>
<event>
 4    1  0.2185255E+006  0.3068641E+02  0.7546771E-02  0.1590623E+00
          3   -1    0    0  502    0 -0.00000000000E+00  0.00000000000E+00  0.48692480937E+01  0.48692480937E+01  0.00000000000E+00 0.  1.
         21   -1    0    0  503  502  0.00000000000E+00 -0.00000000000E+00 -0.65369686138E+03  0.65369686138E+03  0.00000000000E+00 0.  1.
         21    1    1    2  503  501 -0.23928312852E+02 -0.19211756750E+02 -0.60072959113E+03  0.60151284060E+03  0.00000000000E+00 0.  1.
          3    1    1    2  501    0  0.23928312852E+02  0.19211756750E+02 -0.48098022162E+02  0.57053268874E+02  0.00000000000E+00 0.  1.
<mgrwt>
<rscale>  2 0.30686410E+02</rscale>
<asrwt>0</asrwt>
<pdfrwt beam="2">  1       21 0.10056877E+00 0.30686410E+02</pdfrwt>
<pdfrwt beam="1">  1        3 0.74911496E-03 0.30686410E+02</pdfrwt>
<totfact> 0.13207899E+05</totfact>
</mgrwt>
</event>
<event>
 4    1  0.2185255E+006  0.2567861E+02  0.7546771E-02  0.1651442E+00
          2   -1    0    0  503    0 -0.00000000000E+00  0.00000000000E+00  0.37952019199E+03  0.37952019199E+03  0.00000000000E+00 0. -1.
         21   -1    0    0  501  502  0.00000000000E+00 -0.00000000000E+00 -0.20009440038E+01  0.20009440038E+01  0.00000000000E+00 0. -1.
         21    1    1    2  503  502 -0.17851711085E+02 -0.18458258309E+02  0.11953341415E+03  0.12226049234E+03  0.00000000000E+00 0. -1.
          2    1    1    2  501    0  0.17851711085E+02  0.18458258309E+02  0.25798583384E+03  0.25926064366E+03  0.00000000000E+00 0. -1.
<mgrwt>
<rscale>  2 0.25678608E+02</rscale>
<asrwt>0</asrwt>
<pdfrwt beam="2">  1       21 0.30783784E-03 0.25678608E+02</pdfrwt>
<pdfrwt beam="1">  1        2 0.58387665E-01 0.25678608E+02</pdfrwt>
<totfact> 0.16830925E+07</totfact>
</mgrwt>
</event>
<event>
 4    1  0.2185255E+006  0.2546154E+02  0.7546771E-02  0.1654460E+00
         21   -1    0    0  503  502  0.00000000000E+00  0.00000000000E+00  0.21275963566E+02  0.21275963566E+02  0.00000000000E+00 0. -1.
          1   -1    0    0  502    0 -0.00000000000E+00 -0.00000000000E+00 -0.45158100244E+03  0.45158100244E+03  0.00000000000E+00 0.  1.
         21    1    1    2  503  501 -0.50800820566E+01 -0.24949600543E+02  0.13160136938E+02  0.28661455043E+02  0.00000000000E+00 0. -1.
          1    1    1    2  501    0  0.50800820566E+01  0.24949600543E+02 -0.44346517582E+03  0.44419551097E+03  0.00000000000E+00 0.  1.
<mgrwt>
<rscale>  2 0.25461536E+02</rscale>
<asrwt>0</asrwt>
<pdfrwt beam="1">  1       21 0.32732249E-02 0.25461536E+02</pdfrwt>
<pdfrwt beam="2">  1        1 0.69474007E-01 0.25461536E+02</pdfrwt>
<totfact> 0.26479481E+05</totfact>
</mgrwt>
</event>
<event>
 4    1  0.2185255E+006  0.2115892E+02  0.7546771E-02  0.1723218E+00
         -3   -1    0    0    0  501 -0.00000000000E+00  0.00000000000E+00  0.14300598799E+02  0.14300598799E+02  0.00000000000E+00 0. -1.
         21   -1    0    0  503  502  0.00000000000E+00 -0.00000000000E+00 -0.54742165897E+02  0.54742165897E+02  0.00000000000E+00 0. -1.
         21    1    1    2  503  501  0.37487584333E+01  0.20824181204E+02 -0.42808229377E+02  0.47751902737E+02  0.00000000000E+00 0. -1.
         -3    1    1    2    0  502 -0.37487584333E+01 -0.20824181204E+02  0.23666622787E+01  0.21290861959E+02  0.00000000000E+00 0. -1.
<mgrwt>
<rscale>  2 0.21158916E+02</rscale>
<asrwt>0</asrwt>
<pdfrwt beam="2">  1       21 0.84218717E-02 0.21158916E+02</pdfrwt>
<pdfrwt beam="1">  1       -3 0.22000921E-02 0.21158916E+02</pdfrwt>
<totfact> 0.24861936E+06</totfact>
</mgrwt>
</event>
<event>
 4    1  0.2185255E+006  0.3252596E+02  0.7546771E-02  0.1571736E+00
         -1   -1    0    0    0  501 -0.00000000000E+00  0.00000000000E+00  0.43808724555E+01  0.43808724555E+01  0.00000000000E+00 0. -1.
         21   -1    0    0  503  502  0.00000000000E+00 -0.00000000000E+00 -0.21512175887E+04  0.21512175887E+04  0.00000000000E+00 0.  1.
         21    1    1    2  503  501  0.55457334335E+01 -0.32049696437E+02 -0.20889217450E+04  0.20891749555E+04  0.00000000000E+00 0.  1.
         -1    1    1    2    0  502 -0.55457334335E+01  0.32049696437E+02 -0.57914971216E+02  0.66423505568E+02  0.00000000000E+00 0. -1.
<mgrwt>
<rscale>  2 0.32525962E+02</rscale>
<asrwt>0</asrwt>
<pdfrwt beam="2">  1       21 0.33095594E+00 0.32525962E+02</pdfrwt>
<pdfrwt beam="1">  1       -1 0.67398163E-03 0.32525962E+02</pdfrwt>
<totfact> 0.80374600E+03</totfact>
</mgrwt>
</event>
<event>
 4    1  0.2185255E+006  0.2323665E+02  0.7546771E-02  0.1687703E+00
          2   -1    0    0  503    0 -0.00000000000E+00  0.00000000000E+00  0.10981117723E+04  0.10981117723E+04  0.00000000000E+00 0. -1.
         21   -1    0    0  501  502  0.00000000000E+00 -0.00000000000E+00 -0.70049220561E+00  0.70049220561E+00  0.00000000000E+00 0. -1.
         21    1    1    2  503  502 -0.18891855057E+02 -0.13529211376E+02  0.24875567862E+03  0.24983860669E+03  0.00000000000E+00 0. -1.
          2    1    1    2  501    0  0.18891855057E+02  0.13529211376E+02  0.84865560144E+03  0.84897365778E+03  0.00000000000E+00 0. -1.
<mgrwt>
<rscale>  2 0.23236647E+02</rscale>
<asrwt>0</asrwt>
<pdfrwt beam="2">  1       21 0.10776891E-03 0.23236647E+02</pdfrwt>
<pdfrwt beam="1">  1        2 0.16893889E+00 0.23236647E+02</pdfrwt>
<totfact> 0.23330329E+07</totfact>
</mgrwt>
</event>
<event>
 4    1  0.2185255E+006  0.2240448E+02  0.7546771E-02  0.1701349E+00
          2   -1    0    0  503    0 -0.00000000000E+00  0.00000000000E+00  0.73311265253E+03  0.73311265253E+03  0.00000000000E+00 0.  1.
         21   -1    0    0  501  502  0.00000000000E+00 -0.00000000000E+00 -0.86329497365E+00  0.86329497365E+00  0.00000000000E+00 0.  1.
         21    1    1    2  503  502  0.10012200021E+01 -0.22382097989E+02  0.19920432399E+03  0.20046027898E+03  0.00000000000E+00 0.  1.
          2    1    1    2  501    0 -0.10012200021E+01  0.22382097989E+02  0.53304503357E+03  0.53351566852E+03  0.00000000000E+00 0.  1.
<mgrwt>
<rscale>  2 0.22404481E+02</rscale>
<asrwt>0</asrwt>
<pdfrwt beam="2">  1       21 0.13281520E-03 0.22404481E+02</pdfrwt>
<pdfrwt beam="1">  1        2 0.11278606E+00 0.22404481E+02</pdfrwt>
<totfact> 0.27733766E+07</totfact>
</mgrwt>
</event>
<event>
 4    1  0.2185255E+006  0.2923582E+02  0.7546771E-02  0.1606693E+00
         -2   -1    0    0    0  501 -0.00000000000E+00  0.00000000000E+00  0.13832065817E+03  0.13832065817E+03  0.00000000000E+00 0. -1.
         21   -1    0    0  503  502  0.00000000000E+00 -0.00000000000E+00 -0.21701550741E+02  0.21701550741E+02  0.00000000000E+00 0. -1.
         21    1    1    2  503  501  0.18469692618E+02  0.22662823342E+02 -0.93581427495E+01  0.30697034758E+02  0.00000000000E+00 0. -1.
         -2    1    1    2    0  502 -0.18469692618E+02 -0.22662823342E+02  0.12597725018E+03  0.12932517416E+03  0.00000000000E+00 0. -1.
<mgrwt>
<rscale>  2 0.29235819E+02</rscale>
<asrwt>0</asrwt>
<pdfrwt beam="2">  1       21 0.33387002E-02 0.29235819E+02</pdfrwt>
<pdfrwt beam="1">  1       -2 0.21280101E-01 0.29235819E+02</pdfrwt>
<totfact> 0.61763961E+05</totfact>
</mgrwt>
</event>
<event>
 4    1  0.2185255E+006  0.3917132E+02  0.7546771E-02  0.1514400E+00
         21   -1    0    0  503  502  0.00000000000E+00  0.00000000000E+00  0.63553214828E+01  0.63553214828E+01  0.00000000000E+00 0.  1.
          2   -1    0    0  502    0 -0.00000000000E+00 -0.00000000000E+00 -0.39537554591E+03  0.39537554591E+03  0.00000000000E+00 0. -1.
         21    1    1    2  503  501  0.22876841745E+02 -0.31796894395E+02 -0.69173529317E+02  0.79494462320E+02  0.00000000000E+00 0.  1.
          2    1    1    2  501    0 -0.22876841745E+02  0.31796894395E+02 -0.31984669511E+03  0.32223640507E+03  0.00000000000E+00 0. -1.
<mgrwt>
<rscale>  2 0.39171321E+02</rscale>
<asrwt>0</asrwt>
<pdfrwt beam="1">  1       21 0.97774140E-03 0.39171321E+02</pdfrwt>
<pdfrwt beam="2">  1        2 0.60827030E-01 0.39171321E+02</pdfrwt>
<totfact> 0.31632780E+06</totfact>
</mgrwt>
</event>
<event>
 4    1  0.2185255E+006  0.2842935E+02  0.7546771E-02  0.1616128E+00
         21   -1    0    0  501  502  0.00000000000E+00  0.00000000000E+00  0.23934980818E+01  0.23934980818E+01  0.00000000000E+00 0.  1.
         -4   -1    0    0    0  501 -0.00000000000E+00 -0.00000000000E+00 -0.39882144236E+03  0.39882144236E+03  0.00000000000E+00 0.  1.
         21    1    1    2  503  502  0.59312557312E+01  0.27803746761E+02 -0.11966545110E+03  0.12299613130E+03  0.00000000000E+00 0.  1.
         -4    1    1    2    0  503 -0.59312557312E+01 -0.27803746761E+02 -0.27676249318E+03  0.27821880914E+03  0.00000000000E+00 0.  1.
<mgrwt>
<rscale>  2 0.28429353E+02</rscale>
<asrwt>0</asrwt>
<pdfrwt beam="1">  1       21 0.36823047E-03 0.28429353E+02</pdfrwt>
<pdfrwt beam="2">  1       -4 0.61357146E-01 0.28429353E+02</pdfrwt>
<totfact> 0.11428239E+06</totfact>
</mgrwt>
</event>
<event>
 4    1  0.2185255E+006  0.2892533E+02  0.7546771E-02  0.1610281E+00
         -2   -1    0    0    0  501 -0.00000000000E+00  0.00000000000E+00  0.10422656473E+04  0.10422656473E+04  0.00000000000E+00 0. -1.
         21   -1    0    0  501  502  0.00000000000E+00 -0.00000000000E+00 -0.35320066085E+01  0.35320066085E+01  0.00000000000E+00 0. -1.
         21    1    1    2  503  502  0.14050404586E+02 -0.25283605081E+02  0.59714539787E+02  0.66351343746E+02  0.00000000000E+00 0. -1.
         -2    1    1    2    0  503 -0.14050404586E+02  0.25283605081E+02  0.97901910086E+03  0.97944631011E+03  0.00000000000E+00 0. -1.
<mgrwt>
<rscale>  2 0.28925327E+02</rscale>
<asrwt>0</asrwt>
<pdfrwt beam="2">  1       21 0.54338647E-03 0.28925327E+02</pdfrwt>
<pdfrwt beam="1">  1       -2 0.16034832E+00 0.28925327E+02</pdfrwt>
<totfact> 0.17241284E+05</totfact>
</mgrwt>
</event>
<event>
 4    1  0.2185255E+006  0.2533439E+02  0.7546771E-02  0.1656245E+00
         21   -1    0    0  501  502  0.00000000000E+00  0.00000000000E+00  0.89025132056E+02  0.89025132056E+02  0.00000000000E+00 0. -1.
         -3   -1    0    0    0  501 -0.00000000000E+00 -0.00000000000E+00 -0.82918140041E+02  0.82918140041E+02  0.00000000000E+00 0.  1.
         21    1    1    2  503  502 -0.25325035876E+02  0.68848325282E+00  0.85202629088E+02  0.88889366377E+02  0.00000000000E+00 0. -1.
         -3    1    1    2    0  503  0.25325035876E+02 -0.68848325282E+00 -0.79095637073E+02  0.83053905720E+02  0.00000000000E+00 0.  1.
<mgrwt>
<rscale>  2 0.25334393E+02</rscale>
<asrwt>0</asrwt>
<pdfrwt beam="1">  1       21 0.13696174E-01 0.25334393E+02</pdfrwt>
<pdfrwt beam="2">  1       -3 0.12756637E-01 0.25334393E+02</pdfrwt>
<totfact> 0.81486698E+04</totfact>
</mgrwt>
</event>
<event>
 4    1  0.2185255E+006  0.2141790E+02  0.7546771E-02  0.1718518E+00
          1   -1    0    0  502    0 -0.00000000000E+00  0.00000000000E+00  0.26653794598E+02  0.26653794598E+02  0.00000000000E+00 0. -1.
         21   -1    0    0  503  502  0.00000000000E+00 -0.00000000000E+00 -0.15078831892E+04  0.15078831892E+04  0.00000000000E+00 0.  1.
         21    1    1    2  503  501 -0.17230517084E+02  0.12721473869E+02 -0.15034919295E+04  0.15036444755E+04  0.00000000000E+00 0.  1.
          1    1    1    2  501    0  0.17230517084E+02 -0.12721473869E+02  0.22262534830E+02  0.30892508371E+02  0.00000000000E+00 0. -1.
<mgrwt>
<rscale>  2 0.21417904E+02</rscale>
<asrwt>0</asrwt>
<pdfrwt beam="2">  1       21 0.23198199E+00 0.21417904E+02</pdfrwt>
<pdfrwt beam="1">  1        1 0.41005845E-02 0.21417904E+02</pdfrwt>
<totfact> 0.24563109E+03</totfact>
</mgrwt>
</event>
<event>
 4    1  0.2185255E+006  0.2379928E+02  0.7546771E-02  0.1678872E+00
          2   -1    0    0  502    0 -0.00000000000E+00  0.00000000000E+00  0.20448525222E+03  0.20448525222E+03  0.00000000000E+00 0. -1.
         21   -1    0    0  503  502  0.00000000000E+00 -0.00000000000E+00 -0.16182146409E+02  0.16182146409E+02  0.00000000000E+00 0.  1.
         21    1    1    2  503  501  0.15787020703E+02  0.17809424271E+02 -0.62963158856E+01  0.24618066725E+02  0.00000000000E+00 0.  1.
          2    1    1    2  501    0 -0.15787020703E+02 -0.17809424271E+02  0.19459942170E+03  0.19604933191E+03  0.00000000000E+00 0. -1.
<mgrwt>
<rscale>  2 0.23799278E+02</rscale>
<asrwt>0</asrwt>
<pdfrwt beam="2">  1       21 0.24895611E-02 0.23799278E+02</pdfrwt>
<pdfrwt beam="1">  1        2 0.31459268E-01 0.23799278E+02</pdfrwt>
<totfact> 0.13231317E+06</totfact>
</mgrwt>
</event>
<event>
 4    1  0.2185255E+006  0.3339222E+02  0.7546771E-02  0.1563360E+00
         -3   -1    0    0    0  501 -0.00000000000E+00  0.00000000000E+00  0.76681847954E+03  0.76681847954E+03  0.00000000000E+00 0. -1.
         21   -1    0    0  503  502  0.00000000000E+00 -0.00000000000E+00 -0.35951679486E+01  0.35951679486E+01  0.00000000000E+00 0.  1.
         21    1    1    2  503  501 -0.10354156532E+01 -0.33376164288E+02  0.84343543432E+02  0.90713139880E+02  0.00000000000E+00 0.  1.
         -3    1    1    2    0  502  0.10354156532E+01  0.33376164288E+02  0.67887976816E+03  0.67970050761E+03  0.00000000000E+00 0. -1.
<mgrwt>
<rscale>  2 0.33392221E+02</rscale>
<asrwt>0</asrwt>
<pdfrwt beam="2">  1       21 0.55310337E-03 0.33392221E+02</pdfrwt>
<pdfrwt beam="1">  1       -3 0.11797194E+00 0.33392221E+02</pdfrwt>
<totfact> 0.21295375E+05</totfact>
</mgrwt>
</event>
<event>
 4    1  0.2185255E+006  0.2917357E+02  0.7546771E-02  0.1607408E+00
         21   -1    0    0  501  502  0.00000000000E+00  0.00000000000E+00  0.81132726346E+00  0.81132726346E+00  0.00000000000E+00 0. -1.
          1   -1    0    0  503    0 -0.00000000000E+00 -0.00000000000E+00 -0.20825200305E+04  0.20825200305E+04  0.00000000000E+00 0. -1.
         21    1    1    2  503  502  0.46723482519E+01  0.28796986804E+02 -0.30703471485E+03  0.30841759582E+03  0.00000000000E+00 0. -1.
          1    1    1    2  501    0 -0.46723482519E+01 -0.28796986804E+02 -0.17746739884E+04  0.17749137620E+04  0.00000000000E+00 0. -1.
<mgrwt>
<rscale>  2 0.29173572E+02</rscale>
<asrwt>0</asrwt>
<pdfrwt beam="1">  1       21 0.12482103E-03 0.29173572E+02</pdfrwt>
<pdfrwt beam="2">  1        1 0.32038397E+00 0.29173572E+02</pdfrwt>
<totfact> 0.26963999E+06</totfact>
</mgrwt>
</event>
<event>
 4    1  0.2185255E+006  0.2813549E+02  0.7546771E-02  0.1619663E+00
          2   -1    0    0  502    0 -0.00000000000E+00  0.00000000000E+00  0.11837623672E+03  0.11837623672E+03  0.00000000000E+00 0.  1.
         21   -1    0    0  503  502  0.00000000000E+00 -0.00000000000E+00 -0.94686945103E+01  0.94686945103E+01  0.00000000000E+00 0.  1.
         21    1    1    2  503  501 -0.27369586293E+02  0.65200854970E+01  0.19808222848E+02  0.34408886368E+02  0.00000000000E+00 0.  1.
          2    1    1    2  501    0  0.27369586293E+02 -0.65200854970E+01  0.89099319366E+02  0.93436044866E+02  0.00000000000E+00 0.  1.
<mgrwt>
<rscale>  2 0.28135489E+02</rscale>
<asrwt>0</asrwt>
<pdfrwt beam="2">  1       21 0.14567223E-02 0.28135489E+02</pdfrwt>
<pdfrwt beam="1">  1        2 0.18211728E-01 0.28135489E+02</pdfrwt>
<totfact> 0.55450972E+06</totfact>
</mgrwt>
</event>
<event>
 4    1  0.2185255E+006  0.2067469E+02  0.7546771E-02  0.1732235E+00
         21   -1    0    0  501  502  0.00000000000E+00  0.00000000000E+00  0.86156133511E+01  0.86156133511E+01  0.00000000000E+00 0. -1.
          1   -1    0    0  503    0 -0.00000000000E+00 -0.00000000000E+00 -0.46415757504E+03  0.46415757504E+03  0.00000000000E+00 0.  1.
         21    1    1    2  503  502 -0.19474669008E+02  0.69411791944E+01 -0.43746855660E+01  0.21132453132E+02  0.00000000000E+00 0. -1.
          1    1    1    2  501    0  0.19474669008E+02 -0.69411791944E+01 -0.45116727612E+03  0.45164073526E+03  0.00000000000E+00 0.  1.
<mgrwt>
<rscale>  2 0.20674687E+02</rscale>
<asrwt>0</asrwt>
<pdfrwt beam="1">  1       21 0.13254787E-02 0.20674687E+02</pdfrwt>
<pdfrwt beam="2">  1        1 0.71408871E-01 0.20674687E+02</pdfrwt>
<totfact> 0.99290276E+05</totfact>
</mgrwt>
</event>
<event>
 4    1  0.2185255E+006  0.2156169E+02  0.7546771E-02  0.1715944E+00
         21   -1    0    0  501  502  0.00000000000E+00  0.00000000000E+00  0.13224587489E+04  0.13224587489E+04  0.00000000000E+00 0. -1.
          3   -1    0    0  503    0 -0.00000000000E+00 -0.00000000000E+00 -0.40644008405E+00  0.40644008405E+00  0.00000000000E+00 0. -1.
         21    1    1    2  503  502 -0.21444863586E+02  0.22415132976E+01  0.90410417569E+03  0.90436124809E+03  0.00000000000E+00 0. -1.
          3    1    1    2  501    0  0.21444863586E+02 -0.22415132976E+01  0.41794813311E+03  0.41850394087E+03  0.00000000000E+00 0. -1.
<mgrwt>
<rscale>  2 0.21561692E+02</rscale>
<asrwt>0</asrwt>
<pdfrwt beam="1">  1       21 0.20345175E+00 0.21561692E+02</pdfrwt>
<pdfrwt beam="2">  1        3 0.62530302E-04 0.21561692E+02</pdfrwt>
<totfact> 0.73774290E+05</totfact>
</mgrwt>
</event>
<event>
 4    1  0.2185255E+006  0.2467714E+02  0.7546771E-02  0.1665683E+00
         21   -1    0    0  503  502  0.00000000000E+00  0.00000000000E+00  0.40281822281E+01  0.40281822281E+01  0.00000000000E+00 0.  1.
          4   -1    0    0  502    0 -0.00000000000E+00 -0.00000000000E+00 -0.35476395161E+03  0.35476395161E+03  0.00000000000E+00 0. -1.
         21    1    1    2  503  501 -0.19694187227E+02  0.14869434440E+02 -0.39467680815E+02  0.46547383600E+02  0.00000000000E+00 0.  1.
          4    1    1    2  501    0  0.19694187227E+02 -0.14869434440E+02 -0.31126808856E+03  0.31224475023E+03  0.00000000000E+00 0. -1.
<mgrwt>
<rscale>  2 0.24677137E+02</rscale>
<asrwt>0</asrwt>
<pdfrwt beam="1">  1       21 0.61972018E-03 0.24677137E+02</pdfrwt>
<pdfrwt beam="2">  1        4 0.54579083E-01 0.24677137E+02</pdfrwt>
<totfact> 0.63226999E+05</totfact>
</mgrwt>
</event>
<event>
 4    1  0.2185255E+006  0.2364762E+02  0.7546771E-02  0.1681223E+00
          2   -1    0    0  502    0 -0.00000000000E+00  0.00000000000E+00  0.25198840794E+03  0.25198840794E+03  0.00000000000E+00 0.  1.
         21   -1    0    0  503  502  0.00000000000E+00 -0.00000000000E+00 -0.47931338018E+02  0.47931338018E+02  0.00000000000E+00 0. -1.
         21    1    1    2  503  501  0.10941099543E+02 -0.20964305133E+02 -0.44418677612E+02  0.50321254652E+02  0.00000000000E+00 0. -1.
          2    1    1    2  501    0 -0.10941099543E+02  0.20964305133E+02  0.24847574754E+03  0.24959849131E+03  0.00000000000E+00 0.  1.
<mgrwt>
<rscale>  2 0.23647616E+02</rscale>
<asrwt>0</asrwt>
<pdfrwt beam="2">  1       21 0.73740521E-02 0.23647616E+02</pdfrwt>
<pdfrwt beam="1">  1        2 0.38767447E-01 0.23647616E+02</pdfrwt>
<totfact> 0.19197780E+05</totfact>
</mgrwt>
</event>
<event>
 4    1  0.2185255E+006  0.2066169E+02  0.7546771E-02  0.1732481E+00
          1   -1    0    0  502    0 -0.00000000000E+00  0.00000000000E+00  0.32029333263E+03  0.32029333263E+03  0.00000000000E+00 0. -1.
         21   -1    0    0  503  502  0.00000000000E+00 -0.00000000000E+00 -0.30029830538E+01  0.30029830538E+01  0.00000000000E+00 0. -1.
         21    1    1    2  503  501 -0.19738223158E+02  0.61080113081E+01  0.38094699721E+02  0.43337182677E+02  0.00000000000E+00 0. -1.
          1    1    1    2  501    0  0.19738223158E+02 -0.61080113081E+01  0.27919564986E+03  0.27995913301E+03  0.00000000000E+00 0. -1.
<mgrwt>
<rscale>  2 0.20661686E+02</rscale>
<asrwt>0</asrwt>
<pdfrwt beam="2">  1       21 0.46199765E-03 0.20661686E+02</pdfrwt>
<pdfrwt beam="1">  1        1 0.49275870E-01 0.20661686E+02</pdfrwt>
<totfact> 0.73190921E+06</totfact>
</mgrwt>
</event>
<event>
 4    1  0.2185255E+006  0.2908547E+02  0.7546771E-02  0.1608423E+00
         -2   -1    0    0    0  501 -0.00000000000E+00  0.00000000000E+00  0.35921512039E+03  0.35921512039E+03  0.00000000000E+00 0. -1.
         21   -1    0    0  503  502  0.00000000000E+00 -0.00000000000E+00 -0.12899578968E+02  0.12899578968E+02  0.00000000000E+00 0. -1.
         21    1    1    2  503  501 -0.13050688552E+02  0.25993153822E+02  0.49395851411E+01  0.29501932457E+02  0.00000000000E+00 0. -1.
         -2    1    1    2    0  502  0.13050688552E+02 -0.25993153822E+02  0.34137595628E+03  0.34261276690E+03  0.00000000000E+00 0. -1.
<mgrwt>
<rscale>  2 0.29085469E+02</rscale>
<asrwt>0</asrwt>
<pdfrwt beam="2">  1       21 0.19845509E-02 0.29085469E+02</pdfrwt>
<pdfrwt beam="1">  1       -2 0.55263857E-01 0.29085469E+02</pdfrwt>
<totfact> 0.25436714E+05</totfact>
</mgrwt>
</event>
<event>
 4    1  0.2185255E+006  0.3711332E+02  0.7546771E-02  0.1530597E+00
          2   -1    0    0  503    0 -0.00000000000E+00  0.00000000000E+00  0.13582753969E+04  0.13582753969E+04  0.00000000000E+00 0.  1.
         21   -1    0    0  501  502  0.00000000000E+00 -0.00000000000E+00 -0.10455366972E+02  0.10455366972E+02  0.00000000000E+00 0. -1.
         21    1    1    2  503  502  0.35521431836E+02  0.10752961278E+02  0.23579669654E+02  0.43970434578E+02  0.00000000000E+00 0. -1.
          2    1    1    2  501    0 -0.35521431836E+02 -0.10752961278E+02  0.13242403603E+04  0.13247603293E+04  0.00000000000E+00 0.  1.
<mgrwt>
<rscale>  2 0.37113317E+02</rscale>
<asrwt>0</asrwt>
<pdfrwt beam="2">  1       21 0.16085191E-02 0.37113317E+02</pdfrwt>
<pdfrwt beam="1">  1        2 0.20896531E+00 0.37113317E+02</pdfrwt>
<totfact> 0.33963812E+05</totfact>
</mgrwt>
</event>
<event>
 4    1  0.2185255E+006  0.2220137E+02  0.7546771E-02  0.1704792E+00
          3   -1    0    0  503    0 -0.00000000000E+00  0.00000000000E+00  0.13296150329E+02  0.13296150329E+02  0.00000000000E+00 0.  1.
         21   -1    0    0  501  502  0.00000000000E+00 -0.00000000000E+00 -0.12328027998E+04  0.12328027998E+04  0.00000000000E+00 0.  1.
         21    1    1    2  503  502  0.88207256938E+01 -0.20373899184E+02 -0.12233636042E+04  0.12235650408E+04  0.00000000000E+00 0.  1.
          3    1    1    2  501    0 -0.88207256938E+01  0.20373899184E+02  0.38569547364E+01  0.22533909328E+02  0.00000000000E+00 0.  1.
<mgrwt>
<rscale>  2 0.22201373E+02</rscale>
<asrwt>0</asrwt>
<pdfrwt beam="2">  1       21 0.18966191E+00 0.22201373E+02</pdfrwt>
<pdfrwt beam="1">  1        3 0.20455623E-02 0.22201373E+02</pdfrwt>
<totfact> 0.66307915E+03</totfact>
</mgrwt>
</event>
<event>
 4    1  0.2185255E+006  0.2659530E+02  0.7546771E-02  0.1639092E+00
         21   -1    0    0  501  502  0.00000000000E+00  0.00000000000E+00  0.54865037234E+03  0.54865037234E+03  0.00000000000E+00 0. -1.
         -3   -1    0    0    0  501 -0.00000000000E+00 -0.00000000000E+00 -0.15328721318E+02  0.15328721318E+02  0.00000000000E+00 0.  1.
         21    1    1    2  503  502 -0.17841893931E+02 -0.19722494978E+02  0.53653198784E+03  0.53719073332E+03  0.00000000000E+00 0. -1.
         -3    1    1    2    0  503  0.17841893931E+02  0.19722494978E+02 -0.32103368180E+01  0.26788360340E+02  0.00000000000E+00 0.  1.
<mgrwt>
<rscale>  2 0.26595300E+02</rscale>
<asrwt>0</asrwt>
<pdfrwt beam="1">  1       21 0.84407735E-01 0.26595300E+02</pdfrwt>
<pdfrwt beam="2">  1       -3 0.23582652E-02 0.26595300E+02</pdfrwt>
<totfact> 0.35738993E+04</totfact>
</mgrwt>
</event>
<event>
 4    1  0.2185255E+006  0.2434343E+02  0.7546771E-02  0.1670615E+00
          2   -1    0    0  502    0 -0.00000000000E+00  0.00000000000E+00  0.50749163573E+03  0.50749163573E+03  0.00000000000E+00 0. -1.
         21   -1    0    0  503  502  0.00000000000E+00 -0.00000000000E+00 -0.63380556416E+01  0.63380556416E+01  0.00000000000E+00 0. -1.
         21    1    1    2  503  501  0.49749452150E+01  0.23829658812E+02  0.18532442765E+02  0.30595002106E+02  0.00000000000E+00 0. -1.
          2    1    1    2  501    0 -0.49749452150E+01 -0.23829658812E+02  0.48262113732E+03  0.48323468926E+03  0.00000000000E+00 0. -1.
<mgrwt>
<rscale>  2 0.24343433E+02</rscale>
<asrwt>0</asrwt>
<pdfrwt beam="2">  1       21 0.97508588E-03 0.24343433E+02</pdfrwt>
<pdfrwt beam="1">  1        2 0.78075604E-01 0.24343433E+02</pdfrwt>
<totfact> 0.22474589E+06</totfact>
</mgrwt>
</event>
<event>
 4    1  0.2185255E+006  0.2946104E+02  0.7546771E-02  0.1604124E+00
          3   -1    0    0  502    0 -0.00000000000E+00  0.00000000000E+00  0.17208825625E+02  0.17208825625E+02  0.00000000000E+00 0.  1.
         21   -1    0    0  503  502  0.00000000000E+00 -0.00000000000E+00 -0.11791903334E+03  0.11791903334E+03  0.00000000000E+00 0. -1.
         21    1    1    2  503  501  0.16418488090E+02 -0.24461936776E+02 -0.10146660099E+03  0.10565710681E+03  0.00000000000E+00 0. -1.
          3    1    1    2  501    0 -0.16418488090E+02  0.24461936776E+02  0.75639327633E+00  0.29470752158E+02  0.00000000000E+00 0.  1.
<mgrwt>
<rscale>  2 0.29461044E+02</rscale>
<asrwt>0</asrwt>
<pdfrwt beam="2">  1       21 0.18141390E-01 0.29461044E+02</pdfrwt>
<pdfrwt beam="1">  1        3 0.26475117E-02 0.29461044E+02</pdfrwt>
<totfact> 0.58170078E+05</totfact>
</mgrwt>
</event>
<event>
 4    1  0.2185255E+006  0.3178296E+02  0.7546771E-02  0.1579177E+00
         21   -1    0    0  501  502  0.00000000000E+00  0.00000000000E+00  0.21997406837E+03  0.21997406837E+03  0.00000000000E+00 0.  1.
         -4   -1    0    0    0  501 -0.00000000000E+00 -0.00000000000E+00 -0.10539924808E+02  0.10539924808E+02  0.00000000000E+00 0. -1.
         21    1    1    2  503  502  0.29881675565E+02 -0.10827846319E+02  0.19129861531E+03  0.19392090400E+03  0.00000000000E+00 0.  1.
         -4    1    1    2    0  503 -0.29881675565E+02  0.10827846319E+02  0.18135528257E+02  0.36593089178E+02  0.00000000000E+00 0. -1.
<mgrwt>
<rscale>  2 0.31782964E+02</rscale>
<asrwt>0</asrwt>
<pdfrwt beam="1">  1       21 0.33842161E-01 0.31782964E+02</pdfrwt>
<pdfrwt beam="2">  1       -4 0.16215271E-02 0.31782964E+02</pdfrwt>
<totfact> 0.34564784E+05</totfact>
</mgrwt>
</event>
<event>
 4    1  0.2185255E+006  0.2025453E+02  0.7546771E-02  0.1740313E+00
         21   -1    0    0  501  502  0.00000000000E+00  0.00000000000E+00  0.66326058482E+00  0.66326058482E+00  0.00000000000E+00 0. -1.
          2   -1    0    0  503    0 -0.00000000000E+00 -0.00000000000E+00 -0.11902243324E+04  0.11902243324E+04  0.00000000000E+00 0.  1.
         21    1    1    2  503  502 -0.46454277237E+00 -0.20249198821E+02 -0.18210500704E+03  0.18322794394E+03  0.00000000000E+00 0. -1.
          2    1    1    2  501    0  0.46454277237E+00  0.20249198821E+02 -0.10074560648E+04  0.10076596490E+04  0.00000000000E+00 0.  1.
<mgrwt>
<rscale>  2 0.20254527E+02</rscale>
<asrwt>0</asrwt>
<pdfrwt beam="1">  1       21 0.10203900E-03 0.20254527E+02</pdfrwt>
<pdfrwt beam="2">  1        2 0.18311340E+00 0.20254527E+02</pdfrwt>
<totfact> 0.21801561E+07</totfact>
</mgrwt>
</event>
<event>
 4    1  0.2185255E+006  0.2285040E+02  0.7546771E-02  0.1693947E+00
          4   -1    0    0  503    0 -0.00000000000E+00  0.00000000000E+00  0.98708017053E+02  0.98708017053E+02  0.00000000000E+00 0.  1.
         21   -1    0    0  501  502  0.00000000000E+00 -0.00000000000E+00 -0.11111112218E+02  0.11111112218E+02  0.00000000000E+00 0.  1.
         21    1    1    2  503  502  0.22825232433E+02 -0.10721589476E+01  0.40535408911E+01  0.23207153082E+02  0.00000000000E+00 0.  1.
          4    1    1    2  501    0 -0.22825232433E+02  0.10721589476E+01  0.83543363944E+02  0.86611976189E+02  0.00000000000E+00 0.  1.
<mgrwt>
<rscale>  2 0.22850400E+02</rscale>
<asrwt>0</asrwt>
<pdfrwt beam="2">  1       21 0.17094019E-02 0.22850400E+02</pdfrwt>
<pdfrwt beam="1">  1        4 0.15185848E-01 0.22850400E+02</pdfrwt>
<totfact> 0.13374876E+06</totfact>
</mgrwt>
</event>
<event>
 4    1  0.2185255E+006  0.2075100E+02  0.7546771E-02  0.1730793E+00
          1   -1    0    0  502    0 -0.00000000000E+00  0.00000000000E+00  0.12350081051E+04  0.12350081051E+04  0.00000000000E+00 0. -1.
         21   -1    0    0  503  502  0.00000000000E+00 -0.00000000000E+00 -0.63223690370E+00  0.63223690370E+00  0.00000000000E+00 0.  1.
         21    1    1    2  503  501 -0.10580531450E+02  0.17850948612E+02  0.20342287172E+03  0.20447852883E+03  0.00000000000E+00 0.  1.
          1    1    1    2  501    0  0.10580531450E+02 -0.17850948612E+02  0.10309529965E+04  0.10311618132E+04  0.00000000000E+00 0. -1.
<mgrwt>
<rscale>  2 0.20751000E+02</rscale>
<asrwt>0</asrwt>
<pdfrwt beam="2">  1       21 0.97268204E-04 0.20751000E+02</pdfrwt>
<pdfrwt beam="1">  1        1 0.18999932E+00 0.20751000E+02</pdfrwt>
<totfact> 0.11577102E+07</totfact>
</mgrwt>
</event>
<event>
 4    1  0.2185255E+006  0.3053120E+02  0.7546771E-02  0.1592290E+00
         21   -1    0    0  503  502  0.00000000000E+00  0.00000000000E+00  0.11412693733E+03  0.11412693733E+03  0.00000000000E+00 0. -1.
          2   -1    0    0  502    0 -0.00000000000E+00 -0.00000000000E+00 -0.37286810557E+02  0.37286810557E+02  0.00000000000E+00 0. -1.
         21    1    1    2  503  501  0.26964213659E+02 -0.14320809636E+02  0.10532324327E+03  0.10965919925E+03  0.00000000000E+00 0. -1.
          2    1    1    2  501    0 -0.26964213659E+02  0.14320809636E+02 -0.28483116495E+02  0.41754548640E+02  0.00000000000E+00 0. -1.
<mgrwt>
<rscale>  2 0.30531204E+02</rscale>
<asrwt>0</asrwt>
<pdfrwt beam="1">  1       21 0.17557990E-01 0.30531204E+02</pdfrwt>
<pdfrwt beam="2">  1        2 0.57364324E-02 0.30531204E+02</pdfrwt>
<totfact> 0.38325152E+05</totfact>
</mgrwt>
</event>
<event>
 4    1  0.2185255E+006  0.2112074E+02  0.7546771E-02  0.1723917E+00
          2   -1    0    0  502    0 -0.00000000000E+00  0.00000000000E+00  0.93038610540E+02  0.93038610540E+02  0.00000000000E+00 0.  1.
         21   -1    0    0  503  502  0.00000000000E+00 -0.00000000000E+00 -0.12704919213E+03  0.12704919213E+03  0.00000000000E+00 0.  1.
         21    1    1    2  503  501  0.25645158817E+01 -0.20964468212E+02 -0.12495278439E+03  0.12672523031E+03  0.00000000000E+00 0.  1.
          2    1    1    2  501    0 -0.25645158817E+01  0.20964468212E+02  0.90942202798E+02  0.93362572367E+02  0.00000000000E+00 0.  1.
<mgrwt>
<rscale>  2 0.21120740E+02</rscale>
<asrwt>0</asrwt>
<pdfrwt beam="2">  1       21 0.19546029E-01 0.21120740E+02</pdfrwt>
<pdfrwt beam="1">  1        2 0.14313632E-01 0.21120740E+02</pdfrwt>
<totfact> 0.10426125E+05</totfact>
</mgrwt>
</event>
<event>
 4    1  0.2185255E+006  0.3512722E+02  0.7546771E-02  0.1547474E+00
          2   -1    0    0  503    0 -0.00000000000E+00  0.00000000000E+00  0.23483897056E+03  0.23483897056E+03  0.00000000000E+00 0.  1.
         21   -1    0    0  501  502  0.00000000000E+00 -0.00000000000E+00 -0.10428921812E+04  0.10428921812E+04  0.00000000000E+00 0.  1.
         21    1    1    2  503  502  0.17931313547E+02  0.30205788976E+02 -0.10412807730E+04  0.10418731064E+04  0.00000000000E+00 0.  1.
          2    1    1    2  501    0 -0.17931313547E+02 -0.30205788976E+02  0.23322756237E+03  0.23585804532E+03  0.00000000000E+00 0.  1.
<mgrwt>
<rscale>  2 0.35127222E+02</rscale>
<asrwt>0</asrwt>
<pdfrwt beam="2">  1       21 0.16044495E+00 0.35127222E+02</pdfrwt>
<pdfrwt beam="1">  1        2 0.36129072E-01 0.35127222E+02</pdfrwt>
<totfact> 0.55025653E+02</totfact>
</mgrwt>
</event>
<event>
 4    1  0.2185255E+006  0.3030805E+02  0.7546771E-02  0.1594708E+00
         21   -1    0    0  503  502  0.00000000000E+00  0.00000000000E+00  0.65646545872E+01  0.65646545872E+01  0.00000000000E+00 0.  1.
          2   -1    0    0  502    0 -0.00000000000E+00 -0.00000000000E+00 -0.17051490750E+03  0.17051490750E+03  0.00000000000E+00 0. -1.
         21    1    1    2  503  501  0.10980964534E+02 -0.28248824216E+02 -0.44475538499E+02  0.53820546044E+02  0.00000000000E+00 0.  1.
          2    1    1    2  501    0 -0.10980964534E+02  0.28248824216E+02 -0.11947471442E+03  0.12325901605E+03  0.00000000000E+00 0. -1.
<mgrwt>
<rscale>  2 0.30308046E+02</rscale>
<asrwt>0</asrwt>
<pdfrwt beam="1">  1       21 0.10099470E-02 0.30308046E+02</pdfrwt>
<pdfrwt beam="2">  1        2 0.26233060E-01 0.30308046E+02</pdfrwt>
<totfact> 0.67006542E+06</totfact>
</mgrwt>
</event>
<event>
 4    1  0.2185255E+006  0.2073054E+02  0.7546771E-02  0.1731179E+00
         21   -1    0    0  503  502  0.00000000000E+00  0.00000000000E+00  0.28114281175E+02  0.28114281175E+02  0.00000000000E+00 0.  1.
          3   -1    0    0  502    0 -0.00000000000E+00 -0.00000000000E+00 -0.59048411591E+02  0.59048411591E+02  0.00000000000E+00 0.  1.
         21    1    1    2  503  501  0.10871161014E+02 -0.17651429587E+02  0.22051577614E+02  0.30265940982E+02  0.00000000000E+00 0.  1.
          3    1    1    2  501    0 -0.10871161014E+02  0.17651429587E+02 -0.52985708029E+02  0.56896751784E+02  0.00000000000E+00 0.  1.
<mgrwt>
<rscale>  2 0.20730536E+02</rscale>
<asrwt>0</asrwt>
<pdfrwt beam="1">  1       21 0.43252741E-02 0.20730536E+02</pdfrwt>
<pdfrwt beam="2">  1        3 0.90843709E-02 0.20730536E+02</pdfrwt>
<totfact> 0.85862720E+05</totfact>
</mgrwt>
</event>
<event>
 4    1  0.2185255E+006  0.2178914E+02  0.7546771E-02  0.1711924E+00
         -2   -1    0    0    0  501 -0.00000000000E+00  0.00000000000E+00  0.84894092524E+01  0.84894092524E+01  0.00000000000E+00 0. -1.
         21   -1    0    0  501  502  0.00000000000E+00 -0.00000000000E+00 -0.12595074884E+03  0.12595074884E+03  0.00000000000E+00 0. -1.
         21    1    1    2  503  502  0.12359045670E+02 -0.17944927582E+02 -0.10885272866E+03  0.11101208480E+03  0.00000000000E+00 0. -1.
         -2    1    1    2    0  503 -0.12359045670E+02  0.17944927582E+02 -0.86086109240E+01  0.23428073285E+02  0.00000000000E+00 0. -1.
<mgrwt>
<rscale>  2 0.21789136E+02</rscale>
<asrwt>0</asrwt>
<pdfrwt beam="2">  1       21 0.19377038E-01 0.21789136E+02</pdfrwt>
<pdfrwt beam="1">  1       -2 0.13060630E-02 0.21789136E+02</pdfrwt>
<totfact> 0.18376483E+06</totfact>
</mgrwt>
</event>
<event>
 4    1  0.2185255E+006  0.2325055E+02  0.7546771E-02  0.1687481E+00
         -1   -1    0    0    0  501 -0.00000000000E+00  0.00000000000E+00  0.10560915550E+03  0.10560915550E+03  0.00000000000E+00 0. -1.
         21   -1    0    0  501  502  0.00000000000E+00 -0.00000000000E+00 -0.95112198832E+01  0.95112198832E+01  0.00000000000E+00 0. -1.
         21    1    1    2  503  502 -0.22623042999E+02  0.53652799808E+01  0.89326637768E+01  0.24907444388E+02  0.00000000000E+00 0. -1.
         -1    1    1    2    0  503  0.22623042999E+02 -0.53652799808E+01  0.87165271836E+02  0.90212930991E+02  0.00000000000E+00 0. -1.
<mgrwt>
<rscale>  2 0.23250555E+02</rscale>
<asrwt>0</asrwt>
<pdfrwt beam="2">  1       21 0.14632647E-02 0.23250555E+02</pdfrwt>
<pdfrwt beam="1">  1       -1 0.16247562E-01 0.23250555E+02</pdfrwt>
<totfact> 0.34877610E+06</totfact>
</mgrwt>
</event>
<event>
 4    1  0.2185255E+006  0.6274379E+02  0.7546771E-02  0.1386665E+00
          2   -1    0    0  502    0 -0.00000000000E+00  0.00000000000E+00  0.22665535104E+03  0.22665535104E+03  0.00000000000E+00 0.  1.
         21   -1    0    0  503  502  0.00000000000E+00 -0.00000000000E+00 -0.41509288161E+02  0.41509288161E+02  0.00000000000E+00 0.  1.
         21    1    1    2  503  501  0.37642595529E+02  0.50197784553E+02 -0.96785108374E+01  0.63485873580E+02  0.00000000000E+00 0.  1.
          2    1    1    2  501    0 -0.37642595529E+02 -0.50197784553E+02  0.19482457372E+03  0.20467876562E+03  0.00000000000E+00 0.  1.
<mgrwt>
<rscale>  2 0.62743785E+02</rscale>
<asrwt>0</asrwt>
<pdfrwt beam="2">  1       21 0.63860444E-02 0.62743785E+02</pdfrwt>
<pdfrwt beam="1">  1        2 0.34870053E-01 0.62743785E+02</pdfrwt>
<totfact> 0.30118611E+05</totfact>
</mgrwt>
</event>
<event>
 4    1  0.2185255E+006  0.2175795E+02  0.7546771E-02  0.1712472E+00
         -1   -1    0    0    0  501 -0.00000000000E+00  0.00000000000E+00  0.99577309422E+01  0.99577309422E+01  0.00000000000E+00 0. -1.
         21   -1    0    0  503  502  0.00000000000E+00 -0.00000000000E+00 -0.12951735180E+04  0.12951735180E+04  0.00000000000E+00 0.  1.
         21    1    1    2  503  501  0.16280227461E+02  0.14434770350E+02 -0.12830847173E+04  0.12832691846E+04  0.00000000000E+00 0.  1.
         -1    1    1    2    0  502 -0.16280227461E+02 -0.14434770350E+02 -0.21310698255E+01  0.21862064400E+02  0.00000000000E+00 0. -1.
<mgrwt>
<rscale>  2 0.21757950E+02</rscale>
<asrwt>0</asrwt>
<pdfrwt beam="2">  1       21 0.19925740E+00 0.21757950E+02</pdfrwt>
<pdfrwt beam="1">  1       -1 0.15319591E-02 0.21757950E+02</pdfrwt>
<totfact> 0.12631552E+04</totfact>
</mgrwt>
</event>
<event>
 4    1  0.2185255E+006  0.2147479E+02  0.7546771E-02  0.1717497E+00
         21   -1    0    0  503  502  0.00000000000E+00  0.00000000000E+00  0.15265382183E+03  0.15265382183E+03  0.00000000000E+00 0.  1.
         -2   -1    0    0    0  501 -0.00000000000E+00 -0.00000000000E+00 -0.93641761412E+02  0.93641761412E+02  0.00000000000E+00 0. -1.
         21    1    1    2  503  501 -0.19544036175E+02  0.88992797976E+01  0.15065108897E+03  0.15217396998E+03  0.00000000000E+00 0.  1.
         -2    1    1    2    0  502  0.19544036175E+02 -0.88992797976E+01 -0.91639028548E+02  0.94121613268E+02  0.00000000000E+00 0. -1.
<mgrwt>
<rscale>  2 0.21474788E+02</rscale>
<asrwt>0</asrwt>
<pdfrwt beam="1">  1       21 0.23485203E-01 0.21474788E+02</pdfrwt>
<pdfrwt beam="2">  1       -2 0.14406425E-01 0.21474788E+02</pdfrwt>
<totfact> 0.43243703E+04</totfact>
</mgrwt>
</event>
<event>
 4    1  0.2185255E+006  0.2020963E+02  0.7546771E-02  0.1741191E+00
         -1   -1    0    0    0  501 -0.00000000000E+00  0.00000000000E+00  0.15258499496E+03  0.15258499496E+03  0.00000000000E+00 0. -1.
         21   -1    0    0  501  502  0.00000000000E+00 -0.00000000000E+00 -0.11024496267E+03  0.11024496267E+03  0.00000000000E+00 0. -1.
         21    1    1    2  503  502 -0.13040772493E+01  0.20167513830E+02 -0.10863979061E+03  0.11050354445E+03  0.00000000000E+00 0. -1.
         -1    1    1    2    0  503  0.13040772493E+01 -0.20167513830E+02  0.15097982289E+03  0.15232641318E+03  0.00000000000E+00 0. -1.
<mgrwt>
<rscale>  2 0.20209632E+02</rscale>
<asrwt>0</asrwt>
<pdfrwt beam="2">  1       21 0.16960763E-01 0.20209632E+02</pdfrwt>
<pdfrwt beam="1">  1       -1 0.23474615E-01 0.20209632E+02</pdfrwt>
<totfact> 0.38904895E+04</totfact>
</mgrwt>
</event>
<event>
 4    1  0.2185255E+006  0.2171774E+02  0.7546771E-02  0.1713180E+00
         21   -1    0    0  501  502  0.00000000000E+00  0.00000000000E+00  0.54923158650E+00  0.54923158650E+00  0.00000000000E+00 0. -1.
          2   -1    0    0  503    0 -0.00000000000E+00 -0.00000000000E+00 -0.10400182809E+04  0.10400182809E+04  0.00000000000E+00 0.  1.
         21    1    1    2  503  502  0.21572879072E+02  0.25042150386E+01 -0.30253235651E+03  0.30331087508E+03  0.00000000000E+00 0. -1.
          2    1    1    2  501    0 -0.21572879072E+02 -0.25042150386E+01 -0.73693669283E+03  0.73725663744E+03  0.00000000000E+00 0.  1.
<mgrwt>
<rscale>  2 0.21717739E+02</rscale>
<asrwt>0</asrwt>
<pdfrwt beam="1">  1       21 0.84497438E-04 0.21717739E+02</pdfrwt>
<pdfrwt beam="2">  1        2 0.16000230E+00 0.21717739E+02</pdfrwt>
<totfact> 0.34700909E+07</totfact>
</mgrwt>
</event>
<event>
 4    1  0.2185255E+006  0.3395126E+02  0.7546771E-02  0.1558116E+00
         -1   -1    0    0    0  501 -0.00000000000E+00  0.00000000000E+00  0.79573730828E+02  0.79573730828E+02  0.00000000000E+00 0. -1.
         21   -1    0    0  503  502  0.00000000000E+00 -0.00000000000E+00 -0.33076599929E+02  0.33076599929E+02  0.00000000000E+00 0.  1.
         21    1    1    2  503  501  0.25635938254E+02  0.22259534786E+02 -0.18978531034E+02  0.38895666330E+02  0.00000000000E+00 0.  1.
         -1    1    1    2    0  502 -0.25635938254E+02 -0.22259534786E+02  0.65475661933E+02  0.73754664427E+02  0.00000000000E+00 0. -1.
<mgrwt>
<rscale>  2 0.33951262E+02</rscale>
<asrwt>0</asrwt>
<pdfrwt beam="2">  1       21 0.50887077E-02 0.33951262E+02</pdfrwt>
<pdfrwt beam="1">  1       -1 0.12242112E-01 0.33951262E+02</pdfrwt>
<totfact> 0.82457933E+05</totfact>
</mgrwt>
</event>
<event>
 4    1  0.2185255E+006  0.3683791E+02  0.7546771E-02  0.1532860E+00
         21   -1    0    0  501  502  0.00000000000E+00  0.00000000000E+00  0.36244194200E+02  0.36244194200E+02  0.00000000000E+00 0.  1.
         -1   -1    0    0    0  501 -0.00000000000E+00 -0.00000000000E+00 -0.46190313027E+02  0.46190313027E+02  0.00000000000E+00 0. -1.
         21    1    1    2  503  502 -0.23468583653E+02  0.28394668555E+02  0.12965263887E+02  0.39052908837E+02  0.00000000000E+00 0.  1.
         -1    1    1    2    0  503  0.23468583653E+02 -0.28394668555E+02 -0.22911382714E+02  0.43381598390E+02  0.00000000000E+00 0. -1.
<mgrwt>
<rscale>  2 0.36837910E+02</rscale>
<asrwt>0</asrwt>
<pdfrwt beam="1">  1       21 0.55760299E-02 0.36837910E+02</pdfrwt>
<pdfrwt beam="2">  1       -1 0.71062020E-02 0.36837910E+02</pdfrwt>
<totfact> 0.15987048E+06</totfact>
</mgrwt>
</event>
<event>
 4    1  0.2185255E+006  0.2659595E+02  0.7546771E-02  0.1639083E+00
         -4   -1    0    0    0  501 -0.00000000000E+00  0.00000000000E+00  0.60415919768E+02  0.60415919768E+02  0.00000000000E+00 0. -1.
         21   -1    0    0  503  502  0.00000000000E+00 -0.00000000000E+00 -0.27702288484E+02  0.27702288484E+02  0.00000000000E+00 0.  1.
         21    1    1    2  503  501 -0.26056726703E+02  0.53283805213E+01 -0.17121331338E+02  0.31630438382E+02  0.00000000000E+00 0.  1.
         -4    1    1    2    0  502  0.26056726703E+02 -0.53283805213E+01  0.49834962621E+02  0.56487769870E+02  0.00000000000E+00 0. -1.
<mgrwt>
<rscale>  2 0.26595952E+02</rscale>
<asrwt>0</asrwt>
<pdfrwt beam="2">  1       21 0.42618906E-02 0.26595952E+02</pdfrwt>
<pdfrwt beam="1">  1       -4 0.92947568E-02 0.26595952E+02</pdfrwt>
<totfact> 0.76648093E+05</totfact>
</mgrwt>
</event>
<event>
 4    1  0.2185255E+006  0.2042193E+02  0.7546771E-02  0.1737065E+00
         21   -1    0    0  503  502  0.00000000000E+00  0.00000000000E+00  0.11897457596E+01  0.11897457596E+01  0.00000000000E+00 0.  1.
         -4   -1    0    0    0  501 -0.00000000000E+00 -0.00000000000E+00 -0.89165823882E+03  0.89165823882E+03  0.00000000000E+00 0. -1.
         21    1    1    2  503  501 -0.19284499092E+02  0.67203711252E+01 -0.97462907345E+02  0.99579483838E+02  0.00000000000E+00 0.  1.
         -4    1    1    2    0  502  0.19284499092E+02 -0.67203711252E+01 -0.79300558572E+03  0.79326850074E+03  0.00000000000E+00 0. -1.
<mgrwt>
<rscale>  2 0.20421932E+02</rscale>
<asrwt>0</asrwt>
<pdfrwt beam="1">  1       21 0.18303795E-03 0.20421932E+02</pdfrwt>
<pdfrwt beam="2">  1       -4 0.13717808E+00 0.20421932E+02</pdfrwt>
<totfact> 0.48303387E+05</totfact>
</mgrwt>
</event>
<event>
 4    1  0.2185255E+006  0.2056640E+02  0.7546771E-02  0.1734293E+00
         21   -1    0    0  503  502  0.00000000000E+00  0.00000000000E+00  0.32543046052E+00  0.32543046052E+00  0.00000000000E+00 0. -1.
          1   -1    0    0  502    0 -0.00000000000E+00 -0.00000000000E+00 -0.18203695782E+04  0.18203695782E+04  0.00000000000E+00 0.  1.
         21    1    1    2  503  501 -0.12895809681E+02 -0.16021079972E+02 -0.42317857569E+03  0.42367804266E+03  0.00000000000E+00 0. -1.
          1    1    1    2  501    0  0.12895809681E+02  0.16021079972E+02 -0.13968655720E+04  0.13970169660E+04  0.00000000000E+00 0.  1.
<mgrwt>
<rscale>  2 0.20566402E+02</rscale>
<asrwt>0</asrwt>
<pdfrwt beam="1">  1       21 0.50066012E-04 0.20566402E+02</pdfrwt>
<pdfrwt beam="2">  1        1 0.28005805E+00 0.20566402E+02</pdfrwt>
<totfact> 0.13198535E+07</totfact>
</mgrwt>
</event>
<event>
 4    1  0.2185255E+006  0.2037673E+02  0.7546771E-02  0.1737939E+00
         -1   -1    0    0    0  501 -0.00000000000E+00  0.00000000000E+00  0.10671818192E+04  0.10671818192E+04  0.00000000000E+00 0. -1.
         21   -1    0    0  503  502  0.00000000000E+00 -0.00000000000E+00 -0.88800894736E+00  0.88800894736E+00  0.00000000000E+00 0. -1.
         21    1    1    2  503  501 -0.15099446400E+02 -0.13682752816E+02  0.13284870890E+03  0.13440234545E+03  0.00000000000E+00 0. -1.
         -1    1    1    2    0  502  0.15099446400E+02  0.13682752816E+02  0.93344510131E+03  0.93366748265E+03  0.00000000000E+00 0. -1.
<mgrwt>
<rscale>  2 0.20376727E+02</rscale>
<asrwt>0</asrwt>
<pdfrwt beam="2">  1       21 0.13661761E-03 0.20376727E+02</pdfrwt>
<pdfrwt beam="1">  1       -1 0.16418079E+00 0.20376727E+02</pdfrwt>
<totfact> 0.15972586E+06</totfact>
</mgrwt>
</event>
<event>
 4    1  0.2185255E+006  0.2238227E+02  0.7546771E-02  0.1701723E+00
         21   -1    0    0  501  502  0.00000000000E+00  0.00000000000E+00  0.22269731025E+01  0.22269731025E+01  0.00000000000E+00 0.  1.
          1   -1    0    0  503    0 -0.00000000000E+00 -0.00000000000E+00 -0.37249017906E+03  0.37249017906E+03  0.00000000000E+00 0.  1.
         21    1    1    2  503  502 -0.15089432293E+02  0.16531035071E+02 -0.67217512055E+02  0.70846030336E+02  0.00000000000E+00 0.  1.
          1    1    1    2  501    0  0.15089432293E+02 -0.16531035071E+02 -0.30304569390E+03  0.30387112183E+03  0.00000000000E+00 0.  1.
<mgrwt>
<rscale>  2 0.22382272E+02</rscale>
<asrwt>0</asrwt>
<pdfrwt beam="1">  1       21 0.34261121E-03 0.22382272E+02</pdfrwt>
<pdfrwt beam="2">  1        1 0.57306187E-01 0.22382272E+02</pdfrwt>
<totfact> 0.97384537E+06</totfact>
</mgrwt>
</event>
<event>
 4    1  0.2185255E+006  0.2479806E+02  0.7546771E-02  0.1663920E+00
         21   -1    0    0  503  502  0.00000000000E+00  0.00000000000E+00  0.70189996614E+01  0.70189996614E+01  0.00000000000E+00 0. -1.
          1   -1    0    0  502    0 -0.00000000000E+00 -0.00000000000E+00 -0.36204679475E+03  0.36204679475E+03  0.00000000000E+00 0.  1.
         21    1    1    2  503  501 -0.10892778467E+02  0.22277591048E+02 -0.16852482650E+02  0.29982492510E+02  0.00000000000E+00 0. -1.
          1    1    1    2  501    0  0.10892778467E+02 -0.22277591048E+02 -0.33817531244E+03  0.33908330191E+03  0.00000000000E+00 0.  1.
<mgrwt>
<rscale>  2 0.24798058E+02</rscale>
<asrwt>0</asrwt>
<pdfrwt beam="1">  1       21 0.10798464E-02 0.24798058E+02</pdfrwt>
<pdfrwt beam="2">  1        1 0.55699492E-01 0.24798058E+02</pdfrwt>
<totfact> 0.18799561E+06</totfact>
</mgrwt>
</event>
<event>
 4    1  0.2185255E+006  0.3847679E+02  0.7546771E-02  0.1519729E+00
         -1   -1    0    0    0  501 -0.00000000000E+00  0.00000000000E+00  0.16497766627E+04  0.16497766627E+04  0.00000000000E+00 0.  1.
         21   -1    0    0  501  502  0.00000000000E+00 -0.00000000000E+00 -0.12754272555E+01  0.12754272555E+01  0.00000000000E+00 0.  1.
         21    1    1    2  503  502  0.81897377290E+01  0.37595100778E+02  0.37480146645E+03  0.37677128694E+03  0.00000000000E+00 0.  1.
         -1    1    1    2    0  503 -0.81897377290E+01 -0.37595100778E+02  0.12736997690E+04  0.12742808030E+04  0.00000000000E+00 0.  1.
<mgrwt>
<rscale>  2 0.38476790E+02</rscale>
<asrwt>0</asrwt>
<pdfrwt beam="2">  1       21 0.19622090E-03 0.38476790E+02</pdfrwt>
<pdfrwt beam="1">  1       -1 0.25381009E+00 0.38476790E+02</pdfrwt>
<totfact> 0.29483614E+05</totfact>
</mgrwt>
</event>
<event>
 4    1  0.2185255E+006  0.3177537E+02  0.7546771E-02  0.1579254E+00
          1   -1    0    0  503    0 -0.00000000000E+00  0.00000000000E+00  0.15473739549E+04  0.15473739549E+04  0.00000000000E+00 0. -1.
         21   -1    0    0  501  502  0.00000000000E+00 -0.00000000000E+00 -0.14359425006E+01  0.14359425006E+01  0.00000000000E+00 0.  1.
         21    1    1    2  503  502 -0.16740401806E+02  0.27008023565E+02  0.20096265533E+03  0.20345924218E+03  0.00000000000E+00 0.  1.
          1    1    1    2  501    0  0.16740401806E+02 -0.27008023565E+02  0.13449753571E+04  0.13453506552E+04  0.00000000000E+00 0. -1.
<mgrwt>
<rscale>  2 0.31775374E+02</rscale>
<asrwt>0</asrwt>
<pdfrwt beam="2">  1       21 0.22091547E-03 0.31775374E+02</pdfrwt>
<pdfrwt beam="1">  1        1 0.23805620E+00 0.31775374E+02</pdfrwt>
<totfact> 0.24960185E+06</totfact>
</mgrwt>
</event>
<event>
 4    1  0.2185255E+006  0.3147985E+02  0.7546771E-02  0.1582284E+00
          2   -1    0    0  502    0 -0.00000000000E+00  0.00000000000E+00  0.30848006824E+02  0.30848006824E+02  0.00000000000E+00 0. -1.
         21   -1    0    0  503  502  0.00000000000E+00 -0.00000000000E+00 -0.87959267024E+02  0.87959267024E+02  0.00000000000E+00 0. -1.
         21    1    1    2  503  501 -0.12244756836E+02 -0.29000804004E+02 -0.75884277794E+02  0.82154758348E+02  0.00000000000E+00 0. -1.
          2    1    1    2  501    0  0.12244756836E+02  0.29000804004E+02  0.18773017595E+02  0.36652515500E+02  0.00000000000E+00 0. -1.
<mgrwt>
<rscale>  2 0.31479846E+02</rscale>
<asrwt>0</asrwt>
<pdfrwt beam="2">  1       21 0.13532195E-01 0.31479846E+02</pdfrwt>
<pdfrwt beam="1">  1        2 0.47458472E-02 0.31479846E+02</pdfrwt>
<totfact> 0.76331784E+05</totfact>
</mgrwt>
</event>
<event>
 4    1  0.2185255E+006  0.2396538E+02  0.7546771E-02  0.1676323E+00
          2   -1    0    0  503    0 -0.00000000000E+00  0.00000000000E+00  0.80435470490E+03  0.80435470490E+03  0.00000000000E+00 0. -1.
         21   -1    0    0  501  502  0.00000000000E+00 -0.00000000000E+00 -0.98307927555E+01  0.98307927555E+01  0.00000000000E+00 0. -1.
         21    1    1    2  503  502  0.23451207797E+02  0.49376621118E+01  0.52320147670E+01  0.24529851871E+02  0.00000000000E+00 0. -1.
          2    1    1    2  501    0 -0.23451207797E+02 -0.49376621118E+01  0.78929189737E+03  0.78965564578E+03  0.00000000000E+00 0. -1.
<mgrwt>
<rscale>  2 0.23965385E+02</rscale>
<asrwt>0</asrwt>
<pdfrwt beam="2">  1       21 0.15124303E-02 0.23965385E+02</pdfrwt>
<pdfrwt beam="1">  1        2 0.12374683E+00 0.23965385E+02</pdfrwt>
<totfact> 0.70575090E+05</totfact>
</mgrwt>
</event>
<event>
 4    1  0.2185255E+006  0.2027035E+02  0.7546771E-02  0.1740005E+00
         21   -1    0    0  501  502  0.00000000000E+00  0.00000000000E+00  0.12399354517E+03  0.12399354517E+03  0.00000000000E+00 0. -1.
          3   -1    0    0  503    0 -0.00000000000E+00 -0.00000000000E+00 -0.60484956583E+01  0.60484956583E+01  0.00000000000E+00 0. -1.
         21    1    1    2  503  502  0.20045292890E+02  0.30122065461E+01  0.10269314303E+03  0.10467458517E+03  0.00000000000E+00 0. -1.
          3    1    1    2  501    0 -0.20045292890E+02 -0.30122065461E+01  0.15251906487E+02  0.25367455663E+02  0.00000000000E+00 0. -1.
<mgrwt>
<rscale>  2 0.20270352E+02</rscale>
<asrwt>0</asrwt>
<pdfrwt beam="1">  1       21 0.19075928E-01 0.20270352E+02</pdfrwt>
<pdfrwt beam="2">  1        3 0.93053789E-03 0.20270352E+02</pdfrwt>
<totfact> 0.21379453E+06</totfact>
</mgrwt>
</event>
<event>
 4    1  0.2185255E+006  0.3101671E+02  0.7546771E-02  0.1587115E+00
         21   -1    0    0  503  502  0.00000000000E+00  0.00000000000E+00  0.16283357077E+01  0.16283357077E+01  0.00000000000E+00 0.  1.
          1   -1    0    0  502    0 -0.00000000000E+00 -0.00000000000E+00 -0.24440445435E+04  0.24440445435E+04  0.00000000000E+00 0.  1.
         21    1    1    2  503  501  0.18392120909E+02 -0.24975312083E+02 -0.15638109872E+03  0.15942736391E+03  0.00000000000E+00 0.  1.
          1    1    1    2  501    0 -0.18392120909E+02  0.24975312083E+02 -0.22860351090E+04  0.22862455153E+04  0.00000000000E+00 0.  1.
<mgrwt>
<rscale>  2 0.31016710E+02</rscale>
<asrwt>0</asrwt>
<pdfrwt beam="1">  1       21 0.25051306E-03 0.31016710E+02</pdfrwt>
<pdfrwt beam="2">  1        1 0.37600705E+00 0.31016710E+02</pdfrwt>
<totfact> 0.59598629E+05</totfact>
</mgrwt>
</event>
<event>
 4    1  0.2185255E+006  0.2017588E+02  0.7546771E-02  0.1741853E+00
         21   -1    0    0  501  502  0.00000000000E+00  0.00000000000E+00  0.40711094962E+02  0.40711094962E+02  0.00000000000E+00 0. -1.
          4   -1    0    0  503    0 -0.00000000000E+00 -0.00000000000E+00 -0.13283357286E+03  0.13283357286E+03  0.00000000000E+00 0.  1.
         21    1    1    2  503  502  0.16758093958E+02  0.11235318498E+02  0.37381363699E+02  0.42478611640E+02  0.00000000000E+00 0. -1.
          4    1    1    2  501    0 -0.16758093958E+02 -0.11235318498E+02 -0.12950384160E+03  0.13106605618E+03  0.00000000000E+00 0.  1.
<mgrwt>
<rscale>  2 0.20175879E+02</rscale>
<asrwt>0</asrwt>
<pdfrwt beam="1">  1       21 0.62632454E-02 0.20175879E+02</pdfrwt>
<pdfrwt beam="2">  1        4 0.20435934E-01 0.20175879E+02</pdfrwt>
<totfact> 0.10163306E+05</totfact>
</mgrwt>
</event>
<event>
 4    1  0.2185255E+006  0.3593686E+02  0.7546771E-02  0.1540435E+00
         21   -1    0    0  501  502  0.00000000000E+00  0.00000000000E+00  0.35965541586E+02  0.35965541586E+02  0.00000000000E+00 0.  1.
         -2   -1    0    0    0  501 -0.00000000000E+00 -0.00000000000E+00 -0.47684058639E+02  0.47684058639E+02  0.00000000000E+00 0.  1.
         21    1    1    2  503  502  0.22037912037E+02  0.28386409849E+02  0.14925432564E+02  0.38913061666E+02  0.00000000000E+00 0.  1.
         -2    1    1    2    0  503 -0.22037912037E+02 -0.28386409849E+02 -0.26643949617E+02  0.44736538558E+02  0.00000000000E+00 0.  1.
<mgrwt>
<rscale>  2 0.35936859E+02</rscale>
<asrwt>0</asrwt>
<pdfrwt beam="1">  1       21 0.55331603E-02 0.35936859E+02</pdfrwt>
<pdfrwt beam="2">  1       -2 0.73360090E-02 0.35936859E+02</pdfrwt>
<totfact> 0.14862481E+06</totfact>
</mgrwt>
</event>
<event>
 4    1  0.2185255E+006  0.2133502E+02  0.7546771E-02  0.1720013E+00
          2   -1    0    0  503    0 -0.00000000000E+00  0.00000000000E+00  0.54404796154E+03  0.54404796154E+03  0.00000000000E+00 0.  1.
         21   -1    0    0  501  502  0.00000000000E+00 -0.00000000000E+00 -0.32589491943E+01  0.32589491943E+01  0.00000000000E+00 0. -1.
         21    1    1    2  503  502 -0.19631213301E+02 -0.83545414489E+01  0.34468844643E+02  0.40537441330E+02  0.00000000000E+00 0. -1.
          2    1    1    2  501    0  0.19631213301E+02  0.83545414489E+01  0.50632016771E+03  0.50676946941E+03  0.00000000000E+00 0.  1.
<mgrwt>
<rscale>  2 0.21335016E+02</rscale>
<asrwt>0</asrwt>
<pdfrwt beam="2">  1       21 0.50137723E-03 0.21335016E+02</pdfrwt>
<pdfrwt beam="1">  1        2 0.83699614E-01 0.21335016E+02</pdfrwt>
<totfact> 0.54596528E+06</totfact>
</mgrwt>
</event>
<event>
 4    1  0.2185255E+006  0.2747842E+02  0.7546771E-02  0.1627760E+00
          1   -1    0    0  503    0 -0.00000000000E+00  0.00000000000E+00  0.10169291816E+04  0.10169291816E+04  0.00000000000E+00 0.  1.
         21   -1    0    0  501  502  0.00000000000E+00 -0.00000000000E+00 -0.11707295492E+02  0.11707295492E+02  0.00000000000E+00 0.  1.
         21    1    1    2  503  502 -0.16931978222E+02  0.21641890785E+02  0.48692373893E+01  0.27906500963E+02  0.00000000000E+00 0.  1.
          1    1    1    2  501    0  0.16931978222E+02 -0.21641890785E+02  0.10003526487E+04  0.10007299762E+04  0.00000000000E+00 0.  1.
<mgrwt>
<rscale>  2 0.27478416E+02</rscale>
<asrwt>0</asrwt>
<pdfrwt beam="2">  1       21 0.18011232E-02 0.27478416E+02</pdfrwt>
<pdfrwt beam="1">  1        1 0.15645057E+00 0.27478416E+02</pdfrwt>
<totfact> 0.22860770E+05</totfact>
</mgrwt>
</event>
<event>
 4    1  0.2185255E+006  0.2174158E+02  0.7546771E-02  0.1712760E+00
         21   -1    0    0  501  502  0.00000000000E+00  0.00000000000E+00  0.64006111683E+01  0.64006111683E+01  0.00000000000E+00 0. -1.
          1   -1    0    0  503    0 -0.00000000000E+00 -0.00000000000E+00 -0.22359655519E+03  0.22359655519E+03  0.00000000000E+00 0. -1.
         21    1    1    2  503  502  0.21672125567E+02 -0.17364431837E+01 -0.14487958672E+02  0.26126561351E+02  0.00000000000E+00 0. -1.
          1    1    1    2  501    0 -0.21672125567E+02  0.17364431837E+01 -0.20270798535E+03  0.20387060501E+03  0.00000000000E+00 0. -1.
<mgrwt>
<rscale>  2 0.21741579E+02</rscale>
<asrwt>0</asrwt>
<pdfrwt beam="1">  1       21 0.98470939E-03 0.21741579E+02</pdfrwt>
<pdfrwt beam="2">  1        1 0.34399471E-01 0.21741579E+02</pdfrwt>
<totfact> 0.36528287E+06</totfact>
</mgrwt>
</event>
<event>
 4    1  0.2185255E+006  0.2394991E+02  0.7546771E-02  0.1676560E+00
          1   -1    0    0  503    0 -0.00000000000E+00  0.00000000000E+00  0.92185115157E+03  0.92185115157E+03  0.00000000000E+00 0. -1.
         21   -1    0    0  501  502  0.00000000000E+00 -0.00000000000E+00 -0.66359207505E+00  0.66359207505E+00  0.00000000000E+00 0.  1.
         21    1    1    2  503  502  0.87874185440E+01 -0.22279570711E+02  0.34542761661E+03  0.34625689352E+03  0.00000000000E+00 0.  1.
          1    1    1    2  501    0 -0.87874185440E+01  0.22279570711E+02  0.57575994289E+03  0.57625785012E+03  0.00000000000E+00 0. -1.
<mgrwt>
<rscale>  2 0.23949906E+02</rscale>
<asrwt>0</asrwt>
<pdfrwt beam="2">  1       21 0.10209183E-03 0.23949906E+02</pdfrwt>
<pdfrwt beam="1">  1        1 0.14182223E+00 0.23949906E+02</pdfrwt>
<totfact> 0.17971785E+07</totfact>
</mgrwt>
</event>
<event>
 4    1  0.2185255E+006  0.6001139E+02  0.7546771E-02  0.1397784E+00
         21   -1    0    0  503  502  0.00000000000E+00  0.00000000000E+00  0.76305620421E+02  0.76305620421E+02  0.00000000000E+00 0. -1.
          2   -1    0    0  502    0 -0.00000000000E+00 -0.00000000000E+00 -0.12282970962E+03  0.12282970962E+03  0.00000000000E+00 0.  1.
         21    1    1    2  503  501  0.47470472502E+02  0.36714053905E+02  0.54868801146E+02  0.81313915493E+02  0.00000000000E+00 0. -1.
          2    1    1    2  501    0 -0.47470472502E+02 -0.36714053905E+02 -0.10139289035E+03  0.11782141455E+03  0.00000000000E+00 0.  1.
<mgrwt>
<rscale>  2 0.60011395E+02</rscale>
<asrwt>0</asrwt>
<pdfrwt beam="1">  1       21 0.11739326E-01 0.60011395E+02</pdfrwt>
<pdfrwt beam="2">  1        2 0.18896878E-01 0.60011395E+02</pdfrwt>
<totfact> 0.20584080E+05</totfact>
</mgrwt>
</event>
<event>
 4    1  0.2185255E+006  0.2800258E+02  0.7546771E-02  0.1621278E+00
         21   -1    0    0  503  502  0.00000000000E+00  0.00000000000E+00  0.77778305261E+01  0.77778305261E+01  0.00000000000E+00 0. -1.
          2   -1    0    0  502    0 -0.00000000000E+00 -0.00000000000E+00 -0.15153066586E+04  0.15153066586E+04  0.00000000000E+00 0. -1.
         21    1    1    2  503  501  0.10304901993E+02 -0.26037537265E+02 -0.17992022442E+02  0.33284489232E+02  0.00000000000E+00 0. -1.
          2    1    1    2  501    0 -0.10304901993E+02  0.26037537265E+02 -0.14895368056E+04  0.14897999999E+04  0.00000000000E+00 0. -1.
<mgrwt>
<rscale>  2 0.28002578E+02</rscale>
<asrwt>0</asrwt>
<pdfrwt beam="1">  1       21 0.11965903E-02 0.28002578E+02</pdfrwt>
<pdfrwt beam="2">  1        2 0.23312391E+00 0.28002578E+02</pdfrwt>
<totfact> 0.43707153E+05</totfact>
</mgrwt>
</event>
<event>
 4    1  0.2185255E+006  0.2689299E+02  0.7546771E-02  0.1635212E+00
          2   -1    0    0  503    0 -0.00000000000E+00  0.00000000000E+00  0.14079713259E+04  0.14079713259E+04  0.00000000000E+00 0. -1.
         21   -1    0    0  501  502  0.00000000000E+00 -0.00000000000E+00 -0.10537812183E+01  0.10537812183E+01  0.00000000000E+00 0.  1.
         21    1    1    2  503  502  0.90868548680E+01 -0.25311303982E+02  0.19908210106E+03  0.20089030839E+03  0.00000000000E+00 0.  1.
          2    1    1    2  501    0 -0.90868548680E+01  0.25311303982E+02  0.12078354436E+04  0.12081347987E+04  0.00000000000E+00 0. -1.
<mgrwt>
<rscale>  2 0.26892992E+02</rscale>
<asrwt>0</asrwt>
<pdfrwt beam="2">  1       21 0.16212131E-03 0.26892992E+02</pdfrwt>
<pdfrwt beam="1">  1        2 0.21660947E+00 0.26892992E+02</pdfrwt>
<totfact> 0.94212225E+06</totfact>
</mgrwt>
</event>
<event>
 4    1  0.2185255E+006  0.3121015E+02  0.7546771E-02  0.1585085E+00
          2   -1    0    0  503    0 -0.00000000000E+00  0.00000000000E+00  0.15690380934E+04  0.15690380934E+04  0.00000000000E+00 0.  1.
         21   -1    0    0  501  502  0.00000000000E+00 -0.00000000000E+00 -0.54802996087E+01  0.54802996087E+01  0.00000000000E+00 0. -1.
         21    1    1    2  503  502 -0.22856377874E+02 -0.21252284734E+02  0.40449969998E+02  0.51090837620E+02  0.00000000000E+00 0. -1.
          2    1    1    2  501    0  0.22856377874E+02  0.21252284734E+02  0.15231078238E+04  0.15234275554E+04  0.00000000000E+00 0.  1.
<mgrwt>
<rscale>  2 0.31210152E+02</rscale>
<asrwt>0</asrwt>
<pdfrwt beam="2">  1       21 0.84312426E-03 0.31210152E+02</pdfrwt>
<pdfrwt beam="1">  1        2 0.24139012E+00 0.31210152E+02</pdfrwt>
<totfact> 0.70830157E+05</totfact>
</mgrwt>
</event>
<event>
 4    1  0.2185255E+006  0.2257315E+02  0.7546771E-02  0.1698524E+00
          2   -1    0    0  503    0 -0.00000000000E+00  0.00000000000E+00  0.53535001100E+03  0.53535001100E+03  0.00000000000E+00 0.  1.
         21   -1    0    0  501  502  0.00000000000E+00 -0.00000000000E+00 -0.14787142297E+01  0.14787142297E+01  0.00000000000E+00 0. -1.
         21    1    1    2  503  502  0.14146872815E+02 -0.17590146663E+02  0.10670974872E+03  0.10907115908E+03  0.00000000000E+00 0. -1.
          2    1    1    2  501    0 -0.14146872815E+02  0.17590146663E+02  0.42716154805E+03  0.42775756616E+03  0.00000000000E+00 0.  1.
<mgrwt>
<rscale>  2 0.22573154E+02</rscale>
<asrwt>0</asrwt>
<pdfrwt beam="2">  1       21 0.22749492E-03 0.22573154E+02</pdfrwt>
<pdfrwt beam="1">  1        2 0.82361385E-01 0.22573154E+02</pdfrwt>
<totfact> 0.17849672E+07</totfact>
</mgrwt>
</event>
<event>
 4    1  0.2185255E+006  0.3337574E+02  0.7546771E-02  0.1563516E+00
          2   -1    0    0  502    0 -0.00000000000E+00  0.00000000000E+00  0.25086088391E+04  0.25086088391E+04  0.00000000000E+00 0. -1.
         21   -1    0    0  503  502  0.00000000000E+00 -0.00000000000E+00 -0.11871480681E+01  0.11871480681E+01  0.00000000000E+00 0. -1.
         21    1    1    2  503  501  0.30453333276E+02  0.13657759330E+02  0.26086925583E+03  0.26299564357E+03  0.00000000000E+00 0. -1.
          2    1    1    2  501    0 -0.30453333276E+02 -0.13657759330E+02  0.22465524352E+04  0.22468003436E+04  0.00000000000E+00 0. -1.
<mgrwt>
<rscale>  2 0.33375738E+02</rscale>
<asrwt>0</asrwt>
<pdfrwt beam="2">  1       21 0.18264017E-03 0.33375738E+02</pdfrwt>
<pdfrwt beam="1">  1        2 0.38593558E+00 0.33375738E+02</pdfrwt>
<totfact> 0.24364930E+06</totfact>
</mgrwt>
</event>
<event>
 4    1  0.2185255E+006  0.2438196E+02  0.7546771E-02  0.1670041E+00
         21   -1    0    0  501  502  0.00000000000E+00  0.00000000000E+00  0.35794463790E+02  0.35794463790E+02  0.00000000000E+00 0. -1.
          3   -1    0    0  503    0 -0.00000000000E+00 -0.00000000000E+00 -0.31890272292E+02  0.31890272292E+02  0.00000000000E+00 0.  1.
         21    1    1    2  503  502  0.18660724654E+02 -0.15692586549E+02  0.25379459929E+02  0.35193705453E+02  0.00000000000E+00 0. -1.
          3    1    1    2  501    0 -0.18660724654E+02  0.15692586549E+02 -0.21475268430E+02  0.32491030629E+02  0.00000000000E+00 0.  1.
<mgrwt>
<rscale>  2 0.24381959E+02</rscale>
<asrwt>0</asrwt>
<pdfrwt beam="1">  1       21 0.55068406E-02 0.24381959E+02</pdfrwt>
<pdfrwt beam="2">  1        3 0.49061958E-02 0.24381959E+02</pdfrwt>
<totfact> 0.15927078E+06</totfact>
</mgrwt>
</event>
<event>
 4    1  0.2185255E+006  0.2764236E+02  0.7546771E-02  0.1625714E+00
         21   -1    0    0  503  502  0.00000000000E+00  0.00000000000E+00  0.24889383733E+03  0.24889383733E+03  0.00000000000E+00 0. -1.
         -4   -1    0    0    0  501 -0.00000000000E+00 -0.00000000000E+00 -0.22380043293E+02  0.22380043293E+02  0.00000000000E+00 0.  1.
         21    1    1    2  503  501 -0.16315357147E+02 -0.22313881974E+02  0.23924783871E+03  0.24083942479E+03  0.00000000000E+00 0. -1.
         -4    1    1    2    0  502  0.16315357147E+02  0.22313881974E+02 -0.12734044676E+02  0.30434455825E+02  0.00000000000E+00 0.  1.
<mgrwt>
<rscale>  2 0.27642363E+02</rscale>
<asrwt>0</asrwt>
<pdfrwt beam="1">  1       21 0.38291358E-01 0.27642363E+02</pdfrwt>
<pdfrwt beam="2">  1       -4 0.34430838E-02 0.27642363E+02</pdfrwt>
<totfact> 0.85544073E+04</totfact>
</mgrwt>
</event>
<event>
 4    1  0.2185255E+006  0.2323958E+02  0.7546771E-02  0.1687656E+00
          1   -1    0    0  502    0 -0.00000000000E+00  0.00000000000E+00  0.56500672876E+03  0.56500672876E+03  0.00000000000E+00 0.  1.
         21   -1    0    0  503  502  0.00000000000E+00 -0.00000000000E+00 -0.12152965925E+01  0.12152965925E+01  0.00000000000E+00 0.  1.
         21    1    1    2  503  501  0.10657124025E+02 -0.20651972363E+02  0.15109351362E+03  0.15287029834E+03  0.00000000000E+00 0.  1.
          1    1    1    2  501    0 -0.10657124025E+02  0.20651972363E+02  0.41269791855E+03  0.41335172702E+03  0.00000000000E+00 0.  1.
<mgrwt>
<rscale>  2 0.23239584E+02</rscale>
<asrwt>0</asrwt>
<pdfrwt beam="2">  1       21 0.18696916E-03 0.23239584E+02</pdfrwt>
<pdfrwt beam="1">  1        1 0.86923902E-01 0.23239584E+02</pdfrwt>
<totfact> 0.14427883E+07</totfact>
</mgrwt>
</event>
<event>
 4    1  0.2185255E+006  0.2056956E+02  0.7546771E-02  0.1734233E+00
         21   -1    0    0  501  502  0.00000000000E+00  0.00000000000E+00  0.11816996588E+01  0.11816996588E+01  0.00000000000E+00 0.  1.
          2   -1    0    0  503    0 -0.00000000000E+00 -0.00000000000E+00 -0.40394541975E+03  0.40394541975E+03  0.00000000000E+00 0.  1.
         21    1    1    2  503  502  0.94441985554E+01 -0.18273309276E+02 -0.13310272185E+03  0.13468274308E+03  0.00000000000E+00 0.  1.
          2    1    1    2  501    0 -0.94441985554E+01  0.18273309276E+02 -0.26966099824E+03  0.27044437633E+03  0.00000000000E+00 0.  1.
<mgrwt>
<rscale>  2 0.20569558E+02</rscale>
<asrwt>0</asrwt>
<pdfrwt beam="1">  1       21 0.18179971E-03 0.20569558E+02</pdfrwt>
<pdfrwt beam="2">  1        2 0.62145530E-01 0.20569558E+02</pdfrwt>
<totfact> 0.31752834E+07</totfact>
</mgrwt>
</event>
<event>
 4    1  0.2185255E+006  0.2836946E+02  0.7546771E-02  0.1616844E+00
          2   -1    0    0  503    0 -0.00000000000E+00  0.00000000000E+00  0.19534174631E+04  0.19534174631E+04  0.00000000000E+00 0. -1.
         21   -1    0    0  501  502  0.00000000000E+00 -0.00000000000E+00 -0.64121260660E+00  0.64121260660E+00  0.00000000000E+00 0. -1.
         21    1    1    2  503  502 -0.10915850690E+01 -0.28348452819E+02  0.39224814213E+03  0.39327271879E+03  0.00000000000E+00 0. -1.
          2    1    1    2  501    0  0.10915850690E+01  0.28348452819E+02  0.15605281084E+04  0.15607859569E+04  0.00000000000E+00 0. -1.
<mgrwt>
<rscale>  2 0.28369461E+02</rscale>
<asrwt>0</asrwt>
<pdfrwt beam="2">  1       21 0.98649657E-04 0.28369461E+02</pdfrwt>
<pdfrwt beam="1">  1        2 0.30052100E+00 0.28369461E+02</pdfrwt>
<totfact> 0.10744580E+07</totfact>
</mgrwt>
</event>
<event>
 4    1  0.2185255E+006  0.4215273E+02  0.7546771E-02  0.1492942E+00
         21   -1    0    0  503  502  0.00000000000E+00  0.00000000000E+00  0.12923768708E+01  0.12923768708E+01  0.00000000000E+00 0.  1.
          2   -1    0    0  502    0 -0.00000000000E+00 -0.00000000000E+00 -0.25455124760E+04  0.25455124760E+04  0.00000000000E+00 0. -1.
         21    1    1    2  503  501 -0.38188223684E+02 -0.17846912486E+02 -0.40855538429E+03  0.41072418330E+03  0.00000000000E+00 0.  1.
          2    1    1    2  501    0  0.38188223684E+02  0.17846912486E+02 -0.21356647148E+04  0.21360806695E+04  0.00000000000E+00 0. -1.
<mgrwt>
<rscale>  2 0.42152731E+02</rscale>
<asrwt>0</asrwt>
<pdfrwt beam="1">  1       21 0.19882954E-03 0.42152731E+02</pdfrwt>
<pdfrwt beam="2">  1        2 0.39161272E+00 0.42152731E+02</pdfrwt>
<totfact> 0.21094430E+06</totfact>
</mgrwt>
</event>
<event>
 4    1  0.2185255E+006  0.2261028E+02  0.7546771E-02  0.1697906E+00
          1   -1    0    0  502    0 -0.00000000000E+00  0.00000000000E+00  0.14227268109E+04  0.14227268109E+04  0.00000000000E+00 0. -1.
         21   -1    0    0  503  502  0.00000000000E+00 -0.00000000000E+00 -0.43970829687E+01  0.43970829687E+01  0.00000000000E+00 0. -1.
         21    1    1    2  503  501  0.13491588342E+02 -0.18143914319E+02  0.25380179171E+02  0.33990852851E+02  0.00000000000E+00 0. -1.
          1    1    1    2  501    0 -0.13491588342E+02  0.18143914319E+02  0.13929495488E+04  0.13931330411E+04  0.00000000000E+00 0. -1.
<mgrwt>
<rscale>  2 0.22610276E+02</rscale>
<asrwt>0</asrwt>
<pdfrwt beam="2">  1       21 0.67647544E-03 0.22610276E+02</pdfrwt>
<pdfrwt beam="1">  1        1 0.21888068E+00 0.22610276E+02</pdfrwt>
<totfact> 0.54352455E+05</totfact>
</mgrwt>
</event>
<event>
 4    1  0.2185255E+006  0.2342430E+02  0.7546771E-02  0.1684723E+00
         21   -1    0    0  503  502  0.00000000000E+00  0.00000000000E+00  0.32979960566E+02  0.32979960566E+02  0.00000000000E+00 0.  1.
         -1   -1    0    0    0  501 -0.00000000000E+00 -0.00000000000E+00 -0.17034751933E+02  0.17034751933E+02  0.00000000000E+00 0.  1.
         21    1    1    2  503  501 -0.23062687112E+02 -0.41000507053E+01  0.11792351758E+02  0.26225131317E+02  0.00000000000E+00 0.  1.
         -1    1    1    2    0  502  0.23062687112E+02  0.41000507053E+01  0.41528568755E+01  0.23789581182E+02  0.00000000000E+00 0.  1.
<mgrwt>
<rscale>  2 0.23424303E+02</rscale>
<asrwt>0</asrwt>
<pdfrwt beam="1">  1       21 0.50738401E-02 0.23424303E+02</pdfrwt>
<pdfrwt beam="2">  1       -1 0.26207311E-02 0.23424303E+02</pdfrwt>
<totfact> 0.67425668E+06</totfact>
</mgrwt>
</event>
<event>
 4    1  0.2185255E+006  0.2061060E+02  0.7546771E-02  0.1733451E+00
         -1   -1    0    0    0  501 -0.00000000000E+00  0.00000000000E+00  0.16183955906E+03  0.16183955906E+03  0.00000000000E+00 0. -1.
         21   -1    0    0  503  502  0.00000000000E+00 -0.00000000000E+00 -0.14769016222E+02  0.14769016222E+02  0.00000000000E+00 0. -1.
         21    1    1    2  503  501  0.18174184383E+02 -0.97208939048E+01 -0.65385807690E+01  0.21622899777E+02  0.00000000000E+00 0. -1.
         -1    1    1    2    0  502 -0.18174184383E+02  0.97208939048E+01  0.15360912361E+03  0.15498567551E+03  0.00000000000E+00 0. -1.
<mgrwt>
<rscale>  2 0.20610598E+02</rscale>
<asrwt>0</asrwt>
<pdfrwt beam="2">  1       21 0.22721564E-02 0.20610598E+02</pdfrwt>
<pdfrwt beam="1">  1       -1 0.24898393E-01 0.20610598E+02</pdfrwt>
<totfact> 0.90353769E+05</totfact>
</mgrwt>
</event>
<event>
 4    1  0.2185255E+006  0.2169600E+02  0.7546771E-02  0.1713563E+00
         21   -1    0    0  503  502  0.00000000000E+00  0.00000000000E+00  0.44872374331E+01  0.44872374331E+01  0.00000000000E+00 0. -1.
          1   -1    0    0  502    0 -0.00000000000E+00 -0.00000000000E+00 -0.59932912862E+03  0.59932912862E+03  0.00000000000E+00 0.  1.
         21    1    1    2  503  501  0.19827894057E+02 -0.88074498756E+01 -0.23204376786E+02  0.31767273381E+02  0.00000000000E+00 0. -1.
          1    1    1    2  501    0 -0.19827894057E+02  0.88074498756E+01 -0.57163751440E+03  0.57204909267E+03  0.00000000000E+00 0.  1.
<mgrwt>
<rscale>  2 0.21696003E+02</rscale>
<asrwt>0</asrwt>
<pdfrwt beam="1">  1       21 0.69034374E-03 0.21696003E+02</pdfrwt>
<pdfrwt beam="2">  1        1 0.92204545E-01 0.21696003E+02</pdfrwt>
<totfact> 0.19514841E+06</totfact>
</mgrwt>
</event>
<event>
 4    1  0.2185255E+006  0.3739112E+02  0.7546771E-02  0.1528337E+00
         -1   -1    0    0    0  501 -0.00000000000E+00  0.00000000000E+00  0.43723683409E+01  0.43723683409E+01  0.00000000000E+00 0. -1.
         21   -1    0    0  503  502  0.00000000000E+00 -0.00000000000E+00 -0.32844610344E+03  0.32844610344E+03  0.00000000000E+00 0. -1.
         21    1    1    2  503  501 -0.27279095647E+02 -0.25572376581E+02 -0.18910337182E+03  0.19276457334E+03  0.00000000000E+00 0. -1.
         -1    1    1    2    0  502  0.27279095647E+02  0.25572376581E+02 -0.13497036328E+03  0.14005389844E+03  0.00000000000E+00 0. -1.
<mgrwt>
<rscale>  2 0.37391115E+02</rscale>
<asrwt>0</asrwt>
<pdfrwt beam="2">  1       21 0.50530168E-01 0.37391115E+02</pdfrwt>
<pdfrwt beam="1">  1       -1 0.67267208E-03 0.37391115E+02</pdfrwt>
<totfact> 0.86845627E+05</totfact>
</mgrwt>
</event>
<event>
 4    1  0.2185255E+006  0.3534136E+02  0.7546771E-02  0.1545590E+00
         -4   -1    0    0    0  501 -0.00000000000E+00  0.00000000000E+00  0.40689209032E+02  0.40689209032E+02  0.00000000000E+00 0.  1.
         21   -1    0    0  503  502  0.00000000000E+00 -0.00000000000E+00 -0.84039864026E+02  0.84039864026E+02  0.00000000000E+00 0. -1.
         21    1    1    2  503  501  0.65060903157E+01  0.34737334763E+02 -0.71361517499E+02  0.79633396370E+02  0.00000000000E+00 0. -1.
         -4    1    1    2    0  502 -0.65060903157E+01 -0.34737334763E+02  0.28010862505E+02  0.45095676687E+02  0.00000000000E+00 0.  1.
<mgrwt>
<rscale>  2 0.35341359E+02</rscale>
<asrwt>0</asrwt>
<pdfrwt beam="2">  1       21 0.12929210E-01 0.35341359E+02</pdfrwt>
<pdfrwt beam="1">  1       -4 0.62598784E-02 0.35341359E+02</pdfrwt>
<totfact> 0.25443588E+05</totfact>
</mgrwt>
</event>
<event>
 4    1  0.2185255E+006  0.2303968E+02  0.7546771E-02  0.1690868E+00
         21   -1    0    0  501  502  0.00000000000E+00  0.00000000000E+00  0.34836155535E+01  0.34836155535E+01  0.00000000000E+00 0.  1.
          2   -1    0    0  503    0 -0.00000000000E+00 -0.00000000000E+00 -0.49375357060E+03  0.49375357060E+03  0.00000000000E+00 0.  1.
         21    1    1    2  503  502  0.22658242849E+02 -0.41750324408E+01 -0.38409211849E+02  0.44789445406E+02  0.00000000000E+00 0.  1.
          2    1    1    2  501    0 -0.22658242849E+02  0.41750324408E+01 -0.45186074319E+03  0.45244774074E+03  0.00000000000E+00 0.  1.
<mgrwt>
<rscale>  2 0.23039680E+02</rscale>
<asrwt>0</asrwt>
<pdfrwt beam="1">  1       21 0.53594080E-03 0.23039680E+02</pdfrwt>
<pdfrwt beam="2">  1        2 0.75962096E-01 0.23039680E+02</pdfrwt>
<totfact> 0.55666183E+06</totfact>
</mgrwt>
</event>
<event>
 4    1  0.2185255E+006  0.2083405E+02  0.7546771E-02  0.1729233E+00
         -3   -1    0    0    0  501 -0.00000000000E+00  0.00000000000E+00  0.31382605937E+02  0.31382605937E+02  0.00000000000E+00 0.  1.
         21   -1    0    0  503  502  0.00000000000E+00 -0.00000000000E+00 -0.35667424142E+02  0.35667424142E+02  0.00000000000E+00 0.  1.
         21    1    1    2  503  501  0.71962647832E+01 -0.19551758544E+02 -0.28373864685E+02  0.35201330744E+02  0.00000000000E+00 0.  1.
         -3    1    1    2    0  502 -0.71962647832E+01  0.19551758544E+02  0.24089046480E+02  0.31848699334E+02  0.00000000000E+00 0.  1.
<mgrwt>
<rscale>  2 0.20834046E+02</rscale>
<asrwt>0</asrwt>
<pdfrwt beam="2">  1       21 0.54872960E-02 0.20834046E+02</pdfrwt>
<pdfrwt beam="1">  1       -3 0.48280932E-02 0.20834046E+02</pdfrwt>
<totfact> 0.15472289E+06</totfact>
</mgrwt>
</event>
<event>
 4    1  0.2185255E+006  0.1005717E+03  0.7546771E-02  0.1279098E+00
         21   -1    0    0  503  502  0.00000000000E+00  0.00000000000E+00  0.94103709789E+03  0.94103709789E+03  0.00000000000E+00 0. -1.
         -3   -1    0    0    0  501 -0.00000000000E+00 -0.00000000000E+00 -0.20529427342E+02  0.20529427342E+02  0.00000000000E+00 0. -1.
         21    1    1    2  503  501 -0.21917954655E+02 -0.98154335693E+02  0.79211200779E+03  0.79847110357E+03  0.00000000000E+00 0. -1.
         -3    1    1    2    0  502  0.21917954655E+02  0.98154335693E+02  0.12839566275E+03  0.16309542165E+03  0.00000000000E+00 0. -1.
<mgrwt>
<rscale>  2 0.10057172E+03</rscale>
<asrwt>0</asrwt>
<pdfrwt beam="1">  1       21 0.14477490E+00 0.10057172E+03</pdfrwt>
<pdfrwt beam="2">  1       -3 0.31583742E-02 0.10057172E+03</pdfrwt>
<totfact> 0.75117290E+03</totfact>
</mgrwt>
</event>
<event>
 4    1  0.2185255E+006  0.4033423E+02  0.7546771E-02  0.1505766E+00
         21   -1    0    0  503  502  0.00000000000E+00  0.00000000000E+00  0.14391547308E+02  0.14391547308E+02  0.00000000000E+00 0. -1.
          1   -1    0    0  502    0 -0.00000000000E+00 -0.00000000000E+00 -0.18423270663E+03  0.18423270663E+03  0.00000000000E+00 0. -1.
         21    1    1    2  503  501  0.26070405468E+02 -0.30776353221E+02 -0.23185725394E+02  0.46523411535E+02  0.00000000000E+00 0. -1.
          1    1    1    2  501    0 -0.26070405468E+02  0.30776353221E+02 -0.14665543392E+03  0.15210084240E+03  0.00000000000E+00 0. -1.
<mgrwt>
<rscale>  2 0.40334228E+02</rscale>
<asrwt>0</asrwt>
<pdfrwt beam="1">  1       21 0.22140842E-02 0.40334228E+02</pdfrwt>
<pdfrwt beam="2">  1        1 0.28343494E-01 0.40334228E+02</pdfrwt>
<totfact> 0.15097010E+06</totfact>
</mgrwt>
</event>
<event>
 4    1  0.2185255E+006  0.2196398E+02  0.7546771E-02  0.1708876E+00
         21   -1    0    0  501  502  0.00000000000E+00  0.00000000000E+00  0.15514754892E+02  0.15514754892E+02  0.00000000000E+00 0.  1.
          2   -1    0    0  503    0 -0.00000000000E+00 -0.00000000000E+00 -0.98206131136E+02  0.98206131136E+02  0.00000000000E+00 0.  1.
         21    1    1    2  503  502 -0.68859372925E+00 -0.21953181240E+02  0.56590178621E+01  0.22681287685E+02  0.00000000000E+00 0.  1.
          2    1    1    2  501    0  0.68859372925E+00  0.21953181240E+02 -0.88350394106E+02  0.91039598344E+02  0.00000000000E+00 0.  1.
<mgrwt>
<rscale>  2 0.21963978E+02</rscale>
<asrwt>0</asrwt>
<pdfrwt beam="1">  1       21 0.23868853E-02 0.21963978E+02</pdfrwt>
<pdfrwt beam="2">  1        2 0.15108636E-01 0.21963978E+02</pdfrwt>
<totfact> 0.29919076E+06</totfact>
</mgrwt>
</event>
<event>
 4    1  0.2185255E+006  0.2237151E+02  0.7546771E-02  0.1701905E+00
         21   -1    0    0  501  502  0.00000000000E+00  0.00000000000E+00  0.45167492782E+01  0.45167492782E+01  0.00000000000E+00 0. -1.
          1   -1    0    0  503    0 -0.00000000000E+00 -0.00000000000E+00 -0.85857617686E+03  0.85857617686E+03  0.00000000000E+00 0.  1.
         21    1    1    2  503  502  0.21954283028E+01  0.22263524171E+02 -0.24292168463E+02  0.33024140603E+02  0.00000000000E+00 0. -1.
          1    1    1    2  501    0 -0.21954283028E+01 -0.22263524171E+02 -0.82976725912E+03  0.83006878554E+03  0.00000000000E+00 0.  1.
<mgrwt>
<rscale>  2 0.22371509E+02</rscale>
<asrwt>0</asrwt>
<pdfrwt beam="1">  1       21 0.69488452E-03 0.22371509E+02</pdfrwt>
<pdfrwt beam="2">  1        1 0.13208864E+00 0.22371509E+02</pdfrwt>
<totfact> 0.12065661E+06</totfact>
</mgrwt>
</event>
<event>
 4    1  0.2185255E+006  0.2960791E+02  0.7546771E-02  0.1602464E+00
         21   -1    0    0  501  502  0.00000000000E+00  0.00000000000E+00  0.14003681318E+02  0.14003681318E+02  0.00000000000E+00 0.  1.
          2   -1    0    0  503    0 -0.00000000000E+00 -0.00000000000E+00 -0.38626007931E+03  0.38626007931E+03  0.00000000000E+00 0. -1.
         21    1    1    2  503  502  0.27291157724E+02 -0.11481328933E+02 -0.29300679236E+01  0.29752537741E+02  0.00000000000E+00 0.  1.
          2    1    1    2  501    0 -0.27291157724E+02  0.11481328933E+02 -0.36932633007E+03  0.37051122289E+03  0.00000000000E+00 0. -1.
<mgrwt>
<rscale>  2 0.29607908E+02</rscale>
<asrwt>0</asrwt>
<pdfrwt beam="1">  1       21 0.21544125E-02 0.29607908E+02</pdfrwt>
<pdfrwt beam="2">  1        2 0.59424627E-01 0.29607908E+02</pdfrwt>
<totfact> 0.91435655E+05</totfact>
</mgrwt>
</event>
<event>
 4    1  0.2185255E+006  0.2084429E+02  0.7546771E-02  0.1729041E+00
         21   -1    0    0  503  502  0.00000000000E+00  0.00000000000E+00  0.11730800961E+03  0.11730800961E+03  0.00000000000E+00 0. -1.
         -2   -1    0    0    0  501 -0.00000000000E+00 -0.00000000000E+00 -0.88151415667E+02  0.88151415667E+02  0.00000000000E+00 0.  1.
         21    1    1    2  503  501  0.19005490174E+02  0.85601213706E+01  0.11512669303E+03  0.11699846060E+03  0.00000000000E+00 0. -1.
         -2    1    1    2    0  502 -0.19005490174E+02 -0.85601213706E+01 -0.85970099087E+02  0.88460964677E+02  0.00000000000E+00 0.  1.
<mgrwt>
<rscale>  2 0.20844288E+02</rscale>
<asrwt>0</asrwt>
<pdfrwt beam="1">  1       21 0.18047386E-01 0.20844288E+02</pdfrwt>
<pdfrwt beam="2">  1       -2 0.13561756E-01 0.20844288E+02</pdfrwt>
<totfact> 0.74824773E+04</totfact>
</mgrwt>
</event>
<event>
 4    1  0.2185255E+006  0.2119995E+02  0.7546771E-02  0.1722467E+00
          2   -1    0    0  502    0 -0.00000000000E+00  0.00000000000E+00  0.97248189357E+03  0.97248189357E+03  0.00000000000E+00 0. -1.
         21   -1    0    0  503  502  0.00000000000E+00 -0.00000000000E+00 -0.62197650120E+01  0.62197650120E+01  0.00000000000E+00 0. -1.
         21    1    1    2  503  501  0.44926661861E+01 -0.20718442469E+02  0.12311564351E+02  0.24515556787E+02  0.00000000000E+00 0. -1.
          2    1    1    2  501    0 -0.44926661861E+01  0.20718442469E+02  0.95395056421E+03  0.95418610180E+03  0.00000000000E+00 0. -1.
<mgrwt>
<rscale>  2 0.21199951E+02</rscale>
<asrwt>0</asrwt>
<pdfrwt beam="2">  1       21 0.95688770E-03 0.21199951E+02</pdfrwt>
<pdfrwt beam="1">  1        2 0.14961248E+00 0.21199951E+02</pdfrwt>
<totfact> 0.11027373E+06</totfact>
</mgrwt>
</event>
<event>
 4    1  0.2185255E+006  0.2810566E+02  0.7546771E-02  0.1620024E+00
          1   -1    0    0  503    0 -0.00000000000E+00  0.00000000000E+00  0.18065795976E+03  0.18065795976E+03  0.00000000000E+00 0. -1.
         21   -1    0    0  501  502  0.00000000000E+00 -0.00000000000E+00 -0.48553161342E+01  0.48553161342E+01  0.00000000000E+00 0. -1.
         21    1    1    2  503  502  0.13513156773E+02  0.24643921257E+02  0.58651460307E+02  0.65037850957E+02  0.00000000000E+00 0. -1.
          1    1    1    2  501    0 -0.13513156773E+02 -0.24643921257E+02  0.11715118331E+03  0.12047542493E+03  0.00000000000E+00 0. -1.
<mgrwt>
<rscale>  2 0.28105662E+02</rscale>
<asrwt>0</asrwt>
<pdfrwt beam="2">  1       21 0.74697185E-03 0.28105662E+02</pdfrwt>
<pdfrwt beam="1">  1        1 0.27793527E-01 0.28105662E+02</pdfrwt>
<totfact> 0.75727942E+06</totfact>
</mgrwt>
</event>
<event>
 4    1  0.2185255E+006  0.2556588E+02  0.7546771E-02  0.1653004E+00
          2   -1    0    0  502    0 -0.00000000000E+00  0.00000000000E+00  0.22442893384E+03  0.22442893384E+03  0.00000000000E+00 0.  1.
         21   -1    0    0  503  502  0.00000000000E+00 -0.00000000000E+00 -0.61114223619E+01  0.61114223619E+01  0.00000000000E+00 0. -1.
         21    1    1    2  503  501 -0.25174520859E+02  0.44562178148E+01  0.25760259886E+02  0.36293324002E+02  0.00000000000E+00 0. -1.
          2    1    1    2  501    0  0.25174520859E+02 -0.44562178148E+01  0.19255725159E+03  0.19424703220E+03  0.00000000000E+00 0.  1.
<mgrwt>
<rscale>  2 0.25565883E+02</rscale>
<asrwt>0</asrwt>
<pdfrwt beam="2">  1       21 0.94021900E-03 0.25565883E+02</pdfrwt>
<pdfrwt beam="1">  1        2 0.34527522E-01 0.25565883E+02</pdfrwt>
<totfact> 0.54083909E+06</totfact>
</mgrwt>
</event>
<event>
 4    1  0.2185255E+006  0.2022256E+02  0.7546771E-02  0.1740938E+00
          1   -1    0    0  503    0 -0.00000000000E+00  0.00000000000E+00  0.15439554817E+04  0.15439554817E+04  0.00000000000E+00 0. -1.
         21   -1    0    0  501  502  0.00000000000E+00 -0.00000000000E+00 -0.69212662088E+00  0.69212662088E+00  0.00000000000E+00 0. -1.
         21    1    1    2  503  502  0.20221811338E+02  0.17453365386E+00  0.16482615966E+03  0.16606208183E+03  0.00000000000E+00 0. -1.
          1    1    1    2  501    0 -0.20221811338E+02 -0.17453365386E+00  0.13784371954E+04  0.13785855264E+04  0.00000000000E+00 0. -1.
<mgrwt>
<rscale>  2 0.20222565E+02</rscale>
<asrwt>0</asrwt>
<pdfrwt beam="2">  1       21 0.10648225E-03 0.20222565E+02</pdfrwt>
<pdfrwt beam="1">  1        1 0.23752886E+00 0.20222565E+02</pdfrwt>
<totfact> 0.65885324E+06</totfact>
</mgrwt>
</event>
<event>
 4    1  0.2185255E+006  0.2127781E+02  0.7546771E-02  0.1721050E+00
         21   -1    0    0  501  502  0.00000000000E+00  0.00000000000E+00  0.16853660792E+02  0.16853660792E+02  0.00000000000E+00 0.  1.
         -3   -1    0    0    0  501 -0.00000000000E+00 -0.00000000000E+00 -0.12275671039E+03  0.12275671039E+03  0.00000000000E+00 0.  1.
         21    1    1    2  503  502  0.37351166690E+01  0.20947411075E+02  0.87448182930E+01  0.23004716348E+02  0.00000000000E+00 0.  1.
         -3    1    1    2    0  503 -0.37351166690E+01 -0.20947411075E+02 -0.11464786789E+03  0.11660565483E+03  0.00000000000E+00 0.  1.
<mgrwt>
<rscale>  2 0.21277808E+02</rscale>
<asrwt>0</asrwt>
<pdfrwt beam="1">  1       21 0.25928709E-02 0.21277808E+02</pdfrwt>
<pdfrwt beam="2">  1       -3 0.18885648E-01 0.21277808E+02</pdfrwt>
<totfact> 0.59509786E+05</totfact>
</mgrwt>
</event>
<event>
 4    1  0.2185255E+006  0.2577377E+02  0.7546771E-02  0.1650130E+00
         21   -1    0    0  501  502  0.00000000000E+00  0.00000000000E+00  0.40185316409E+00  0.40185316409E+00  0.00000000000E+00 0. -1.
          2   -1    0    0  503    0 -0.00000000000E+00 -0.00000000000E+00 -0.16573307579E+04  0.16573307579E+04  0.00000000000E+00 0. -1.
         21    1    1    2  503  502  0.25506984668E+02  0.36988083501E+01 -0.78638937239E+03  0.78681162450E+03  0.00000000000E+00 0. -1.
          2    1    1    2  501    0 -0.25506984668E+02 -0.36988083501E+01 -0.87053953240E+03  0.87092098661E+03  0.00000000000E+00 0. -1.
<mgrwt>
<rscale>  2 0.25773774E+02</rscale>
<asrwt>0</asrwt>
<pdfrwt beam="1">  1       21 0.61823397E-04 0.25773774E+02</pdfrwt>
<pdfrwt beam="2">  1        2 0.25497465E+00 0.25773774E+02</pdfrwt>
<totfact> 0.28209632E+07</totfact>
</mgrwt>
</event>
<event>
 4    1  0.2185255E+006  0.8589879E+02  0.7546771E-02  0.1313099E+00
          2   -1    0    0  502    0 -0.00000000000E+00  0.00000000000E+00  0.80871326828E+03  0.80871326828E+03  0.00000000000E+00 0.  1.
         21   -1    0    0  503  502  0.00000000000E+00 -0.00000000000E+00 -0.13284298719E+02  0.13284298719E+02  0.00000000000E+00 0. -1.
         21    1    1    2  503  501  0.84472738895E+02  0.15587104088E+02  0.16770813264E+03  0.18842669446E+03  0.00000000000E+00 0. -1.
          2    1    1    2  501    0 -0.84472738895E+02 -0.15587104088E+02  0.62772083692E+03  0.63357087254E+03  0.00000000000E+00 0.  1.
<mgrwt>
<rscale>  2 0.85898786E+02</rscale>
<asrwt>0</asrwt>
<pdfrwt beam="2">  1       21 0.20437389E-02 0.85898786E+02</pdfrwt>
<pdfrwt beam="1">  1        2 0.12441739E+00 0.85898786E+02</pdfrwt>
<totfact> 0.50321716E+05</totfact>
</mgrwt>
</event>
<event>
 4    1  0.2185255E+006  0.2225574E+02  0.7546771E-02  0.1703866E+00
         21   -1    0    0  501  502  0.00000000000E+00  0.00000000000E+00  0.78927233396E+03  0.78927233396E+03  0.00000000000E+00 0. -1.
         -3   -1    0    0    0  501 -0.00000000000E+00 -0.00000000000E+00 -0.81059353199E+01  0.81059353199E+01  0.00000000000E+00 0.  1.
         21    1    1    2  503  502  0.16622809200E+02 -0.14798651548E+02  0.77352818180E+03  0.77384828352E+03  0.00000000000E+00 0. -1.
         -3    1    1    2    0  503 -0.16622809200E+02  0.14798651548E+02  0.76382168437E+01  0.23529985760E+02  0.00000000000E+00 0.  1.
<mgrwt>
<rscale>  2 0.22255738E+02</rscale>
<asrwt>0</asrwt>
<pdfrwt beam="1">  1       21 0.12142645E+00 0.22255738E+02</pdfrwt>
<pdfrwt beam="2">  1       -3 0.12470676E-02 0.22255738E+02</pdfrwt>
<totfact> 0.39158339E+04</totfact>
</mgrwt>
</event>
<event>
 4    1  0.2185255E+006  0.2151280E+02  0.7546771E-02  0.1716817E+00
         21   -1    0    0  503  502  0.00000000000E+00  0.00000000000E+00  0.11477893312E+01  0.11477893312E+01  0.00000000000E+00 0.  1.
         -2   -1    0    0    0  501 -0.00000000000E+00 -0.00000000000E+00 -0.88475504465E+03  0.88475504465E+03  0.00000000000E+00 0. -1.
         21    1    1    2  503  501  0.19453320827E+02  0.91852461786E+01 -0.11501802693E+03  0.11701259315E+03  0.00000000000E+00 0.  1.
         -2    1    1    2    0  502 -0.19453320827E+02 -0.91852461786E+01 -0.76858922839E+03  0.76889024082E+03  0.00000000000E+00 0. -1.
<mgrwt>
<rscale>  2 0.21512797E+02</rscale>
<asrwt>0</asrwt>
<pdfrwt beam="1">  1       21 0.17658352E-03 0.21512797E+02</pdfrwt>
<pdfrwt beam="2">  1       -2 0.13611574E+00 0.21512797E+02</pdfrwt>
<totfact> 0.12405580E+06</totfact>
</mgrwt>
</event>
<event>
 4    1  0.2185255E+006  0.2072132E+02  0.7546771E-02  0.1731353E+00
          2   -1    0    0  503    0 -0.00000000000E+00  0.00000000000E+00  0.15154748519E+03  0.15154748519E+03  0.00000000000E+00 0. -1.
         21   -1    0    0  501  502  0.00000000000E+00 -0.00000000000E+00 -0.43242756955E+01  0.43242756955E+01  0.00000000000E+00 0.  1.
         21    1    1    2  503  502  0.20478900840E+02 -0.31603077617E+01  0.27847776216E+02  0.34711259915E+02  0.00000000000E+00 0.  1.
          2    1    1    2  501    0 -0.20478900840E+02  0.31603077617E+01  0.11937543328E+03  0.12116050097E+03  0.00000000000E+00 0. -1.
<mgrwt>
<rscale>  2 0.20721316E+02</rscale>
<asrwt>0</asrwt>
<pdfrwt beam="2">  1       21 0.66527330E-03 0.20721316E+02</pdfrwt>
<pdfrwt beam="1">  1        2 0.23314994E-01 0.20721316E+02</pdfrwt>
<totfact> 0.12750143E+07</totfact>
</mgrwt>
</event>
<event>
 4    1  0.2185255E+006  0.2449728E+02  0.7546771E-02  0.1668329E+00
         21   -1    0    0  501  502  0.00000000000E+00  0.00000000000E+00  0.32364923831E+03  0.32364923831E+03  0.00000000000E+00 0.  1.
          2   -1    0    0  503    0 -0.00000000000E+00 -0.00000000000E+00 -0.22773103718E+02  0.22773103718E+02  0.00000000000E+00 0. -1.
         21    1    1    2  503  502  0.24421093730E+02  0.19305095812E+01  0.31644798918E+03  0.31739478027E+03  0.00000000000E+00 0.  1.
          2    1    1    2  501    0 -0.24421093730E+02 -0.19305095812E+01 -0.15571854589E+02  0.29027561757E+02  0.00000000000E+00 0. -1.
<mgrwt>
<rscale>  2 0.24497279E+02</rscale>
<asrwt>0</asrwt>
<pdfrwt beam="1">  1       21 0.49792187E-01 0.24497279E+02</pdfrwt>
<pdfrwt beam="2">  1        2 0.35035547E-02 0.24497279E+02</pdfrwt>
<totfact> 0.10144473E+05</totfact>
</mgrwt>
</event>
<event>
 4    1  0.2185255E+006  0.2066049E+02  0.7546771E-02  0.1732504E+00
         21   -1    0    0  501  502  0.00000000000E+00  0.00000000000E+00  0.12402179246E+01  0.12402179246E+01  0.00000000000E+00 0. -1.
          2   -1    0    0  503    0 -0.00000000000E+00 -0.00000000000E+00 -0.34627318650E+03  0.34627318650E+03  0.00000000000E+00 0.  1.
         21    1    1    2  503  502  0.17086757918E+02 -0.11614591323E+02 -0.15900141847E+03  0.16033810247E+03  0.00000000000E+00 0. -1.
          2    1    1    2  501    0 -0.17086757918E+02  0.11614591323E+02 -0.18603155011E+03  0.18717530196E+03  0.00000000000E+00 0.  1.
<mgrwt>
<rscale>  2 0.20660494E+02</rscale>
<asrwt>0</asrwt>
<pdfrwt beam="1">  1       21 0.19080271E-03 0.20660494E+02</pdfrwt>
<pdfrwt beam="2">  1        2 0.53272812E-01 0.20660494E+02</pdfrwt>
<totfact> 0.34502633E+07</totfact>
</mgrwt>
</event>
<event>
 4    1  0.2185255E+006  0.2169456E+02  0.7546771E-02  0.1713588E+00
          1   -1    0    0  502    0 -0.00000000000E+00  0.00000000000E+00  0.48553207053E+02  0.48553207053E+02  0.00000000000E+00 0. -1.
         21   -1    0    0  503  502  0.00000000000E+00 -0.00000000000E+00 -0.44141680172E+02  0.44141680172E+02  0.00000000000E+00 0.  1.
         21    1    1    2  503  501  0.19288390240E+02 -0.99303644341E+01 -0.38737648076E+02  0.44398868390E+02  0.00000000000E+00 0.  1.
          1    1    1    2  501    0 -0.19288390240E+02  0.99303644341E+01  0.43149174957E+02  0.48296018835E+02  0.00000000000E+00 0. -1.
<mgrwt>
<rscale>  2 0.21694565E+02</rscale>
<asrwt>0</asrwt>
<pdfrwt beam="2">  1       21 0.67910277E-02 0.21694565E+02</pdfrwt>
<pdfrwt beam="1">  1        1 0.74697241E-02 0.21694565E+02</pdfrwt>
<totfact> 0.11563397E+06</totfact>
</mgrwt>
</event>
<event>
 4    1  0.2185255E+006  0.2710992E+02  0.7546771E-02  0.1632424E+00
          2   -1    0    0  502    0 -0.00000000000E+00  0.00000000000E+00  0.57828013000E+03  0.57828013000E+03  0.00000000000E+00 0.  1.
         21   -1    0    0  503  502  0.00000000000E+00 -0.00000000000E+00 -0.16115526487E+01  0.16115526487E+01  0.00000000000E+00 0. -1.
         21    1    1    2  503  501 -0.21255482643E+02 -0.16827131430E+02  0.15503198722E+03  0.15738444954E+03  0.00000000000E+00 0. -1.
          2    1    1    2  501    0  0.21255482643E+02  0.16827131430E+02  0.42163659013E+03  0.42250723311E+03  0.00000000000E+00 0.  1.
<mgrwt>
<rscale>  2 0.27109922E+02</rscale>
<asrwt>0</asrwt>
<pdfrwt beam="2">  1       21 0.24793164E-03 0.27109922E+02</pdfrwt>
<pdfrwt beam="1">  1        2 0.88966008E-01 0.27109922E+02</pdfrwt>
<totfact> 0.15293216E+07</totfact>
</mgrwt>
</event>
<event>
 4    1  0.2185255E+006  0.2417874E+02  0.7546771E-02  0.1673086E+00
          2   -1    0    0  503    0 -0.00000000000E+00  0.00000000000E+00  0.18381465101E+02  0.18381465101E+02  0.00000000000E+00 0. -1.
         21   -1    0    0  501  502  0.00000000000E+00 -0.00000000000E+00 -0.22121473296E+03  0.22121473296E+03  0.00000000000E+00 0. -1.
         21    1    1    2  503  502  0.84840012090E+01 -0.22641404175E+02 -0.21226894126E+03  0.21364155702E+03  0.00000000000E+00 0. -1.
          2    1    1    2  501    0 -0.84840012090E+01  0.22641404175E+02  0.94356733979E+01  0.25954641050E+02  0.00000000000E+00 0. -1.
<mgrwt>
<rscale>  2 0.24178740E+02</rscale>
<asrwt>0</asrwt>
<pdfrwt beam="2">  1       21 0.34033039E-01 0.24178740E+02</pdfrwt>
<pdfrwt beam="1">  1        2 0.28279175E-02 0.24178740E+02</pdfrwt>
<totfact> 0.27306536E+05</totfact>
</mgrwt>
</event>
<event>
 4    1  0.2185255E+006  0.2827063E+02  0.7546771E-02  0.1618031E+00
         21   -1    0    0  501  502  0.00000000000E+00  0.00000000000E+00  0.22262481771E+02  0.22262481771E+02  0.00000000000E+00 0. -1.
          3   -1    0    0  503    0 -0.00000000000E+00 -0.00000000000E+00 -0.67154788178E+02  0.67154788178E+02  0.00000000000E+00 0.  1.
         21    1    1    2  503  502 -0.27611991033E+02 -0.60668174693E+01  0.80545299789E+01  0.29395642129E+02  0.00000000000E+00 0. -1.
          3    1    1    2  501    0  0.27611991033E+02  0.60668174693E+01 -0.52946836386E+02  0.60021627821E+02  0.00000000000E+00 0.  1.
<mgrwt>
<rscale>  2 0.28270627E+02</rscale>
<asrwt>0</asrwt>
<pdfrwt beam="1">  1       21 0.34249972E-02 0.28270627E+02</pdfrwt>
<pdfrwt beam="2">  1        3 0.10331506E-01 0.28270627E+02</pdfrwt>
<totfact> 0.11285095E+06</totfact>
</mgrwt>
</event>
<event>
 4    1  0.2185255E+006  0.3597566E+02  0.7546771E-02  0.1540103E+00
         21   -1    0    0  501  502  0.00000000000E+00  0.00000000000E+00  0.25927494817E+03  0.25927494817E+03  0.00000000000E+00 0. -1.
          1   -1    0    0  503    0 -0.00000000000E+00 -0.00000000000E+00 -0.53262816702E+01  0.53262816702E+01  0.00000000000E+00 0. -1.
         21    1    1    2  503  502  0.33180497410E+02  0.13903321884E+02  0.16012851084E+03  0.16412004068E+03  0.00000000000E+00 0. -1.
          1    1    1    2  501    0 -0.33180497410E+02 -0.13903321884E+02  0.93820155662E+02  0.10048118917E+03  0.00000000000E+00 0. -1.
<mgrwt>
<rscale>  2 0.35975655E+02</rscale>
<asrwt>0</asrwt>
<pdfrwt beam="1">  1       21 0.39888444E-01 0.35975655E+02</pdfrwt>
<pdfrwt beam="2">  1        1 0.81942815E-03 0.35975655E+02</pdfrwt>
<totfact> 0.10697248E+06</totfact>
</mgrwt>
</event>
<event>
 4    1  0.2185255E+006  0.2412053E+02  0.7546771E-02  0.1673965E+00
         21   -1    0    0  501  502  0.00000000000E+00  0.00000000000E+00  0.10533710872E+01  0.10533710872E+01  0.00000000000E+00 0. -1.
         -1   -1    0    0    0  501 -0.00000000000E+00 -0.00000000000E+00 -0.60398094546E+03  0.60398094546E+03  0.00000000000E+00 0.  1.
         21    1    1    2  503  502 -0.44956182056E+01 -0.23697879371E+02 -0.21299073998E+03  0.21435217607E+03  0.00000000000E+00 0. -1.
         -1    1    1    2    0  503  0.44956182056E+01  0.23697879371E+02 -0.38993683440E+03  0.39068214048E+03  0.00000000000E+00 0.  1.
<mgrwt>
<rscale>  2 0.24120532E+02</rscale>
<asrwt>0</asrwt>
<pdfrwt beam="1">  1       21 0.16205700E-03 0.24120532E+02</pdfrwt>
<pdfrwt beam="2">  1       -1 0.92920198E-01 0.24120532E+02</pdfrwt>
<totfact> 0.47732992E+06</totfact>
</mgrwt>
</event>
<event>
 4    1  0.2185255E+006  0.3697558E+02  0.7546771E-02  0.1531726E+00
          2   -1    0    0  503    0 -0.00000000000E+00  0.00000000000E+00  0.31231557452E+02  0.31231557452E+02  0.00000000000E+00 0.  1.
         21   -1    0    0  501  502  0.00000000000E+00 -0.00000000000E+00 -0.60665263670E+02  0.60665263670E+02  0.00000000000E+00 0. -1.
         21    1    1    2  503  502  0.23637852189E+02 -0.28433177486E+02 -0.38960916061E+02  0.53713560843E+02  0.00000000000E+00 0. -1.
          2    1    1    2  501    0 -0.23637852189E+02  0.28433177486E+02  0.95272098435E+01  0.38183260278E+02  0.00000000000E+00 0.  1.
<mgrwt>
<rscale>  2 0.36975582E+02</rscale>
<asrwt>0</asrwt>
<pdfrwt beam="2">  1       21 0.93331173E-02 0.36975582E+02</pdfrwt>
<pdfrwt beam="1">  1        2 0.48048551E-02 0.36975582E+02</pdfrwt>
<totfact> 0.14512887E+06</totfact>
</mgrwt>
</event>
<event>
 4    1  0.2185255E+006  0.2307175E+02  0.7546771E-02  0.1690350E+00
          2   -1    0    0  502    0 -0.00000000000E+00  0.00000000000E+00  0.31765375776E+03  0.31765375776E+03  0.00000000000E+00 0.  1.
         21   -1    0    0  503  502  0.00000000000E+00 -0.00000000000E+00 -0.28661450703E+02  0.28661450703E+02  0.00000000000E+00 0. -1.
         21    1    1    2  503  501 -0.11979105678E+02 -0.19718182826E+02 -0.23523234709E+02  0.32949177197E+02  0.00000000000E+00 0. -1.
          2    1    1    2  501    0  0.11979105678E+02  0.19718182826E+02  0.31251554177E+03  0.31336603127E+03  0.00000000000E+00 0.  1.
<mgrwt>
<rscale>  2 0.23071751E+02</rscale>
<asrwt>0</asrwt>
<pdfrwt beam="2">  1       21 0.44094542E-02 0.23071751E+02</pdfrwt>
<pdfrwt beam="1">  1        2 0.48869806E-01 0.23071751E+02</pdfrwt>
<totfact> 0.34714037E+05</totfact>
</mgrwt>
</event>
<event>
 4    1  0.2185255E+006  0.2243959E+02  0.7546771E-02  0.1700759E+00
         -3   -1    0    0    0  501 -0.00000000000E+00  0.00000000000E+00  0.15794536898E+02  0.15794536898E+02  0.00000000000E+00 0.  1.
         21   -1    0    0  503  502  0.00000000000E+00 -0.00000000000E+00 -0.15212624833E+03  0.15212624833E+03  0.00000000000E+00 0. -1.
         21    1    1    2  503  501 -0.20635698183E+02  0.88149287624E+01 -0.14281203087E+03  0.14456421123E+03  0.00000000000E+00 0. -1.
         -3    1    1    2    0  502  0.20635698183E+02 -0.88149287624E+01  0.64803194402E+01  0.23356573992E+02  0.00000000000E+00 0.  1.
<mgrwt>
<rscale>  2 0.22439586E+02</rscale>
<asrwt>0</asrwt>
<pdfrwt beam="2">  1       21 0.23404039E-01 0.22439586E+02</pdfrwt>
<pdfrwt beam="1">  1       -3 0.24299287E-02 0.22439586E+02</pdfrwt>
<totfact> 0.38901081E+05</totfact>
</mgrwt>
</event>
<event>
 4    1  0.2185255E+006  0.2682184E+02  0.7546771E-02  0.1636134E+00
         21   -1    0    0  503  502  0.00000000000E+00  0.00000000000E+00  0.11981100938E+02  0.11981100938E+02  0.00000000000E+00 0.  1.
          1   -1    0    0  502    0 -0.00000000000E+00 -0.00000000000E+00 -0.81725069072E+03  0.81725069072E+03  0.00000000000E+00 0. -1.
         21    1    1    2  503  501 -0.25720820728E+02  0.76059383016E+01 -0.35408872479E+01  0.27054552276E+02  0.00000000000E+00 0.  1.
          1    1    1    2  501    0  0.25720820728E+02 -0.76059383016E+01 -0.80172870253E+03  0.80217723938E+03  0.00000000000E+00 0. -1.
<mgrwt>
<rscale>  2 0.26821837E+02</rscale>
<asrwt>0</asrwt>
<pdfrwt beam="1">  1       21 0.18432465E-02 0.26821837E+02</pdfrwt>
<pdfrwt beam="2">  1        1 0.12573086E+00 0.26821837E+02</pdfrwt>
<totfact> 0.30463403E+05</totfact>
</mgrwt>
</event>
<event>
 4    1  0.2185255E+006  0.2122800E+02  0.7546771E-02  0.1721956E+00
         21   -1    0    0  501  502  0.00000000000E+00  0.00000000000E+00  0.42740615537E+00  0.42740615537E+00  0.00000000000E+00 0.  1.
          2   -1    0    0  503    0 -0.00000000000E+00 -0.00000000000E+00 -0.13971610830E+04  0.13971610830E+04  0.00000000000E+00 0.  1.
         21    1    1    2  503  502 -0.20512225440E+02  0.54659413558E+01 -0.35221628905E+03  0.35285541257E+03  0.00000000000E+00 0.  1.
          2    1    1    2  501    0  0.20512225440E+02 -0.54659413558E+01 -0.10445173878E+04  0.10447330766E+04  0.00000000000E+00 0.  1.
<mgrwt>
<rscale>  2 0.21227998E+02</rscale>
<asrwt>0</asrwt>
<pdfrwt beam="1">  1       21 0.65753794E-04 0.21227998E+02</pdfrwt>
<pdfrwt beam="2">  1        2 0.21495113E+00 0.21227998E+02</pdfrwt>
<totfact> 0.32620081E+07</totfact>
</mgrwt>
</event>
<event>
 4    1  0.2185255E+006  0.3278597E+02  0.7546771E-02  0.1569189E+00
          2   -1    0    0  503    0 -0.00000000000E+00  0.00000000000E+00  0.58100082363E+02  0.58100082363E+02  0.00000000000E+00 0. -1.
         21   -1    0    0  501  502  0.00000000000E+00 -0.00000000000E+00 -0.20507894171E+03  0.20507894171E+03  0.00000000000E+00 0. -1.
         21    1    1    2  503  502  0.71240393532E+01 -0.32002619517E+02 -0.19900300238E+03  0.20168568256E+03  0.00000000000E+00 0. -1.
          2    1    1    2  501    0 -0.71240393532E+01  0.32002619517E+02  0.52024143031E+02  0.61493341516E+02  0.00000000000E+00 0. -1.
<mgrwt>
<rscale>  2 0.32785966E+02</rscale>
<asrwt>0</asrwt>
<pdfrwt beam="2">  1       21 0.31550606E-01 0.32785966E+02</pdfrwt>
<pdfrwt beam="1">  1        2 0.89384743E-02 0.32785966E+02</pdfrwt>
<totfact> 0.78966973E+04</totfact>
</mgrwt>
</event>
<event>
 4    1  0.2185255E+006  0.2106003E+02  0.7546771E-02  0.1725034E+00
          1   -1    0    0  503    0 -0.00000000000E+00  0.00000000000E+00  0.56875759194E+03  0.56875759194E+03  0.00000000000E+00 0. -1.
         21   -1    0    0  501  502  0.00000000000E+00 -0.00000000000E+00 -0.25757224407E+01  0.25757224407E+01  0.00000000000E+00 0. -1.
         21    1    1    2  503  502  0.20633986456E+02 -0.42146605323E+01  0.44555887924E+02  0.49282369151E+02  0.00000000000E+00 0. -1.
          1    1    1    2  501    0 -0.20633986456E+02  0.42146605323E+01  0.52162598157E+03  0.52205094523E+03  0.00000000000E+00 0. -1.
<mgrwt>
<rscale>  2 0.21060028E+02</rscale>
<asrwt>0</asrwt>
<pdfrwt beam="2">  1       21 0.39626544E-03 0.21060028E+02</pdfrwt>
<pdfrwt beam="1">  1        1 0.87501068E-01 0.21060028E+02</pdfrwt>
<totfact> 0.46841379E+06</totfact>
</mgrwt>
</event>
<event>
 4    1  0.2185255E+006  0.2199304E+02  0.7546771E-02  0.1708372E+00
          2   -1    0    0  503    0 -0.00000000000E+00  0.00000000000E+00  0.23147368755E+03  0.23147368755E+03  0.00000000000E+00 0.  1.
         21   -1    0    0  501  502  0.00000000000E+00 -0.00000000000E+00 -0.37922702708E+01  0.37922702708E+01  0.00000000000E+00 0.  1.
         21    1    1    2  503  502  0.21982424504E+02  0.68309569888E+00  0.35019821082E+02  0.41353131386E+02  0.00000000000E+00 0.  1.
          2    1    1    2  501    0 -0.21982424504E+02 -0.68309569888E+00  0.19266159620E+03  0.19391282644E+03  0.00000000000E+00 0.  1.
<mgrwt>
<rscale>  2 0.21993035E+02</rscale>
<asrwt>0</asrwt>
<pdfrwt beam="2">  1       21 0.58342638E-03 0.21993035E+02</pdfrwt>
<pdfrwt beam="1">  1        2 0.35611326E-01 0.21993035E+02</pdfrwt>
<totfact> 0.10258660E+07</totfact>
</mgrwt>
</event>
<event>
 4    1  0.2185255E+006  0.2859394E+02  0.7546771E-02  0.1614172E+00
         21   -1    0    0  501  502  0.00000000000E+00  0.00000000000E+00  0.19641347985E+02  0.19641347985E+02  0.00000000000E+00 0. -1.
          2   -1    0    0  503    0 -0.00000000000E+00 -0.00000000000E+00 -0.77324737453E+02  0.77324737453E+02  0.00000000000E+00 0. -1.
         21    1    1    2  503  502  0.16743756453E+02  0.23178875932E+02  0.41003059013E+01  0.28886435885E+02  0.00000000000E+00 0. -1.
          2    1    1    2  501    0 -0.16743756453E+02 -0.23178875932E+02 -0.61783695370E+02  0.68079649552E+02  0.00000000000E+00 0. -1.
<mgrwt>
<rscale>  2 0.28593945E+02</rscale>
<asrwt>0</asrwt>
<pdfrwt beam="1">  1       21 0.30217459E-02 0.28593945E+02</pdfrwt>
<pdfrwt beam="2">  1        2 0.11896113E-01 0.28593945E+02</pdfrwt>
<totfact> 0.28842978E+06</totfact>
</mgrwt>
</event>
<event>
 4    1  0.2185255E+006  0.2022871E+02  0.7546771E-02  0.1740818E+00
         -3   -1    0    0    0  501 -0.00000000000E+00  0.00000000000E+00  0.47303847217E+03  0.47303847217E+03  0.00000000000E+00 0. -1.
         21   -1    0    0  501  502  0.00000000000E+00 -0.00000000000E+00 -0.15204650749E+01  0.15204650749E+01  0.00000000000E+00 0. -1.
         21    1    1    2  503  502 -0.20228509780E+02 -0.90257478367E-01  0.79972089893E+02  0.82490823224E+02  0.00000000000E+00 0. -1.
         -3    1    1    2    0  503  0.20228509780E+02  0.90257478367E-01  0.39154591720E+03  0.39206811402E+03  0.00000000000E+00 0. -1.
<mgrwt>
<rscale>  2 0.20228711E+02</rscale>
<asrwt>0</asrwt>
<pdfrwt beam="2">  1       21 0.23391808E-03 0.20228711E+02</pdfrwt>
<pdfrwt beam="1">  1       -3 0.72775032E-01 0.20228711E+02</pdfrwt>
<totfact> 0.17978884E+06</totfact>
</mgrwt>
</event>
<event>
 4    1  0.2185255E+006  0.3300295E+02  0.7546771E-02  0.1567085E+00
          2   -1    0    0  503    0 -0.00000000000E+00  0.00000000000E+00  0.17810264458E+04  0.17810264458E+04  0.00000000000E+00 0.  1.
         21   -1    0    0  501  502  0.00000000000E+00 -0.00000000000E+00 -0.25289301285E+01  0.25289301285E+01  0.00000000000E+00 0.  1.
         21    1    1    2  503  502 -0.13218038611E+02  0.30240336684E+02  0.11274814462E+03  0.11747909866E+03  0.00000000000E+00 0.  1.
          2    1    1    2  501    0  0.13218038611E+02 -0.30240336684E+02  0.16657493711E+04  0.16660762773E+04  0.00000000000E+00 0.  1.
<mgrwt>
<rscale>  2 0.33002947E+02</rscale>
<asrwt>0</asrwt>
<pdfrwt beam="2">  1       21 0.38906760E-03 0.33002947E+02</pdfrwt>
<pdfrwt beam="1">  1        2 0.27400307E+00 0.33002947E+02</pdfrwt>
<totfact> 0.17978086E+06</totfact>
</mgrwt>
</event>
<event>
 4    1  0.2185255E+006  0.3031299E+02  0.7546771E-02  0.1594654E+00
          2   -1    0    0  502    0 -0.00000000000E+00  0.00000000000E+00  0.58263154783E+03  0.58263154783E+03  0.00000000000E+00 0.  1.
         21   -1    0    0  503  502  0.00000000000E+00 -0.00000000000E+00 -0.19193269967E+02  0.19193269967E+02  0.00000000000E+00 0.  1.
         21    1    1    2  503  501 -0.75433612985E+01  0.29359414116E+02 -0.65652736491E+01  0.31015807502E+02  0.00000000000E+00 0.  1.
          2    1    1    2  501    0  0.75433612985E+01 -0.29359414116E+02  0.57000355151E+03  0.57080901030E+03  0.00000000000E+00 0.  1.
<mgrwt>
<rscale>  2 0.30312992E+02</rscale>
<asrwt>0</asrwt>
<pdfrwt beam="2">  1       21 0.29528112E-02 0.30312992E+02</pdfrwt>
<pdfrwt beam="1">  1        2 0.89635609E-01 0.30312992E+02</pdfrwt>
<totfact> 0.36850316E+05</totfact>
</mgrwt>
</event>
<event>
 4    1  0.2185255E+006  0.2510169E+02  0.7546771E-02  0.1659546E+00
         -1   -1    0    0    0  501 -0.00000000000E+00  0.00000000000E+00  0.49062759804E+02  0.49062759804E+02  0.00000000000E+00 0.  1.
         21   -1    0    0  503  502  0.00000000000E+00 -0.00000000000E+00 -0.15424574983E+02  0.15424574983E+02  0.00000000000E+00 0.  1.
         21    1    1    2  503  501  0.19964226308E+02 -0.15215921623E+02  0.36270578340E+01  0.25362376692E+02  0.00000000000E+00 0.  1.
         -1    1    1    2    0  502 -0.19964226308E+02  0.15215921623E+02  0.30011126987E+02  0.39124958095E+02  0.00000000000E+00 0.  1.
<mgrwt>
<rscale>  2 0.25101685E+02</rscale>
<asrwt>0</asrwt>
<pdfrwt beam="2">  1       21 0.23730116E-02 0.25101685E+02</pdfrwt>
<pdfrwt beam="1">  1       -1 0.75481168E-02 0.25101685E+02</pdfrwt>
<totfact> 0.51833108E+06</totfact>
</mgrwt>
</event>
<event>
 4    1  0.2185255E+006  0.2446328E+02  0.7546771E-02  0.1668833E+00
          2   -1    0    0  503    0 -0.00000000000E+00  0.00000000000E+00  0.11660331164E+03  0.11660331164E+03  0.00000000000E+00 0.  1.
         21   -1    0    0  501  502  0.00000000000E+00 -0.00000000000E+00 -0.35997623757E+02  0.35997623757E+02  0.00000000000E+00 0.  1.
         21    1    1    2  503  502 -0.19300118837E+02 -0.15031875335E+02 -0.30349272756E+02  0.38981152113E+02  0.00000000000E+00 0.  1.
          2    1    1    2  501    0  0.19300118837E+02  0.15031875335E+02  0.11095496063E+03  0.11361978328E+03  0.00000000000E+00 0.  1.
<mgrwt>
<rscale>  2 0.24463276E+02</rscale>
<asrwt>0</asrwt>
<pdfrwt beam="2">  1       21 0.55380960E-02 0.24463276E+02</pdfrwt>
<pdfrwt beam="1">  1        2 0.17938971E-01 0.24463276E+02</pdfrwt>
<totfact> 0.67801851E+05</totfact>
</mgrwt>
</event>
<event>
 4    1  0.2185255E+006  0.2718229E+02  0.7546771E-02  0.1631501E+00
          2   -1    0    0  502    0 -0.00000000000E+00  0.00000000000E+00  0.13415477879E+04  0.13415477879E+04  0.00000000000E+00 0. -1.
         21   -1    0    0  503  502  0.00000000000E+00 -0.00000000000E+00 -0.10619671915E+01  0.10619671915E+01  0.00000000000E+00 0. -1.
         21    1    1    2  503  501 -0.26696345659E+02  0.51168348597E+01  0.20448437018E+03  0.20628314162E+03  0.00000000000E+00 0. -1.
          2    1    1    2  501    0  0.26696345659E+02 -0.51168348597E+01  0.11360014505E+04  0.11363266135E+04  0.00000000000E+00 0. -1.
<mgrwt>
<rscale>  2 0.27182290E+02</rscale>
<asrwt>0</asrwt>
<pdfrwt beam="2">  1       21 0.16338064E-03 0.27182290E+02</pdfrwt>
<pdfrwt beam="1">  1        2 0.20639061E+00 0.27182290E+02</pdfrwt>
<totfact> 0.10057936E+07</totfact>
</mgrwt>
</event>
<event>
 4    1  0.2185255E+006  0.2034250E+02  0.7546771E-02  0.1738602E+00
         -2   -1    0    0    0  501 -0.00000000000E+00  0.00000000000E+00  0.21867888994E+02  0.21867888994E+02  0.00000000000E+00 0.  1.
         21   -1    0    0  503  502  0.00000000000E+00 -0.00000000000E+00 -0.23216233973E+02  0.23216233973E+02  0.00000000000E+00 0. -1.
         21    1    1    2  503  501  0.58165502336E+01  0.19493202239E+02 -0.10367308036E+02  0.22831957123E+02  0.00000000000E+00 0. -1.
         -2    1    1    2    0  502 -0.58165502336E+01 -0.19493202239E+02  0.90189630563E+01  0.22252165844E+02  0.00000000000E+00 0.  1.
<mgrwt>
<rscale>  2 0.20342497E+02</rscale>
<asrwt>0</asrwt>
<pdfrwt beam="2">  1       21 0.35717283E-02 0.20342497E+02</pdfrwt>
<pdfrwt beam="1">  1       -2 0.33642906E-02 0.20342497E+02</pdfrwt>
<totfact> 0.78285575E+06</totfact>
</mgrwt>
</event>
<event>
 4    1  0.2185255E+006  0.2401459E+02  0.7546771E-02  0.1675573E+00
          1   -1    0    0  503    0 -0.00000000000E+00  0.00000000000E+00  0.15492496091E+03  0.15492496091E+03  0.00000000000E+00 0. -1.
         21   -1    0    0  501  502  0.00000000000E+00 -0.00000000000E+00 -0.14557904002E+02  0.14557904002E+02  0.00000000000E+00 0.  1.
         21    1    1    2  503  502  0.52764144382E+01 -0.23427758818E+02 -0.29253177983E+01  0.24192104430E+02  0.00000000000E+00 0.  1.
          1    1    1    2  501    0 -0.52764144382E+01  0.23427758818E+02  0.14329237471E+03  0.14529076048E+03  0.00000000000E+00 0. -1.
<mgrwt>
<rscale>  2 0.24014588E+02</rscale>
<asrwt>0</asrwt>
<pdfrwt beam="2">  1       21 0.22396777E-02 0.24014588E+02</pdfrwt>
<pdfrwt beam="1">  1        1 0.23834608E-01 0.24014588E+02</pdfrwt>
<totfact> 0.16466540E+06</totfact>
</mgrwt>
</event>
<event>
 4    1  0.2185255E+006  0.2594128E+02  0.7546771E-02  0.1647839E+00
         21   -1    0    0  501  502  0.00000000000E+00  0.00000000000E+00  0.33585869875E+03  0.33585869875E+03  0.00000000000E+00 0.  1.
          2   -1    0    0  503    0 -0.00000000000E+00 -0.00000000000E+00 -0.34016475252E+01  0.34016475252E+01  0.00000000000E+00 0.  1.
         21    1    1    2  503  502  0.12392915255E+02  0.22789598009E+02  0.27497332241E+03  0.27619427613E+03  0.00000000000E+00 0.  1.
          2    1    1    2  501    0 -0.12392915255E+02 -0.22789598009E+02  0.57483728811E+02  0.63066070148E+02  0.00000000000E+00 0.  1.
<mgrwt>
<rscale>  2 0.25941282E+02</rscale>
<asrwt>0</asrwt>
<pdfrwt beam="1">  1       21 0.51670543E-01 0.25941282E+02</pdfrwt>
<pdfrwt beam="2">  1        2 0.52333065E-03 0.25941282E+02</pdfrwt>
<totfact> 0.11180457E+06</totfact>
</mgrwt>
</event>
<event>
 4    1  0.2185255E+006  0.3199879E+02  0.7546771E-02  0.1576990E+00
         21   -1    0    0  501  502  0.00000000000E+00  0.00000000000E+00  0.30074603641E+02  0.30074603641E+02  0.00000000000E+00 0. -1.
         -3   -1    0    0    0  501 -0.00000000000E+00 -0.00000000000E+00 -0.28711691750E+03  0.28711691750E+03  0.00000000000E+00 0.  1.
         21    1    1    2  503  502 -0.22160710964E+02  0.23083005544E+02  0.20374913682E+02  0.37934935916E+02  0.00000000000E+00 0. -1.
         -3    1    1    2    0  503  0.22160710964E+02 -0.23083005544E+02 -0.27741722754E+03  0.27925658522E+03  0.00000000000E+00 0.  1.
<mgrwt>
<rscale>  2 0.31998785E+02</rscale>
<asrwt>0</asrwt>
<pdfrwt beam="1">  1       21 0.46268620E-02 0.31998785E+02</pdfrwt>
<pdfrwt beam="2">  1       -3 0.44171835E-01 0.31998785E+02</pdfrwt>
<totfact> 0.59910121E+04</totfact>
</mgrwt>
</event>
<event>
 4    1  0.2185255E+006  0.2143503E+02  0.7546771E-02  0.1718210E+00
          2   -1    0    0  503    0 -0.00000000000E+00  0.00000000000E+00  0.83344810188E+03  0.83344810188E+03  0.00000000000E+00 0.  1.
         21   -1    0    0  501  502  0.00000000000E+00 -0.00000000000E+00 -0.98271698279E+02  0.98271698279E+02  0.00000000000E+00 0. -1.
         21    1    1    2  503  502 -0.19045670188E+02  0.98347785287E+01 -0.96963189111E+02  0.99304181504E+02  0.00000000000E+00 0. -1.
          2    1    1    2  501    0  0.19045670188E+02 -0.98347785287E+01  0.83213959271E+03  0.83241561865E+03  0.00000000000E+00 0.  1.
<mgrwt>
<rscale>  2 0.21435028E+02</rscale>
<asrwt>0</asrwt>
<pdfrwt beam="2">  1       21 0.15118723E-01 0.21435028E+02</pdfrwt>
<pdfrwt beam="1">  1        2 0.12822278E+00 0.21435028E+02</pdfrwt>
<totfact> 0.17050191E+04</totfact>
</mgrwt>
</event>
<event>
 4    1  0.2185255E+006  0.2342496E+02  0.7546771E-02  0.1684713E+00
         21   -1    0    0  503  502  0.00000000000E+00  0.00000000000E+00  0.29316209058E+03  0.29316209058E+03  0.00000000000E+00 0.  1.
         -2   -1    0    0    0  501 -0.00000000000E+00 -0.00000000000E+00 -0.26435991508E+01  0.26435991508E+01  0.00000000000E+00 0.  1.
         21    1    1    2  503  501 -0.14330014457E+02 -0.18530495763E+02  0.22517687553E+03  0.22639203577E+03  0.00000000000E+00 0.  1.
         -2    1    1    2    0  502  0.14330014457E+02  0.18530495763E+02  0.65341615897E+02  0.69413653957E+02  0.00000000000E+00 0.  1.
<mgrwt>
<rscale>  2 0.23424957E+02</rscale>
<asrwt>0</asrwt>
<pdfrwt beam="1">  1       21 0.45101834E-01 0.23424957E+02</pdfrwt>
<pdfrwt beam="2">  1       -2 0.40670779E-03 0.23424957E+02</pdfrwt>
<totfact> 0.19354877E+06</totfact>
</mgrwt>
</event>
<event>
 4    1  0.2185255E+006  0.3465123E+02  0.7546771E-02  0.1551720E+00
          4   -1    0    0  503    0 -0.00000000000E+00  0.00000000000E+00  0.43351403034E+03  0.43351403034E+03  0.00000000000E+00 0.  1.
         21   -1    0    0  501  502  0.00000000000E+00 -0.00000000000E+00 -0.82419709464E+01  0.82419709464E+01  0.00000000000E+00 0. -1.
         21    1    1    2  503  502  0.17964301456E+02 -0.29630922102E+02  0.32657638447E+02  0.47615428385E+02  0.00000000000E+00 0. -1.
          4    1    1    2  501    0 -0.17964301456E+02  0.29630922102E+02  0.39261442094E+03  0.39414057290E+03  0.00000000000E+00 0.  1.
<mgrwt>
<rscale>  2 0.34651229E+02</rscale>
<asrwt>0</asrwt>
<pdfrwt beam="2">  1       21 0.12679959E-02 0.34651229E+02</pdfrwt>
<pdfrwt beam="1">  1        4 0.66694449E-01 0.34651229E+02</pdfrwt>
<totfact> 0.16086784E+05</totfact>
</mgrwt>
</event>
<event>
 4    1  0.2185255E+006  0.2791893E+02  0.7546771E-02  0.1622301E+00
         21   -1    0    0  503  502  0.00000000000E+00  0.00000000000E+00  0.15958716037E+01  0.15958716037E+01  0.00000000000E+00 0. -1.
          3   -1    0    0  502    0 -0.00000000000E+00 -0.00000000000E+00 -0.14827531642E+04  0.14827531642E+04  0.00000000000E+00 0.  1.
         21    1    1    2  503  501  0.27526842544E+02 -0.46625692114E+01 -0.13281311502E+03  0.13571584334E+03  0.00000000000E+00 0. -1.
          3    1    1    2  501    0 -0.27526842544E+02  0.46625692114E+01 -0.13483441776E+04  0.13486331925E+04  0.00000000000E+00 0.  1.
<mgrwt>
<rscale>  2 0.27918929E+02</rscale>
<asrwt>0</asrwt>
<pdfrwt beam="1">  1       21 0.24551914E-03 0.27918929E+02</pdfrwt>
<pdfrwt beam="2">  1        3 0.22811547E+00 0.27918929E+02</pdfrwt>
<totfact> 0.13510833E+05</totfact>
</mgrwt>
</event>
<event>
 4    1  0.2185255E+006  0.2146220E+02  0.7546771E-02  0.1717722E+00
         21   -1    0    0  501  502  0.00000000000E+00  0.00000000000E+00  0.10089496266E+02  0.10089496266E+02  0.00000000000E+00 0. -1.
          2   -1    0    0  503    0 -0.00000000000E+00 -0.00000000000E+00 -0.87417529505E+02  0.87417529505E+02  0.00000000000E+00 0.  1.
         21    1    1    2  503  502  0.42837002462E+01  0.21030353174E+02 -0.49659288564E+01  0.22029214508E+02  0.00000000000E+00 0. -1.
          2    1    1    2  501    0 -0.42837002462E+01 -0.21030353174E+02 -0.72362104383E+02  0.75477811264E+02  0.00000000000E+00 0.  1.
<mgrwt>
<rscale>  2 0.21462196E+02</rscale>
<asrwt>0</asrwt>
<pdfrwt beam="1">  1       21 0.15522302E-02 0.21462196E+02</pdfrwt>
<pdfrwt beam="2">  1        2 0.13448850E-01 0.21462196E+02</pdfrwt>
<totfact> 0.65261611E+06</totfact>
</mgrwt>
</event>
<event>
 4    1  0.2185255E+006  0.4479132E+02  0.7546771E-02  0.1475649E+00
          2   -1    0    0  502    0 -0.00000000000E+00  0.00000000000E+00  0.69119900577E+03  0.69119900577E+03  0.00000000000E+00 0. -1.
         21   -1    0    0  503  502  0.00000000000E+00 -0.00000000000E+00 -0.17090999065E+02  0.17090999065E+02  0.00000000000E+00 0. -1.
         21    1    1    2  503  501  0.34796950891E+02  0.28203441957E+02  0.14379713971E+02  0.47042938933E+02  0.00000000000E+00 0. -1.
          2    1    1    2  501    0 -0.34796950891E+02 -0.28203441957E+02  0.65972829273E+03  0.66124706590E+03  0.00000000000E+00 0. -1.
<mgrwt>
<rscale>  2 0.44791315E+02</rscale>
<asrwt>0</asrwt>
<pdfrwt beam="2">  1       21 0.26293850E-02 0.44791315E+02</pdfrwt>
<pdfrwt beam="1">  1        2 0.10633829E+00 0.44791315E+02</pdfrwt>
<totfact> 0.38374694E+05</totfact>
</mgrwt>
</event>
<event>
 4    1  0.2185255E+006  0.3087600E+02  0.7546771E-02  0.1588603E+00
          2   -1    0    0  502    0 -0.00000000000E+00  0.00000000000E+00  0.48469983764E+03  0.48469983764E+03  0.00000000000E+00 0. -1.
         21   -1    0    0  503  502  0.00000000000E+00 -0.00000000000E+00 -0.72846577413E+01  0.72846577413E+01  0.00000000000E+00 0. -1.
         21    1    1    2  503  501 -0.21465426547E+02 -0.22193755968E+02  0.28531386509E+02  0.42040068470E+02  0.00000000000E+00 0. -1.
          2    1    1    2  501    0  0.21465426547E+02  0.22193755968E+02  0.44888379339E+03  0.44994442692E+03  0.00000000000E+00 0. -1.
<mgrwt>
<rscale>  2 0.30875999E+02</rscale>
<asrwt>0</asrwt>
<pdfrwt beam="2">  1       21 0.11207170E-02 0.30875999E+02</pdfrwt>
<pdfrwt beam="1">  1        2 0.74569181E-01 0.30875999E+02</pdfrwt>
<totfact> 0.19991215E+06</totfact>
</mgrwt>
</event>
<event>
 4    1  0.2185255E+006  0.9287738E+02  0.7546771E-02  0.1296030E+00
         21   -1    0    0  503  502  0.00000000000E+00  0.00000000000E+00  0.40504946552E+02  0.40504946552E+02  0.00000000000E+00 0. -1.
          2   -1    0    0  502    0 -0.00000000000E+00 -0.00000000000E+00 -0.19647739173E+04  0.19647739173E+04  0.00000000000E+00 0.  1.
         21    1    1    2  503  501 -0.17615174051E+02  0.91191633006E+02 -0.15392508322E+02  0.94144238271E+02  0.00000000000E+00 0. -1.
          2    1    1    2  501    0  0.17615174051E+02 -0.91191633006E+02 -0.19088764624E+04  0.19111346256E+04  0.00000000000E+00 0.  1.
<mgrwt>
<rscale>  2 0.92877383E+02</rscale>
<asrwt>0</asrwt>
<pdfrwt beam="1">  1       21 0.62315322E-02 0.92877383E+02</pdfrwt>
<pdfrwt beam="2">  1        2 0.30227281E+00 0.92877383E+02</pdfrwt>
<totfact> 0.19353647E+04</totfact>
</mgrwt>
</event>
<event>
 4    1  0.2185255E+006  0.2004011E+02  0.7546771E-02  0.1744532E+00
         21   -1    0    0  501  502  0.00000000000E+00  0.00000000000E+00  0.17864561576E+01  0.17864561576E+01  0.00000000000E+00 0.  1.
          2   -1    0    0  503    0 -0.00000000000E+00 -0.00000000000E+00 -0.10471168304E+04  0.10471168304E+04  0.00000000000E+00 0. -1.
         21    1    1    2  503  502 -0.62768220697E+01  0.19031745150E+02 -0.57908206347E+02  0.61277778852E+02  0.00000000000E+00 0.  1.
          2    1    1    2  501    0  0.62768220697E+01 -0.19031745150E+02 -0.98742216788E+03  0.98762550769E+03  0.00000000000E+00 0. -1.
<mgrwt>
<rscale>  2 0.20040105E+02</rscale>
<asrwt>0</asrwt>
<pdfrwt beam="1">  1       21 0.27483996E-03 0.20040105E+02</pdfrwt>
<pdfrwt beam="2">  1        2 0.16109457E+00 0.20040105E+02</pdfrwt>
<totfact> 0.62243810E+06</totfact>
</mgrwt>
</event>
<event>
 4    1  0.2185255E+006  0.2353634E+02  0.7546771E-02  0.1682961E+00
         -2   -1    0    0    0  501 -0.00000000000E+00  0.00000000000E+00  0.14425787593E+03  0.14425787593E+03  0.00000000000E+00 0.  1.
         21   -1    0    0  503  502  0.00000000000E+00 -0.00000000000E+00 -0.41513313080E+01  0.41513313080E+01  0.00000000000E+00 0.  1.
         21    1    1    2  503  501  0.16394199487E+02 -0.16887549025E+02  0.49734110939E+02  0.55022185341E+02  0.00000000000E+00 0.  1.
         -2    1    1    2    0  502 -0.16394199487E+02  0.16887549025E+02  0.90372433681E+02  0.93387021895E+02  0.00000000000E+00 0.  1.
<mgrwt>
<rscale>  2 0.23536336E+02</rscale>
<asrwt>0</asrwt>
<pdfrwt beam="2">  1       21 0.63866646E-03 0.23536336E+02</pdfrwt>
<pdfrwt beam="1">  1       -2 0.22193516E-01 0.23536336E+02</pdfrwt>
<totfact> 0.68322203E+06</totfact>
</mgrwt>
</event>
<event>
 4    1  0.2185255E+006  0.2540748E+02  0.7546771E-02  0.1655217E+00
         21   -1    0    0  501  502  0.00000000000E+00  0.00000000000E+00  0.95056741714E+01  0.95056741714E+01  0.00000000000E+00 0.  1.
          1   -1    0    0  503    0 -0.00000000000E+00 -0.00000000000E+00 -0.47399624601E+03  0.47399624601E+03  0.00000000000E+00 0. -1.
         21    1    1    2  503  502  0.34469084824E+01 -0.25172582107E+02 -0.84817330813E+01  0.26785814605E+02  0.00000000000E+00 0.  1.
          1    1    1    2  501    0 -0.34469084824E+01  0.25172582107E+02 -0.45600883876E+03  0.45671610558E+03  0.00000000000E+00 0. -1.
<mgrwt>
<rscale>  2 0.25407481E+02</rscale>
<asrwt>0</asrwt>
<pdfrwt beam="1">  1       21 0.14624114E-02 0.25407481E+02</pdfrwt>
<pdfrwt beam="2">  1        1 0.72922502E-01 0.25407481E+02</pdfrwt>
<totfact> 0.86764178E+05</totfact>
</mgrwt>
</event>
<event>
 4    1  0.2185255E+006  0.2920592E+02  0.7546771E-02  0.1607036E+00
         21   -1    0    0  503  502  0.00000000000E+00  0.00000000000E+00  0.46539907655E+01  0.46539907655E+01  0.00000000000E+00 0.  1.
          2   -1    0    0  502    0 -0.00000000000E+00 -0.00000000000E+00 -0.10017788971E+04  0.10017788971E+04  0.00000000000E+00 0.  1.
         21    1    1    2  503  501 -0.14153994143E+02 -0.25547016702E+02 -0.43702387538E+02  0.52563145730E+02  0.00000000000E+00 0.  1.
          2    1    1    2  501    0  0.14153994143E+02  0.25547016702E+02 -0.95342251883E+03  0.95386974217E+03  0.00000000000E+00 0.  1.
<mgrwt>
<rscale>  2 0.29205917E+02</rscale>
<asrwt>0</asrwt>
<pdfrwt beam="1">  1       21 0.71599862E-03 0.29205917E+02</pdfrwt>
<pdfrwt beam="2">  1        2 0.15411982E+00 0.29205917E+02</pdfrwt>
<totfact> 0.17336089E+06</totfact>
</mgrwt>
</event>
<event>
 4    1  0.2185255E+006  0.2752824E+02  0.7546771E-02  0.1627136E+00
         -1   -1    0    0    0  501 -0.00000000000E+00  0.00000000000E+00  0.17155563505E+02  0.17155563505E+02  0.00000000000E+00 0.  1.
         21   -1    0    0  503  502  0.00000000000E+00 -0.00000000000E+00 -0.13216030379E+03  0.13216030379E+03  0.00000000000E+00 0. -1.
         21    1    1    2  503  501  0.27525329047E+01 -0.27390285597E+02 -0.11841911419E+03  0.12157668686E+03  0.00000000000E+00 0. -1.
         -1    1    1    2    0  502 -0.27525329047E+01  0.27390285597E+02  0.34143738970E+01  0.27739180442E+02  0.00000000000E+00 0.  1.
<mgrwt>
<rscale>  2 0.27528243E+02</rscale>
<asrwt>0</asrwt>
<pdfrwt beam="2">  1       21 0.20332354E-01 0.27528243E+02</pdfrwt>
<pdfrwt beam="1">  1       -1 0.26393175E-02 0.27528243E+02</pdfrwt>
<totfact> 0.68692884E+05</totfact>
</mgrwt>
</event>
<event>
 4    1  0.2185255E+006  0.2490737E+02  0.7546771E-02  0.1662336E+00
          1   -1    0    0  503    0 -0.00000000000E+00  0.00000000000E+00  0.13329811665E+03  0.13329811665E+03  0.00000000000E+00 0.  1.
         21   -1    0    0  501  502  0.00000000000E+00 -0.00000000000E+00 -0.74015039654E+01  0.74015039654E+01  0.00000000000E+00 0. -1.
         21    1    1    2  503  502 -0.22649606619E+02 -0.10362072789E+02  0.20086794744E+02  0.31997758603E+02  0.00000000000E+00 0. -1.
          1    1    1    2  501    0  0.22649606619E+02  0.10362072789E+02  0.10580981794E+03  0.10870186201E+03  0.00000000000E+00 0.  1.
<mgrwt>
<rscale>  2 0.24907373E+02</rscale>
<asrwt>0</asrwt>
<pdfrwt beam="2">  1       21 0.11386930E-02 0.24907373E+02</pdfrwt>
<pdfrwt beam="1">  1        1 0.20507401E-01 0.24907373E+02</pdfrwt>
<totfact> 0.55779960E+06</totfact>
</mgrwt>
</event>
<event>
 4    1  0.2185255E+006  0.2130713E+02  0.7546771E-02  0.1720518E+00
         21   -1    0    0  501  502  0.00000000000E+00  0.00000000000E+00  0.10951338336E+04  0.10951338336E+04  0.00000000000E+00 0. -1.
          3   -1    0    0  503    0 -0.00000000000E+00 -0.00000000000E+00 -0.12747094348E+01  0.12747094348E+01  0.00000000000E+00 0.  1.
         21    1    1    2  503  502 -0.18041455575E+02  0.11335760848E+02  0.99725340549E+03  0.99748100150E+03  0.00000000000E+00 0. -1.
          3    1    1    2  501    0  0.18041455575E+02 -0.11335760848E+02  0.96605718687E+02  0.98927541546E+02  0.00000000000E+00 0.  1.
<mgrwt>
<rscale>  2 0.21307125E+02</rscale>
<asrwt>0</asrwt>
<pdfrwt beam="1">  1       21 0.16848138E+00 0.21307125E+02</pdfrwt>
<pdfrwt beam="2">  1        3 0.19611002E-03 0.21307125E+02</pdfrwt>
<totfact> 0.24401882E+05</totfact>
</mgrwt>
</event>
<event>
 4    1  0.2185255E+006  0.2191443E+02  0.7546771E-02  0.1709736E+00
          2   -1    0    0  502    0 -0.00000000000E+00  0.00000000000E+00  0.11825899618E+04  0.11825899618E+04  0.00000000000E+00 0.  1.
         21   -1    0    0  503  502  0.00000000000E+00 -0.00000000000E+00 -0.88985153091E+00  0.88985153091E+00  0.00000000000E+00 0.  1.
         21    1    1    2  503  501  0.21911348907E+02 -0.36745926606E+00  0.15454914044E+03  0.15609509617E+03  0.00000000000E+00 0.  1.
          2    1    1    2  501    0 -0.21911348907E+02  0.36745926606E+00  0.10271509698E+04  0.10273847172E+04  0.00000000000E+00 0.  1.
<mgrwt>
<rscale>  2 0.21914430E+02</rscale>
<asrwt>0</asrwt>
<pdfrwt beam="2">  1       21 0.13690118E-03 0.21914430E+02</pdfrwt>
<pdfrwt beam="1">  1        2 0.18193566E+00 0.21914430E+02</pdfrwt>
<totfact> 0.14781430E+07</totfact>
</mgrwt>
</event>
<event>
 4    1  0.2185255E+006  0.2873537E+02  0.7546771E-02  0.1612503E+00
          1   -1    0    0  502    0 -0.00000000000E+00  0.00000000000E+00  0.15975708679E+04  0.15975708679E+04  0.00000000000E+00 0. -1.
         21   -1    0    0  503  502  0.00000000000E+00 -0.00000000000E+00 -0.37310706468E+01  0.37310706468E+01  0.00000000000E+00 0. -1.
         21    1    1    2  503  501  0.64601806607E+01  0.27999777105E+02  0.53791900584E+02  0.60985982164E+02  0.00000000000E+00 0. -1.
          1    1    1    2  501    0 -0.64601806607E+01 -0.27999777105E+02  0.15400478967E+04  0.15403159564E+04  0.00000000000E+00 0. -1.
<mgrwt>
<rscale>  2 0.28735369E+02</rscale>
<asrwt>0</asrwt>
<pdfrwt beam="2">  1       21 0.57401215E-03 0.28735369E+02</pdfrwt>
<pdfrwt beam="1">  1        1 0.24577959E+00 0.28735369E+02</pdfrwt>
<totfact> 0.56124611E+05</totfact>
</mgrwt>
</event>
<event>
 4    1  0.2185255E+006  0.2511538E+02  0.7546771E-02  0.1659350E+00
         21   -1    0    0  503  502  0.00000000000E+00  0.00000000000E+00  0.70910350092E+01  0.70910350092E+01  0.00000000000E+00 0. -1.
          2   -1    0    0  502    0 -0.00000000000E+00 -0.00000000000E+00 -0.10983743089E+04  0.10983743089E+04  0.00000000000E+00 0.  1.
         21    1    1    2  503  501  0.24991845806E+02  0.24879528133E+01 -0.15763768992E+02  0.29652633590E+02  0.00000000000E+00 0. -1.
          2    1    1    2  501    0 -0.24991845806E+02 -0.24879528133E+01 -0.10755195049E+04  0.10758127103E+04  0.00000000000E+00 0.  1.
<mgrwt>
<rscale>  2 0.25115379E+02</rscale>
<asrwt>0</asrwt>
<pdfrwt beam="1">  1       21 0.10909285E-02 0.25115379E+02</pdfrwt>
<pdfrwt beam="2">  1        2 0.16898066E+00 0.25115379E+02</pdfrwt>
<totfact> 0.79753415E+05</totfact>
</mgrwt>
</event>
<event>
 4    1  0.2185255E+006  0.2222920E+02  0.7546771E-02  0.1704318E+00
         21   -1    0    0  501  502  0.00000000000E+00  0.00000000000E+00  0.38970339059E+03  0.38970339059E+03  0.00000000000E+00 0. -1.
         -2   -1    0    0    0  501 -0.00000000000E+00 -0.00000000000E+00 -0.53344749155E+01  0.53344749155E+01  0.00000000000E+00 0. -1.
         21    1    1    2  503  502 -0.53273451291E+01 -0.21581392738E+02  0.36463829802E+03  0.36531524127E+03  0.00000000000E+00 0. -1.
         -2    1    1    2    0  503  0.53273451291E+01  0.21581392738E+02  0.19730617654E+02  0.29722624239E+02  0.00000000000E+00 0. -1.
<mgrwt>
<rscale>  2 0.22229195E+02</rscale>
<asrwt>0</asrwt>
<pdfrwt beam="1">  1       21 0.59954346E-01 0.22229195E+02</pdfrwt>
<pdfrwt beam="2">  1       -2 0.82068875E-03 0.22229195E+02</pdfrwt>
<totfact> 0.42769184E+05</totfact>
</mgrwt>
</event>
<event>
 4    1  0.2185255E+006  0.6274176E+02  0.7546771E-02  0.1386673E+00
         21   -1    0    0  501  502  0.00000000000E+00  0.00000000000E+00  0.12999769275E+02  0.12999769275E+02  0.00000000000E+00 0. -1.
          1   -1    0    0  503    0 -0.00000000000E+00 -0.00000000000E+00 -0.57873213493E+03  0.57873213493E+03  0.00000000000E+00 0. -1.
         21    1    1    2  503  502  0.61314699439E+02  0.13305472838E+02 -0.78577007698E+02  0.10055284239E+03  0.00000000000E+00 0. -1.
          1    1    1    2  501    0 -0.61314699439E+02 -0.13305472838E+02 -0.48715535796E+03  0.49117906181E+03  0.00000000000E+00 0. -1.
<mgrwt>
<rscale>  2 0.62741756E+02</rscale>
<asrwt>0</asrwt>
<pdfrwt beam="1">  1       21 0.19999644E-02 0.62741756E+02</pdfrwt>
<pdfrwt beam="2">  1        1 0.89035717E-01 0.62741756E+02</pdfrwt>
<totfact> 0.46755321E+05</totfact>
</mgrwt>
</event>
<event>
 4    1  0.2185255E+006  0.7300420E+02  0.7546771E-02  0.1350165E+00
          1   -1    0    0  503    0 -0.00000000000E+00  0.00000000000E+00  0.18443194126E+04  0.18443194126E+04  0.00000000000E+00 0. -1.
         21   -1    0    0  501  502  0.00000000000E+00 -0.00000000000E+00 -0.28966242732E+01  0.28966242732E+01  0.00000000000E+00 0. -1.
         21    1    1    2  503  502 -0.72603862456E+02 -0.76349345197E+01  0.87570146750E+03  0.87873925213E+03  0.00000000000E+00 0. -1.
          1    1    1    2  501    0  0.72603862456E+02  0.76349345197E+01  0.96572132080E+03  0.96847678470E+03  0.00000000000E+00 0. -1.
<mgrwt>
<rscale>  2 0.73004199E+02</rscale>
<asrwt>0</asrwt>
<pdfrwt beam="2">  1       21 0.44563598E-03 0.73004199E+02</pdfrwt>
<pdfrwt beam="1">  1        1 0.28374051E+00 0.73004199E+02</pdfrwt>
<totfact> 0.62623096E+05</totfact>
</mgrwt>
</event>
<event>
 4    1  0.2185255E+006  0.2208220E+02  0.7546771E-02  0.1706834E+00
         -3   -1    0    0    0  501 -0.00000000000E+00  0.00000000000E+00  0.86141394063E+01  0.86141394063E+01  0.00000000000E+00 0. -1.
         21   -1    0    0  501  502  0.00000000000E+00 -0.00000000000E+00 -0.75364143580E+02  0.75364143580E+02  0.00000000000E+00 0. -1.
         21    1    1    2  503  502 -0.20015827624E+02  0.93268442441E+01 -0.54322599239E+02  0.58639305650E+02  0.00000000000E+00 0. -1.
         -3    1    1    2    0  503  0.20015827624E+02 -0.93268442441E+01 -0.12427404934E+02  0.25338977336E+02  0.00000000000E+00 0. -1.
<mgrwt>
<rscale>  2 0.22082196E+02</rscale>
<asrwt>0</asrwt>
<pdfrwt beam="2">  1       21 0.11594483E-01 0.22082196E+02</pdfrwt>
<pdfrwt beam="1">  1       -3 0.13252523E-02 0.22082196E+02</pdfrwt>
<totfact> 0.31030514E+06</totfact>
</mgrwt>
</event>
<event>
 4    1  0.2185255E+006  0.2824606E+02  0.7546771E-02  0.1618327E+00
          1   -1    0    0  502    0 -0.00000000000E+00  0.00000000000E+00  0.94355792118E+03  0.94355792118E+03  0.00000000000E+00 0.  1.
         21   -1    0    0  503  502  0.00000000000E+00 -0.00000000000E+00 -0.22100843531E+01  0.22100843531E+01  0.00000000000E+00 0.  1.
         21    1    1    2  503  501 -0.19430552019E+02 -0.20501063202E+02  0.99104483897E+02  0.10305114591E+03  0.00000000000E+00 0.  1.
          1    1    1    2  501    0  0.19430552019E+02  0.20501063202E+02  0.84224335293E+03  0.84271685963E+03  0.00000000000E+00 0.  1.
<mgrwt>
<rscale>  2 0.28246061E+02</rscale>
<asrwt>0</asrwt>
<pdfrwt beam="2">  1       21 0.34001373E-03 0.28246061E+02</pdfrwt>
<pdfrwt beam="1">  1        1 0.14516244E+00 0.28246061E+02</pdfrwt>
<totfact> 0.31563613E+06</totfact>
</mgrwt>
</event>
<event>
 4    1  0.2185255E+006  0.2946376E+02  0.7546771E-02  0.1604093E+00
         -1   -1    0    0    0  501 -0.00000000000E+00  0.00000000000E+00  0.70340388126E+03  0.70340388126E+03  0.00000000000E+00 0. -1.
         21   -1    0    0  503  502  0.00000000000E+00 -0.00000000000E+00 -0.27486822189E+01  0.27486822189E+01  0.00000000000E+00 0. -1.
         21    1    1    2  503  501  0.86855171434E+01 -0.28154480701E+02  0.88241437755E+02  0.93030448396E+02  0.00000000000E+00 0. -1.
         -1    1    1    2    0  502 -0.86855171434E+01  0.28154480701E+02  0.61241376129E+03  0.61312211509E+03  0.00000000000E+00 0. -1.
<mgrwt>
<rscale>  2 0.29463757E+02</rscale>
<asrwt>0</asrwt>
<pdfrwt beam="2">  1       21 0.42287475E-03 0.29463757E+02</pdfrwt>
<pdfrwt beam="1">  1       -1 0.10821584E+00 0.29463757E+02</pdfrwt>
<totfact> 0.89534431E+05</totfact>
</mgrwt>
</event>
<event>
 4    1  0.2185255E+006  0.2116947E+02  0.7546771E-02  0.1723024E+00
         -4   -1    0    0    0  501 -0.00000000000E+00  0.00000000000E+00  0.99980353139E+01  0.99980353139E+01  0.00000000000E+00 0. -1.
         21   -1    0    0  503  502  0.00000000000E+00 -0.00000000000E+00 -0.15662018367E+03  0.15662018367E+03  0.00000000000E+00 0.  1.
         21    1    1    2  503  501 -0.20178300355E+02  0.64017618636E+01 -0.14369657417E+03  0.14524755347E+03  0.00000000000E+00 0.  1.
         -4    1    1    2    0  502  0.20178300355E+02 -0.64017618636E+01 -0.29255741826E+01  0.21370665513E+02  0.00000000000E+00 0. -1.
<mgrwt>
<rscale>  2 0.21169468E+02</rscale>
<asrwt>0</asrwt>
<pdfrwt beam="2">  1       21 0.24095413E-01 0.21169468E+02</pdfrwt>
<pdfrwt beam="1">  1       -4 0.15381592E-02 0.21169468E+02</pdfrwt>
<totfact> 0.60229975E+05</totfact>
</mgrwt>
</event>
<event>
 4    1  0.2185255E+006  0.2837671E+02  0.7546771E-02  0.1616758E+00
         21   -1    0    0  501  502  0.00000000000E+00  0.00000000000E+00  0.82522434610E+01  0.82522434610E+01  0.00000000000E+00 0.  1.
         -2   -1    0    0    0  501 -0.00000000000E+00 -0.00000000000E+00 -0.50975702494E+03  0.50975702494E+03  0.00000000000E+00 0.  1.
         21    1    1    2  503  502 -0.27887535929E+02 -0.52462412564E+01 -0.17852733231E+02  0.33525479733E+02  0.00000000000E+00 0.  1.
         -2    1    1    2    0  503  0.27887535929E+02  0.52462412564E+01 -0.48365204825E+03  0.48448378867E+03  0.00000000000E+00 0.  1.
<mgrwt>
<rscale>  2 0.28376711E+02</rscale>
<asrwt>0</asrwt>
<pdfrwt beam="1">  1       21 0.12695757E-02 0.28376711E+02</pdfrwt>
<pdfrwt beam="2">  1       -2 0.78424168E-01 0.28376711E+02</pdfrwt>
<totfact> 0.24695937E+05</totfact>
</mgrwt>
</event>
<event>
 4    1  0.2185255E+006  0.5206517E+02  0.7546771E-02  0.1434511E+00
         21   -1    0    0  501  502  0.00000000000E+00  0.00000000000E+00  0.76096908492E+01  0.76096908492E+01  0.00000000000E+00 0.  1.
          1   -1    0    0  503    0 -0.00000000000E+00 -0.00000000000E+00 -0.23869293223E+04  0.23869293223E+04  0.00000000000E+00 0.  1.
         21    1    1    2  503  502  0.21606461848E+02  0.47370270477E+02 -0.85339115540E+02  0.99967726591E+02  0.00000000000E+00 0.  1.
          1    1    1    2  501    0 -0.21606461848E+02 -0.47370270477E+02 -0.22939805159E+04  0.22945712866E+04  0.00000000000E+00 0.  1.
<mgrwt>
<rscale>  2 0.52065168E+02</rscale>
<asrwt>0</asrwt>
<pdfrwt beam="1">  1       21 0.11707227E-02 0.52065168E+02</pdfrwt>
<pdfrwt beam="2">  1        1 0.36721958E+00 0.52065168E+02</pdfrwt>
<totfact> 0.64935453E+04</totfact>
</mgrwt>
</event>
<event>
 4    1  0.2185255E+006  0.2181731E+02  0.7546771E-02  0.1711431E+00
         21   -1    0    0  501  502  0.00000000000E+00  0.00000000000E+00  0.14899701582E+02  0.14899701582E+02  0.00000000000E+00 0. -1.
          1   -1    0    0  503    0 -0.00000000000E+00 -0.00000000000E+00 -0.37039357673E+02  0.37039357673E+02  0.00000000000E+00 0.  1.
         21    1    1    2  503  502 -0.14595332450E+02  0.16216389014E+02 -0.14402267291E+01  0.21864794877E+02  0.00000000000E+00 0. -1.
          1    1    1    2  501    0  0.14595332450E+02 -0.16216389014E+02 -0.20699429362E+02  0.30074264378E+02  0.00000000000E+00 0.  1.
<mgrwt>
<rscale>  2 0.21817310E+02</rscale>
<asrwt>0</asrwt>
<pdfrwt beam="1">  1       21 0.22922618E-02 0.21817310E+02</pdfrwt>
<pdfrwt beam="2">  1        1 0.56983627E-02 0.21817310E+02</pdfrwt>
<totfact> 0.90054697E+06</totfact>
</mgrwt>
</event>
<event>
 4    1  0.2185255E+006  0.2623336E+02  0.7546771E-02  0.1643894E+00
         -1   -1    0    0    0  501 -0.00000000000E+00  0.00000000000E+00  0.81133456524E+02  0.81133456524E+02  0.00000000000E+00 0.  1.
         21   -1    0    0  503  502  0.00000000000E+00 -0.00000000000E+00 -0.52173489689E+02  0.52173489689E+02  0.00000000000E+00 0.  1.
         21    1    1    2  503  501  0.28687193917E+00  0.26231790519E+02 -0.46515171574E+02  0.53402718245E+02  0.00000000000E+00 0.  1.
         -1    1    1    2    0  502 -0.28687193917E+00 -0.26231790519E+02  0.75475138409E+02  0.79904227968E+02  0.00000000000E+00 0.  1.
<mgrwt>
<rscale>  2 0.26233359E+02</rscale>
<asrwt>0</asrwt>
<pdfrwt beam="2">  1       21 0.80266907E-02 0.26233359E+02</pdfrwt>
<pdfrwt beam="1">  1       -1 0.12482070E-01 0.26233359E+02</pdfrwt>
<totfact> 0.36397456E+05</totfact>
</mgrwt>
</event>
<event>
 4    1  0.2185255E+006  0.1479229E+03  0.7546771E-02  0.1203049E+00
         21   -1    0    0  501  502  0.00000000000E+00  0.00000000000E+00  0.18795549037E+03  0.18795549037E+03  0.00000000000E+00 0. -1.
          1   -1    0    0  503    0 -0.00000000000E+00 -0.00000000000E+00 -0.25259495419E+03  0.25259495419E+03  0.00000000000E+00 0. -1.
         21    1    1    2  503  502 -0.51581416109E+02  0.13863816156E+03  0.12941637564E+03  0.19654460209E+03  0.00000000000E+00 0. -1.
          1    1    1    2  501    0  0.51581416109E+02 -0.13863816156E+03 -0.19405583946E+03  0.24400584246E+03  0.00000000000E+00 0. -1.
<mgrwt>
<rscale>  2 0.14792289E+03</rscale>
<asrwt>0</asrwt>
<pdfrwt beam="1">  1       21 0.28916230E-01 0.14792289E+03</pdfrwt>
<pdfrwt beam="2">  1        1 0.38860762E-01 0.14792289E+03</pdfrwt>
<totfact> 0.13682310E+04</totfact>
</mgrwt>
</event>
<event>
 4    1  0.2185255E+006  0.2714497E+02  0.7546771E-02  0.1631976E+00
          3   -1    0    0  503    0 -0.00000000000E+00  0.00000000000E+00  0.32954949881E+02  0.32954949881E+02  0.00000000000E+00 0. -1.
         21   -1    0    0  501  502  0.00000000000E+00 -0.00000000000E+00 -0.45056499981E+02  0.45056499981E+02  0.00000000000E+00 0. -1.
         21    1    1    2  503  502 -0.16809109397E+02 -0.21314389462E+02 -0.33735221447E+02  0.43300283174E+02  0.00000000000E+00 0. -1.
          3    1    1    2  501    0  0.16809109397E+02  0.21314389462E+02  0.21633671347E+02  0.34711166688E+02  0.00000000000E+00 0. -1.
<mgrwt>
<rscale>  2 0.27144969E+02</rscale>
<asrwt>0</asrwt>
<pdfrwt beam="2">  1       21 0.69317692E-02 0.27144969E+02</pdfrwt>
<pdfrwt beam="1">  1        3 0.50699923E-02 0.27144969E+02</pdfrwt>
<totfact> 0.10837390E+06</totfact>
</mgrwt>
</event>
<event>
 4    1  0.2185255E+006  0.2446975E+02  0.7546771E-02  0.1668737E+00
         -2   -1    0    0    0  501 -0.00000000000E+00  0.00000000000E+00  0.29128435067E+01  0.29128435067E+01  0.00000000000E+00 0.  1.
         21   -1    0    0  501  502  0.00000000000E+00 -0.00000000000E+00 -0.49517168461E+03  0.49517168461E+03  0.00000000000E+00 0.  1.
         21    1    1    2  503  502 -0.18664194170E+02 -0.15824554982E+02 -0.43658864757E+03  0.43727384540E+03  0.00000000000E+00 0.  1.
         -2    1    1    2    0  503  0.18664194170E+02  0.15824554982E+02 -0.55670193537E+02  0.60810682720E+02  0.00000000000E+00 0.  1.
<mgrwt>
<rscale>  2 0.24469750E+02</rscale>
<asrwt>0</asrwt>
<pdfrwt beam="2">  1       21 0.76180263E-01 0.24469750E+02</pdfrwt>
<pdfrwt beam="1">  1       -2 0.44812975E-03 0.24469750E+02</pdfrwt>
<totfact> 0.60244805E+05</totfact>
</mgrwt>
</event>
<event>
 4    1  0.2185255E+006  0.2492883E+02  0.7546771E-02  0.1662026E+00
          2   -1    0    0  503    0 -0.00000000000E+00  0.00000000000E+00  0.14792351354E+04  0.14792351354E+04  0.00000000000E+00 0. -1.
         21   -1    0    0  501  502  0.00000000000E+00 -0.00000000000E+00 -0.67668288924E+00  0.67668288924E+00  0.00000000000E+00 0. -1.
         21    1    1    2  503  502  0.21426670873E+02  0.12741436252E+02  0.28364557100E+03  0.28473892669E+03  0.00000000000E+00 0. -1.
          2    1    1    2  501    0 -0.21426670873E+02 -0.12741436252E+02  0.11949128816E+04  0.11951728916E+04  0.00000000000E+00 0. -1.
<mgrwt>
<rscale>  2 0.24928827E+02</rscale>
<asrwt>0</asrwt>
<pdfrwt beam="2">  1       21 0.10410624E-03 0.24928827E+02</pdfrwt>
<pdfrwt beam="1">  1        2 0.22757205E+00 0.24928827E+02</pdfrwt>
<totfact> 0.16181895E+07</totfact>
</mgrwt>
</event>
<event>
 4    1  0.2185255E+006  0.2479446E+02  0.7546771E-02  0.1663972E+00
          3   -1    0    0  503    0 -0.00000000000E+00  0.00000000000E+00  0.42016765367E+02  0.42016765367E+02  0.00000000000E+00 0.  1.
         21   -1    0    0  501  502  0.00000000000E+00 -0.00000000000E+00 -0.27882121013E+02  0.27882121013E+02  0.00000000000E+00 0.  1.
         21    1    1    2  503  502  0.22148525627E+02 -0.11144858968E+02 -0.17026002584E+02  0.30077397375E+02  0.00000000000E+00 0.  1.
          3    1    1    2  501    0 -0.22148525627E+02  0.11144858968E+02  0.31160646938E+02  0.39821489004E+02  0.00000000000E+00 0.  1.
<mgrwt>
<rscale>  2 0.24794456E+02</rscale>
<asrwt>0</asrwt>
<pdfrwt beam="2">  1       21 0.42895571E-02 0.24794456E+02</pdfrwt>
<pdfrwt beam="1">  1        3 0.64641177E-02 0.24794456E+02</pdfrwt>
<totfact> 0.15694252E+06</totfact>
</mgrwt>
</event>
<event>
 4    1  0.2185255E+006  0.2637324E+02  0.7546771E-02  0.1642027E+00
         21   -1    0    0  503  502  0.00000000000E+00  0.00000000000E+00  0.15394989364E+02  0.15394989364E+02  0.00000000000E+00 0.  1.
         -2   -1    0    0    0  501 -0.00000000000E+00 -0.00000000000E+00 -0.15313733562E+03  0.15313733562E+03  0.00000000000E+00 0.  1.
         21    1    1    2  503  501  0.19833710183E+02  0.17383080978E+02  0.18807905409E+01  0.26440214390E+02  0.00000000000E+00 0.  1.
         -2    1    1    2    0  502 -0.19833710183E+02 -0.17383080978E+02 -0.13962313680E+03  0.14209211059E+03  0.00000000000E+00 0.  1.
<mgrwt>
<rscale>  2 0.26373236E+02</rscale>
<asrwt>0</asrwt>
<pdfrwt beam="1">  1       21 0.23684600E-02 0.26373236E+02</pdfrwt>
<pdfrwt beam="2">  1       -2 0.23559589E-01 0.26373236E+02</pdfrwt>
<totfact> 0.87455841E+05</totfact>
</mgrwt>
</event>
<event>
 4    1  0.2185255E+006  0.2036495E+02  0.7546771E-02  0.1738166E+00
          3   -1    0    0  502    0 -0.00000000000E+00  0.00000000000E+00  0.47817363426E+03  0.47817363426E+03  0.00000000000E+00 0.  1.
         21   -1    0    0  503  502  0.00000000000E+00 -0.00000000000E+00 -0.12840319574E+02  0.12840319574E+02  0.00000000000E+00 0. -1.
         21    1    1    2  503  501  0.60883317363E+01 -0.19433562626E+02 -0.44037498798E+01  0.20835646202E+02  0.00000000000E+00 0. -1.
          3    1    1    2  501    0 -0.60883317363E+01  0.19433562626E+02  0.46973706457E+03  0.47017830763E+03  0.00000000000E+00 0.  1.
<mgrwt>
<rscale>  2 0.20364949E+02</rscale>
<asrwt>0</asrwt>
<pdfrwt beam="2">  1       21 0.19754341E-02 0.20364949E+02</pdfrwt>
<pdfrwt beam="1">  1        3 0.73565161E-01 0.20364949E+02</pdfrwt>
<totfact> 0.74830773E+04</totfact>
</mgrwt>
</event>
<event>
 4    1  0.2185255E+006  0.4574472E+02  0.7546771E-02  0.1469745E+00
         21   -1    0    0  503  502  0.00000000000E+00  0.00000000000E+00  0.22559655212E+03  0.22559655212E+03  0.00000000000E+00 0. -1.
          4   -1    0    0  502    0 -0.00000000000E+00 -0.00000000000E+00 -0.13834329452E+02  0.13834329452E+02  0.00000000000E+00 0.  1.
         21    1    1    2  503  501 -0.34411619681E+02 -0.30139999805E+02  0.17460147781E+03  0.18049447418E+03  0.00000000000E+00 0. -1.
          4    1    1    2  501    0  0.34411619681E+02  0.30139999805E+02  0.37160744857E+02  0.58936407387E+02  0.00000000000E+00 0.  1.
<mgrwt>
<rscale>  2 0.45744717E+02</rscale>
<asrwt>0</asrwt>
<pdfrwt beam="1">  1       21 0.34707159E-01 0.45744717E+02</pdfrwt>
<pdfrwt beam="2">  1        4 0.21283585E-02 0.45744717E+02</pdfrwt>
<totfact> 0.24211730E+05</totfact>
</mgrwt>
</event>
<event>
 4    1  0.2185255E+006  0.2070924E+02  0.7546771E-02  0.1731581E+00
         21   -1    0    0  501  502  0.00000000000E+00  0.00000000000E+00  0.92803629597E+01  0.92803629597E+01  0.00000000000E+00 0. -1.
          2   -1    0    0  503    0 -0.00000000000E+00 -0.00000000000E+00 -0.11045693245E+03  0.11045693245E+03  0.00000000000E+00 0. -1.
         21    1    1    2  503  502 -0.75456564894E+01 -0.19285638018E+02 -0.49300355727E+01  0.21287978212E+02  0.00000000000E+00 0. -1.
          2    1    1    2  501    0  0.75456564894E+01  0.19285638018E+02 -0.96246533923E+02  0.98449317203E+02  0.00000000000E+00 0. -1.
<mgrwt>
<rscale>  2 0.20709243E+02</rscale>
<asrwt>0</asrwt>
<pdfrwt beam="1">  1       21 0.14277483E-02 0.20709243E+02</pdfrwt>
<pdfrwt beam="2">  1        2 0.16993373E-01 0.20709243E+02</pdfrwt>
<totfact> 0.56800692E+06</totfact>
</mgrwt>
</event>
<event>
 4    1  0.2185255E+006  0.2425801E+02  0.7546771E-02  0.1671894E+00
         21   -1    0    0  501  502  0.00000000000E+00  0.00000000000E+00  0.40218982432E+02  0.40218982432E+02  0.00000000000E+00 0. -1.
          1   -1    0    0  503    0 -0.00000000000E+00 -0.00000000000E+00 -0.17695952517E+02  0.17695952517E+02  0.00000000000E+00 0.  1.
         21    1    1    2  503  502  0.20464308118E+02 -0.13025484141E+02  0.23312506337E+02  0.33644079651E+02  0.00000000000E+00 0. -1.
          1    1    1    2  501    0 -0.20464308118E+02  0.13025484141E+02 -0.78947642148E+00  0.24270855298E+02  0.00000000000E+00 0.  1.
<mgrwt>
<rscale>  2 0.24258012E+02</rscale>
<asrwt>0</asrwt>
<pdfrwt beam="1">  1       21 0.61875357E-02 0.24258012E+02</pdfrwt>
<pdfrwt beam="2">  1        1 0.27224542E-02 0.24258012E+02</pdfrwt>
<totfact> 0.50627519E+06</totfact>
</mgrwt>
</event>
<event>
 4    1  0.2185255E+006  0.2934284E+02  0.7546771E-02  0.1605468E+00
         21   -1    0    0  501  502  0.00000000000E+00  0.00000000000E+00  0.44271580012E+03  0.44271580012E+03  0.00000000000E+00 0.  1.
          1   -1    0    0  503    0 -0.00000000000E+00 -0.00000000000E+00 -0.30868999278E+02  0.30868999278E+02  0.00000000000E+00 0.  1.
         21    1    1    2  503  502 -0.29213834767E+02 -0.27484476799E+01  0.43513522234E+03  0.43612345022E+03  0.00000000000E+00 0.  1.
          1    1    1    2  501    0  0.29213834767E+02  0.27484476799E+01 -0.23288421500E+02  0.37461349181E+02  0.00000000000E+00 0.  1.
<mgrwt>
<rscale>  2 0.29342837E+02</rscale>
<asrwt>0</asrwt>
<pdfrwt beam="1">  1       21 0.68110119E-01 0.29342837E+02</pdfrwt>
<pdfrwt beam="2">  1        1 0.47490771E-02 0.29342837E+02</pdfrwt>
<totfact> 0.34981409E+04</totfact>
</mgrwt>
</event>
<event>
 4    1  0.2185255E+006  0.2035472E+02  0.7546771E-02  0.1738365E+00
          2   -1    0    0  502    0 -0.00000000000E+00  0.00000000000E+00  0.95242577051E+03  0.95242577051E+03  0.00000000000E+00 0.  1.
         21   -1    0    0  503  502  0.00000000000E+00 -0.00000000000E+00 -0.52946068640E+01  0.52946068640E+01  0.00000000000E+00 0. -1.
         21    1    1    2  503  501  0.90441189336E+01 -0.18235086648E+02  0.14798754745E+02  0.25165802478E+02  0.00000000000E+00 0. -1.
          2    1    1    2  501    0 -0.90441189336E+01  0.18235086648E+02  0.93233240890E+03  0.93255457489E+03  0.00000000000E+00 0.  1.
<mgrwt>
<rscale>  2 0.20354716E+02</rscale>
<asrwt>0</asrwt>
<pdfrwt beam="2">  1       21 0.81455566E-03 0.20354716E+02</pdfrwt>
<pdfrwt beam="1">  1        2 0.14652691E+00 0.20354716E+02</pdfrwt>
<totfact> 0.14273175E+06</totfact>
</mgrwt>
</event>
<event>
 4    1  0.2185255E+006  0.3848932E+02  0.7546771E-02  0.1519632E+00
         21   -1    0    0  503  502  0.00000000000E+00  0.00000000000E+00  0.16109852853E+02  0.16109852853E+02  0.00000000000E+00 0.  1.
          1   -1    0    0  502    0 -0.00000000000E+00 -0.00000000000E+00 -0.66222355050E+03  0.66222355050E+03  0.00000000000E+00 0. -1.
         21    1    1    2  503  501  0.11520405942E+02  0.36724763737E+02 -0.83186110711E+01  0.39378005469E+02  0.00000000000E+00 0.  1.
          1    1    1    2  501    0 -0.11520405942E+02 -0.36724763737E+02 -0.63779508658E+03  0.63895539789E+03  0.00000000000E+00 0. -1.
<mgrwt>
<rscale>  2 0.38489324E+02</rscale>
<asrwt>0</asrwt>
<pdfrwt beam="1">  1       21 0.24784398E-02 0.38489324E+02</pdfrwt>
<pdfrwt beam="2">  1        1 0.10188051E+00 0.38489324E+02</pdfrwt>
<totfact> 0.26641156E+05</totfact>
</mgrwt>
</event>
<event>
 4    1  0.2185255E+006  0.3707669E+02  0.7546771E-02  0.1530896E+00
         21   -1    0    0  501  502  0.00000000000E+00  0.00000000000E+00  0.42526403524E+02  0.42526403524E+02  0.00000000000E+00 0. -1.
          2   -1    0    0  503    0 -0.00000000000E+00 -0.00000000000E+00 -0.55517724433E+02  0.55517724433E+02  0.00000000000E+00 0. -1.
         21    1    1    2  503  502  0.36558666212E+02 -0.61761597634E+01  0.25188947565E+02  0.44823700249E+02  0.00000000000E+00 0. -1.
          2    1    1    2  501    0 -0.36558666212E+02  0.61761597634E+01 -0.38180268474E+02  0.53220427707E+02  0.00000000000E+00 0. -1.
<mgrwt>
<rscale>  2 0.37076691E+02</rscale>
<asrwt>0</asrwt>
<pdfrwt beam="1">  1       21 0.65425236E-02 0.37076691E+02</pdfrwt>
<pdfrwt beam="2">  1        2 0.85411883E-02 0.37076691E+02</pdfrwt>
<totfact> 0.12945452E+06</totfact>
</mgrwt>
</event>
<event>
 4    1  0.2185255E+006  0.2308062E+02  0.7546771E-02  0.1690207E+00
         21   -1    0    0  503  502  0.00000000000E+00  0.00000000000E+00  0.46321269545E+02  0.46321269545E+02  0.00000000000E+00 0. -1.
         -1   -1    0    0    0  501 -0.00000000000E+00 -0.00000000000E+00 -0.18102160787E+03  0.18102160787E+03  0.00000000000E+00 0.  1.
         21    1    1    2  503  501  0.22208223227E+02  0.62856971360E+01  0.42651204980E+02  0.48495777689E+02  0.00000000000E+00 0. -1.
         -1    1    1    2    0  502 -0.22208223227E+02 -0.62856971360E+01 -0.17735154330E+03  0.17884709972E+03  0.00000000000E+00 0.  1.
<mgrwt>
<rscale>  2 0.23080623E+02</rscale>
<asrwt>0</asrwt>
<pdfrwt beam="1">  1       21 0.71263492E-02 0.23080623E+02</pdfrwt>
<pdfrwt beam="2">  1       -1 0.27849478E-01 0.23080623E+02</pdfrwt>
<totfact> 0.12820648E+05</totfact>
</mgrwt>
</event>
<event>
 4    1  0.2185255E+006  0.2045244E+02  0.7546771E-02  0.1736478E+00
          2   -1    0    0  502    0 -0.00000000000E+00  0.00000000000E+00  0.88237303635E+03  0.88237303635E+03  0.00000000000E+00 0.  1.
         21   -1    0    0  503  502  0.00000000000E+00 -0.00000000000E+00 -0.53609510919E+00  0.53609510919E+00  0.00000000000E+00 0.  1.
         21    1    1    2  503  501 -0.56793213739E+01 -0.19648095729E+02  0.29075453753E+03  0.29147298923E+03  0.00000000000E+00 0.  1.
          2    1    1    2  501    0  0.56793213739E+01  0.19648095729E+02  0.59108240371E+03  0.59143614223E+03  0.00000000000E+00 0.  1.
<mgrwt>
<rscale>  2 0.20452441E+02</rscale>
<asrwt>0</asrwt>
<pdfrwt beam="2">  1       21 0.82476877E-04 0.20452441E+02</pdfrwt>
<pdfrwt beam="1">  1        2 0.13574854E+00 0.20452441E+02</pdfrwt>
<totfact> 0.43063237E+07</totfact>
</mgrwt>
</event>
<event>
 4    1  0.2185255E+006  0.4216357E+02  0.7546771E-02  0.1492868E+00
         21   -1    0    0  501  502  0.00000000000E+00  0.00000000000E+00  0.40132279183E+02  0.40132279183E+02  0.00000000000E+00 0. -1.
         -2   -1    0    0    0  501 -0.00000000000E+00 -0.00000000000E+00 -0.42726402888E+03  0.42726402888E+03  0.00000000000E+00 0. -1.
         21    1    1    2  503  502 -0.19814401414E+02  0.37217690197E+02  0.27686235580E+02  0.50441001254E+02  0.00000000000E+00 0. -1.
         -2    1    1    2    0  503  0.19814401414E+02 -0.37217690197E+02 -0.41481798527E+03  0.41695530681E+03  0.00000000000E+00 0. -1.
<mgrwt>
<rscale>  2 0.42163574E+02</rscale>
<asrwt>0</asrwt>
<pdfrwt beam="1">  1       21 0.61741969E-02 0.42163574E+02</pdfrwt>
<pdfrwt beam="2">  1       -2 0.65732927E-01 0.42163574E+02</pdfrwt>
<totfact> 0.30940894E+04</totfact>
</mgrwt>
</event>
<event>
 4    1  0.2185255E+006  0.2256740E+02  0.7546771E-02  0.1698620E+00
         -1   -1    0    0    0  501 -0.00000000000E+00  0.00000000000E+00  0.81685360011E+02  0.81685360011E+02  0.00000000000E+00 0.  1.
         21   -1    0    0  503  502  0.00000000000E+00 -0.00000000000E+00 -0.16179794153E+02  0.16179794153E+02  0.00000000000E+00 0.  1.
         21    1    1    2  503  501 -0.11464468128E+02 -0.19438451168E+02 -0.56104371847E+01  0.23254341932E+02  0.00000000000E+00 0.  1.
         -1    1    1    2    0  502  0.11464468128E+02  0.19438451168E+02  0.71116003042E+02  0.74610812232E+02  0.00000000000E+00 0.  1.
<mgrwt>
<rscale>  2 0.22567397E+02</rscale>
<asrwt>0</asrwt>
<pdfrwt beam="2">  1       21 0.24891991E-02 0.22567397E+02</pdfrwt>
<pdfrwt beam="1">  1       -1 0.12566978E-01 0.22567397E+02</pdfrwt>
<totfact> 0.22399710E+06</totfact>
</mgrwt>
</event>
<event>
 4    1  0.2185255E+006  0.4157514E+02  0.7546771E-02  0.1496930E+00
         21   -1    0    0  501  502  0.00000000000E+00  0.00000000000E+00  0.45297366926E+02  0.45297366926E+02  0.00000000000E+00 0. -1.
          1   -1    0    0  503    0 -0.00000000000E+00 -0.00000000000E+00 -0.92652931385E+02  0.92652931385E+02  0.00000000000E+00 0.  1.
         21    1    1    2  503  502  0.16592757387E+02  0.38120499590E+02  0.29220068687E+02  0.50816380241E+02  0.00000000000E+00 0. -1.
          1    1    1    2  501    0 -0.16592757387E+02 -0.38120499590E+02 -0.76575633145E+02  0.87133918071E+02  0.00000000000E+00 0.  1.
<mgrwt>
<rscale>  2 0.41575138E+02</rscale>
<asrwt>0</asrwt>
<pdfrwt beam="1">  1       21 0.69688257E-02 0.41575138E+02</pdfrwt>
<pdfrwt beam="2">  1        1 0.14254297E-01 0.41575138E+02</pdfrwt>
<totfact> 0.55477859E+05</totfact>
</mgrwt>
</event>
<event>
 4    1  0.2185255E+006  0.2104255E+02  0.7546771E-02  0.1725357E+00
          2   -1    0    0  503    0 -0.00000000000E+00  0.00000000000E+00  0.10111016840E+04  0.10111016840E+04  0.00000000000E+00 0. -1.
         21   -1    0    0  501  502  0.00000000000E+00 -0.00000000000E+00 -0.26400943006E+01  0.26400943006E+01  0.00000000000E+00 0. -1.
         21    1    1    2  503  502 -0.20503799213E+02 -0.47310602631E+01  0.41303502606E+02  0.46354806018E+02  0.00000000000E+00 0. -1.
          2    1    1    2  501    0  0.20503799213E+02  0.47310602631E+01  0.96715808712E+03  0.96738697231E+03  0.00000000000E+00 0. -1.
<mgrwt>
<rscale>  2 0.21042545E+02</rscale>
<asrwt>0</asrwt>
<pdfrwt beam="2">  1       21 0.40616916E-03 0.21042545E+02</pdfrwt>
<pdfrwt beam="1">  1        2 0.15555380E+00 0.21042545E+02</pdfrwt>
<totfact> 0.37264838E+06</totfact>
</mgrwt>
</event>
<event>
 4    1  0.2185255E+006  0.3067257E+02  0.7546771E-02  0.1590771E+00
          2   -1    0    0  502    0 -0.00000000000E+00  0.00000000000E+00  0.97266555149E+03  0.97266555149E+03  0.00000000000E+00 0.  1.
         21   -1    0    0  503  502  0.00000000000E+00 -0.00000000000E+00 -0.22704183440E+02  0.22704183440E+02  0.00000000000E+00 0.  1.
         21    1    1    2  503  501 -0.10334353192E+02 -0.28879195786E+02 -0.11987593143E+02  0.32931887199E+02  0.00000000000E+00 0.  1.
          2    1    1    2  501    0  0.10334353192E+02  0.28879195786E+02  0.96194896119E+03  0.96243784773E+03  0.00000000000E+00 0.  1.
<mgrwt>
<rscale>  2 0.30672574E+02</rscale>
<asrwt>0</asrwt>
<pdfrwt beam="2">  1       21 0.34929521E-02 0.30672574E+02</pdfrwt>
<pdfrwt beam="1">  1        2 0.14964082E+00 0.30672574E+02</pdfrwt>
<totfact> 0.15805327E+05</totfact>
</mgrwt>
</event>
<event>
 4    1  0.2185255E+006  0.2472181E+02  0.7546771E-02  0.1665030E+00
         -1   -1    0    0    0  501 -0.00000000000E+00  0.00000000000E+00  0.15487140372E+03  0.15487140372E+03  0.00000000000E+00 0. -1.
         21   -1    0    0  503  502  0.00000000000E+00 -0.00000000000E+00 -0.39785358067E+01  0.39785358067E+01  0.00000000000E+00 0. -1.
         21    1    1    2  503  501  0.12622142240E+02  0.21256751686E+02  0.68296360343E+02  0.72633055856E+02  0.00000000000E+00 0. -1.
         -1    1    1    2    0  502 -0.12622142240E+02 -0.21256751686E+02  0.82596507566E+02  0.86216883666E+02  0.00000000000E+00 0. -1.
<mgrwt>
<rscale>  2 0.24721812E+02</rscale>
<asrwt>0</asrwt>
<pdfrwt beam="2">  1       21 0.61208255E-03 0.24721812E+02</pdfrwt>
<pdfrwt beam="1">  1       -1 0.23826365E-01 0.24721812E+02</pdfrwt>
<totfact> 0.73479754E+06</totfact>
</mgrwt>
</event>
<event>
 4    1  0.2185255E+006  0.2406971E+02  0.7546771E-02  0.1674735E+00
         21   -1    0    0  503  502  0.00000000000E+00  0.00000000000E+00  0.94360323996E+01  0.94360323996E+01  0.00000000000E+00 0. -1.
         -1   -1    0    0    0  501 -0.00000000000E+00 -0.00000000000E+00 -0.17395095323E+03  0.17395095323E+03  0.00000000000E+00 0.  1.
         21    1    1    2  503  501 -0.13659326313E+01 -0.24030922559E+02 -0.85003201716E+01  0.25526583281E+02  0.00000000000E+00 0. -1.
         -1    1    1    2    0  502  0.13659326313E+01  0.24030922559E+02 -0.15601460066E+03  0.15786040235E+03  0.00000000000E+00 0.  1.
<mgrwt>
<rscale>  2 0.24069711E+02</rscale>
<asrwt>0</asrwt>
<pdfrwt beam="1">  1       21 0.14516973E-02 0.24069711E+02</pdfrwt>
<pdfrwt beam="2">  1       -1 0.26761685E-01 0.24069711E+02</pdfrwt>
<totfact> 0.16622544E+06</totfact>
</mgrwt>
</event>
<event>
 4    1  0.2185255E+006  0.2170517E+02  0.7546771E-02  0.1713401E+00
         -2   -1    0    0    0  501 -0.00000000000E+00  0.00000000000E+00  0.29323504208E+03  0.29323504208E+03  0.00000000000E+00 0.  1.
         21   -1    0    0  503  502  0.00000000000E+00 -0.00000000000E+00 -0.11418832365E+02  0.11418832365E+02  0.00000000000E+00 0.  1.
         21    1    1    2  503  501  0.76698079065E+01 -0.20304884279E+02 -0.29672686780E+00  0.21707195253E+02  0.00000000000E+00 0.  1.
         -2    1    1    2    0  502 -0.76698079065E+01  0.20304884279E+02  0.28211293658E+03  0.28294667919E+03  0.00000000000E+00 0.  1.
<mgrwt>
<rscale>  2 0.21705167E+02</rscale>
<asrwt>0</asrwt>
<pdfrwt beam="2">  1       21 0.17567437E-02 0.21705167E+02</pdfrwt>
<pdfrwt beam="1">  1       -2 0.45113078E-01 0.21705167E+02</pdfrwt>
<totfact> 0.42573881E+05</totfact>
</mgrwt>
</event>
<event>
 4    1  0.2185255E+006  0.4412110E+02  0.7546771E-02  0.1479904E+00
         -2   -1    0    0    0  501 -0.00000000000E+00  0.00000000000E+00  0.15840886497E+04  0.15840886497E+04  0.00000000000E+00 0. -1.
         21   -1    0    0  503  502  0.00000000000E+00 -0.00000000000E+00 -0.13939142369E+01  0.13939142369E+01  0.00000000000E+00 0.  1.
         21    1    1    2  503  501 -0.44099027287E+02 -0.13954996570E+01  0.51858368534E+03  0.52045721277E+03  0.00000000000E+00 0.  1.
         -2    1    1    2    0  502  0.44099027287E+02  0.13954996570E+01  0.10641110501E+04  0.10650253511E+04  0.00000000000E+00 0. -1.
<mgrwt>
<rscale>  2 0.44121102E+02</rscale>
<asrwt>0</asrwt>
<pdfrwt beam="2">  1       21 0.21444961E-03 0.44121102E+02</pdfrwt>
<pdfrwt beam="1">  1       -2 0.24370451E+00 0.44121102E+02</pdfrwt>
<totfact> 0.23156934E+05</totfact>
</mgrwt>
</event>
<event>
 4    1  0.2185255E+006  0.2013822E+02  0.7546771E-02  0.1742593E+00
          3   -1    0    0  503    0 -0.00000000000E+00  0.00000000000E+00  0.31344906172E+02  0.31344906172E+02  0.00000000000E+00 0.  1.
         21   -1    0    0  501  502  0.00000000000E+00 -0.00000000000E+00 -0.49807464820E+02  0.49807464820E+02  0.00000000000E+00 0.  1.
         21    1    1    2  503  502  0.11881614852E+02 -0.16259621827E+02 -0.44141771616E+02  0.48518492092E+02  0.00000000000E+00 0.  1.
          3    1    1    2  501    0 -0.11881614852E+02  0.16259621827E+02  0.25679212968E+02  0.32633878900E+02  0.00000000000E+00 0.  1.
<mgrwt>
<rscale>  2 0.20138224E+02</rscale>
<asrwt>0</asrwt>
<pdfrwt beam="2">  1       21 0.76626868E-02 0.20138224E+02</pdfrwt>
<pdfrwt beam="1">  1        3 0.48222933E-02 0.20138224E+02</pdfrwt>
<totfact> 0.89525608E+05</totfact>
</mgrwt>
</event>
<event>
 4    1  0.2185255E+006  0.2079375E+02  0.7546771E-02  0.1729989E+00
          2   -1    0    0  502    0 -0.00000000000E+00  0.00000000000E+00  0.99605467233E+03  0.99605467233E+03  0.00000000000E+00 0. -1.
         21   -1    0    0  503  502  0.00000000000E+00 -0.00000000000E+00 -0.72459232856E+00  0.72459232856E+00  0.00000000000E+00 0.  1.
         21    1    1    2  503  501  0.19632498634E+02 -0.68516517388E+01  0.18209565014E+03  0.18327903844E+03  0.00000000000E+00 0.  1.
          2    1    1    2  501    0 -0.19632498634E+02  0.68516517388E+01  0.81323442987E+03  0.81350022622E+03  0.00000000000E+00 0. -1.
<mgrwt>
<rscale>  2 0.20793752E+02</rscale>
<asrwt>0</asrwt>
<pdfrwt beam="2">  1       21 0.11147654E-03 0.20793752E+02</pdfrwt>
<pdfrwt beam="1">  1        2 0.15323808E+00 0.20793752E+02</pdfrwt>
<totfact> 0.24409574E+07</totfact>
</mgrwt>
</event>
<event>
 4    1  0.2185255E+006  0.3071760E+02  0.7546771E-02  0.1590289E+00
          3   -1    0    0  502    0 -0.00000000000E+00  0.00000000000E+00  0.99688290768E+03  0.99688290768E+03  0.00000000000E+00 0. -1.
         21   -1    0    0  503  502  0.00000000000E+00 -0.00000000000E+00 -0.23807478692E+01  0.23807478692E+01  0.00000000000E+00 0.  1.
         21    1    1    2  503  501  0.99021968330E+01 -0.29077784515E+02  0.10945603702E+03  0.11368462999E+03  0.00000000000E+00 0.  1.
          3    1    1    2  501    0 -0.99021968330E+01  0.29077784515E+02  0.88504612279E+03  0.88557902557E+03  0.00000000000E+00 0. -1.
<mgrwt>
<rscale>  2 0.30717602E+02</rscale>
<asrwt>0</asrwt>
<pdfrwt beam="2">  1       21 0.36626970E-03 0.30717602E+02</pdfrwt>
<pdfrwt beam="1">  1        3 0.15336627E+00 0.30717602E+02</pdfrwt>
<totfact> 0.21011426E+05</totfact>
</mgrwt>
</event>
<event>
 4    1  0.2185255E+006  0.2126777E+02  0.7546771E-02  0.1721232E+00
          2   -1    0    0  503    0 -0.00000000000E+00  0.00000000000E+00  0.49900382995E+03  0.49900382995E+03  0.00000000000E+00 0.  1.
         21   -1    0    0  501  502  0.00000000000E+00 -0.00000000000E+00 -0.11340973257E+01  0.11340973257E+01  0.00000000000E+00 0.  1.
         21    1    1    2  503  502  0.15968198959E+02 -0.14047587747E+02  0.13689478774E+03  0.13853700231E+03  0.00000000000E+00 0.  1.
          2    1    1    2  501    0 -0.15968198959E+02  0.14047587747E+02  0.36097494489E+03  0.36160092496E+03  0.00000000000E+00 0.  1.
<mgrwt>
<rscale>  2 0.21267771E+02</rscale>
<asrwt>0</asrwt>
<pdfrwt beam="2">  1       21 0.17447691E-03 0.21267771E+02</pdfrwt>
<pdfrwt beam="1">  1        2 0.76769645E-01 0.21267771E+02</pdfrwt>
<totfact> 0.27598952E+07</totfact>
</mgrwt>
</event>
<event>
 4    1  0.2185255E+006  0.3553871E+02  0.7546771E-02  0.1543868E+00
          2   -1    0    0  503    0 -0.00000000000E+00  0.00000000000E+00  0.10158445391E+04  0.10158445391E+04  0.00000000000E+00 0. -1.
         21   -1    0    0  501  502  0.00000000000E+00 -0.00000000000E+00 -0.31364958257E+01  0.31364958257E+01  0.00000000000E+00 0. -1.
         21    1    1    2  503  502  0.35537392639E+02  0.30591463771E+00  0.11052149476E+03  0.11609479172E+03  0.00000000000E+00 0. -1.
          2    1    1    2  501    0 -0.35537392639E+02 -0.30591463771E+00  0.90218654853E+03  0.90288624323E+03  0.00000000000E+00 0. -1.
<mgrwt>
<rscale>  2 0.35538709E+02</rscale>
<asrwt>0</asrwt>
<pdfrwt beam="2">  1       21 0.48253863E-03 0.35538709E+02</pdfrwt>
<pdfrwt beam="1">  1        2 0.15628351E+00 0.35538709E+02</pdfrwt>
<totfact> 0.31749884E+06</totfact>
</mgrwt>
</event>
<event>
 4    1  0.2185255E+006  0.2028222E+02  0.7546771E-02  0.1739773E+00
         21   -1    0    0  501  502  0.00000000000E+00  0.00000000000E+00  0.19604751322E+02  0.19604751322E+02  0.00000000000E+00 0.  1.
         -1   -1    0    0    0  501 -0.00000000000E+00 -0.00000000000E+00 -0.47512890298E+02  0.47512890298E+02  0.00000000000E+00 0.  1.
         21    1    1    2  503  502  0.16113617092E+02  0.12317456797E+02  0.11122487096E+02  0.23131755596E+02  0.00000000000E+00 0.  1.
         -1    1    1    2    0  503 -0.16113617092E+02 -0.12317456797E+02 -0.39030626072E+02  0.43985886024E+02  0.00000000000E+00 0.  1.
<mgrwt>
<rscale>  2 0.20282219E+02</rscale>
<asrwt>0</asrwt>
<pdfrwt beam="1">  1       21 0.30161156E-02 0.20282219E+02</pdfrwt>
<pdfrwt beam="2">  1       -1 0.73096753E-02 0.20282219E+02</pdfrwt>
<totfact> 0.35174415E+06</totfact>
</mgrwt>
</event>
<event>
 4    1  0.2185255E+006  0.2359019E+02  0.7546771E-02  0.1682118E+00
         21   -1    0    0  501  502  0.00000000000E+00  0.00000000000E+00  0.27953776533E+01  0.27953776533E+01  0.00000000000E+00 0.  1.
          2   -1    0    0  503    0 -0.00000000000E+00 -0.00000000000E+00 -0.26299530872E+03  0.26299530872E+03  0.00000000000E+00 0.  1.
         21    1    1    2  503  502  0.15606829306E+02  0.17689654724E+02 -0.64584105674E+02  0.68757572026E+02  0.00000000000E+00 0.  1.
          2    1    1    2  501    0 -0.15606829306E+02 -0.17689654724E+02 -0.19561582539E+03  0.19703311434E+03  0.00000000000E+00 0.  1.
<mgrwt>
<rscale>  2 0.23590189E+02</rscale>
<asrwt>0</asrwt>
<pdfrwt beam="1">  1       21 0.43005807E-03 0.23590189E+02</pdfrwt>
<pdfrwt beam="2">  1        2 0.40460820E-01 0.23590189E+02</pdfrwt>
<totfact> 0.14460254E+07</totfact>
</mgrwt>
</event>
<event>
 4    1  0.2185255E+006  0.2051548E+02  0.7546771E-02  0.1735267E+00
          1   -1    0    0  502    0 -0.00000000000E+00  0.00000000000E+00  0.10151145943E+03  0.10151145943E+03  0.00000000000E+00 0.  1.
         21   -1    0    0  503  502  0.00000000000E+00 -0.00000000000E+00 -0.17995329620E+02  0.17995329620E+02  0.00000000000E+00 0. -1.
         21    1    1    2  503  501  0.13696099082E+02  0.15274222424E+02 -0.10661595014E+02  0.23120437041E+02  0.00000000000E+00 0. -1.
          1    1    1    2  501    0 -0.13696099082E+02 -0.15274222424E+02  0.94177724825E+02  0.96386352010E+02  0.00000000000E+00 0.  1.
<mgrwt>
<rscale>  2 0.20515482E+02</rscale>
<asrwt>0</asrwt>
<pdfrwt beam="2">  1       21 0.27685123E-02 0.20515482E+02</pdfrwt>
<pdfrwt beam="1">  1        1 0.15617147E-01 0.20515482E+02</pdfrwt>
<totfact> 0.18929519E+06</totfact>
</mgrwt>
</event>
<event>
 4    1  0.2185255E+006  0.3726472E+02  0.7546771E-02  0.1529362E+00
         21   -1    0    0  501  502  0.00000000000E+00  0.00000000000E+00  0.30708604891E+01  0.30708604891E+01  0.00000000000E+00 0. -1.
          2   -1    0    0  503    0 -0.00000000000E+00 -0.00000000000E+00 -0.98649903423E+03  0.98649903423E+03  0.00000000000E+00 0.  1.
         21    1    1    2  503  502  0.32877096370E+02 -0.17542973814E+02 -0.12758264050E+03  0.13291346641E+03  0.00000000000E+00 0. -1.
          2    1    1    2  501    0 -0.32877096370E+02  0.17542973814E+02 -0.85584553325E+03  0.85665642832E+03  0.00000000000E+00 0.  1.
<mgrwt>
<rscale>  2 0.37264721E+02</rscale>
<asrwt>0</asrwt>
<pdfrwt beam="1">  1       21 0.47244056E-03 0.37264721E+02</pdfrwt>
<pdfrwt beam="2">  1        2 0.15176893E+00 0.37264721E+02</pdfrwt>
<totfact> 0.34291195E+06</totfact>
</mgrwt>
</event>
<event>
 4    1  0.2185255E+006  0.2067670E+02  0.7546771E-02  0.1732196E+00
          2   -1    0    0  503    0 -0.00000000000E+00  0.00000000000E+00  0.50025265960E+03  0.50025265960E+03  0.00000000000E+00 0.  1.
         21   -1    0    0  501  502  0.00000000000E+00 -0.00000000000E+00 -0.14020211206E+01  0.14020211206E+01  0.00000000000E+00 0.  1.
         21    1    1    2  503  502  0.16271750868E+02  0.12757588186E+02  0.92695933155E+02  0.94974006740E+02  0.00000000000E+00 0.  1.
          2    1    1    2  501    0 -0.16271750868E+02 -0.12757588186E+02  0.40615470532E+03  0.40668067398E+03  0.00000000000E+00 0.  1.
<mgrwt>
<rscale>  2 0.20676700E+02</rscale>
<asrwt>0</asrwt>
<pdfrwt beam="2">  1       21 0.21569596E-03 0.20676700E+02</pdfrwt>
<pdfrwt beam="1">  1        2 0.76961805E-01 0.20676700E+02</pdfrwt>
<totfact> 0.20116594E+07</totfact>
</mgrwt>
</event>
<event>
 4    1  0.2185255E+006  0.2865211E+02  0.7546771E-02  0.1613484E+00
          2   -1    0    0  503    0 -0.00000000000E+00  0.00000000000E+00  0.78217068288E+03  0.78217068288E+03  0.00000000000E+00 0. -1.
         21   -1    0    0  501  502  0.00000000000E+00 -0.00000000000E+00 -0.11748916079E+02  0.11748916079E+02  0.00000000000E+00 0. -1.
         21    1    1    2  503  502 -0.17990244254E-02 -0.28652113008E+02  0.63967044335E+01  0.29357476231E+02  0.00000000000E+00 0. -1.
          2    1    1    2  501    0  0.17990244254E-02  0.28652113008E+02  0.76402506237E+03  0.76456212273E+03  0.00000000000E+00 0. -1.
<mgrwt>
<rscale>  2 0.28652113E+02</rscale>
<asrwt>0</asrwt>
<pdfrwt beam="2">  1       21 0.18075262E-02 0.28652113E+02</pdfrwt>
<pdfrwt beam="1">  1        2 0.12033391E+00 0.28652113E+02</pdfrwt>
<totfact> 0.56924807E+05</totfact>
</mgrwt>
</event>
<event>
 4    1  0.2185255E+006  0.2608458E+02  0.7546771E-02  0.1645895E+00
          1   -1    0    0  503    0 -0.00000000000E+00  0.00000000000E+00  0.83966728008E+02  0.83966728008E+02  0.00000000000E+00 0.  1.
         21   -1    0    0  501  502  0.00000000000E+00 -0.00000000000E+00 -0.17993870425E+02  0.17993870425E+02  0.00000000000E+00 0. -1.
         21    1    1    2  503  502 -0.19570101375E+02 -0.17245770830E+02 -0.48100469403E+01  0.26524366739E+02  0.00000000000E+00 0. -1.
          1    1    1    2  501    0  0.19570101375E+02  0.17245770830E+02  0.70782904524E+02  0.75436231694E+02  0.00000000000E+00 0.  1.
<mgrwt>
<rscale>  2 0.26084583E+02</rscale>
<asrwt>0</asrwt>
<pdfrwt beam="2">  1       21 0.27682878E-02 0.26084583E+02</pdfrwt>
<pdfrwt beam="1">  1        1 0.12917958E-01 0.26084583E+02</pdfrwt>
<totfact> 0.25280135E+06</totfact>
</mgrwt>
</event>
<event>
 4    1  0.2185255E+006  0.2505475E+02  0.7546771E-02  0.1660217E+00
          4   -1    0    0  502    0 -0.00000000000E+00  0.00000000000E+00  0.11648903063E+03  0.11648903063E+03  0.00000000000E+00 0. -1.
         21   -1    0    0  503  502  0.00000000000E+00 -0.00000000000E+00 -0.58119963499E+01  0.58119963499E+01  0.00000000000E+00 0. -1.
         21    1    1    2  503  501  0.10353147487E+02  0.22815631699E+02  0.38838362002E+02  0.46218600971E+02  0.00000000000E+00 0. -1.
          4    1    1    2  501    0 -0.10353147487E+02 -0.22815631699E+02  0.71838672283E+02  0.76082426013E+02  0.00000000000E+00 0. -1.
<mgrwt>
<rscale>  2 0.25054754E+02</rscale>
<asrwt>0</asrwt>
<pdfrwt beam="2">  1       21 0.89415337E-03 0.25054754E+02</pdfrwt>
<pdfrwt beam="1">  1        4 0.17921388E-01 0.25054754E+02</pdfrwt>
<totfact> 0.28105331E+06</totfact>
</mgrwt>
</event>
<event>
 4    1  0.2185255E+006  0.2454226E+02  0.7546771E-02  0.1667665E+00
         21   -1    0    0  503  502  0.00000000000E+00  0.00000000000E+00  0.96275058382E+01  0.96275058382E+01  0.00000000000E+00 0. -1.
         -1   -1    0    0    0  501 -0.00000000000E+00 -0.00000000000E+00 -0.15304602956E+03  0.15304602956E+03  0.00000000000E+00 0.  1.
         21    1    1    2  503  501  0.21898769153E+02 -0.11079996344E+02 -0.91689201424E+01  0.26199074525E+02  0.00000000000E+00 0. -1.
         -1    1    1    2    0  502 -0.21898769153E+02  0.11079996344E+02 -0.13424960358E+03  0.13647446088E+03  0.00000000000E+00 0.  1.
<mgrwt>
<rscale>  2 0.24542258E+02</rscale>
<asrwt>0</asrwt>
<pdfrwt beam="1">  1       21 0.14811548E-02 0.24542258E+02</pdfrwt>
<pdfrwt beam="2">  1       -1 0.23545543E-01 0.24542258E+02</pdfrwt>
<totfact> 0.19777100E+06</totfact>
</mgrwt>
</event>
<event>
 4    1  0.2185255E+006  0.2283102E+02  0.7546771E-02  0.1694264E+00
         21   -1    0    0  501  502  0.00000000000E+00  0.00000000000E+00  0.38784184761E+03  0.38784184761E+03  0.00000000000E+00 0.  1.
          3   -1    0    0  503    0 -0.00000000000E+00 -0.00000000000E+00 -0.15348519346E+01  0.15348519346E+01  0.00000000000E+00 0.  1.
         21    1    1    2  503  502  0.15790206921E+02 -0.16490139760E+02  0.26180768499E+03  0.26280129235E+03  0.00000000000E+00 0.  1.
          3    1    1    2  501    0 -0.15790206921E+02  0.16490139760E+02  0.12449931069E+03  0.12657540719E+03  0.00000000000E+00 0.  1.
<mgrwt>
<rscale>  2 0.22831017E+02</rscale>
<asrwt>0</asrwt>
<pdfrwt beam="1">  1       21 0.59667898E-01 0.22831017E+02</pdfrwt>
<pdfrwt beam="2">  1        3 0.23613138E-03 0.22831017E+02</pdfrwt>
<totfact> 0.18683989E+06</totfact>
</mgrwt>
</event>
<event>
 4    1  0.2185255E+006  0.3389271E+02  0.7546771E-02  0.1558659E+00
         21   -1    0    0  503  502  0.00000000000E+00  0.00000000000E+00  0.15783277225E+02  0.15783277225E+02  0.00000000000E+00 0. -1.
          2   -1    0    0  502    0 -0.00000000000E+00 -0.00000000000E+00 -0.23418659029E+04  0.23418659029E+04  0.00000000000E+00 0.  1.
         21    1    1    2  503  501  0.33660016520E+02 -0.39647219270E+01 -0.26790660869E+01  0.33998428305E+02  0.00000000000E+00 0. -1.
          2    1    1    2  501    0 -0.33660016520E+02  0.39647219270E+01 -0.23234035596E+04  0.23236507518E+04  0.00000000000E+00 0.  1.
<mgrwt>
<rscale>  2 0.33892709E+02</rscale>
<asrwt>0</asrwt>
<pdfrwt beam="1">  1       21 0.24281966E-02 0.33892709E+02</pdfrwt>
<pdfrwt beam="2">  1        2 0.36028704E+00 0.33892709E+02</pdfrwt>
<totfact> 0.59799162E+04</totfact>
</mgrwt>
</event>
<event>
 4    1  0.2185255E+006  0.2019173E+02  0.7546771E-02  0.1741542E+00
         21   -1    0    0  503  502  0.00000000000E+00  0.00000000000E+00  0.44989834838E+02  0.44989834838E+02  0.00000000000E+00 0.  1.
         -1   -1    0    0    0  501 -0.00000000000E+00 -0.00000000000E+00 -0.11495721559E+02  0.11495721559E+02  0.00000000000E+00 0.  1.
         21    1    1    2  503  501  0.20193470041E+00 -0.20190721058E+02  0.29741529165E+02  0.35948081333E+02  0.00000000000E+00 0.  1.
         -1    1    1    2    0  502 -0.20193470041E+00  0.20190721058E+02  0.37525841148E+01  0.20537475064E+02  0.00000000000E+00 0.  1.
<mgrwt>
<rscale>  2 0.20191731E+02</rscale>
<asrwt>0</asrwt>
<pdfrwt beam="1">  1       21 0.69215130E-02 0.20191731E+02</pdfrwt>
<pdfrwt beam="2">  1       -1 0.17685726E-02 0.20191731E+02</pdfrwt>
<totfact> 0.66849155E+06</totfact>
</mgrwt>
</event>
<event>
 4    1  0.2185255E+006  0.2148594E+02  0.7546771E-02  0.1717297E+00
         -2   -1    0    0    0  501 -0.00000000000E+00  0.00000000000E+00  0.85400591013E+02  0.85400591013E+02  0.00000000000E+00 0. -1.
         21   -1    0    0  503  502  0.00000000000E+00 -0.00000000000E+00 -0.19307858272E+02  0.19307858272E+02  0.00000000000E+00 0.  1.
         21    1    1    2  503  501  0.18880569314E+02 -0.10255226903E+02 -0.11378548037E+02  0.24312896411E+02  0.00000000000E+00 0.  1.
         -2    1    1    2    0  502 -0.18880569314E+02  0.10255226903E+02  0.77471280779E+02  0.80395552874E+02  0.00000000000E+00 0. -1.
<mgrwt>
<rscale>  2 0.21485939E+02</rscale>
<asrwt>0</asrwt>
<pdfrwt beam="2">  1       21 0.29704398E-02 0.21485939E+02</pdfrwt>
<pdfrwt beam="1">  1       -2 0.13138552E-01 0.21485939E+02</pdfrwt>
<totfact> 0.14802528E+06</totfact>
</mgrwt>
</event>
<event>
 4    1  0.2185255E+006  0.2783985E+02  0.7546771E-02  0.1623272E+00
         -4   -1    0    0    0  501 -0.00000000000E+00  0.00000000000E+00  0.13782822144E+03  0.13782822144E+03  0.00000000000E+00 0.  1.
         21   -1    0    0  503  502  0.00000000000E+00 -0.00000000000E+00 -0.19863446262E+02  0.19863446262E+02  0.00000000000E+00 0. -1.
         21    1    1    2  503  501  0.15583555861E+02  0.23069674050E+02 -0.77763062202E+01  0.28905501422E+02  0.00000000000E+00 0. -1.
         -4    1    1    2    0  502 -0.15583555861E+02 -0.23069674050E+02  0.12574108140E+03  0.12878616628E+03  0.00000000000E+00 0.  1.
<mgrwt>
<rscale>  2 0.27839847E+02</rscale>
<asrwt>0</asrwt>
<pdfrwt beam="2">  1       21 0.30559149E-02 0.27839847E+02</pdfrwt>
<pdfrwt beam="1">  1       -4 0.21204341E-01 0.27839847E+02</pdfrwt>
<totfact> 0.33324019E+05</totfact>
</mgrwt>
</event>
<event>
 4    1  0.2185255E+006  0.2367519E+02  0.7546771E-02  0.1680794E+00
          2   -1    0    0  503    0 -0.00000000000E+00  0.00000000000E+00  0.17013364265E+04  0.17013364265E+04  0.00000000000E+00 0.  1.
         21   -1    0    0  501  502  0.00000000000E+00 -0.00000000000E+00 -0.99513563024E+00  0.99513563024E+00  0.00000000000E+00 0. -1.
         21    1    1    2  503  502 -0.52211647927E+01 -0.23092298430E+02  0.15401590824E+03  0.15582494922E+03  0.00000000000E+00 0. -1.
          2    1    1    2  501    0  0.52211647927E+01  0.23092298430E+02  0.15463253826E+04  0.15465066129E+04  0.00000000000E+00 0.  1.
<mgrwt>
<rscale>  2 0.23675194E+02</rscale>
<asrwt>0</asrwt>
<pdfrwt beam="2">  1       21 0.15309915E-03 0.23675194E+02</pdfrwt>
<pdfrwt beam="1">  1        2 0.26174174E+00 0.23675194E+02</pdfrwt>
<totfact> 0.72424954E+06</totfact>
</mgrwt>
</event>
