<event>
 4    1  0.4199481E+000  0.1806001E+03  0.7546771E-02  0.1167223E+00
         21   -1    0    0  501  502  0.00000000000E+00  0.00000000000E+00  0.12197913868E+03  0.12197913868E+03  0.00000000000E+00 0. -1.
         21   -1    0    0  502  503 -0.00000000000E+00 -0.00000000000E+00 -0.33027711338E+03  0.33027711338E+03  0.00000000000E+00 0.  1.
          6    1    1    2  501    0 -0.44073959443E+02  0.27292797131E+02 -0.20281886770E+03  0.27157301739E+03  0.17300000000E+03 0.  1.
         -6    1    1    2    0  503  0.44073959443E+02 -0.27292797131E+02 -0.54791069943E+01  0.18068323467E+03  0.17300000000E+03 0. -1.
<mgrwt>
<rscale>  2 0.18060014E+03</rscale>
<asrwt>0</asrwt>
<pdfrwt beam="1">  1       21 0.18766021E-01 0.18060014E+03</pdfrwt>
<pdfrwt beam="2">  1       21 0.50811863E-01 0.18060014E+03</pdfrwt>
<totfact> 0.96201763E+04</totfact>
</mgrwt>
</event>
<event>
 4    1  0.4199481E+000  0.1814282E+03  0.7546771E-02  0.1166428E+00
         21   -1    0    0  501  502  0.00000000000E+00  0.00000000000E+00  0.36247731359E+03  0.36247731359E+03  0.00000000000E+00 0.  1.
         21   -1    0    0  502  503 -0.00000000000E+00 -0.00000000000E+00 -0.94335341511E+02  0.94335341511E+02  0.00000000000E+00 0.  1.
          6    1    1    2  501    0 -0.84485483524E+01 -0.53998161319E+02  0.17823179350E+03  0.25432803937E+03  0.17300000000E+03 0. -1.
         -6    1    1    2    0  503  0.84485483524E+01  0.53998161319E+02  0.89910178575E+02  0.20248461573E+03  0.17300000000E+03 0. -1.
<mgrwt>
<rscale>  2 0.18142817E+03</rscale>
<asrwt>0</asrwt>
<pdfrwt beam="1">  1       21 0.55765740E-01 0.18142817E+03</pdfrwt>
<pdfrwt beam="2">  1       21 0.14513130E-01 0.18142817E+03</pdfrwt>
<totfact> 0.12667315E+05</totfact>
</mgrwt>
</event>
<event>
 4    1  0.4199481E+000  0.3083457E+03  0.7546771E-02  0.1081142E+00
         21   -1    0    0  503  502  0.00000000000E+00  0.00000000000E+00  0.47680727165E+03  0.47680727165E+03  0.00000000000E+00 0.  1.
         21   -1    0    0  501  503 -0.00000000000E+00 -0.00000000000E+00 -0.28853532179E+03  0.28853532179E+03  0.00000000000E+00 0. -1.
          6    1    1    2  501    0 -0.69466380320E+02 -0.24560637077E+03 -0.11855185528E+03  0.33035073747E+03  0.17300000000E+03 0. -1.
         -6    1    1    2    0  502  0.69466380320E+02  0.24560637077E+03  0.30682380515E+03  0.43499185597E+03  0.17300000000E+03 0.  1.
<mgrwt>
<rscale>  2 0.30834569E+03</rscale>
<asrwt>0</asrwt>
<pdfrwt beam="1">  1       21 0.73354965E-01 0.30834569E+03</pdfrwt>
<pdfrwt beam="2">  1       21 0.44390049E-01 0.30834569E+03</pdfrwt>
<totfact> 0.76102354E+03</totfact>
</mgrwt>
</event>
<event>
 4    1  0.4199481E+000  0.2242228E+03  0.7546771E-02  0.1130773E+00
         21   -1    0    0  501  502  0.00000000000E+00  0.00000000000E+00  0.78762122430E+03  0.78762122430E+03  0.00000000000E+00 0. -1.
         21   -1    0    0  502  503 -0.00000000000E+00 -0.00000000000E+00 -0.70574813260E+02  0.70574813260E+02  0.00000000000E+00 0. -1.
          6    1    1    2  501    0 -0.59332528538E+00  0.14264127054E+03  0.49115082221E+03  0.53991204307E+03  0.17300000000E+03 0. -1.
         -6    1    1    2    0  503  0.59332528538E+00 -0.14264127054E+03  0.22589558883E+03  0.31828399449E+03  0.17300000000E+03 0. -1.
<mgrwt>
<rscale>  2 0.22422284E+03</rscale>
<asrwt>0</asrwt>
<pdfrwt beam="1">  1       21 0.12117249E+00 0.22422284E+03</pdfrwt>
<pdfrwt beam="2">  1       21 0.10857664E-01 0.22422284E+03</pdfrwt>
<totfact> 0.35533259E+04</totfact>
</mgrwt>
</event>
<event>
 4    1  0.4199481E+000  0.1762475E+03  0.7546771E-02  0.1171485E+00
         21   -1    0    0  503  502  0.00000000000E+00  0.00000000000E+00  0.36292064156E+03  0.36292064156E+03  0.00000000000E+00 0.  1.
         21   -1    0    0  501  503 -0.00000000000E+00 -0.00000000000E+00 -0.14570780330E+03  0.14570780330E+03  0.00000000000E+00 0.  1.
          6    1    1    2  501    0  0.19397205427E+02  0.27530284681E+02 -0.54745005951E+02  0.18455401331E+03  0.17300000000E+03 0.  1.
         -6    1    1    2    0  502 -0.19397205427E+02 -0.27530284681E+02  0.27195784421E+03  0.32407443154E+03  0.17300000000E+03 0.  1.
<mgrwt>
<rscale>  2 0.17624746E+03</rscale>
<asrwt>0</asrwt>
<pdfrwt beam="1">  1       21 0.55833945E-01 0.17624746E+03</pdfrwt>
<pdfrwt beam="2">  1       21 0.22416585E-01 0.17624746E+03</pdfrwt>
<totfact> 0.56719131E+04</totfact>
</mgrwt>
</event>
<event>
 4    1  0.4199481E+000  0.1851895E+03  0.7546771E-02  0.1162873E+00
         21   -1    0    0  501  502  0.00000000000E+00  0.00000000000E+00  0.26773073355E+03  0.26773073355E+03  0.00000000000E+00 0.  1.
         21   -1    0    0  502  503 -0.00000000000E+00 -0.00000000000E+00 -0.32874796787E+03  0.32874796787E+03  0.00000000000E+00 0.  1.
          6    1    1    2  501    0 -0.66065758938E+02  0.12053661364E+01  0.20249116612E+03  0.27440446383E+03  0.17300000000E+03 0.  1.
         -6    1    1    2    0  503  0.66065758938E+02 -0.12053661364E+01 -0.26350840045E+03  0.32207423759E+03  0.17300000000E+03 0.  1.
<mgrwt>
<rscale>  2 0.18518946E+03</rscale>
<asrwt>0</asrwt>
<pdfrwt beam="1">  1       21 0.41189344E-01 0.18518946E+03</pdfrwt>
<pdfrwt beam="2">  1       21 0.50576610E-01 0.18518946E+03</pdfrwt>
<totfact> 0.21210929E+04</totfact>
</mgrwt>
</event>
<event>
 4    1  0.4199481E+000  0.1795849E+03  0.7546771E-02  0.1168205E+00
         21   -1    0    0  503  502  0.00000000000E+00  0.00000000000E+00  0.15103315811E+04  0.15103315811E+04  0.00000000000E+00 0. -1.
         21   -1    0    0  501  503 -0.00000000000E+00 -0.00000000000E+00 -0.31651060969E+02  0.31651060969E+02  0.00000000000E+00 0. -1.
          6    1    1    2  501    0  0.47503586338E+02  0.80706348920E+01  0.29957138619E+03  0.34927602449E+03  0.17300000000E+03 0. -1.
         -6    1    1    2    0  502 -0.47503586338E+02 -0.80706348920E+01  0.11791091340E+04  0.11927066176E+04  0.17300000000E+03 0. -1.
<mgrwt>
<rscale>  2 0.17958487E+03</rscale>
<asrwt>0</asrwt>
<pdfrwt beam="1">  1       21 0.23235865E+00 0.17958487E+03</pdfrwt>
<pdfrwt beam="2">  1       21 0.48693952E-02 0.17958487E+03</pdfrwt>
<totfact> 0.24070129E+04</totfact>
</mgrwt>
</event>
<event>
 4    1  0.4199481E+000  0.1814473E+03  0.7546771E-02  0.1166410E+00
         21   -1    0    0  501  502  0.00000000000E+00  0.00000000000E+00  0.37997196623E+03  0.37997196623E+03  0.00000000000E+00 0. -1.
         21   -1    0    0  502  503 -0.00000000000E+00 -0.00000000000E+00 -0.43304090465E+03  0.43304090465E+03  0.00000000000E+00 0. -1.
          6    1    1    2  501    0 -0.24759586312E+02 -0.48796223122E+02  0.33703601392E+03  0.38277458534E+03  0.17300000000E+03 0. -1.
         -6    1    1    2    0  503  0.24759586312E+02  0.48796223122E+02 -0.39010495234E+03  0.43023828554E+03  0.17300000000E+03 0. -1.
<mgrwt>
<rscale>  2 0.18144726E+03</rscale>
<asrwt>0</asrwt>
<pdfrwt beam="1">  1       21 0.58457226E-01 0.18144726E+03</pdfrwt>
<pdfrwt beam="2">  1       21 0.66621678E-01 0.18144726E+03</pdfrwt>
<totfact> 0.57083144E+03</totfact>
</mgrwt>
</event>
<event>
 4    1  0.4199481E+000  0.1904129E+03  0.7546771E-02  0.1158089E+00
         21   -1    0    0  501  502  0.00000000000E+00  0.00000000000E+00  0.14146376273E+03  0.14146376273E+03  0.00000000000E+00 0.  1.
         21   -1    0    0  502  503 -0.00000000000E+00 -0.00000000000E+00 -0.51595111949E+03  0.51595111949E+03  0.00000000000E+00 0.  1.
          6    1    1    2  501    0  0.70863947803E+02  0.36143773201E+02  0.45941473604E+02  0.19587672255E+03  0.17300000000E+03 0.  1.
         -6    1    1    2    0  503 -0.70863947803E+02 -0.36143773201E+02 -0.42042883036E+03  0.46153815967E+03  0.17300000000E+03 0.  1.
<mgrwt>
<rscale>  2 0.19041290E+03</rscale>
<asrwt>0</asrwt>
<pdfrwt beam="1">  1       21 0.21763656E-01 0.19041290E+03</pdfrwt>
<pdfrwt beam="2">  1       21 0.79377096E-01 0.19041290E+03</pdfrwt>
<totfact> 0.27612194E+04</totfact>
</mgrwt>
</event>
<event>
 4    1  0.4199481E+000  0.2080776E+03  0.7546771E-02  0.1143097E+00
         21   -1    0    0  503  502  0.00000000000E+00  0.00000000000E+00  0.74328891907E+02  0.74328891907E+02  0.00000000000E+00 0. -1.
         21   -1    0    0  501  503 -0.00000000000E+00 -0.00000000000E+00 -0.10331729586E+04  0.10331729586E+04  0.00000000000E+00 0. -1.
          6    1    1    2  501    0  0.11060434629E+03 -0.33674363594E+02 -0.84515205705E+03  0.87038973094E+03  0.17300000000E+03 0. -1.
         -6    1    1    2    0  502 -0.11060434629E+03  0.33674363594E+02 -0.11369200961E+03  0.23711211954E+03  0.17300000000E+03 0. -1.
<mgrwt>
<rscale>  2 0.20807759E+03</rscale>
<asrwt>0</asrwt>
<pdfrwt beam="1">  1       21 0.11435215E-01 0.20807759E+03</pdfrwt>
<pdfrwt beam="2">  1       21 0.15894968E+00 0.20807759E+03</pdfrwt>
<totfact> 0.16209012E+04</totfact>
</mgrwt>
</event>
<event>
 4    1  0.4199481E+000  0.2565138E+03  0.7546771E-02  0.1109256E+00
         21   -1    0    0  501  502  0.00000000000E+00  0.00000000000E+00  0.21120686757E+03  0.21120686757E+03  0.00000000000E+00 0. -1.
         21   -1    0    0  502  503 -0.00000000000E+00 -0.00000000000E+00 -0.62223960929E+03  0.62223960929E+03  0.00000000000E+00 0.  1.
          6    1    1    2  501    0 -0.13020259135E+03 -0.13754126350E+03  0.88952566994E+02  0.27149930596E+03  0.17300000000E+03 0. -1.
         -6    1    1    2    0  503  0.13020259135E+03  0.13754126350E+03 -0.49998530871E+03  0.56194717090E+03  0.17300000000E+03 0.  1.
<mgrwt>
<rscale>  2 0.25651377E+03</rscale>
<asrwt>0</asrwt>
<pdfrwt beam="1">  1       21 0.32493365E-01 0.25651377E+03</pdfrwt>
<pdfrwt beam="2">  1       21 0.95729169E-01 0.25651377E+03</pdfrwt>
<totfact> 0.79552788E+03</totfact>
</mgrwt>
</event>
<event>
 4    1  0.4199481E+000  0.1823180E+03  0.7546771E-02  0.1165578E+00
         21   -1    0    0  501  502  0.00000000000E+00  0.00000000000E+00  0.12195725099E+03  0.12195725099E+03  0.00000000000E+00 0. -1.
         21   -1    0    0  502  503 -0.00000000000E+00 -0.00000000000E+00 -0.27312522215E+03  0.27312522215E+03  0.00000000000E+00 0. -1.
          6    1    1    2  501    0 -0.14480876190E+02 -0.55688000831E+02 -0.66544336620E+02  0.19408245142E+03  0.17300000000E+03 0. -1.
         -6    1    1    2    0  503  0.14480876190E+02  0.55688000831E+02 -0.84623634541E+02  0.20100002173E+03  0.17300000000E+03 0. -1.
<mgrwt>
<rscale>  2 0.18231799E+03</rscale>
<asrwt>0</asrwt>
<pdfrwt beam="1">  1       21 0.18762654E-01 0.18231799E+03</pdfrwt>
<pdfrwt beam="2">  1       21 0.42019265E-01 0.18231799E+03</pdfrwt>
<totfact> 0.14220411E+05</totfact>
</mgrwt>
</event>
<event>
 4    1  0.4199481E+000  0.2239145E+03  0.7546771E-02  0.1130998E+00
         21   -1    0    0  501  502  0.00000000000E+00  0.00000000000E+00  0.30152474875E+03  0.30152474875E+03  0.00000000000E+00 0. -1.
         21   -1    0    0  502  503 -0.00000000000E+00 -0.00000000000E+00 -0.17922497642E+03  0.17922497642E+03  0.00000000000E+00 0.  1.
          6    1    1    2  501    0 -0.82621657385E+02  0.11568218178E+03  0.12574965209E+03  0.25680864559E+03  0.17300000000E+03 0.  1.
         -6    1    1    2    0  503  0.82621657385E+02 -0.11568218178E+03 -0.34498797681E+01  0.22394107958E+03  0.17300000000E+03 0. -1.
<mgrwt>
<rscale>  2 0.22391450E+03</rscale>
<asrwt>0</asrwt>
<pdfrwt beam="1">  1       21 0.46388423E-01 0.22391450E+03</pdfrwt>
<pdfrwt beam="2">  1       21 0.27573073E-01 0.22391450E+03</pdfrwt>
<totfact> 0.55072186E+04</totfact>
</mgrwt>
</event>
<event>
 4    1  0.4199481E+000  0.2318723E+03  0.7546771E-02  0.1125329E+00
         21   -1    0    0  501  502  0.00000000000E+00  0.00000000000E+00  0.77595694560E+03  0.77595694560E+03  0.00000000000E+00 0.  1.
         21   -1    0    0  502  503 -0.00000000000E+00 -0.00000000000E+00 -0.12170761361E+03  0.12170761361E+03  0.00000000000E+00 0. -1.
          6    1    1    2  501    0 -0.13722765019E+03 -0.70741284572E+02  0.62168263031E+03  0.66351642794E+03  0.17300000000E+03 0.  1.
         -6    1    1    2    0  503  0.13722765019E+03  0.70741284572E+02  0.32566701680E+02  0.23414813127E+03  0.17300000000E+03 0. -1.
<mgrwt>
<rscale>  2 0.23187229E+03</rscale>
<asrwt>0</asrwt>
<pdfrwt beam="1">  1       21 0.11937799E+00 0.23187229E+03</pdfrwt>
<pdfrwt beam="2">  1       21 0.18724249E-01 0.23187229E+03</pdfrwt>
<totfact> 0.13611590E+04</totfact>
</mgrwt>
</event>
<event>
 4    1  0.4199481E+000  0.2285938E+03  0.7546771E-02  0.1127633E+00
         21   -1    0    0  503  502  0.00000000000E+00  0.00000000000E+00  0.47653071455E+03  0.47653071455E+03  0.00000000000E+00 0. -1.
         21   -1    0    0  501  503 -0.00000000000E+00 -0.00000000000E+00 -0.17106103535E+03  0.17106103535E+03  0.00000000000E+00 0. -1.
          6    1    1    2  501    0  0.40731250422E+02 -0.14376045957E+03 -0.41261222567E+02  0.23228773748E+03  0.17300000000E+03 0. -1.
         -6    1    1    2    0  502 -0.40731250422E+02  0.14376045957E+03  0.34673090176E+03  0.41530401242E+03  0.17300000000E+03 0. -1.
<mgrwt>
<rscale>  2 0.22859375E+03</rscale>
<asrwt>0</asrwt>
<pdfrwt beam="1">  1       21 0.73312417E-01 0.22859375E+03</pdfrwt>
<pdfrwt beam="2">  1       21 0.26317083E-01 0.22859375E+03</pdfrwt>
<totfact> 0.22502682E+04</totfact>
</mgrwt>
</event>
<event>
 4    1  0.4199481E+000  0.1977914E+03  0.7546771E-02  0.1151616E+00
         21   -1    0    0  503  502  0.00000000000E+00  0.00000000000E+00  0.58432882061E+03  0.58432882061E+03  0.00000000000E+00 0.  1.
         21   -1    0    0  501  503 -0.00000000000E+00 -0.00000000000E+00 -0.13707370509E+03  0.13707370509E+03  0.00000000000E+00 0.  1.
          6    1    1    2  501    0 -0.36507785828E+02 -0.88654474986E+02 -0.34360575122E+02  0.20075378822E+03  0.17300000000E+03 0.  1.
         -6    1    1    2    0  502  0.36507785828E+02  0.88654474986E+02  0.48161569064E+03  0.52064873748E+03  0.17300000000E+03 0.  1.
<mgrwt>
<rscale>  2 0.19779139E+03</rscale>
<asrwt>0</asrwt>
<pdfrwt beam="1">  1       21 0.89896740E-01 0.19779139E+03</pdfrwt>
<pdfrwt beam="2">  1       21 0.21088263E-01 0.19779139E+03</pdfrwt>
<totfact> 0.21950432E+04</totfact>
</mgrwt>
</event>
<event>
 4    1  0.4199481E+000  0.2911510E+03  0.7546771E-02  0.1089750E+00
         21   -1    0    0  501  502  0.00000000000E+00  0.00000000000E+00  0.57973613089E+03  0.57973613089E+03  0.00000000000E+00 0.  1.
         21   -1    0    0  502  503 -0.00000000000E+00 -0.00000000000E+00 -0.14949208322E+03  0.14949208322E+03  0.00000000000E+00 0.  1.
          6    1    1    2  501    0  0.15148436877E+03 -0.17858444331E+03  0.26906662068E+03  0.39644137490E+03  0.17300000000E+03 0.  1.
         -6    1    1    2    0  503 -0.15148436877E+03  0.17858444331E+03  0.16117742699E+03  0.33278683920E+03  0.17300000000E+03 0.  1.
<mgrwt>
<rscale>  2 0.29115102E+03</rscale>
<asrwt>0</asrwt>
<pdfrwt beam="1">  1       21 0.89190173E-01 0.29115102E+03</pdfrwt>
<pdfrwt beam="2">  1       21 0.22998782E-01 0.29115102E+03</pdfrwt>
<totfact> 0.18086944E+04</totfact>
</mgrwt>
</event>
<event>
 4    1  0.4199481E+000  0.2524094E+03  0.7546771E-02  0.1111792E+00
         21   -1    0    0  501  502  0.00000000000E+00  0.00000000000E+00  0.46440801073E+03  0.46440801073E+03  0.00000000000E+00 0.  1.
         21   -1    0    0  502  503 -0.00000000000E+00 -0.00000000000E+00 -0.17741581316E+03  0.17741581316E+03  0.00000000000E+00 0.  1.
          6    1    1    2  501    0 -0.10766929315E+03  0.14895916373E+03  0.29630934049E+03  0.38924251362E+03  0.17300000000E+03 0.  1.
         -6    1    1    2    0  503  0.10766929315E+03 -0.14895916373E+03 -0.93171429297E+01  0.25258131027E+03  0.17300000000E+03 0.  1.
<mgrwt>
<rscale>  2 0.25240941E+03</rscale>
<asrwt>0</asrwt>
<pdfrwt beam="1">  1       21 0.71447386E-01 0.25240941E+03</pdfrwt>
<pdfrwt beam="2">  1       21 0.27294741E-01 0.25240941E+03</pdfrwt>
<totfact> 0.21951655E+04</totfact>
</mgrwt>
</event>
<event>
 4    1  0.4199481E+000  0.2184901E+03  0.7546771E-02  0.1135014E+00
         21   -1    0    0  503  502  0.00000000000E+00  0.00000000000E+00  0.71382189402E+03  0.71382189402E+03  0.00000000000E+00 0. -1.
         21   -1    0    0  501  503 -0.00000000000E+00 -0.00000000000E+00 -0.87002684866E+02  0.87002684866E+02  0.00000000000E+00 0. -1.
          6    1    1    2  501    0 -0.72163244211E+02  0.11225596144E+03  0.12082506269E+03  0.24967304714E+03  0.17300000000E+03 0. -1.
         -6    1    1    2    0  502  0.72163244211E+02 -0.11225596144E+03  0.50599414646E+03  0.55115153174E+03  0.17300000000E+03 0. -1.
<mgrwt>
<rscale>  2 0.21849012E+03</rscale>
<asrwt>0</asrwt>
<pdfrwt beam="1">  1       21 0.10981875E+00 0.21849012E+03</pdfrwt>
<pdfrwt beam="2">  1       21 0.13385029E-01 0.21849012E+03</pdfrwt>
<totfact> 0.31166939E+04</totfact>
</mgrwt>
</event>
<event>
 4    1  0.4199481E+000  0.1926205E+03  0.7546771E-02  0.1156119E+00
         21   -1    0    0  501  502  0.00000000000E+00  0.00000000000E+00  0.96923658153E+03  0.96923658153E+03  0.00000000000E+00 0.  1.
         21   -1    0    0  502  503 -0.00000000000E+00 -0.00000000000E+00 -0.14472515922E+03  0.14472515922E+03  0.00000000000E+00 0.  1.
          6    1    1    2  501    0  0.73341561181E+02  0.42363563483E+02  0.88992864153E+03  0.91053590985E+03  0.17300000000E+03 0.  1.
         -6    1    1    2    0  503 -0.73341561181E+02 -0.42363563483E+02 -0.65417219219E+02  0.20342583090E+03  0.17300000000E+03 0.  1.
<mgrwt>
<rscale>  2 0.19262050E+03</rscale>
<asrwt>0</asrwt>
<pdfrwt beam="1">  1       21 0.14911332E+00 0.19262050E+03</pdfrwt>
<pdfrwt beam="2">  1       21 0.22265410E-01 0.19262050E+03</pdfrwt>
<totfact> 0.57297881E+03</totfact>
</mgrwt>
</event>
<event>
 4    1  0.4199481E+000  0.1748654E+03  0.7546771E-02  0.1172867E+00
         21   -1    0    0  503  502  0.00000000000E+00  0.00000000000E+00  0.52494249894E+03  0.52494249894E+03  0.00000000000E+00 0. -1.
         21   -1    0    0  501  503 -0.00000000000E+00 -0.00000000000E+00 -0.95535197451E+02  0.95535197451E+02  0.00000000000E+00 0. -1.
          6    1    1    2  501    0 -0.13522010966E+01 -0.25437622170E+02  0.20890744168E+02  0.17610884209E+03  0.17300000000E+03 0. -1.
         -6    1    1    2    0  502  0.13522010966E+01  0.25437622170E+02  0.40851655732E+03  0.44436885430E+03  0.17300000000E+03 0. -1.
<mgrwt>
<rscale>  2 0.17486538E+03</rscale>
<asrwt>0</asrwt>
<pdfrwt beam="1">  1       21 0.80760383E-01 0.17486538E+03</pdfrwt>
<pdfrwt beam="2">  1       21 0.14697723E-01 0.17486538E+03</pdfrwt>
<totfact> 0.55269651E+04</totfact>
</mgrwt>
</event>
<event>
 4    1  0.4199481E+000  0.1841726E+03  0.7546771E-02  0.1163825E+00
         21   -1    0    0  501  502  0.00000000000E+00  0.00000000000E+00  0.52273345222E+03  0.52273345222E+03  0.00000000000E+00 0. -1.
         21   -1    0    0  502  503 -0.00000000000E+00 -0.00000000000E+00 -0.66387881134E+02  0.66387881134E+02  0.00000000000E+00 0.  1.
          6    1    1    2  501    0 -0.79254014962E-01 -0.63170662076E+02  0.27243621173E+03  0.32884803221E+03  0.17300000000E+03 0. -1.
         -6    1    1    2    0  503  0.79254014962E-01  0.63170662076E+02  0.18390935935E+03  0.26027330114E+03  0.17300000000E+03 0.  1.
<mgrwt>
<rscale>  2 0.18417258E+03</rscale>
<asrwt>0</asrwt>
<pdfrwt beam="1">  1       21 0.80420528E-01 0.18417258E+03</pdfrwt>
<pdfrwt beam="2">  1       21 0.10213521E-01 0.18417258E+03</pdfrwt>
<totfact> 0.10659165E+05</totfact>
</mgrwt>
</event>
<event>
 4    1  0.4199481E+000  0.3096366E+03  0.7546771E-02  0.1080520E+00
         21   -1    0    0  501  502  0.00000000000E+00  0.00000000000E+00  0.11436399008E+03  0.11436399008E+03  0.00000000000E+00 0. -1.
         21   -1    0    0  502  503 -0.00000000000E+00 -0.00000000000E+00 -0.85459631520E+03  0.85459631520E+03  0.00000000000E+00 0.  1.
          6    1    1    2  501    0  0.25532741412E+03 -0.27454187621E+02 -0.30327662766E+03  0.43341842797E+03  0.17300000000E+03 0. -1.
         -6    1    1    2    0  503 -0.25532741412E+03  0.27454187621E+02 -0.43695569746E+03  0.53554187731E+03  0.17300000000E+03 0. -1.
<mgrwt>
<rscale>  2 0.30963659E+03</rscale>
<asrwt>0</asrwt>
<pdfrwt beam="1">  1       21 0.17594460E-01 0.30963659E+03</pdfrwt>
<pdfrwt beam="2">  1       21 0.13147636E+00 0.30963659E+03</pdfrwt>
<totfact> 0.11501246E+04</totfact>
</mgrwt>
</event>
<event>
 4    1  0.4199481E+000  0.2335866E+03  0.7546771E-02  0.1124141E+00
         21   -1    0    0  501  502  0.00000000000E+00  0.00000000000E+00  0.82926949176E+02  0.82926949176E+02  0.00000000000E+00 0.  1.
         21   -1    0    0  502  503 -0.00000000000E+00 -0.00000000000E+00 -0.80123337108E+03  0.80123337108E+03  0.00000000000E+00 0. -1.
          6    1    1    2  501    0  0.46784609074E+02  0.14981624026E+03 -0.17221305316E+03  0.29020689373E+03  0.17300000000E+03 0.  1.
         -6    1    1    2    0  503 -0.46784609074E+02 -0.14981624026E+03 -0.54609336874E+03  0.59395342652E+03  0.17300000000E+03 0. -1.
<mgrwt>
<rscale>  2 0.23358661E+03</rscale>
<asrwt>0</asrwt>
<pdfrwt beam="1">  1       21 0.12757993E-01 0.23358661E+03</pdfrwt>
<pdfrwt beam="2">  1       21 0.12326667E+00 0.23358661E+03</pdfrwt>
<totfact> 0.25363648E+04</totfact>
</mgrwt>
</event>
<event>
 4    1  0.4199481E+000  0.1889427E+03  0.7546771E-02  0.1159418E+00
         21   -1    0    0  503  502  0.00000000000E+00  0.00000000000E+00  0.24596601356E+03  0.24596601356E+03  0.00000000000E+00 0.  1.
         21   -1    0    0  501  503 -0.00000000000E+00 -0.00000000000E+00 -0.14514079276E+03  0.14514079276E+03  0.00000000000E+00 0.  1.
          6    1    1    2  501    0 -0.36134129972E+02  0.66818211366E+02  0.51027952284E+02  0.19571203497E+03  0.17300000000E+03 0.  1.
         -6    1    1    2    0  502  0.36134129972E+02 -0.66818211366E+02  0.49797268511E+02  0.19539477135E+03  0.17300000000E+03 0.  1.
<mgrwt>
<rscale>  2 0.18894271E+03</rscale>
<asrwt>0</asrwt>
<pdfrwt beam="1">  1       21 0.37840925E-01 0.18894271E+03</pdfrwt>
<pdfrwt beam="2">  1       21 0.22329353E-01 0.18894271E+03</pdfrwt>
<totfact> 0.12657684E+05</totfact>
</mgrwt>
</event>
<event>
 4    1  0.4199481E+000  0.3228291E+03  0.7546771E-02  0.1074355E+00
         21   -1    0    0  501  502  0.00000000000E+00  0.00000000000E+00  0.71636802180E+03  0.71636802180E+03  0.00000000000E+00 0. -1.
         21   -1    0    0  502  503 -0.00000000000E+00 -0.00000000000E+00 -0.27760843416E+03  0.27760843416E+03  0.00000000000E+00 0.  1.
          6    1    1    2  501    0 -0.26755622086E+03  0.51993299931E+02  0.56224599215E+03  0.64833570798E+03  0.17300000000E+03 0. -1.
         -6    1    1    2    0  503  0.26755622086E+03 -0.51993299931E+02 -0.12348640451E+03  0.34564074797E+03  0.17300000000E+03 0.  1.
<mgrwt>
<rscale>  2 0.32282911E+03</rscale>
<asrwt>0</asrwt>
<pdfrwt beam="1">  1       21 0.11021046E+00 0.32282911E+03</pdfrwt>
<pdfrwt beam="2">  1       21 0.42708990E-01 0.32282911E+03</pdfrwt>
<totfact> 0.31436440E+03</totfact>
</mgrwt>
</event>
<event>
 4    1  0.4199481E+000  0.2514351E+03  0.7546771E-02  0.1112401E+00
         21   -1    0    0  503  502  0.00000000000E+00  0.00000000000E+00  0.12368908823E+04  0.12368908823E+04  0.00000000000E+00 0. -1.
         21   -1    0    0  501  503 -0.00000000000E+00 -0.00000000000E+00 -0.65853858733E+02  0.65853858733E+02  0.00000000000E+00 0. -1.
          6    1    1    2  501    0 -0.11550906281E+03 -0.14123841496E+03  0.27732832132E+03  0.37434026133E+03  0.17300000000E+03 0. -1.
         -6    1    1    2    0  502  0.11550906281E+03  0.14123841496E+03  0.89370870229E+03  0.92840447974E+03  0.17300000000E+03 0. -1.
<mgrwt>
<rscale>  2 0.25143515E+03</rscale>
<asrwt>0</asrwt>
<pdfrwt beam="1">  1       21 0.19029089E+00 0.25143515E+03</pdfrwt>
<pdfrwt beam="2">  1       21 0.10131364E-01 0.25143515E+03</pdfrwt>
<totfact> 0.11802171E+04</totfact>
</mgrwt>
</event>
<event>
 4    1  0.4199481E+000  0.1782493E+03  0.7546771E-02  0.1169508E+00
         21   -1    0    0  501  502  0.00000000000E+00  0.00000000000E+00  0.24905692265E+03  0.24905692265E+03  0.00000000000E+00 0. -1.
         21   -1    0    0  502  503 -0.00000000000E+00 -0.00000000000E+00 -0.13635041653E+03  0.13635041653E+03  0.00000000000E+00 0.  1.
          6    1    1    2  501    0  0.29470872167E+02  0.31229234148E+02  0.10524765650E+03  0.20700209316E+03  0.17300000000E+03 0. -1.
         -6    1    1    2    0  503 -0.29470872167E+02 -0.31229234148E+02  0.74588496237E+01  0.17840524603E+03  0.17300000000E+03 0.  1.
<mgrwt>
<rscale>  2 0.17824926E+03</rscale>
<asrwt>0</asrwt>
<pdfrwt beam="1">  1       21 0.38316449E-01 0.17824926E+03</pdfrwt>
<pdfrwt beam="2">  1       21 0.20976987E-01 0.17824926E+03</pdfrwt>
<totfact> 0.13933353E+05</totfact>
</mgrwt>
</event>
<event>
 4    1  0.4199481E+000  0.1929618E+03  0.7546771E-02  0.1155817E+00
         21   -1    0    0  501  502  0.00000000000E+00  0.00000000000E+00  0.15425542527E+03  0.15425542527E+03  0.00000000000E+00 0. -1.
         21   -1    0    0  502  503 -0.00000000000E+00 -0.00000000000E+00 -0.32243135436E+03  0.32243135436E+03  0.00000000000E+00 0. -1.
          6    1    1    2  501    0  0.40799294788E+02 -0.75104540437E+02  0.35410653022E+02  0.19618406866E+03  0.17300000000E+03 0. -1.
         -6    1    1    2    0  503 -0.40799294788E+02  0.75104540437E+02 -0.20358658211E+03  0.28050271098E+03  0.17300000000E+03 0. -1.
<mgrwt>
<rscale>  2 0.19296185E+03</rscale>
<asrwt>0</asrwt>
<pdfrwt beam="1">  1       21 0.23731604E-01 0.19296185E+03</pdfrwt>
<pdfrwt beam="2">  1       21 0.49604823E-01 0.19296185E+03</pdfrwt>
<totfact> 0.64789151E+04</totfact>
</mgrwt>
</event>
<event>
 4    1  0.4199481E+000  0.3173390E+03  0.7546771E-02  0.1076881E+00
         21   -1    0    0  501  502  0.00000000000E+00  0.00000000000E+00  0.24284289107E+03  0.24284289107E+03  0.00000000000E+00 0. -1.
         21   -1    0    0  502  503 -0.00000000000E+00 -0.00000000000E+00 -0.49727552726E+03  0.49727552726E+03  0.00000000000E+00 0. -1.
          6    1    1    2  501    0  0.22120923965E+03 -0.14778870191E+03  0.23593617860E+02  0.31821484397E+03  0.17300000000E+03 0. -1.
         -6    1    1    2    0  503 -0.22120923965E+03  0.14778870191E+03 -0.27802625406E+03  0.42190357437E+03  0.17300000000E+03 0. -1.
<mgrwt>
<rscale>  2 0.31733898E+03</rscale>
<asrwt>0</asrwt>
<pdfrwt beam="1">  1       21 0.37360445E-01 0.31733898E+03</pdfrwt>
<pdfrwt beam="2">  1       21 0.76503926E-01 0.31733898E+03</pdfrwt>
<totfact> 0.98129143E+03</totfact>
</mgrwt>
</event>
<event>
 4    1  0.4199481E+000  0.2150432E+03  0.7546771E-02  0.1137633E+00
         21   -1    0    0  503  502  0.00000000000E+00  0.00000000000E+00  0.23174156673E+03  0.23174156673E+03  0.00000000000E+00 0. -1.
         21   -1    0    0  501  503 -0.00000000000E+00 -0.00000000000E+00 -0.26298832430E+03  0.26298832430E+03  0.00000000000E+00 0. -1.
          6    1    1    2  501    0  0.22232533979E+02 -0.12577871717E+03 -0.13711673878E+03  0.25503837224E+03  0.17300000000E+03 0. -1.
         -6    1    1    2    0  502 -0.22232533979E+02  0.12577871717E+03  0.10586998120E+03  0.23969151879E+03  0.17300000000E+03 0. -1.
<mgrwt>
<rscale>  2 0.21504318E+03</rscale>
<asrwt>0</asrwt>
<pdfrwt beam="1">  1       21 0.35652549E-01 0.21504318E+03</pdfrwt>
<pdfrwt beam="2">  1       21 0.40459742E-01 0.21504318E+03</pdfrwt>
<totfact> 0.44159317E+04</totfact>
</mgrwt>
</event>
<event>
 4    1  0.4199481E+000  0.1895659E+03  0.7546771E-02  0.1158853E+00
         21   -1    0    0  501  502  0.00000000000E+00  0.00000000000E+00  0.78512280061E+03  0.78512280061E+03  0.00000000000E+00 0. -1.
         21   -1    0    0  502  503 -0.00000000000E+00 -0.00000000000E+00 -0.25242866301E+03  0.25242866301E+03  0.00000000000E+00 0.  1.
          6    1    1    2  501    0  0.76582272896E+02 -0.11891066047E+02  0.73574037981E+03  0.75976914155E+03  0.17300000000E+03 0. -1.
         -6    1    1    2    0  503 -0.76582272896E+02  0.11891066047E+02 -0.20304624222E+03  0.27778232207E+03  0.17300000000E+03 0.  1.
<mgrwt>
<rscale>  2 0.18956593E+03</rscale>
<asrwt>0</asrwt>
<pdfrwt beam="1">  1       21 0.12078812E+00 0.18956593E+03</pdfrwt>
<pdfrwt beam="2">  1       21 0.38835179E-01 0.18956593E+03</pdfrwt>
<totfact> 0.33308188E+03</totfact>
</mgrwt>
</event>
<event>
 4    1  0.4199481E+000  0.1827100E+03  0.7546771E-02  0.1165206E+00
         21   -1    0    0  503  502  0.00000000000E+00  0.00000000000E+00  0.42691468825E+02  0.42691468825E+02  0.00000000000E+00 0.  1.
         21   -1    0    0  501  503 -0.00000000000E+00 -0.00000000000E+00 -0.12092534735E+04  0.12092534735E+04  0.00000000000E+00 0.  1.
          6    1    1    2  501    0  0.39081177622E+02 -0.43892964551E+02 -0.95538194116E+03  0.97269603900E+03  0.17300000000E+03 0.  1.
         -6    1    1    2    0  502 -0.39081177622E+02  0.43892964551E+02 -0.21118006348E+03  0.27924890330E+03  0.17300000000E+03 0.  1.
<mgrwt>
<rscale>  2 0.18270996E+03</rscale>
<asrwt>0</asrwt>
<pdfrwt beam="1">  1       21 0.65679178E-02 0.18270996E+03</pdfrwt>
<pdfrwt beam="2">  1       21 0.18603901E+00 0.18270996E+03</pdfrwt>
<totfact> 0.28167454E+04</totfact>
</mgrwt>
</event>
<event>
 4    1  0.4199481E+000  0.2090113E+03  0.7546771E-02  0.1142351E+00
         21   -1    0    0  501  502  0.00000000000E+00  0.00000000000E+00  0.46283051913E+02  0.46283051913E+02  0.00000000000E+00 0.  1.
         21   -1    0    0  502  503 -0.00000000000E+00 -0.00000000000E+00 -0.11120832296E+04  0.11120832296E+04  0.00000000000E+00 0. -1.
          6    1    1    2  501    0 -0.42241991614E+02  0.10941814790E+03 -0.75814888627E+03  0.78643210177E+03  0.17300000000E+03 0. -1.
         -6    1    1    2    0  503  0.42241991614E+02 -0.10941814790E+03 -0.30765129138E+03  0.37193417971E+03  0.17300000000E+03 0.  1.
<mgrwt>
<rscale>  2 0.20901128E+03</rscale>
<asrwt>0</asrwt>
<pdfrwt beam="1">  1       21 0.71204692E-02 0.20901128E+03</pdfrwt>
<pdfrwt beam="2">  1       21 0.17108973E+00 0.20901128E+03</pdfrwt>
<totfact> 0.30466510E+04</totfact>
</mgrwt>
</event>
<event>
 4    1  0.4199481E+000  0.2478820E+03  0.7546771E-02  0.1114651E+00
         21   -1    0    0  503  502  0.00000000000E+00  0.00000000000E+00  0.13920764474E+03  0.13920764474E+03  0.00000000000E+00 0.  1.
         21   -1    0    0  501  503 -0.00000000000E+00 -0.00000000000E+00 -0.45913506632E+03  0.45913506632E+03  0.00000000000E+00 0. -1.
          6    1    1    2  501    0 -0.35429488579E+02 -0.17395757200E+03 -0.10115606403E+03  0.26772753838E+03  0.17300000000E+03 0. -1.
         -6    1    1    2    0  502  0.35429488579E+02  0.17395757200E+03 -0.21877135756E+03  0.33061517268E+03  0.17300000000E+03 0. -1.
<mgrwt>
<rscale>  2 0.24788200E+03</rscale>
<asrwt>0</asrwt>
<pdfrwt beam="1">  1       21 0.21416561E-01 0.24788200E+03</pdfrwt>
<pdfrwt beam="2">  1       21 0.70636163E-01 0.24788200E+03</pdfrwt>
<totfact> 0.35897838E+04</totfact>
</mgrwt>
</event>
<event>
 4    1  0.4199481E+000  0.1763650E+03  0.7546771E-02  0.1171368E+00
         21   -1    0    0  503  502  0.00000000000E+00  0.00000000000E+00  0.40221530920E+03  0.40221530920E+03  0.00000000000E+00 0.  1.
         21   -1    0    0  501  503 -0.00000000000E+00 -0.00000000000E+00 -0.81517685580E+02  0.81517685580E+02  0.00000000000E+00 0. -1.
          6    1    1    2  501    0  0.64725220552E+01 -0.33670604292E+02  0.10555013971E+03  0.20553694346E+03  0.17300000000E+03 0. -1.
         -6    1    1    2    0  502 -0.64725220552E+01  0.33670604292E+02  0.21514748391E+03  0.27819605132E+03  0.17300000000E+03 0.  1.
<mgrwt>
<rscale>  2 0.17636497E+03</rscale>
<asrwt>0</asrwt>
<pdfrwt beam="1">  1       21 0.61879277E-01 0.17636497E+03</pdfrwt>
<pdfrwt beam="2">  1       21 0.12541183E-01 0.17636497E+03</pdfrwt>
<totfact> 0.13222602E+05</totfact>
</mgrwt>
</event>
<event>
 4    1  0.4199481E+000  0.1745277E+03  0.7546771E-02  0.1173207E+00
         21   -1    0    0  501  502  0.00000000000E+00  0.00000000000E+00  0.49358417909E+03  0.49358417909E+03  0.00000000000E+00 0.  1.
         21   -1    0    0  502  503 -0.00000000000E+00 -0.00000000000E+00 -0.97525099691E+02  0.97525099691E+02  0.00000000000E+00 0.  1.
          6    1    1    2  501    0  0.15397602549E+02 -0.17141597548E+02  0.37713232215E+03  0.41555830991E+03  0.17300000000E+03 0.  1.
         -6    1    1    2    0  503 -0.15397602549E+02  0.17141597548E+02  0.18926757255E+02  0.17555096887E+03  0.17300000000E+03 0.  1.
<mgrwt>
<rscale>  2 0.17452771E+03</rscale>
<asrwt>0</asrwt>
<pdfrwt beam="1">  1       21 0.75936027E-01 0.17452771E+03</pdfrwt>
<pdfrwt beam="2">  1       21 0.15003862E-01 0.17452771E+03</pdfrwt>
<totfact> 0.61144393E+04</totfact>
</mgrwt>
</event>
<event>
 4    1  0.4199481E+000  0.3140161E+03  0.7546771E-02  0.1078437E+00
         21   -1    0    0  501  502  0.00000000000E+00  0.00000000000E+00  0.17112141802E+04  0.17112141802E+04  0.00000000000E+00 0. -1.
         21   -1    0    0  502  503 -0.00000000000E+00 -0.00000000000E+00 -0.66964288293E+02  0.66964288293E+02  0.00000000000E+00 0. -1.
          6    1    1    2  501    0 -0.19692547364E+03  0.17290887694E+03  0.11541844183E+04  0.11961387015E+04  0.17300000000E+03 0. -1.
         -6    1    1    2    0  503  0.19692547364E+03 -0.17290887694E+03  0.49006547365E+03  0.58203976699E+03  0.17300000000E+03 0. -1.
<mgrwt>
<rscale>  2 0.31401612E+03</rscale>
<asrwt>0</asrwt>
<pdfrwt beam="1">  1       21 0.26326369E+00 0.31401612E+03</pdfrwt>
<pdfrwt beam="2">  1       21 0.10302199E-01 0.31401612E+03</pdfrwt>
<totfact> 0.38604998E+03</totfact>
</mgrwt>
</event>
<event>
 4    1  0.4199481E+000  0.2915470E+03  0.7546771E-02  0.1089544E+00
         21   -1    0    0  501  502  0.00000000000E+00  0.00000000000E+00  0.46698209919E+02  0.46698209919E+02  0.00000000000E+00 0. -1.
         21   -1    0    0  502  503 -0.00000000000E+00 -0.00000000000E+00 -0.19852942903E+04  0.19852942903E+04  0.00000000000E+00 0.  1.
          6    1    1    2  501    0  0.89601785657E+02 -0.21689207098E+03 -0.67630464447E+03  0.73646970242E+03  0.17300000000E+03 0. -1.
         -6    1    1    2    0  503 -0.89601785657E+02  0.21689207098E+03 -0.12622914359E+04  0.12955227978E+04  0.17300000000E+03 0.  1.
<mgrwt>
<rscale>  2 0.29154700E+03</rscale>
<asrwt>0</asrwt>
<pdfrwt beam="1">  1       21 0.71843410E-02 0.29154700E+03</pdfrwt>
<pdfrwt beam="2">  1       21 0.30542985E+00 0.29154700E+03</pdfrwt>
<totfact> 0.41766685E+03</totfact>
</mgrwt>
</event>
<event>
 4    1  0.4199481E+000  0.1764887E+03  0.7546771E-02  0.1171245E+00
         21   -1    0    0  503  502  0.00000000000E+00  0.00000000000E+00  0.11617647588E+04  0.11617647588E+04  0.00000000000E+00 0.  1.
         21   -1    0    0  501  503 -0.00000000000E+00 -0.00000000000E+00 -0.34898624417E+02  0.34898624417E+02  0.00000000000E+00 0.  1.
          6    1    1    2  501    0  0.32791773208E+02 -0.11998457396E+02  0.27539891516E+03  0.32709757847E+03  0.17300000000E+03 0.  1.
         -6    1    1    2    0  502 -0.32791773208E+02  0.11998457396E+02  0.85146721918E+03  0.86956580470E+03  0.17300000000E+03 0.  1.
<mgrwt>
<rscale>  2 0.17648871E+03</rscale>
<asrwt>0</asrwt>
<pdfrwt beam="1">  1       21 0.17873301E+00 0.17648871E+03</pdfrwt>
<pdfrwt beam="2">  1       21 0.53690200E-02 0.17648871E+03</pdfrwt>
<totfact> 0.44696047E+04</totfact>
</mgrwt>
</event>
<event>
 4    1  0.4199481E+000  0.1875741E+03  0.7546771E-02  0.1160668E+00
         21   -1    0    0  503  502  0.00000000000E+00  0.00000000000E+00  0.79329135369E+03  0.79329135369E+03  0.00000000000E+00 0. -1.
         21   -1    0    0  501  503 -0.00000000000E+00 -0.00000000000E+00 -0.45255565943E+02  0.45255565943E+02  0.00000000000E+00 0. -1.
          6    1    1    2  501    0 -0.66283150968E+02  0.29352679801E+02  0.31477339566E+03  0.36642369810E+03  0.17300000000E+03 0. -1.
         -6    1    1    2    0  502  0.66283150968E+02 -0.29352679801E+02  0.43326239208E+03  0.47212322153E+03  0.17300000000E+03 0. -1.
<mgrwt>
<rscale>  2 0.18757408E+03</rscale>
<asrwt>0</asrwt>
<pdfrwt beam="1">  1       21 0.12204481E+00 0.18757408E+03</pdfrwt>
<pdfrwt beam="2">  1       21 0.69623953E-02 0.18757408E+03</pdfrwt>
<totfact> 0.77497202E+04</totfact>
</mgrwt>
</event>
<event>
 4    1  0.4199481E+000  0.2448686E+03  0.7546771E-02  0.1116591E+00
         21   -1    0    0  501  502  0.00000000000E+00  0.00000000000E+00  0.12151770600E+04  0.12151770600E+04  0.00000000000E+00 0. -1.
         21   -1    0    0  502  503 -0.00000000000E+00 -0.00000000000E+00 -0.50371092919E+02  0.50371092919E+02  0.00000000000E+00 0.  1.
          6    1    1    2  501    0  0.10649757417E+02 -0.17296878700E+03  0.49200674232E+03  0.54957370124E+03  0.17300000000E+03 0.  1.
         -6    1    1    2    0  503 -0.10649757417E+02  0.17296878700E+03  0.67279922473E+03  0.71597445165E+03  0.17300000000E+03 0. -1.
<mgrwt>
<rscale>  2 0.24486857E+03</rscale>
<asrwt>0</asrwt>
<pdfrwt beam="1">  1       21 0.18695029E+00 0.24486857E+03</pdfrwt>
<pdfrwt beam="2">  1       21 0.77493998E-02 0.24486857E+03</pdfrwt>
<totfact> 0.20008389E+04</totfact>
</mgrwt>
</event>
<event>
 4    1  0.4199481E+000  0.2174550E+03  0.7546771E-02  0.1135795E+00
         21   -1    0    0  501  502  0.00000000000E+00  0.00000000000E+00  0.71586722504E+02  0.71586722504E+02  0.00000000000E+00 0. -1.
         21   -1    0    0  502  503 -0.00000000000E+00 -0.00000000000E+00 -0.85742217467E+03  0.85742217467E+03  0.00000000000E+00 0. -1.
          6    1    1    2  501    0  0.12762223626E+03  0.32714497007E+02 -0.17033897252E+03  0.27622823726E+03  0.17300000000E+03 0. -1.
         -6    1    1    2    0  503 -0.12762223626E+03 -0.32714497007E+02 -0.61549647964E+03  0.65278065991E+03  0.17300000000E+03 0. -1.
<mgrwt>
<rscale>  2 0.21745499E+03</rscale>
<asrwt>0</asrwt>
<pdfrwt beam="1">  1       21 0.11013342E-01 0.21745499E+03</pdfrwt>
<pdfrwt beam="2">  1       21 0.13191110E+00 0.21745499E+03</pdfrwt>
<totfact> 0.28071618E+04</totfact>
</mgrwt>
</event>
<event>
 4    1  0.4199481E+000  0.1786814E+03  0.7546771E-02  0.1169085E+00
         21   -1    0    0  503  502  0.00000000000E+00  0.00000000000E+00  0.16367523328E+03  0.16367523328E+03  0.00000000000E+00 0.  1.
         21   -1    0    0  501  503 -0.00000000000E+00 -0.00000000000E+00 -0.30875587050E+03  0.30875587050E+03  0.00000000000E+00 0.  1.
          6    1    1    2  501    0 -0.42310914771E+02  0.14416402667E+02 -0.21588010159E+03  0.28023430275E+03  0.17300000000E+03 0.  1.
         -6    1    1    2    0  502  0.42310914771E+02 -0.14416402667E+02  0.70799464364E+02  0.19219680104E+03  0.17300000000E+03 0.  1.
<mgrwt>
<rscale>  2 0.17868141E+03</rscale>
<asrwt>0</asrwt>
<pdfrwt beam="1">  1       21 0.25180806E-01 0.17868141E+03</pdfrwt>
<pdfrwt beam="2">  1       21 0.47500902E-01 0.17868141E+03</pdfrwt>
<totfact> 0.63714560E+04</totfact>
</mgrwt>
</event>
<event>
 4    1  0.4199481E+000  0.1957287E+03  0.7546771E-02  0.1153394E+00
         21   -1    0    0  503  502  0.00000000000E+00  0.00000000000E+00  0.47144093718E+02  0.47144093718E+02  0.00000000000E+00 0.  1.
         21   -1    0    0  501  503 -0.00000000000E+00 -0.00000000000E+00 -0.87974093506E+03  0.87974093506E+03  0.00000000000E+00 0. -1.
          6    1    1    2  501    0  0.66447116684E+02 -0.62972209814E+02 -0.54431988853E+03  0.57844088685E+03  0.17300000000E+03 0. -1.
         -6    1    1    2    0  502 -0.66447116684E+02  0.62972209814E+02 -0.28827695281E+03  0.34844414193E+03  0.17300000000E+03 0.  1.
<mgrwt>
<rscale>  2 0.19572869E+03</rscale>
<asrwt>0</asrwt>
<pdfrwt beam="1">  1       21 0.72529376E-02 0.19572869E+03</pdfrwt>
<pdfrwt beam="2">  1       21 0.13534476E+00 0.19572869E+03</pdfrwt>
<totfact> 0.55433509E+04</totfact>
</mgrwt>
</event>
<event>
 4    1  0.4199481E+000  0.2594859E+03  0.7546771E-02  0.1107452E+00
         21   -1    0    0  503  502  0.00000000000E+00  0.00000000000E+00  0.38537037803E+02  0.38537037803E+02  0.00000000000E+00 0.  1.
         21   -1    0    0  501  503 -0.00000000000E+00 -0.00000000000E+00 -0.17482035045E+04  0.17482035045E+04  0.00000000000E+00 0. -1.
          6    1    1    2  501    0 -0.18432743843E+03  0.58543479768E+02 -0.83371650285E+03  0.87316444655E+03  0.17300000000E+03 0. -1.
         -6    1    1    2    0  502  0.18432743843E+03 -0.58543479768E+02 -0.87594996389E+03  0.91357609581E+03  0.17300000000E+03 0.  1.
<mgrwt>
<rscale>  2 0.25948592E+03</rscale>
<asrwt>0</asrwt>
<pdfrwt beam="1">  1       21 0.59287767E-02 0.25948592E+03</pdfrwt>
<pdfrwt beam="2">  1       21 0.26895431E+00 0.25948592E+03</pdfrwt>
<totfact> 0.97860211E+03</totfact>
</mgrwt>
</event>
<event>
 4    1  0.4199481E+000  0.1954593E+03  0.7546771E-02  0.1153628E+00
         21   -1    0    0  501  502  0.00000000000E+00  0.00000000000E+00  0.60106126666E+03  0.60106126666E+03  0.00000000000E+00 0.  1.
         21   -1    0    0  502  503 -0.00000000000E+00 -0.00000000000E+00 -0.65227965101E+02  0.65227965101E+02  0.00000000000E+00 0. -1.
          6    1    1    2  501    0 -0.57520237359E+02 -0.70475154724E+02  0.32116677443E+03  0.37596864515E+03  0.17300000000E+03 0.  1.
         -6    1    1    2    0  503  0.57520237359E+02  0.70475154724E+02  0.21466652713E+03  0.29032058661E+03  0.17300000000E+03 0. -1.
<mgrwt>
<rscale>  2 0.19545927E+03</rscale>
<asrwt>0</asrwt>
<pdfrwt beam="1">  1       21 0.92470960E-01 0.19545927E+03</pdfrwt>
<pdfrwt beam="2">  1       21 0.10035072E-01 0.19545927E+03</pdfrwt>
<totfact> 0.79463233E+04</totfact>
</mgrwt>
</event>
<event>
 4    1  0.4199481E+000  0.2003227E+03  0.7546771E-02  0.1149467E+00
         21   -1    0    0  503  502  0.00000000000E+00  0.00000000000E+00  0.17885966485E+04  0.17885966485E+04  0.00000000000E+00 0.  1.
         21   -1    0    0  501  503 -0.00000000000E+00 -0.00000000000E+00 -0.37280316459E+02  0.37280316459E+02  0.00000000000E+00 0.  1.
          6    1    1    2  501    0 -0.89950478846E+02  0.45925005484E+02  0.29958206955E+03  0.36038675221E+03  0.17300000000E+03 0.  1.
         -6    1    1    2    0  502  0.89950478846E+02 -0.45925005484E+02  0.14517342625E+04  0.14654902128E+04  0.17300000000E+03 0.  1.
<mgrwt>
<rscale>  2 0.20032273E+03</rscale>
<asrwt>0</asrwt>
<pdfrwt beam="1">  1       21 0.27516865E+00 0.20032273E+03</pdfrwt>
<pdfrwt beam="2">  1       21 0.57354347E-02 0.20032273E+03</pdfrwt>
<totfact> 0.10028878E+04</totfact>
</mgrwt>
</event>
<event>
 4    1  0.4199481E+000  0.2281346E+03  0.7546771E-02  0.1127960E+00
         21   -1    0    0  503  502  0.00000000000E+00  0.00000000000E+00  0.44479493565E+03  0.44479493565E+03  0.00000000000E+00 0.  1.
         21   -1    0    0  501  503 -0.00000000000E+00 -0.00000000000E+00 -0.14346912949E+03  0.14346912949E+03  0.00000000000E+00 0.  1.
          6    1    1    2  501    0  0.12436695247E+03  0.81542944074E+02  0.24348735472E+02  0.22943027593E+03  0.17300000000E+03 0.  1.
         -6    1    1    2    0  502 -0.12436695247E+03 -0.81542944074E+02  0.27697707069E+03  0.35883378921E+03  0.17300000000E+03 0.  1.
<mgrwt>
<rscale>  2 0.22813459E+03</rscale>
<asrwt>0</asrwt>
<pdfrwt beam="1">  1       21 0.68429989E-01 0.22813459E+03</pdfrwt>
<pdfrwt beam="2">  1       21 0.22072174E-01 0.22813459E+03</pdfrwt>
<totfact> 0.36700063E+04</totfact>
</mgrwt>
</event>
<event>
 4    1  0.4199481E+000  0.2061242E+03  0.7546771E-02  0.1144673E+00
         21   -1    0    0  501  502  0.00000000000E+00  0.00000000000E+00  0.37743266652E+03  0.37743266652E+03  0.00000000000E+00 0. -1.
         21   -1    0    0  502  503 -0.00000000000E+00 -0.00000000000E+00 -0.21704567676E+03  0.21704567676E+03  0.00000000000E+00 0. -1.
          6    1    1    2  501    0  0.92596553108E+02  0.63119283592E+02  0.28641807831E+03  0.35287743084E+03  0.17300000000E+03 0. -1.
         -6    1    1    2    0  503 -0.92596553108E+02 -0.63119283592E+02 -0.12603108855E+03  0.24160091244E+03  0.17300000000E+03 0. -1.
<mgrwt>
<rscale>  2 0.20612415E+03</rscale>
<asrwt>0</asrwt>
<pdfrwt beam="1">  1       21 0.58066564E-01 0.20612415E+03</pdfrwt>
<pdfrwt beam="2">  1       21 0.33391642E-01 0.20612415E+03</pdfrwt>
<totfact> 0.23820844E+04</totfact>
</mgrwt>
</event>
<event>
 4    1  0.4199481E+000  0.1947928E+03  0.7546771E-02  0.1154208E+00
         21   -1    0    0  503  502  0.00000000000E+00  0.00000000000E+00  0.11607599570E+03  0.11607599570E+03  0.00000000000E+00 0.  1.
         21   -1    0    0  501  503 -0.00000000000E+00 -0.00000000000E+00 -0.36047084615E+03  0.36047084615E+03  0.00000000000E+00 0.  1.
          6    1    1    2  501    0  0.64261069786E+02  0.62335933730E+02 -0.19492126328E+03  0.27556950594E+03  0.17300000000E+03 0.  1.
         -6    1    1    2    0  502 -0.64261069786E+02 -0.62335933730E+02 -0.49473587160E+02  0.20097733591E+03  0.17300000000E+03 0.  1.
<mgrwt>
<rscale>  2 0.19479285E+03</rscale>
<asrwt>0</asrwt>
<pdfrwt beam="1">  1       21 0.17857846E-01 0.19479285E+03</pdfrwt>
<pdfrwt beam="2">  1       21 0.55457052E-01 0.19479285E+03</pdfrwt>
<totfact> 0.87248018E+04</totfact>
</mgrwt>
</event>
<event>
 4    1  0.4199481E+000  0.2413873E+03  0.7546771E-02  0.1118872E+00
         21   -1    0    0  501  502  0.00000000000E+00  0.00000000000E+00  0.59165048440E+03  0.59165048440E+03  0.00000000000E+00 0.  1.
         21   -1    0    0  502  503 -0.00000000000E+00 -0.00000000000E+00 -0.20918222995E+03  0.20918222995E+03  0.00000000000E+00 0.  1.
          6    1    1    2  501    0  0.39572853749E+02  0.16362399990E+03  0.48252085044E+03  0.53953145896E+03  0.17300000000E+03 0.  1.
         -6    1    1    2    0  503 -0.39572853749E+02 -0.16362399990E+03 -0.10005259599E+03  0.26130125538E+03  0.17300000000E+03 0.  1.
<mgrwt>
<rscale>  2 0.24138729E+03</rscale>
<asrwt>0</asrwt>
<pdfrwt beam="1">  1       21 0.91023151E-01 0.24138729E+03</pdfrwt>
<pdfrwt beam="2">  1       21 0.32181882E-01 0.24138729E+03</pdfrwt>
<totfact> 0.92074048E+03</totfact>
</mgrwt>
</event>
<event>
 4    1  0.4199481E+000  0.3283771E+03  0.7546771E-02  0.1071857E+00
         21   -1    0    0  501  502  0.00000000000E+00  0.00000000000E+00  0.55526991853E+03  0.55526991853E+03  0.00000000000E+00 0. -1.
         21   -1    0    0  502  503 -0.00000000000E+00 -0.00000000000E+00 -0.33027286294E+03  0.33027286294E+03  0.00000000000E+00 0.  1.
          6    1    1    2  501    0  0.23455871416E+03  0.15127694931E+03  0.39670526137E+03  0.51498210666E+03  0.17300000000E+03 0.  1.
         -6    1    1    2    0  503 -0.23455871416E+03 -0.15127694931E+03 -0.17170820578E+03  0.37056067480E+03  0.17300000000E+03 0.  1.
<mgrwt>
<rscale>  2 0.32837708E+03</rscale>
<asrwt>0</asrwt>
<pdfrwt beam="1">  1       21 0.85426141E-01 0.32837708E+03</pdfrwt>
<pdfrwt beam="2">  1       21 0.50811210E-01 0.32837708E+03</pdfrwt>
<totfact> 0.40097473E+03</totfact>
</mgrwt>
</event>
<event>
 4    1  0.4199481E+000  0.1742707E+03  0.7546771E-02  0.1173466E+00
         21   -1    0    0  501  502  0.00000000000E+00  0.00000000000E+00  0.56304224879E+03  0.56304224879E+03  0.00000000000E+00 0.  1.
         21   -1    0    0  502  503 -0.00000000000E+00 -0.00000000000E+00 -0.10014002122E+03  0.10014002122E+03  0.00000000000E+00 0.  1.
          6    1    1    2  501    0  0.92541509329E+00  0.20986549185E+02  0.62233683859E+01  0.17438182805E+03  0.17300000000E+03 0.  1.
         -6    1    1    2    0  503 -0.92541509329E+00 -0.20986549185E+02  0.45667885919E+03  0.48880044197E+03  0.17300000000E+03 0.  1.
<mgrwt>
<rscale>  2 0.17427074E+03</rscale>
<asrwt>0</asrwt>
<pdfrwt beam="1">  1       21 0.86621882E-01 0.17427074E+03</pdfrwt>
<pdfrwt beam="2">  1       21 0.15406157E-01 0.17427074E+03</pdfrwt>
<totfact> 0.43279691E+04</totfact>
</mgrwt>
</event>
<event>
 4    1  0.4199481E+000  0.2287921E+03  0.7546771E-02  0.1127493E+00
         21   -1    0    0  501  502  0.00000000000E+00  0.00000000000E+00  0.33705954858E+03  0.33705954858E+03  0.00000000000E+00 0.  1.
         21   -1    0    0  502  503 -0.00000000000E+00 -0.00000000000E+00 -0.45122412100E+03  0.45122412100E+03  0.00000000000E+00 0.  1.
          6    1    1    2  501    0  0.88598464535E+02  0.12069432671E+03  0.26210498267E+03  0.34791497576E+03  0.17300000000E+03 0.  1.
         -6    1    1    2    0  503 -0.88598464535E+02 -0.12069432671E+03 -0.37626955509E+03  0.44036869383E+03  0.17300000000E+03 0.  1.
<mgrwt>
<rscale>  2 0.22879206E+03</rscale>
<asrwt>0</asrwt>
<pdfrwt beam="1">  1       21 0.51855315E-01 0.22879206E+03</pdfrwt>
<pdfrwt beam="2">  1       21 0.69419095E-01 0.22879206E+03</pdfrwt>
<totfact> 0.64956655E+03</totfact>
</mgrwt>
</event>
<event>
 4    1  0.4199481E+000  0.2175368E+03  0.7546771E-02  0.1135733E+00
         21   -1    0    0  503  502  0.00000000000E+00  0.00000000000E+00  0.11036112448E+04  0.11036112448E+04  0.00000000000E+00 0. -1.
         21   -1    0    0  501  503 -0.00000000000E+00 -0.00000000000E+00 -0.43302220040E+02  0.43302220040E+02  0.00000000000E+00 0. -1.
          6    1    1    2  501    0 -0.12437451887E+03 -0.43866114133E+02  0.47349259218E+03  0.52107340343E+03  0.17300000000E+03 0. -1.
         -6    1    1    2    0  502  0.12437451887E+03  0.43866114133E+02  0.58681643254E+03  0.62584006137E+03  0.17300000000E+03 0. -1.
<mgrwt>
<rscale>  2 0.21753679E+03</rscale>
<asrwt>0</asrwt>
<pdfrwt beam="1">  1       21 0.16978632E+00 0.21753679E+03</pdfrwt>
<pdfrwt beam="2">  1       21 0.66618808E-02 0.21753679E+03</pdfrwt>
<totfact> 0.34732600E+04</totfact>
</mgrwt>
</event>
<event>
 4    1  0.4199481E+000  0.2394181E+03  0.7546771E-02  0.1120181E+00
         21   -1    0    0  503  502  0.00000000000E+00  0.00000000000E+00  0.15576615839E+03  0.15576615839E+03  0.00000000000E+00 0. -1.
         21   -1    0    0  501  503 -0.00000000000E+00 -0.00000000000E+00 -0.40949767770E+03  0.40949767770E+03  0.00000000000E+00 0.  1.
          6    1    1    2  501    0 -0.85186263890E+02 -0.14189898693E+03 -0.21684419302E+03  0.32302078276E+03  0.17300000000E+03 0.  1.
         -6    1    1    2    0  502  0.85186263890E+02  0.14189898693E+03 -0.36887326292E+02  0.24224305333E+03  0.17300000000E+03 0.  1.
<mgrwt>
<rscale>  2 0.23941809E+03</rscale>
<asrwt>0</asrwt>
<pdfrwt beam="1">  1       21 0.23964025E-01 0.23941809E+03</pdfrwt>
<pdfrwt beam="2">  1       21 0.62999642E-01 0.23941809E+03</pdfrwt>
<totfact> 0.37427829E+04</totfact>
</mgrwt>
</event>
<event>
 4    1  0.4199481E+000  0.2451554E+03  0.7546771E-02  0.1116405E+00
         21   -1    0    0  501  502  0.00000000000E+00  0.00000000000E+00  0.34136865097E+03  0.34136865097E+03  0.00000000000E+00 0.  1.
         21   -1    0    0  502  503 -0.00000000000E+00 -0.00000000000E+00 -0.60319121842E+03  0.60319121842E+03  0.00000000000E+00 0. -1.
          6    1    1    2  501    0 -0.12991252896E+03 -0.11530349258E+03  0.26651167354E+03  0.36211825791E+03  0.17300000000E+03 0.  1.
         -6    1    1    2    0  503  0.12991252896E+03  0.11530349258E+03 -0.52833424099E+03  0.58244161148E+03  0.17300000000E+03 0. -1.
<mgrwt>
<rscale>  2 0.24515538E+03</rscale>
<asrwt>0</asrwt>
<pdfrwt beam="1">  1       21 0.52518255E-01 0.24515538E+03</pdfrwt>
<pdfrwt beam="2">  1       21 0.92798648E-01 0.24515538E+03</pdfrwt>
<totfact> 0.32313033E+03</totfact>
</mgrwt>
</event>
<event>
 4    1  0.4199481E+000  0.2014534E+03  0.7546771E-02  0.1148519E+00
         21   -1    0    0  501  502  0.00000000000E+00  0.00000000000E+00  0.11913277544E+04  0.11913277544E+04  0.00000000000E+00 0. -1.
         21   -1    0    0  502  503 -0.00000000000E+00 -0.00000000000E+00 -0.35282317883E+02  0.35282317883E+02  0.00000000000E+00 0.  1.
          6    1    1    2  501    0 -0.57083559840E+02 -0.85999677908E+02  0.69190746425E+03  0.72063820082E+03  0.17300000000E+03 0. -1.
         -6    1    1    2    0  503  0.57083559840E+02  0.85999677908E+02  0.46413797224E+03  0.50597187143E+03  0.17300000000E+03 0.  1.
<mgrwt>
<rscale>  2 0.20145341E+03</rscale>
<asrwt>0</asrwt>
<pdfrwt beam="1">  1       21 0.18328116E+00 0.20145341E+03</pdfrwt>
<pdfrwt beam="2">  1       21 0.54280498E-02 0.20145341E+03</pdfrwt>
<totfact> 0.40218109E+04</totfact>
</mgrwt>
</event>
<event>
 4    1  0.4199481E+000  0.2409328E+03  0.7546771E-02  0.1119173E+00
         21   -1    0    0  501  502  0.00000000000E+00  0.00000000000E+00  0.19463358969E+03  0.19463358969E+03  0.00000000000E+00 0.  1.
         21   -1    0    0  502  503 -0.00000000000E+00 -0.00000000000E+00 -0.32450860011E+03  0.32450860011E+03  0.00000000000E+00 0. -1.
          6    1    1    2  501    0 -0.16042993506E+03 -0.48804391756E+02  0.89063734627E+01  0.24109739983E+03  0.17300000000E+03 0.  1.
         -6    1    1    2    0  503  0.16042993506E+03  0.48804391756E+02 -0.13878138388E+03  0.27804478997E+03  0.17300000000E+03 0.  1.
<mgrwt>
<rscale>  2 0.24093284E+03</rscale>
<asrwt>0</asrwt>
<pdfrwt beam="1">  1       21 0.29943629E-01 0.24093284E+03</pdfrwt>
<pdfrwt beam="2">  1       21 0.49924400E-01 0.24093284E+03</pdfrwt>
<totfact> 0.39948818E+04</totfact>
</mgrwt>
</event>
<event>
 4    1  0.4199481E+000  0.2544353E+03  0.7546771E-02  0.1110533E+00
         21   -1    0    0  503  502  0.00000000000E+00  0.00000000000E+00  0.28495574977E+03  0.28495574977E+03  0.00000000000E+00 0. -1.
         21   -1    0    0  501  503 -0.00000000000E+00 -0.00000000000E+00 -0.22798943213E+03  0.22798943213E+03  0.00000000000E+00 0. -1.
          6    1    1    2  501    0 -0.18641563367E+03  0.75845563213E+01  0.13236762199E+02  0.25477936699E+03  0.17300000000E+03 0. -1.
         -6    1    1    2    0  502  0.18641563367E+03 -0.75845563213E+01  0.43729555445E+02  0.25816581491E+03  0.17300000000E+03 0. -1.
<mgrwt>
<rscale>  2 0.25443528E+03</rscale>
<asrwt>0</asrwt>
<pdfrwt beam="1">  1       21 0.43839346E-01 0.25443528E+03</pdfrwt>
<pdfrwt beam="2">  1       21 0.35075297E-01 0.25443528E+03</pdfrwt>
<totfact> 0.38055138E+04</totfact>
</mgrwt>
</event>
<event>
 4    1  0.4199481E+000  0.3236075E+03  0.7546771E-02  0.1074001E+00
         21   -1    0    0  501  502  0.00000000000E+00  0.00000000000E+00  0.14767625307E+03  0.14767625307E+03  0.00000000000E+00 0.  1.
         21   -1    0    0  502  503 -0.00000000000E+00 -0.00000000000E+00 -0.77459205319E+03  0.77459205319E+03  0.00000000000E+00 0. -1.
          6    1    1    2  501    0 -0.13283966371E+03 -0.23905325705E+03 -0.17940331921E+03  0.37000998217E+03  0.17300000000E+03 0. -1.
         -6    1    1    2    0  503  0.13283966371E+03  0.23905325705E+03 -0.44751248091E+03  0.55225832409E+03  0.17300000000E+03 0.  1.
<mgrwt>
<rscale>  2 0.32360753E+03</rscale>
<asrwt>0</asrwt>
<pdfrwt beam="1">  1       21 0.22719424E-01 0.32360753E+03</pdfrwt>
<pdfrwt beam="2">  1       21 0.11916801E+00 0.32360753E+03</pdfrwt>
<totfact> 0.90550000E+03</totfact>
</mgrwt>
</event>
<event>
 4    1  0.4199481E+000  0.2172306E+03  0.7546771E-02  0.1135965E+00
         21   -1    0    0  503  502  0.00000000000E+00  0.00000000000E+00  0.53932136106E+03  0.53932136106E+03  0.00000000000E+00 0. -1.
         21   -1    0    0  501  503 -0.00000000000E+00 -0.00000000000E+00 -0.17231635713E+03  0.17231635713E+03  0.00000000000E+00 0.  1.
          6    1    1    2  501    0 -0.57863086104E+02  0.11794913228E+03 -0.66136573414E+02  0.22707527580E+03  0.17300000000E+03 0. -1.
         -6    1    1    2    0  502  0.57863086104E+02 -0.11794913228E+03  0.43314157735E+03  0.48456244238E+03  0.17300000000E+03 0. -1.
<mgrwt>
<rscale>  2 0.21723060E+03</rscale>
<asrwt>0</asrwt>
<pdfrwt beam="1">  1       21 0.82972516E-01 0.21723060E+03</pdfrwt>
<pdfrwt beam="2">  1       21 0.26510209E-01 0.21723060E+03</pdfrwt>
<totfact> 0.16883076E+04</totfact>
</mgrwt>
</event>
<event>
 4    1  0.4199481E+000  0.1804995E+03  0.7546771E-02  0.1167321E+00
         21   -1    0    0  501  502  0.00000000000E+00  0.00000000000E+00  0.47649950859E+02  0.47649950859E+02  0.00000000000E+00 0.  1.
         21   -1    0    0  502  503 -0.00000000000E+00 -0.00000000000E+00 -0.95697727665E+03  0.95697727665E+03  0.00000000000E+00 0.  1.
          6    1    1    2  501    0  0.51471966595E+02  0.13011119212E+01 -0.18625524595E+03  0.25936667651E+03  0.17300000000E+03 0. -1.
         -6    1    1    2    0  503 -0.51471966595E+02 -0.13011119212E+01 -0.72307207984E+03  0.74526055100E+03  0.17300000000E+03 0. -1.
<mgrwt>
<rscale>  2 0.18049946E+03</rscale>
<asrwt>0</asrwt>
<pdfrwt beam="1">  1       21 0.73307617E-02 0.18049946E+03</pdfrwt>
<pdfrwt beam="2">  1       21 0.14722727E+00 0.18049946E+03</pdfrwt>
<totfact> 0.44145781E+04</totfact>
</mgrwt>
</event>
<event>
 4    1  0.4199481E+000  0.2884252E+03  0.7546771E-02  0.1091174E+00
         21   -1    0    0  503  502  0.00000000000E+00  0.00000000000E+00  0.62232117137E+03  0.62232117137E+03  0.00000000000E+00 0.  1.
         21   -1    0    0  501  503 -0.00000000000E+00 -0.00000000000E+00 -0.14667858366E+03  0.14667858366E+03  0.00000000000E+00 0.  1.
          6    1    1    2  501    0  0.55828427894E+02 -0.22392696990E+03  0.12333965713E+03  0.31369056765E+03  0.17300000000E+03 0.  1.
         -6    1    1    2    0  502 -0.55828427894E+02  0.22392696990E+03  0.35230293058E+03  0.45530918738E+03  0.17300000000E+03 0.  1.
<mgrwt>
<rscale>  2 0.28842521E+03</rscale>
<asrwt>0</asrwt>
<pdfrwt beam="1">  1       21 0.95741717E-01 0.28842521E+03</pdfrwt>
<pdfrwt beam="2">  1       21 0.22565936E-01 0.28842521E+03</pdfrwt>
<totfact> 0.15890903E+04</totfact>
</mgrwt>
</event>
<event>
 4    1  0.4199481E+000  0.1991906E+03  0.7546771E-02  0.1150424E+00
         21   -1    0    0  503  502  0.00000000000E+00  0.00000000000E+00  0.61014185688E+02  0.61014185688E+02  0.00000000000E+00 0. -1.
         21   -1    0    0  501  503 -0.00000000000E+00 -0.00000000000E+00 -0.13448688571E+04  0.13448688571E+04  0.00000000000E+00 0. -1.
          6    1    1    2  501    0  0.96987848504E+02 -0.18473485202E+02 -0.11471002075E+04  0.11642662061E+04  0.17300000000E+03 0. -1.
         -6    1    1    2    0  502 -0.96987848504E+02  0.18473485202E+02 -0.13675446390E+03  0.24161683677E+03  0.17300000000E+03 0. -1.
<mgrwt>
<rscale>  2 0.19919064E+03</rscale>
<asrwt>0</asrwt>
<pdfrwt beam="1">  1       21 0.93867987E-02 0.19919064E+03</pdfrwt>
<pdfrwt beam="2">  1       21 0.20690288E+00 0.19919064E+03</pdfrwt>
<totfact> 0.10949174E+04</totfact>
</mgrwt>
</event>
<event>
 4    1  0.4199481E+000  0.1923443E+03  0.7546771E-02  0.1156364E+00
         21   -1    0    0  501  502  0.00000000000E+00  0.00000000000E+00  0.11046330720E+03  0.11046330720E+03  0.00000000000E+00 0. -1.
         21   -1    0    0  502  503 -0.00000000000E+00 -0.00000000000E+00 -0.43461779820E+03  0.43461779820E+03  0.00000000000E+00 0. -1.
          6    1    1    2  501    0 -0.55019929515E+02  0.63562074961E+02 -0.31544050772E+02  0.19491371721E+03  0.17300000000E+03 0. -1.
         -6    1    1    2    0  503  0.55019929515E+02 -0.63562074961E+02 -0.29261044023E+03  0.35016738819E+03  0.17300000000E+03 0. -1.
<mgrwt>
<rscale>  2 0.19234430E+03</rscale>
<asrwt>0</asrwt>
<pdfrwt beam="1">  1       21 0.16994355E-01 0.19234430E+03</pdfrwt>
<pdfrwt beam="2">  1       21 0.66864276E-01 0.19234430E+03</pdfrwt>
<totfact> 0.63977044E+04</totfact>
</mgrwt>
</event>
<event>
 4    1  0.4199481E+000  0.1867916E+03  0.7546771E-02  0.1161387E+00
         21   -1    0    0  501  502  0.00000000000E+00  0.00000000000E+00  0.31260073085E+03  0.31260073085E+03  0.00000000000E+00 0.  1.
         21   -1    0    0  502  503 -0.00000000000E+00 -0.00000000000E+00 -0.14953346898E+03  0.14953346898E+03  0.00000000000E+00 0.  1.
          6    1    1    2  501    0  0.16299433146E+02 -0.68530404545E+02  0.19789033868E+03  0.27212437232E+03  0.17300000000E+03 0.  1.
         -6    1    1    2    0  503 -0.16299433146E+02  0.68530404545E+02 -0.34823076811E+02  0.19000982750E+03  0.17300000000E+03 0.  1.
<mgrwt>
<rscale>  2 0.18679156E+03</rscale>
<asrwt>0</asrwt>
<pdfrwt beam="1">  1       21 0.48092420E-01 0.18679156E+03</pdfrwt>
<pdfrwt beam="2">  1       21 0.23005149E-01 0.18679156E+03</pdfrwt>
<totfact> 0.73474568E+04</totfact>
</mgrwt>
</event>
<event>
 4    1  0.4199481E+000  0.1757592E+03  0.7546771E-02  0.1171972E+00
         21   -1    0    0  501  502  0.00000000000E+00  0.00000000000E+00  0.40959461336E+03  0.40959461336E+03  0.00000000000E+00 0. -1.
         21   -1    0    0  502  503 -0.00000000000E+00 -0.00000000000E+00 -0.10988139128E+03  0.10988139128E+03  0.00000000000E+00 0. -1.
          6    1    1    2  501    0 -0.23396895250E+02 -0.20368766100E+02  0.29531702363E+03  0.34366181892E+03  0.17300000000E+03 0. -1.
         -6    1    1    2    0  503  0.23396895250E+02  0.20368766100E+02  0.43961984463E+01  0.17581418572E+03  0.17300000000E+03 0. -1.
<mgrwt>
<rscale>  2 0.17575921E+03</rscale>
<asrwt>0</asrwt>
<pdfrwt beam="1">  1       21 0.63014555E-01 0.17575921E+03</pdfrwt>
<pdfrwt beam="2">  1       21 0.16904830E-01 0.17575921E+03</pdfrwt>
<totfact> 0.74017042E+04</totfact>
</mgrwt>
</event>
<event>
 4    1  0.4199481E+000  0.1920284E+03  0.7546771E-02  0.1156644E+00
         21   -1    0    0  501  502  0.00000000000E+00  0.00000000000E+00  0.24323608046E+03  0.24323608046E+03  0.00000000000E+00 0.  1.
         21   -1    0    0  502  503 -0.00000000000E+00 -0.00000000000E+00 -0.15174554584E+03  0.15174554584E+03  0.00000000000E+00 0. -1.
          6    1    1    2  501    0 -0.71004176466E+02  0.43638308262E+02  0.39655390307E+02  0.19608020044E+03  0.17300000000E+03 0. -1.
         -6    1    1    2    0  503  0.71004176466E+02 -0.43638308262E+02  0.51835144310E+02  0.19890142586E+03  0.17300000000E+03 0.  1.
<mgrwt>
<rscale>  2 0.19202837E+03</rscale>
<asrwt>0</asrwt>
<pdfrwt beam="1">  1       21 0.37420936E-01 0.19202837E+03</pdfrwt>
<pdfrwt beam="2">  1       21 0.23345469E-01 0.19202837E+03</pdfrwt>
<totfact> 0.11886669E+05</totfact>
</mgrwt>
</event>
<event>
 4    1  0.4199481E+000  0.3677115E+03  0.7546771E-02  0.1055571E+00
         21   -1    0    0  501  502  0.00000000000E+00  0.00000000000E+00  0.14366898583E+04  0.14366898583E+04  0.00000000000E+00 0.  1.
         21   -1    0    0  502  503 -0.00000000000E+00 -0.00000000000E+00 -0.29070711937E+03  0.29070711937E+03  0.00000000000E+00 0.  1.
          6    1    1    2  501    0 -0.24005420776E+02  0.32358384323E+03  0.12832542987E+04  0.13348982579E+04  0.17300000000E+03 0.  1.
         -6    1    1    2    0  503  0.24005420776E+02 -0.32358384323E+03 -0.13727155984E+03  0.39249871970E+03  0.17300000000E+03 0.  1.
<mgrwt>
<rscale>  2 0.36771152E+03</rscale>
<asrwt>0</asrwt>
<pdfrwt beam="1">  1       21 0.22102920E+00 0.36771152E+03</pdfrwt>
<pdfrwt beam="2">  1       21 0.44724173E-01 0.36771152E+03</pdfrwt>
<totfact> 0.40630352E+02</totfact>
</mgrwt>
</event>
<event>
 4    1  0.4199481E+000  0.1873617E+03  0.7546771E-02  0.1160863E+00
         21   -1    0    0  503  502  0.00000000000E+00  0.00000000000E+00  0.24261515136E+03  0.24261515136E+03  0.00000000000E+00 0. -1.
         21   -1    0    0  501  503 -0.00000000000E+00 -0.00000000000E+00 -0.18368393272E+03  0.18368393272E+03  0.00000000000E+00 0. -1.
          6    1    1    2  501    0 -0.34744295056E+02 -0.62993945469E+02 -0.68740333117E+02  0.19957363704E+03  0.17300000000E+03 0. -1.
         -6    1    1    2    0  502  0.34744295056E+02  0.62993945469E+02  0.12767155176E+03  0.22672544704E+03  0.17300000000E+03 0. -1.
<mgrwt>
<rscale>  2 0.18736169E+03</rscale>
<asrwt>0</asrwt>
<pdfrwt beam="1">  1       21 0.37325408E-01 0.18736169E+03</pdfrwt>
<pdfrwt beam="2">  1       21 0.28259067E-01 0.18736169E+03</pdfrwt>
<totfact> 0.83027319E+04</totfact>
</mgrwt>
</event>
<event>
 4    1  0.4199481E+000  0.2033401E+03  0.7546771E-02  0.1146951E+00
         21   -1    0    0  501  502  0.00000000000E+00  0.00000000000E+00  0.17730070080E+03  0.17730070080E+03  0.00000000000E+00 0. -1.
         21   -1    0    0  502  503 -0.00000000000E+00 -0.00000000000E+00 -0.25073550974E+03  0.25073550974E+03  0.00000000000E+00 0. -1.
          6    1    1    2  501    0  0.78566557017E+02  0.72425645949E+02  0.19874728477E+02  0.20430903775E+03  0.17300000000E+03 0. -1.
         -6    1    1    2    0  503 -0.78566557017E+02 -0.72425645949E+02 -0.93309537419E+02  0.22372717279E+03  0.17300000000E+03 0. -1.
<mgrwt>
<rscale>  2 0.20334006E+03</rscale>
<asrwt>0</asrwt>
<pdfrwt beam="1">  1       21 0.27277031E-01 0.20334006E+03</pdfrwt>
<pdfrwt beam="2">  1       21 0.38574693E-01 0.20334006E+03</pdfrwt>
<totfact> 0.82667359E+04</totfact>
</mgrwt>
</event>
<event>
 4    1  0.4199481E+000  0.2433098E+03  0.7546771E-02  0.1117607E+00
         21   -1    0    0  503  502  0.00000000000E+00  0.00000000000E+00  0.17631334707E+03  0.17631334707E+03  0.00000000000E+00 0.  1.
         21   -1    0    0  501  503 -0.00000000000E+00 -0.00000000000E+00 -0.38728898947E+03  0.38728898947E+03  0.00000000000E+00 0.  1.
          6    1    1    2  501    0  0.10707046799E+03  0.13344129886E+03 -0.20827392225E+03  0.32027752348E+03  0.17300000000E+03 0.  1.
         -6    1    1    2    0  502 -0.10707046799E+03 -0.13344129886E+03 -0.27017201551E+01  0.24332481306E+03  0.17300000000E+03 0.  1.
<mgrwt>
<rscale>  2 0.24330981E+03</rscale>
<asrwt>0</asrwt>
<pdfrwt beam="1">  1       21 0.27125130E-01 0.24330981E+03</pdfrwt>
<pdfrwt beam="2">  1       21 0.59582921E-01 0.24330981E+03</pdfrwt>
<totfact> 0.33222077E+04</totfact>
</mgrwt>
</event>
<event>
 4    1  0.4199481E+000  0.2030107E+03  0.7546771E-02  0.1147223E+00
         21   -1    0    0  501  502  0.00000000000E+00  0.00000000000E+00  0.53888986442E+02  0.53888986442E+02  0.00000000000E+00 0. -1.
         21   -1    0    0  502  503 -0.00000000000E+00 -0.00000000000E+00 -0.76573296424E+03  0.76573296424E+03  0.00000000000E+00 0. -1.
          6    1    1    2  501    0 -0.90909522773E+02  0.54952753291E+02 -0.34148276144E+03  0.39727046553E+03  0.17300000000E+03 0. -1.
         -6    1    1    2    0  503  0.90909522773E+02 -0.54952753291E+02 -0.37036121637E+03  0.42235148515E+03  0.17300000000E+03 0. -1.
<mgrwt>
<rscale>  2 0.20301071E+03</rscale>
<asrwt>0</asrwt>
<pdfrwt beam="1">  1       21 0.82906132E-02 0.20301071E+03</pdfrwt>
<pdfrwt beam="2">  1       21 0.11780507E+00 0.20301071E+03</pdfrwt>
<totfact> 0.62005663E+04</totfact>
</mgrwt>
</event>
<event>
 4    1  0.4199481E+000  0.1970242E+03  0.7546771E-02  0.1152274E+00
         21   -1    0    0  501  502  0.00000000000E+00  0.00000000000E+00  0.26266875992E+03  0.26266875992E+03  0.00000000000E+00 0. -1.
         21   -1    0    0  502  503 -0.00000000000E+00 -0.00000000000E+00 -0.15213845163E+03  0.15213845163E+03  0.00000000000E+00 0. -1.
          6    1    1    2  501    0  0.10664302115E+02 -0.93679190846E+02  0.90349285966E+02  0.21675218940E+03  0.17300000000E+03 0. -1.
         -6    1    1    2    0  503 -0.10664302115E+02  0.93679190846E+02  0.20181022322E+02  0.19805502215E+03  0.17300000000E+03 0. -1.
<mgrwt>
<rscale>  2 0.19702416E+03</rscale>
<asrwt>0</asrwt>
<pdfrwt beam="1">  1       21 0.40410578E-01 0.19702416E+03</pdfrwt>
<pdfrwt beam="2">  1       21 0.23405916E-01 0.19702416E+03</pdfrwt>
<totfact> 0.10113358E+05</totfact>
</mgrwt>
</event>
<event>
 4    1  0.4199481E+000  0.2230896E+03  0.7546771E-02  0.1131600E+00
         21   -1    0    0  501  502  0.00000000000E+00  0.00000000000E+00  0.13619475432E+04  0.13619475432E+04  0.00000000000E+00 0.  1.
         21   -1    0    0  502  503 -0.00000000000E+00 -0.00000000000E+00 -0.55358276301E+02  0.55358276301E+02  0.00000000000E+00 0.  1.
          6    1    1    2  501    0 -0.13630663647E+03  0.35503149762E+02  0.10664404182E+04  0.10895247305E+04  0.17300000000E+03 0.  1.
         -6    1    1    2    0  503  0.13630663647E+03 -0.35503149762E+02  0.24014884875E+03  0.32778108906E+03  0.17300000000E+03 0.  1.
<mgrwt>
<rscale>  2 0.22308961E+03</rscale>
<asrwt>0</asrwt>
<pdfrwt beam="1">  1       21 0.20953037E+00 0.22308961E+03</pdfrwt>
<pdfrwt beam="2">  1       21 0.85166589E-02 0.22308961E+03</pdfrwt>
<totfact> 0.12267737E+04</totfact>
</mgrwt>
</event>
<event>
 4    1  0.4199481E+000  0.1807701E+03  0.7546771E-02  0.1167060E+00
         21   -1    0    0  501  502  0.00000000000E+00  0.00000000000E+00  0.21291237539E+03  0.21291237539E+03  0.00000000000E+00 0.  1.
         21   -1    0    0  502  503 -0.00000000000E+00 -0.00000000000E+00 -0.20099397105E+03  0.20099397105E+03  0.00000000000E+00 0.  1.
          6    1    1    2  501    0  0.32898782892E+02 -0.40822594489E+02  0.10658069362E+03  0.20985056204E+03  0.17300000000E+03 0.  1.
         -6    1    1    2    0  503 -0.32898782892E+02  0.40822594489E+02 -0.94662289275E+02  0.20405578440E+03  0.17300000000E+03 0.  1.
<mgrwt>
<rscale>  2 0.18077006E+03</rscale>
<asrwt>0</asrwt>
<pdfrwt beam="1">  1       21 0.32755750E-01 0.18077006E+03</pdfrwt>
<pdfrwt beam="2">  1       21 0.30922149E-01 0.18077006E+03</pdfrwt>
<totfact> 0.90525893E+04</totfact>
</mgrwt>
</event>
<event>
 4    1  0.4199481E+000  0.1832109E+03  0.7546771E-02  0.1164731E+00
         21   -1    0    0  501  502  0.00000000000E+00  0.00000000000E+00  0.12312038034E+03  0.12312038034E+03  0.00000000000E+00 0. -1.
         21   -1    0    0  502  503 -0.00000000000E+00 -0.00000000000E+00 -0.48517849948E+03  0.48517849948E+03  0.00000000000E+00 0. -1.
          6    1    1    2  501    0 -0.55236790613E+02  0.24210274808E+02  0.20281168332E+02  0.18433004701E+03  0.17300000000E+03 0. -1.
         -6    1    1    2    0  503  0.55236790613E+02 -0.24210274808E+02 -0.38233928748E+03  0.42396883281E+03  0.17300000000E+03 0. -1.
<mgrwt>
<rscale>  2 0.18321092E+03</rscale>
<asrwt>0</asrwt>
<pdfrwt beam="1">  1       21 0.18941596E-01 0.18321092E+03</pdfrwt>
<pdfrwt beam="2">  1       21 0.74642848E-01 0.18321092E+03</pdfrwt>
<totfact> 0.41243766E+04</totfact>
</mgrwt>
</event>
<event>
 4    1  0.4199481E+000  0.2269144E+03  0.7546771E-02  0.1128831E+00
         21   -1    0    0  503  502  0.00000000000E+00  0.00000000000E+00  0.50021206507E+03  0.50021206507E+03  0.00000000000E+00 0. -1.
         21   -1    0    0  501  503 -0.00000000000E+00 -0.00000000000E+00 -0.10440223090E+03  0.10440223090E+03  0.00000000000E+00 0.  1.
          6    1    1    2  501    0  0.11463985304E+03  0.91754313960E+02  0.23372278075E+03  0.32575525825E+03  0.17300000000E+03 0. -1.
         -6    1    1    2    0  502 -0.11463985304E+03 -0.91754313960E+02  0.16208705341E+03  0.27885903772E+03  0.17300000000E+03 0. -1.
<mgrwt>
<rscale>  2 0.22691441E+03</rscale>
<asrwt>0</asrwt>
<pdfrwt beam="1">  1       21 0.76955701E-01 0.22691441E+03</pdfrwt>
<pdfrwt beam="2">  1       21 0.16061882E-01 0.22691441E+03</pdfrwt>
<totfact> 0.51127524E+04</totfact>
</mgrwt>
</event>
<event>
 4    1  0.4199481E+000  0.1920318E+03  0.7546771E-02  0.1156641E+00
         21   -1    0    0  503  502  0.00000000000E+00  0.00000000000E+00  0.38905938364E+03  0.38905938364E+03  0.00000000000E+00 0.  1.
         21   -1    0    0  501  503 -0.00000000000E+00 -0.00000000000E+00 -0.97655778946E+02  0.97655778946E+02  0.00000000000E+00 0. -1.
          6    1    1    2  501    0 -0.20952451843E+02  0.80673506037E+02  0.10396240406E+03  0.21836758292E+03  0.17300000000E+03 0. -1.
         -6    1    1    2    0  502  0.20952451843E+02 -0.80673506037E+02  0.18744120064E+03  0.26834757967E+03  0.17300000000E+03 0.  1.
<mgrwt>
<rscale>  2 0.19203182E+03</rscale>
<asrwt>0</asrwt>
<pdfrwt beam="1">  1       21 0.59855289E-01 0.19203182E+03</pdfrwt>
<pdfrwt beam="2">  1       21 0.15023966E-01 0.19203182E+03</pdfrwt>
<totfact> 0.10190943E+05</totfact>
</mgrwt>
</event>
<event>
 4    1  0.4199481E+000  0.1796220E+03  0.7546771E-02  0.1168169E+00
         21   -1    0    0  501  502  0.00000000000E+00  0.00000000000E+00  0.33223460707E+03  0.33223460707E+03  0.00000000000E+00 0. -1.
         21   -1    0    0  502  503 -0.00000000000E+00 -0.00000000000E+00 -0.15343706922E+03  0.15343706922E+03  0.00000000000E+00 0. -1.
          6    1    1    2  501    0 -0.48194383550E+02 -0.35180070274E+01  0.23652741884E+03  0.29700049636E+03  0.17300000000E+03 0.  1.
         -6    1    1    2    0  503  0.48194383550E+02  0.35180070274E+01 -0.57729880986E+02  0.18867117993E+03  0.17300000000E+03 0.  1.
<mgrwt>
<rscale>  2 0.17962203E+03</rscale>
<asrwt>0</asrwt>
<pdfrwt beam="1">  1       21 0.51113016E-01 0.17962203E+03</pdfrwt>
<pdfrwt beam="2">  1       21 0.23605703E-01 0.17962203E+03</pdfrwt>
<totfact> 0.61840732E+04</totfact>
</mgrwt>
</event>
<event>
 4    1  0.4199481E+000  0.4000104E+03  0.7546771E-02  0.1043776E+00
         21   -1    0    0  501  502  0.00000000000E+00  0.00000000000E+00  0.18016406846E+03  0.18016406846E+03  0.00000000000E+00 0. -1.
         21   -1    0    0  502  503 -0.00000000000E+00 -0.00000000000E+00 -0.93784834526E+03  0.93784834526E+03  0.00000000000E+00 0.  1.
          6    1    1    2  501    0  0.99868224319E+02 -0.34656267673E+03 -0.25012773428E+03  0.47177561890E+03  0.17300000000E+03 0.  1.
         -6    1    1    2    0  503 -0.99868224319E+02  0.34656267673E+03 -0.50755654251E+03  0.64623679482E+03  0.17300000000E+03 0.  1.
<mgrwt>
<rscale>  2 0.40001044E+03</rscale>
<asrwt>0</asrwt>
<pdfrwt beam="1">  1       21 0.27717549E-01 0.40001044E+03</pdfrwt>
<pdfrwt beam="2">  1       21 0.14428436E+00 0.40001044E+03</pdfrwt>
<totfact> 0.36331138E+03</totfact>
</mgrwt>
</event>
<event>
 4    1  0.4199481E+000  0.1938747E+03  0.7546771E-02  0.1155012E+00
         21   -1    0    0  503  502  0.00000000000E+00  0.00000000000E+00  0.25676448350E+02  0.25676448350E+02  0.00000000000E+00 0.  1.
         21   -1    0    0  501  503 -0.00000000000E+00 -0.00000000000E+00 -0.14663429762E+04  0.14663429762E+04  0.00000000000E+00 0. -1.
          6    1    1    2  501    0 -0.85534211931E+02 -0.18500808165E+02 -0.75087321434E+03  0.77549852697E+03  0.17300000000E+03 0.  1.
         -6    1    1    2    0  502  0.85534211931E+02  0.18500808165E+02 -0.68979331354E+03  0.71652089762E+03  0.17300000000E+03 0.  1.
<mgrwt>
<rscale>  2 0.19387465E+03</rscale>
<asrwt>0</asrwt>
<pdfrwt beam="1">  1       21 0.39502237E-02 0.19387465E+03</pdfrwt>
<pdfrwt beam="2">  1       21 0.22559118E+00 0.19387465E+03</pdfrwt>
<totfact> 0.37179796E+04</totfact>
</mgrwt>
</event>
<event>
 4    1  0.4199481E+000  0.1772048E+03  0.7546771E-02  0.1170536E+00
         21   -1    0    0  503  502  0.00000000000E+00  0.00000000000E+00  0.23759679477E+03  0.23759679477E+03  0.00000000000E+00 0. -1.
         21   -1    0    0  501  503 -0.00000000000E+00 -0.00000000000E+00 -0.13304998392E+03  0.13304998392E+03  0.00000000000E+00 0. -1.
          6    1    1    2  501    0 -0.26474599680E+02 -0.27778494311E+02  0.37143529559E+02  0.18105576755E+03  0.17300000000E+03 0. -1.
         -6    1    1    2    0  502  0.26474599680E+02  0.27778494311E+02  0.67403281294E+02  0.18959101114E+03  0.17300000000E+03 0. -1.
<mgrwt>
<rscale>  2 0.17720482E+03</rscale>
<asrwt>0</asrwt>
<pdfrwt beam="1">  1       21 0.36553353E-01 0.17720482E+03</pdfrwt>
<pdfrwt beam="2">  1       21 0.20469228E-01 0.17720482E+03</pdfrwt>
<totfact> 0.16031534E+05</totfact>
</mgrwt>
</event>
<event>
 4    1  0.4199481E+000  0.2671619E+03  0.7546771E-02  0.1102915E+00
         21   -1    0    0  501  502  0.00000000000E+00  0.00000000000E+00  0.19378367889E+04  0.19378367889E+04  0.00000000000E+00 0.  1.
         21   -1    0    0  502  503 -0.00000000000E+00 -0.00000000000E+00 -0.39994052796E+02  0.39994052796E+02  0.00000000000E+00 0. -1.
          6    1    1    2  501    0 -0.10588091220E+03  0.17388424520E+03  0.67088139452E+03  0.72212003421E+03  0.17300000000E+03 0. -1.
         -6    1    1    2    0  503  0.10588091220E+03 -0.17388424520E+03  0.12269613416E+04  0.12557108075E+04  0.17300000000E+03 0.  1.
<mgrwt>
<rscale>  2 0.26716193E+03</rscale>
<asrwt>0</asrwt>
<pdfrwt beam="1">  1       21 0.29812866E+00 0.26716193E+03</pdfrwt>
<pdfrwt beam="2">  1       21 0.61529327E-02 0.26716193E+03</pdfrwt>
<totfact> 0.61519772E+03</totfact>
</mgrwt>
</event>
<event>
 4    1  0.4199481E+000  0.1783012E+03  0.7546771E-02  0.1169457E+00
         21   -1    0    0  503  502  0.00000000000E+00  0.00000000000E+00  0.48282056128E+02  0.48282056128E+02  0.00000000000E+00 0. -1.
         21   -1    0    0  501  503 -0.00000000000E+00 -0.00000000000E+00 -0.92140577001E+03  0.92140577001E+03  0.00000000000E+00 0. -1.
          6    1    1    2  501    0  0.43154517652E+02 -0.70894381849E-01 -0.69557265979E+03  0.71806172609E+03  0.17300000000E+03 0. -1.
         -6    1    1    2    0  502 -0.43154517652E+02  0.70894381849E-01 -0.17755105410E+03  0.25162610006E+03  0.17300000000E+03 0. -1.
<mgrwt>
<rscale>  2 0.17830120E+03</rscale>
<asrwt>0</asrwt>
<pdfrwt beam="1">  1       21 0.74280094E-02 0.17830120E+03</pdfrwt>
<pdfrwt beam="2">  1       21 0.14175472E+00 0.17830120E+03</pdfrwt>
<totfact> 0.47675158E+04</totfact>
</mgrwt>
</event>
<event>
 4    1  0.4199481E+000  0.1735823E+03  0.7546771E-02  0.1174163E+00
         21   -1    0    0  503  502  0.00000000000E+00  0.00000000000E+00  0.66355805952E+03  0.66355805952E+03  0.00000000000E+00 0. -1.
         21   -1    0    0  501  503 -0.00000000000E+00 -0.00000000000E+00 -0.33430799713E+03  0.33430799713E+03  0.00000000000E+00 0. -1.
          6    1    1    2  501    0 -0.53257905435E+01  0.13169910055E+02 -0.29918771396E+03  0.34589608087E+03  0.17300000000E+03 0. -1.
         -6    1    1    2    0  502  0.53257905435E+01 -0.13169910055E+02  0.62843777635E+03  0.65196997578E+03  0.17300000000E+03 0. -1.
<mgrwt>
<rscale>  2 0.17358229E+03</rscale>
<asrwt>0</asrwt>
<pdfrwt beam="1">  1       21 0.10208586E+00 0.17358229E+03</pdfrwt>
<pdfrwt beam="2">  1       21 0.51432000E-01 0.17358229E+03</pdfrwt>
<totfact> 0.28559912E+03</totfact>
</mgrwt>
</event>
<event>
 4    1  0.4199481E+000  0.2310133E+03  0.7546771E-02  0.1125929E+00
         21   -1    0    0  503  502  0.00000000000E+00  0.00000000000E+00  0.83235562393E+03  0.83235562393E+03  0.00000000000E+00 0.  1.
         21   -1    0    0  501  503 -0.00000000000E+00 -0.00000000000E+00 -0.73565226707E+02  0.73565226707E+02  0.00000000000E+00 0. -1.
          6    1    1    2  501    0  0.79601891857E+02  0.13077347671E+03  0.21705493728E+03  0.31698581860E+03  0.17300000000E+03 0. -1.
         -6    1    1    2    0  502 -0.79601891857E+02 -0.13077347671E+03  0.54173545994E+03  0.58893503203E+03  0.17300000000E+03 0.  1.
<mgrwt>
<rscale>  2 0.23101334E+03</rscale>
<asrwt>0</asrwt>
<pdfrwt beam="1">  1       21 0.12805470E+00 0.23101334E+03</pdfrwt>
<pdfrwt beam="2">  1       21 0.11317728E-01 0.23101334E+03</pdfrwt>
<totfact> 0.28612955E+04</totfact>
</mgrwt>
</event>
<event>
 4    1  0.4199481E+000  0.1744102E+03  0.7546771E-02  0.1173325E+00
         21   -1    0    0  503  502  0.00000000000E+00  0.00000000000E+00  0.49477508383E+03  0.49477508383E+03  0.00000000000E+00 0.  1.
         21   -1    0    0  501  503 -0.00000000000E+00 -0.00000000000E+00 -0.78349070713E+02  0.78349070713E+02  0.00000000000E+00 0.  1.
          6    1    1    2  501    0  0.53225993072E+01 -0.21484565485E+02  0.75246085443E+02  0.18994970385E+03  0.17300000000E+03 0.  1.
         -6    1    1    2    0  502 -0.53225993072E+01  0.21484565485E+02  0.34117992767E+03  0.38317445069E+03  0.17300000000E+03 0.  1.
<mgrwt>
<rscale>  2 0.17441020E+03</rscale>
<asrwt>0</asrwt>
<pdfrwt beam="1">  1       21 0.76119241E-01 0.17441020E+03</pdfrwt>
<pdfrwt beam="2">  1       21 0.12053704E-01 0.17441020E+03</pdfrwt>
<totfact> 0.90213498E+04</totfact>
</mgrwt>
</event>
<event>
 4    1  0.4199481E+000  0.2641214E+03  0.7546771E-02  0.1104692E+00
         21   -1    0    0  501  502  0.00000000000E+00  0.00000000000E+00  0.33145602283E+03  0.33145602283E+03  0.00000000000E+00 0.  1.
         21   -1    0    0  502  503 -0.00000000000E+00 -0.00000000000E+00 -0.26697298309E+03  0.26697298309E+03  0.00000000000E+00 0. -1.
          6    1    1    2  501    0 -0.18120094611E+03  0.83650168061E+02  0.16989940231E+03  0.31404767217E+03  0.17300000000E+03 0.  1.
         -6    1    1    2    0  503  0.18120094611E+03 -0.83650168061E+02 -0.10541636256E+03  0.28438133375E+03  0.17300000000E+03 0. -1.
<mgrwt>
<rscale>  2 0.26412144E+03</rscale>
<asrwt>0</asrwt>
<pdfrwt beam="1">  1       21 0.50993235E-01 0.26412144E+03</pdfrwt>
<pdfrwt beam="2">  1       21 0.41072766E-01 0.26412144E+03</pdfrwt>
<totfact> 0.20105742E+04</totfact>
</mgrwt>
</event>
<event>
 4    1  0.4199481E+000  0.1840975E+03  0.7546771E-02  0.1163895E+00
         21   -1    0    0  501  502  0.00000000000E+00  0.00000000000E+00  0.79881598547E+03  0.79881598547E+03  0.00000000000E+00 0.  1.
         21   -1    0    0  502  503 -0.00000000000E+00 -0.00000000000E+00 -0.73771764430E+02  0.73771764430E+02  0.00000000000E+00 0. -1.
          6    1    1    2  501    0 -0.60691172382E+02  0.16716857187E+02  0.64691068763E+03  0.67259594816E+03  0.17300000000E+03 0. -1.
         -6    1    1    2    0  503  0.60691172382E+02 -0.16716857187E+02  0.78133533417E+02  0.19999180174E+03  0.17300000000E+03 0.  1.
<mgrwt>
<rscale>  2 0.18409745E+03</rscale>
<asrwt>0</asrwt>
<pdfrwt beam="1">  1       21 0.12289476E+00 0.18409745E+03</pdfrwt>
<pdfrwt beam="2">  1       21 0.11349503E-01 0.18409745E+03</pdfrwt>
<totfact> 0.32421015E+04</totfact>
</mgrwt>
</event>
<event>
 4    1  0.4199481E+000  0.1879436E+03  0.7546771E-02  0.1160329E+00
         21   -1    0    0  501  502  0.00000000000E+00  0.00000000000E+00  0.63400850901E+02  0.63400850901E+02  0.00000000000E+00 0. -1.
         21   -1    0    0  502  503 -0.00000000000E+00 -0.00000000000E+00 -0.61563476698E+03  0.61563476698E+03  0.00000000000E+00 0. -1.
          6    1    1    2  501    0 -0.60035818465E+02 -0.42302502617E+02 -0.17145715267E+03  0.25440195838E+03  0.17300000000E+03 0. -1.
         -6    1    1    2    0  503  0.60035818465E+02  0.42302502617E+02 -0.38077676341E+03  0.42463365950E+03  0.17300000000E+03 0. -1.
<mgrwt>
<rscale>  2 0.18794361E+03</rscale>
<asrwt>0</asrwt>
<pdfrwt beam="1">  1       21 0.97539772E-02 0.18794361E+03</pdfrwt>
<pdfrwt beam="2">  1       21 0.94713040E-01 0.18794361E+03</pdfrwt>
<totfact> 0.79267560E+04</totfact>
</mgrwt>
</event>
<event>
 4    1  0.4199481E+000  0.2001440E+03  0.7546771E-02  0.1149618E+00
         21   -1    0    0  503  502  0.00000000000E+00  0.00000000000E+00  0.97399930247E+02  0.97399930247E+02  0.00000000000E+00 0.  1.
         21   -1    0    0  501  503 -0.00000000000E+00 -0.00000000000E+00 -0.41952086538E+03  0.41952086538E+03  0.00000000000E+00 0.  1.
          6    1    1    2  501    0  0.18049932164E+02  0.99009185248E+02 -0.12481275371E+03  0.23587251282E+03  0.17300000000E+03 0.  1.
         -6    1    1    2    0  502 -0.18049932164E+02 -0.99009185248E+02 -0.19730818142E+03  0.28104828281E+03  0.17300000000E+03 0.  1.
<mgrwt>
<rscale>  2 0.20014400E+03</rscale>
<asrwt>0</asrwt>
<pdfrwt beam="1">  1       21 0.14984605E-01 0.20014400E+03</pdfrwt>
<pdfrwt beam="2">  1       21 0.64541670E-01 0.20014400E+03</pdfrwt>
<totfact> 0.86708365E+04</totfact>
</mgrwt>
</event>
<event>
 4    1  0.4199481E+000  0.2551746E+03  0.7546771E-02  0.1110078E+00
         21   -1    0    0  503  502  0.00000000000E+00  0.00000000000E+00  0.22476694277E+03  0.22476694277E+03  0.00000000000E+00 0. -1.
         21   -1    0    0  501  503 -0.00000000000E+00 -0.00000000000E+00 -0.29088562048E+03  0.29088562048E+03  0.00000000000E+00 0. -1.
          6    1    1    2  501    0  0.95222978127E+02  0.16160958041E+03 -0.16570875241E+02  0.25571207627E+03  0.17300000000E+03 0. -1.
         -6    1    1    2    0  502 -0.95222978127E+02 -0.16160958041E+03 -0.49547802466E+02  0.25994048698E+03  0.17300000000E+03 0. -1.
<mgrwt>
<rscale>  2 0.25517459E+03</rscale>
<asrwt>0</asrwt>
<pdfrwt beam="1">  1       21 0.34579530E-01 0.25517459E+03</pdfrwt>
<pdfrwt beam="2">  1       21 0.44751634E-01 0.25517459E+03</pdfrwt>
<totfact> 0.37512211E+04</totfact>
</mgrwt>
</event>
<event>
 4    1  0.4199481E+000  0.1815294E+03  0.7546771E-02  0.1166331E+00
         21   -1    0    0  503  502  0.00000000000E+00  0.00000000000E+00  0.70153966396E+03  0.70153966396E+03  0.00000000000E+00 0. -1.
         21   -1    0    0  501  503 -0.00000000000E+00 -0.00000000000E+00 -0.68422331795E+02  0.68422331795E+02  0.00000000000E+00 0. -1.
          6    1    1    2  501    0  0.48192400077E+02  0.26484078767E+02  0.10100541168E+03  0.20773783248E+03  0.17300000000E+03 0. -1.
         -6    1    1    2    0  502 -0.48192400077E+02 -0.26484078767E+02  0.53211192049E+03  0.56222416328E+03  0.17300000000E+03 0. -1.
<mgrwt>
<rscale>  2 0.18152937E+03</rscale>
<asrwt>0</asrwt>
<pdfrwt beam="1">  1       21 0.10792917E+00 0.18152937E+03</pdfrwt>
<pdfrwt beam="2">  1       21 0.10526513E-01 0.18152937E+03</pdfrwt>
<totfact> 0.50954769E+04</totfact>
</mgrwt>
</event>
<event>
 4    1  0.4199481E+000  0.2026551E+03  0.7546771E-02  0.1147518E+00
         21   -1    0    0  501  502  0.00000000000E+00  0.00000000000E+00  0.15082675872E+03  0.15082675872E+03  0.00000000000E+00 0.  1.
         21   -1    0    0  502  503 -0.00000000000E+00 -0.00000000000E+00 -0.35415470214E+03  0.35415470214E+03  0.00000000000E+00 0.  1.
          6    1    1    2  501    0  0.10252855736E+03  0.25059437544E+02  0.19727770441E+02  0.20361302859E+03  0.17300000000E+03 0.  1.
         -6    1    1    2    0  503 -0.10252855736E+03 -0.25059437544E+02 -0.22305571386E+03  0.30136843227E+03  0.17300000000E+03 0.  1.
<mgrwt>
<rscale>  2 0.20265508E+03</rscale>
<asrwt>0</asrwt>
<pdfrwt beam="1">  1       21 0.23204117E-01 0.20265508E+03</pdfrwt>
<pdfrwt beam="2">  1       21 0.54485339E-01 0.20265508E+03</pdfrwt>
<totfact> 0.55269993E+04</totfact>
</mgrwt>
</event>
<event>
 4    1  0.4199481E+000  0.2073501E+03  0.7546771E-02  0.1143682E+00
         21   -1    0    0  501  502  0.00000000000E+00  0.00000000000E+00  0.12484786454E+04  0.12484786454E+04  0.00000000000E+00 0. -1.
         21   -1    0    0  502  503 -0.00000000000E+00 -0.00000000000E+00 -0.44848644850E+02  0.44848644850E+02  0.00000000000E+00 0. -1.
          6    1    1    2  501    0  0.86586887543E+02 -0.74617623993E+02  0.91338797773E+03  0.93662782191E+03  0.17300000000E+03 0. -1.
         -6    1    1    2    0  503 -0.86586887543E+02  0.74617623993E+02  0.29024202281E+03  0.35669946833E+03  0.17300000000E+03 0. -1.
<mgrwt>
<rscale>  2 0.20735014E+03</rscale>
<asrwt>0</asrwt>
<pdfrwt beam="1">  1       21 0.19207361E+00 0.20735014E+03</pdfrwt>
<pdfrwt beam="2">  1       21 0.68997925E-02 0.20735014E+03</pdfrwt>
<totfact> 0.23194232E+04</totfact>
</mgrwt>
</event>
<event>
 4    1  0.4199481E+000  0.2833726E+03  0.7546771E-02  0.1093861E+00
         21   -1    0    0  501  502  0.00000000000E+00  0.00000000000E+00  0.28347546785E+03  0.28347546785E+03  0.00000000000E+00 0. -1.
         21   -1    0    0  502  503 -0.00000000000E+00 -0.00000000000E+00 -0.28539803039E+03  0.28539803039E+03  0.00000000000E+00 0. -1.
          6    1    1    2  501    0  0.54059836448E+02 -0.21782685422E+03  0.23601754889E+02  0.28435373599E+03  0.17300000000E+03 0. -1.
         -6    1    1    2    0  503 -0.54059836448E+02  0.21782685422E+03 -0.25524317423E+02  0.28451976226E+03  0.17300000000E+03 0. -1.
<mgrwt>
<rscale>  2 0.28337255E+03</rscale>
<asrwt>0</asrwt>
<pdfrwt beam="1">  1       21 0.43611610E-01 0.28337255E+03</pdfrwt>
<pdfrwt beam="2">  1       21 0.43907389E-01 0.28337255E+03</pdfrwt>
<totfact> 0.24087476E+04</totfact>
</mgrwt>
</event>
<event>
 4    1  0.4199481E+000  0.2195500E+03  0.7546771E-02  0.1134219E+00
         21   -1    0    0  501  502  0.00000000000E+00  0.00000000000E+00  0.29123205701E+02  0.29123205701E+02  0.00000000000E+00 0. -1.
         21   -1    0    0  502  503 -0.00000000000E+00 -0.00000000000E+00 -0.24777360861E+04  0.24777360861E+04  0.00000000000E+00 0.  1.
          6    1    1    2  501    0 -0.89516161673E+01 -0.13488173233E+03 -0.50208108053E+03  0.54798505872E+03  0.17300000000E+03 0. -1.
         -6    1    1    2    0  503  0.89516161673E+01  0.13488173233E+03 -0.19465317999E+04  0.19588742331E+04  0.17300000000E+03 0.  1.
<mgrwt>
<rscale>  2 0.21955002E+03</rscale>
<asrwt>0</asrwt>
<pdfrwt beam="1">  1       21 0.44804928E-02 0.21955002E+03</pdfrwt>
<pdfrwt beam="2">  1       21 0.38119020E+00 0.21955002E+03</pdfrwt>
<totfact> 0.35572012E+03</totfact>
</mgrwt>
</event>
<event>
 4    1  0.4199481E+000  0.1864010E+03  0.7546771E-02  0.1161748E+00
         21   -1    0    0  503  502  0.00000000000E+00  0.00000000000E+00  0.10384790136E+03  0.10384790136E+03  0.00000000000E+00 0.  1.
         21   -1    0    0  501  503 -0.00000000000E+00 -0.00000000000E+00 -0.36560466308E+03  0.36560466308E+03  0.00000000000E+00 0. -1.
          6    1    1    2  501    0  0.67667086107E+02 -0.15410863384E+02 -0.19925635670E+03  0.27285238672E+03  0.17300000000E+03 0. -1.
         -6    1    1    2    0  502 -0.67667086107E+02  0.15410863384E+02 -0.62500405020E+02  0.19660017772E+03  0.17300000000E+03 0.  1.
<mgrwt>
<rscale>  2 0.18640099E+03</rscale>
<asrwt>0</asrwt>
<pdfrwt beam="1">  1       21 0.15976600E-01 0.18640099E+03</pdfrwt>
<pdfrwt beam="2">  1       21 0.56246871E-01 0.18640099E+03</pdfrwt>
<totfact> 0.10423567E+05</totfact>
</mgrwt>
</event>
<event>
 4    1  0.4199481E+000  0.1932433E+03  0.7546771E-02  0.1155568E+00
         21   -1    0    0  503  502  0.00000000000E+00  0.00000000000E+00  0.61421666058E+02  0.61421666058E+02  0.00000000000E+00 0.  1.
         21   -1    0    0  501  503 -0.00000000000E+00 -0.00000000000E+00 -0.67016487705E+03  0.67016487705E+03  0.00000000000E+00 0.  1.
          6    1    1    2  501    0  0.85295625500E+02 -0.11773983263E+02 -0.41580033277E+03  0.45851159979E+03  0.17300000000E+03 0. -1.
         -6    1    1    2    0  502 -0.85295625500E+02  0.11773983263E+02 -0.19294287822E+03  0.27307494332E+03  0.17300000000E+03 0. -1.
<mgrwt>
<rscale>  2 0.19324329E+03</rscale>
<asrwt>0</asrwt>
<pdfrwt beam="1">  1       21 0.94494873E-02 0.19324329E+03</pdfrwt>
<pdfrwt beam="2">  1       21 0.10310229E+00 0.19324329E+03</pdfrwt>
<totfact> 0.68423304E+04</totfact>
</mgrwt>
</event>
<event>
 4    1  0.4199481E+000  0.2023274E+03  0.7546771E-02  0.1147790E+00
         21   -1    0    0  501  502  0.00000000000E+00  0.00000000000E+00  0.37572421050E+02  0.37572421050E+02  0.00000000000E+00 0.  1.
         21   -1    0    0  502  503 -0.00000000000E+00 -0.00000000000E+00 -0.13205871289E+04  0.13205871289E+04  0.00000000000E+00 0.  1.
          6    1    1    2  501    0  0.98407499563E+02 -0.36377493593E+02 -0.35745721980E+03  0.41074569018E+03  0.17300000000E+03 0.  1.
         -6    1    1    2    0  503 -0.98407499563E+02  0.36377493593E+02 -0.92555748809E+03  0.94741385981E+03  0.17300000000E+03 0.  1.
<mgrwt>
<rscale>  2 0.20232735E+03</rscale>
<asrwt>0</asrwt>
<pdfrwt beam="1">  1       21 0.57803720E-02 0.20232735E+03</pdfrwt>
<pdfrwt beam="2">  1       21 0.20316727E+00 0.20232735E+03</pdfrwt>
<totfact> 0.26743150E+04</totfact>
</mgrwt>
</event>
<event>
 4    1  0.4199481E+000  0.1838028E+03  0.7546771E-02  0.1164173E+00
         21   -1    0    0  503  502  0.00000000000E+00  0.00000000000E+00  0.27506820402E+03  0.27506820402E+03  0.00000000000E+00 0. -1.
         21   -1    0    0  501  503 -0.00000000000E+00 -0.00000000000E+00 -0.13320203699E+03  0.13320203699E+03  0.00000000000E+00 0. -1.
          6    1    1    2  501    0 -0.34682068906E+02  0.51493866030E+02  0.12792784744E+03  0.22393972022E+03  0.17300000000E+03 0. -1.
         -6    1    1    2    0  502  0.34682068906E+02 -0.51493866030E+02  0.13938319602E+02  0.18433052079E+03  0.17300000000E+03 0. -1.
<mgrwt>
<rscale>  2 0.18380279E+03</rscale>
<asrwt>0</asrwt>
<pdfrwt beam="1">  1       21 0.42318185E-01 0.18380279E+03</pdfrwt>
<pdfrwt beam="2">  1       21 0.20492621E-01 0.18380279E+03</pdfrwt>
<totfact> 0.11887983E+05</totfact>
</mgrwt>
</event>
<event>
 4    1  0.4199481E+000  0.1857373E+03  0.7546771E-02  0.1162363E+00
         21   -1    0    0  503  502  0.00000000000E+00  0.00000000000E+00  0.53781064543E+03  0.53781064543E+03  0.00000000000E+00 0.  1.
         21   -1    0    0  501  503 -0.00000000000E+00 -0.00000000000E+00 -0.66931195364E+02  0.66931195364E+02  0.00000000000E+00 0.  1.
          6    1    1    2  501    0  0.94382799835E+01 -0.66934685828E+02  0.17375701112E+03  0.25434195920E+03  0.17300000000E+03 0.  1.
         -6    1    1    2    0  502 -0.94382799835E+01  0.66934685828E+02  0.29712243894E+03  0.35039988159E+03  0.17300000000E+03 0.  1.
<mgrwt>
<rscale>  2 0.18573727E+03</rscale>
<asrwt>0</asrwt>
<pdfrwt beam="1">  1       21 0.82740097E-01 0.18573727E+03</pdfrwt>
<pdfrwt beam="2">  1       21 0.10297107E-01 0.18573727E+03</pdfrwt>
<totfact> 0.98450116E+04</totfact>
</mgrwt>
</event>
<event>
 4    1  0.4199481E+000  0.1732285E+03  0.7546771E-02  0.1174522E+00
         21   -1    0    0  503  502  0.00000000000E+00  0.00000000000E+00  0.17792429584E+03  0.17792429584E+03  0.00000000000E+00 0. -1.
         21   -1    0    0  501  503 -0.00000000000E+00 -0.00000000000E+00 -0.23807575829E+03  0.23807575829E+03  0.00000000000E+00 0. -1.
          6    1    1    2  501    0 -0.53734071377E+01  0.70876519074E+01 -0.14239271920E+03  0.22424048429E+03  0.17300000000E+03 0.  1.
         -6    1    1    2    0  502  0.53734071377E+01 -0.70876519074E+01  0.82241256744E+02  0.19175956984E+03  0.17300000000E+03 0.  1.
<mgrwt>
<rscale>  2 0.17322849E+03</rscale>
<asrwt>0</asrwt>
<pdfrwt beam="1">  1       21 0.27372969E-01 0.17322849E+03</pdfrwt>
<pdfrwt beam="2">  1       21 0.36627040E-01 0.17322849E+03</pdfrwt>
<totfact> 0.92201868E+04</totfact>
</mgrwt>
</event>
<event>
 4    1  0.4199481E+000  0.2168078E+03  0.7546771E-02  0.1136286E+00
         21   -1    0    0  501  502  0.00000000000E+00  0.00000000000E+00  0.37724675458E+02  0.37724675458E+02  0.00000000000E+00 0. -1.
         21   -1    0    0  502  503 -0.00000000000E+00 -0.00000000000E+00 -0.12896961480E+04  0.12896961480E+04  0.00000000000E+00 0.  1.
          6    1    1    2  501    0  0.45073199014E+01 -0.13059973984E+03 -0.50384255254E+03  0.54850973166E+03  0.17300000000E+03 0. -1.
         -6    1    1    2    0  503 -0.45073199014E+01  0.13059973984E+03 -0.74812891999E+03  0.77891109178E+03  0.17300000000E+03 0.  1.
<mgrwt>
<rscale>  2 0.21680777E+03</rscale>
<asrwt>0</asrwt>
<pdfrwt beam="1">  1       21 0.58037961E-02 0.21680777E+03</pdfrwt>
<pdfrwt beam="2">  1       21 0.19841480E+00 0.21680777E+03</pdfrwt>
<totfact> 0.28210519E+04</totfact>
</mgrwt>
</event>
<event>
 4    1  0.4199481E+000  0.1782265E+03  0.7546771E-02  0.1169531E+00
         21   -1    0    0  503  502  0.00000000000E+00  0.00000000000E+00  0.84335259422E+02  0.84335259422E+02  0.00000000000E+00 0.  1.
         21   -1    0    0  501  503 -0.00000000000E+00 -0.00000000000E+00 -0.60320511311E+03  0.60320511311E+03  0.00000000000E+00 0.  1.
          6    1    1    2  501    0 -0.98542538648E+00 -0.42833530347E+02 -0.47011566473E+03  0.50276577112E+03  0.17300000000E+03 0.  1.
         -6    1    1    2    0  502  0.98542538648E+00  0.42833530347E+02 -0.48754188953E+02  0.18477460141E+03  0.17300000000E+03 0.  1.
<mgrwt>
<rscale>  2 0.17822649E+03</rscale>
<asrwt>0</asrwt>
<pdfrwt beam="1">  1       21 0.12974656E-01 0.17822649E+03</pdfrwt>
<pdfrwt beam="2">  1       21 0.92800785E-01 0.17822649E+03</pdfrwt>
<totfact> 0.50266565E+04</totfact>
</mgrwt>
</event>
<event>
 4    1  0.4199481E+000  0.1791429E+03  0.7546771E-02  0.1168635E+00
         21   -1    0    0  501  502  0.00000000000E+00  0.00000000000E+00  0.30894006923E+03  0.30894006923E+03  0.00000000000E+00 0. -1.
         21   -1    0    0  502  503 -0.00000000000E+00 -0.00000000000E+00 -0.10389178171E+03  0.10389178171E+03  0.00000000000E+00 0. -1.
          6    1    1    2  501    0  0.45786455105E+02  0.81713880007E+01  0.10017327655E+03  0.20524827987E+03  0.17300000000E+03 0.  1.
         -6    1    1    2    0  503 -0.45786455105E+02 -0.81713880007E+01  0.10487501097E+03  0.20758357107E+03  0.17300000000E+03 0.  1.
<mgrwt>
<rscale>  2 0.17914288E+03</rscale>
<asrwt>0</asrwt>
<pdfrwt beam="1">  1       21 0.47529241E-01 0.17914288E+03</pdfrwt>
<pdfrwt beam="2">  1       21 0.15983351E-01 0.17914288E+03</pdfrwt>
<totfact> 0.14854781E+05</totfact>
</mgrwt>
</event>
<event>
 4    1  0.4199481E+000  0.2046928E+03  0.7546771E-02  0.1145839E+00
         21   -1    0    0  503  502  0.00000000000E+00  0.00000000000E+00  0.18480448494E+03  0.18480448494E+03  0.00000000000E+00 0. -1.
         21   -1    0    0  501  503 -0.00000000000E+00 -0.00000000000E+00 -0.38865881908E+03  0.38865881908E+03  0.00000000000E+00 0. -1.
          6    1    1    2  501    0 -0.40484251784E+02  0.10164236824E+03 -0.28700946281E+03  0.35252457703E+03  0.17300000000E+03 0. -1.
         -6    1    1    2    0  502  0.40484251784E+02 -0.10164236824E+03  0.83155128671E+02  0.22093872700E+03  0.17300000000E+03 0. -1.
<mgrwt>
<rscale>  2 0.20469281E+03</rscale>
<asrwt>0</asrwt>
<pdfrwt beam="1">  1       21 0.28431459E-01 0.20469281E+03</pdfrwt>
<pdfrwt beam="2">  1       21 0.59793664E-01 0.20469281E+03</pdfrwt>
<totfact> 0.30673238E+04</totfact>
</mgrwt>
</event>
<event>
 4    1  0.4199481E+000  0.1809318E+03  0.7546771E-02  0.1166904E+00
         21   -1    0    0  501  502  0.00000000000E+00  0.00000000000E+00  0.11821394579E+03  0.11821394579E+03  0.00000000000E+00 0. -1.
         21   -1    0    0  502  503 -0.00000000000E+00 -0.00000000000E+00 -0.57410995751E+03  0.57410995751E+03  0.00000000000E+00 0. -1.
          6    1    1    2  501    0  0.11487168168E+02 -0.51723758603E+02  0.21107294018E+02  0.18215877716E+03  0.17300000000E+03 0. -1.
         -6    1    1    2    0  503 -0.11487168168E+02  0.51723758603E+02 -0.47700330574E+03  0.51016512614E+03  0.17300000000E+03 0. -1.
<mgrwt>
<rscale>  2 0.18093176E+03</rscale>
<asrwt>0</asrwt>
<pdfrwt beam="1">  1       21 0.18186761E-01 0.18093176E+03</pdfrwt>
<pdfrwt beam="2">  1       21 0.88324609E-01 0.18093176E+03</pdfrwt>
<totfact> 0.30418681E+04</totfact>
</mgrwt>
</event>
<event>
 4    1  0.4199481E+000  0.2638938E+03  0.7546771E-02  0.1104826E+00
         21   -1    0    0  501  502  0.00000000000E+00  0.00000000000E+00  0.19329927065E+03  0.19329927065E+03  0.00000000000E+00 0. -1.
         21   -1    0    0  502  503 -0.00000000000E+00 -0.00000000000E+00 -0.42027928770E+03  0.42027928770E+03  0.00000000000E+00 0.  1.
          6    1    1    2  501    0 -0.19783379680E+03 -0.23931856170E+02  0.24357935194E+01  0.26390505487E+03  0.17300000000E+03 0. -1.
         -6    1    1    2    0  503  0.19783379680E+03  0.23931856170E+02 -0.22941581057E+03  0.34967350348E+03  0.17300000000E+03 0.  1.
<mgrwt>
<rscale>  2 0.26389381E+03</rscale>
<asrwt>0</asrwt>
<pdfrwt beam="1">  1       21 0.29738350E-01 0.26389381E+03</pdfrwt>
<pdfrwt beam="2">  1       21 0.64658351E-01 0.26389381E+03</pdfrwt>
<totfact> 0.23033575E+04</totfact>
</mgrwt>
</event>
<event>
 4    1  0.4199481E+000  0.2161953E+03  0.7546771E-02  0.1136752E+00
         21   -1    0    0  503  502  0.00000000000E+00  0.00000000000E+00  0.38710487918E+03  0.38710487918E+03  0.00000000000E+00 0. -1.
         21   -1    0    0  501  503 -0.00000000000E+00 -0.00000000000E+00 -0.12641616201E+03  0.12641616201E+03  0.00000000000E+00 0.  1.
          6    1    1    2  501    0  0.10712968064E+03 -0.73038604215E+02  0.75954292039E+02  0.22914942867E+03  0.17300000000E+03 0. -1.
         -6    1    1    2    0  502 -0.10712968064E+03  0.73038604215E+02  0.18473442512E+03  0.28437161252E+03  0.17300000000E+03 0.  1.
<mgrwt>
<rscale>  2 0.21619530E+03</rscale>
<asrwt>0</asrwt>
<pdfrwt beam="1">  1       21 0.59554596E-01 0.21619530E+03</pdfrwt>
<pdfrwt beam="2">  1       21 0.19448641E-01 0.21619530E+03</pdfrwt>
<totfact> 0.63351219E+04</totfact>
</mgrwt>
</event>
<event>
 4    1  0.4199481E+000  0.1936944E+03  0.7546771E-02  0.1155171E+00
         21   -1    0    0  501  502  0.00000000000E+00  0.00000000000E+00  0.13128125871E+04  0.13128125871E+04  0.00000000000E+00 0. -1.
         21   -1    0    0  502  503 -0.00000000000E+00 -0.00000000000E+00 -0.28841552247E+02  0.28841552247E+02  0.00000000000E+00 0.  1.
          6    1    1    2  501    0  0.79823594165E+02  0.34881612355E+02  0.70611390862E+03  0.73219832355E+03  0.17300000000E+03 0. -1.
         -6    1    1    2    0  503 -0.79823594165E+02 -0.34881612355E+02  0.57785712622E+03  0.60945581578E+03  0.17300000000E+03 0.  1.
<mgrwt>
<rscale>  2 0.19369443E+03</rscale>
<asrwt>0</asrwt>
<pdfrwt beam="1">  1       21 0.20197112E+00 0.19369443E+03</pdfrwt>
<pdfrwt beam="2">  1       21 0.44371629E-02 0.19369443E+03</pdfrwt>
<totfact> 0.42900910E+04</totfact>
</mgrwt>
</event>
<event>
 4    1  0.4199481E+000  0.2404172E+03  0.7546771E-02  0.1119515E+00
         21   -1    0    0  503  502  0.00000000000E+00  0.00000000000E+00  0.14630479755E+03  0.14630479755E+03  0.00000000000E+00 0. -1.
         21   -1    0    0  501  503 -0.00000000000E+00 -0.00000000000E+00 -0.45824471810E+03  0.45824471810E+03  0.00000000000E+00 0. -1.
          6    1    1    2  501    0 -0.15892346773E+03  0.51134704690E+02 -0.26820532756E+03  0.36018679091E+03  0.17300000000E+03 0. -1.
         -6    1    1    2    0  502  0.15892346773E+03 -0.51134704690E+02 -0.43734592988E+02  0.24436272474E+03  0.17300000000E+03 0. -1.
<mgrwt>
<rscale>  2 0.24041719E+03</rscale>
<asrwt>0</asrwt>
<pdfrwt beam="1">  1       21 0.22508431E-01 0.24041719E+03</pdfrwt>
<pdfrwt beam="2">  1       21 0.70499187E-01 0.24041719E+03</pdfrwt>
<totfact> 0.32919458E+04</totfact>
</mgrwt>
</event>
<event>
 4    1  0.4199481E+000  0.2478862E+03  0.7546771E-02  0.1114648E+00
         21   -1    0    0  503  502  0.00000000000E+00  0.00000000000E+00  0.52343007367E+02  0.52343007367E+02  0.00000000000E+00 0.  1.
         21   -1    0    0  501  503 -0.00000000000E+00 -0.00000000000E+00 -0.12668193423E+04  0.12668193423E+04  0.00000000000E+00 0.  1.
          6    1    1    2  501    0  0.17353775498E+03 -0.37459846339E+02 -0.78583287291E+03  0.82400297126E+03  0.17300000000E+03 0.  1.
         -6    1    1    2    0  502 -0.17353775498E+03  0.37459846339E+02 -0.42864346201E+03  0.49515937840E+03  0.17300000000E+03 0.  1.
<mgrwt>
<rscale>  2 0.24788625E+03</rscale>
<asrwt>0</asrwt>
<pdfrwt beam="1">  1       21 0.80527709E-02 0.24788625E+03</pdfrwt>
<pdfrwt beam="2">  1       21 0.19489527E+00 0.24788625E+03</pdfrwt>
<totfact> 0.16534983E+04</totfact>
</mgrwt>
</event>
<event>
 4    1  0.4199481E+000  0.2350452E+03  0.7546771E-02  0.1123138E+00
         21   -1    0    0  501  502  0.00000000000E+00  0.00000000000E+00  0.52190054986E+02  0.52190054986E+02  0.00000000000E+00 0. -1.
         21   -1    0    0  502  503 -0.00000000000E+00 -0.00000000000E+00 -0.12718605827E+04  0.12718605827E+04  0.00000000000E+00 0.  1.
          6    1    1    2  501    0 -0.19847388997E+01  0.15910154613E+03 -0.33872116463E+03  0.41228420845E+03  0.17300000000E+03 0. -1.
         -6    1    1    2    0  503  0.19847388997E+01 -0.15910154613E+03 -0.88094936312E+03  0.91176642927E+03  0.17300000000E+03 0.  1.
<mgrwt>
<rscale>  2 0.23504519E+03</rscale>
<asrwt>0</asrwt>
<pdfrwt beam="1">  1       21 0.80292400E-02 0.23504519E+03</pdfrwt>
<pdfrwt beam="2">  1       21 0.19567084E+00 0.23504519E+03</pdfrwt>
<totfact> 0.16559131E+04</totfact>
</mgrwt>
</event>
<event>
 4    1  0.4199481E+000  0.2259375E+03  0.7546771E-02  0.1129532E+00
         21   -1    0    0  503  502  0.00000000000E+00  0.00000000000E+00  0.20467026130E+03  0.20467026130E+03  0.00000000000E+00 0. -1.
         21   -1    0    0  501  503 -0.00000000000E+00 -0.00000000000E+00 -0.25019571850E+03  0.25019571850E+03  0.00000000000E+00 0. -1.
          6    1    1    2  501    0 -0.11686674882E+03 -0.86376600456E+02 -0.35470467270E+02  0.22870484939E+03  0.17300000000E+03 0. -1.
         -6    1    1    2    0  502  0.11686674882E+03  0.86376600456E+02 -0.10054989923E+02  0.22616113041E+03  0.17300000000E+03 0. -1.
<mgrwt>
<rscale>  2 0.22593750E+03</rscale>
<asrwt>0</asrwt>
<pdfrwt beam="1">  1       21 0.31487733E-01 0.22593750E+03</pdfrwt>
<pdfrwt beam="2">  1       21 0.38491649E-01 0.22593750E+03</pdfrwt>
<totfact> 0.62174566E+04</totfact>
</mgrwt>
</event>
<event>
 4    1  0.4199481E+000  0.2821360E+03  0.7546771E-02  0.1094528E+00
         21   -1    0    0  501  502  0.00000000000E+00  0.00000000000E+00  0.18658590792E+03  0.18658590792E+03  0.00000000000E+00 0. -1.
         21   -1    0    0  502  503 -0.00000000000E+00 -0.00000000000E+00 -0.45084008571E+03  0.45084008571E+03  0.00000000000E+00 0. -1.
          6    1    1    2  501    0  0.86068823415E+02 -0.20558178572E+03 -0.58251050971E+02  0.28808661531E+03  0.17300000000E+03 0. -1.
         -6    1    1    2    0  503 -0.86068823415E+02  0.20558178572E+03 -0.20600312682E+03  0.34933937832E+03  0.17300000000E+03 0. -1.
<mgrwt>
<rscale>  2 0.28213598E+03</rscale>
<asrwt>0</asrwt>
<pdfrwt beam="1">  1       21 0.28705525E-01 0.28213598E+03</pdfrwt>
<pdfrwt beam="2">  1       21 0.69360012E-01 0.28213598E+03</pdfrwt>
<totfact> 0.20974861E+04</totfact>
</mgrwt>
</event>
<event>
 4    1  0.4199481E+000  0.1823907E+03  0.7546771E-02  0.1165509E+00
         21   -1    0    0  501  502  0.00000000000E+00  0.00000000000E+00  0.59216908830E+02  0.59216908830E+02  0.00000000000E+00 0.  1.
         21   -1    0    0  502  503 -0.00000000000E+00 -0.00000000000E+00 -0.56195679346E+03  0.56195679346E+03  0.00000000000E+00 0.  1.
          6    1    1    2  501    0  0.49233878454E+01 -0.57559880627E+02 -0.25700768316E+03  0.31514969270E+03  0.17300000000E+03 0.  1.
         -6    1    1    2    0  503 -0.49233878454E+01  0.57559880627E+02 -0.24573220147E+03  0.30602400959E+03  0.17300000000E+03 0.  1.
<mgrwt>
<rscale>  2 0.18239073E+03</rscale>
<asrwt>0</asrwt>
<pdfrwt beam="1">  1       21 0.91102931E-02 0.18239073E+03</pdfrwt>
<pdfrwt beam="2">  1       21 0.86454897E-01 0.18239073E+03</pdfrwt>
<totfact> 0.11063868E+05</totfact>
</mgrwt>
</event>
<event>
 4    1  0.4199481E+000  0.2012847E+03  0.7546771E-02  0.1148660E+00
         21   -1    0    0  503  502  0.00000000000E+00  0.00000000000E+00  0.64501575628E+03  0.64501575628E+03  0.00000000000E+00 0. -1.
         21   -1    0    0  501  503 -0.00000000000E+00 -0.00000000000E+00 -0.20618977873E+03  0.20618977873E+03  0.00000000000E+00 0. -1.
          6    1    1    2  501    0  0.17221087074E+01 -0.10287643362E+03 -0.13549022378E+03  0.24263785153E+03  0.17300000000E+03 0. -1.
         -6    1    1    2    0  502 -0.17221087074E+01  0.10287643362E+03  0.57431620134E+03  0.60856768348E+03  0.17300000000E+03 0. -1.
<mgrwt>
<rscale>  2 0.20128469E+03</rscale>
<asrwt>0</asrwt>
<pdfrwt beam="1">  1       21 0.99233193E-01 0.20128469E+03</pdfrwt>
<pdfrwt beam="2">  1       21 0.31721505E-01 0.20128469E+03</pdfrwt>
<totfact> 0.79379134E+03</totfact>
</mgrwt>
</event>
<event>
 4    1  0.4199481E+000  0.1940290E+03  0.7546771E-02  0.1154877E+00
         21   -1    0    0  503  502  0.00000000000E+00  0.00000000000E+00  0.79632617472E+03  0.79632617472E+03  0.00000000000E+00 0. -1.
         21   -1    0    0  501  503 -0.00000000000E+00 -0.00000000000E+00 -0.65025705533E+02  0.65025705533E+02  0.00000000000E+00 0. -1.
          6    1    1    2  501    0 -0.77555236258E+02  0.41272735031E+02  0.14064037740E+03  0.23963924779E+03  0.17300000000E+03 0. -1.
         -6    1    1    2    0  502  0.77555236258E+02 -0.41272735031E+02  0.59066009179E+03  0.62171263246E+03  0.17300000000E+03 0. -1.
<mgrwt>
<rscale>  2 0.19402900E+03</rscale>
<asrwt>0</asrwt>
<pdfrwt beam="1">  1       21 0.12251171E+00 0.19402900E+03</pdfrwt>
<pdfrwt beam="2">  1       21 0.10003955E-01 0.19402900E+03</pdfrwt>
<totfact> 0.40643739E+04</totfact>
</mgrwt>
</event>
<event>
 4    1  0.4199481E+000  0.3513794E+03  0.7546771E-02  0.1062050E+00
         21   -1    0    0  503  502  0.00000000000E+00  0.00000000000E+00  0.84700038690E+02  0.84700038690E+02  0.00000000000E+00 0.  1.
         21   -1    0    0  501  503 -0.00000000000E+00 -0.00000000000E+00 -0.21470847653E+04  0.21470847653E+04  0.00000000000E+00 0. -1.
          6    1    1    2  501    0  0.30436730863E+03 -0.29984196332E+02 -0.16634987721E+04  0.17002045981E+04  0.17300000000E+03 0. -1.
         -6    1    1    2    0  502 -0.30436730863E+03  0.29984196332E+02 -0.39888595448E+03  0.53158020587E+03  0.17300000000E+03 0.  1.
<mgrwt>
<rscale>  2 0.35137944E+03</rscale>
<asrwt>0</asrwt>
<pdfrwt beam="1">  1       21 0.13030775E-01 0.35137944E+03</pdfrwt>
<pdfrwt beam="2">  1       21 0.33032073E+00 0.35137944E+03</pdfrwt>
<totfact> 0.98201898E+02</totfact>
</mgrwt>
</event>
<event>
 4    1  0.4199481E+000  0.1871373E+03  0.7546771E-02  0.1161069E+00
         21   -1    0    0  501  502  0.00000000000E+00  0.00000000000E+00  0.59094148279E+03  0.59094148279E+03  0.00000000000E+00 0. -1.
         21   -1    0    0  502  503 -0.00000000000E+00 -0.00000000000E+00 -0.11123645711E+03  0.11123645711E+03  0.00000000000E+00 0. -1.
          6    1    1    2  501    0  0.70445842228E+02 -0.11346888126E+02  0.47984001854E+03  0.51504059253E+03  0.17300000000E+03 0. -1.
         -6    1    1    2    0  503 -0.70445842228E+02  0.11346888126E+02 -0.13499285919E+00  0.18713734737E+03  0.17300000000E+03 0. -1.
<mgrwt>
<rscale>  2 0.18713730E+03</rscale>
<asrwt>0</asrwt>
<pdfrwt beam="1">  1       21 0.90914072E-01 0.18713730E+03</pdfrwt>
<pdfrwt beam="2">  1       21 0.17113301E-01 0.18713730E+03</pdfrwt>
<totfact> 0.31723256E+04</totfact>
</mgrwt>
</event>
<event>
 4    1  0.4199481E+000  0.2205968E+03  0.7546771E-02  0.1133439E+00
         21   -1    0    0  503  502  0.00000000000E+00  0.00000000000E+00  0.76143964062E+02  0.76143964062E+02  0.00000000000E+00 0.  1.
         21   -1    0    0  501  503 -0.00000000000E+00 -0.00000000000E+00 -0.63963570461E+03  0.63963570461E+03  0.00000000000E+00 0.  1.
          6    1    1    2  501    0  0.12187781766E+03  0.62287568997E+02 -0.29218707627E+03  0.36610958910E+03  0.17300000000E+03 0.  1.
         -6    1    1    2    0  502 -0.12187781766E+03 -0.62287568997E+02 -0.27130466427E+03  0.34967007957E+03  0.17300000000E+03 0.  1.
<mgrwt>
<rscale>  2 0.22059679E+03</rscale>
<asrwt>0</asrwt>
<pdfrwt beam="1">  1       21 0.11714456E-01 0.22059679E+03</pdfrwt>
<pdfrwt beam="2">  1       21 0.98405496E-01 0.22059679E+03</pdfrwt>
<totfact> 0.51527563E+04</totfact>
</mgrwt>
</event>
<event>
 4    1  0.4199481E+000  0.1809258E+03  0.7546771E-02  0.1166910E+00
         21   -1    0    0  503  502  0.00000000000E+00  0.00000000000E+00  0.44560073153E+03  0.44560073153E+03  0.00000000000E+00 0.  1.
         21   -1    0    0  501  503 -0.00000000000E+00 -0.00000000000E+00 -0.14627791451E+03  0.14627791451E+03  0.00000000000E+00 0.  1.
          6    1    1    2  501    0 -0.11275577279E+02 -0.51749600031E+02 -0.59138452803E+02  0.19034578100E+03  0.17300000000E+03 0.  1.
         -6    1    1    2    0  502  0.11275577279E+02  0.51749600031E+02  0.35846126982E+03  0.40153286504E+03  0.17300000000E+03 0.  1.
<mgrwt>
<rscale>  2 0.18092584E+03</rscale>
<asrwt>0</asrwt>
<pdfrwt beam="1">  1       21 0.68553958E-01 0.18092584E+03</pdfrwt>
<pdfrwt beam="2">  1       21 0.22504295E-01 0.18092584E+03</pdfrwt>
<totfact> 0.36100232E+04</totfact>
</mgrwt>
</event>
<event>
 4    1  0.4199481E+000  0.2347063E+03  0.7546771E-02  0.1123370E+00
         21   -1    0    0  501  502  0.00000000000E+00  0.00000000000E+00  0.10876327737E+04  0.10876327737E+04  0.00000000000E+00 0. -1.
         21   -1    0    0  502  503 -0.00000000000E+00 -0.00000000000E+00 -0.58501822979E+02  0.58501822979E+02  0.00000000000E+00 0. -1.
          6    1    1    2  501    0  0.12938171994E+03 -0.91751942403E+02  0.72452985643E+03  0.76159737477E+03  0.17300000000E+03 0. -1.
         -6    1    1    2    0  503 -0.12938171994E+03  0.91751942403E+02  0.30460109425E+03  0.38453722188E+03  0.17300000000E+03 0. -1.
<mgrwt>
<rscale>  2 0.23470630E+03</rscale>
<asrwt>0</asrwt>
<pdfrwt beam="1">  1       21 0.16732810E+00 0.23470630E+03</pdfrwt>
<pdfrwt beam="2">  1       21 0.90002813E-02 0.23470630E+03</pdfrwt>
<totfact> 0.21179726E+04</totfact>
</mgrwt>
</event>
<event>
 4    1  0.4199481E+000  0.2059262E+03  0.7546771E-02  0.1144833E+00
         21   -1    0    0  503  502  0.00000000000E+00  0.00000000000E+00  0.13629767372E+03  0.13629767372E+03  0.00000000000E+00 0. -1.
         21   -1    0    0  501  503 -0.00000000000E+00 -0.00000000000E+00 -0.31147616899E+03  0.31147616899E+03  0.00000000000E+00 0.  1.
          6    1    1    2  501    0 -0.41492794915E+02 -0.10370614907E+03 -0.80072017598E+02  0.22094602370E+03  0.17300000000E+03 0. -1.
         -6    1    1    2    0  502  0.41492794915E+02  0.10370614907E+03 -0.95106477667E+02  0.22682781901E+03  0.17300000000E+03 0.  1.
<mgrwt>
<rscale>  2 0.20592624E+03</rscale>
<asrwt>0</asrwt>
<pdfrwt beam="1">  1       21 0.20968873E-01 0.20592624E+03</pdfrwt>
<pdfrwt beam="2">  1       21 0.47919410E-01 0.20592624E+03</pdfrwt>
<totfact> 0.87448665E+04</totfact>
</mgrwt>
</event>
<event>
 4    1  0.4199481E+000  0.1767868E+03  0.7546771E-02  0.1170949E+00
         21   -1    0    0  501  502  0.00000000000E+00  0.00000000000E+00  0.11768499093E+04  0.11768499093E+04  0.00000000000E+00 0.  1.
         21   -1    0    0  502  503 -0.00000000000E+00 -0.00000000000E+00 -0.26964155591E+02  0.26964155591E+02  0.00000000000E+00 0.  1.
          6    1    1    2  501    0  0.21260590583E+02 -0.29539268459E+02  0.64890785828E+03  0.67255853993E+03  0.17300000000E+03 0.  1.
         -6    1    1    2    0  503 -0.21260590583E+02  0.29539268459E+02  0.50097789539E+03  0.53125552492E+03  0.17300000000E+03 0.  1.
<mgrwt>
<rscale>  2 0.17678682E+03</rscale>
<asrwt>0</asrwt>
<pdfrwt beam="1">  1       21 0.18105379E+00 0.17678682E+03</pdfrwt>
<pdfrwt beam="2">  1       21 0.41483325E-02 0.17678682E+03</pdfrwt>
<totfact> 0.66597656E+04</totfact>
</mgrwt>
</event>
<event>
 4    1  0.4199481E+000  0.1789987E+03  0.7546771E-02  0.1168776E+00
         21   -1    0    0  501  502  0.00000000000E+00  0.00000000000E+00  0.21854929240E+03  0.21854929240E+03  0.00000000000E+00 0. -1.
         21   -1    0    0  502  503 -0.00000000000E+00 -0.00000000000E+00 -0.14918636516E+03  0.14918636516E+03  0.00000000000E+00 0. -1.
          6    1    1    2  501    0 -0.42094412211E+02 -0.18428380973E+02  0.58864871215E+02  0.18842934439E+03  0.17300000000E+03 0.  1.
         -6    1    1    2    0  503  0.42094412211E+02  0.18428380973E+02  0.10498056027E+02  0.17930631318E+03  0.17300000000E+03 0.  1.
<mgrwt>
<rscale>  2 0.17899873E+03</rscale>
<asrwt>0</asrwt>
<pdfrwt beam="1">  1       21 0.33622968E-01 0.17899873E+03</pdfrwt>
<pdfrwt beam="2">  1       21 0.22951749E-01 0.17899873E+03</pdfrwt>
<totfact> 0.15248845E+05</totfact>
</mgrwt>
</event>
<event>
 4    1  0.4199481E+000  0.1775902E+03  0.7546771E-02  0.1170156E+00
         21   -1    0    0  503  502  0.00000000000E+00  0.00000000000E+00  0.18401828049E+03  0.18401828049E+03  0.00000000000E+00 0. -1.
         21   -1    0    0  501  503 -0.00000000000E+00 -0.00000000000E+00 -0.24588766082E+03  0.24588766082E+03  0.00000000000E+00 0. -1.
          6    1    1    2  501    0 -0.30314985390E+02 -0.26272949303E+02 -0.14925419174E+03  0.23198077497E+03  0.17300000000E+03 0. -1.
         -6    1    1    2    0  502  0.30314985390E+02  0.26272949303E+02  0.87384811407E+02  0.19792516634E+03  0.17300000000E+03 0. -1.
<mgrwt>
<rscale>  2 0.17759016E+03</rscale>
<asrwt>0</asrwt>
<pdfrwt beam="1">  1       21 0.28310505E-01 0.17759016E+03</pdfrwt>
<pdfrwt beam="2">  1       21 0.37828871E-01 0.17759016E+03</pdfrwt>
<totfact> 0.80868036E+04</totfact>
</mgrwt>
</event>
<event>
 4    1  0.4199481E+000  0.4141390E+03  0.7546771E-02  0.1038991E+00
         21   -1    0    0  501  502  0.00000000000E+00  0.00000000000E+00  0.87613909815E+02  0.87613909815E+02  0.00000000000E+00 0.  1.
         21   -1    0    0  502  503 -0.00000000000E+00 -0.00000000000E+00 -0.25037773996E+04  0.25037773996E+04  0.00000000000E+00 0. -1.
          6    1    1    2  501    0 -0.20544482761E+03  0.31523722116E+03 -0.60290718746E+03  0.73144251960E+03  0.17300000000E+03 0.  1.
         -6    1    1    2    0  503  0.20544482761E+03 -0.31523722116E+03 -0.18132563023E+04  0.18599487898E+04  0.17300000000E+03 0. -1.
<mgrwt>
<rscale>  2 0.41413897E+03</rscale>
<asrwt>0</asrwt>
<pdfrwt beam="1">  1       21 0.13479064E-01 0.41413897E+03</pdfrwt>
<pdfrwt beam="2">  1       21 0.38519650E+00 0.41413897E+03</pdfrwt>
<totfact> 0.40612393E+02</totfact>
</mgrwt>
</event>
<event>
 4    1  0.4199481E+000  0.2068908E+03  0.7546771E-02  0.1144052E+00
         21   -1    0    0  503  502  0.00000000000E+00  0.00000000000E+00  0.10924945751E+03  0.10924945751E+03  0.00000000000E+00 0.  1.
         21   -1    0    0  501  503 -0.00000000000E+00 -0.00000000000E+00 -0.57873204866E+03  0.57873204866E+03  0.00000000000E+00 0.  1.
          6    1    1    2  501    0 -0.58098811027E+02 -0.97464436863E+02 -0.43024341527E+03  0.47740253945E+03  0.17300000000E+03 0.  1.
         -6    1    1    2    0  502  0.58098811027E+02  0.97464436863E+02 -0.39239175884E+02  0.21057896671E+03  0.17300000000E+03 0.  1.
<mgrwt>
<rscale>  2 0.20689076E+03</rscale>
<asrwt>0</asrwt>
<pdfrwt beam="1">  1       21 0.16807609E-01 0.20689076E+03</pdfrwt>
<pdfrwt beam="2">  1       21 0.89035700E-01 0.20689076E+03</pdfrwt>
<totfact> 0.34045654E+04</totfact>
</mgrwt>
</event>
<event>
 4    1  0.4199481E+000  0.1936537E+03  0.7546771E-02  0.1155207E+00
         21   -1    0    0  503  502  0.00000000000E+00  0.00000000000E+00  0.20376965599E+03  0.20376965599E+03  0.00000000000E+00 0.  1.
         21   -1    0    0  501  503 -0.00000000000E+00 -0.00000000000E+00 -0.18961643561E+03  0.18961643561E+03  0.00000000000E+00 0.  1.
          6    1    1    2  501    0  0.86729110510E+02  0.71280687089E+01  0.40807911150E+02  0.19790662845E+03  0.17300000000E+03 0. -1.
         -6    1    1    2    0  502 -0.86729110510E+02 -0.71280687089E+01 -0.26654690763E+02  0.19547946315E+03  0.17300000000E+03 0. -1.
<mgrwt>
<rscale>  2 0.19365368E+03</rscale>
<asrwt>0</asrwt>
<pdfrwt beam="1">  1       21 0.31349178E-01 0.19365368E+03</pdfrwt>
<pdfrwt beam="2">  1       21 0.29171759E-01 0.19365368E+03</pdfrwt>
<totfact> 0.11000098E+05</totfact>
</mgrwt>
</event>
<event>
 4    1  0.4199481E+000  0.1783481E+03  0.7546771E-02  0.1169411E+00
         21   -1    0    0  503  502  0.00000000000E+00  0.00000000000E+00  0.31593152998E+04  0.31593152998E+04  0.00000000000E+00 0. -1.
         21   -1    0    0  501  503 -0.00000000000E+00 -0.00000000000E+00 -0.20321086510E+02  0.20321086510E+02  0.00000000000E+00 0. -1.
          6    1    1    2  501    0 -0.19800541575E+02 -0.38561213280E+02  0.44021868855E+03  0.47497423337E+03  0.17300000000E+03 0. -1.
         -6    1    1    2    0  502  0.19800541575E+02  0.38561213280E+02  0.26987755247E+04  0.27046621530E+04  0.17300000000E+03 0. -1.
<mgrwt>
<rscale>  2 0.17834805E+03</rscale>
<asrwt>0</asrwt>
<pdfrwt beam="1">  1       21 0.48604812E+00 0.17834805E+03</pdfrwt>
<pdfrwt beam="2">  1       21 0.31263235E-02 0.17834805E+03</pdfrwt>
<totfact> 0.14340523E+03</totfact>
</mgrwt>
</event>
<event>
 4    1  0.4199481E+000  0.1816267E+03  0.7546771E-02  0.1166238E+00
         21   -1    0    0  503  502  0.00000000000E+00  0.00000000000E+00  0.10366995104E+03  0.10366995104E+03  0.00000000000E+00 0. -1.
         21   -1    0    0  501  503 -0.00000000000E+00 -0.00000000000E+00 -0.45057573930E+03  0.45057573930E+03  0.00000000000E+00 0. -1.
          6    1    1    2  501    0  0.57774086030E+01 -0.55008049543E+02 -0.32365808570E+03  0.37113719890E+03  0.17300000000E+03 0. -1.
         -6    1    1    2    0  502 -0.57774086030E+01  0.55008049543E+02 -0.23247702562E+02  0.18310849144E+03  0.17300000000E+03 0. -1.
<mgrwt>
<rscale>  2 0.18162672E+03</rscale>
<asrwt>0</asrwt>
<pdfrwt beam="1">  1       21 0.15949223E-01 0.18162672E+03</pdfrwt>
<pdfrwt beam="2">  1       21 0.69319345E-01 0.18162672E+03</pdfrwt>
<totfact> 0.66720779E+04</totfact>
</mgrwt>
</event>
<event>
 4    1  0.4199481E+000  0.2081841E+03  0.7546771E-02  0.1143012E+00
         21   -1    0    0  503  502  0.00000000000E+00  0.00000000000E+00  0.33640800383E+02  0.33640800383E+02  0.00000000000E+00 0.  1.
         21   -1    0    0  501  503 -0.00000000000E+00 -0.00000000000E+00 -0.12948815529E+04  0.12948815529E+04  0.00000000000E+00 0.  1.
          6    1    1    2  501    0 -0.62879216701E+02  0.97251267141E+02 -0.67785339199E+03  0.70910212655E+03  0.17300000000E+03 0.  1.
         -6    1    1    2    0  502  0.62879216701E+02 -0.97251267141E+02 -0.58338736050E+03  0.61942022670E+03  0.17300000000E+03 0.  1.
<mgrwt>
<rscale>  2 0.20818406E+03</rscale>
<asrwt>0</asrwt>
<pdfrwt beam="1">  1       21 0.51755087E-02 0.20818406E+03</pdfrwt>
<pdfrwt beam="2">  1       21 0.19921251E+00 0.20818406E+03</pdfrwt>
<totfact> 0.34095744E+04</totfact>
</mgrwt>
</event>
<event>
 4    1  0.4199481E+000  0.1927709E+03  0.7546771E-02  0.1155986E+00
         21   -1    0    0  501  502  0.00000000000E+00  0.00000000000E+00  0.65177406489E+03  0.65177406489E+03  0.00000000000E+00 0. -1.
         21   -1    0    0  502  503 -0.00000000000E+00 -0.00000000000E+00 -0.57042066581E+02  0.57042066581E+02  0.00000000000E+00 0. -1.
          6    1    1    2  501    0 -0.34985221812E+02 -0.77508961095E+02  0.30515005284E+03  0.36093927404E+03  0.17300000000E+03 0.  1.
         -6    1    1    2    0  503  0.34985221812E+02  0.77508961095E+02  0.28958194547E+03  0.34787685743E+03  0.17300000000E+03 0.  1.
<mgrwt>
<rscale>  2 0.19277086E+03</rscale>
<asrwt>0</asrwt>
<pdfrwt beam="1">  1       21 0.10027293E+00 0.19277086E+03</pdfrwt>
<pdfrwt beam="2">  1       21 0.87757030E-02 0.19277086E+03</pdfrwt>
<totfact> 0.83279971E+04</totfact>
</mgrwt>
</event>
<event>
 4    1  0.4199481E+000  0.2152302E+03  0.7546771E-02  0.1137490E+00
         21   -1    0    0  501  502  0.00000000000E+00  0.00000000000E+00  0.59510117522E+02  0.59510117522E+02  0.00000000000E+00 0.  1.
         21   -1    0    0  502  503 -0.00000000000E+00 -0.00000000000E+00 -0.80367758517E+03  0.80367758517E+03  0.00000000000E+00 0.  1.
          6    1    1    2  501    0  0.12135428573E+03 -0.40843279861E+02 -0.29557595357E+03  0.36563531080E+03  0.17300000000E+03 0.  1.
         -6    1    1    2    0  503 -0.12135428573E+03  0.40843279861E+02 -0.44859151408E+03  0.49755239189E+03  0.17300000000E+03 0.  1.
<mgrwt>
<rscale>  2 0.21523019E+03</rscale>
<asrwt>0</asrwt>
<pdfrwt beam="1">  1       21 0.91554028E-02 0.21523019E+03</pdfrwt>
<pdfrwt beam="2">  1       21 0.12364270E+00 0.21523019E+03</pdfrwt>
<totfact> 0.45911474E+04</totfact>
</mgrwt>
</event>
<event>
 4    1  0.4199481E+000  0.1821926E+03  0.7546771E-02  0.1165698E+00
         21   -1    0    0  503  502  0.00000000000E+00  0.00000000000E+00  0.16052049105E+03  0.16052049105E+03  0.00000000000E+00 0.  1.
         21   -1    0    0  501  503 -0.00000000000E+00 -0.00000000000E+00 -0.26096963763E+03  0.26096963763E+03  0.00000000000E+00 0.  1.
          6    1    1    2  501    0 -0.49130267331E+02  0.29178259719E+02  0.45798904492E+02  0.18786083589E+03  0.17300000000E+03 0.  1.
         -6    1    1    2    0  502  0.49130267331E+02 -0.29178259719E+02 -0.14624805108E+03  0.23362929280E+03  0.17300000000E+03 0.  1.
<mgrwt>
<rscale>  2 0.18219263E+03</rscale>
<asrwt>0</asrwt>
<pdfrwt beam="1">  1       21 0.24695460E-01 0.18219263E+03</pdfrwt>
<pdfrwt beam="2">  1       21 0.40149175E-01 0.18219263E+03</pdfrwt>
<totfact> 0.93069049E+04</totfact>
</mgrwt>
</event>
<event>
 4    1  0.4199481E+000  0.1783981E+03  0.7546771E-02  0.1169362E+00
         21   -1    0    0  501  502  0.00000000000E+00  0.00000000000E+00  0.32283638806E+02  0.32283638806E+02  0.00000000000E+00 0. -1.
         21   -1    0    0  502  503 -0.00000000000E+00 -0.00000000000E+00 -0.18381805645E+04  0.18381805645E+04  0.00000000000E+00 0. -1.
          6    1    1    2  501    0 -0.42651786392E+02  0.88147802394E+01 -0.26609890840E+03  0.32036620340E+03  0.17300000000E+03 0. -1.
         -6    1    1    2    0  503  0.42651786392E+02 -0.88147802394E+01 -0.15397980173E+04  0.15500979999E+04  0.17300000000E+03 0. -1.
<mgrwt>
<rscale>  2 0.17839808E+03</rscale>
<asrwt>0</asrwt>
<pdfrwt beam="1">  1       21 0.49667129E-02 0.17839808E+03</pdfrwt>
<pdfrwt beam="2">  1       21 0.28279706E+00 0.17839808E+03</pdfrwt>
<totfact> 0.11841543E+04</totfact>
</mgrwt>
</event>
<event>
 4    1  0.4199481E+000  0.3618880E+03  0.7546771E-02  0.1057839E+00
         21   -1    0    0  501  502  0.00000000000E+00  0.00000000000E+00  0.36312184000E+03  0.36312184000E+03  0.00000000000E+00 0. -1.
         21   -1    0    0  502  503 -0.00000000000E+00 -0.00000000000E+00 -0.64513762788E+03  0.64513762788E+03  0.00000000000E+00 0. -1.
          6    1    1    2  501    0 -0.19851907126E+03 -0.24824198421E+03  0.19375821596E+03  0.41049378878E+03  0.17300000000E+03 0. -1.
         -6    1    1    2    0  503  0.19851907126E+03  0.24824198421E+03 -0.47577400384E+03  0.59776567910E+03  0.17300000000E+03 0. -1.
<mgrwt>
<rscale>  2 0.36188797E+03</rscale>
<asrwt>0</asrwt>
<pdfrwt beam="1">  1       21 0.55864898E-01 0.36188797E+03</pdfrwt>
<pdfrwt beam="2">  1       21 0.99251943E-01 0.36188797E+03</pdfrwt>
<totfact> 0.22608378E+03</totfact>
</mgrwt>
</event>
<event>
 4    1  0.4199481E+000  0.1914660E+03  0.7546771E-02  0.1157146E+00
         21   -1    0    0  501  502  0.00000000000E+00  0.00000000000E+00  0.12521623216E+03  0.12521623216E+03  0.00000000000E+00 0. -1.
         21   -1    0    0  502  503 -0.00000000000E+00 -0.00000000000E+00 -0.84294793297E+03  0.84294793297E+03  0.00000000000E+00 0.  1.
          6    1    1    2  501    0 -0.75265486635E+02 -0.32639347749E+02  0.32219254397E+02  0.19415792761E+03  0.17300000000E+03 0. -1.
         -6    1    1    2    0  503  0.75265486635E+02  0.32639347749E+02 -0.74995095520E+03  0.77400623751E+03  0.17300000000E+03 0.  1.
<mgrwt>
<rscale>  2 0.19146598E+03</rscale>
<asrwt>0</asrwt>
<pdfrwt beam="1">  1       21 0.19264036E-01 0.19146598E+03</pdfrwt>
<pdfrwt beam="2">  1       21 0.12968430E+00 0.19146598E+03</pdfrwt>
<totfact> 0.10775658E+04</totfact>
</mgrwt>
</event>
<event>
 4    1  0.4199481E+000  0.1936557E+03  0.7546771E-02  0.1155205E+00
         21   -1    0    0  501  502  0.00000000000E+00  0.00000000000E+00  0.79726460083E+02  0.79726460083E+02  0.00000000000E+00 0. -1.
         21   -1    0    0  502  503 -0.00000000000E+00 -0.00000000000E+00 -0.67437546509E+03  0.67437546509E+03  0.00000000000E+00 0.  1.
          6    1    1    2  501    0 -0.81482353181E+02 -0.30563734834E+02 -0.89953050427E+02  0.21352767279E+03  0.17300000000E+03 0. -1.
         -6    1    1    2    0  503  0.81482353181E+02  0.30563734834E+02 -0.50469595458E+03  0.54057425238E+03  0.17300000000E+03 0.  1.
<mgrwt>
<rscale>  2 0.19365566E+03</rscale>
<asrwt>0</asrwt>
<pdfrwt beam="1">  1       21 0.12265610E-01 0.19365566E+03</pdfrwt>
<pdfrwt beam="2">  1       21 0.10375007E+00 0.19365566E+03</pdfrwt>
<totfact> 0.42406675E+04</totfact>
</mgrwt>
</event>
<event>
 4    1  0.4199481E+000  0.3363619E+03  0.7546771E-02  0.1068356E+00
         21   -1    0    0  503  502  0.00000000000E+00  0.00000000000E+00  0.89408521320E+03  0.89408521320E+03  0.00000000000E+00 0. -1.
         21   -1    0    0  501  503 -0.00000000000E+00 -0.00000000000E+00 -0.13221403304E+03  0.13221403304E+03  0.00000000000E+00 0.  1.
          6    1    1    2  501    0 -0.21481069244E+03 -0.19252718240E+03  0.27465013868E+03  0.43424883215E+03  0.17300000000E+03 0.  1.
         -6    1    1    2    0  502  0.21481069244E+03  0.19252718240E+03  0.48722104149E+03  0.59205041408E+03  0.17300000000E+03 0. -1.
<mgrwt>
<rscale>  2 0.33636193E+03</rscale>
<asrwt>0</asrwt>
<pdfrwt beam="1">  1       21 0.13755157E+00 0.33636193E+03</pdfrwt>
<pdfrwt beam="2">  1       21 0.20340621E-01 0.33636193E+03</pdfrwt>
<totfact> 0.76956289E+03</totfact>
</mgrwt>
</event>
<event>
 4    1  0.4199481E+000  0.2335393E+03  0.7546771E-02  0.1124173E+00
         21   -1    0    0  503  502  0.00000000000E+00  0.00000000000E+00  0.30612025076E+03  0.30612025076E+03  0.00000000000E+00 0.  1.
         21   -1    0    0  501  503 -0.00000000000E+00 -0.00000000000E+00 -0.24693847067E+03  0.24693847067E+03  0.00000000000E+00 0.  1.
          6    1    1    2  501    0  0.96124063691E+02  0.12398303012E+03 -0.11634092704E+03  0.26091346972E+03  0.17300000000E+03 0.  1.
         -6    1    1    2    0  502 -0.96124063691E+02 -0.12398303012E+03  0.17552270712E+03  0.29214525171E+03  0.17300000000E+03 0.  1.
<mgrwt>
<rscale>  2 0.23353935E+03</rscale>
<asrwt>0</asrwt>
<pdfrwt beam="1">  1       21 0.47095424E-01 0.23353935E+03</pdfrwt>
<pdfrwt beam="2">  1       21 0.37990534E-01 0.23353935E+03</pdfrwt>
<totfact> 0.28216054E+04</totfact>
</mgrwt>
</event>
<event>
 4    1  0.4199481E+000  0.1987603E+03  0.7546771E-02  0.1150789E+00
         21   -1    0    0  501  502  0.00000000000E+00  0.00000000000E+00  0.30934629488E+02  0.30934629488E+02  0.00000000000E+00 0. -1.
         21   -1    0    0  502  503 -0.00000000000E+00 -0.00000000000E+00 -0.13957001014E+04  0.13957001014E+04  0.00000000000E+00 0. -1.
          6    1    1    2  501    0  0.73203563654E+02  0.64945283850E+02 -0.89034584541E+03  0.91226168179E+03  0.17300000000E+03 0. -1.
         -6    1    1    2    0  503 -0.73203563654E+02 -0.64945283850E+02 -0.47441962649E+03  0.51437304908E+03  0.17300000000E+03 0. -1.
<mgrwt>
<rscale>  2 0.19876029E+03</rscale>
<asrwt>0</asrwt>
<pdfrwt beam="1">  1       21 0.47591757E-02 0.19876029E+03</pdfrwt>
<pdfrwt beam="2">  1       21 0.21472301E+00 0.19876029E+03</pdfrwt>
<totfact> 0.31566638E+04</totfact>
</mgrwt>
</event>
<event>
 4    1  0.4199481E+000  0.1877666E+03  0.7546771E-02  0.1160491E+00
         21   -1    0    0  503  502  0.00000000000E+00  0.00000000000E+00  0.26384159159E+03  0.26384159159E+03  0.00000000000E+00 0. -1.
         21   -1    0    0  501  503 -0.00000000000E+00 -0.00000000000E+00 -0.17153906250E+03  0.17153906250E+03  0.00000000000E+00 0. -1.
          6    1    1    2  501    0 -0.86742244456E+01  0.72471006149E+02 -0.56189315175E+02  0.19599369388E+03  0.17300000000E+03 0. -1.
         -6    1    1    2    0  502  0.86742244456E+01 -0.72471006149E+02  0.14849184427E+03  0.23938696020E+03  0.17300000000E+03 0. -1.
<mgrwt>
<rscale>  2 0.18776658E+03</rscale>
<asrwt>0</asrwt>
<pdfrwt beam="1">  1       21 0.40591014E-01 0.18776658E+03</pdfrwt>
<pdfrwt beam="2">  1       21 0.26390625E-01 0.18776658E+03</pdfrwt>
<totfact> 0.80008749E+04</totfact>
</mgrwt>
</event>
<event>
 4    1  0.4199481E+000  0.2875267E+03  0.7546771E-02  0.1091648E+00
         21   -1    0    0  503  502  0.00000000000E+00  0.00000000000E+00  0.10141651157E+04  0.10141651157E+04  0.00000000000E+00 0.  1.
         21   -1    0    0  501  503 -0.00000000000E+00 -0.00000000000E+00 -0.37590124866E+03  0.37590124866E+03  0.00000000000E+00 0. -1.
          6    1    1    2  501    0 -0.22541949013E+03 -0.43916744614E+02 -0.29594011437E+03  0.41261626032E+03  0.17300000000E+03 0. -1.
         -6    1    1    2    0  502  0.22541949013E+03  0.43916744614E+02  0.93420398139E+03  0.97745010402E+03  0.17300000000E+03 0.  1.
<mgrwt>
<rscale>  2 0.28752674E+03</rscale>
<asrwt>0</asrwt>
<pdfrwt beam="1">  1       21 0.15602540E+00 0.28752674E+03</pdfrwt>
<pdfrwt beam="2">  1       21 0.57830962E-01 0.28752674E+03</pdfrwt>
<totfact> 0.69283193E+02</totfact>
</mgrwt>
</event>
<event>
 4    1  0.4199481E+000  0.1873586E+03  0.7546771E-02  0.1160865E+00
         21   -1    0    0  501  502  0.00000000000E+00  0.00000000000E+00  0.67915925239E+03  0.67915925239E+03  0.00000000000E+00 0.  1.
         21   -1    0    0  502  503 -0.00000000000E+00 -0.00000000000E+00 -0.55290121402E+02  0.55290121402E+02  0.00000000000E+00 0.  1.
          6    1    1    2  501    0 -0.46542034119E+02 -0.54846000371E+02  0.40568824538E+03  0.44686261551E+03  0.17300000000E+03 0.  1.
         -6    1    1    2    0  503  0.46542034119E+02  0.54846000371E+02  0.21818088561E+03  0.28758675828E+03  0.17300000000E+03 0.  1.
<mgrwt>
<rscale>  2 0.18735860E+03</rscale>
<asrwt>0</asrwt>
<pdfrwt beam="1">  1       21 0.10448603E+00 0.18735860E+03</pdfrwt>
<pdfrwt beam="2">  1       21 0.85061730E-02 0.18735860E+03</pdfrwt>
<totfact> 0.79898579E+04</totfact>
</mgrwt>
</event>
<event>
 4    1  0.4199481E+000  0.1817110E+03  0.7546771E-02  0.1166157E+00
         21   -1    0    0  501  502  0.00000000000E+00  0.00000000000E+00  0.34576199033E+02  0.34576199033E+02  0.00000000000E+00 0. -1.
         21   -1    0    0  502  503 -0.00000000000E+00 -0.00000000000E+00 -0.97133237349E+03  0.97133237349E+03  0.00000000000E+00 0. -1.
          6    1    1    2  501    0  0.44157426817E+02 -0.33764277061E+02 -0.40308103046E+03  0.44214615441E+03  0.17300000000E+03 0. -1.
         -6    1    1    2    0  503 -0.44157426817E+02  0.33764277061E+02 -0.53367514400E+03  0.56376241811E+03  0.17300000000E+03 0. -1.
<mgrwt>
<rscale>  2 0.18171105E+03</rscale>
<asrwt>0</asrwt>
<pdfrwt beam="1">  1       21 0.53194143E-02 0.18171105E+03</pdfrwt>
<pdfrwt beam="2">  1       21 0.14943578E+00 0.18171105E+03</pdfrwt>
<totfact> 0.73508240E+04</totfact>
</mgrwt>
</event>
<event>
 4    1  0.4199481E+000  0.1830817E+03  0.7546771E-02  0.1164853E+00
         21   -1    0    0  503  502  0.00000000000E+00  0.00000000000E+00  0.85497663833E+03  0.85497663833E+03  0.00000000000E+00 0.  1.
         21   -1    0    0  501  503 -0.00000000000E+00 -0.00000000000E+00 -0.40072418534E+02  0.40072418534E+02  0.00000000000E+00 0.  1.
          6    1    1    2  501    0  0.49238365044E+02 -0.34139298819E+02  0.34158928314E+03  0.38755921698E+03  0.17300000000E+03 0.  1.
         -6    1    1    2    0  502 -0.49238365044E+02  0.34139298819E+02  0.47331493666E+03  0.50748983988E+03  0.17300000000E+03 0.  1.
<mgrwt>
<rscale>  2 0.18308170E+03</rscale>
<asrwt>0</asrwt>
<pdfrwt beam="1">  1       21 0.13153485E+00 0.18308170E+03</pdfrwt>
<pdfrwt beam="2">  1       21 0.61649881E-02 0.18308170E+03</pdfrwt>
<totfact> 0.79343692E+04</totfact>
</mgrwt>
</event>
<event>
 4    1  0.4199481E+000  0.1915013E+03  0.7546771E-02  0.1157114E+00
         21   -1    0    0  503  502  0.00000000000E+00  0.00000000000E+00  0.31697999941E+03  0.31697999941E+03  0.00000000000E+00 0. -1.
         21   -1    0    0  501  503 -0.00000000000E+00 -0.00000000000E+00 -0.11961636530E+03  0.11961636530E+03  0.00000000000E+00 0. -1.
          6    1    1    2  501    0 -0.69533272209E+02 -0.43690549442E+02  0.59152523182E+02  0.20042894265E+03  0.17300000000E+03 0.  1.
         -6    1    1    2    0  502  0.69533272209E+02  0.43690549442E+02  0.13821111093E+03  0.23616742205E+03  0.17300000000E+03 0.  1.
<mgrwt>
<rscale>  2 0.19150128E+03</rscale>
<asrwt>0</asrwt>
<pdfrwt beam="1">  1       21 0.48766153E-01 0.19150128E+03</pdfrwt>
<pdfrwt beam="2">  1       21 0.18402518E-01 0.19150128E+03</pdfrwt>
<totfact> 0.10822238E+05</totfact>
</mgrwt>
</event>
<event>
 4    1  0.4199481E+000  0.1902239E+03  0.7546771E-02  0.1158260E+00
         21   -1    0    0  501  502  0.00000000000E+00  0.00000000000E+00  0.42892915920E+03  0.42892915920E+03  0.00000000000E+00 0. -1.
         21   -1    0    0  502  503 -0.00000000000E+00 -0.00000000000E+00 -0.94996175066E+02  0.94996175066E+02  0.00000000000E+00 0. -1.
          6    1    1    2  501    0  0.22940185501E+02 -0.75695953458E+02  0.79317404638E+02  0.20609798679E+03  0.17300000000E+03 0. -1.
         -6    1    1    2    0  503 -0.22940185501E+02  0.75695953458E+02  0.25461557949E+03  0.31782734747E+03  0.17300000000E+03 0. -1.
<mgrwt>
<rscale>  2 0.19022389E+03</rscale>
<asrwt>0</asrwt>
<pdfrwt beam="1">  1       21 0.65989100E-01 0.19022389E+03</pdfrwt>
<pdfrwt beam="2">  1       21 0.14614796E-01 0.19022389E+03</pdfrwt>
<totfact> 0.86826080E+04</totfact>
</mgrwt>
</event>
<event>
 4    1  0.4199481E+000  0.2856061E+03  0.7546771E-02  0.1092666E+00
         21   -1    0    0  503  502  0.00000000000E+00  0.00000000000E+00  0.11441586332E+03  0.11441586332E+03  0.00000000000E+00 0. -1.
         21   -1    0    0  501  503 -0.00000000000E+00 -0.00000000000E+00 -0.79123187120E+03  0.79123187120E+03  0.00000000000E+00 0. -1.
          6    1    1    2  501    0 -0.16035121842E+03  0.16102579267E+03 -0.48085581911E+03  0.55927912345E+03  0.17300000000E+03 0. -1.
         -6    1    1    2    0  502  0.16035121842E+03 -0.16102579267E+03 -0.19596018878E+03  0.34636861108E+03  0.17300000000E+03 0. -1.
<mgrwt>
<rscale>  2 0.28560606E+03</rscale>
<asrwt>0</asrwt>
<pdfrwt beam="1">  1       21 0.17602440E-01 0.28560606E+03</pdfrwt>
<pdfrwt beam="2">  1       21 0.12172798E+00 0.28560606E+03</pdfrwt>
<totfact> 0.14137245E+04</totfact>
</mgrwt>
</event>
<event>
 4    1  0.4199481E+000  0.2110723E+03  0.7546771E-02  0.1140720E+00
         21   -1    0    0  501  502  0.00000000000E+00  0.00000000000E+00  0.17077177326E+03  0.17077177326E+03  0.00000000000E+00 0. -1.
         21   -1    0    0  502  503 -0.00000000000E+00 -0.00000000000E+00 -0.26877846040E+03  0.26877846040E+03  0.00000000000E+00 0.  1.
          6    1    1    2  501    0  0.37622141080E+02  0.11492205117E+03 -0.86670413081E+02  0.22817375802E+03  0.17300000000E+03 0.  1.
         -6    1    1    2    0  503 -0.37622141080E+02 -0.11492205117E+03 -0.11336274053E+02  0.21137647564E+03  0.17300000000E+03 0.  1.
<mgrwt>
<rscale>  2 0.21107227E+03</rscale>
<asrwt>0</asrwt>
<pdfrwt beam="1">  1       21 0.26272581E-01 0.21107227E+03</pdfrwt>
<pdfrwt beam="2">  1       21 0.41350532E-01 0.21107227E+03</pdfrwt>
<totfact> 0.76957428E+04</totfact>
</mgrwt>
</event>
<event>
 4    1  0.4199481E+000  0.2165112E+03  0.7546771E-02  0.1136511E+00
         21   -1    0    0  503  502  0.00000000000E+00  0.00000000000E+00  0.93284912831E+03  0.93284912831E+03  0.00000000000E+00 0.  1.
         21   -1    0    0  501  503 -0.00000000000E+00 -0.00000000000E+00 -0.35176977822E+03  0.35176977822E+03  0.00000000000E+00 0.  1.
          6    1    1    2  501    0 -0.12718131263E+03  0.27803381901E+02 -0.30412458512E+03  0.37332141326E+03  0.17300000000E+03 0.  1.
         -6    1    1    2    0  502  0.12718131263E+03 -0.27803381901E+02  0.88520393521E+03  0.91129749327E+03  0.17300000000E+03 0.  1.
<mgrwt>
<rscale>  2 0.21651123E+03</rscale>
<asrwt>0</asrwt>
<pdfrwt beam="1">  1       21 0.14351525E+00 0.21651123E+03</pdfrwt>
<pdfrwt beam="2">  1       21 0.54118428E-01 0.21651123E+03</pdfrwt>
<totfact> 0.10575937E+03</totfact>
</mgrwt>
</event>
<event>
 4    1  0.4199481E+000  0.1791170E+03  0.7546771E-02  0.1168660E+00
         21   -1    0    0  503  502  0.00000000000E+00  0.00000000000E+00  0.25405850284E+03  0.25405850284E+03  0.00000000000E+00 0.  1.
         21   -1    0    0  501  503 -0.00000000000E+00 -0.00000000000E+00 -0.16305744133E+03  0.16305744133E+03  0.00000000000E+00 0.  1.
          6    1    1    2  501    0 -0.14895945679E+02  0.43954738681E+02 -0.53545695053E+02  0.18694932391E+03  0.17300000000E+03 0.  1.
         -6    1    1    2    0  502  0.14895945679E+02 -0.43954738681E+02  0.14454675657E+03  0.23016662027E+03  0.17300000000E+03 0.  1.
<mgrwt>
<rscale>  2 0.17911702E+03</rscale>
<asrwt>0</asrwt>
<pdfrwt beam="1">  1       21 0.39085923E-01 0.17911702E+03</pdfrwt>
<pdfrwt beam="2">  1       21 0.25085760E-01 0.17911702E+03</pdfrwt>
<totfact> 0.95461770E+04</totfact>
</mgrwt>
</event>
<event>
 4    1  0.4199481E+000  0.3821941E+03  0.7546771E-02  0.1050126E+00
         21   -1    0    0  503  502  0.00000000000E+00  0.00000000000E+00  0.10579808600E+03  0.10579808600E+03  0.00000000000E+00 0.  1.
         21   -1    0    0  501  503 -0.00000000000E+00 -0.00000000000E+00 -0.16177470642E+04  0.16177470642E+04  0.00000000000E+00 0. -1.
          6    1    1    2  501    0 -0.24620544066E+03 -0.23564007675E+03 -0.10858735492E+04  0.11511705910E+04  0.17300000000E+03 0. -1.
         -6    1    1    2    0  502  0.24620544066E+03  0.23564007675E+03 -0.42607542897E+03  0.57237455914E+03  0.17300000000E+03 0.  1.
<mgrwt>
<rscale>  2 0.38219415E+03</rscale>
<asrwt>0</asrwt>
<pdfrwt beam="1">  1       21 0.16276630E-01 0.38219415E+03</pdfrwt>
<pdfrwt beam="2">  1       21 0.24888414E+00 0.38219415E+03</pdfrwt>
<totfact> 0.19636801E+03</totfact>
</mgrwt>
</event>
<event>
 4    1  0.4199481E+000  0.1978117E+03  0.7546771E-02  0.1151599E+00
         21   -1    0    0  501  502  0.00000000000E+00  0.00000000000E+00  0.41544523054E+02  0.41544523054E+02  0.00000000000E+00 0. -1.
         21   -1    0    0  502  503 -0.00000000000E+00 -0.00000000000E+00 -0.95973516071E+03  0.95973516071E+03  0.00000000000E+00 0. -1.
          6    1    1    2  501    0 -0.25534622477E+02  0.92457816411E+02 -0.39078675407E+03  0.43799971680E+03  0.17300000000E+03 0. -1.
         -6    1    1    2    0  503  0.25534622477E+02 -0.92457816411E+02 -0.52740388359E+03  0.56327996697E+03  0.17300000000E+03 0. -1.
<mgrwt>
<rscale>  2 0.19781169E+03</rscale>
<asrwt>0</asrwt>
<pdfrwt beam="1">  1       21 0.63914652E-02 0.19781169E+03</pdfrwt>
<pdfrwt beam="2">  1       21 0.14765156E+00 0.19781169E+03</pdfrwt>
<totfact> 0.54962842E+04</totfact>
</mgrwt>
</event>
<event>
 4    1  0.4199481E+000  0.1804674E+03  0.7546771E-02  0.1167351E+00
         21   -1    0    0  501  502  0.00000000000E+00  0.00000000000E+00  0.38612083347E+02  0.38612083347E+02  0.00000000000E+00 0. -1.
         21   -1    0    0  502  503 -0.00000000000E+00 -0.00000000000E+00 -0.10079444342E+04  0.10079444342E+04  0.00000000000E+00 0. -1.
          6    1    1    2  501    0 -0.51144844513E+02 -0.48678030369E+01 -0.27329225638E+03  0.32750137103E+03  0.17300000000E+03 0. -1.
         -6    1    1    2    0  503  0.51144844513E+02  0.48678030369E+01 -0.69604009451E+03  0.71905514656E+03  0.17300000000E+03 0. -1.
<mgrwt>
<rscale>  2 0.18046742E+03</rscale>
<asrwt>0</asrwt>
<pdfrwt beam="1">  1       21 0.59403207E-02 0.18046742E+03</pdfrwt>
<pdfrwt beam="2">  1       21 0.15506837E+00 0.18046742E+03</pdfrwt>
<totfact> 0.55284348E+04</totfact>
</mgrwt>
</event>
<event>
 4    1  0.4199481E+000  0.5585187E+03  0.7546771E-02  0.9995412E-01
         21   -1    0    0  503  502  0.00000000000E+00  0.00000000000E+00  0.52712472277E+03  0.52712472277E+03  0.00000000000E+00 0.  1.
         21   -1    0    0  501  503 -0.00000000000E+00 -0.00000000000E+00 -0.62200140868E+03  0.62200140868E+03  0.00000000000E+00 0. -1.
          6    1    1    2  501    0 -0.13583285165E+02 -0.53087628640E+03 -0.17408160227E+03  0.58501926579E+03  0.17300000000E+03 0. -1.
         -6    1    1    2    0  502  0.13583285165E+02  0.53087628640E+03  0.79204916360E+02  0.56410686565E+03  0.17300000000E+03 0.  1.
<mgrwt>
<rscale>  2 0.55851870E+03</rscale>
<asrwt>0</asrwt>
<pdfrwt beam="1">  1       21 0.81096111E-01 0.55851870E+03</pdfrwt>
<pdfrwt beam="2">  1       21 0.95692524E-01 0.55851870E+03</pdfrwt>
<totfact> 0.99331494E+02</totfact>
</mgrwt>
</event>
<event>
 4    1  0.4199481E+000  0.2233292E+03  0.7546771E-02  0.1131425E+00
         21   -1    0    0  503  502  0.00000000000E+00  0.00000000000E+00  0.92234912265E+03  0.92234912265E+03  0.00000000000E+00 0. -1.
         21   -1    0    0  501  503 -0.00000000000E+00 -0.00000000000E+00 -0.61026180954E+02  0.61026180954E+02  0.00000000000E+00 0.  1.
          6    1    1    2  501    0 -0.13897998502E+03  0.25129280408E+02  0.26471642546E+03  0.34633899994E+03  0.17300000000E+03 0.  1.
         -6    1    1    2    0  502  0.13897998502E+03 -0.25129280408E+02  0.59660651624E+03  0.63703630366E+03  0.17300000000E+03 0. -1.
<mgrwt>
<rscale>  2 0.22332917E+03</rscale>
<asrwt>0</asrwt>
<pdfrwt beam="1">  1       21 0.14189985E+00 0.22332917E+03</pdfrwt>
<pdfrwt beam="2">  1       21 0.93886439E-02 0.22332917E+03</pdfrwt>
<totfact> 0.30775923E+04</totfact>
</mgrwt>
</event>
<event>
 4    1  0.4199481E+000  0.2209075E+03  0.7546771E-02  0.1133208E+00
         21   -1    0    0  503  502  0.00000000000E+00  0.00000000000E+00  0.24066121795E+03  0.24066121795E+03  0.00000000000E+00 0. -1.
         21   -1    0    0  501  503 -0.00000000000E+00 -0.00000000000E+00 -0.28675983833E+03  0.28675983833E+03  0.00000000000E+00 0. -1.
          6    1    1    2  501    0 -0.12288990661E+03  0.61393936260E+02 -0.16576379049E+03  0.27618432032E+03  0.17300000000E+03 0. -1.
         -6    1    1    2    0  502  0.12288990661E+03 -0.61393936260E+02  0.11966517011E+03  0.25123673595E+03  0.17300000000E+03 0. -1.
<mgrwt>
<rscale>  2 0.22090755E+03</rscale>
<asrwt>0</asrwt>
<pdfrwt beam="1">  1       21 0.37024803E-01 0.22090755E+03</pdfrwt>
<pdfrwt beam="2">  1       21 0.44116898E-01 0.22090755E+03</pdfrwt>
<totfact> 0.34217876E+04</totfact>
</mgrwt>
</event>
<event>
 4    1  0.4199481E+000  0.2392313E+03  0.7546771E-02  0.1120306E+00
         21   -1    0    0  501  502  0.00000000000E+00  0.00000000000E+00  0.28093411748E+02  0.28093411748E+02  0.00000000000E+00 0.  1.
         21   -1    0    0  502  503 -0.00000000000E+00 -0.00000000000E+00 -0.21312521401E+04  0.21312521401E+04  0.00000000000E+00 0.  1.
          6    1    1    2  501    0 -0.14183564084E+03  0.84765965679E+02 -0.12783997704E+04  0.13005912466E+04  0.17300000000E+03 0.  1.
         -6    1    1    2    0  503  0.14183564084E+03 -0.84765965679E+02 -0.82475895802E+03  0.85875430525E+03  0.17300000000E+03 0.  1.
<mgrwt>
<rscale>  2 0.23923131E+03</rscale>
<asrwt>0</asrwt>
<pdfrwt beam="1">  1       21 0.43220648E-02 0.23923131E+03</pdfrwt>
<pdfrwt beam="2">  1       21 0.32788483E+00 0.23923131E+03</pdfrwt>
<totfact> 0.77135296E+03</totfact>
</mgrwt>
</event>
<event>
 4    1  0.4199481E+000  0.2558443E+03  0.7546771E-02  0.1109666E+00
         21   -1    0    0  501  502  0.00000000000E+00  0.00000000000E+00  0.10058207762E+03  0.10058207762E+03  0.00000000000E+00 0.  1.
         21   -1    0    0  502  503 -0.00000000000E+00 -0.00000000000E+00 -0.65151906237E+03  0.65151906237E+03  0.00000000000E+00 0.  1.
          6    1    1    2  501    0  0.10167117964E+01  0.18848409184E+03 -0.26275892336E+03  0.36674042371E+03  0.17300000000E+03 0.  1.
         -6    1    1    2    0  503 -0.10167117964E+01 -0.18848409184E+03 -0.28817806140E+03  0.38536071628E+03  0.17300000000E+03 0.  1.
<mgrwt>
<rscale>  2 0.25584426E+03</rscale>
<asrwt>0</asrwt>
<pdfrwt beam="1">  1       21 0.15474166E-01 0.25584426E+03</pdfrwt>
<pdfrwt beam="2">  1       21 0.10023370E+00 0.25584426E+03</pdfrwt>
<totfact> 0.29287270E+04</totfact>
</mgrwt>
</event>
<event>
 4    1  0.4199481E+000  0.2085684E+03  0.7546771E-02  0.1142705E+00
         21   -1    0    0  503  502  0.00000000000E+00  0.00000000000E+00  0.43146782527E+03  0.43146782527E+03  0.00000000000E+00 0. -1.
         21   -1    0    0  501  503 -0.00000000000E+00 -0.00000000000E+00 -0.12029796807E+03  0.12029796807E+03  0.00000000000E+00 0. -1.
          6    1    1    2  501    0 -0.47504816231E+02 -0.10637230966E+03  0.44574812962E+02  0.21327843252E+03  0.17300000000E+03 0. -1.
         -6    1    1    2    0  502  0.47504816231E+02  0.10637230966E+03  0.26659504423E+03  0.33848736082E+03  0.17300000000E+03 0. -1.
<mgrwt>
<rscale>  2 0.20856840E+03</rscale>
<asrwt>0</asrwt>
<pdfrwt beam="1">  1       21 0.66379664E-01 0.20856840E+03</pdfrwt>
<pdfrwt beam="2">  1       21 0.18507380E-01 0.20856840E+03</pdfrwt>
<totfact> 0.55098840E+04</totfact>
</mgrwt>
</event>
<event>
 4    1  0.4199481E+000  0.1963603E+03  0.7546771E-02  0.1152847E+00
         21   -1    0    0  501  502  0.00000000000E+00  0.00000000000E+00  0.13332311846E+03  0.13332311846E+03  0.00000000000E+00 0. -1.
         21   -1    0    0  502  503 -0.00000000000E+00 -0.00000000000E+00 -0.98587008873E+03  0.98587008873E+03  0.00000000000E+00 0.  1.
          6    1    1    2  501    0 -0.48434716756E+02 -0.79261932251E+02  0.44138129387E+02  0.20125990698E+03  0.17300000000E+03 0. -1.
         -6    1    1    2    0  503  0.48434716756E+02  0.79261932251E+02 -0.89668509965E+03  0.91793330021E+03  0.17300000000E+03 0.  1.
<mgrwt>
<rscale>  2 0.19636032E+03</rscale>
<asrwt>0</asrwt>
<pdfrwt beam="1">  1       21 0.20511249E-01 0.19636032E+03</pdfrwt>
<pdfrwt beam="2">  1       21 0.15167232E+00 0.19636032E+03</pdfrwt>
<totfact> 0.63726495E+03</totfact>
</mgrwt>
</event>
<event>
 4    1  0.4199481E+000  0.3351883E+03  0.7546771E-02  0.1068864E+00
         21   -1    0    0  503  502  0.00000000000E+00  0.00000000000E+00  0.15625028279E+03  0.15625028279E+03  0.00000000000E+00 0. -1.
         21   -1    0    0  501  503 -0.00000000000E+00 -0.00000000000E+00 -0.75038381796E+03  0.75038381796E+03  0.00000000000E+00 0.  1.
          6    1    1    2  501    0 -0.31518108839E+02  0.28535735274E+03 -0.20442824155E+03  0.39260936806E+03  0.17300000000E+03 0. -1.
         -6    1    1    2    0  502  0.31518108839E+02 -0.28535735274E+03 -0.38970529362E+03  0.51402473269E+03  0.17300000000E+03 0.  1.
<mgrwt>
<rscale>  2 0.33518832E+03</rscale>
<asrwt>0</asrwt>
<pdfrwt beam="1">  1       21 0.24038505E-01 0.33518832E+03</pdfrwt>
<pdfrwt beam="2">  1       21 0.11544366E+00 0.33518832E+03</pdfrwt>
<totfact> 0.87499124E+03</totfact>
</mgrwt>
</event>
<event>
 4    1  0.4199481E+000  0.2226692E+03  0.7546771E-02  0.1131909E+00
         21   -1    0    0  501  502  0.00000000000E+00  0.00000000000E+00  0.16979076975E+03  0.16979076975E+03  0.00000000000E+00 0. -1.
         21   -1    0    0  502  503 -0.00000000000E+00 -0.00000000000E+00 -0.29327579944E+03  0.29327579944E+03  0.00000000000E+00 0. -1.
          6    1    1    2  501    0  0.82392925451E+02  0.11341939277E+03 -0.46565175175E+02  0.22748597399E+03  0.17300000000E+03 0. -1.
         -6    1    1    2    0  503 -0.82392925451E+02 -0.11341939277E+03 -0.76919854514E+02  0.23558059521E+03  0.17300000000E+03 0. -1.
<mgrwt>
<rscale>  2 0.22266916E+03</rscale>
<asrwt>0</asrwt>
<pdfrwt beam="1">  1       21 0.26121657E-01 0.22266916E+03</pdfrwt>
<pdfrwt beam="2">  1       21 0.45119354E-01 0.22266916E+03</pdfrwt>
<totfact> 0.64772440E+04</totfact>
</mgrwt>
</event>
<event>
 4    1  0.4199481E+000  0.2232386E+03  0.7546771E-02  0.1131491E+00
         21   -1    0    0  501  502  0.00000000000E+00  0.00000000000E+00  0.20716356535E+03  0.20716356535E+03  0.00000000000E+00 0.  1.
         21   -1    0    0  502  503 -0.00000000000E+00 -0.00000000000E+00 -0.39607674341E+03  0.39607674341E+03  0.00000000000E+00 0. -1.
          6    1    1    2  501    0  0.78171502897E+01  0.14087354238E+03  0.94541731778E+02  0.24243267484E+03  0.17300000000E+03 0.  1.
         -6    1    1    2    0  503 -0.78171502897E+01 -0.14087354238E+03 -0.28345490984E+03  0.36080763392E+03  0.17300000000E+03 0. -1.
<mgrwt>
<rscale>  2 0.22323858E+03</rscale>
<asrwt>0</asrwt>
<pdfrwt beam="1">  1       21 0.31871318E-01 0.22323858E+03</pdfrwt>
<pdfrwt beam="2">  1       21 0.60934883E-01 0.22323858E+03</pdfrwt>
<totfact> 0.23324090E+04</totfact>
</mgrwt>
</event>
<event>
 4    1  0.4199481E+000  0.2250932E+03  0.7546771E-02  0.1130142E+00
         21   -1    0    0  501  502  0.00000000000E+00  0.00000000000E+00  0.24368594542E+03  0.24368594542E+03  0.00000000000E+00 0.  1.
         21   -1    0    0  502  503 -0.00000000000E+00 -0.00000000000E+00 -0.16944013718E+04  0.16944013718E+04  0.00000000000E+00 0.  1.
          6    1    1    2  501    0  0.18399298505E+01 -0.14399494737E+03  0.18228532957E+03  0.28964611440E+03  0.17300000000E+03 0.  1.
         -6    1    1    2    0  503 -0.18399298505E+01  0.14399494737E+03 -0.16330007559E+04  0.16484412028E+04  0.17300000000E+03 0.  1.
<mgrwt>
<rscale>  2 0.22509316E+03</rscale>
<asrwt>0</asrwt>
<pdfrwt beam="1">  1       21 0.37490145E-01 0.22509316E+03</pdfrwt>
<pdfrwt beam="2">  1       21 0.26067714E+00 0.22509316E+03</pdfrwt>
<totfact> 0.37890051E+02</totfact>
</mgrwt>
</event>
<event>
 4    1  0.4199481E+000  0.2002238E+03  0.7546771E-02  0.1149550E+00
         21   -1    0    0  503  502  0.00000000000E+00  0.00000000000E+00  0.20665269615E+03  0.20665269615E+03  0.00000000000E+00 0.  1.
         21   -1    0    0  501  503 -0.00000000000E+00 -0.00000000000E+00 -0.25392777389E+03  0.25392777389E+03  0.00000000000E+00 0.  1.
          6    1    1    2  501    0  0.54780617852E+02 -0.84614700691E+02  0.88242618274E+02  0.21880658890E+03  0.17300000000E+03 0.  1.
         -6    1    1    2    0  502 -0.54780617852E+02  0.84614700691E+02 -0.13551769601E+03  0.24177388113E+03  0.17300000000E+03 0.  1.
<mgrwt>
<rscale>  2 0.20022378E+03</rscale>
<asrwt>0</asrwt>
<pdfrwt beam="1">  1       21 0.31792722E-01 0.20022378E+03</pdfrwt>
<pdfrwt beam="2">  1       21 0.39065811E-01 0.20022378E+03</pdfrwt>
<totfact> 0.59886674E+04</totfact>
</mgrwt>
</event>
<event>
 4    1  0.4199481E+000  0.2548891E+03  0.7546771E-02  0.1110253E+00
         21   -1    0    0  503  502  0.00000000000E+00  0.00000000000E+00  0.36316049837E+03  0.36316049837E+03  0.00000000000E+00 0.  1.
         21   -1    0    0  501  503 -0.00000000000E+00 -0.00000000000E+00 -0.24886715718E+03  0.24886715718E+03  0.00000000000E+00 0. -1.
          6    1    1    2  501    0  0.78273735788E+02 -0.17003720279E+03 -0.10511382222E+03  0.27571242930E+03  0.17300000000E+03 0. -1.
         -6    1    1    2    0  502 -0.78273735788E+02  0.17003720279E+03  0.21940716341E+03  0.33631522624E+03  0.17300000000E+03 0.  1.
<mgrwt>
<rscale>  2 0.25488905E+03</rscale>
<asrwt>0</asrwt>
<pdfrwt beam="1">  1       21 0.55870846E-01 0.25488905E+03</pdfrwt>
<pdfrwt beam="2">  1       21 0.38287255E-01 0.25488905E+03</pdfrwt>
<totfact> 0.19186802E+04</totfact>
</mgrwt>
</event>
<event>
 4    1  0.4199481E+000  0.2295498E+03  0.7546771E-02  0.1126957E+00
         21   -1    0    0  501  502  0.00000000000E+00  0.00000000000E+00  0.16956191713E+04  0.16956191713E+04  0.00000000000E+00 0. -1.
         21   -1    0    0  502  503 -0.00000000000E+00 -0.00000000000E+00 -0.36072630738E+02  0.36072630738E+02  0.00000000000E+00 0.  1.
          6    1    1    2  501    0 -0.13220616269E+03  0.72702384910E+02  0.11520204872E+04  0.11746677441E+04  0.17300000000E+03 0. -1.
         -6    1    1    2    0  503  0.13220616269E+03 -0.72702384910E+02  0.50752605339E+03  0.55702405791E+03  0.17300000000E+03 0.  1.
<mgrwt>
<rscale>  2 0.22954979E+03</rscale>
<asrwt>0</asrwt>
<pdfrwt beam="1">  1       21 0.26086442E+00 0.22954979E+03</pdfrwt>
<pdfrwt beam="2">  1       21 0.55496368E-02 0.22954979E+03</pdfrwt>
<totfact> 0.12519899E+04</totfact>
</mgrwt>
</event>
<event>
 4    1  0.4199481E+000  0.2000589E+03  0.7546771E-02  0.1149689E+00
         21   -1    0    0  503  502  0.00000000000E+00  0.00000000000E+00  0.29916455052E+02  0.29916455052E+02  0.00000000000E+00 0.  1.
         21   -1    0    0  501  503 -0.00000000000E+00 -0.00000000000E+00 -0.18390634587E+04  0.18390634587E+04  0.00000000000E+00 0. -1.
          6    1    1    2  501    0 -0.73985533957E+02 -0.67975837664E+02 -0.13924275318E+04  0.14067259879E+04  0.17300000000E+03 0. -1.
         -6    1    1    2    0  502  0.73985533957E+02  0.67975837664E+02 -0.41671947184E+03  0.46225392584E+03  0.17300000000E+03 0.  1.
<mgrwt>
<rscale>  2 0.20005893E+03</rscale>
<asrwt>0</asrwt>
<pdfrwt beam="1">  1       21 0.46025292E-02 0.20005893E+03</pdfrwt>
<pdfrwt beam="2">  1       21 0.28293299E+00 0.20005893E+03</pdfrwt>
<totfact> 0.13148630E+04</totfact>
</mgrwt>
</event>
<event>
 4    1  0.4199481E+000  0.1805914E+03  0.7546771E-02  0.1167232E+00
         21   -1    0    0  503  502  0.00000000000E+00  0.00000000000E+00  0.32155816178E+03  0.32155816178E+03  0.00000000000E+00 0.  1.
         21   -1    0    0  501  503 -0.00000000000E+00 -0.00000000000E+00 -0.19205123205E+03  0.19205123205E+03  0.00000000000E+00 0. -1.
          6    1    1    2  501    0 -0.71014565159E+01 -0.51320750603E+02 -0.11165817446E+03  0.21232239178E+03  0.17300000000E+03 0. -1.
         -6    1    1    2    0  502  0.71014565159E+01  0.51320750603E+02  0.24116510419E+03  0.30128700205E+03  0.17300000000E+03 0.  1.
<mgrwt>
<rscale>  2 0.18059139E+03</rscale>
<asrwt>0</asrwt>
<pdfrwt beam="1">  1       21 0.49470486E-01 0.18059139E+03</pdfrwt>
<pdfrwt beam="2">  1       21 0.29546343E-01 0.18059139E+03</pdfrwt>
<totfact> 0.43019685E+04</totfact>
</mgrwt>
</event>
<event>
 4    1  0.4199481E+000  0.1767606E+03  0.7546771E-02  0.1170975E+00
         21   -1    0    0  501  502  0.00000000000E+00  0.00000000000E+00  0.56563495343E+02  0.56563495343E+02  0.00000000000E+00 0. -1.
         21   -1    0    0  502  503 -0.00000000000E+00 -0.00000000000E+00 -0.55237691675E+03  0.55237691675E+03  0.00000000000E+00 0. -1.
          6    1    1    2  501    0  0.18619909577E+02  0.31122623256E+02 -0.24829359110E+03  0.30478521305E+03  0.17300000000E+03 0. -1.
         -6    1    1    2    0  503 -0.18619909577E+02 -0.31122623256E+02 -0.24751983031E+03  0.30415519905E+03  0.17300000000E+03 0. -1.
<mgrwt>
<rscale>  2 0.17676063E+03</rscale>
<asrwt>0</asrwt>
<pdfrwt beam="1">  1       21 0.87020761E-02 0.17676063E+03</pdfrwt>
<pdfrwt beam="2">  1       21 0.84981065E-01 0.17676063E+03</pdfrwt>
<totfact> 0.12495847E+05</totfact>
</mgrwt>
</event>
<event>
 4    1  0.4199481E+000  0.1762631E+03  0.7546771E-02  0.1171469E+00
         21   -1    0    0  501  502  0.00000000000E+00  0.00000000000E+00  0.21504472357E+03  0.21504472357E+03  0.00000000000E+00 0.  1.
         21   -1    0    0  502  503 -0.00000000000E+00 -0.00000000000E+00 -0.16413019824E+03  0.16413019824E+03  0.00000000000E+00 0.  1.
          6    1    1    2  501    0  0.33542982104E+02 -0.38126047705E+01 -0.40149696266E+02  0.18077794587E+03  0.17300000000E+03 0.  1.
         -6    1    1    2    0  503 -0.33542982104E+02  0.38126047705E+01  0.91064221596E+02  0.19839697593E+03  0.17300000000E+03 0.  1.
<mgrwt>
<rscale>  2 0.17626306E+03</rscale>
<asrwt>0</asrwt>
<pdfrwt beam="1">  1       21 0.33083804E-01 0.17626306E+03</pdfrwt>
<pdfrwt beam="2">  1       21 0.25250800E-01 0.17626306E+03</pdfrwt>
<totfact> 0.13145461E+05</totfact>
</mgrwt>
</event>
<event>
 4    1  0.4199481E+000  0.1880050E+03  0.7546771E-02  0.1160273E+00
         21   -1    0    0  501  502  0.00000000000E+00  0.00000000000E+00  0.60173308031E+03  0.60173308031E+03  0.00000000000E+00 0.  1.
         21   -1    0    0  502  503 -0.00000000000E+00 -0.00000000000E+00 -0.59482886861E+02  0.59482886861E+02  0.00000000000E+00 0.  1.
          6    1    1    2  501    0  0.35645672571E+02  0.64391546373E+02  0.30806857732E+03  0.36090460450E+03  0.17300000000E+03 0. -1.
         -6    1    1    2    0  503 -0.35645672571E+02 -0.64391546373E+02  0.23418161614E+03  0.30031136268E+03  0.17300000000E+03 0. -1.
<mgrwt>
<rscale>  2 0.18800501E+03</rscale>
<asrwt>0</asrwt>
<pdfrwt beam="1">  1       21 0.92574316E-01 0.18800501E+03</pdfrwt>
<pdfrwt beam="2">  1       21 0.91512138E-02 0.18800501E+03</pdfrwt>
<totfact> 0.93528989E+04</totfact>
</mgrwt>
</event>
<event>
 4    1  0.4199481E+000  0.1970057E+03  0.7546771E-02  0.1152290E+00
         21   -1    0    0  503  502  0.00000000000E+00  0.00000000000E+00  0.30789454030E+03  0.30789454030E+03  0.00000000000E+00 0.  1.
         21   -1    0    0  501  503 -0.00000000000E+00 -0.00000000000E+00 -0.19743772655E+03  0.19743772655E+03  0.00000000000E+00 0.  1.
          6    1    1    2  501    0 -0.93755455894E+02 -0.95998947577E+01 -0.96697735025E+02  0.21945773044E+03  0.17300000000E+03 0.  1.
         -6    1    1    2    0  502  0.93755455894E+02  0.95998947577E+01  0.20715454878E+03  0.28587453641E+03  0.17300000000E+03 0.  1.
<mgrwt>
<rscale>  2 0.19700569E+03</rscale>
<asrwt>0</asrwt>
<pdfrwt beam="1">  1       21 0.47368391E-01 0.19700569E+03</pdfrwt>
<pdfrwt beam="2">  1       21 0.30375035E-01 0.19700569E+03</pdfrwt>
<totfact> 0.44246266E+04</totfact>
</mgrwt>
</event>
<event>
 4    1  0.4199481E+000  0.1826886E+03  0.7546771E-02  0.1165226E+00
         21   -1    0    0  501  502  0.00000000000E+00  0.00000000000E+00  0.85190987878E+03  0.85190987878E+03  0.00000000000E+00 0. -1.
         21   -1    0    0  502  503 -0.00000000000E+00 -0.00000000000E+00 -0.39197216341E+02  0.39197216341E+02  0.00000000000E+00 0. -1.
          6    1    1    2  501    0 -0.51030395526E+02 -0.29017825161E+02  0.41651542671E+03  0.45481890476E+03  0.17300000000E+03 0. -1.
         -6    1    1    2    0  503  0.51030395526E+02  0.29017825161E+02  0.39619723573E+03  0.43628819036E+03  0.17300000000E+03 0. -1.
<mgrwt>
<rscale>  2 0.18268863E+03</rscale>
<asrwt>0</asrwt>
<pdfrwt beam="1">  1       21 0.13106304E+00 0.18268863E+03</pdfrwt>
<pdfrwt beam="2">  1       21 0.60303416E-02 0.18268863E+03</pdfrwt>
<totfact> 0.83165488E+04</totfact>
</mgrwt>
</event>
<event>
 4    1  0.4199481E+000  0.1885668E+03  0.7546771E-02  0.1159760E+00
         21   -1    0    0  501  502  0.00000000000E+00  0.00000000000E+00  0.82855081175E+02  0.82855081175E+02  0.00000000000E+00 0.  1.
         21   -1    0    0  502  503 -0.00000000000E+00 -0.00000000000E+00 -0.17391001959E+04  0.17391001959E+04  0.00000000000E+00 0.  1.
          6    1    1    2  501    0 -0.67400075117E+02  0.32949551027E+02 -0.37494109712E+02  0.19225829319E+03  0.17300000000E+03 0.  1.
         -6    1    1    2    0  503  0.67400075117E+02 -0.32949551027E+02 -0.16187510050E+04  0.16296969839E+04  0.17300000000E+03 0.  1.
<mgrwt>
<rscale>  2 0.18856681E+03</rscale>
<asrwt>0</asrwt>
<pdfrwt beam="1">  1       21 0.12746936E-01 0.18856681E+03</pdfrwt>
<pdfrwt beam="2">  1       21 0.26755387E+00 0.18856681E+03</pdfrwt>
<totfact> 0.27790185E+03</totfact>
</mgrwt>
</event>
<event>
 4    1  0.4199481E+000  0.1841531E+03  0.7546771E-02  0.1163843E+00
         21   -1    0    0  501  502  0.00000000000E+00  0.00000000000E+00  0.18005894708E+03  0.18005894708E+03  0.00000000000E+00 0. -1.
         21   -1    0    0  502  503 -0.00000000000E+00 -0.00000000000E+00 -0.19525103067E+03  0.19525103067E+03  0.00000000000E+00 0. -1.
          6    1    1    2  501    0  0.51948225365E+02 -0.35843232084E+02  0.27708091527E+02  0.18622592124E+03  0.17300000000E+03 0. -1.
         -6    1    1    2    0  503 -0.51948225365E+02  0.35843232084E+02 -0.42900175116E+02  0.18908405652E+03  0.17300000000E+03 0. -1.
<mgrwt>
<rscale>  2 0.18415308E+03</rscale>
<asrwt>0</asrwt>
<pdfrwt beam="1">  1       21 0.27701376E-01 0.18415308E+03</pdfrwt>
<pdfrwt beam="2">  1       21 0.30038620E-01 0.18415308E+03</pdfrwt>
<totfact> 0.13259453E+05</totfact>
</mgrwt>
</event>
<event>
 4    1  0.4199481E+000  0.2321230E+03  0.7546771E-02  0.1125154E+00
         21   -1    0    0  503  502  0.00000000000E+00  0.00000000000E+00  0.22478092193E+04  0.22478092193E+04  0.00000000000E+00 0. -1.
         21   -1    0    0  501  503 -0.00000000000E+00 -0.00000000000E+00 -0.50416035321E+02  0.50416035321E+02  0.00000000000E+00 0. -1.
          6    1    1    2  501    0 -0.47644591752E+01 -0.15469129629E+03  0.26644529003E+03  0.35337542331E+03  0.17300000000E+03 0. -1.
         -6    1    1    2    0  502  0.47644591752E+01  0.15469129629E+03  0.19309478939E+04  0.19448498313E+04  0.17300000000E+03 0. -1.
<mgrwt>
<rscale>  2 0.23212302E+03</rscale>
<asrwt>0</asrwt>
<pdfrwt beam="1">  1       21 0.34581673E+00 0.23212302E+03</pdfrwt>
<pdfrwt beam="2">  1       21 0.77563149E-02 0.23212302E+03</pdfrwt>
<totfact> 0.22308644E+03</totfact>
</mgrwt>
</event>
<event>
 4    1  0.4199481E+000  0.1798293E+03  0.7546771E-02  0.1167968E+00
         21   -1    0    0  501  502  0.00000000000E+00  0.00000000000E+00  0.24434178474E+03  0.24434178474E+03  0.00000000000E+00 0. -1.
         21   -1    0    0  502  503 -0.00000000000E+00 -0.00000000000E+00 -0.21629131927E+03  0.21629131927E+03  0.00000000000E+00 0. -1.
          6    1    1    2  501    0 -0.16654296742E+02  0.46175924841E+02  0.15750612472E+03  0.23905388714E+03  0.17300000000E+03 0. -1.
         -6    1    1    2    0  503  0.16654296742E+02 -0.46175924841E+02 -0.12945565925E+03  0.22157921686E+03  0.17300000000E+03 0. -1.
<mgrwt>
<rscale>  2 0.17982931E+03</rscale>
<asrwt>0</asrwt>
<pdfrwt beam="1">  1       21 0.37591044E-01 0.17982931E+03</pdfrwt>
<pdfrwt beam="2">  1       21 0.33275587E-01 0.17982931E+03</pdfrwt>
<totfact> 0.59695900E+04</totfact>
</mgrwt>
</event>
<event>
 4    1  0.4199481E+000  0.3215181E+03  0.7546771E-02  0.1074953E+00
         21   -1    0    0  503  502  0.00000000000E+00  0.00000000000E+00  0.42697600875E+03  0.42697600875E+03  0.00000000000E+00 0. -1.
         21   -1    0    0  501  503 -0.00000000000E+00 -0.00000000000E+00 -0.32569836517E+03  0.32569836517E+03  0.00000000000E+00 0.  1.
          6    1    1    2  501    0  0.12351942097E+03 -0.24122158091E+03 -0.14001694460E+03  0.35068310941E+03  0.17300000000E+03 0.  1.
         -6    1    1    2    0  502 -0.12351942097E+03  0.24122158091E+03  0.24129458818E+03  0.40199126450E+03  0.17300000000E+03 0. -1.
<mgrwt>
<rscale>  2 0.32151812E+03</rscale>
<asrwt>0</asrwt>
<pdfrwt beam="1">  1       21 0.65688617E-01 0.32151812E+03</pdfrwt>
<pdfrwt beam="2">  1       21 0.50107440E-01 0.32151812E+03</pdfrwt>
<totfact> 0.75095069E+03</totfact>
</mgrwt>
</event>
<event>
 4    1  0.4199481E+000  0.1907688E+03  0.7546771E-02  0.1157770E+00
         21   -1    0    0  503  502  0.00000000000E+00  0.00000000000E+00  0.44701013826E+03  0.44701013826E+03  0.00000000000E+00 0.  1.
         21   -1    0    0  501  503 -0.00000000000E+00 -0.00000000000E+00 -0.86843342412E+02  0.86843342412E+02  0.00000000000E+00 0.  1.
          6    1    1    2  501    0  0.15510135029E+02  0.78887052315E+02  0.11333958075E+03  0.22189770588E+03  0.17300000000E+03 0.  1.
         -6    1    1    2    0  502 -0.15510135029E+02 -0.78887052315E+02  0.24682721510E+03  0.31195577479E+03  0.17300000000E+03 0.  1.
<mgrwt>
<rscale>  2 0.19076879E+03</rscale>
<asrwt>0</asrwt>
<pdfrwt beam="1">  1       21 0.68770789E-01 0.19076879E+03</pdfrwt>
<pdfrwt beam="2">  1       21 0.13360514E-01 0.19076879E+03</pdfrwt>
<totfact> 0.93291962E+04</totfact>
</mgrwt>
</event>
<event>
 4    1  0.4199481E+000  0.1913588E+03  0.7546771E-02  0.1157241E+00
         21   -1    0    0  503  502  0.00000000000E+00  0.00000000000E+00  0.23482631395E+03  0.23482631395E+03  0.00000000000E+00 0.  1.
         21   -1    0    0  501  503 -0.00000000000E+00 -0.00000000000E+00 -0.17416825344E+03  0.17416825344E+03  0.00000000000E+00 0.  1.
          6    1    1    2  501    0  0.38138494146E+02 -0.72350931125E+02 -0.35832675152E+02  0.19468482884E+03  0.17300000000E+03 0.  1.
         -6    1    1    2    0  502 -0.38138494146E+02  0.72350931125E+02  0.96490735664E+02  0.21430973855E+03  0.17300000000E+03 0.  1.
<mgrwt>
<rscale>  2 0.19135883E+03</rscale>
<asrwt>0</asrwt>
<pdfrwt beam="1">  1       21 0.36127125E-01 0.19135883E+03</pdfrwt>
<pdfrwt beam="2">  1       21 0.26795116E-01 0.19135883E+03</pdfrwt>
<totfact> 0.98042055E+04</totfact>
</mgrwt>
</event>
<event>
 4    1  0.4199481E+000  0.1872349E+03  0.7546771E-02  0.1160979E+00
         21   -1    0    0  503  502  0.00000000000E+00  0.00000000000E+00  0.10147494584E+04  0.10147494584E+04  0.00000000000E+00 0. -1.
         21   -1    0    0  501  503 -0.00000000000E+00 -0.00000000000E+00 -0.82443609303E+02  0.82443609303E+02  0.00000000000E+00 0. -1.
          6    1    1    2  501    0 -0.35058664503E+02 -0.62440428202E+02  0.48009468805E+02  0.19329207466E+03  0.17300000000E+03 0. -1.
         -6    1    1    2    0  502  0.35058664503E+02  0.62440428202E+02  0.88429638033E+03  0.90390099308E+03  0.17300000000E+03 0. -1.
<mgrwt>
<rscale>  2 0.18723492E+03</rscale>
<asrwt>0</asrwt>
<pdfrwt beam="1">  1       21 0.15611529E+00 0.18723492E+03</pdfrwt>
<pdfrwt beam="2">  1       21 0.12683633E-01 0.18723492E+03</pdfrwt>
<totfact> 0.14342412E+04</totfact>
</mgrwt>
</event>
<event>
 4    1  0.4199481E+000  0.1904813E+03  0.7546771E-02  0.1158028E+00
         21   -1    0    0  503  502  0.00000000000E+00  0.00000000000E+00  0.20134615443E+02  0.20134615443E+02  0.00000000000E+00 0.  1.
         21   -1    0    0  501  503 -0.00000000000E+00 -0.00000000000E+00 -0.18045495295E+04  0.18045495295E+04  0.00000000000E+00 0.  1.
          6    1    1    2  501    0  0.25136896245E+02 -0.75645735546E+02 -0.85810347717E+03  0.87899073851E+03  0.17300000000E+03 0.  1.
         -6    1    1    2    0  502 -0.25136896245E+02  0.75645735546E+02 -0.92631143693E+03  0.94569340648E+03  0.17300000000E+03 0.  1.
<mgrwt>
<rscale>  2 0.19048134E+03</rscale>
<asrwt>0</asrwt>
<pdfrwt beam="1">  1       21 0.30976322E-02 0.19048134E+03</pdfrwt>
<pdfrwt beam="2">  1       21 0.27762309E+00 0.19048134E+03</pdfrwt>
<totfact> 0.27613961E+04</totfact>
</mgrwt>
</event>
<event>
 4    1  0.4199481E+000  0.1908736E+03  0.7546771E-02  0.1157676E+00
         21   -1    0    0  503  502  0.00000000000E+00  0.00000000000E+00  0.46332271214E+03  0.46332271214E+03  0.00000000000E+00 0.  1.
         21   -1    0    0  501  503 -0.00000000000E+00 -0.00000000000E+00 -0.84664609030E+02  0.84664609030E+02  0.00000000000E+00 0. -1.
          6    1    1    2  501    0 -0.44964840350E+02 -0.66947055964E+02  0.26245703380E+03  0.32452494474E+03  0.17300000000E+03 0.  1.
         -6    1    1    2    0  502  0.44964840350E+02  0.66947055964E+02  0.11620106931E+03  0.22346237643E+03  0.17300000000E+03 0. -1.
<mgrwt>
<rscale>  2 0.19087364E+03</rscale>
<asrwt>0</asrwt>
<pdfrwt beam="1">  1       21 0.71280416E-01 0.19087364E+03</pdfrwt>
<pdfrwt beam="2">  1       21 0.13025325E-01 0.19087364E+03</pdfrwt>
<totfact> 0.90240194E+04</totfact>
</mgrwt>
</event>
<event>
 4    1  0.4199481E+000  0.2068110E+03  0.7546771E-02  0.1144117E+00
         21   -1    0    0  503  502  0.00000000000E+00  0.00000000000E+00  0.14944776172E+03  0.14944776172E+03  0.00000000000E+00 0. -1.
         21   -1    0    0  501  503 -0.00000000000E+00 -0.00000000000E+00 -0.53979110607E+03  0.53979110607E+03  0.00000000000E+00 0. -1.
          6    1    1    2  501    0  0.34765387683E+02  0.10785706597E+03 -0.43138294407E+03  0.47839525844E+03  0.17300000000E+03 0. -1.
         -6    1    1    2    0  502 -0.34765387683E+02 -0.10785706597E+03  0.41039599726E+02  0.21084360935E+03  0.17300000000E+03 0. -1.
<mgrwt>
<rscale>  2 0.20681097E+03</rscale>
<asrwt>0</asrwt>
<pdfrwt beam="1">  1       21 0.22991964E-01 0.20681097E+03</pdfrwt>
<pdfrwt beam="2">  1       21 0.83044785E-01 0.20681097E+03</pdfrwt>
<totfact> 0.22253955E+04</totfact>
</mgrwt>
</event>
<event>
 4    1  0.4199481E+000  0.1997028E+03  0.7546771E-02  0.1149990E+00
         21   -1    0    0  501  502  0.00000000000E+00  0.00000000000E+00  0.57853133107E+03  0.57853133107E+03  0.00000000000E+00 0. -1.
         21   -1    0    0  502  503 -0.00000000000E+00 -0.00000000000E+00 -0.15812672327E+03  0.15812672327E+03  0.00000000000E+00 0. -1.
          6    1    1    2  501    0 -0.15385568165E+02 -0.98567224721E+02  0.48682953547E+03  0.52619788113E+03  0.17300000000E+03 0. -1.
         -6    1    1    2    0  503  0.15385568165E+02  0.98567224721E+02 -0.66424927668E+02  0.21046017322E+03  0.17300000000E+03 0. -1.
<mgrwt>
<rscale>  2 0.19970281E+03</rscale>
<asrwt>0</asrwt>
<pdfrwt beam="1">  1       21 0.89004819E-01 0.19970281E+03</pdfrwt>
<pdfrwt beam="2">  1       21 0.24327188E-01 0.19970281E+03</pdfrwt>
<totfact> 0.17122206E+04</totfact>
</mgrwt>
</event>
<event>
 4    1  0.4199481E+000  0.3112383E+03  0.7546771E-02  0.1079754E+00
         21   -1    0    0  503  502  0.00000000000E+00  0.00000000000E+00  0.12962909954E+03  0.12962909954E+03  0.00000000000E+00 0.  1.
         21   -1    0    0  501  503 -0.00000000000E+00 -0.00000000000E+00 -0.74802794311E+03  0.74802794311E+03  0.00000000000E+00 0.  1.
          6    1    1    2  501    0  0.23285904646E+03  0.11276931345E+03 -0.29532466866E+03  0.42905234354E+03  0.17300000000E+03 0.  1.
         -6    1    1    2    0  502 -0.23285904646E+03 -0.11276931345E+03 -0.32307417491E+03  0.44860469911E+03  0.17300000000E+03 0.  1.
<mgrwt>
<rscale>  2 0.31123826E+03</rscale>
<asrwt>0</asrwt>
<pdfrwt beam="1">  1       21 0.19942939E-01 0.31123826E+03</pdfrwt>
<pdfrwt beam="2">  1       21 0.11508122E+00 0.31123826E+03</pdfrwt>
<totfact> 0.12722612E+04</totfact>
</mgrwt>
</event>
<event>
 4    1  0.4199481E+000  0.4812176E+03  0.7546771E-02  0.1018801E+00
         21   -1    0    0  503  502  0.00000000000E+00  0.00000000000E+00  0.54957406672E+03  0.54957406672E+03  0.00000000000E+00 0. -1.
         21   -1    0    0  501  503 -0.00000000000E+00 -0.00000000000E+00 -0.50362194670E+03  0.50362194670E+03  0.00000000000E+00 0.  1.
          6    1    1    2  501    0  0.21907322665E+03  0.39197995053E+03 -0.18984646001E+03  0.51731232213E+03  0.17300000000E+03 0.  1.
         -6    1    1    2    0  502 -0.21907322665E+03 -0.39197995053E+03  0.23579858004E+03  0.53588369129E+03  0.17300000000E+03 0. -1.
<mgrwt>
<rscale>  2 0.48121758E+03</rscale>
<asrwt>0</asrwt>
<pdfrwt beam="1">  1       21 0.84549857E-01 0.48121758E+03</pdfrwt>
<pdfrwt beam="2">  1       21 0.77480299E-01 0.48121758E+03</pdfrwt>
<totfact> 0.15213395E+03</totfact>
</mgrwt>
</event>
<event>
 4    1  0.4199481E+000  0.2253865E+03  0.7546771E-02  0.1129930E+00
         21   -1    0    0  503  502  0.00000000000E+00  0.00000000000E+00  0.15175445330E+03  0.15175445330E+03  0.00000000000E+00 0. -1.
         21   -1    0    0  501  503 -0.00000000000E+00 -0.00000000000E+00 -0.42669204962E+03  0.42669204962E+03  0.00000000000E+00 0. -1.
          6    1    1    2  501    0  0.14341740461E+03 -0.17364040007E+02 -0.27172815354E+03  0.35303718112E+03  0.17300000000E+03 0. -1.
         -6    1    1    2    0  502 -0.14341740461E+03  0.17364040007E+02 -0.32094427928E+01  0.22540932180E+03  0.17300000000E+03 0. -1.
<mgrwt>
<rscale>  2 0.22538647E+03</rscale>
<asrwt>0</asrwt>
<pdfrwt beam="1">  1       21 0.23346839E-01 0.22538647E+03</pdfrwt>
<pdfrwt beam="2">  1       21 0.65644930E-01 0.22538647E+03</pdfrwt>
<totfact> 0.36191383E+04</totfact>
</mgrwt>
</event>
<event>
 4    1  0.4199481E+000  0.2058188E+03  0.7546771E-02  0.1144920E+00
         21   -1    0    0  503  502  0.00000000000E+00  0.00000000000E+00  0.25807315861E+03  0.25807315861E+03  0.00000000000E+00 0.  1.
         21   -1    0    0  501  503 -0.00000000000E+00 -0.00000000000E+00 -0.16604952961E+03  0.16604952961E+03  0.00000000000E+00 0. -1.
          6    1    1    2  501    0  0.96940258902E+02 -0.55090524080E+02  0.23299898684E+02  0.20713344713E+03  0.17300000000E+03 0. -1.
         -6    1    1    2    0  502 -0.96940258902E+02  0.55090524080E+02  0.68723730321E+02  0.21698924109E+03  0.17300000000E+03 0.  1.
<mgrwt>
<rscale>  2 0.20581880E+03</rscale>
<asrwt>0</asrwt>
<pdfrwt beam="1">  1       21 0.39703563E-01 0.20581880E+03</pdfrwt>
<pdfrwt beam="2">  1       21 0.25546081E-01 0.20581880E+03</pdfrwt>
<totfact> 0.88384230E+04</totfact>
</mgrwt>
</event>
<event>
 4    1  0.4199481E+000  0.1879581E+03  0.7546771E-02  0.1160316E+00
         21   -1    0    0  503  502  0.00000000000E+00  0.00000000000E+00  0.43572821586E+02  0.43572821586E+02  0.00000000000E+00 0.  1.
         21   -1    0    0  501  503 -0.00000000000E+00 -0.00000000000E+00 -0.15063986629E+04  0.15063986629E+04  0.00000000000E+00 0.  1.
          6    1    1    2  501    0  0.49850595729E+02  0.53983061466E+02 -0.12580450539E+04  0.12720084947E+04  0.17300000000E+03 0.  1.
         -6    1    1    2    0  502 -0.49850595729E+02 -0.53983061466E+02 -0.20478078738E+03  0.27796298980E+03  0.17300000000E+03 0.  1.
<mgrwt>
<rscale>  2 0.18795811E+03</rscale>
<asrwt>0</asrwt>
<pdfrwt beam="1">  1       21 0.67035128E-02 0.18795811E+03</pdfrwt>
<pdfrwt beam="2">  1       21 0.23175358E+00 0.18795811E+03</pdfrwt>
<totfact> 0.13969082E+04</totfact>
</mgrwt>
</event>
<event>
 4    1  0.4199481E+000  0.1921961E+03  0.7546771E-02  0.1156495E+00
         21   -1    0    0  501  502  0.00000000000E+00  0.00000000000E+00  0.70706608912E+03  0.70706608912E+03  0.00000000000E+00 0. -1.
         21   -1    0    0  502  503 -0.00000000000E+00 -0.00000000000E+00 -0.27443160181E+03  0.27443160181E+03  0.00000000000E+00 0. -1.
          6    1    1    2  501    0 -0.79509336470E+02  0.26241206542E+02  0.65789074253E+03  0.68539008208E+03  0.17300000000E+03 0. -1.
         -6    1    1    2    0  503  0.79509336470E+02 -0.26241206542E+02 -0.22525625521E+03  0.29610760885E+03  0.17300000000E+03 0. -1.
<mgrwt>
<rscale>  2 0.19219609E+03</rscale>
<asrwt>0</asrwt>
<pdfrwt beam="1">  1       21 0.10877940E+00 0.19219609E+03</pdfrwt>
<pdfrwt beam="2">  1       21 0.42220247E-01 0.19219609E+03</pdfrwt>
<totfact> 0.36237707E+03</totfact>
</mgrwt>
</event>
<event>
 4    1  0.4199481E+000  0.1930593E+03  0.7546771E-02  0.1155731E+00
         21   -1    0    0  501  502  0.00000000000E+00  0.00000000000E+00  0.89666210954E+03  0.89666210954E+03  0.00000000000E+00 0. -1.
         21   -1    0    0  502  503 -0.00000000000E+00 -0.00000000000E+00 -0.87226877656E+02  0.87226877656E+02  0.00000000000E+00 0.  1.
          6    1    1    2  501    0 -0.81711666163E+02  0.25808901352E+02  0.76064098109E+03  0.78475894254E+03  0.17300000000E+03 0. -1.
         -6    1    1    2    0  503  0.81711666163E+02 -0.25808901352E+02  0.48794250794E+02  0.19913004466E+03  0.17300000000E+03 0.  1.
<mgrwt>
<rscale>  2 0.19305931E+03</rscale>
<asrwt>0</asrwt>
<pdfrwt beam="1">  1       21 0.13794801E+00 0.19305931E+03</pdfrwt>
<pdfrwt beam="2">  1       21 0.13419520E-01 0.19305931E+03</pdfrwt>
<totfact> 0.17839594E+04</totfact>
</mgrwt>
</event>
<event>
 4    1  0.4199481E+000  0.2182603E+03  0.7546771E-02  0.1135187E+00
         21   -1    0    0  503  502  0.00000000000E+00  0.00000000000E+00  0.33081070382E+03  0.33081070382E+03  0.00000000000E+00 0.  1.
         21   -1    0    0  501  503 -0.00000000000E+00 -0.00000000000E+00 -0.22476535908E+03  0.22476535908E+03  0.00000000000E+00 0. -1.
          6    1    1    2  501    0 -0.13247082672E+03 -0.12651272459E+02 -0.11349281491E+03  0.24600445863E+03  0.17300000000E+03 0. -1.
         -6    1    1    2    0  502  0.13247082672E+03  0.12651272459E+02  0.21953815965E+03  0.30957160427E+03  0.17300000000E+03 0.  1.
<mgrwt>
<rscale>  2 0.21826034E+03</rscale>
<asrwt>0</asrwt>
<pdfrwt beam="1">  1       21 0.50893954E-01 0.21826034E+03</pdfrwt>
<pdfrwt beam="2">  1       21 0.34579286E-01 0.21826034E+03</pdfrwt>
<totfact> 0.29191842E+04</totfact>
</mgrwt>
</event>
<event>
 4    1  0.4199481E+000  0.1741314E+03  0.7546771E-02  0.1173607E+00
         21   -1    0    0  503  502  0.00000000000E+00  0.00000000000E+00  0.64163813692E+02  0.64163813692E+02  0.00000000000E+00 0. -1.
         21   -1    0    0  501  503 -0.00000000000E+00 -0.00000000000E+00 -0.98791516854E+03  0.98791516854E+03  0.00000000000E+00 0. -1.
          6    1    1    2  501    0 -0.40967281058E+01  0.19389686545E+02 -0.84181007428E+03  0.85963128392E+03  0.17300000000E+03 0. -1.
         -6    1    1    2    0  502  0.40967281058E+01 -0.19389686545E+02 -0.81941280564E+02  0.19244769831E+03  0.17300000000E+03 0. -1.
<mgrwt>
<rscale>  2 0.17413140E+03</rscale>
<asrwt>0</asrwt>
<pdfrwt beam="1">  1       21 0.98713561E-02 0.17413140E+03</pdfrwt>
<pdfrwt beam="2">  1       21 0.15198695E+00 0.17413140E+03</pdfrwt>
<totfact> 0.24265957E+04</totfact>
</mgrwt>
</event>
<event>
 4    1  0.4199481E+000  0.2599011E+03  0.7546771E-02  0.1107203E+00
         21   -1    0    0  501  502  0.00000000000E+00  0.00000000000E+00  0.33152774668E+03  0.33152774668E+03  0.00000000000E+00 0.  1.
         21   -1    0    0  502  503 -0.00000000000E+00 -0.00000000000E+00 -0.21865165334E+03  0.21865165334E+03  0.00000000000E+00 0.  1.
          6    1    1    2  501    0  0.14071731116E+03 -0.13348496632E+03  0.12825436020E+03  0.28982370297E+03  0.17300000000E+03 0.  1.
         -6    1    1    2    0  503 -0.14071731116E+03  0.13348496632E+03 -0.15378266867E+02  0.26035569705E+03  0.17300000000E+03 0.  1.
<mgrwt>
<rscale>  2 0.25990113E+03</rscale>
<asrwt>0</asrwt>
<pdfrwt beam="1">  1       21 0.51004268E-01 0.25990113E+03</pdfrwt>
<pdfrwt beam="2">  1       21 0.33638716E-01 0.25990113E+03</pdfrwt>
<totfact> 0.30108432E+04</totfact>
</mgrwt>
</event>
<event>
 4    1  0.4199481E+000  0.3090145E+03  0.7546771E-02  0.1080819E+00
         21   -1    0    0  503  502  0.00000000000E+00  0.00000000000E+00  0.52743484170E+03  0.52743484170E+03  0.00000000000E+00 0.  1.
         21   -1    0    0  501  503 -0.00000000000E+00 -0.00000000000E+00 -0.20146949006E+03  0.20146949006E+03  0.00000000000E+00 0.  1.
          6    1    1    2  501    0 -0.22206228534E+03 -0.12747278535E+03  0.46944512413E+02  0.31256000516E+03  0.17300000000E+03 0.  1.
         -6    1    1    2    0  502  0.22206228534E+03  0.12747278535E+03  0.27902083922E+03  0.41634432661E+03  0.17300000000E+03 0.  1.
<mgrwt>
<rscale>  2 0.30901451E+03</rscale>
<asrwt>0</asrwt>
<pdfrwt beam="1">  1       21 0.81143821E-01 0.30901451E+03</pdfrwt>
<pdfrwt beam="2">  1       21 0.30995306E-01 0.30901451E+03</pdfrwt>
<totfact> 0.12511029E+04</totfact>
</mgrwt>
</event>
<event>
 4    1  0.4199481E+000  0.3622781E+03  0.7546771E-02  0.1057685E+00
         21   -1    0    0  501  502  0.00000000000E+00  0.00000000000E+00  0.21045770621E+03  0.21045770621E+03  0.00000000000E+00 0.  1.
         21   -1    0    0  502  503 -0.00000000000E+00 -0.00000000000E+00 -0.14890298415E+04  0.14890298415E+04  0.00000000000E+00 0. -1.
          6    1    1    2  501    0  0.10145124641E+03 -0.30170189216E+03  0.85237126616E+01  0.36237831172E+03  0.17300000000E+03 0.  1.
         -6    1    1    2    0  503 -0.10145124641E+03  0.30170189216E+03 -0.12870958480E+04  0.13371092360E+04  0.17300000000E+03 0. -1.
<mgrwt>
<rscale>  2 0.36227805E+03</rscale>
<asrwt>0</asrwt>
<pdfrwt beam="1">  1       21 0.32378108E-01 0.36227805E+03</pdfrwt>
<pdfrwt beam="2">  1       21 0.22908152E+00 0.36227805E+03</pdfrwt>
<totfact> 0.70092983E+02</totfact>
</mgrwt>
</event>
<event>
 4    1  0.4199481E+000  0.1783153E+03  0.7546771E-02  0.1169444E+00
         21   -1    0    0  503  502  0.00000000000E+00  0.00000000000E+00  0.43796179525E+02  0.43796179525E+02  0.00000000000E+00 0.  1.
         21   -1    0    0  501  503 -0.00000000000E+00 -0.00000000000E+00 -0.72902680920E+03  0.72902680920E+03  0.00000000000E+00 0.  1.
          6    1    1    2  501    0  0.35853793414E+02 -0.24121654530E+02 -0.36748338462E+03  0.40846099776E+03  0.17300000000E+03 0.  1.
         -6    1    1    2    0  502 -0.35853793414E+02  0.24121654530E+02 -0.31774724505E+03  0.36436199096E+03  0.17300000000E+03 0.  1.
<mgrwt>
<rscale>  2 0.17831531E+03</rscale>
<asrwt>0</asrwt>
<pdfrwt beam="1">  1       21 0.67378740E-02 0.17831531E+03</pdfrwt>
<pdfrwt beam="2">  1       21 0.11215797E+00 0.17831531E+03</pdfrwt>
<totfact> 0.10127623E+05</totfact>
</mgrwt>
</event>
<event>
 4    1  0.4199481E+000  0.1856637E+03  0.7546771E-02  0.1162432E+00
         21   -1    0    0  501  502  0.00000000000E+00  0.00000000000E+00  0.43898103670E+02  0.43898103670E+02  0.00000000000E+00 0. -1.
         21   -1    0    0  502  503 -0.00000000000E+00 -0.00000000000E+00 -0.91003483673E+03  0.91003483673E+03  0.00000000000E+00 0. -1.
          6    1    1    2  501    0  0.20348728687E+02 -0.64249118056E+02 -0.60968776448E+03  0.63733051872E+03  0.17300000000E+03 0. -1.
         -6    1    1    2    0  503 -0.20348728687E+02  0.64249118056E+02 -0.25644896857E+03  0.31660242168E+03  0.17300000000E+03 0. -1.
<mgrwt>
<rscale>  2 0.18566373E+03</rscale>
<asrwt>0</asrwt>
<pdfrwt beam="1">  1       21 0.67535546E-02 0.18566373E+03</pdfrwt>
<pdfrwt beam="2">  1       21 0.14000536E+00 0.18566373E+03</pdfrwt>
<totfact> 0.57786143E+04</totfact>
</mgrwt>
</event>
<event>
 4    1  0.4199481E+000  0.1845165E+03  0.7546771E-02  0.1163502E+00
         21   -1    0    0  503  502  0.00000000000E+00  0.00000000000E+00  0.45850185706E+02  0.45850185706E+02  0.00000000000E+00 0. -1.
         21   -1    0    0  501  503 -0.00000000000E+00 -0.00000000000E+00 -0.77003080538E+03  0.77003080538E+03  0.00000000000E+00 0. -1.
          6    1    1    2  501    0 -0.20871209617E+02 -0.60677377552E+02 -0.43914630873E+03  0.47633583952E+03  0.17300000000E+03 0. -1.
         -6    1    1    2    0  502  0.20871209617E+02  0.60677377552E+02 -0.28503431094E+03  0.33954515156E+03  0.17300000000E+03 0. -1.
<mgrwt>
<rscale>  2 0.18451653E+03</rscale>
<asrwt>0</asrwt>
<pdfrwt beam="1">  1       21 0.70538756E-02 0.18451653E+03</pdfrwt>
<pdfrwt beam="2">  1       21 0.11846626E+00 0.18451653E+03</pdfrwt>
<totfact> 0.81685459E+04</totfact>
</mgrwt>
</event>
<event>
 4    1  0.4199481E+000  0.2127184E+03  0.7546771E-02  0.1139431E+00
         21   -1    0    0  503  502  0.00000000000E+00  0.00000000000E+00  0.27503649987E+03  0.27503649987E+03  0.00000000000E+00 0. -1.
         21   -1    0    0  501  503 -0.00000000000E+00 -0.00000000000E+00 -0.17090253596E+03  0.17090253596E+03  0.00000000000E+00 0. -1.
          6    1    1    2  501    0 -0.12064508216E+03  0.27656850868E+02  0.95154503318E+02  0.23303114974E+03  0.17300000000E+03 0. -1.
         -6    1    1    2    0  502  0.12064508216E+03 -0.27656850868E+02  0.89794605885E+01  0.21290788609E+03  0.17300000000E+03 0. -1.
<mgrwt>
<rscale>  2 0.21271845E+03</rscale>
<asrwt>0</asrwt>
<pdfrwt beam="1">  1       21 0.42313308E-01 0.21271845E+03</pdfrwt>
<pdfrwt beam="2">  1       21 0.26292698E-01 0.21271845E+03</pdfrwt>
<totfact> 0.73272935E+04</totfact>
</mgrwt>
</event>
<event>
 4    1  0.4199481E+000  0.1737946E+03  0.7546771E-02  0.1173947E+00
         21   -1    0    0  503  502  0.00000000000E+00  0.00000000000E+00  0.38304647629E+03  0.38304647629E+03  0.00000000000E+00 0. -1.
         21   -1    0    0  501  503 -0.00000000000E+00 -0.00000000000E+00 -0.13087966825E+03  0.13087966825E+03  0.00000000000E+00 0. -1.
          6    1    1    2  501    0  0.17630288086E+01 -0.16506377374E+02 -0.35927929740E+02  0.17746939145E+03  0.17300000000E+03 0. -1.
         -6    1    1    2    0  502 -0.17630288086E+01  0.16506377374E+02  0.28809473778E+03  0.33645675309E+03  0.17300000000E+03 0. -1.
<mgrwt>
<rscale>  2 0.17379462E+03</rscale>
<asrwt>0</asrwt>
<pdfrwt beam="1">  1       21 0.58930226E-01 0.17379462E+03</pdfrwt>
<pdfrwt beam="2">  1       21 0.20135334E-01 0.17379462E+03</pdfrwt>
<totfact> 0.61911480E+04</totfact>
</mgrwt>
</event>
<event>
 4    1  0.4199481E+000  0.2536629E+03  0.7546771E-02  0.1111012E+00
         21   -1    0    0  503  502  0.00000000000E+00  0.00000000000E+00  0.70155708390E+03  0.70155708390E+03  0.00000000000E+00 0. -1.
         21   -1    0    0  501  503 -0.00000000000E+00 -0.00000000000E+00 -0.16784970406E+03  0.16784970406E+03  0.00000000000E+00 0.  1.
          6    1    1    2  501    0  0.15767692467E+03 -0.97743769418E+02 -0.25910379492E+02  0.25498275393E+03  0.17300000000E+03 0.  1.
         -6    1    1    2    0  502 -0.15767692467E+03  0.97743769418E+02  0.55961775933E+03  0.61442403403E+03  0.17300000000E+03 0. -1.
<mgrwt>
<rscale>  2 0.25366288E+03</rscale>
<asrwt>0</asrwt>
<pdfrwt beam="1">  1       21 0.10793186E+00 0.25366288E+03</pdfrwt>
<pdfrwt beam="2">  1       21 0.25823032E-01 0.25366288E+03</pdfrwt>
<totfact> 0.93588572E+03</totfact>
</mgrwt>
</event>
<event>
 4    1  0.4199481E+000  0.3998675E+03  0.7546771E-02  0.1043826E+00
         21   -1    0    0  501  502  0.00000000000E+00  0.00000000000E+00  0.37287453911E+03  0.37287453911E+03  0.00000000000E+00 0. -1.
         21   -1    0    0  502  503 -0.00000000000E+00 -0.00000000000E+00 -0.44403057216E+03  0.44403057216E+03  0.00000000000E+00 0. -1.
          6    1    1    2  501    0  0.12175836950E+03  0.33932271811E+03  0.40033250823E+02  0.40186648124E+03  0.17300000000E+03 0. -1.
         -6    1    1    2    0  503 -0.12175836950E+03 -0.33932271811E+03 -0.11118928388E+03  0.41503863003E+03  0.17300000000E+03 0. -1.
<mgrwt>
<rscale>  2 0.39986749E+03</rscale>
<asrwt>0</asrwt>
<pdfrwt beam="1">  1       21 0.57365314E-01 0.39986749E+03</pdfrwt>
<pdfrwt beam="2">  1       21 0.68312396E-01 0.39986749E+03</pdfrwt>
<totfact> 0.49929028E+03</totfact>
</mgrwt>
</event>
<event>
 4    1  0.4199481E+000  0.2370532E+03  0.7546771E-02  0.1121772E+00
         21   -1    0    0  503  502  0.00000000000E+00  0.00000000000E+00  0.12225933609E+03  0.12225933609E+03  0.00000000000E+00 0.  1.
         21   -1    0    0  501  503 -0.00000000000E+00 -0.00000000000E+00 -0.52947432125E+03  0.52947432125E+03  0.00000000000E+00 0. -1.
          6    1    1    2  501    0  0.16206481680E+03  0.45585979045E+00 -0.32196051065E+03  0.39981593649E+03  0.17300000000E+03 0. -1.
         -6    1    1    2    0  502 -0.16206481680E+03 -0.45585979045E+00 -0.85254474513E+02  0.25191772085E+03  0.17300000000E+03 0.  1.
<mgrwt>
<rscale>  2 0.23705319E+03</rscale>
<asrwt>0</asrwt>
<pdfrwt beam="1">  1       21 0.18809129E-01 0.23705319E+03</pdfrwt>
<pdfrwt beam="2">  1       21 0.81457587E-01 0.23705319E+03</pdfrwt>
<totfact> 0.33398058E+04</totfact>
</mgrwt>
</event>
<event>
 4    1  0.4199481E+000  0.2226309E+03  0.7546771E-02  0.1131937E+00
         21   -1    0    0  503  502  0.00000000000E+00  0.00000000000E+00  0.18001242678E+03  0.18001242678E+03  0.00000000000E+00 0.  1.
         21   -1    0    0  501  503 -0.00000000000E+00 -0.00000000000E+00 -0.16165337470E+04  0.16165337470E+04  0.00000000000E+00 0. -1.
          6    1    1    2  501    0  0.13313050981E+03 -0.43724038446E+02 -0.15364651302E+04  0.15525107474E+04  0.17300000000E+03 0. -1.
         -6    1    1    2    0  502 -0.13313050981E+03  0.43724038446E+02  0.99943810034E+02  0.24403542641E+03  0.17300000000E+03 0.  1.
<mgrwt>
<rscale>  2 0.22263091E+03</rscale>
<asrwt>0</asrwt>
<pdfrwt beam="1">  1       21 0.27694219E-01 0.22263091E+03</pdfrwt>
<pdfrwt beam="2">  1       21 0.24869751E+00 0.22263091E+03</pdfrwt>
<totfact> 0.81284214E+02</totfact>
</mgrwt>
</event>
<event>
 4    1  0.4199481E+000  0.1915507E+03  0.7546771E-02  0.1157070E+00
         21   -1    0    0  501  502  0.00000000000E+00  0.00000000000E+00  0.13185489549E+03  0.13185489549E+03  0.00000000000E+00 0. -1.
         21   -1    0    0  502  503 -0.00000000000E+00 -0.00000000000E+00 -0.29760264141E+03  0.29760264141E+03  0.00000000000E+00 0. -1.
          6    1    1    2  501    0  0.22215499294E+01 -0.82205510765E+02 -0.28149385774E+02  0.19360802980E+03  0.17300000000E+03 0. -1.
         -6    1    1    2    0  503 -0.22215499294E+01  0.82205510765E+02 -0.13759836015E+03  0.23584950710E+03  0.17300000000E+03 0. -1.
<mgrwt>
<rscale>  2 0.19155073E+03</rscale>
<asrwt>0</asrwt>
<pdfrwt beam="1">  1       21 0.20285369E-01 0.19155073E+03</pdfrwt>
<pdfrwt beam="2">  1       21 0.45785021E-01 0.19155073E+03</pdfrwt>
<totfact> 0.10284975E+05</totfact>
</mgrwt>
</event>
<event>
 4    1  0.4199481E+000  0.2449454E+03  0.7546771E-02  0.1116542E+00
         21   -1    0    0  503  502  0.00000000000E+00  0.00000000000E+00  0.12463634402E+03  0.12463634402E+03  0.00000000000E+00 0. -1.
         21   -1    0    0  501  503 -0.00000000000E+00 -0.00000000000E+00 -0.55129901936E+03  0.55129901936E+03  0.00000000000E+00 0. -1.
          6    1    1    2  501    0 -0.13495982168E+03 -0.10888112704E+03 -0.33368492571E+03  0.41393705190E+03  0.17300000000E+03 0. -1.
         -6    1    1    2    0  502  0.13495982168E+03  0.10888112704E+03 -0.92977749633E+02  0.26199831148E+03  0.17300000000E+03 0. -1.
<mgrwt>
<rscale>  2 0.24494541E+03</rscale>
<asrwt>0</asrwt>
<pdfrwt beam="1">  1       21 0.19174822E-01 0.24494541E+03</pdfrwt>
<pdfrwt beam="2">  1       21 0.84815237E-01 0.24494541E+03</pdfrwt>
<totfact> 0.29262396E+04</totfact>
</mgrwt>
</event>
<event>
 4    1  0.4199481E+000  0.2217868E+03  0.7546771E-02  0.1132558E+00
         21   -1    0    0  501  502  0.00000000000E+00  0.00000000000E+00  0.12733142831E+03  0.12733142831E+03  0.00000000000E+00 0.  1.
         21   -1    0    0  502  503 -0.00000000000E+00 -0.00000000000E+00 -0.48238157447E+03  0.48238157447E+03  0.00000000000E+00 0.  1.
          6    1    1    2  501    0 -0.13513654042E+03 -0.31599031597E+02 -0.41475266797E+02  0.22563151622E+03  0.17300000000E+03 0.  1.
         -6    1    1    2    0  503  0.13513654042E+03  0.31599031597E+02 -0.31357487936E+03  0.38408148656E+03  0.17300000000E+03 0.  1.
<mgrwt>
<rscale>  2 0.22178680E+03</rscale>
<asrwt>0</asrwt>
<pdfrwt beam="1">  1       21 0.19589450E-01 0.22178680E+03</pdfrwt>
<pdfrwt beam="2">  1       21 0.74212552E-01 0.22178680E+03</pdfrwt>
<totfact> 0.38480827E+04</totfact>
</mgrwt>
</event>
<event>
 4    1  0.4199481E+000  0.2121969E+03  0.7546771E-02  0.1139838E+00
         21   -1    0    0  501  502  0.00000000000E+00  0.00000000000E+00  0.15060726364E+03  0.15060726364E+03  0.00000000000E+00 0.  1.
         21   -1    0    0  502  503 -0.00000000000E+00 -0.00000000000E+00 -0.37402038309E+03  0.37402038309E+03  0.00000000000E+00 0.  1.
          6    1    1    2  501    0  0.10540904115E+03  0.63146314624E+02  0.57942828859E+01  0.21227599186E+03  0.17300000000E+03 0.  1.
         -6    1    1    2    0  503 -0.10540904115E+03 -0.63146314624E+02 -0.22920740234E+03  0.31235165486E+03  0.17300000000E+03 0.  1.
<mgrwt>
<rscale>  2 0.21219690E+03</rscale>
<asrwt>0</asrwt>
<pdfrwt beam="1">  1       21 0.23170349E-01 0.21219690E+03</pdfrwt>
<pdfrwt beam="2">  1       21 0.57541596E-01 0.21219690E+03</pdfrwt>
<totfact> 0.49130298E+04</totfact>
</mgrwt>
</event>
<event>
 4    1  0.4199481E+000  0.1917498E+03  0.7546771E-02  0.1156893E+00
         21   -1    0    0  501  502  0.00000000000E+00  0.00000000000E+00  0.14578070871E+03  0.14578070871E+03  0.00000000000E+00 0. -1.
         21   -1    0    0  502  503 -0.00000000000E+00 -0.00000000000E+00 -0.32990363599E+03  0.32990363599E+03  0.00000000000E+00 0. -1.
          6    1    1    2  501    0 -0.78178707173E+02 -0.26964366903E+02  0.23357152919E+02  0.19316713988E+03  0.17300000000E+03 0. -1.
         -6    1    1    2    0  503  0.78178707173E+02  0.26964366903E+02 -0.20748008020E+03  0.28251720482E+03  0.17300000000E+03 0. -1.
<mgrwt>
<rscale>  2 0.19174980E+03</rscale>
<asrwt>0</asrwt>
<pdfrwt beam="1">  1       21 0.22427802E-01 0.19174980E+03</pdfrwt>
<pdfrwt beam="2">  1       21 0.50754405E-01 0.19174980E+03</pdfrwt>
<totfact> 0.68775471E+04</totfact>
</mgrwt>
</event>
<event>
 4    1  0.4199481E+000  0.1961816E+03  0.7546771E-02  0.1153001E+00
         21   -1    0    0  501  502  0.00000000000E+00  0.00000000000E+00  0.20908141254E+03  0.20908141254E+03  0.00000000000E+00 0. -1.
         21   -1    0    0  502  503 -0.00000000000E+00 -0.00000000000E+00 -0.33604505490E+03  0.33604505490E+03  0.00000000000E+00 0. -1.
          6    1    1    2  501    0 -0.75984888900E+02  0.52768663866E+02  0.11981021870E+03  0.22987327755E+03  0.17300000000E+03 0. -1.
         -6    1    1    2    0  503  0.75984888900E+02 -0.52768663866E+02 -0.24677386107E+03  0.31525318989E+03  0.17300000000E+03 0. -1.
<mgrwt>
<rscale>  2 0.19618164E+03</rscale>
<asrwt>0</asrwt>
<pdfrwt beam="1">  1       21 0.32166371E-01 0.19618164E+03</pdfrwt>
<pdfrwt beam="2">  1       21 0.51699240E-01 0.19618164E+03</pdfrwt>
<totfact> 0.32973489E+04</totfact>
</mgrwt>
</event>
<event>
 4    1  0.4199481E+000  0.1964245E+03  0.7546771E-02  0.1152791E+00
         21   -1    0    0  501  502  0.00000000000E+00  0.00000000000E+00  0.17478267750E+03  0.17478267750E+03  0.00000000000E+00 0. -1.
         21   -1    0    0  502  503 -0.00000000000E+00 -0.00000000000E+00 -0.30311869305E+03  0.30311869305E+03  0.00000000000E+00 0. -1.
          6    1    1    2  501    0 -0.89214770411E+02  0.26349496240E+02  0.60396305789E+02  0.20550008507E+03  0.17300000000E+03 0. -1.
         -6    1    1    2    0  503  0.89214770411E+02 -0.26349496240E+02 -0.18873232134E+03  0.27240128548E+03  0.17300000000E+03 0. -1.
<mgrwt>
<rscale>  2 0.19642447E+03</rscale>
<asrwt>0</asrwt>
<pdfrwt beam="1">  1       21 0.26889643E-01 0.19642447E+03</pdfrwt>
<pdfrwt beam="2">  1       21 0.46633644E-01 0.19642447E+03</pdfrwt>
<totfact> 0.57900941E+04</totfact>
</mgrwt>
</event>
<event>
 4    1  0.4199481E+000  0.2167283E+03  0.7546771E-02  0.1136346E+00
         21   -1    0    0  501  502  0.00000000000E+00  0.00000000000E+00  0.22918284470E+03  0.22918284470E+03  0.00000000000E+00 0. -1.
         21   -1    0    0  502  503 -0.00000000000E+00 -0.00000000000E+00 -0.34873530698E+03  0.34873530698E+03  0.00000000000E+00 0.  1.
          6    1    1    2  501    0 -0.11506028109E+03  0.61670974630E+02  0.12576679010E+03  0.25057626162E+03  0.17300000000E+03 0. -1.
         -6    1    1    2    0  503  0.11506028109E+03 -0.61670974630E+02 -0.24531925239E+03  0.32734189006E+03  0.17300000000E+03 0.  1.
<mgrwt>
<rscale>  2 0.21672835E+03</rscale>
<asrwt>0</asrwt>
<pdfrwt beam="1">  1       21 0.35258899E-01 0.21672835E+03</pdfrwt>
<pdfrwt beam="2">  1       21 0.53651586E-01 0.21672835E+03</pdfrwt>
<totfact> 0.25150073E+04</totfact>
</mgrwt>
</event>
<event>
 4    1  0.4199481E+000  0.2213730E+03  0.7546771E-02  0.1132864E+00
         21   -1    0    0  503  502  0.00000000000E+00  0.00000000000E+00  0.20152249666E+03  0.20152249666E+03  0.00000000000E+00 0.  1.
         21   -1    0    0  501  503 -0.00000000000E+00 -0.00000000000E+00 -0.24397856118E+03  0.24397856118E+03  0.00000000000E+00 0.  1.
          6    1    1    2  501    0 -0.13282426388E+03  0.37877657736E+02 -0.33981223356E+02  0.22396590270E+03  0.17300000000E+03 0.  1.
         -6    1    1    2    0  502  0.13282426388E+03 -0.37877657736E+02 -0.84748411592E+01  0.22153515514E+03  0.17300000000E+03 0.  1.
<mgrwt>
<rscale>  2 0.22137299E+03</rscale>
<asrwt>0</asrwt>
<pdfrwt beam="1">  1       21 0.31003461E-01 0.22137299E+03</pdfrwt>
<pdfrwt beam="2">  1       21 0.37535163E-01 0.22137299E+03</pdfrwt>
<totfact> 0.67554637E+04</totfact>
</mgrwt>
</event>
<event>
 4    1  0.4199481E+000  0.2000913E+03  0.7546771E-02  0.1149662E+00
         21   -1    0    0  501  502  0.00000000000E+00  0.00000000000E+00  0.30649084311E+03  0.30649084311E+03  0.00000000000E+00 0.  1.
         21   -1    0    0  502  503 -0.00000000000E+00 -0.00000000000E+00 -0.13063003945E+03  0.13063003945E+03  0.00000000000E+00 0. -1.
          6    1    1    2  501    0 -0.86065675299E+02  0.51963909076E+02  0.87272645057E+02  0.21829581509E+03  0.17300000000E+03 0. -1.
         -6    1    1    2    0  503  0.86065675299E+02 -0.51963909076E+02  0.88588158599E+02  0.21882506747E+03  0.17300000000E+03 0. -1.
<mgrwt>
<rscale>  2 0.20009135E+03</rscale>
<asrwt>0</asrwt>
<pdfrwt beam="1">  1       21 0.47152437E-01 0.20009135E+03</pdfrwt>
<pdfrwt beam="2">  1       21 0.20096929E-01 0.20009135E+03</pdfrwt>
<totfact> 0.98152636E+04</totfact>
</mgrwt>
</event>
<event>
 4    1  0.4199481E+000  0.1762628E+03  0.7546771E-02  0.1171470E+00
         21   -1    0    0  501  502  0.00000000000E+00  0.00000000000E+00  0.40562734648E+03  0.40562734648E+03  0.00000000000E+00 0.  1.
         21   -1    0    0  502  503 -0.00000000000E+00 -0.00000000000E+00 -0.14861699068E+03  0.14861699068E+03  0.00000000000E+00 0.  1.
          6    1    1    2  501    0 -0.12741333674E+02 -0.31260852475E+02  0.32142324366E+03  0.36658080152E+03  0.17300000000E+03 0.  1.
         -6    1    1    2    0  503  0.12741333674E+02  0.31260852475E+02 -0.64412887860E+02  0.18766353563E+03  0.17300000000E+03 0.  1.
<mgrwt>
<rscale>  2 0.17626282E+03</rscale>
<asrwt>0</asrwt>
<pdfrwt beam="1">  1       21 0.62404207E-01 0.17626282E+03</pdfrwt>
<pdfrwt beam="2">  1       21 0.22864153E-01 0.17626282E+03</pdfrwt>
<totfact> 0.43084856E+04</totfact>
</mgrwt>
</event>
<event>
 4    1  0.4199481E+000  0.2358540E+03  0.7546771E-02  0.1122586E+00
         21   -1    0    0  503  502  0.00000000000E+00  0.00000000000E+00  0.30422746959E+03  0.30422746959E+03  0.00000000000E+00 0.  1.
         21   -1    0    0  501  503 -0.00000000000E+00 -0.00000000000E+00 -0.20424115772E+03  0.20424115772E+03  0.00000000000E+00 0.  1.
          6    1    1    2  501    0  0.11932577407E+03 -0.10704887775E+03  0.13227601658E+03  0.27041458383E+03  0.17300000000E+03 0.  1.
         -6    1    1    2    0  502 -0.11932577407E+03  0.10704887775E+03 -0.32289704709E+02  0.23805404348E+03  0.17300000000E+03 0.  1.
<mgrwt>
<rscale>  2 0.23585399E+03</rscale>
<asrwt>0</asrwt>
<pdfrwt beam="1">  1       21 0.46804226E-01 0.23585399E+03</pdfrwt>
<pdfrwt beam="2">  1       21 0.31421717E-01 0.23585399E+03</pdfrwt>
<totfact> 0.41669663E+04</totfact>
</mgrwt>
</event>
<event>
 4    1  0.4199481E+000  0.1902734E+03  0.7546771E-02  0.1158215E+00
         21   -1    0    0  503  502  0.00000000000E+00  0.00000000000E+00  0.18763326443E+02  0.18763326443E+02  0.00000000000E+00 0.  1.
         21   -1    0    0  501  503 -0.00000000000E+00 -0.00000000000E+00 -0.28836528577E+04  0.28836528577E+04  0.00000000000E+00 0.  1.
          6    1    1    2  501    0 -0.32016933289E+02 -0.72456178524E+02 -0.22672120888E+04  0.22751823306E+04  0.17300000000E+03 0.  1.
         -6    1    1    2    0  502  0.32016933289E+02  0.72456178524E+02 -0.59767744245E+03  0.62723385355E+03  0.17300000000E+03 0.  1.
<mgrwt>
<rscale>  2 0.19027344E+03</rscale>
<asrwt>0</asrwt>
<pdfrwt beam="1">  1       21 0.28866662E-02 0.19027344E+03</pdfrwt>
<pdfrwt beam="2">  1       21 0.44363881E+00 0.19027344E+03</pdfrwt>
<totfact> 0.31013424E+03</totfact>
</mgrwt>
</event>
<event>
 4    1  0.4199481E+000  0.3402985E+03  0.7546771E-02  0.1066669E+00
         21   -1    0    0  501  502  0.00000000000E+00  0.00000000000E+00  0.19185990338E+03  0.19185990338E+03  0.00000000000E+00 0. -1.
         21   -1    0    0  502  503 -0.00000000000E+00 -0.00000000000E+00 -0.82059582921E+03  0.82059582921E+03  0.00000000000E+00 0.  1.
          6    1    1    2  501    0  0.28670736474E+03 -0.60604718491E+02 -0.54036998662E+02  0.34456210199E+03  0.17300000000E+03 0. -1.
         -6    1    1    2    0  503 -0.28670736474E+03  0.60604718491E+02 -0.57469892718E+03  0.66789363060E+03  0.17300000000E+03 0.  1.
<mgrwt>
<rscale>  2 0.34029846E+03</rscale>
<asrwt>0</asrwt>
<pdfrwt beam="1">  1       21 0.29516909E-01 0.34029846E+03</pdfrwt>
<pdfrwt beam="2">  1       21 0.12624551E+00 0.34029846E+03</pdfrwt>
<totfact> 0.46699413E+03</totfact>
</mgrwt>
</event>
<event>
 4    1  0.4199481E+000  0.2241218E+03  0.7546771E-02  0.1130847E+00
         21   -1    0    0  501  502  0.00000000000E+00  0.00000000000E+00  0.33308776160E+03  0.33308776160E+03  0.00000000000E+00 0.  1.
         21   -1    0    0  502  503 -0.00000000000E+00 -0.00000000000E+00 -0.22025659874E+03  0.22025659874E+03  0.00000000000E+00 0. -1.
          6    1    1    2  501    0 -0.23280823351E+02  0.14056871381E+03  0.21177911724E+03  0.30835199778E+03  0.17300000000E+03 0.  1.
         -6    1    1    2    0  503  0.23280823351E+02 -0.14056871381E+03 -0.98947954378E+02  0.24499236256E+03  0.17300000000E+03 0. -1.
<mgrwt>
<rscale>  2 0.22412175E+03</rscale>
<asrwt>0</asrwt>
<pdfrwt beam="1">  1       21 0.51244271E-01 0.22412175E+03</pdfrwt>
<pdfrwt beam="2">  1       21 0.33885631E-01 0.22412175E+03</pdfrwt>
<totfact> 0.29867773E+04</totfact>
</mgrwt>
</event>
<event>
 4    1  0.4199481E+000  0.3153352E+03  0.7546771E-02  0.1077816E+00
         21   -1    0    0  501  502  0.00000000000E+00  0.00000000000E+00  0.15247664511E+03  0.15247664511E+03  0.00000000000E+00 0. -1.
         21   -1    0    0  502  503 -0.00000000000E+00 -0.00000000000E+00 -0.15116243486E+04  0.15116243486E+04  0.00000000000E+00 0.  1.
          6    1    1    2  501    0 -0.69995219296E+02 -0.25418096905E+03 -0.52171071538E+02  0.31962183351E+03  0.17300000000E+03 0. -1.
         -6    1    1    2    0  503  0.69995219296E+02  0.25418096905E+03 -0.13069766320E+04  0.13444791602E+04  0.17300000000E+03 0.  1.
<mgrwt>
<rscale>  2 0.31533521E+03</rscale>
<asrwt>0</asrwt>
<pdfrwt beam="1">  1       21 0.23457946E-01 0.31533521E+03</pdfrwt>
<pdfrwt beam="2">  1       21 0.23255759E+00 0.31533521E+03</pdfrwt>
<totfact> 0.12923821E+03</totfact>
</mgrwt>
</event>
<event>
 4    1  0.4199481E+000  0.2029148E+03  0.7546771E-02  0.1147303E+00
         21   -1    0    0  501  502  0.00000000000E+00  0.00000000000E+00  0.17656322739E+03  0.17656322739E+03  0.00000000000E+00 0. -1.
         21   -1    0    0  502  503 -0.00000000000E+00 -0.00000000000E+00 -0.26627892688E+03  0.26627892688E+03  0.00000000000E+00 0.  1.
          6    1    1    2  501    0  0.40225850108E+02 -0.98118779417E+02  0.33184641941E+02  0.20561039456E+03  0.17300000000E+03 0. -1.
         -6    1    1    2    0  503 -0.40225850108E+02  0.98118779417E+02 -0.12290034143E+03  0.23723175971E+03  0.17300000000E+03 0.  1.
<mgrwt>
<rscale>  2 0.20291479E+03</rscale>
<asrwt>0</asrwt>
<pdfrwt beam="1">  1       21 0.27163574E-01 0.20291479E+03</pdfrwt>
<pdfrwt beam="2">  1       21 0.40965989E-01 0.20291479E+03</pdfrwt>
<totfact> 0.73810098E+04</totfact>
</mgrwt>
</event>
<event>
 4    1  0.4199481E+000  0.2167172E+03  0.7546771E-02  0.1136354E+00
         21   -1    0    0  503  502  0.00000000000E+00  0.00000000000E+00  0.29481946782E+03  0.29481946782E+03  0.00000000000E+00 0. -1.
         21   -1    0    0  501  503 -0.00000000000E+00 -0.00000000000E+00 -0.28487789728E+03  0.28487789728E+03  0.00000000000E+00 0.  1.
          6    1    1    2  501    0  0.26428058622E+02  0.12782377266E+03 -0.18746643144E+03  0.28654846371E+03  0.17300000000E+03 0.  1.
         -6    1    1    2    0  502 -0.26428058622E+02 -0.12782377266E+03  0.19740800198E+03  0.29314890139E+03  0.17300000000E+03 0. -1.
<mgrwt>
<rscale>  2 0.21671723E+03</rscale>
<asrwt>0</asrwt>
<pdfrwt beam="1">  1       21 0.45356842E-01 0.21671723E+03</pdfrwt>
<pdfrwt beam="2">  1       21 0.43827368E-01 0.21671723E+03</pdfrwt>
<totfact> 0.23004711E+04</totfact>
</mgrwt>
</event>
<event>
 4    1  0.4199481E+000  0.1985309E+03  0.7546771E-02  0.1150984E+00
         21   -1    0    0  501  502  0.00000000000E+00  0.00000000000E+00  0.26154201525E+03  0.26154201525E+03  0.00000000000E+00 0. -1.
         21   -1    0    0  502  503 -0.00000000000E+00 -0.00000000000E+00 -0.18561878759E+03  0.18561878759E+03  0.00000000000E+00 0. -1.
          6    1    1    2  501    0  0.75624500022E+02  0.61371351813E+02 -0.59011054264E+02  0.20711545657E+03  0.17300000000E+03 0. -1.
         -6    1    1    2    0  503 -0.75624500022E+02 -0.61371351813E+02  0.13493428192E+03  0.24004534627E+03  0.17300000000E+03 0. -1.
<mgrwt>
<rscale>  2 0.19853087E+03</rscale>
<asrwt>0</asrwt>
<pdfrwt beam="1">  1       21 0.40237233E-01 0.19853087E+03</pdfrwt>
<pdfrwt beam="2">  1       21 0.28556737E-01 0.19853087E+03</pdfrwt>
<totfact> 0.69621096E+04</totfact>
</mgrwt>
</event>
<event>
 4    1  0.4199481E+000  0.1962939E+03  0.7546771E-02  0.1152904E+00
         21   -1    0    0  501  502  0.00000000000E+00  0.00000000000E+00  0.36758102323E+03  0.36758102323E+03  0.00000000000E+00 0. -1.
         21   -1    0    0  502  503 -0.00000000000E+00 -0.00000000000E+00 -0.22647758263E+03  0.22647758263E+03  0.00000000000E+00 0.  1.
          6    1    1    2  501    0 -0.29983374831E+02  0.87768454104E+02  0.28824708422E+03  0.34873727340E+03  0.17300000000E+03 0. -1.
         -6    1    1    2    0  503  0.29983374831E+02 -0.87768454104E+02 -0.14714364362E+03  0.24532133246E+03  0.17300000000E+03 0.  1.
<mgrwt>
<rscale>  2 0.19629392E+03</rscale>
<asrwt>0</asrwt>
<pdfrwt beam="1">  1       21 0.56550926E-01 0.19629392E+03</pdfrwt>
<pdfrwt beam="2">  1       21 0.34842705E-01 0.19629392E+03</pdfrwt>
<totfact> 0.23299351E+04</totfact>
</mgrwt>
</event>
<event>
 4    1  0.4199481E+000  0.2082330E+03  0.7546771E-02  0.1142973E+00
         21   -1    0    0  503  502  0.00000000000E+00  0.00000000000E+00  0.47851880856E+03  0.47851880856E+03  0.00000000000E+00 0. -1.
         21   -1    0    0  501  503 -0.00000000000E+00 -0.00000000000E+00 -0.11571706344E+03  0.11571706344E+03  0.00000000000E+00 0.  1.
          6    1    1    2  501    0  0.18559931523E+02  0.11440064467E+03  0.43017172590E+02  0.21262985608E+03  0.17300000000E+03 0.  1.
         -6    1    1    2    0  502 -0.18559931523E+02 -0.11440064467E+03  0.31978457253E+03  0.38160601592E+03  0.17300000000E+03 0.  1.
<mgrwt>
<rscale>  2 0.20823299E+03</rscale>
<asrwt>0</asrwt>
<pdfrwt beam="1">  1       21 0.73618277E-01 0.20823299E+03</pdfrwt>
<pdfrwt beam="2">  1       21 0.17802625E-01 0.20823299E+03</pdfrwt>
<totfact> 0.47116279E+04</totfact>
</mgrwt>
</event>
<event>
 4    1  0.4199481E+000  0.2312977E+03  0.7546771E-02  0.1125730E+00
         21   -1    0    0  501  502  0.00000000000E+00  0.00000000000E+00  0.90780458409E+03  0.90780458409E+03  0.00000000000E+00 0.  1.
         21   -1    0    0  502  503 -0.00000000000E+00 -0.00000000000E+00 -0.64604438122E+02  0.64604438122E+02  0.00000000000E+00 0. -1.
          6    1    1    2  501    0  0.14969529801E+03 -0.34072829269E+02  0.56567118207E+03  0.61113216751E+03  0.17300000000E+03 0.  1.
         -6    1    1    2    0  503 -0.14969529801E+03  0.34072829269E+02  0.27752896389E+03  0.36127685469E+03  0.17300000000E+03 0. -1.
<mgrwt>
<rscale>  2 0.23129773E+03</rscale>
<asrwt>0</asrwt>
<pdfrwt beam="1">  1       21 0.13966223E+00 0.23129773E+03</pdfrwt>
<pdfrwt beam="2">  1       21 0.99391450E-02 0.23129773E+03</pdfrwt>
<totfact> 0.28873616E+04</totfact>
</mgrwt>
</event>
<event>
 4    1  0.4199481E+000  0.2092604E+03  0.7546771E-02  0.1142153E+00
         21   -1    0    0  501  502  0.00000000000E+00  0.00000000000E+00  0.14524380222E+03  0.14524380222E+03  0.00000000000E+00 0. -1.
         21   -1    0    0  502  503 -0.00000000000E+00 -0.00000000000E+00 -0.40285584656E+03  0.40285584656E+03  0.00000000000E+00 0. -1.
          6    1    1    2  501    0 -0.99976802933E+02  0.62173573193E+02  0.86599484781E+01  0.20943951164E+03  0.17300000000E+03 0. -1.
         -6    1    1    2    0  503  0.99976802933E+02 -0.62173573193E+02 -0.26627199281E+03  0.33866013714E+03  0.17300000000E+03 0. -1.
<mgrwt>
<rscale>  2 0.20926040E+03</rscale>
<asrwt>0</asrwt>
<pdfrwt beam="1">  1       21 0.22345201E-01 0.20926040E+03</pdfrwt>
<pdfrwt beam="2">  1       21 0.61977822E-01 0.20926040E+03</pdfrwt>
<totfact> 0.44919935E+04</totfact>
</mgrwt>
</event>
<event>
 4    1  0.4199481E+000  0.2076108E+03  0.7546771E-02  0.1143472E+00
         21   -1    0    0  503  502  0.00000000000E+00  0.00000000000E+00  0.14236466214E+03  0.14236466214E+03  0.00000000000E+00 0.  1.
         21   -1    0    0  501  503 -0.00000000000E+00 -0.00000000000E+00 -0.30924985650E+03  0.30924985650E+03  0.00000000000E+00 0.  1.
          6    1    1    2  501    0 -0.11052282483E+03  0.30950608479E+02 -0.50729484002E+02  0.21371877672E+03  0.17300000000E+03 0.  1.
         -6    1    1    2    0  502  0.11052282483E+03 -0.30950608479E+02 -0.11615571036E+03  0.23789574192E+03  0.17300000000E+03 0.  1.
<mgrwt>
<rscale>  2 0.20761078E+03</rscale>
<asrwt>0</asrwt>
<pdfrwt beam="1">  1       21 0.21902256E-01 0.20761078E+03</pdfrwt>
<pdfrwt beam="2">  1       21 0.47576900E-01 0.20761078E+03</pdfrwt>
<totfact> 0.81713203E+04</totfact>
</mgrwt>
</event>
<event>
 4    1  0.4199481E+000  0.4045429E+03  0.7546771E-02  0.1042218E+00
         21   -1    0    0  501  502  0.00000000000E+00  0.00000000000E+00  0.10563845229E+04  0.10563845229E+04  0.00000000000E+00 0.  1.
         21   -1    0    0  502  503 -0.00000000000E+00 -0.00000000000E+00 -0.15818678327E+03  0.15818678327E+03  0.00000000000E+00 0.  1.
          6    1    1    2  501    0  0.35784849705E+03  0.75302111368E+02  0.53637120754E+03  0.67182514622E+03  0.17300000000E+03 0.  1.
         -6    1    1    2    0  503 -0.35784849705E+03 -0.75302111368E+02  0.36182653210E+03  0.54274615996E+03  0.17300000000E+03 0.  1.
<mgrwt>
<rscale>  2 0.40454290E+03</rscale>
<asrwt>0</asrwt>
<pdfrwt beam="1">  1       21 0.16252069E+00 0.40454290E+03</pdfrwt>
<pdfrwt beam="2">  1       21 0.24336429E-01 0.40454290E+03</pdfrwt>
<totfact> 0.33770633E+03</totfact>
</mgrwt>
</event>
<event>
 4    1  0.4199481E+000  0.2320808E+03  0.7546771E-02  0.1125184E+00
         21   -1    0    0  501  502  0.00000000000E+00  0.00000000000E+00  0.26323408185E+03  0.26323408185E+03  0.00000000000E+00 0.  1.
         21   -1    0    0  502  503 -0.00000000000E+00 -0.00000000000E+00 -0.47440901989E+03  0.47440901989E+03  0.00000000000E+00 0. -1.
          6    1    1    2  501    0 -0.53590818863E+02  0.14512244419E+03  0.17254802502E+03  0.28919598997E+03  0.17300000000E+03 0.  1.
         -6    1    1    2    0  503  0.53590818863E+02 -0.14512244419E+03 -0.38372296306E+03  0.44844711177E+03  0.17300000000E+03 0. -1.
<mgrwt>
<rscale>  2 0.23208080E+03</rscale>
<asrwt>0</asrwt>
<pdfrwt beam="1">  1       21 0.40497551E-01 0.23208080E+03</pdfrwt>
<pdfrwt beam="2">  1       21 0.72986003E-01 0.23208080E+03</pdfrwt>
<totfact> 0.96707928E+03</totfact>
</mgrwt>
</event>
<event>
 4    1  0.4199481E+000  0.1823645E+03  0.7546771E-02  0.1165534E+00
         21   -1    0    0  501  502  0.00000000000E+00  0.00000000000E+00  0.38859753883E+03  0.38859753883E+03  0.00000000000E+00 0.  1.
         21   -1    0    0  502  503 -0.00000000000E+00 -0.00000000000E+00 -0.13186732289E+03  0.13186732289E+03  0.00000000000E+00 0.  1.
          6    1    1    2  501    0  0.51565443314E+02 -0.25861773023E+02  0.28254084097E+03  0.33628284682E+03  0.17300000000E+03 0.  1.
         -6    1    1    2    0  503 -0.51565443314E+02  0.25861773023E+02 -0.25810625024E+02  0.18418201490E+03  0.17300000000E+03 0.  1.
<mgrwt>
<rscale>  2 0.18236454E+03</rscale>
<asrwt>0</asrwt>
<pdfrwt beam="1">  1       21 0.59784236E-01 0.18236454E+03</pdfrwt>
<pdfrwt beam="2">  1       21 0.20287281E-01 0.18236454E+03</pdfrwt>
<totfact> 0.58964322E+04</totfact>
</mgrwt>
</event>
<event>
 4    1  0.4199481E+000  0.2807475E+03  0.7546771E-02  0.1095281E+00
         21   -1    0    0  501  502  0.00000000000E+00  0.00000000000E+00  0.44412006174E+03  0.44412006174E+03  0.00000000000E+00 0.  1.
         21   -1    0    0  502  503 -0.00000000000E+00 -0.00000000000E+00 -0.80594101032E+03  0.80594101032E+03  0.00000000000E+00 0. -1.
          6    1    1    2  501    0 -0.21534592516E+03  0.50162403205E+02  0.37102885354E+03  0.46527577235E+03  0.17300000000E+03 0.  1.
         -6    1    1    2    0  503  0.21534592516E+03 -0.50162403205E+02 -0.73284980212E+03  0.78478529971E+03  0.17300000000E+03 0. -1.
<mgrwt>
<rscale>  2 0.28074746E+03</rscale>
<asrwt>0</asrwt>
<pdfrwt beam="1">  1       21 0.68326164E-01 0.28074746E+03</pdfrwt>
<pdfrwt beam="2">  1       21 0.12399092E+00 0.28074746E+03</pdfrwt>
<totfact> 0.88140369E+02</totfact>
</mgrwt>
</event>
<event>
 4    1  0.4199481E+000  0.2619479E+03  0.7546771E-02  0.1105979E+00
         21   -1    0    0  501  502  0.00000000000E+00  0.00000000000E+00  0.82816635537E+03  0.82816635537E+03  0.00000000000E+00 0.  1.
         21   -1    0    0  502  503 -0.00000000000E+00 -0.00000000000E+00 -0.12804060882E+03  0.12804060882E+03  0.00000000000E+00 0.  1.
          6    1    1    2  501    0 -0.83386577525E+02 -0.17814146442E+03  0.63408621542E+03  0.68606270212E+03  0.17300000000E+03 0.  1.
         -6    1    1    2    0  503  0.83386577525E+02  0.17814146442E+03  0.66039531136E+02  0.27014426207E+03  0.17300000000E+03 0.  1.
<mgrwt>
<rscale>  2 0.26194790E+03</rscale>
<asrwt>0</asrwt>
<pdfrwt beam="1">  1       21 0.12741021E+00 0.26194790E+03</pdfrwt>
<pdfrwt beam="2">  1       21 0.19698556E-01 0.26194790E+03</pdfrwt>
<totfact> 0.10330350E+04</totfact>
</mgrwt>
</event>
<event>
 4    1  0.4199481E+000  0.2402937E+03  0.7546771E-02  0.1119597E+00
         21   -1    0    0  501  502  0.00000000000E+00  0.00000000000E+00  0.28898772026E+03  0.28898772026E+03  0.00000000000E+00 0. -1.
         21   -1    0    0  502  503 -0.00000000000E+00 -0.00000000000E+00 -0.22517308459E+03  0.22517308459E+03  0.00000000000E+00 0. -1.
          6    1    1    2  501    0  0.24860883748E+02  0.16490609540E+03  0.11819677926E+03  0.26779014632E+03  0.17300000000E+03 0. -1.
         -6    1    1    2    0  503 -0.24860883748E+02 -0.16490609540E+03 -0.54382143590E+02  0.24637065852E+03  0.17300000000E+03 0. -1.
<mgrwt>
<rscale>  2 0.24029374E+03</rscale>
<asrwt>0</asrwt>
<pdfrwt beam="1">  1       21 0.44459649E-01 0.24029374E+03</pdfrwt>
<pdfrwt beam="2">  1       21 0.34642013E-01 0.24029374E+03</pdfrwt>
<totfact> 0.38125022E+04</totfact>
</mgrwt>
</event>
<event>
 4    1  0.4199481E+000  0.2002801E+03  0.7546771E-02  0.1149503E+00
         21   -1    0    0  503  502  0.00000000000E+00  0.00000000000E+00  0.13822449937E+04  0.13822449937E+04  0.00000000000E+00 0. -1.
         21   -1    0    0  501  503 -0.00000000000E+00 -0.00000000000E+00 -0.41705225739E+02  0.41705225739E+02  0.00000000000E+00 0.  1.
          6    1    1    2  501    0  0.20435195048E+02  0.98820561560E+02  0.27760079756E+03  0.34230732301E+03  0.17300000000E+03 0.  1.
         -6    1    1    2    0  502 -0.20435195048E+02 -0.98820561560E+02  0.10629389704E+04  0.10816428964E+04  0.17300000000E+03 0. -1.
<mgrwt>
<rscale>  2 0.20028006E+03</rscale>
<asrwt>0</asrwt>
<pdfrwt beam="1">  1       21 0.21265304E+00 0.20028006E+03</pdfrwt>
<pdfrwt beam="2">  1       21 0.64161896E-02 0.20028006E+03</pdfrwt>
<totfact> 0.19512790E+04</totfact>
</mgrwt>
</event>
<event>
 4    1  0.4199481E+000  0.1816740E+03  0.7546771E-02  0.1166193E+00
         21   -1    0    0  503  502  0.00000000000E+00  0.00000000000E+00  0.56081189665E+03  0.56081189665E+03  0.00000000000E+00 0. -1.
         21   -1    0    0  501  503 -0.00000000000E+00 -0.00000000000E+00 -0.59854235773E+02  0.59854235773E+02  0.00000000000E+00 0.  1.
          6    1    1    2  501    0  0.43310109028E+02  0.34650822949E+02  0.21034084734E+03  0.27793653437E+03  0.17300000000E+03 0.  1.
         -6    1    1    2    0  502 -0.43310109028E+02 -0.34650822949E+02  0.29061681353E+03  0.34272959805E+03  0.17300000000E+03 0. -1.
<mgrwt>
<rscale>  2 0.18167401E+03</rscale>
<asrwt>0</asrwt>
<pdfrwt beam="1">  1       21 0.86278750E-01 0.18167401E+03</pdfrwt>
<pdfrwt beam="2">  1       21 0.92083443E-02 0.18167401E+03</pdfrwt>
<totfact> 0.10911963E+05</totfact>
</mgrwt>
</event>
<event>
 4    1  0.4199481E+000  0.2071677E+03  0.7546771E-02  0.1143829E+00
         21   -1    0    0  503  502  0.00000000000E+00  0.00000000000E+00  0.90915979497E+02  0.90915979497E+02  0.00000000000E+00 0. -1.
         21   -1    0    0  501  503 -0.00000000000E+00 -0.00000000000E+00 -0.12081822886E+04  0.12081822886E+04  0.00000000000E+00 0. -1.
          6    1    1    2  501    0 -0.63502029843E+02 -0.94641181018E+02 -0.10656455840E+04  0.10855961365E+04  0.17300000000E+03 0. -1.
         -6    1    1    2    0  502  0.63502029843E+02  0.94641181018E+02 -0.51620725143E+02  0.21350213161E+03  0.17300000000E+03 0. -1.
<mgrwt>
<rscale>  2 0.20716771E+03</rscale>
<asrwt>0</asrwt>
<pdfrwt beam="1">  1       21 0.13987075E-01 0.20716771E+03</pdfrwt>
<pdfrwt beam="2">  1       21 0.18587418E+00 0.20716771E+03</pdfrwt>
<totfact> 0.73085059E+03</totfact>
</mgrwt>
</event>
<event>
 4    1  0.4199481E+000  0.2030063E+03  0.7546771E-02  0.1147227E+00
         21   -1    0    0  501  502  0.00000000000E+00  0.00000000000E+00  0.23065293038E+03  0.23065293038E+03  0.00000000000E+00 0. -1.
         21   -1    0    0  502  503 -0.00000000000E+00 -0.00000000000E+00 -0.28433603424E+03  0.28433603424E+03  0.00000000000E+00 0. -1.
          6    1    1    2  501    0  0.48329692767E+02  0.94587451898E+02  0.13012700862E+03  0.24113188016E+03  0.17300000000E+03 0. -1.
         -6    1    1    2    0  503 -0.48329692767E+02 -0.94587451898E+02 -0.18381011247E+03  0.27385708445E+03  0.17300000000E+03 0. -1.
<mgrwt>
<rscale>  2 0.20300627E+03</rscale>
<asrwt>0</asrwt>
<pdfrwt beam="1">  1       21 0.35485066E-01 0.20300627E+03</pdfrwt>
<pdfrwt beam="2">  1       21 0.43744005E-01 0.20300627E+03</pdfrwt>
<totfact> 0.38245223E+04</totfact>
</mgrwt>
</event>
<event>
 4    1  0.4199481E+000  0.2417302E+03  0.7546771E-02  0.1118646E+00
         21   -1    0    0  501  502  0.00000000000E+00  0.00000000000E+00  0.19381244259E+04  0.19381244259E+04  0.00000000000E+00 0.  1.
         21   -1    0    0  502  503 -0.00000000000E+00 -0.00000000000E+00 -0.35918734172E+02  0.35918734172E+02  0.00000000000E+00 0. -1.
          6    1    1    2  501    0  0.16858787754E+03 -0.90907173069E+01  0.13466739996E+04  0.13681974911E+04  0.17300000000E+03 0.  1.
         -6    1    1    2    0  503 -0.16858787754E+03  0.90907173069E+01  0.55553169216E+03  0.60584566895E+03  0.17300000000E+03 0. -1.
<mgrwt>
<rscale>  2 0.24173025E+03</rscale>
<asrwt>0</asrwt>
<pdfrwt beam="1">  1       21 0.29817291E+00 0.24173025E+03</pdfrwt>
<pdfrwt beam="2">  1       21 0.55259606E-02 0.24173025E+03</pdfrwt>
<totfact> 0.75571885E+03</totfact>
</mgrwt>
</event>
<event>
 4    1  0.4199481E+000  0.2209252E+03  0.7546771E-02  0.1133195E+00
         21   -1    0    0  503  502  0.00000000000E+00  0.00000000000E+00  0.21037912169E+03  0.21037912169E+03  0.00000000000E+00 0.  1.
         21   -1    0    0  501  503 -0.00000000000E+00 -0.00000000000E+00 -0.36692353480E+03  0.36692353480E+03  0.00000000000E+00 0.  1.
          6    1    1    2  501    0  0.11158929901E+03 -0.80167039999E+02 -0.25330920719E+03  0.33611527844E+03  0.17300000000E+03 0.  1.
         -6    1    1    2    0  502 -0.11158929901E+03  0.80167039999E+02  0.96764794080E+02  0.24118737805E+03  0.17300000000E+03 0.  1.
<mgrwt>
<rscale>  2 0.22092516E+03</rscale>
<asrwt>0</asrwt>
<pdfrwt beam="1">  1       21 0.32366019E-01 0.22092516E+03</pdfrwt>
<pdfrwt beam="2">  1       21 0.56449774E-01 0.22092516E+03</pdfrwt>
<totfact> 0.26694594E+04</totfact>
</mgrwt>
</event>
<event>
 4    1  0.4199481E+000  0.1809617E+03  0.7546771E-02  0.1166876E+00
         21   -1    0    0  501  502  0.00000000000E+00  0.00000000000E+00  0.79434826714E+02  0.79434826714E+02  0.00000000000E+00 0. -1.
         21   -1    0    0  502  503 -0.00000000000E+00 -0.00000000000E+00 -0.53453902940E+03  0.53453902940E+03  0.00000000000E+00 0.  1.
          6    1    1    2  501    0  0.31598935799E+02 -0.42657239785E+02 -0.80719965767E+02  0.19814854459E+03  0.17300000000E+03 0. -1.
         -6    1    1    2    0  503 -0.31598935799E+02  0.42657239785E+02 -0.37438423691E+03  0.41582531152E+03  0.17300000000E+03 0.  1.
<mgrwt>
<rscale>  2 0.18096169E+03</rscale>
<asrwt>0</asrwt>
<pdfrwt beam="1">  1       21 0.12220743E-01 0.18096169E+03</pdfrwt>
<pdfrwt beam="2">  1       21 0.82236774E-01 0.18096169E+03</pdfrwt>
<totfact> 0.73758429E+04</totfact>
</mgrwt>
</event>
<event>
 4    1  0.4199481E+000  0.2625652E+03  0.7546771E-02  0.1105612E+00
         21   -1    0    0  501  502  0.00000000000E+00  0.00000000000E+00  0.45935401364E+03  0.45935401364E+03  0.00000000000E+00 0.  1.
         21   -1    0    0  502  503 -0.00000000000E+00 -0.00000000000E+00 -0.18070778722E+03  0.18070778722E+03  0.00000000000E+00 0. -1.
          6    1    1    2  501    0 -0.16146310924E+03  0.11375920200E+03  0.27107334607E+03  0.37738740126E+03  0.17300000000E+03 0.  1.
         -6    1    1    2    0  503  0.16146310924E+03 -0.11375920200E+03  0.75728803462E+01  0.26267439959E+03  0.17300000000E+03 0. -1.
<mgrwt>
<rscale>  2 0.26256521E+03</rscale>
<asrwt>0</asrwt>
<pdfrwt beam="1">  1       21 0.70669848E-01 0.26256521E+03</pdfrwt>
<pdfrwt beam="2">  1       21 0.27801198E-01 0.26256521E+03</pdfrwt>
<totfact> 0.21601981E+04</totfact>
</mgrwt>
</event>
<event>
 4    1  0.4199481E+000  0.3096202E+03  0.7546771E-02  0.1080528E+00
         21   -1    0    0  503  502  0.00000000000E+00  0.00000000000E+00  0.63045076611E+03  0.63045076611E+03  0.00000000000E+00 0.  1.
         21   -1    0    0  501  503 -0.00000000000E+00 -0.00000000000E+00 -0.19889953702E+03  0.19889953702E+03  0.00000000000E+00 0. -1.
          6    1    1    2  501    0  0.21183915949E+02  0.25590405294E+03  0.14537643554E+02  0.30996126482E+03  0.17300000000E+03 0. -1.
         -6    1    1    2    0  502 -0.21183915949E+02 -0.25590405294E+03  0.41701358553E+03  0.51938903832E+03  0.17300000000E+03 0.  1.
<mgrwt>
<rscale>  2 0.30962016E+03</rscale>
<asrwt>0</asrwt>
<pdfrwt beam="1">  1       21 0.96992424E-01 0.30962016E+03</pdfrwt>
<pdfrwt beam="2">  1       21 0.30599929E-01 0.30962016E+03</pdfrwt>
<totfact> 0.84525855E+03</totfact>
</mgrwt>
</event>
<event>
 4    1  0.4199481E+000  0.2211657E+03  0.7546771E-02  0.1133017E+00
         21   -1    0    0  503  502  0.00000000000E+00  0.00000000000E+00  0.38334916619E+02  0.38334916619E+02  0.00000000000E+00 0. -1.
         21   -1    0    0  501  503 -0.00000000000E+00 -0.00000000000E+00 -0.13413770517E+04  0.13413770517E+04  0.00000000000E+00 0.  1.
          6    1    1    2  501    0 -0.70663877108E+02 -0.11828732898E+03 -0.80385232835E+03  0.83372228081E+03  0.17300000000E+03 0.  1.
         -6    1    1    2    0  502  0.70663877108E+02  0.11828732898E+03 -0.49918980675E+03  0.54598968753E+03  0.17300000000E+03 0. -1.
<mgrwt>
<rscale>  2 0.22116572E+03</rscale>
<asrwt>0</asrwt>
<pdfrwt beam="1">  1       21 0.58976784E-02 0.22116572E+03</pdfrwt>
<pdfrwt beam="2">  1       21 0.20636574E+00 0.22116572E+03</pdfrwt>
<totfact> 0.24330368E+04</totfact>
</mgrwt>
</event>
<event>
 4    1  0.4199481E+000  0.3226666E+03  0.7546771E-02  0.1074429E+00
         21   -1    0    0  501  502  0.00000000000E+00  0.00000000000E+00  0.84702540083E+02  0.84702540083E+02  0.00000000000E+00 0. -1.
         21   -1    0    0  502  503 -0.00000000000E+00 -0.00000000000E+00 -0.13477229756E+04  0.13477229756E+04  0.00000000000E+00 0.  1.
          6    1    1    2  501    0 -0.27236014500E+03 -0.21627042943E+01 -0.41908795661E+03  0.52891250813E+03  0.17300000000E+03 0. -1.
         -6    1    1    2    0  503  0.27236014500E+03  0.21627042943E+01 -0.84393247893E+03  0.90351300758E+03  0.17300000000E+03 0.  1.
<mgrwt>
<rscale>  2 0.32266659E+03</rscale>
<asrwt>0</asrwt>
<pdfrwt beam="1">  1       21 0.13031161E-01 0.32266659E+03</pdfrwt>
<pdfrwt beam="2">  1       21 0.20734198E+00 0.32266659E+03</pdfrwt>
<totfact> 0.55597848E+03</totfact>
</mgrwt>
</event>
<event>
 4    1  0.4199481E+000  0.2111101E+03  0.7546771E-02  0.1140690E+00
         21   -1    0    0  501  502  0.00000000000E+00  0.00000000000E+00  0.10154522785E+03  0.10154522785E+03  0.00000000000E+00 0.  1.
         21   -1    0    0  502  503 -0.00000000000E+00 -0.00000000000E+00 -0.56405074363E+03  0.56405074363E+03  0.00000000000E+00 0.  1.
          6    1    1    2  501    0  0.39724564311E+02 -0.11428233467E+03 -0.74487288779E+02  0.22386569459E+03  0.17300000000E+03 0.  1.
         -6    1    1    2    0  503 -0.39724564311E+02  0.11428233467E+03 -0.38801822701E+03  0.44173027689E+03  0.17300000000E+03 0.  1.
<mgrwt>
<rscale>  2 0.21111014E+03</rscale>
<asrwt>0</asrwt>
<pdfrwt beam="1">  1       21 0.15622343E-01 0.21111014E+03</pdfrwt>
<pdfrwt beam="2">  1       21 0.86777037E-01 0.21111014E+03</pdfrwt>
<totfact> 0.41226802E+04</totfact>
</mgrwt>
</event>
<event>
 4    1  0.4199481E+000  0.2338162E+03  0.7546771E-02  0.1123982E+00
         21   -1    0    0  501  502  0.00000000000E+00  0.00000000000E+00  0.10875533800E+04  0.10875533800E+04  0.00000000000E+00 0.  1.
         21   -1    0    0  502  503 -0.00000000000E+00 -0.00000000000E+00 -0.14335119441E+03  0.14335119441E+03  0.00000000000E+00 0.  1.
          6    1    1    2  501    0 -0.90300026443E+02  0.12879030285E+03  0.96803914654E+03  0.99587641106E+03  0.17300000000E+03 0.  1.
         -6    1    1    2    0  503  0.90300026443E+02 -0.12879030285E+03 -0.23836960899E+02  0.23502816339E+03  0.17300000000E+03 0.  1.
<mgrwt>
<rscale>  2 0.23381625E+03</rscale>
<asrwt>0</asrwt>
<pdfrwt beam="1">  1       21 0.16731590E+00 0.23381625E+03</pdfrwt>
<pdfrwt beam="2">  1       21 0.22054031E-01 0.23381625E+03</pdfrwt>
<totfact> 0.41387429E+03</totfact>
</mgrwt>
</event>
<event>
 4    1  0.4199481E+000  0.1798733E+03  0.7546771E-02  0.1167926E+00
         21   -1    0    0  503  502  0.00000000000E+00  0.00000000000E+00  0.16358682282E+03  0.16358682282E+03  0.00000000000E+00 0.  1.
         21   -1    0    0  501  503 -0.00000000000E+00 -0.00000000000E+00 -0.19820830837E+03  0.19820830837E+03  0.00000000000E+00 0.  1.
          6    1    1    2  501    0 -0.49221752018E+02  0.16167813776E+01 -0.25708261740E+02  0.18170115458E+03  0.17300000000E+03 0. -1.
         -6    1    1    2    0  502  0.49221752018E+02 -0.16167813776E+01 -0.89132238110E+01  0.18009397661E+03  0.17300000000E+03 0. -1.
<mgrwt>
<rscale>  2 0.17987327E+03</rscale>
<asrwt>0</asrwt>
<pdfrwt beam="1">  1       21 0.25167203E-01 0.17987327E+03</pdfrwt>
<pdfrwt beam="2">  1       21 0.30493586E-01 0.17987327E+03</pdfrwt>
<totfact> 0.15499670E+05</totfact>
</mgrwt>
</event>
<event>
 4    1  0.4199481E+000  0.1997491E+03  0.7546771E-02  0.1149951E+00
         21   -1    0    0  501  502  0.00000000000E+00  0.00000000000E+00  0.45679750699E+03  0.45679750699E+03  0.00000000000E+00 0. -1.
         21   -1    0    0  502  503 -0.00000000000E+00 -0.00000000000E+00 -0.20007263652E+03  0.20007263652E+03  0.00000000000E+00 0. -1.
          6    1    1    2  501    0  0.97921464263E+02  0.19547449257E+02  0.37489129620E+03  0.42478606369E+03  0.17300000000E+03 0. -1.
         -6    1    1    2    0  503 -0.97921464263E+02 -0.19547449257E+02 -0.11816642574E+03  0.23208407982E+03  0.17300000000E+03 0. -1.
<mgrwt>
<rscale>  2 0.19974913E+03</rscale>
<asrwt>0</asrwt>
<pdfrwt beam="1">  1       21 0.70276539E-01 0.19974913E+03</pdfrwt>
<pdfrwt beam="2">  1       21 0.30780406E-01 0.19974913E+03</pdfrwt>
<totfact> 0.18535849E+04</totfact>
</mgrwt>
</event>
<event>
 4    1  0.4199481E+000  0.1920229E+03  0.7546771E-02  0.1156649E+00
         21   -1    0    0  501  502  0.00000000000E+00  0.00000000000E+00  0.47845170501E+02  0.47845170501E+02  0.00000000000E+00 0. -1.
         21   -1    0    0  502  503 -0.00000000000E+00 -0.00000000000E+00 -0.82623635147E+03  0.82623635147E+03  0.00000000000E+00 0.  1.
          6    1    1    2  501    0 -0.34457421902E+02 -0.75871528220E+02 -0.50253438267E+03  0.53797175436E+03  0.17300000000E+03 0.  1.
         -6    1    1    2    0  503  0.34457421902E+02  0.75871528220E+02 -0.27585679830E+03  0.33610976762E+03  0.17300000000E+03 0.  1.
<mgrwt>
<rscale>  2 0.19202292E+03</rscale>
<asrwt>0</asrwt>
<pdfrwt beam="1">  1       21 0.73607959E-02 0.19202292E+03</pdfrwt>
<pdfrwt beam="2">  1       21 0.12711328E+00 0.19202292E+03</pdfrwt>
<totfact> 0.63449559E+04</totfact>
</mgrwt>
</event>
<event>
 4    1  0.4199481E+000  0.1733490E+03  0.7546771E-02  0.1174400E+00
         21   -1    0    0  503  502  0.00000000000E+00  0.00000000000E+00  0.86351118935E+03  0.86351118935E+03  0.00000000000E+00 0.  1.
         21   -1    0    0  501  503 -0.00000000000E+00 -0.00000000000E+00 -0.35347522903E+02  0.35347522903E+02  0.00000000000E+00 0.  1.
          6    1    1    2  501    0  0.10748710395E+00  0.10994337696E+02  0.47003464574E+03  0.50098149188E+03  0.17300000000E+03 0.  1.
         -6    1    1    2    0  502 -0.10748710395E+00 -0.10994337696E+02  0.35812902071E+03  0.39787722037E+03  0.17300000000E+03 0.  1.
<mgrwt>
<rscale>  2 0.17334903E+03</rscale>
<asrwt>0</asrwt>
<pdfrwt beam="1">  1       21 0.13284786E+00 0.17334903E+03</pdfrwt>
<pdfrwt beam="2">  1       21 0.54380811E-02 0.17334903E+03</pdfrwt>
<totfact> 0.96285497E+04</totfact>
</mgrwt>
</event>
<event>
 4    1  0.4199481E+000  0.1989426E+03  0.7546771E-02  0.1150634E+00
         21   -1    0    0  503  502  0.00000000000E+00  0.00000000000E+00  0.32953791973E+03  0.32953791973E+03  0.00000000000E+00 0.  1.
         21   -1    0    0  501  503 -0.00000000000E+00 -0.00000000000E+00 -0.12018455235E+03  0.12018455235E+03  0.00000000000E+00 0. -1.
          6    1    1    2  501    0 -0.82785990972E+02  0.52873950067E+02  0.11056867197E+03  0.22760405558E+03  0.17300000000E+03 0.  1.
         -6    1    1    2    0  502  0.82785990972E+02 -0.52873950067E+02  0.98784695417E+02  0.22211841649E+03  0.17300000000E+03 0. -1.
<mgrwt>
<rscale>  2 0.19894264E+03</rscale>
<asrwt>0</asrwt>
<pdfrwt beam="1">  1       21 0.50698141E-01 0.19894264E+03</pdfrwt>
<pdfrwt beam="2">  1       21 0.18489931E-01 0.19894264E+03</pdfrwt>
<totfact> 0.98636213E+04</totfact>
</mgrwt>
</event>
<event>
 4    1  0.4199481E+000  0.2150171E+03  0.7546771E-02  0.1137653E+00
         21   -1    0    0  501  502  0.00000000000E+00  0.00000000000E+00  0.34187370618E+03  0.34187370618E+03  0.00000000000E+00 0. -1.
         21   -1    0    0  502  503 -0.00000000000E+00 -0.00000000000E+00 -0.26037230988E+03  0.26037230988E+03  0.00000000000E+00 0.  1.
          6    1    1    2  501    0  0.33631626266E+02 -0.12317579410E+03  0.24950943496E+03  0.32937413479E+03  0.17300000000E+03 0. -1.
         -6    1    1    2    0  503 -0.33631626266E+02  0.12317579410E+03 -0.16800803866E+03  0.27287188127E+03  0.17300000000E+03 0.  1.
<mgrwt>
<rscale>  2 0.21501712E+03</rscale>
<asrwt>0</asrwt>
<pdfrwt beam="1">  1       21 0.52595955E-01 0.21501712E+03</pdfrwt>
<pdfrwt beam="2">  1       21 0.40057278E-01 0.21501712E+03</pdfrwt>
<totfact> 0.20316997E+04</totfact>
</mgrwt>
</event>
<event>
 4    1  0.4199481E+000  0.2274080E+03  0.7546771E-02  0.1128478E+00
         21   -1    0    0  501  502  0.00000000000E+00  0.00000000000E+00  0.14444906402E+03  0.14444906402E+03  0.00000000000E+00 0.  1.
         21   -1    0    0  502  503 -0.00000000000E+00 -0.00000000000E+00 -0.40797653514E+03  0.40797653514E+03  0.00000000000E+00 0. -1.
          6    1    1    2  501    0 -0.57686878252E+02 -0.13585886382E+03 -0.35100820981E+02  0.23010100920E+03  0.17300000000E+03 0. -1.
         -6    1    1    2    0  503  0.57686878252E+02  0.13585886382E+03 -0.22842665013E+03  0.32232458996E+03  0.17300000000E+03 0. -1.
<mgrwt>
<rscale>  2 0.22740802E+03</rscale>
<asrwt>0</asrwt>
<pdfrwt beam="1">  1       21 0.22222933E-01 0.22740802E+03</pdfrwt>
<pdfrwt beam="2">  1       21 0.62765620E-01 0.22740802E+03</pdfrwt>
<totfact> 0.43788480E+04</totfact>
</mgrwt>
</event>
<event>
 4    1  0.4199481E+000  0.2112277E+03  0.7546771E-02  0.1140597E+00
         21   -1    0    0  501  502  0.00000000000E+00  0.00000000000E+00  0.53665090522E+02  0.53665090522E+02  0.00000000000E+00 0. -1.
         21   -1    0    0  502  503 -0.00000000000E+00 -0.00000000000E+00 -0.90870324469E+03  0.90870324469E+03  0.00000000000E+00 0. -1.
          6    1    1    2  501    0 -0.11659371567E+03 -0.33076060461E+02 -0.28717275586E+03  0.35649026917E+03  0.17300000000E+03 0. -1.
         -6    1    1    2    0  503  0.11659371567E+03  0.33076060461E+02 -0.56786539830E+03  0.60587806603E+03  0.17300000000E+03 0. -1.
<mgrwt>
<rscale>  2 0.21122765E+03</rscale>
<asrwt>0</asrwt>
<pdfrwt beam="1">  1       21 0.82561685E-02 0.21122765E+03</pdfrwt>
<pdfrwt beam="2">  1       21 0.13980049E+00 0.21122765E+03</pdfrwt>
<totfact> 0.40365027E+04</totfact>
</mgrwt>
</event>
<event>
 4    1  0.4199481E+000  0.2204688E+03  0.7546771E-02  0.1133534E+00
         21   -1    0    0  501  502  0.00000000000E+00  0.00000000000E+00  0.79691517223E+02  0.79691517223E+02  0.00000000000E+00 0.  1.
         21   -1    0    0  502  503 -0.00000000000E+00 -0.00000000000E+00 -0.68129834739E+03  0.68129834739E+03  0.00000000000E+00 0.  1.
          6    1    1    2  501    0  0.12965459029E+03  0.43210834652E+02 -0.17765642743E+03  0.28314006291E+03  0.17300000000E+03 0.  1.
         -6    1    1    2    0  503 -0.12965459029E+03 -0.43210834652E+02 -0.42395040273E+03  0.47784980171E+03  0.17300000000E+03 0.  1.
<mgrwt>
<rscale>  2 0.22046879E+03</rscale>
<asrwt>0</asrwt>
<pdfrwt beam="1">  1       21 0.12260233E-01 0.22046879E+03</pdfrwt>
<pdfrwt beam="2">  1       21 0.10481513E+00 0.22046879E+03</pdfrwt>
<totfact> 0.40832700E+04</totfact>
</mgrwt>
</event>
<event>
 4    1  0.4199481E+000  0.1936582E+03  0.7546771E-02  0.1155203E+00
         21   -1    0    0  503  502  0.00000000000E+00  0.00000000000E+00  0.49958675537E+02  0.49958675537E+02  0.00000000000E+00 0. -1.
         21   -1    0    0  501  503 -0.00000000000E+00 -0.00000000000E+00 -0.12361820040E+04  0.12361820040E+04  0.00000000000E+00 0. -1.
          6    1    1    2  501    0 -0.87031498666E+02  0.12668135125E+00 -0.99611453083E+03  0.10147648281E+04  0.17300000000E+03 0.  1.
         -6    1    1    2    0  502  0.87031498666E+02 -0.12668135125E+00 -0.19010879763E+03  0.27137585144E+03  0.17300000000E+03 0.  1.
<mgrwt>
<rscale>  2 0.19365820E+03</rscale>
<asrwt>0</asrwt>
<pdfrwt beam="1">  1       21 0.76859497E-02 0.19365820E+03</pdfrwt>
<pdfrwt beam="2">  1       21 0.19018186E+00 0.19365820E+03</pdfrwt>
<totfact> 0.19996813E+04</totfact>
</mgrwt>
</event>
<event>
 4    1  0.4199481E+000  0.1765750E+03  0.7546771E-02  0.1171160E+00
         21   -1    0    0  503  502  0.00000000000E+00  0.00000000000E+00  0.42729813361E+02  0.42729813361E+02  0.00000000000E+00 0. -1.
         21   -1    0    0  501  503 -0.00000000000E+00 -0.00000000000E+00 -0.19414787604E+04  0.19414787604E+04  0.00000000000E+00 0. -1.
          6    1    1    2  501    0  0.18326631343E+02 -0.30229987611E+02 -0.17331790936E+04  0.17421505354E+04  0.17300000000E+03 0. -1.
         -6    1    1    2    0  502 -0.18326631343E+02  0.30229987611E+02 -0.16556985350E+03  0.24205803840E+03  0.17300000000E+03 0. -1.
<mgrwt>
<rscale>  2 0.17657496E+03</rscale>
<asrwt>0</asrwt>
<pdfrwt beam="1">  1       21 0.65738186E-02 0.17657496E+03</pdfrwt>
<pdfrwt beam="2">  1       21 0.29868899E+00 0.17657496E+03</pdfrwt>
<totfact> 0.59673435E+03</totfact>
</mgrwt>
</event>
<event>
 4    1  0.4199481E+000  0.2308633E+03  0.7546771E-02  0.1126034E+00
         21   -1    0    0  501  502  0.00000000000E+00  0.00000000000E+00  0.68146437360E+02  0.68146437360E+02  0.00000000000E+00 0.  1.
         21   -1    0    0  502  503 -0.00000000000E+00 -0.00000000000E+00 -0.78250331855E+03  0.78250331855E+03  0.00000000000E+00 0. -1.
          6    1    1    2  501    0 -0.19160339706E+02  0.15166331548E+03 -0.34761965940E+03  0.41729762458E+03  0.17300000000E+03 0. -1.
         -6    1    1    2    0  503  0.19160339706E+02 -0.15166331548E+03 -0.36673722179E+03  0.43335213133E+03  0.17300000000E+03 0.  1.
<mgrwt>
<rscale>  2 0.23086334E+03</rscale>
<asrwt>0</asrwt>
<pdfrwt beam="1">  1       21 0.10484067E-01 0.23086334E+03</pdfrwt>
<pdfrwt beam="2">  1       21 0.12038513E+00 0.23086334E+03</pdfrwt>
<totfact> 0.38311582E+04</totfact>
</mgrwt>
</event>
<event>
 4    1  0.4199481E+000  0.2295182E+03  0.7546771E-02  0.1126979E+00
         21   -1    0    0  501  502  0.00000000000E+00  0.00000000000E+00  0.48315859393E+02  0.48315859393E+02  0.00000000000E+00 0.  1.
         21   -1    0    0  502  503 -0.00000000000E+00 -0.00000000000E+00 -0.12155884939E+04  0.12155884939E+04  0.00000000000E+00 0. -1.
          6    1    1    2  501    0 -0.16144769031E+02  0.14996314467E+03 -0.38074984606E+03  0.44457737639E+03  0.17300000000E+03 0. -1.
         -6    1    1    2    0  503  0.16144769031E+02 -0.14996314467E+03 -0.78652278844E+03  0.81932697689E+03  0.17300000000E+03 0. -1.
<mgrwt>
<rscale>  2 0.22951819E+03</rscale>
<asrwt>0</asrwt>
<pdfrwt beam="1">  1       21 0.74332093E-02 0.22951819E+03</pdfrwt>
<pdfrwt beam="2">  1       21 0.18701361E+00 0.22951819E+03</pdfrwt>
<totfact> 0.21697126E+04</totfact>
</mgrwt>
</event>
<event>
 4    1  0.4199481E+000  0.3709333E+03  0.7546771E-02  0.1054337E+00
         21   -1    0    0  501  502  0.00000000000E+00  0.00000000000E+00  0.68692635190E+03  0.68692635190E+03  0.00000000000E+00 0.  1.
         21   -1    0    0  502  503 -0.00000000000E+00 -0.00000000000E+00 -0.26010433953E+03  0.26010433953E+03  0.00000000000E+00 0. -1.
          6    1    1    2  501    0 -0.11662477822E+03  0.30669393434E+03  0.44046323158E+03  0.57584665201E+03  0.17300000000E+03 0.  1.
         -6    1    1    2    0  503  0.11662477822E+03 -0.30669393434E+03 -0.13641219218E+02  0.37118403942E+03  0.17300000000E+03 0. -1.
<mgrwt>
<rscale>  2 0.37093329E+03</rscale>
<asrwt>0</asrwt>
<pdfrwt beam="1">  1       21 0.10568098E+00 0.37093329E+03</pdfrwt>
<pdfrwt beam="2">  1       21 0.40016053E-01 0.37093329E+03</pdfrwt>
<totfact> 0.38960635E+03</totfact>
</mgrwt>
</event>
<event>
 4    1  0.4199481E+000  0.2175365E+03  0.7546771E-02  0.1135733E+00
         21   -1    0    0  503  502  0.00000000000E+00  0.00000000000E+00  0.56094651701E+03  0.56094651701E+03  0.00000000000E+00 0.  1.
         21   -1    0    0  501  503 -0.00000000000E+00 -0.00000000000E+00 -0.11985561340E+03  0.11985561340E+03  0.00000000000E+00 0.  1.
          6    1    1    2  501    0 -0.12797628757E+03 -0.31862280228E+02  0.35302551337E+02  0.22038240677E+03  0.17300000000E+03 0.  1.
         -6    1    1    2    0  502  0.12797628757E+03  0.31862280228E+02  0.40578835227E+03  0.46041972365E+03  0.17300000000E+03 0.  1.
<mgrwt>
<rscale>  2 0.21753651E+03</rscale>
<asrwt>0</asrwt>
<pdfrwt beam="1">  1       21 0.86299463E-01 0.21753651E+03</pdfrwt>
<pdfrwt beam="2">  1       21 0.18439325E-01 0.21753651E+03</pdfrwt>
<totfact> 0.30653904E+04</totfact>
</mgrwt>
</event>
<event>
 4    1  0.4199481E+000  0.1926897E+03  0.7546771E-02  0.1156057E+00
         21   -1    0    0  501  502  0.00000000000E+00  0.00000000000E+00  0.49343369000E+02  0.49343369000E+02  0.00000000000E+00 0.  1.
         21   -1    0    0  502  503 -0.00000000000E+00 -0.00000000000E+00 -0.16671499025E+04  0.16671499025E+04  0.00000000000E+00 0. -1.
          6    1    1    2  501    0  0.64558635439E+02 -0.55068325405E+02 -0.17319234216E+03  0.25908478392E+03  0.17300000000E+03 0.  1.
         -6    1    1    2    0  503 -0.64558635439E+02  0.55068325405E+02 -0.14446141913E+04  0.14574084876E+04  0.17300000000E+03 0. -1.
<mgrwt>
<rscale>  2 0.19268975E+03</rscale>
<asrwt>0</asrwt>
<pdfrwt beam="1">  1       21 0.75912888E-02 0.19268975E+03</pdfrwt>
<pdfrwt beam="2">  1       21 0.25648456E+00 0.19268975E+03</pdfrwt>
<totfact> 0.80077976E+03</totfact>
</mgrwt>
</event>
<event>
 4    1  0.4199481E+000  0.1898288E+03  0.7546771E-02  0.1158616E+00
         21   -1    0    0  501  502  0.00000000000E+00  0.00000000000E+00  0.18513741322E+03  0.18513741322E+03  0.00000000000E+00 0. -1.
         21   -1    0    0  502  503 -0.00000000000E+00 -0.00000000000E+00 -0.38004763222E+03  0.38004763222E+03  0.00000000000E+00 0.  1.
          6    1    1    2  501    0  0.71442324414E+02  0.31653593217E+02  0.99926487889E+02  0.21452332895E+03  0.17300000000E+03 0. -1.
         -6    1    1    2    0  503 -0.71442324414E+02 -0.31653593217E+02 -0.29483670689E+03  0.35066171649E+03  0.17300000000E+03 0.  1.
<mgrwt>
<rscale>  2 0.18982875E+03</rscale>
<asrwt>0</asrwt>
<pdfrwt beam="1">  1       21 0.28482679E-01 0.18982875E+03</pdfrwt>
<pdfrwt beam="2">  1       21 0.58468866E-01 0.18982875E+03</pdfrwt>
<totfact> 0.32330918E+04</totfact>
</mgrwt>
</event>
<event>
 4    1  0.4199481E+000  0.1960161E+03  0.7546771E-02  0.1153144E+00
         21   -1    0    0  501  502  0.00000000000E+00  0.00000000000E+00  0.55882203650E+02  0.55882203650E+02  0.00000000000E+00 0. -1.
         21   -1    0    0  502  503 -0.00000000000E+00 -0.00000000000E+00 -0.69293794685E+03  0.69293794685E+03  0.00000000000E+00 0.  1.
          6    1    1    2  501    0 -0.92088365715E+02 -0.36127611967E+01 -0.35151495080E+03  0.40247370073E+03  0.17300000000E+03 0.  1.
         -6    1    1    2    0  503  0.92088365715E+02  0.36127611967E+01 -0.28554079240E+03  0.34634644977E+03  0.17300000000E+03 0.  1.
<mgrwt>
<rscale>  2 0.19601612E+03</rscale>
<asrwt>0</asrwt>
<pdfrwt beam="1">  1       21 0.85972623E-02 0.19601612E+03</pdfrwt>
<pdfrwt beam="2">  1       21 0.10660584E+00 0.19601612E+03</pdfrwt>
<totfact> 0.74437883E+04</totfact>
</mgrwt>
</event>
<event>
 4    1  0.4199481E+000  0.2857645E+03  0.7546771E-02  0.1092581E+00
         21   -1    0    0  501  502  0.00000000000E+00  0.00000000000E+00  0.19215364501E+03  0.19215364501E+03  0.00000000000E+00 0. -1.
         21   -1    0    0  502  503 -0.00000000000E+00 -0.00000000000E+00 -0.53142709892E+03  0.53142709892E+03  0.00000000000E+00 0.  1.
          6    1    1    2  501    0  0.19678849770E+03  0.11404669137E+03 -0.77157614649E+01  0.28586866497E+03  0.17300000000E+03 0. -1.
         -6    1    1    2    0  503 -0.19678849770E+03 -0.11404669137E+03 -0.33155769245E+03  0.43771207896E+03  0.17300000000E+03 0.  1.
<mgrwt>
<rscale>  2 0.28576452E+03</rscale>
<asrwt>0</asrwt>
<pdfrwt beam="1">  1       21 0.29562100E-01 0.28576452E+03</pdfrwt>
<pdfrwt beam="2">  1       21 0.81758014E-01 0.28576452E+03</pdfrwt>
<totfact> 0.13637270E+04</totfact>
</mgrwt>
</event>
<event>
 4    1  0.4199481E+000  0.2056972E+03  0.7546771E-02  0.1145019E+00
         21   -1    0    0  503  502  0.00000000000E+00  0.00000000000E+00  0.23591583273E+02  0.23591583273E+02  0.00000000000E+00 0.  1.
         21   -1    0    0  501  503 -0.00000000000E+00 -0.00000000000E+00 -0.17942260681E+04  0.17942260681E+04  0.00000000000E+00 0. -1.
          6    1    1    2  501    0  0.10067683490E+03 -0.47397569130E+02 -0.90368106778E+03  0.92679600070E+03  0.17300000000E+03 0. -1.
         -6    1    1    2    0  502 -0.10067683490E+03  0.47397569130E+02 -0.86695341703E+03  0.89102165066E+03  0.17300000000E+03 0. -1.
<mgrwt>
<rscale>  2 0.20569724E+03</rscale>
<asrwt>0</asrwt>
<pdfrwt beam="1">  1       21 0.36294736E-02 0.20569724E+03</pdfrwt>
<pdfrwt beam="2">  1       21 0.27603483E+00 0.20569724E+03</pdfrwt>
<totfact> 0.21371173E+04</totfact>
</mgrwt>
</event>
<event>
 4    1  0.4199481E+000  0.1824813E+03  0.7546771E-02  0.1165423E+00
         21   -1    0    0  503  502  0.00000000000E+00  0.00000000000E+00  0.52108026241E+03  0.52108026241E+03  0.00000000000E+00 0.  1.
         21   -1    0    0  501  503 -0.00000000000E+00 -0.00000000000E+00 -0.10957803882E+03  0.10957803882E+03  0.00000000000E+00 0.  1.
          6    1    1    2  501    0  0.10393241358E+00 -0.58055171267E+02  0.21714799016E+01  0.18249418905E+03  0.17300000000E+03 0.  1.
         -6    1    1    2    0  502 -0.10393241358E+00  0.58055171267E+02  0.40933074369E+03  0.44816411218E+03  0.17300000000E+03 0.  1.
<mgrwt>
<rscale>  2 0.18248127E+03</rscale>
<asrwt>0</asrwt>
<pdfrwt beam="1">  1       21 0.80166193E-01 0.18248127E+03</pdfrwt>
<pdfrwt beam="2">  1       21 0.16858160E-01 0.18248127E+03</pdfrwt>
<totfact> 0.43590444E+04</totfact>
</mgrwt>
</event>
<event>
 4    1  0.4199481E+000  0.2667181E+03  0.7546771E-02  0.1103173E+00
         21   -1    0    0  501  502  0.00000000000E+00  0.00000000000E+00  0.18874854347E+03  0.18874854347E+03  0.00000000000E+00 0.  1.
         21   -1    0    0  502  503 -0.00000000000E+00 -0.00000000000E+00 -0.96298768889E+03  0.96298768889E+03  0.00000000000E+00 0. -1.
          6    1    1    2  501    0  0.20272059918E+03 -0.10671454777E+02  0.62138143881E+02  0.27386067663E+03  0.17300000000E+03 0.  1.
         -6    1    1    2    0  503 -0.20272059918E+03  0.10671454777E+02 -0.83637728930E+03  0.87787555572E+03  0.17300000000E+03 0. -1.
<mgrwt>
<rscale>  2 0.26671806E+03</rscale>
<asrwt>0</asrwt>
<pdfrwt beam="1">  1       21 0.29038238E-01 0.26671806E+03</pdfrwt>
<pdfrwt beam="2">  1       21 0.14815195E+00 0.26671806E+03</pdfrwt>
<totfact> 0.33114072E+03</totfact>
</mgrwt>
</event>
<event>
 4    1  0.4199481E+000  0.1903942E+03  0.7546771E-02  0.1158106E+00
         21   -1    0    0  503  502  0.00000000000E+00  0.00000000000E+00  0.59984698882E+03  0.59984698882E+03  0.00000000000E+00 0. -1.
         21   -1    0    0  501  503 -0.00000000000E+00 -0.00000000000E+00 -0.93035214491E+02  0.93035214491E+02  0.00000000000E+00 0.  1.
          6    1    1    2  501    0 -0.79157503756E+02 -0.74193693031E+01  0.48319944567E+02  0.19643007531E+03  0.17300000000E+03 0.  1.
         -6    1    1    2    0  502  0.79157503756E+02  0.74193693031E+01  0.45849182976E+03  0.49645212800E+03  0.17300000000E+03 0. -1.
<mgrwt>
<rscale>  2 0.19039422E+03</rscale>
<asrwt>0</asrwt>
<pdfrwt beam="1">  1       21 0.92284150E-01 0.19039422E+03</pdfrwt>
<pdfrwt beam="2">  1       21 0.14313110E-01 0.19039422E+03</pdfrwt>
<totfact> 0.42391949E+04</totfact>
</mgrwt>
</event>
<event>
 4    1  0.4199481E+000  0.2128238E+03  0.7546771E-02  0.1139349E+00
         21   -1    0    0  501  502  0.00000000000E+00  0.00000000000E+00  0.43964015805E+03  0.43964015805E+03  0.00000000000E+00 0.  1.
         21   -1    0    0  502  503 -0.00000000000E+00 -0.00000000000E+00 -0.11897695192E+03  0.11897695192E+03  0.00000000000E+00 0.  1.
          6    1    1    2  501    0  0.10242007062E+03  0.69822003783E+02  0.26260389936E+03  0.33801596269E+03  0.17300000000E+03 0.  1.
         -6    1    1    2    0  503 -0.10242007062E+03 -0.69822003783E+02  0.58059306766E+02  0.22060114728E+03  0.17300000000E+03 0.  1.
<mgrwt>
<rscale>  2 0.21282383E+03</rscale>
<asrwt>0</asrwt>
<pdfrwt beam="1">  1       21 0.67636947E-01 0.21282383E+03</pdfrwt>
<pdfrwt beam="2">  1       21 0.18304147E-01 0.21282383E+03</pdfrwt>
<totfact> 0.53866351E+04</totfact>
</mgrwt>
</event>
<event>
 4    1  0.4199481E+000  0.1992278E+03  0.7546771E-02  0.1150392E+00
         21   -1    0    0  501  502  0.00000000000E+00  0.00000000000E+00  0.15542046125E+04  0.15542046125E+04  0.00000000000E+00 0. -1.
         21   -1    0    0  502  503 -0.00000000000E+00 -0.00000000000E+00 -0.25843892854E+02  0.25843892854E+02  0.00000000000E+00 0. -1.
          6    1    1    2  501    0 -0.85445514800E+02 -0.49616418231E+02  0.85008994150E+03  0.87312349275E+03  0.17300000000E+03 0. -1.
         -6    1    1    2    0  503  0.85445514800E+02  0.49616418231E+02  0.67827077818E+03  0.70692501264E+03  0.17300000000E+03 0. -1.
<mgrwt>
<rscale>  2 0.19922782E+03</rscale>
<asrwt>0</asrwt>
<pdfrwt beam="1">  1       21 0.23910833E+00 0.19922782E+03</pdfrwt>
<pdfrwt beam="2">  1       21 0.39759847E-02 0.19922782E+03</pdfrwt>
<totfact> 0.30368221E+04</totfact>
</mgrwt>
</event>
<event>
 4    1  0.4199481E+000  0.1856669E+03  0.7546771E-02  0.1162429E+00
         21   -1    0    0  503  502  0.00000000000E+00  0.00000000000E+00  0.48312198160E+02  0.48312198160E+02  0.00000000000E+00 0. -1.
         21   -1    0    0  501  503 -0.00000000000E+00 -0.00000000000E+00 -0.11545761340E+04  0.11545761340E+04  0.00000000000E+00 0. -1.
          6    1    1    2  501    0 -0.37333098001E+02  0.56119954822E+02 -0.92486056212E+03  0.94331292205E+03  0.17300000000E+03 0. -1.
         -6    1    1    2    0  502  0.37333098001E+02 -0.56119954822E+02 -0.18140337370E+03  0.25957541009E+03  0.17300000000E+03 0. -1.
<mgrwt>
<rscale>  2 0.18566693E+03</rscale>
<asrwt>0</asrwt>
<pdfrwt beam="1">  1       21 0.74326464E-02 0.18566693E+03</pdfrwt>
<pdfrwt beam="2">  1       21 0.17762709E+00 0.18566693E+03</pdfrwt>
<totfact> 0.25879418E+04</totfact>
</mgrwt>
</event>
<event>
 4    1  0.4199481E+000  0.2253731E+03  0.7546771E-02  0.1129939E+00
         21   -1    0    0  501  502  0.00000000000E+00  0.00000000000E+00  0.16302770074E+04  0.16302770074E+04  0.00000000000E+00 0.  1.
         21   -1    0    0  502  503 -0.00000000000E+00 -0.00000000000E+00 -0.58184583049E+02  0.58184583049E+02  0.00000000000E+00 0.  1.
          6    1    1    2  501    0  0.59541323473E+02 -0.13160121820E+03  0.13614439885E+04  0.13799720228E+04  0.17300000000E+03 0.  1.
         -6    1    1    2    0  503 -0.59541323473E+02  0.13160121820E+03  0.21064843584E+03  0.30848956766E+03  0.17300000000E+03 0.  1.
<mgrwt>
<rscale>  2 0.22537313E+03</rscale>
<asrwt>0</asrwt>
<pdfrwt beam="1">  1       21 0.25081181E+00 0.22537313E+03</pdfrwt>
<pdfrwt beam="2">  1       21 0.89514756E-02 0.22537313E+03</pdfrwt>
<totfact> 0.62861503E+03</totfact>
</mgrwt>
</event>
<event>
 4    1  0.4199481E+000  0.2494220E+03  0.7546771E-02  0.1113671E+00
         21   -1    0    0  501  502  0.00000000000E+00  0.00000000000E+00  0.24655755979E+03  0.24655755979E+03  0.00000000000E+00 0.  1.
         21   -1    0    0  502  503 -0.00000000000E+00 -0.00000000000E+00 -0.26153825478E+03  0.26153825478E+03  0.00000000000E+00 0. -1.
          6    1    1    2  501    0 -0.13440375099E+03 -0.11923905880E+03  0.40205459890E+02  0.25264164429E+03  0.17300000000E+03 0.  1.
         -6    1    1    2    0  503  0.13440375099E+03  0.11923905880E+03 -0.55186154887E+02  0.25545417028E+03  0.17300000000E+03 0. -1.
<mgrwt>
<rscale>  2 0.24942197E+03</rscale>
<asrwt>0</asrwt>
<pdfrwt beam="1">  1       21 0.37931932E-01 0.24942197E+03</pdfrwt>
<pdfrwt beam="2">  1       21 0.40236654E-01 0.24942197E+03</pdfrwt>
<totfact> 0.38840742E+04</totfact>
</mgrwt>
</event>
<event>
 4    1  0.4199481E+000  0.1824316E+03  0.7546771E-02  0.1165470E+00
         21   -1    0    0  501  502  0.00000000000E+00  0.00000000000E+00  0.51483039347E+03  0.51483039347E+03  0.00000000000E+00 0.  1.
         21   -1    0    0  502  503 -0.00000000000E+00 -0.00000000000E+00 -0.69023922972E+02  0.69023922972E+02  0.00000000000E+00 0.  1.
          6    1    1    2  501    0  0.57112500553E+02  0.95096704523E+01  0.29643118902E+03  0.34806999494E+03  0.17300000000E+03 0.  1.
         -6    1    1    2    0  503 -0.57112500553E+02 -0.95096704523E+01  0.14937528148E+03  0.23578432151E+03  0.17300000000E+03 0.  1.
<mgrwt>
<rscale>  2 0.18243155E+03</rscale>
<asrwt>0</asrwt>
<pdfrwt beam="1">  1       21 0.79204673E-01 0.18243155E+03</pdfrwt>
<pdfrwt beam="2">  1       21 0.10619065E-01 0.18243155E+03</pdfrwt>
<totfact> 0.10304378E+05</totfact>
</mgrwt>
</event>
<event>
 4    1  0.4199481E+000  0.2124653E+03  0.7546771E-02  0.1139628E+00
         21   -1    0    0  501  502  0.00000000000E+00  0.00000000000E+00  0.43589732437E+03  0.43589732437E+03  0.00000000000E+00 0. -1.
         21   -1    0    0  502  503 -0.00000000000E+00 -0.00000000000E+00 -0.14086870327E+03  0.14086870327E+03  0.00000000000E+00 0.  1.
          6    1    1    2  501    0 -0.58166607126E+02 -0.10876189732E+03  0.29592589254E+03  0.36429883114E+03  0.17300000000E+03 0. -1.
         -6    1    1    2    0  503  0.58166607126E+02  0.10876189732E+03 -0.89727143608E+00  0.21246719650E+03  0.17300000000E+03 0.  1.
<mgrwt>
<rscale>  2 0.21246530E+03</rscale>
<asrwt>0</asrwt>
<pdfrwt beam="1">  1       21 0.67061126E-01 0.21246530E+03</pdfrwt>
<pdfrwt beam="2">  1       21 0.21672108E-01 0.21246530E+03</pdfrwt>
<totfact> 0.40019149E+04</totfact>
</mgrwt>
</event>
<event>
 4    1  0.4199481E+000  0.1962416E+03  0.7546771E-02  0.1152949E+00
         21   -1    0    0  501  502  0.00000000000E+00  0.00000000000E+00  0.35135908411E+03  0.35135908411E+03  0.00000000000E+00 0. -1.
         21   -1    0    0  502  503 -0.00000000000E+00 -0.00000000000E+00 -0.13685984419E+03  0.13685984419E+03  0.00000000000E+00 0. -1.
          6    1    1    2  501    0 -0.89372642364E+02  0.24377842422E+02  0.21618466880E+03  0.29197013448E+03  0.17300000000E+03 0. -1.
         -6    1    1    2    0  503  0.89372642364E+02 -0.24377842422E+02 -0.16854288815E+01  0.19624879382E+03  0.17300000000E+03 0. -1.
<mgrwt>
<rscale>  2 0.19624156E+03</rscale>
<asrwt>0</asrwt>
<pdfrwt beam="1">  1       21 0.54055244E-01 0.19624156E+03</pdfrwt>
<pdfrwt beam="2">  1       21 0.21055361E-01 0.19624156E+03</pdfrwt>
<totfact> 0.67720945E+04</totfact>
</mgrwt>
</event>
<event>
 4    1  0.4199481E+000  0.2092776E+03  0.7546771E-02  0.1142139E+00
         21   -1    0    0  501  502  0.00000000000E+00  0.00000000000E+00  0.31690012928E+03  0.31690012928E+03  0.00000000000E+00 0.  1.
         21   -1    0    0  502  503 -0.00000000000E+00 -0.00000000000E+00 -0.18547855677E+03  0.18547855677E+03  0.00000000000E+00 0.  1.
          6    1    1    2  501    0  0.81672720918E+02 -0.84839138588E+02  0.19252399870E+03  0.28436350478E+03  0.17300000000E+03 0.  1.
         -6    1    1    2    0  503 -0.81672720918E+02  0.84839138588E+02 -0.61102426187E+02  0.21801518127E+03  0.17300000000E+03 0.  1.
<mgrwt>
<rscale>  2 0.20927760E+03</rscale>
<asrwt>0</asrwt>
<pdfrwt beam="1">  1       21 0.48753866E-01 0.20927760E+03</pdfrwt>
<pdfrwt beam="2">  1       21 0.28535162E-01 0.20927760E+03</pdfrwt>
<totfact> 0.46782806E+04</totfact>
</mgrwt>
</event>
<event>
 4    1  0.4199481E+000  0.1881919E+03  0.7546771E-02  0.1160102E+00
         21   -1    0    0  501  502  0.00000000000E+00  0.00000000000E+00  0.18991236302E+03  0.18991236302E+03  0.00000000000E+00 0.  1.
         21   -1    0    0  502  503 -0.00000000000E+00 -0.00000000000E+00 -0.19172436844E+03  0.19172436844E+03  0.00000000000E+00 0. -1.
          6    1    1    2  501    0  0.68023296186E+02  0.29326418446E+02  0.30631952816E+02  0.19066862400E+03  0.17300000000E+03 0.  1.
         -6    1    1    2    0  503 -0.68023296186E+02 -0.29326418446E+02 -0.32443958240E+02  0.19096810747E+03  0.17300000000E+03 0. -1.
<mgrwt>
<rscale>  2 0.18819194E+03</rscale>
<asrwt>0</asrwt>
<pdfrwt beam="1">  1       21 0.29217287E-01 0.18819194E+03</pdfrwt>
<pdfrwt beam="2">  1       21 0.29496056E-01 0.18819194E+03</pdfrwt>
<totfact> 0.12375083E+05</totfact>
</mgrwt>
</event>
<event>
 4    1  0.4199481E+000  0.1968163E+03  0.7546771E-02  0.1152453E+00
         21   -1    0    0  503  502  0.00000000000E+00  0.00000000000E+00  0.11145556716E+04  0.11145556716E+04  0.00000000000E+00 0. -1.
         21   -1    0    0  501  503 -0.00000000000E+00 -0.00000000000E+00 -0.36588856194E+02  0.36588856194E+02  0.00000000000E+00 0. -1.
          6    1    1    2  501    0 -0.67818339221E+02  0.64871561420E+02  0.41013471879E+03  0.45491442511E+03  0.17300000000E+03 0. -1.
         -6    1    1    2    0  502  0.67818339221E+02 -0.64871561420E+02  0.66783209666E+03  0.69623010273E+03  0.17300000000E+03 0. -1.
<mgrwt>
<rscale>  2 0.19681628E+03</rscale>
<asrwt>0</asrwt>
<pdfrwt beam="1">  1       21 0.17147008E+00 0.19681628E+03</pdfrwt>
<pdfrwt beam="2">  1       21 0.56290556E-02 0.19681628E+03</pdfrwt>
<totfact> 0.45704438E+04</totfact>
</mgrwt>
</event>
<event>
 4    1  0.4199481E+000  0.2225136E+03  0.7546771E-02  0.1132023E+00
         21   -1    0    0  503  502  0.00000000000E+00  0.00000000000E+00  0.12530058742E+03  0.12530058742E+03  0.00000000000E+00 0.  1.
         21   -1    0    0  501  503 -0.00000000000E+00 -0.00000000000E+00 -0.42096349634E+03  0.42096349634E+03  0.00000000000E+00 0.  1.
          6    1    1    2  501    0  0.10318734732E+03  0.94528682537E+02 -0.21546919081E+03  0.30974065386E+03  0.17300000000E+03 0.  1.
         -6    1    1    2    0  502 -0.10318734732E+03 -0.94528682537E+02 -0.80193718109E+02  0.23652342990E+03  0.17300000000E+03 0.  1.
<mgrwt>
<rscale>  2 0.22251360E+03</rscale>
<asrwt>0</asrwt>
<pdfrwt beam="1">  1       21 0.19277014E-01 0.22251360E+03</pdfrwt>
<pdfrwt beam="2">  1       21 0.64763614E-01 0.22251360E+03</pdfrwt>
<totfact> 0.53559493E+04</totfact>
</mgrwt>
</event>
<event>
 4    1  0.4199481E+000  0.2349096E+03  0.7546771E-02  0.1123231E+00
         21   -1    0    0  501  502  0.00000000000E+00  0.00000000000E+00  0.43572801074E+03  0.43572801074E+03  0.00000000000E+00 0. -1.
         21   -1    0    0  502  503 -0.00000000000E+00 -0.00000000000E+00 -0.29614807551E+03  0.29614807551E+03  0.00000000000E+00 0. -1.
          6    1    1    2  501    0  0.10289694512E+03  0.12110209066E+03  0.34663880715E+03  0.41873734046E+03  0.17300000000E+03 0. -1.
         -6    1    1    2    0  503 -0.10289694512E+03 -0.12110209066E+03 -0.20705887191E+03  0.31313874579E+03  0.17300000000E+03 0. -1.
<mgrwt>
<rscale>  2 0.23490955E+03</rscale>
<asrwt>0</asrwt>
<pdfrwt beam="1">  1       21 0.67035079E-01 0.23490955E+03</pdfrwt>
<pdfrwt beam="2">  1       21 0.45561242E-01 0.23490955E+03</pdfrwt>
<totfact> 0.91553994E+03</totfact>
</mgrwt>
</event>
<event>
 4    1  0.4199481E+000  0.3460957E+03  0.7546771E-02  0.1064229E+00
         21   -1    0    0  503  502  0.00000000000E+00  0.00000000000E+00  0.50586834494E+03  0.50586834494E+03  0.00000000000E+00 0. -1.
         21   -1    0    0  501  503 -0.00000000000E+00 -0.00000000000E+00 -0.26272770446E+03  0.26272770446E+03  0.00000000000E+00 0.  1.
          6    1    1    2  501    0 -0.26633992724E+03 -0.13753636613E+03  0.81118857941E+00  0.34609661494E+03  0.17300000000E+03 0.  1.
         -6    1    1    2    0  502  0.26633992724E+03  0.13753636613E+03  0.24232945190E+03  0.42249943445E+03  0.17300000000E+03 0. -1.
<mgrwt>
<rscale>  2 0.34609566E+03</rscale>
<asrwt>0</asrwt>
<pdfrwt beam="1">  1       21 0.77825899E-01 0.34609566E+03</pdfrwt>
<pdfrwt beam="2">  1       21 0.40419647E-01 0.34609566E+03</pdfrwt>
<totfact> 0.79428224E+03</totfact>
</mgrwt>
</event>
<event>
 4    1  0.4199481E+000  0.1762767E+03  0.7546771E-02  0.1171456E+00
         21   -1    0    0  501  502  0.00000000000E+00  0.00000000000E+00  0.51815995882E+02  0.51815995882E+02  0.00000000000E+00 0. -1.
         21   -1    0    0  502  503 -0.00000000000E+00 -0.00000000000E+00 -0.78199757577E+03  0.78199757577E+03  0.00000000000E+00 0. -1.
          6    1    1    2  501    0 -0.31571820619E+02 -0.12152347516E+02 -0.16379237904E+03  0.24062710329E+03  0.17300000000E+03 0. -1.
         -6    1    1    2    0  503  0.31571820619E+02  0.12152347516E+02 -0.56638920085E+03  0.59318646836E+03  0.17300000000E+03 0. -1.
<mgrwt>
<rscale>  2 0.17627666E+03</rscale>
<asrwt>0</asrwt>
<pdfrwt beam="1">  1       21 0.79716917E-02 0.17627666E+03</pdfrwt>
<pdfrwt beam="2">  1       21 0.12030732E+00 0.17627666E+03</pdfrwt>
<totfact> 0.63875484E+04</totfact>
</mgrwt>
</event>
<event>
 4    1  0.4199481E+000  0.1780693E+03  0.7546771E-02  0.1169685E+00
         21   -1    0    0  503  502  0.00000000000E+00  0.00000000000E+00  0.90657269455E+02  0.90657269455E+02  0.00000000000E+00 0. -1.
         21   -1    0    0  501  503 -0.00000000000E+00 -0.00000000000E+00 -0.41247176271E+03  0.41247176271E+03  0.00000000000E+00 0. -1.
          6    1    1    2  501    0  0.42044919479E+02 -0.34471643102E+01 -0.62819991699E+02  0.18882534139E+03  0.17300000000E+03 0. -1.
         -6    1    1    2    0  502 -0.42044919479E+02  0.34471643102E+01 -0.25899450156E+03  0.31430369077E+03  0.17300000000E+03 0. -1.
<mgrwt>
<rscale>  2 0.17806925E+03</rscale>
<asrwt>0</asrwt>
<pdfrwt beam="1">  1       21 0.13947272E-01 0.17806925E+03</pdfrwt>
<pdfrwt beam="2">  1       21 0.63457194E-01 0.17806925E+03</pdfrwt>
<totfact> 0.10337305E+05</totfact>
</mgrwt>
</event>
<event>
 4    1  0.4199481E+000  0.2425205E+03  0.7546771E-02  0.1118125E+00
         21   -1    0    0  501  502  0.00000000000E+00  0.00000000000E+00  0.46906135699E+03  0.46906135699E+03  0.00000000000E+00 0. -1.
         21   -1    0    0  502  503 -0.00000000000E+00 -0.00000000000E+00 -0.14020443754E+03  0.14020443754E+03  0.00000000000E+00 0.  1.
          6    1    1    2  501    0 -0.15296036068E+03 -0.74096665651E+02  0.26344784978E+03  0.35807954054E+03  0.17300000000E+03 0. -1.
         -6    1    1    2    0  503  0.15296036068E+03  0.74096665651E+02  0.65409069667E+02  0.25118625399E+03  0.17300000000E+03 0.  1.
<mgrwt>
<rscale>  2 0.24252049E+03</rscale>
<asrwt>0</asrwt>
<pdfrwt beam="1">  1       21 0.72163285E-01 0.24252049E+03</pdfrwt>
<pdfrwt beam="2">  1       21 0.21569914E-01 0.24252049E+03</pdfrwt>
<totfact> 0.33849201E+04</totfact>
</mgrwt>
</event>
<event>
 4    1  0.4199481E+000  0.1939170E+03  0.7546771E-02  0.1154975E+00
         21   -1    0    0  501  502  0.00000000000E+00  0.00000000000E+00  0.59473221910E+02  0.59473221910E+02  0.00000000000E+00 0. -1.
         21   -1    0    0  502  503 -0.00000000000E+00 -0.00000000000E+00 -0.77204508808E+03  0.77204508808E+03  0.00000000000E+00 0.  1.
          6    1    1    2  501    0  0.61293349100E+02 -0.62593474197E+02 -0.17939013470E+03  0.26416782181E+03  0.17300000000E+03 0. -1.
         -6    1    1    2    0  503 -0.61293349100E+02  0.62593474197E+02 -0.53318173147E+03  0.56735048817E+03  0.17300000000E+03 0.  1.
<mgrwt>
<rscale>  2 0.19391704E+03</rscale>
<asrwt>0</asrwt>
<pdfrwt beam="1">  1       21 0.91497268E-02 0.19391704E+03</pdfrwt>
<pdfrwt beam="2">  1       21 0.11877616E+00 0.19391704E+03</pdfrwt>
<totfact> 0.51370848E+04</totfact>
</mgrwt>
</event>
<event>
 4    1  0.4199481E+000  0.1828212E+03  0.7546771E-02  0.1165100E+00
         21   -1    0    0  503  502  0.00000000000E+00  0.00000000000E+00  0.14889491861E+02  0.14889491861E+02  0.00000000000E+00 0.  1.
         21   -1    0    0  501  503 -0.00000000000E+00 -0.00000000000E+00 -0.37601755822E+04  0.37601755822E+04  0.00000000000E+00 0.  1.
          6    1    1    2  501    0  0.59190894106E+01  0.58818062478E+02 -0.30709103636E+04  0.30763475196E+04  0.17300000000E+03 0.  1.
         -6    1    1    2    0  502 -0.59190894106E+01 -0.58818062478E+02 -0.67437572670E+03  0.69871755442E+03  0.17300000000E+03 0.  1.
<mgrwt>
<rscale>  2 0.18282122E+03</rscale>
<asrwt>0</asrwt>
<pdfrwt beam="1">  1       21 0.22906909E-02 0.18282122E+03</pdfrwt>
<pdfrwt beam="2">  1       21 0.57848859E+00 0.18282122E+03</pdfrwt>
<totfact> 0.50178153E+02</totfact>
</mgrwt>
</event>
<event>
 4    1  0.4199481E+000  0.1934308E+03  0.7546771E-02  0.1155403E+00
         21   -1    0    0  503  502  0.00000000000E+00  0.00000000000E+00  0.20246256270E+03  0.20246256270E+03  0.00000000000E+00 0. -1.
         21   -1    0    0  501  503 -0.00000000000E+00 -0.00000000000E+00 -0.19977415085E+03  0.19977415085E+03  0.00000000000E+00 0.  1.
          6    1    1    2  501    0  0.80736084454E+02  0.31115248435E+02 -0.53714380535E+02  0.20075036412E+03  0.17300000000E+03 0.  1.
         -6    1    1    2    0  502 -0.80736084454E+02 -0.31115248435E+02  0.56402792383E+02  0.20148634943E+03  0.17300000000E+03 0.  1.
<mgrwt>
<rscale>  2 0.19343080E+03</rscale>
<asrwt>0</asrwt>
<pdfrwt beam="1">  1       21 0.31148087E-01 0.19343080E+03</pdfrwt>
<pdfrwt beam="2">  1       21 0.30734485E-01 0.19343080E+03</pdfrwt>
<totfact> 0.10063379E+05</totfact>
</mgrwt>
</event>
<event>
 4    1  0.4199481E+000  0.2900501E+03  0.7546771E-02  0.1090323E+00
         21   -1    0    0  503  502  0.00000000000E+00  0.00000000000E+00  0.10417130675E+04  0.10417130675E+04  0.00000000000E+00 0. -1.
         21   -1    0    0  501  503 -0.00000000000E+00 -0.00000000000E+00 -0.10753026995E+03  0.10753026995E+03  0.00000000000E+00 0. -1.
          6    1    1    2  501    0 -0.14589239125E+03 -0.18142627202E+03  0.18038300989E+03  0.34156567781E+03  0.17300000000E+03 0. -1.
         -6    1    1    2    0  502  0.14589239125E+03  0.18142627202E+03  0.75379978767E+03  0.80767765965E+03  0.17300000000E+03 0. -1.
<mgrwt>
<rscale>  2 0.29005014E+03</rscale>
<asrwt>0</asrwt>
<pdfrwt beam="1">  1       21 0.16026354E+00 0.29005014E+03</pdfrwt>
<pdfrwt beam="2">  1       21 0.16543119E-01 0.29005014E+03</pdfrwt>
<totfact> 0.77020789E+03</totfact>
</mgrwt>
</event>
<event>
 4    1  0.4199481E+000  0.1925743E+03  0.7546771E-02  0.1156160E+00
         21   -1    0    0  503  502  0.00000000000E+00  0.00000000000E+00  0.20092850940E+02  0.20092850940E+02  0.00000000000E+00 0. -1.
         21   -1    0    0  501  503 -0.00000000000E+00 -0.00000000000E+00 -0.21245411336E+04  0.21245411336E+04  0.00000000000E+00 0. -1.
          6    1    1    2  501    0  0.47948414390E+01 -0.84456372141E+02 -0.66372627864E+03  0.69109872107E+03  0.17300000000E+03 0. -1.
         -6    1    1    2    0  502 -0.47948414390E+01  0.84456372141E+02 -0.14407220040E+04  0.14535352634E+04  0.17300000000E+03 0. -1.
<mgrwt>
<rscale>  2 0.19257432E+03</rscale>
<asrwt>0</asrwt>
<pdfrwt beam="1">  1       21 0.30912079E-02 0.19257432E+03</pdfrwt>
<pdfrwt beam="2">  1       21 0.32685248E+00 0.19257432E+03</pdfrwt>
<totfact> 0.14382357E+04</totfact>
</mgrwt>
</event>
<event>
 4    1  0.4199481E+000  0.2411937E+03  0.7546771E-02  0.1119000E+00
         21   -1    0    0  503  502  0.00000000000E+00  0.00000000000E+00  0.57088655098E+02  0.57088655098E+02  0.00000000000E+00 0. -1.
         21   -1    0    0  501  503 -0.00000000000E+00 -0.00000000000E+00 -0.21618378163E+04  0.21618378163E+04  0.00000000000E+00 0.  1.
          6    1    1    2  501    0  0.15094033179E+03  0.73908047245E+02 -0.18590339612E+04  0.18746150677E+04  0.17300000000E+03 0.  1.
         -6    1    1    2    0  502 -0.15094033179E+03 -0.73908047245E+02 -0.24571520007E+03  0.34431140375E+03  0.17300000000E+03 0. -1.
<mgrwt>
<rscale>  2 0.24119366E+03</rscale>
<asrwt>0</asrwt>
<pdfrwt beam="1">  1       21 0.87828710E-02 0.24119366E+03</pdfrwt>
<pdfrwt beam="2">  1       21 0.33259040E+00 0.24119366E+03</pdfrwt>
<totfact> 0.21276678E+03</totfact>
</mgrwt>
</event>
<event>
 4    1  0.4199481E+000  0.1960518E+03  0.7546771E-02  0.1153114E+00
         21   -1    0    0  501  502  0.00000000000E+00  0.00000000000E+00  0.57197798716E+03  0.57197798716E+03  0.00000000000E+00 0. -1.
         21   -1    0    0  502  503 -0.00000000000E+00 -0.00000000000E+00 -0.94811168253E+02  0.94811168253E+02  0.00000000000E+00 0. -1.
          6    1    1    2  501    0  0.89487437864E+02 -0.22345075107E+02  0.41850349765E+03  0.46214876551E+03  0.17300000000E+03 0. -1.
         -6    1    1    2    0  503 -0.89487437864E+02  0.22345075107E+02  0.58663321251E+02  0.20464038990E+03  0.17300000000E+03 0. -1.
<mgrwt>
<rscale>  2 0.19605179E+03</rscale>
<asrwt>0</asrwt>
<pdfrwt beam="1">  1       21 0.87996611E-01 0.19605179E+03</pdfrwt>
<pdfrwt beam="2">  1       21 0.14586334E-01 0.19605179E+03</pdfrwt>
<totfact> 0.45597980E+04</totfact>
</mgrwt>
</event>
<event>
 4    1  0.4199481E+000  0.1911651E+03  0.7546771E-02  0.1157415E+00
         21   -1    0    0  503  502  0.00000000000E+00  0.00000000000E+00  0.44314200310E+02  0.44314200310E+02  0.00000000000E+00 0.  1.
         21   -1    0    0  501  503 -0.00000000000E+00 -0.00000000000E+00 -0.21034841437E+04  0.21034841437E+04  0.00000000000E+00 0.  1.
          6    1    1    2  501    0 -0.77615003078E+02 -0.24310729282E+02 -0.18669204335E+04  0.18766821802E+04  0.17300000000E+03 0.  1.
         -6    1    1    2    0  502  0.77615003078E+02  0.24310729282E+02 -0.19224950993E+03  0.27111616390E+03  0.17300000000E+03 0.  1.
<mgrwt>
<rscale>  2 0.19116511E+03</rscale>
<asrwt>0</asrwt>
<pdfrwt beam="1">  1       21 0.68175708E-02 0.19116511E+03</pdfrwt>
<pdfrwt beam="2">  1       21 0.32361287E+00 0.19116511E+03</pdfrwt>
<totfact> 0.39560044E+03</totfact>
</mgrwt>
</event>
<event>
 4    1  0.4199481E+000  0.2180263E+03  0.7546771E-02  0.1135363E+00
         21   -1    0    0  501  502  0.00000000000E+00  0.00000000000E+00  0.90746141143E+03  0.90746141143E+03  0.00000000000E+00 0.  1.
         21   -1    0    0  502  503 -0.00000000000E+00 -0.00000000000E+00 -0.58918263362E+02  0.58918263362E+02  0.00000000000E+00 0.  1.
          6    1    1    2  501    0 -0.27866522061E+02 -0.12973020809E+03  0.58519799098E+03  0.62449352165E+03  0.17300000000E+03 0.  1.
         -6    1    1    2    0  503  0.27866522061E+02  0.12973020809E+03  0.26334515709E+03  0.34188615314E+03  0.17300000000E+03 0.  1.
<mgrwt>
<rscale>  2 0.21802631E+03</rscale>
<asrwt>0</asrwt>
<pdfrwt beam="1">  1       21 0.13960944E+00 0.21802631E+03</pdfrwt>
<pdfrwt beam="2">  1       21 0.90643489E-02 0.21802631E+03</pdfrwt>
<totfact> 0.34259808E+04</totfact>
</mgrwt>
</event>
<event>
 4    1  0.4199481E+000  0.1794941E+03  0.7546771E-02  0.1168294E+00
         21   -1    0    0  503  502  0.00000000000E+00  0.00000000000E+00  0.12391435136E+03  0.12391435136E+03  0.00000000000E+00 0. -1.
         21   -1    0    0  501  503 -0.00000000000E+00 -0.00000000000E+00 -0.53449442360E+03  0.53449442360E+03  0.00000000000E+00 0. -1.
          6    1    1    2  501    0  0.47784620592E+02  0.24010852126E+01 -0.44120647847E+03  0.47632057673E+03  0.17300000000E+03 0. -1.
         -6    1    1    2    0  502 -0.47784620592E+02 -0.24010852126E+01  0.30626406222E+02  0.18208819823E+03  0.17300000000E+03 0. -1.
<mgrwt>
<rscale>  2 0.17949411E+03</rscale>
<asrwt>0</asrwt>
<pdfrwt beam="1">  1       21 0.19063747E-01 0.17949411E+03</pdfrwt>
<pdfrwt beam="2">  1       21 0.82229911E-01 0.17949411E+03</pdfrwt>
<totfact> 0.32851067E+04</totfact>
</mgrwt>
</event>
<event>
 4    1  0.4199481E+000  0.2163718E+03  0.7546771E-02  0.1136617E+00
         21   -1    0    0  503  502  0.00000000000E+00  0.00000000000E+00  0.86747035859E+03  0.86747035859E+03  0.00000000000E+00 0. -1.
         21   -1    0    0  501  503 -0.00000000000E+00 -0.00000000000E+00 -0.65356005808E+02  0.65356005808E+02  0.00000000000E+00 0. -1.
          6    1    1    2  501    0 -0.73172491104E+01 -0.12974671770E+03  0.20637443733E+03  0.29901030295E+03  0.17300000000E+03 0. -1.
         -6    1    1    2    0  502  0.73172491104E+01  0.12974671770E+03  0.59573991545E+03  0.63381606145E+03  0.17300000000E+03 0. -1.
<mgrwt>
<rscale>  2 0.21637179E+03</rscale>
<asrwt>0</asrwt>
<pdfrwt beam="1">  1       21 0.13345697E+00 0.21637179E+03</pdfrwt>
<pdfrwt beam="2">  1       21 0.10054771E-01 0.21637179E+03</pdfrwt>
<totfact> 0.32059169E+04</totfact>
</mgrwt>
</event>
<event>
 4    1  0.4199481E+000  0.1924636E+03  0.7546771E-02  0.1156258E+00
         21   -1    0    0  503  502  0.00000000000E+00  0.00000000000E+00  0.64154393754E+03  0.64154393754E+03  0.00000000000E+00 0. -1.
         21   -1    0    0  501  503 -0.00000000000E+00 -0.00000000000E+00 -0.15834828358E+03  0.15834828358E+03  0.00000000000E+00 0. -1.
          6    1    1    2  501    0 -0.57680096924E+02  0.61532345753E+02 -0.77198588580E+02  0.20736886274E+03  0.17300000000E+03 0. -1.
         -6    1    1    2    0  502  0.57680096924E+02 -0.61532345753E+02  0.56039424254E+03  0.59252335838E+03  0.17300000000E+03 0. -1.
<mgrwt>
<rscale>  2 0.19246356E+03</rscale>
<asrwt>0</asrwt>
<pdfrwt beam="1">  1       21 0.98699066E-01 0.19246356E+03</pdfrwt>
<pdfrwt beam="2">  1       21 0.24361275E-01 0.19246356E+03</pdfrwt>
<totfact> 0.13477299E+04</totfact>
</mgrwt>
</event>
<event>
 4    1  0.4199481E+000  0.1809183E+03  0.7546771E-02  0.1166917E+00
         21   -1    0    0  501  502  0.00000000000E+00  0.00000000000E+00  0.13094633395E+04  0.13094633395E+04  0.00000000000E+00 0.  1.
         21   -1    0    0  502  503 -0.00000000000E+00 -0.00000000000E+00 -0.26363170020E+02  0.26363170020E+02  0.00000000000E+00 0.  1.
          6    1    1    2  501    0 -0.37204397913E+02  0.37659810162E+02  0.79364771777E+03  0.81400744987E+03  0.17300000000E+03 0.  1.
         -6    1    1    2    0  503  0.37204397913E+02 -0.37659810162E+02  0.48945245169E+03  0.52181905962E+03  0.17300000000E+03 0.  1.
<mgrwt>
<rscale>  2 0.18091829E+03</rscale>
<asrwt>0</asrwt>
<pdfrwt beam="1">  1       21 0.20145585E+00 0.18091829E+03</pdfrwt>
<pdfrwt beam="2">  1       21 0.40558733E-02 0.18091829E+03</pdfrwt>
<totfact> 0.50702987E+04</totfact>
</mgrwt>
</event>
<event>
 4    1  0.4199481E+000  0.2063406E+03  0.7546771E-02  0.1144497E+00
         21   -1    0    0  501  502  0.00000000000E+00  0.00000000000E+00  0.99144012670E+03  0.99144012670E+03  0.00000000000E+00 0.  1.
         21   -1    0    0  502  503 -0.00000000000E+00 -0.00000000000E+00 -0.49486022239E+02  0.49486022239E+02  0.00000000000E+00 0.  1.
          6    1    1    2  501    0 -0.96378097765E+02 -0.57954281335E+02  0.66021298194E+03  0.69170630905E+03  0.17300000000E+03 0.  1.
         -6    1    1    2    0  503  0.96378097765E+02  0.57954281335E+02  0.28174112252E+03  0.34921983989E+03  0.17300000000E+03 0.  1.
<mgrwt>
<rscale>  2 0.20634058E+03</rscale>
<asrwt>0</asrwt>
<pdfrwt beam="1">  1       21 0.15252924E+00 0.20634058E+03</pdfrwt>
<pdfrwt beam="2">  1       21 0.76132349E-02 0.20634058E+03</pdfrwt>
<totfact> 0.37100591E+04</totfact>
</mgrwt>
</event>
<event>
 4    1  0.4199481E+000  0.1822829E+03  0.7546771E-02  0.1165612E+00
         21   -1    0    0  501  502  0.00000000000E+00  0.00000000000E+00  0.26921073015E+03  0.26921073015E+03  0.00000000000E+00 0.  1.
         21   -1    0    0  502  503 -0.00000000000E+00 -0.00000000000E+00 -0.19193918589E+03  0.19193918589E+03  0.00000000000E+00 0.  1.
          6    1    1    2  501    0  0.41848022226E+02  0.39329197843E+02  0.17639604611E+03  0.25365844723E+03  0.17300000000E+03 0.  1.
         -6    1    1    2    0  503 -0.41848022226E+02 -0.39329197843E+02 -0.99124501847E+02  0.20749146882E+03  0.17300000000E+03 0.  1.
<mgrwt>
<rscale>  2 0.18228286E+03</rscale>
<asrwt>0</asrwt>
<pdfrwt beam="1">  1       21 0.41417035E-01 0.18228286E+03</pdfrwt>
<pdfrwt beam="2">  1       21 0.29529106E-01 0.18228286E+03</pdfrwt>
<totfact> 0.61970878E+04</totfact>
</mgrwt>
</event>
<event>
 4    1  0.4199481E+000  0.2193849E+03  0.7546771E-02  0.1134342E+00
         21   -1    0    0  503  502  0.00000000000E+00  0.00000000000E+00  0.95224774782E+02  0.95224774782E+02  0.00000000000E+00 0. -1.
         21   -1    0    0  501  503 -0.00000000000E+00 -0.00000000000E+00 -0.51370251581E+03  0.51370251581E+03  0.00000000000E+00 0. -1.
          6    1    1    2  501    0  0.20406180375E+01  0.13489469542E+03 -0.24786843462E+03  0.33101133494E+03  0.17300000000E+03 0. -1.
         -6    1    1    2    0  502 -0.20406180375E+01 -0.13489469542E+03 -0.17060930641E+03  0.27791595565E+03  0.17300000000E+03 0. -1.
<mgrwt>
<rscale>  2 0.21938492E+03</rscale>
<asrwt>0</asrwt>
<pdfrwt beam="1">  1       21 0.14649965E-01 0.21938492E+03</pdfrwt>
<pdfrwt beam="2">  1       21 0.79031159E-01 0.21938492E+03</pdfrwt>
<totfact> 0.57168425E+04</totfact>
</mgrwt>
</event>
<event>
 4    1  0.4199481E+000  0.1918309E+03  0.7546771E-02  0.1156820E+00
         21   -1    0    0  501  502  0.00000000000E+00  0.00000000000E+00  0.96676935558E+03  0.96676935558E+03  0.00000000000E+00 0. -1.
         21   -1    0    0  502  503 -0.00000000000E+00 -0.00000000000E+00 -0.38091970637E+02  0.38091970637E+02  0.00000000000E+00 0.  1.
          6    1    1    2  501    0  0.82826786583E+02 -0.31308337693E+01  0.45071634939E+03  0.48984110312E+03  0.17300000000E+03 0. -1.
         -6    1    1    2    0  503 -0.82826786583E+02  0.31308337693E+01  0.47796103555E+03  0.51502022310E+03  0.17300000000E+03 0. -1.
<mgrwt>
<rscale>  2 0.19183086E+03</rscale>
<asrwt>0</asrwt>
<pdfrwt beam="1">  1       21 0.14873373E+00 0.19183086E+03</pdfrwt>
<pdfrwt beam="2">  1       21 0.58603039E-02 0.19183086E+03</pdfrwt>
<totfact> 0.62772642E+04</totfact>
</mgrwt>
</event>
<event>
 4    1  0.4199481E+000  0.2045614E+03  0.7546771E-02  0.1145947E+00
         21   -1    0    0  501  502  0.00000000000E+00  0.00000000000E+00  0.30156325178E+03  0.30156325178E+03  0.00000000000E+00 0. -1.
         21   -1    0    0  502  503 -0.00000000000E+00 -0.00000000000E+00 -0.19251261539E+03  0.19251261539E+03  0.00000000000E+00 0. -1.
          6    1    1    2  501    0 -0.91992172609E+02  0.58769098629E+02  0.18506057296E+03  0.27584920235E+03  0.17300000000E+03 0. -1.
         -6    1    1    2    0  503  0.91992172609E+02 -0.58769098629E+02 -0.76009936570E+02  0.21822666481E+03  0.17300000000E+03 0. -1.
<mgrwt>
<rscale>  2 0.20456140E+03</rscale>
<asrwt>0</asrwt>
<pdfrwt beam="1">  1       21 0.46394346E-01 0.20456140E+03</pdfrwt>
<pdfrwt beam="2">  1       21 0.29617326E-01 0.20456140E+03</pdfrwt>
<totfact> 0.48339122E+04</totfact>
</mgrwt>
</event>
<event>
 4    1  0.4199481E+000  0.2071923E+03  0.7546771E-02  0.1143809E+00
         21   -1    0    0  501  502  0.00000000000E+00  0.00000000000E+00  0.99924050387E+03  0.99924050387E+03  0.00000000000E+00 0. -1.
         21   -1    0    0  502  503 -0.00000000000E+00 -0.00000000000E+00 -0.61254905790E+02  0.61254905790E+02  0.00000000000E+00 0. -1.
          6    1    1    2  501    0  0.11224400346E+03  0.20023231393E+02  0.75876606372E+03  0.78654598439E+03  0.17300000000E+03 0. -1.
         -6    1    1    2    0  503 -0.11224400346E+03 -0.20023231393E+02  0.17921953436E+03  0.27394942527E+03  0.17300000000E+03 0. -1.
<mgrwt>
<rscale>  2 0.20719229E+03</rscale>
<asrwt>0</asrwt>
<pdfrwt beam="1">  1       21 0.15372930E+00 0.20719229E+03</pdfrwt>
<pdfrwt beam="2">  1       21 0.94238324E-02 0.20719229E+03</pdfrwt>
<totfact> 0.25001412E+04</totfact>
</mgrwt>
</event>
<event>
 4    1  0.4199481E+000  0.2117732E+03  0.7546771E-02  0.1140169E+00
         21   -1    0    0  501  502  0.00000000000E+00  0.00000000000E+00  0.63849325531E+02  0.63849325531E+02  0.00000000000E+00 0. -1.
         21   -1    0    0  502  503 -0.00000000000E+00 -0.00000000000E+00 -0.75422015412E+03  0.75422015412E+03  0.00000000000E+00 0. -1.
          6    1    1    2  501    0  0.12056313454E+03 -0.19580971012E+02 -0.45239972584E+03  0.49951315876E+03  0.17300000000E+03 0. -1.
         -6    1    1    2    0  503 -0.12056313454E+03  0.19580971012E+02 -0.23797110275E+03  0.31855632089E+03  0.17300000000E+03 0. -1.
<mgrwt>
<rscale>  2 0.21177319E+03</rscale>
<asrwt>0</asrwt>
<pdfrwt beam="1">  1       21 0.98229731E-02 0.21177319E+03</pdfrwt>
<pdfrwt beam="2">  1       21 0.11603387E+00 0.21177319E+03</pdfrwt>
<totfact> 0.47554852E+04</totfact>
</mgrwt>
</event>
<event>
 4    1  0.4199481E+000  0.2421961E+03  0.7546771E-02  0.1118338E+00
         21   -1    0    0  503  502  0.00000000000E+00  0.00000000000E+00  0.55814379620E+03  0.55814379620E+03  0.00000000000E+00 0.  1.
         21   -1    0    0  501  503 -0.00000000000E+00 -0.00000000000E+00 -0.13295181011E+03  0.13295181011E+03  0.00000000000E+00 0.  1.
          6    1    1    2  501    0 -0.15183144697E+03  0.75346953975E+02  0.54429270445E+02  0.24823677657E+03  0.17300000000E+03 0.  1.
         -6    1    1    2    0  502  0.15183144697E+03 -0.75346953975E+02  0.37076271565E+03  0.44285882974E+03  0.17300000000E+03 0.  1.
<mgrwt>
<rscale>  2 0.24219610E+03</rscale>
<asrwt>0</asrwt>
<pdfrwt beam="1">  1       21 0.85868275E-01 0.24219610E+03</pdfrwt>
<pdfrwt beam="2">  1       21 0.20454125E-01 0.24219610E+03</pdfrwt>
<totfact> 0.25228253E+04</totfact>
</mgrwt>
</event>
<event>
 4    1  0.4199481E+000  0.2531735E+03  0.7546771E-02  0.1111315E+00
         21   -1    0    0  501  502  0.00000000000E+00  0.00000000000E+00  0.69374162477E+02  0.69374162477E+02  0.00000000000E+00 0.  1.
         21   -1    0    0  502  503 -0.00000000000E+00 -0.00000000000E+00 -0.92523808376E+03  0.92523808376E+03  0.00000000000E+00 0.  1.
          6    1    1    2  501    0  0.25428658620E+02 -0.18308803620E+03 -0.40923061445E+03  0.48121361316E+03  0.17300000000E+03 0.  1.
         -6    1    1    2    0  503 -0.25428658620E+02  0.18308803620E+03 -0.44663330683E+03  0.51339863308E+03  0.17300000000E+03 0.  1.
<mgrwt>
<rscale>  2 0.25317355E+03</rscale>
<asrwt>0</asrwt>
<pdfrwt beam="1">  1       21 0.10672948E-01 0.25317355E+03</pdfrwt>
<pdfrwt beam="2">  1       21 0.14234432E+00 0.25317355E+03</pdfrwt>
<totfact> 0.23930394E+04</totfact>
</mgrwt>
</event>
<event>
 4    1  0.4199481E+000  0.3016818E+03  0.7546771E-02  0.1084403E+00
         21   -1    0    0  501  502  0.00000000000E+00  0.00000000000E+00  0.87726231278E+03  0.87726231278E+03  0.00000000000E+00 0. -1.
         21   -1    0    0  502  503 -0.00000000000E+00 -0.00000000000E+00 -0.36196340476E+03  0.36196340476E+03  0.00000000000E+00 0.  1.
          6    1    1    2  501    0 -0.13165941676E+03 -0.20916192963E+03  0.78098636221E+03  0.83722853080E+03  0.17300000000E+03 0. -1.
         -6    1    1    2    0  503  0.13165941676E+03  0.20916192963E+03 -0.26568745419E+03  0.40199718673E+03  0.17300000000E+03 0.  1.
<mgrwt>
<rscale>  2 0.30168181E+03</rscale>
<asrwt>0</asrwt>
<pdfrwt beam="1">  1       21 0.13496343E+00 0.30168181E+03</pdfrwt>
<pdfrwt beam="2">  1       21 0.55686678E-01 0.30168181E+03</pdfrwt>
<totfact> 0.10928785E+03</totfact>
</mgrwt>
</event>
<event>
 4    1  0.4199481E+000  0.2165739E+03  0.7546771E-02  0.1136463E+00
         21   -1    0    0  501  502  0.00000000000E+00  0.00000000000E+00  0.12473934929E+03  0.12473934929E+03  0.00000000000E+00 0.  1.
         21   -1    0    0  502  503 -0.00000000000E+00 -0.00000000000E+00 -0.47810508342E+03  0.47810508342E+03  0.00000000000E+00 0. -1.
          6    1    1    2  501    0  0.61696900834E+02 -0.11475507735E+03 -0.37399561025E+02  0.21977934961E+03  0.17300000000E+03 0.  1.
         -6    1    1    2    0  503 -0.61696900834E+02  0.11475507735E+03 -0.31596617311E+03  0.38306508311E+03  0.17300000000E+03 0. -1.
<mgrwt>
<rscale>  2 0.21657386E+03</rscale>
<asrwt>0</asrwt>
<pdfrwt beam="1">  1       21 0.19190669E-01 0.21657386E+03</pdfrwt>
<pdfrwt beam="2">  1       21 0.73554627E-01 0.21657386E+03</pdfrwt>
<totfact> 0.40894665E+04</totfact>
</mgrwt>
</event>
<event>
 4    1  0.4199481E+000  0.2204684E+03  0.7546771E-02  0.1133534E+00
         21   -1    0    0  501  502  0.00000000000E+00  0.00000000000E+00  0.38671394687E+03  0.38671394687E+03  0.00000000000E+00 0. -1.
         21   -1    0    0  502  503 -0.00000000000E+00 -0.00000000000E+00 -0.21697987247E+03  0.21697987247E+03  0.00000000000E+00 0. -1.
          6    1    1    2  501    0 -0.13180932565E+03 -0.36105752174E+02  0.28065535986E+03  0.35689459885E+03  0.17300000000E+03 0. -1.
         -6    1    1    2    0  503  0.13180932565E+03  0.36105752174E+02 -0.11092128546E+03  0.24679922049E+03  0.17300000000E+03 0. -1.
<mgrwt>
<rscale>  2 0.22046842E+03</rscale>
<asrwt>0</asrwt>
<pdfrwt beam="1">  1       21 0.59494453E-01 0.22046842E+03</pdfrwt>
<pdfrwt beam="2">  1       21 0.33381519E-01 0.22046842E+03</pdfrwt>
<totfact> 0.22446200E+04</totfact>
</mgrwt>
</event>
<event>
 4    1  0.4199481E+000  0.2750035E+03  0.7546771E-02  0.1098450E+00
         21   -1    0    0  501  502  0.00000000000E+00  0.00000000000E+00  0.21389012367E+03  0.21389012367E+03  0.00000000000E+00 0.  1.
         21   -1    0    0  502  503 -0.00000000000E+00 -0.00000000000E+00 -0.35777104198E+03  0.35777104198E+03  0.00000000000E+00 0.  1.
          6    1    1    2  501    0 -0.20419076448E+03 -0.63277754850E+02 -0.40998600768E+02  0.27804285250E+03  0.17300000000E+03 0.  1.
         -6    1    1    2    0  503  0.20419076448E+03  0.63277754850E+02 -0.10288231754E+03  0.29361831316E+03  0.17300000000E+03 0.  1.
<mgrwt>
<rscale>  2 0.27500353E+03</rscale>
<asrwt>0</asrwt>
<pdfrwt beam="1">  1       21 0.32906173E-01 0.27500353E+03</pdfrwt>
<pdfrwt beam="2">  1       21 0.55041698E-01 0.27500353E+03</pdfrwt>
<totfact> 0.26594337E+04</totfact>
</mgrwt>
</event>
<event>
 4    1  0.4199481E+000  0.1758642E+03  0.7546771E-02  0.1171867E+00
         21   -1    0    0  503  502  0.00000000000E+00  0.00000000000E+00  0.10651808008E+04  0.10651808008E+04  0.00000000000E+00 0. -1.
         21   -1    0    0  501  503 -0.00000000000E+00 -0.00000000000E+00 -0.35685467824E+02  0.35685467824E+02  0.00000000000E+00 0. -1.
          6    1    1    2  501    0 -0.32233984323E+01 -0.31445536636E+02  0.27713811513E+03  0.32822819338E+03  0.17300000000E+03 0.  1.
         -6    1    1    2    0  502  0.32233984323E+01  0.31445536636E+02  0.75235721783E+03  0.77263807523E+03  0.17300000000E+03 0.  1.
<mgrwt>
<rscale>  2 0.17586419E+03</rscale>
<asrwt>0</asrwt>
<pdfrwt beam="1">  1       21 0.16387395E+00 0.17586419E+03</pdfrwt>
<pdfrwt beam="2">  1       21 0.54900728E-02 0.17586419E+03</pdfrwt>
<totfact> 0.54663122E+04</totfact>
</mgrwt>
</event>
<event>
 4    1  0.4199481E+000  0.1931406E+03  0.7546771E-02  0.1155659E+00
         21   -1    0    0  503  502  0.00000000000E+00  0.00000000000E+00  0.97109801234E+02  0.97109801234E+02  0.00000000000E+00 0.  1.
         21   -1    0    0  501  503 -0.00000000000E+00 -0.00000000000E+00 -0.41712312932E+03  0.41712312932E+03  0.00000000000E+00 0. -1.
          6    1    1    2  501    0  0.85310638345E+02  0.98179162906E+01 -0.23231278082E+03  0.30211343007E+03  0.17300000000E+03 0.  1.
         -6    1    1    2    0  502 -0.85310638345E+02 -0.98179162906E+01 -0.87700547264E+02  0.21211950048E+03  0.17300000000E+03 0.  1.
<mgrwt>
<rscale>  2 0.19314061E+03</rscale>
<asrwt>0</asrwt>
<pdfrwt beam="1">  1       21 0.14939969E-01 0.19314061E+03</pdfrwt>
<pdfrwt beam="2">  1       21 0.64172789E-01 0.19314061E+03</pdfrwt>
<totfact> 0.88544663E+04</totfact>
</mgrwt>
</event>
<event>
 4    1  0.4199481E+000  0.2690620E+03  0.7546771E-02  0.1101818E+00
         21   -1    0    0  503  502  0.00000000000E+00  0.00000000000E+00  0.10948690211E+04  0.10948690211E+04  0.00000000000E+00 0. -1.
         21   -1    0    0  501  503 -0.00000000000E+00 -0.00000000000E+00 -0.85848567968E+02  0.85848567968E+02  0.00000000000E+00 0.  1.
          6    1    1    2  501    0  0.32804193412E+01  0.20604510868E+03  0.22151368890E+03  0.34851493846E+03  0.17300000000E+03 0.  1.
         -6    1    1    2    0  502 -0.32804193412E+01 -0.20604510868E+03  0.78750676421E+03  0.83220265058E+03  0.17300000000E+03 0. -1.
<mgrwt>
<rscale>  2 0.26906198E+03</rscale>
<asrwt>0</asrwt>
<pdfrwt beam="1">  1       21 0.16844138E+00 0.26906198E+03</pdfrwt>
<pdfrwt beam="2">  1       21 0.13207473E-01 0.26906198E+03</pdfrwt>
<totfact> 0.10266251E+04</totfact>
</mgrwt>
</event>
<event>
 4    1  0.4199481E+000  0.2148353E+03  0.7546771E-02  0.1137793E+00
         21   -1    0    0  501  502  0.00000000000E+00  0.00000000000E+00  0.54991984865E+03  0.54991984865E+03  0.00000000000E+00 0. -1.
         21   -1    0    0  502  503 -0.00000000000E+00 -0.00000000000E+00 -0.10814637024E+03  0.10814637024E+03  0.00000000000E+00 0. -1.
          6    1    1    2  501    0 -0.10437597677E+03  0.73012831428E+02  0.37658981737E+03  0.43355980974E+03  0.17300000000E+03 0. -1.
         -6    1    1    2    0  503  0.10437597677E+03 -0.73012831428E+02  0.65183661040E+02  0.22450640914E+03  0.17300000000E+03 0. -1.
<mgrwt>
<rscale>  2 0.21483533E+03</rscale>
<asrwt>0</asrwt>
<pdfrwt beam="1">  1       21 0.84603052E-01 0.21483533E+03</pdfrwt>
<pdfrwt beam="2">  1       21 0.16637903E-01 0.21483533E+03</pdfrwt>
<totfact> 0.38857025E+04</totfact>
</mgrwt>
</event>
<event>
 4    1  0.4199481E+000  0.1767454E+03  0.7546771E-02  0.1170991E+00
         21   -1    0    0  501  502  0.00000000000E+00  0.00000000000E+00  0.37927477504E+03  0.37927477504E+03  0.00000000000E+00 0. -1.
         21   -1    0    0  502  503 -0.00000000000E+00 -0.00000000000E+00 -0.97644106721E+02  0.97644106721E+02  0.00000000000E+00 0. -1.
          6    1    1    2  501    0  0.33934873284E+02  0.12583526637E+02  0.23514367852E+03  0.29416231967E+03  0.17300000000E+03 0. -1.
         -6    1    1    2    0  503 -0.33934873284E+02 -0.12583526637E+02  0.46486989807E+02  0.18275656209E+03  0.17300000000E+03 0. -1.
<mgrwt>
<rscale>  2 0.17674536E+03</rscale>
<asrwt>0</asrwt>
<pdfrwt beam="1">  1       21 0.58349965E-01 0.17674536E+03</pdfrwt>
<pdfrwt beam="2">  1       21 0.15022170E-01 0.17674536E+03</pdfrwt>
<totfact> 0.10825819E+05</totfact>
</mgrwt>
</event>
<event>
 4    1  0.4199481E+000  0.3078800E+03  0.7546771E-02  0.1081366E+00
         21   -1    0    0  503  502  0.00000000000E+00  0.00000000000E+00  0.36205252403E+03  0.36205252403E+03  0.00000000000E+00 0.  1.
         21   -1    0    0  501  503 -0.00000000000E+00 -0.00000000000E+00 -0.53519173169E+03  0.53519173169E+03  0.00000000000E+00 0. -1.
          6    1    1    2  501    0 -0.92975563274E+02  0.23710049855E+03 -0.40720263317E+03  0.51049396298E+03  0.17300000000E+03 0. -1.
         -6    1    1    2    0  502  0.92975563274E+02 -0.23710049855E+03  0.23406342550E+03  0.38675029274E+03  0.17300000000E+03 0.  1.
<mgrwt>
<rscale>  2 0.30788001E+03</rscale>
<asrwt>0</asrwt>
<pdfrwt beam="1">  1       21 0.55700388E-01 0.30788001E+03</pdfrwt>
<pdfrwt beam="2">  1       21 0.82337189E-01 0.30788001E+03</pdfrwt>
<totfact> 0.36270439E+03</totfact>
</mgrwt>
</event>
<event>
 4    1  0.4199481E+000  0.1987278E+03  0.7546771E-02  0.1150817E+00
         21   -1    0    0  503  502  0.00000000000E+00  0.00000000000E+00  0.13649242821E+03  0.13649242821E+03  0.00000000000E+00 0.  1.
         21   -1    0    0  501  503 -0.00000000000E+00 -0.00000000000E+00 -0.29132953313E+03  0.29132953313E+03  0.00000000000E+00 0. -1.
          6    1    1    2  501    0  0.73753545967E+02  0.64219594890E+02 -0.95095132000E+02  0.22030847928E+03  0.17300000000E+03 0.  1.
         -6    1    1    2    0  502 -0.73753545967E+02 -0.64219594890E+02 -0.59741972913E+02  0.20751348206E+03  0.17300000000E+03 0.  1.
<mgrwt>
<rscale>  2 0.19872781E+03</rscale>
<asrwt>0</asrwt>
<pdfrwt beam="1">  1       21 0.20998835E-01 0.19872781E+03</pdfrwt>
<pdfrwt beam="2">  1       21 0.44819928E-01 0.19872781E+03</pdfrwt>
<totfact> 0.10042411E+05</totfact>
</mgrwt>
</event>
<event>
 4    1  0.4199481E+000  0.2096965E+03  0.7546771E-02  0.1141807E+00
         21   -1    0    0  501  502  0.00000000000E+00  0.00000000000E+00  0.66879590003E+02  0.66879590003E+02  0.00000000000E+00 0.  1.
         21   -1    0    0  502  503 -0.00000000000E+00 -0.00000000000E+00 -0.16276919598E+04  0.16276919598E+04  0.00000000000E+00 0. -1.
          6    1    1    2  501    0 -0.10479975165E+03  0.55322907841E+02 -0.12625964944E+03  0.24477359162E+03  0.17300000000E+03 0.  1.
         -6    1    1    2    0  503  0.10479975165E+03 -0.55322907841E+02 -0.14345527203E+04  0.14497979581E+04  0.17300000000E+03 0. -1.
<mgrwt>
<rscale>  2 0.20969648E+03</rscale>
<asrwt>0</asrwt>
<pdfrwt beam="1">  1       21 0.10289168E-01 0.20969648E+03</pdfrwt>
<pdfrwt beam="2">  1       21 0.25041414E+00 0.20969648E+03</pdfrwt>
<totfact> 0.50147931E+03</totfact>
</mgrwt>
</event>
<event>
 4    1  0.4199481E+000  0.2245935E+03  0.7546771E-02  0.1130504E+00
         21   -1    0    0  501  502  0.00000000000E+00  0.00000000000E+00  0.73160922145E+03  0.73160922145E+03  0.00000000000E+00 0.  1.
         21   -1    0    0  502  503 -0.00000000000E+00 -0.00000000000E+00 -0.93786522853E+02  0.93786522853E+02  0.00000000000E+00 0.  1.
          6    1    1    2  501    0 -0.57671475437E+02  0.13110008900E+03  0.53130130699E+03  0.57682173262E+03  0.17300000000E+03 0.  1.
         -6    1    1    2    0  503  0.57671475437E+02 -0.13110008900E+03  0.10652139161E+03  0.24857401169E+03  0.17300000000E+03 0.  1.
<mgrwt>
<rscale>  2 0.22459348E+03</rscale>
<asrwt>0</asrwt>
<pdfrwt beam="1">  1       21 0.11255526E+00 0.22459348E+03</pdfrwt>
<pdfrwt beam="2">  1       21 0.14428696E-01 0.22459348E+03</pdfrwt>
<totfact> 0.25528630E+04</totfact>
</mgrwt>
</event>
<event>
 4    1  0.4199481E+000  0.2241532E+03  0.7546771E-02  0.1130824E+00
         21   -1    0    0  501  502  0.00000000000E+00  0.00000000000E+00  0.60647398203E+03  0.60647398203E+03  0.00000000000E+00 0.  1.
         21   -1    0    0  502  503 -0.00000000000E+00 -0.00000000000E+00 -0.83369740116E+02  0.83369740116E+02  0.00000000000E+00 0.  1.
          6    1    1    2  501    0  0.90718414660E+02  0.10993564219E+03  0.23424518577E+03  0.32421518046E+03  0.17300000000E+03 0.  1.
         -6    1    1    2    0  503 -0.90718414660E+02 -0.10993564219E+03  0.28885905614E+03  0.36562854169E+03  0.17300000000E+03 0.  1.
<mgrwt>
<rscale>  2 0.22415324E+03</rscale>
<asrwt>0</asrwt>
<pdfrwt beam="1">  1       21 0.93303687E-01 0.22415324E+03</pdfrwt>
<pdfrwt beam="2">  1       21 0.12826114E-01 0.22415324E+03</pdfrwt>
<totfact> 0.49544743E+04</totfact>
</mgrwt>
</event>
<event>
 4    1  0.4199481E+000  0.1756503E+03  0.7546771E-02  0.1172080E+00
         21   -1    0    0  503  502  0.00000000000E+00  0.00000000000E+00  0.76877718187E+03  0.76877718187E+03  0.00000000000E+00 0.  1.
         21   -1    0    0  501  503 -0.00000000000E+00 -0.00000000000E+00 -0.17315961829E+03  0.17315961829E+03  0.00000000000E+00 0.  1.
          6    1    1    2  501    0 -0.30004766444E+02  0.48717262591E+01 -0.11498999628E+03  0.20994218006E+03  0.17300000000E+03 0.  1.
         -6    1    1    2    0  502  0.30004766444E+02 -0.48717262591E+01  0.71060755986E+03  0.73199462010E+03  0.17300000000E+03 0.  1.
<mgrwt>
<rscale>  2 0.17565028E+03</rscale>
<asrwt>0</asrwt>
<pdfrwt beam="1">  1       21 0.11827341E+00 0.17565028E+03</pdfrwt>
<pdfrwt beam="2">  1       21 0.26639942E-01 0.17565028E+03</pdfrwt>
<totfact> 0.74384619E+03</totfact>
</mgrwt>
</event>
<event>
 4    1  0.4199481E+000  0.1750687E+03  0.7546771E-02  0.1172663E+00
         21   -1    0    0  501  502  0.00000000000E+00  0.00000000000E+00  0.13337499563E+03  0.13337499563E+03  0.00000000000E+00 0. -1.
         21   -1    0    0  502  503 -0.00000000000E+00 -0.00000000000E+00 -0.32897693832E+03  0.32897693832E+03  0.00000000000E+00 0. -1.
          6    1    1    2  501    0  0.25451966855E+02 -0.84989950047E+01  0.29131911444E+02  0.17747592456E+03  0.17300000000E+03 0. -1.
         -6    1    1    2    0  503 -0.25451966855E+02  0.84989950047E+01 -0.22473385414E+03  0.28487600939E+03  0.17300000000E+03 0. -1.
<mgrwt>
<rscale>  2 0.17506866E+03</rscale>
<asrwt>0</asrwt>
<pdfrwt beam="1">  1       21 0.20519230E-01 0.17506866E+03</pdfrwt>
<pdfrwt beam="2">  1       21 0.50611836E-01 0.17506866E+03</pdfrwt>
<totfact> 0.82328362E+04</totfact>
</mgrwt>
</event>
<event>
 4    1  0.4199481E+000  0.2460380E+03  0.7546771E-02  0.1115835E+00
         21   -1    0    0  501  502  0.00000000000E+00  0.00000000000E+00  0.10588006546E+03  0.10588006546E+03  0.00000000000E+00 0. -1.
         21   -1    0    0  502  503 -0.00000000000E+00 -0.00000000000E+00 -0.58044508883E+03  0.58044508883E+03  0.00000000000E+00 0.  1.
          6    1    1    2  501    0  0.16175156468E+03  0.66649393588E+02 -0.27933373838E+03  0.37223923455E+03  0.17300000000E+03 0. -1.
         -6    1    1    2    0  503 -0.16175156468E+03 -0.66649393588E+02 -0.19523128499E+03  0.31408591974E+03  0.17300000000E+03 0.  1.
<mgrwt>
<rscale>  2 0.24603803E+03</rscale>
<asrwt>0</asrwt>
<pdfrwt beam="1">  1       21 0.16289241E-01 0.24603803E+03</pdfrwt>
<pdfrwt beam="2">  1       21 0.89299242E-01 0.24603803E+03</pdfrwt>
<totfact> 0.35141790E+04</totfact>
</mgrwt>
</event>
<event>
 4    1  0.4199481E+000  0.4052100E+03  0.7546771E-02  0.1041990E+00
         21   -1    0    0  503  502  0.00000000000E+00  0.00000000000E+00  0.20819582704E+03  0.20819582704E+03  0.00000000000E+00 0. -1.
         21   -1    0    0  501  503 -0.00000000000E+00 -0.00000000000E+00 -0.85288860853E+03  0.85288860853E+03  0.00000000000E+00 0.  1.
          6    1    1    2  501    0 -0.85010758193E+02 -0.35642579344E+03 -0.46794154134E+03  0.61900279591E+03  0.17300000000E+03 0.  1.
         -6    1    1    2    0  502  0.85010758193E+02  0.35642579344E+03 -0.17675124015E+03  0.44208163966E+03  0.17300000000E+03 0.  1.
<mgrwt>
<rscale>  2 0.40521004E+03</rscale>
<asrwt>0</asrwt>
<pdfrwt beam="1">  1       21 0.32030126E-01 0.40521004E+03</pdfrwt>
<pdfrwt beam="2">  1       21 0.13121364E+00 0.40521004E+03</pdfrwt>
<totfact> 0.34955297E+03</totfact>
</mgrwt>
</event>
<event>
 4    1  0.4199481E+000  0.1998578E+03  0.7546771E-02  0.1149859E+00
         21   -1    0    0  503  502  0.00000000000E+00  0.00000000000E+00  0.14418940397E+02  0.14418940397E+02  0.00000000000E+00 0.  1.
         21   -1    0    0  501  503 -0.00000000000E+00 -0.00000000000E+00 -0.28729484212E+04  0.28729484212E+04  0.00000000000E+00 0.  1.
          6    1    1    2  501    0  0.97313301514E+02 -0.23329417405E+02 -0.17023047198E+04  0.17139966451E+04  0.17300000000E+03 0.  1.
         -6    1    1    2    0  502 -0.97313301514E+02  0.23329417405E+02 -0.11562247610E+04  0.11733707165E+04  0.17300000000E+03 0.  1.
<mgrwt>
<rscale>  2 0.19985780E+03</rscale>
<asrwt>0</asrwt>
<pdfrwt beam="1">  1       21 0.22182966E-02 0.19985780E+03</pdfrwt>
<pdfrwt beam="2">  1       21 0.44199244E+00 0.19985780E+03</pdfrwt>
<totfact> 0.48356950E+03</totfact>
</mgrwt>
</event>
<event>
 4    1  0.4199481E+000  0.2133455E+03  0.7546771E-02  0.1138944E+00
         21   -1    0    0  503  502  0.00000000000E+00  0.00000000000E+00  0.57996853538E+03  0.57996853538E+03  0.00000000000E+00 0. -1.
         21   -1    0    0  501  503 -0.00000000000E+00 -0.00000000000E+00 -0.82212324383E+02  0.82212324383E+02  0.00000000000E+00 0. -1.
          6    1    1    2  501    0 -0.12420992049E+03  0.12616901188E+02  0.17833870737E+03  0.27806651199E+03  0.17300000000E+03 0. -1.
         -6    1    1    2    0  502  0.12420992049E+03 -0.12616901188E+02  0.31941750362E+03  0.38411434777E+03  0.17300000000E+03 0. -1.
<mgrwt>
<rscale>  2 0.21334547E+03</rscale>
<asrwt>0</asrwt>
<pdfrwt beam="1">  1       21 0.89225926E-01 0.21334547E+03</pdfrwt>
<pdfrwt beam="2">  1       21 0.12648050E-01 0.21334547E+03</pdfrwt>
<totfact> 0.56666441E+04</totfact>
</mgrwt>
</event>
<event>
 4    1  0.4199481E+000  0.1785417E+03  0.7546771E-02  0.1169222E+00
         21   -1    0    0  503  502  0.00000000000E+00  0.00000000000E+00  0.10187868634E+04  0.10187868634E+04  0.00000000000E+00 0. -1.
         21   -1    0    0  501  503 -0.00000000000E+00 -0.00000000000E+00 -0.34144903482E+02  0.34144903482E+02  0.00000000000E+00 0. -1.
          6    1    1    2  501    0  0.25013524649E+02 -0.36365805804E+02  0.34007188705E+03  0.38409118267E+03  0.17300000000E+03 0.  1.
         -6    1    1    2    0  502 -0.25013524649E+02  0.36365805804E+02  0.64457007292E+03  0.66884058426E+03  0.17300000000E+03 0.  1.
<mgrwt>
<rscale>  2 0.17854173E+03</rscale>
<asrwt>0</asrwt>
<pdfrwt beam="1">  1       21 0.15673642E+00 0.17854173E+03</pdfrwt>
<pdfrwt beam="2">  1       21 0.52530629E-02 0.17854173E+03</pdfrwt>
<totfact> 0.66310407E+04</totfact>
</mgrwt>
</event>
<event>
 4    1  0.4199481E+000  0.1957216E+03  0.7546771E-02  0.1153400E+00
         21   -1    0    0  501  502  0.00000000000E+00  0.00000000000E+00  0.12476614317E+04  0.12476614317E+04  0.00000000000E+00 0. -1.
         21   -1    0    0  502  503 -0.00000000000E+00 -0.00000000000E+00 -0.34528227910E+02  0.34528227910E+02  0.00000000000E+00 0. -1.
          6    1    1    2  501    0  0.91398006759E+02 -0.49355344508E+01  0.81995141422E+03  0.84298711545E+03  0.17300000000E+03 0.  1.
         -6    1    1    2    0  503 -0.91398006759E+02  0.49355344508E+01  0.39318178953E+03  0.43920254412E+03  0.17300000000E+03 0.  1.
<mgrwt>
<rscale>  2 0.19572163E+03</rscale>
<asrwt>0</asrwt>
<pdfrwt beam="1">  1       21 0.19194788E+00 0.19572163E+03</pdfrwt>
<pdfrwt beam="2">  1       21 0.53120360E-02 0.19572163E+03</pdfrwt>
<totfact> 0.36680973E+04</totfact>
</mgrwt>
</event>
<event>
 4    1  0.4199481E+000  0.1974741E+03  0.7546771E-02  0.1151888E+00
         21   -1    0    0  503  502  0.00000000000E+00  0.00000000000E+00  0.38732159495E+03  0.38732159495E+03  0.00000000000E+00 0.  1.
         21   -1    0    0  501  503 -0.00000000000E+00 -0.00000000000E+00 -0.10213344217E+03  0.10213344217E+03  0.00000000000E+00 0.  1.
          6    1    1    2  501    0 -0.81611097049E+02  0.49057559127E+02  0.11341217448E+03  0.22772425560E+03  0.17300000000E+03 0.  1.
         -6    1    1    2    0  502  0.81611097049E+02 -0.49057559127E+02  0.17177597830E+03  0.26173078151E+03  0.17300000000E+03 0.  1.
<mgrwt>
<rscale>  2 0.19747409E+03</rscale>
<asrwt>0</asrwt>
<pdfrwt beam="1">  1       21 0.59587937E-01 0.19747409E+03</pdfrwt>
<pdfrwt beam="2">  1       21 0.15712837E-01 0.19747409E+03</pdfrwt>
<totfact> 0.94597182E+04</totfact>
</mgrwt>
</event>
<event>
 4    1  0.4199481E+000  0.2206940E+03  0.7546771E-02  0.1133367E+00
         21   -1    0    0  501  502  0.00000000000E+00  0.00000000000E+00  0.68284312999E+02  0.68284312999E+02  0.00000000000E+00 0.  1.
         21   -1    0    0  502  503 -0.00000000000E+00 -0.00000000000E+00 -0.82866249618E+03  0.82866249618E+03  0.00000000000E+00 0. -1.
          6    1    1    2  501    0 -0.11425511596E+03 -0.75647960835E+02 -0.54753593358E+03  0.59034010880E+03  0.17300000000E+03 0. -1.
         -6    1    1    2    0  503  0.11425511596E+03  0.75647960835E+02 -0.21284224961E+03  0.30660670038E+03  0.17300000000E+03 0.  1.
<mgrwt>
<rscale>  2 0.22069401E+03</rscale>
<asrwt>0</asrwt>
<pdfrwt beam="1">  1       21 0.10505279E-01 0.22069401E+03</pdfrwt>
<pdfrwt beam="2">  1       21 0.12748654E+00 0.22069401E+03</pdfrwt>
<totfact> 0.33231141E+04</totfact>
</mgrwt>
</event>
<event>
 4    1  0.4199481E+000  0.2442201E+03  0.7546771E-02  0.1117013E+00
         21   -1    0    0  503  502  0.00000000000E+00  0.00000000000E+00  0.29810885676E+03  0.29810885676E+03  0.00000000000E+00 0. -1.
         21   -1    0    0  501  503 -0.00000000000E+00 -0.00000000000E+00 -0.22493853696E+03  0.22493853696E+03  0.00000000000E+00 0.  1.
          6    1    1    2  501    0  0.71024189966E+02 -0.15706691794E+03 -0.50367006802E+02  0.24935975547E+03  0.17300000000E+03 0. -1.
         -6    1    1    2    0  502 -0.71024189966E+02  0.15706691794E+03  0.12353732660E+03  0.27368763826E+03  0.17300000000E+03 0.  1.
<mgrwt>
<rscale>  2 0.24422009E+03</rscale>
<asrwt>0</asrwt>
<pdfrwt beam="1">  1       21 0.45862901E-01 0.24422009E+03</pdfrwt>
<pdfrwt beam="2">  1       21 0.34605929E-01 0.24422009E+03</pdfrwt>
<totfact> 0.35767264E+04</totfact>
</mgrwt>
</event>
<event>
 4    1  0.4199481E+000  0.2751026E+03  0.7546771E-02  0.1098394E+00
         21   -1    0    0  503  502  0.00000000000E+00  0.00000000000E+00  0.13244636088E+03  0.13244636088E+03  0.00000000000E+00 0.  1.
         21   -1    0    0  501  503 -0.00000000000E+00 -0.00000000000E+00 -0.19278309953E+04  0.19278309953E+04  0.00000000000E+00 0. -1.
          6    1    1    2  501    0  0.20441651258E+03  0.62978902348E+02 -0.17617806287E+04  0.17831299550E+04  0.17300000000E+03 0. -1.
         -6    1    1    2    0  502 -0.20441651258E+03 -0.62978902348E+02 -0.33604005676E+02  0.27714740113E+03  0.17300000000E+03 0.  1.
<mgrwt>
<rscale>  2 0.27510262E+03</rscale>
<asrwt>0</asrwt>
<pdfrwt beam="1">  1       21 0.20376365E-01 0.27510262E+03</pdfrwt>
<pdfrwt beam="2">  1       21 0.29658936E+00 0.27510262E+03</pdfrwt>
<totfact> 0.72400383E+02</totfact>
</mgrwt>
</event>
<event>
 4    1  0.4199481E+000  0.2437776E+03  0.7546771E-02  0.1117302E+00
         21   -1    0    0  501  502  0.00000000000E+00  0.00000000000E+00  0.11635744934E+03  0.11635744934E+03  0.00000000000E+00 0.  1.
         21   -1    0    0  502  503 -0.00000000000E+00 -0.00000000000E+00 -0.54108274806E+03  0.54108274806E+03  0.00000000000E+00 0. -1.
          6    1    1    2  501    0  0.12488509055E+03  0.11790769321E+03 -0.13450938429E+03  0.27842464765E+03  0.17300000000E+03 0.  1.
         -6    1    1    2    0  503 -0.12488509055E+03 -0.11790769321E+03 -0.29021591444E+03  0.37901554975E+03  0.17300000000E+03 0.  1.
<mgrwt>
<rscale>  2 0.24377758E+03</rscale>
<asrwt>0</asrwt>
<pdfrwt beam="1">  1       21 0.17901146E-01 0.24377758E+03</pdfrwt>
<pdfrwt beam="2">  1       21 0.83243501E-01 0.24377758E+03</pdfrwt>
<totfact> 0.34742279E+04</totfact>
</mgrwt>
</event>
<event>
 4    1  0.4199481E+000  0.2304499E+03  0.7546771E-02  0.1126324E+00
         21   -1    0    0  503  502  0.00000000000E+00  0.00000000000E+00  0.68175406808E+03  0.68175406808E+03  0.00000000000E+00 0.  1.
         21   -1    0    0  501  503 -0.00000000000E+00 -0.00000000000E+00 -0.88246932650E+02  0.88246932650E+02  0.00000000000E+00 0.  1.
          6    1    1    2  501    0  0.15177085011E+03 -0.11989603688E+02  0.16490862471E+03  0.28337606823E+03  0.17300000000E+03 0.  1.
         -6    1    1    2    0  502 -0.15177085011E+03  0.11989603688E+02  0.42859851073E+03  0.48662493251E+03  0.17300000000E+03 0.  1.
<mgrwt>
<rscale>  2 0.23044987E+03</rscale>
<asrwt>0</asrwt>
<pdfrwt beam="1">  1       21 0.10488524E+00 0.23044987E+03</pdfrwt>
<pdfrwt beam="2">  1       21 0.13576452E-01 0.23044987E+03</pdfrwt>
<totfact> 0.33742937E+04</totfact>
</mgrwt>
</event>
<event>
 4    1  0.4199481E+000  0.2090882E+03  0.7546771E-02  0.1142290E+00
         21   -1    0    0  503  502  0.00000000000E+00  0.00000000000E+00  0.24063344783E+03  0.24063344783E+03  0.00000000000E+00 0.  1.
         21   -1    0    0  501  503 -0.00000000000E+00 -0.00000000000E+00 -0.39285894251E+03  0.39285894251E+03  0.00000000000E+00 0. -1.
          6    1    1    2  501    0  0.64846340840E+02  0.97897012822E+02 -0.30834372473E+03  0.37255029945E+03  0.17300000000E+03 0. -1.
         -6    1    1    2    0  502 -0.64846340840E+02 -0.97897012822E+02  0.15611823006E+03  0.26094209089E+03  0.17300000000E+03 0.  1.
<mgrwt>
<rscale>  2 0.20908819E+03</rscale>
<asrwt>0</asrwt>
<pdfrwt beam="1">  1       21 0.37020531E-01 0.20908819E+03</pdfrwt>
<pdfrwt beam="2">  1       21 0.60439837E-01 0.20908819E+03</pdfrwt>
<totfact> 0.17771133E+04</totfact>
</mgrwt>
</event>
<event>
 4    1  0.4199481E+000  0.3099301E+03  0.7546771E-02  0.1080379E+00
         21   -1    0    0  503  502  0.00000000000E+00  0.00000000000E+00  0.15226055145E+04  0.15226055145E+04  0.00000000000E+00 0. -1.
         21   -1    0    0  501  503 -0.00000000000E+00 -0.00000000000E+00 -0.16548582745E+03  0.16548582745E+03  0.00000000000E+00 0.  1.
          6    1    1    2  501    0 -0.20410886415E+03 -0.15642014942E+03  0.14613585210E+02  0.31027447275E+03  0.17300000000E+03 0.  1.
         -6    1    1    2    0  502  0.20410886415E+03  0.15642014942E+03  0.13425061018E+04  0.13778168692E+04  0.17300000000E+03 0. -1.
<mgrwt>
<rscale>  2 0.30993014E+03</rscale>
<asrwt>0</asrwt>
<pdfrwt beam="1">  1       21 0.23424699E+00 0.30993014E+03</pdfrwt>
<pdfrwt beam="2">  1       21 0.25459359E-01 0.30993014E+03</pdfrwt>
<totfact> 0.10818699E+03</totfact>
</mgrwt>
</event>
<event>
 4    1  0.4199481E+000  0.1965313E+03  0.7546771E-02  0.1152699E+00
         21   -1    0    0  503  502  0.00000000000E+00  0.00000000000E+00  0.24400878564E+02  0.24400878564E+02  0.00000000000E+00 0.  1.
         21   -1    0    0  501  503 -0.00000000000E+00 -0.00000000000E+00 -0.17532653326E+04  0.17532653326E+04  0.00000000000E+00 0.  1.
          6    1    1    2  501    0 -0.55307960117E+02  0.75077173629E+02 -0.11414872472E+04  0.11582822143E+04  0.17300000000E+03 0.  1.
         -6    1    1    2    0  502  0.55307960117E+02 -0.75077173629E+02 -0.58737720679E+03  0.61938399681E+03  0.17300000000E+03 0.  1.
<mgrwt>
<rscale>  2 0.19653130E+03</rscale>
<asrwt>0</asrwt>
<pdfrwt beam="1">  1       21 0.37539809E-02 0.19653130E+03</pdfrwt>
<pdfrwt beam="2">  1       21 0.26973315E+00 0.19653130E+03</pdfrwt>
<totfact> 0.22153397E+04</totfact>
</mgrwt>
</event>
<event>
 4    1  0.4199481E+000  0.2037529E+03  0.7546771E-02  0.1146611E+00
         21   -1    0    0  501  502  0.00000000000E+00  0.00000000000E+00  0.14945288318E+03  0.14945288318E+03  0.00000000000E+00 0.  1.
         21   -1    0    0  502  503 -0.00000000000E+00 -0.00000000000E+00 -0.35165115373E+03  0.35165115373E+03  0.00000000000E+00 0.  1.
          6    1    1    2  501    0  0.34722167466E+02  0.10188527930E+03  0.13736070273E+02  0.20421537327E+03  0.17300000000E+03 0.  1.
         -6    1    1    2    0  503 -0.34722167466E+02 -0.10188527930E+03 -0.21593434083E+03  0.29688866364E+03  0.17300000000E+03 0.  1.
<mgrwt>
<rscale>  2 0.20375289E+03</rscale>
<asrwt>0</asrwt>
<pdfrwt beam="1">  1       21 0.22992751E-01 0.20375289E+03</pdfrwt>
<pdfrwt beam="2">  1       21 0.54100177E-01 0.20375289E+03</pdfrwt>
<totfact> 0.57057673E+04</totfact>
</mgrwt>
</event>
<event>
 4    1  0.4199481E+000  0.2207123E+03  0.7546771E-02  0.1133353E+00
         21   -1    0    0  503  502  0.00000000000E+00  0.00000000000E+00  0.12288827708E+03  0.12288827708E+03  0.00000000000E+00 0.  1.
         21   -1    0    0  501  503 -0.00000000000E+00 -0.00000000000E+00 -0.46614849202E+03  0.46614849202E+03  0.00000000000E+00 0.  1.
          6    1    1    2  501    0 -0.45192458497E+01 -0.13698361430E+03 -0.28554796482E+03  0.36090382983E+03  0.17300000000E+03 0. -1.
         -6    1    1    2    0  502  0.45192458497E+01  0.13698361430E+03 -0.57712250118E+02  0.22813293928E+03  0.17300000000E+03 0. -1.
<mgrwt>
<rscale>  2 0.22071233E+03</rscale>
<asrwt>0</asrwt>
<pdfrwt beam="1">  1       21 0.18905889E-01 0.22071233E+03</pdfrwt>
<pdfrwt beam="2">  1       21 0.71715151E-01 0.22071233E+03</pdfrwt>
<totfact> 0.44403360E+04</totfact>
</mgrwt>
</event>
<event>
 4    1  0.4199481E+000  0.1899480E+03  0.7546771E-02  0.1158508E+00
         21   -1    0    0  503  502  0.00000000000E+00  0.00000000000E+00  0.16679936541E+03  0.16679936541E+03  0.00000000000E+00 0. -1.
         21   -1    0    0  501  503 -0.00000000000E+00 -0.00000000000E+00 -0.21762150410E+03  0.21762150410E+03  0.00000000000E+00 0. -1.
          6    1    1    2  501    0 -0.37603950318E+02  0.68827163234E+02 -0.40337126461E+02  0.19418372550E+03  0.17300000000E+03 0. -1.
         -6    1    1    2    0  502  0.37603950318E+02 -0.68827163234E+02 -0.10485012235E+02  0.19023714401E+03  0.17300000000E+03 0. -1.
<mgrwt>
<rscale>  2 0.18994798E+03</rscale>
<asrwt>0</asrwt>
<pdfrwt beam="1">  1       21 0.25661441E-01 0.18994798E+03</pdfrwt>
<pdfrwt beam="2">  1       21 0.33480231E-01 0.18994798E+03</pdfrwt>
<totfact> 0.12392596E+05</totfact>
</mgrwt>
</event>
<event>
 4    1  0.4199481E+000  0.2871915E+03  0.7546771E-02  0.1091825E+00
         21   -1    0    0  503  502  0.00000000000E+00  0.00000000000E+00  0.20371326100E+04  0.20371326100E+04  0.00000000000E+00 0. -1.
         21   -1    0    0  501  503 -0.00000000000E+00 -0.00000000000E+00 -0.11873627679E+03  0.11873627679E+03  0.00000000000E+00 0. -1.
          6    1    1    2  501    0  0.14569102286E+03  0.17698606461E+03  0.84136445908E+02  0.29926223072E+03  0.17300000000E+03 0. -1.
         -6    1    1    2    0  502 -0.14569102286E+03 -0.17698606461E+03  0.18342598873E+04  0.18566066561E+04  0.17300000000E+03 0. -1.
<mgrwt>
<rscale>  2 0.28719147E+03</rscale>
<asrwt>0</asrwt>
<pdfrwt beam="1">  1       21 0.31340499E+00 0.28719147E+03</pdfrwt>
<pdfrwt beam="2">  1       21 0.18267121E-01 0.28719147E+03</pdfrwt>
<totfact> 0.69984787E+02</totfact>
</mgrwt>
</event>
<event>
 4    1  0.4199481E+000  0.1792240E+03  0.7546771E-02  0.1168556E+00
         21   -1    0    0  503  502  0.00000000000E+00  0.00000000000E+00  0.89269341587E+03  0.89269341587E+03  0.00000000000E+00 0.  1.
         21   -1    0    0  501  503 -0.00000000000E+00 -0.00000000000E+00 -0.47646461680E+02  0.47646461680E+02  0.00000000000E+00 0.  1.
          6    1    1    2  501    0 -0.29061509804E+02 -0.36710642806E+02  0.18989406630E+03  0.26111491544E+03  0.17300000000E+03 0.  1.
         -6    1    1    2    0  502  0.29061509804E+02  0.36710642806E+02  0.65515288788E+03  0.67922496211E+03  0.17300000000E+03 0.  1.
<mgrwt>
<rscale>  2 0.17922400E+03</rscale>
<asrwt>0</asrwt>
<pdfrwt beam="1">  1       21 0.13733744E+00 0.17922400E+03</pdfrwt>
<pdfrwt beam="2">  1       21 0.73302255E-02 0.17922400E+03</pdfrwt>
<totfact> 0.52895657E+04</totfact>
</mgrwt>
</event>
<event>
 4    1  0.4199481E+000  0.1737726E+03  0.7546771E-02  0.1173970E+00
         21   -1    0    0  503  502  0.00000000000E+00  0.00000000000E+00  0.21224041036E+03  0.21224041036E+03  0.00000000000E+00 0. -1.
         21   -1    0    0  501  503 -0.00000000000E+00 -0.00000000000E+00 -0.22431559389E+03  0.22431559389E+03  0.00000000000E+00 0. -1.
          6    1    1    2  501    0  0.15537289084E+02 -0.51501890631E+01 -0.13804226448E+03  0.22192926482E+03  0.17300000000E+03 0. -1.
         -6    1    1    2    0  502 -0.15537289084E+02  0.51501890631E+01  0.12596708095E+03  0.21462673944E+03  0.17300000000E+03 0. -1.
<mgrwt>
<rscale>  2 0.17377264E+03</rscale>
<asrwt>0</asrwt>
<pdfrwt beam="1">  1       21 0.32652371E-01 0.17377264E+03</pdfrwt>
<pdfrwt beam="2">  1       21 0.34510091E-01 0.17377264E+03</pdfrwt>
<totfact> 0.73635200E+04</totfact>
</mgrwt>
</event>
<event>
 4    1  0.4199481E+000  0.2052549E+03  0.7546771E-02  0.1145380E+00
         21   -1    0    0  503  502  0.00000000000E+00  0.00000000000E+00  0.73913626816E+03  0.73913626816E+03  0.00000000000E+00 0. -1.
         21   -1    0    0  501  503 -0.00000000000E+00 -0.00000000000E+00 -0.57059382766E+02  0.57059382766E+02  0.00000000000E+00 0. -1.
          6    1    1    2  501    0 -0.10245393018E+03 -0.41276501746E+02  0.35405694781E+03  0.40925038754E+03  0.17300000000E+03 0. -1.
         -6    1    1    2    0  502  0.10245393018E+03  0.41276501746E+02  0.32801993758E+03  0.38694526338E+03  0.17300000000E+03 0. -1.
<mgrwt>
<rscale>  2 0.20525486E+03</rscale>
<asrwt>0</asrwt>
<pdfrwt beam="1">  1       21 0.11371327E+00 0.20525486E+03</pdfrwt>
<pdfrwt beam="2">  1       21 0.87783671E-02 0.20525486E+03</pdfrwt>
<totfact> 0.61100723E+04</totfact>
</mgrwt>
</event>
<event>
 4    1  0.4199481E+000  0.3096173E+03  0.7546771E-02  0.1080529E+00
         21   -1    0    0  501  502  0.00000000000E+00  0.00000000000E+00  0.29776636559E+03  0.29776636559E+03  0.00000000000E+00 0.  1.
         21   -1    0    0  502  503 -0.00000000000E+00 -0.00000000000E+00 -0.35311603917E+03  0.35311603917E+03  0.00000000000E+00 0.  1.
          6    1    1    2  501    0  0.23842524185E+03  0.95327059500E+02 -0.12437465885E+03  0.33366435229E+03  0.17300000000E+03 0.  1.
         -6    1    1    2    0  503 -0.23842524185E+03 -0.95327059500E+02  0.69024985271E+02  0.31721805248E+03  0.17300000000E+03 0.  1.
<mgrwt>
<rscale>  2 0.30961725E+03</rscale>
<asrwt>0</asrwt>
<pdfrwt beam="1">  1       21 0.45810210E-01 0.30961725E+03</pdfrwt>
<pdfrwt beam="2">  1       21 0.54325544E-01 0.30961725E+03</pdfrwt>
<totfact> 0.13761058E+04</totfact>
</mgrwt>
</event>
<event>
 4    1  0.4199481E+000  0.2549949E+03  0.7546771E-02  0.1110188E+00
         21   -1    0    0  503  502  0.00000000000E+00  0.00000000000E+00  0.93938186724E+03  0.93938186724E+03  0.00000000000E+00 0.  1.
         21   -1    0    0  501  503 -0.00000000000E+00 -0.00000000000E+00 -0.71743440153E+02  0.71743440153E+02  0.00000000000E+00 0.  1.
          6    1    1    2  501    0  0.18382138584E+03 -0.36098691777E+02  0.33897158231E+03  0.42417467045E+03  0.17300000000E+03 0.  1.
         -6    1    1    2    0  502 -0.18382138584E+03  0.36098691777E+02  0.52866684479E+03  0.58695063695E+03  0.17300000000E+03 0.  1.
<mgrwt>
<rscale>  2 0.25499494E+03</rscale>
<asrwt>0</asrwt>
<pdfrwt beam="1">  1       21 0.14452028E+00 0.25499494E+03</pdfrwt>
<pdfrwt beam="2">  1       21 0.11037453E-01 0.25499494E+03</pdfrwt>
<totfact> 0.21635098E+04</totfact>
</mgrwt>
</event>
<event>
 4    1  0.4199481E+000  0.3036192E+03  0.7546771E-02  0.1083445E+00
         21   -1    0    0  501  502  0.00000000000E+00  0.00000000000E+00  0.34117434189E+03  0.34117434189E+03  0.00000000000E+00 0. -1.
         21   -1    0    0  502  503 -0.00000000000E+00 -0.00000000000E+00 -0.36637314999E+03  0.36637314999E+03  0.00000000000E+00 0. -1.
          6    1    1    2  501    0  0.33213094459E+02  0.24729029193E+03 -0.19385665702E+03  0.36022909599E+03  0.17300000000E+03 0. -1.
         -6    1    1    2    0  503 -0.33213094459E+02 -0.24729029193E+03  0.16865784891E+03  0.34731839590E+03  0.17300000000E+03 0. -1.
<mgrwt>
<rscale>  2 0.30361917E+03</rscale>
<asrwt>0</asrwt>
<pdfrwt beam="1">  1       21 0.52488360E-01 0.30361917E+03</pdfrwt>
<pdfrwt beam="2">  1       21 0.56365100E-01 0.30361917E+03</pdfrwt>
<totfact> 0.95764326E+03</totfact>
</mgrwt>
</event>
<event>
 4    1  0.4199481E+000  0.1792166E+03  0.7546771E-02  0.1168563E+00
         21   -1    0    0  501  502  0.00000000000E+00  0.00000000000E+00  0.77082578412E+03  0.77082578412E+03  0.00000000000E+00 0. -1.
         21   -1    0    0  502  503 -0.00000000000E+00 -0.00000000000E+00 -0.41676548668E+02  0.41676548668E+02  0.00000000000E+00 0. -1.
          6    1    1    2  501    0 -0.34629531984E+02 -0.31470338899E+02  0.37047277003E+03  0.41154423827E+03  0.17300000000E+03 0. -1.
         -6    1    1    2    0  503  0.34629531984E+02  0.31470338899E+02  0.35867646542E+03  0.40095809452E+03  0.17300000000E+03 0. -1.
<mgrwt>
<rscale>  2 0.17921659E+03</rscale>
<asrwt>0</asrwt>
<pdfrwt beam="1">  1       21 0.11858857E+00 0.17921659E+03</pdfrwt>
<pdfrwt beam="2">  1       21 0.64117773E-02 0.17921659E+03</pdfrwt>
<totfact> 0.96251565E+04</totfact>
</mgrwt>
</event>
<event>
 4    1  0.4199481E+000  0.2010038E+03  0.7546771E-02  0.1148895E+00
         21   -1    0    0  503  502  0.00000000000E+00  0.00000000000E+00  0.31142599229E+03  0.31142599229E+03  0.00000000000E+00 0. -1.
         21   -1    0    0  501  503 -0.00000000000E+00 -0.00000000000E+00 -0.27963908623E+03  0.27963908623E+03  0.00000000000E+00 0.  1.
          6    1    1    2  501    0  0.94562771582E+02  0.39133372229E+02 -0.20048527203E+03  0.28389590151E+03  0.17300000000E+03 0.  1.
         -6    1    1    2    0  502 -0.94562771582E+02 -0.39133372229E+02  0.23227217810E+03  0.30716917702E+03  0.17300000000E+03 0. -1.
<mgrwt>
<rscale>  2 0.20100383E+03</rscale>
<asrwt>0</asrwt>
<pdfrwt beam="1">  1       21 0.47911691E-01 0.20100383E+03</pdfrwt>
<pdfrwt beam="2">  1       21 0.43021398E-01 0.20100383E+03</pdfrwt>
<totfact> 0.21526250E+04</totfact>
</mgrwt>
</event>
<event>
 4    1  0.4199481E+000  0.1932589E+03  0.7546771E-02  0.1155554E+00
         21   -1    0    0  503  502  0.00000000000E+00  0.00000000000E+00  0.18404443753E+03  0.18404443753E+03  0.00000000000E+00 0.  1.
         21   -1    0    0  501  503 -0.00000000000E+00 -0.00000000000E+00 -0.20725826113E+03  0.20725826113E+03  0.00000000000E+00 0.  1.
          6    1    1    2  501    0  0.70316214263E+02  0.49755751926E+02 -0.39865284286E+02  0.19732776219E+03  0.17300000000E+03 0.  1.
         -6    1    1    2    0  502 -0.70316214263E+02 -0.49755751926E+02  0.16651460683E+02  0.19397493648E+03  0.17300000000E+03 0.  1.
<mgrwt>
<rscale>  2 0.19325891E+03</rscale>
<asrwt>0</asrwt>
<pdfrwt beam="1">  1       21 0.28314529E-01 0.19325891E+03</pdfrwt>
<pdfrwt beam="2">  1       21 0.31885886E-01 0.19325891E+03</pdfrwt>
<totfact> 0.11275475E+05</totfact>
</mgrwt>
</event>
<event>
 4    1  0.4199481E+000  0.1896391E+03  0.7546771E-02  0.1158787E+00
         21   -1    0    0  501  502  0.00000000000E+00  0.00000000000E+00  0.22839400082E+03  0.22839400082E+03  0.00000000000E+00 0. -1.
         21   -1    0    0  502  503 -0.00000000000E+00 -0.00000000000E+00 -0.15749011503E+03  0.15749011503E+03  0.00000000000E+00 0.  1.
          6    1    1    2  501    0 -0.77468706556E+02 -0.57094851252E+01  0.32799339646E+02  0.19245465803E+03  0.17300000000E+03 0. -1.
         -6    1    1    2    0  503  0.77468706556E+02  0.57094851252E+01  0.38104546138E+02  0.19342945782E+03  0.17300000000E+03 0.  1.
<mgrwt>
<rscale>  2 0.18963913E+03</rscale>
<asrwt>0</asrwt>
<pdfrwt beam="1">  1       21 0.35137538E-01 0.18963913E+03</pdfrwt>
<pdfrwt beam="2">  1       21 0.24229249E-01 0.18963913E+03</pdfrwt>
<totfact> 0.12567897E+05</totfact>
</mgrwt>
</event>
<event>
 4    1  0.4199481E+000  0.2385237E+03  0.7546771E-02  0.1120780E+00
         21   -1    0    0  503  502  0.00000000000E+00  0.00000000000E+00  0.41499394179E+03  0.41499394179E+03  0.00000000000E+00 0. -1.
         21   -1    0    0  501  503 -0.00000000000E+00 -0.00000000000E+00 -0.18246195450E+03  0.18246195450E+03  0.00000000000E+00 0. -1.
          6    1    1    2  501    0  0.70630672552E+02 -0.14824255137E+03 -0.32690714799E+02  0.24075346057E+03  0.17300000000E+03 0. -1.
         -6    1    1    2    0  502 -0.70630672552E+02  0.14824255137E+03  0.26522270209E+03  0.35670243572E+03  0.17300000000E+03 0. -1.
<mgrwt>
<rscale>  2 0.23852368E+03</rscale>
<asrwt>0</asrwt>
<pdfrwt beam="1">  1       21 0.63845221E-01 0.23852368E+03</pdfrwt>
<pdfrwt beam="2">  1       21 0.28071070E-01 0.23852368E+03</pdfrwt>
<totfact> 0.26815421E+04</totfact>
</mgrwt>
</event>
<event>
 4    1  0.4199481E+000  0.1834043E+03  0.7546771E-02  0.1164548E+00
         21   -1    0    0  503  502  0.00000000000E+00  0.00000000000E+00  0.41543081879E+03  0.41543081879E+03  0.00000000000E+00 0.  1.
         21   -1    0    0  501  503 -0.00000000000E+00 -0.00000000000E+00 -0.18550377759E+03  0.18550377759E+03  0.00000000000E+00 0.  1.
          6    1    1    2  501    0 -0.37030132657E+02 -0.48341512832E+02 -0.11059054490E+03  0.21416676028E+03  0.17300000000E+03 0.  1.
         -6    1    1    2    0  502  0.37030132657E+02  0.48341512832E+02  0.34051758611E+03  0.38676783609E+03  0.17300000000E+03 0.  1.
<mgrwt>
<rscale>  2 0.18340429E+03</rscale>
<asrwt>0</asrwt>
<pdfrwt beam="1">  1       21 0.63912433E-01 0.18340429E+03</pdfrwt>
<pdfrwt beam="2">  1       21 0.28539043E-01 0.18340429E+03</pdfrwt>
<totfact> 0.26684408E+04</totfact>
</mgrwt>
</event>
<event>
 4    1  0.4199481E+000  0.1993789E+03  0.7546771E-02  0.1150264E+00
         21   -1    0    0  503  502  0.00000000000E+00  0.00000000000E+00  0.75157163268E+02  0.75157163268E+02  0.00000000000E+00 0. -1.
         21   -1    0    0  501  503 -0.00000000000E+00 -0.00000000000E+00 -0.66775769346E+03  0.66775769346E+03  0.00000000000E+00 0. -1.
          6    1    1    2  501    0  0.70244101218E+02  0.69919359120E+02 -0.46567824954E+03  0.50656508232E+03  0.17300000000E+03 0. -1.
         -6    1    1    2    0  502 -0.70244101218E+02 -0.69919359120E+02 -0.12692228066E+03  0.23634977441E+03  0.17300000000E+03 0. -1.
<mgrwt>
<rscale>  2 0.19937891E+03</rscale>
<asrwt>0</asrwt>
<pdfrwt beam="1">  1       21 0.11562640E-01 0.19937891E+03</pdfrwt>
<pdfrwt beam="2">  1       21 0.10273196E+00 0.19937891E+03</pdfrwt>
<totfact> 0.48106600E+04</totfact>
</mgrwt>
</event>
<event>
 4    1  0.4199481E+000  0.2055506E+03  0.7546771E-02  0.1145139E+00
         21   -1    0    0  503  502  0.00000000000E+00  0.00000000000E+00  0.50920158835E+03  0.50920158835E+03  0.00000000000E+00 0.  1.
         21   -1    0    0  501  503 -0.00000000000E+00 -0.00000000000E+00 -0.20090392003E+03  0.20090392003E+03  0.00000000000E+00 0. -1.
          6    1    1    2  501    0  0.10289370656E+03 -0.41652766793E+02 -0.11787603017E+03  0.23695110534E+03  0.17300000000E+03 0. -1.
         -6    1    1    2    0  502 -0.10289370656E+03  0.41652766793E+02  0.42617369849E+03  0.47315440304E+03  0.17300000000E+03 0.  1.
<mgrwt>
<rscale>  2 0.20555065E+03</rscale>
<asrwt>0</asrwt>
<pdfrwt beam="1">  1       21 0.78338705E-01 0.20555065E+03</pdfrwt>
<pdfrwt beam="2">  1       21 0.30908296E-01 0.20555065E+03</pdfrwt>
<totfact> 0.14376833E+04</totfact>
</mgrwt>
</event>
<event>
 4    1  0.4199481E+000  0.1960998E+03  0.7546771E-02  0.1153072E+00
         21   -1    0    0  503  502  0.00000000000E+00  0.00000000000E+00  0.29432199818E+03  0.29432199818E+03  0.00000000000E+00 0. -1.
         21   -1    0    0  501  503 -0.00000000000E+00 -0.00000000000E+00 -0.18311474969E+03  0.18311474969E+03  0.00000000000E+00 0. -1.
          6    1    1    2  501    0  0.92499103929E+01  0.91872590435E+02 -0.72166805800E+02  0.20895736784E+03  0.17300000000E+03 0. -1.
         -6    1    1    2    0  502 -0.92499103929E+01 -0.91872590435E+02  0.18337405429E+03  0.26847938003E+03  0.17300000000E+03 0. -1.
<mgrwt>
<rscale>  2 0.19609981E+03</rscale>
<asrwt>0</asrwt>
<pdfrwt beam="1">  1       21 0.45280307E-01 0.19609981E+03</pdfrwt>
<pdfrwt beam="2">  1       21 0.28171500E-01 0.19609981E+03</pdfrwt>
<totfact> 0.56242013E+04</totfact>
</mgrwt>
</event>
<event>
 4    1  0.4199481E+000  0.3961164E+03  0.7546771E-02  0.1045133E+00
         21   -1    0    0  501  502  0.00000000000E+00  0.00000000000E+00  0.14448517025E+03  0.14448517025E+03  0.00000000000E+00 0. -1.
         21   -1    0    0  502  503 -0.00000000000E+00 -0.00000000000E+00 -0.11282412286E+04  0.11282412286E+04  0.00000000000E+00 0.  1.
          6    1    1    2  501    0 -0.27292273394E+03  0.22911219960E+03 -0.36871863618E+03  0.54116693485E+03  0.17300000000E+03 0. -1.
         -6    1    1    2    0  503  0.27292273394E+03 -0.22911219960E+03 -0.61503742213E+03  0.73155946397E+03  0.17300000000E+03 0.  1.
<mgrwt>
<rscale>  2 0.39611642E+03</rscale>
<asrwt>0</asrwt>
<pdfrwt beam="1">  1       21 0.22228489E-01 0.39611642E+03</pdfrwt>
<pdfrwt beam="2">  1       21 0.17357557E+00 0.39611642E+03</pdfrwt>
<totfact> 0.33519708E+03</totfact>
</mgrwt>
</event>
<event>
 4    1  0.4199481E+000  0.1831683E+03  0.7546771E-02  0.1164772E+00
         21   -1    0    0  501  502  0.00000000000E+00  0.00000000000E+00  0.68459955457E+02  0.68459955457E+02  0.00000000000E+00 0. -1.
         21   -1    0    0  502  503 -0.00000000000E+00 -0.00000000000E+00 -0.50563030183E+03  0.50563030183E+03  0.00000000000E+00 0. -1.
          6    1    1    2  501    0  0.53687856295E+02 -0.27188794696E+02 -0.16824071297E+03  0.24870776821E+03  0.17300000000E+03 0. -1.
         -6    1    1    2    0  503 -0.53687856295E+02  0.27188794696E+02 -0.26892963340E+03  0.32538248907E+03  0.17300000000E+03 0. -1.
<mgrwt>
<rscale>  2 0.18316827E+03</rscale>
<asrwt>0</asrwt>
<pdfrwt beam="1">  1       21 0.10532301E-01 0.18316827E+03</pdfrwt>
<pdfrwt beam="2">  1       21 0.77789278E-01 0.18316827E+03</pdfrwt>
<totfact> 0.10884714E+05</totfact>
</mgrwt>
</event>
<event>
 4    1  0.4199481E+000  0.2014723E+03  0.7546771E-02  0.1148503E+00
         21   -1    0    0  501  502  0.00000000000E+00  0.00000000000E+00  0.37123418851E+03  0.37123418851E+03  0.00000000000E+00 0. -1.
         21   -1    0    0  502  503 -0.00000000000E+00 -0.00000000000E+00 -0.26929588688E+03  0.26929588688E+03  0.00000000000E+00 0.  1.
          6    1    1    2  501    0  0.97248571956E+02  0.34710324639E+02  0.29779663820E+03  0.35954683854E+03  0.17300000000E+03 0. -1.
         -6    1    1    2    0  503 -0.97248571956E+02 -0.34710324639E+02 -0.19585833657E+03  0.28098323685E+03  0.17300000000E+03 0.  1.
<mgrwt>
<rscale>  2 0.20147231E+03</rscale>
<asrwt>0</asrwt>
<pdfrwt beam="1">  1       21 0.57112952E-01 0.20147231E+03</pdfrwt>
<pdfrwt beam="2">  1       21 0.41430136E-01 0.20147231E+03</pdfrwt>
<totfact> 0.16063398E+04</totfact>
</mgrwt>
</event>
<event>
 4    1  0.4199481E+000  0.1778820E+03  0.7546771E-02  0.1169869E+00
         21   -1    0    0  503  502  0.00000000000E+00  0.00000000000E+00  0.45524181916E+03  0.45524181916E+03  0.00000000000E+00 0.  1.
         21   -1    0    0  501  503 -0.00000000000E+00 -0.00000000000E+00 -0.74025975291E+02  0.74025975291E+02  0.00000000000E+00 0.  1.
          6    1    1    2  501    0  0.19442976085E+02  0.36537363395E+02  0.12521593074E+03  0.21753399172E+03  0.17300000000E+03 0.  1.
         -6    1    1    2    0  502 -0.19442976085E+02 -0.36537363395E+02  0.25599991314E+03  0.31173380274E+03  0.17300000000E+03 0.  1.
<mgrwt>
<rscale>  2 0.17788201E+03</rscale>
<asrwt>0</asrwt>
<pdfrwt beam="1">  1       21 0.70037201E-01 0.17788201E+03</pdfrwt>
<pdfrwt beam="2">  1       21 0.11388612E-01 0.17788201E+03</pdfrwt>
<totfact> 0.11988146E+05</totfact>
</mgrwt>
</event>
<event>
 4    1  0.4199481E+000  0.1893071E+03  0.7546771E-02  0.1159088E+00
         21   -1    0    0  503  502  0.00000000000E+00  0.00000000000E+00  0.41835661468E+02  0.41835661468E+02  0.00000000000E+00 0. -1.
         21   -1    0    0  501  503 -0.00000000000E+00 -0.00000000000E+00 -0.10578716059E+04  0.10578716059E+04  0.00000000000E+00 0. -1.
          6    1    1    2  501    0 -0.45318999746E+02  0.62083659710E+02 -0.74784722147E+03  0.77143545368E+03  0.17300000000E+03 0. -1.
         -6    1    1    2    0  502  0.45318999746E+02 -0.62083659710E+02 -0.26818872301E+03  0.32827181373E+03  0.17300000000E+03 0. -1.
<mgrwt>
<rscale>  2 0.18930714E+03</rscale>
<asrwt>0</asrwt>
<pdfrwt beam="1">  1       21 0.64362561E-02 0.18930714E+03</pdfrwt>
<pdfrwt beam="2">  1       21 0.16274946E+00 0.18930714E+03</pdfrwt>
<totfact> 0.42102391E+04</totfact>
</mgrwt>
</event>
<event>
 4    1  0.4199481E+000  0.3425298E+03  0.7546771E-02  0.1065724E+00
         21   -1    0    0  503  502  0.00000000000E+00  0.00000000000E+00  0.74139779920E+02  0.74139779920E+02  0.00000000000E+00 0. -1.
         21   -1    0    0  501  503 -0.00000000000E+00 -0.00000000000E+00 -0.15827884110E+04  0.15827884110E+04  0.00000000000E+00 0.  1.
          6    1    1    2  501    0 -0.12716979757E+03 -0.26688109586E+03 -0.74326597703E+03  0.81839537472E+03  0.17300000000E+03 0.  1.
         -6    1    1    2    0  502  0.12716979757E+03  0.26688109586E+03 -0.76538265408E+03  0.83853281624E+03  0.17300000000E+03 0.  1.
<mgrwt>
<rscale>  2 0.34252982E+03</rscale>
<asrwt>0</asrwt>
<pdfrwt beam="1">  1       21 0.11406120E-01 0.34252982E+03</pdfrwt>
<pdfrwt beam="2">  1       21 0.24350591E+00 0.34252982E+03</pdfrwt>
<totfact> 0.41553788E+03</totfact>
</mgrwt>
</event>
<event>
 4    1  0.4199481E+000  0.2119646E+03  0.7546771E-02  0.1140020E+00
         21   -1    0    0  503  502  0.00000000000E+00  0.00000000000E+00  0.34508075920E+03  0.34508075920E+03  0.00000000000E+00 0. -1.
         21   -1    0    0  501  503 -0.00000000000E+00 -0.00000000000E+00 -0.43860163852E+03  0.43860163852E+03  0.00000000000E+00 0.  1.
          6    1    1    2  501    0 -0.96349972840E+02 -0.75608759759E+02 -0.37533531879E+03  0.43105174092E+03  0.17300000000E+03 0.  1.
         -6    1    1    2    0  502  0.96349972840E+02  0.75608759759E+02  0.28181443948E+03  0.35263065680E+03  0.17300000000E+03 0. -1.
<mgrwt>
<rscale>  2 0.21196462E+03</rscale>
<asrwt>0</asrwt>
<pdfrwt beam="1">  1       21 0.53089348E-01 0.21196462E+03</pdfrwt>
<pdfrwt beam="2">  1       21 0.67477175E-01 0.21196462E+03</pdfrwt>
<totfact> 0.66559657E+03</totfact>
</mgrwt>
</event>
<event>
 4    1  0.4199481E+000  0.1847023E+03  0.7546771E-02  0.1163328E+00
         21   -1    0    0  501  502  0.00000000000E+00  0.00000000000E+00  0.40761988047E+03  0.40761988047E+03  0.00000000000E+00 0. -1.
         21   -1    0    0  502  503 -0.00000000000E+00 -0.00000000000E+00 -0.94433373542E+02  0.94433373542E+02  0.00000000000E+00 0. -1.
          6    1    1    2  501    0  0.39151434420E+02  0.51508267800E+02  0.24125094911E+03  0.30383705652E+03  0.17300000000E+03 0. -1.
         -6    1    1    2    0  503 -0.39151434420E+02 -0.51508267800E+02  0.71935557816E+02  0.19821619749E+03  0.17300000000E+03 0. -1.
<mgrwt>
<rscale>  2 0.18470229E+03</rscale>
<asrwt>0</asrwt>
<pdfrwt beam="1">  1       21 0.62710750E-01 0.18470229E+03</pdfrwt>
<pdfrwt beam="2">  1       21 0.14528211E-01 0.18470229E+03</pdfrwt>
<totfact> 0.98244691E+04</totfact>
</mgrwt>
</event>
<event>
 4    1  0.4199481E+000  0.2529599E+03  0.7546771E-02  0.1111448E+00
         21   -1    0    0  501  502  0.00000000000E+00  0.00000000000E+00  0.21404482433E+04  0.21404482433E+04  0.00000000000E+00 0.  1.
         21   -1    0    0  502  503 -0.00000000000E+00 -0.00000000000E+00 -0.31612188547E+02  0.31612188547E+02  0.00000000000E+00 0. -1.
          6    1    1    2  501    0 -0.53711113656E+02 -0.17656397940E+03  0.13075356018E+04  0.13317800391E+04  0.17300000000E+03 0.  1.
         -6    1    1    2    0  503  0.53711113656E+02  0.17656397940E+03  0.80130045303E+03  0.84028039283E+03  0.17300000000E+03 0. -1.
<mgrwt>
<rscale>  2 0.25295992E+03</rscale>
<asrwt>0</asrwt>
<pdfrwt beam="1">  1       21 0.32929962E+00 0.25295992E+03</pdfrwt>
<pdfrwt beam="2">  1       21 0.48634153E-02 0.25295992E+03</pdfrwt>
<totfact> 0.61161170E+03</totfact>
</mgrwt>
</event>
<event>
 4    1  0.4199481E+000  0.2409897E+03  0.7546771E-02  0.1119135E+00
         21   -1    0    0  501  502  0.00000000000E+00  0.00000000000E+00  0.81740307520E+03  0.81740307520E+03  0.00000000000E+00 0. -1.
         21   -1    0    0  502  503 -0.00000000000E+00 -0.00000000000E+00 -0.10738520897E+03  0.10738520897E+03  0.00000000000E+00 0.  1.
          6    1    1    2  501    0 -0.63464394759E+02  0.15530389331E+03  0.62398106370E+03  0.66890088693E+03  0.17300000000E+03 0. -1.
         -6    1    1    2    0  503  0.63464394759E+02 -0.15530389331E+03  0.86036802522E+02  0.25588739724E+03  0.17300000000E+03 0.  1.
<mgrwt>
<rscale>  2 0.24098969E+03</rscale>
<asrwt>0</asrwt>
<pdfrwt beam="1">  1       21 0.12575432E+00 0.24098969E+03</pdfrwt>
<pdfrwt beam="2">  1       21 0.16520802E-01 0.24098969E+03</pdfrwt>
<totfact> 0.14988407E+04</totfact>
</mgrwt>
</event>
<event>
 4    1  0.4199481E+000  0.1748141E+03  0.7546771E-02  0.1172919E+00
         21   -1    0    0  503  502  0.00000000000E+00  0.00000000000E+00  0.81847437715E+03  0.81847437715E+03  0.00000000000E+00 0. -1.
         21   -1    0    0  501  503 -0.00000000000E+00 -0.00000000000E+00 -0.83858268665E+02  0.83858268665E+02  0.00000000000E+00 0. -1.
          6    1    1    2  501    0 -0.12122965490E+02  0.21999926858E+02  0.31271776207E+02  0.17758909612E+03  0.17300000000E+03 0. -1.
         -6    1    1    2    0  502  0.12122965490E+02 -0.21999926858E+02  0.70334433228E+03  0.72474354970E+03  0.17300000000E+03 0. -1.
<mgrwt>
<rscale>  2 0.17481408E+03</rscale>
<asrwt>0</asrwt>
<pdfrwt beam="1">  1       21 0.12591913E+00 0.17481408E+03</pdfrwt>
<pdfrwt beam="2">  1       21 0.12901273E-01 0.17481408E+03</pdfrwt>
<totfact> 0.24406743E+04</totfact>
</mgrwt>
</event>
<event>
 4    1  0.4199481E+000  0.1775894E+03  0.7546771E-02  0.1170157E+00
         21   -1    0    0  503  502  0.00000000000E+00  0.00000000000E+00  0.16388307698E+03  0.16388307698E+03  0.00000000000E+00 0. -1.
         21   -1    0    0  501  503 -0.00000000000E+00 -0.00000000000E+00 -0.21189024285E+03  0.21189024285E+03  0.00000000000E+00 0. -1.
          6    1    1    2  501    0 -0.33693107289E+02 -0.21766599574E+02  0.32918275133E+02  0.18061457077E+03  0.17300000000E+03 0. -1.
         -6    1    1    2    0  502  0.33693107289E+02  0.21766599574E+02 -0.80925441004E+02  0.19515874907E+03  0.17300000000E+03 0. -1.
<mgrwt>
<rscale>  2 0.17758944E+03</rscale>
<asrwt>0</asrwt>
<pdfrwt beam="1">  1       21 0.25212781E-01 0.17758944E+03</pdfrwt>
<pdfrwt beam="2">  1       21 0.32598499E-01 0.17758944E+03</pdfrwt>
<totfact> 0.13565529E+05</totfact>
</mgrwt>
</event>
<event>
 4    1  0.4199481E+000  0.1826717E+03  0.7546771E-02  0.1165242E+00
         21   -1    0    0  503  502  0.00000000000E+00  0.00000000000E+00  0.85596585089E+02  0.85596585089E+02  0.00000000000E+00 0. -1.
         21   -1    0    0  501  503 -0.00000000000E+00 -0.00000000000E+00 -0.40277290672E+03  0.40277290672E+03  0.00000000000E+00 0. -1.
          6    1    1    2  501    0  0.56686210976E+02  0.15054248007E+02 -0.20234435933E+03  0.27260263508E+03  0.17300000000E+03 0. -1.
         -6    1    1    2    0  502 -0.56686210976E+02 -0.15054248007E+02 -0.11483196230E+03  0.21576685673E+03  0.17300000000E+03 0. -1.
<mgrwt>
<rscale>  2 0.18267172E+03</rscale>
<asrwt>0</asrwt>
<pdfrwt beam="1">  1       21 0.13168705E-01 0.18267172E+03</pdfrwt>
<pdfrwt beam="2">  1       21 0.61965064E-01 0.18267172E+03</pdfrwt>
<totfact> 0.12049287E+05</totfact>
</mgrwt>
</event>
<event>
 4    1  0.4199481E+000  0.2040258E+03  0.7546771E-02  0.1146386E+00
         21   -1    0    0  501  502  0.00000000000E+00  0.00000000000E+00  0.16815284921E+03  0.16815284921E+03  0.00000000000E+00 0.  1.
         21   -1    0    0  502  503 -0.00000000000E+00 -0.00000000000E+00 -0.24760160996E+03  0.24760160996E+03  0.00000000000E+00 0.  1.
          6    1    1    2  501    0  0.76605132068E+02  0.76348965784E+02 -0.42678009470E+02  0.20844165449E+03  0.17300000000E+03 0.  1.
         -6    1    1    2    0  503 -0.76605132068E+02 -0.76348965784E+02 -0.36770751274E+02  0.20731280468E+03  0.17300000000E+03 0.  1.
<mgrwt>
<rscale>  2 0.20402576E+03</rscale>
<asrwt>0</asrwt>
<pdfrwt beam="1">  1       21 0.25869669E-01 0.20402576E+03</pdfrwt>
<pdfrwt beam="2">  1       21 0.38092555E-01 0.20402576E+03</pdfrwt>
<totfact> 0.93854817E+04</totfact>
</mgrwt>
</event>
<event>
 4    1  0.4199481E+000  0.1870217E+03  0.7546771E-02  0.1161175E+00
         21   -1    0    0  501  502  0.00000000000E+00  0.00000000000E+00  0.62784169993E+02  0.62784169993E+02  0.00000000000E+00 0. -1.
         21   -1    0    0  502  503 -0.00000000000E+00 -0.00000000000E+00 -0.55974729689E+03  0.55974729689E+03  0.00000000000E+00 0. -1.
          6    1    1    2  501    0 -0.66083001892E+02 -0.26098940648E+02 -0.22707916255E+03  0.29418032549E+03  0.17300000000E+03 0. -1.
         -6    1    1    2    0  503  0.66083001892E+02  0.26098940648E+02 -0.26988396435E+03  0.32835114140E+03  0.17300000000E+03 0. -1.
<mgrwt>
<rscale>  2 0.18702170E+03</rscale>
<asrwt>0</asrwt>
<pdfrwt beam="1">  1       21 0.96591031E-02 0.18702170E+03</pdfrwt>
<pdfrwt beam="2">  1       21 0.86114969E-01 0.18702170E+03</pdfrwt>
<totfact> 0.10055346E+05</totfact>
</mgrwt>
</event>
<event>
 4    1  0.4199481E+000  0.1917881E+03  0.7546771E-02  0.1156858E+00
         21   -1    0    0  503  502  0.00000000000E+00  0.00000000000E+00  0.40322077827E+03  0.40322077827E+03  0.00000000000E+00 0.  1.
         21   -1    0    0  501  503 -0.00000000000E+00 -0.00000000000E+00 -0.15770370686E+03  0.15770370686E+03  0.00000000000E+00 0.  1.
          6    1    1    2  501    0 -0.82779552059E+02  0.10985396235E+01 -0.59339006849E+02  0.20075801046E+03  0.17300000000E+03 0.  1.
         -6    1    1    2    0  502  0.82779552059E+02 -0.10985396235E+01  0.30485607826E+03  0.36016647467E+03  0.17300000000E+03 0.  1.
<mgrwt>
<rscale>  2 0.19178806E+03</rscale>
<asrwt>0</asrwt>
<pdfrwt beam="1">  1       21 0.62033965E-01 0.19178806E+03</pdfrwt>
<pdfrwt beam="2">  1       21 0.24262109E-01 0.19178806E+03</pdfrwt>
<totfact> 0.38695420E+04</totfact>
</mgrwt>
</event>
<event>
 4    1  0.4199481E+000  0.2232011E+03  0.7546771E-02  0.1131519E+00
         21   -1    0    0  503  502  0.00000000000E+00  0.00000000000E+00  0.48657632459E+03  0.48657632459E+03  0.00000000000E+00 0. -1.
         21   -1    0    0  501  503 -0.00000000000E+00 -0.00000000000E+00 -0.15004355838E+03  0.15004355838E+03  0.00000000000E+00 0. -1.
          6    1    1    2  501    0 -0.98787446611E+02  0.10065181340E+03 -0.11126857422E+02  0.22347830791E+03  0.17300000000E+03 0. -1.
         -6    1    1    2    0  502  0.98787446611E+02 -0.10065181340E+03  0.34765962363E+03  0.41314157507E+03  0.17300000000E+03 0. -1.
<mgrwt>
<rscale>  2 0.22320114E+03</rscale>
<asrwt>0</asrwt>
<pdfrwt beam="1">  1       21 0.74857895E-01 0.22320114E+03</pdfrwt>
<pdfrwt beam="2">  1       21 0.23083625E-01 0.22320114E+03</pdfrwt>
<totfact> 0.27677964E+04</totfact>
</mgrwt>
</event>
<event>
 4    1  0.4199481E+000  0.2612149E+03  0.7546771E-02  0.1106415E+00
         21   -1    0    0  501  502  0.00000000000E+00  0.00000000000E+00  0.20256140561E+03  0.20256140561E+03  0.00000000000E+00 0.  1.
         21   -1    0    0  502  503 -0.00000000000E+00 -0.00000000000E+00 -0.35074914088E+03  0.35074914088E+03  0.00000000000E+00 0.  1.
          6    1    1    2  501    0 -0.70480011320E+02 -0.18258370951E+03 -0.19025628957E+02  0.26190688714E+03  0.17300000000E+03 0.  1.
         -6    1    1    2    0  503  0.70480011320E+02  0.18258370951E+03 -0.12916210631E+03  0.29140365935E+03  0.17300000000E+03 0.  1.
<mgrwt>
<rscale>  2 0.26121494E+03</rscale>
<asrwt>0</asrwt>
<pdfrwt beam="1">  1       21 0.31163293E-01 0.26121494E+03</pdfrwt>
<pdfrwt beam="2">  1       21 0.53961406E-01 0.26121494E+03</pdfrwt>
<totfact> 0.31074360E+04</totfact>
</mgrwt>
</event>
<event>
 4    1  0.4199481E+000  0.2168501E+03  0.7546771E-02  0.1136253E+00
         21   -1    0    0  503  502  0.00000000000E+00  0.00000000000E+00  0.70128270604E+02  0.70128270604E+02  0.00000000000E+00 0.  1.
         21   -1    0    0  501  503 -0.00000000000E+00 -0.00000000000E+00 -0.91324510068E+03  0.91324510068E+03  0.00000000000E+00 0. -1.
          6    1    1    2  501    0 -0.64300026505E+02 -0.11384408455E+03 -0.67503170587E+03  0.70900759723E+03  0.17300000000E+03 0. -1.
         -6    1    1    2    0  502  0.64300026505E+02  0.11384408455E+03 -0.16808512421E+03  0.27436577406E+03  0.17300000000E+03 0.  1.
<mgrwt>
<rscale>  2 0.21685011E+03</rscale>
<asrwt>0</asrwt>
<pdfrwt beam="1">  1       21 0.10788965E-01 0.21685011E+03</pdfrwt>
<pdfrwt beam="2">  1       21 0.14049925E+00 0.21685011E+03</pdfrwt>
<totfact> 0.24774584E+04</totfact>
</mgrwt>
</event>
<event>
 4    1  0.4199481E+000  0.2126961E+03  0.7546771E-02  0.1139449E+00
         21   -1    0    0  503  502  0.00000000000E+00  0.00000000000E+00  0.10688210422E+03  0.10688210422E+03  0.00000000000E+00 0.  1.
         21   -1    0    0  501  503 -0.00000000000E+00 -0.00000000000E+00 -0.43887969094E+03  0.43887969094E+03  0.00000000000E+00 0.  1.
          6    1    1    2  501    0 -0.11763553722E+03  0.38373274094E+02 -0.21746764239E+03  0.30419040627E+03  0.17300000000E+03 0.  1.
         -6    1    1    2    0  502  0.11763553722E+03 -0.38373274094E+02 -0.11452994433E+03  0.24157138889E+03  0.17300000000E+03 0.  1.
<mgrwt>
<rscale>  2 0.21269609E+03</rscale>
<asrwt>0</asrwt>
<pdfrwt beam="1">  1       21 0.16443401E-01 0.21269609E+03</pdfrwt>
<pdfrwt beam="2">  1       21 0.67519953E-01 0.21269609E+03</pdfrwt>
<totfact> 0.65917655E+04</totfact>
</mgrwt>
</event>
<event>
 4    1  0.4199481E+000  0.2384767E+03  0.7546771E-02  0.1120812E+00
         21   -1    0    0  503  502  0.00000000000E+00  0.00000000000E+00  0.14156367552E+03  0.14156367552E+03  0.00000000000E+00 0.  1.
         21   -1    0    0  501  503 -0.00000000000E+00 -0.00000000000E+00 -0.41170805317E+03  0.41170805317E+03  0.00000000000E+00 0.  1.
          6    1    1    2  501    0  0.14244407966E+03 -0.81558610319E+02 -0.92017368172E+02  0.25561361230E+03  0.17300000000E+03 0.  1.
         -6    1    1    2    0  502 -0.14244407966E+03  0.81558610319E+02 -0.17812700947E+03  0.29765811639E+03  0.17300000000E+03 0.  1.
<mgrwt>
<rscale>  2 0.23847667E+03</rscale>
<asrwt>0</asrwt>
<pdfrwt beam="1">  1       21 0.21779027E-01 0.23847667E+03</pdfrwt>
<pdfrwt beam="2">  1       21 0.63339701E-01 0.23847667E+03</pdfrwt>
<totfact> 0.44385028E+04</totfact>
</mgrwt>
</event>
<event>
 4    1  0.4199481E+000  0.1897805E+03  0.7546771E-02  0.1158659E+00
         21   -1    0    0  503  502  0.00000000000E+00  0.00000000000E+00  0.33339833847E+02  0.33339833847E+02  0.00000000000E+00 0.  1.
         21   -1    0    0  501  503 -0.00000000000E+00 -0.00000000000E+00 -0.16932281055E+04  0.16932281055E+04  0.00000000000E+00 0. -1.
          6    1    1    2  501    0  0.29918687208E+02 -0.72058959336E+02 -0.13493477555E+04  0.13626283377E+04  0.17300000000E+03 0. -1.
         -6    1    1    2    0  502 -0.29918687208E+02  0.72058959336E+02 -0.31054051615E+03  0.36393960163E+03  0.17300000000E+03 0.  1.
<mgrwt>
<rscale>  2 0.18978046E+03</rscale>
<asrwt>0</asrwt>
<pdfrwt beam="1">  1       21 0.51292058E-02 0.18978046E+03</pdfrwt>
<pdfrwt beam="2">  1       21 0.26049660E+00 0.18978046E+03</pdfrwt>
<totfact> 0.14909313E+04</totfact>
</mgrwt>
</event>
<event>
 4    1  0.4199481E+000  0.2027099E+03  0.7546771E-02  0.1147473E+00
         21   -1    0    0  501  502  0.00000000000E+00  0.00000000000E+00  0.72430323342E+02  0.72430323342E+02  0.00000000000E+00 0.  1.
         21   -1    0    0  502  503 -0.00000000000E+00 -0.00000000000E+00 -0.57140758327E+03  0.57140758327E+03  0.00000000000E+00 0. -1.
          6    1    1    2  501    0 -0.10501099771E+03  0.11618296408E+02 -0.22226686263E+03  0.30082196176E+03  0.17300000000E+03 0.  1.
         -6    1    1    2    0  503  0.10501099771E+03 -0.11618296408E+02 -0.27671039729E+03  0.34301594485E+03  0.17300000000E+03 0.  1.
<mgrwt>
<rscale>  2 0.20270988E+03</rscale>
<asrwt>0</asrwt>
<pdfrwt beam="1">  1       21 0.11143127E-01 0.20270988E+03</pdfrwt>
<pdfrwt beam="2">  1       21 0.87908857E-01 0.20270988E+03</pdfrwt>
<totfact> 0.73945830E+04</totfact>
</mgrwt>
</event>
<event>
 4    1  0.4199481E+000  0.1736233E+03  0.7546771E-02  0.1174121E+00
         21   -1    0    0  503  502  0.00000000000E+00  0.00000000000E+00  0.18193545400E+03  0.18193545400E+03  0.00000000000E+00 0. -1.
         21   -1    0    0  501  503 -0.00000000000E+00 -0.00000000000E+00 -0.24547228284E+03  0.24547228284E+03  0.00000000000E+00 0. -1.
          6    1    1    2  501    0  0.12429130763E+02  0.78460239118E+01 -0.15360059533E+03  0.23181498284E+03  0.17300000000E+03 0. -1.
         -6    1    1    2    0  502 -0.12429130763E+02 -0.78460239118E+01  0.90063766486E+02  0.19559275400E+03  0.17300000000E+03 0. -1.
<mgrwt>
<rscale>  2 0.17362328E+03</rscale>
<asrwt>0</asrwt>
<pdfrwt beam="1">  1       21 0.27990070E-01 0.17362328E+03</pdfrwt>
<pdfrwt beam="2">  1       21 0.37764967E-01 0.17362328E+03</pdfrwt>
<totfact> 0.83083287E+04</totfact>
</mgrwt>
</event>
<event>
 4    1  0.4199481E+000  0.2064388E+03  0.7546771E-02  0.1144418E+00
         21   -1    0    0  503  502  0.00000000000E+00  0.00000000000E+00  0.79746112603E+03  0.79746112603E+03  0.00000000000E+00 0. -1.
         21   -1    0    0  501  503 -0.00000000000E+00 -0.00000000000E+00 -0.74990876173E+02  0.74990876173E+02  0.00000000000E+00 0. -1.
          6    1    1    2  501    0  0.32870363061E+02 -0.10773817004E+03  0.12738825123E+03  0.24257934909E+03  0.17300000000E+03 0. -1.
         -6    1    1    2    0  502 -0.32870363061E+02  0.10773817004E+03  0.59508199863E+03  0.62987265312E+03  0.17300000000E+03 0. -1.
<mgrwt>
<rscale>  2 0.20643879E+03</rscale>
<asrwt>0</asrwt>
<pdfrwt beam="1">  1       21 0.12268632E+00 0.20643879E+03</pdfrwt>
<pdfrwt beam="2">  1       21 0.11537058E-01 0.20643879E+03</pdfrwt>
<totfact> 0.31212468E+04</totfact>
</mgrwt>
</event>
<event>
 4    1  0.4199481E+000  0.2165895E+03  0.7546771E-02  0.1136452E+00
         21   -1    0    0  503  502  0.00000000000E+00  0.00000000000E+00  0.27686880472E+03  0.27686880472E+03  0.00000000000E+00 0.  1.
         21   -1    0    0  501  503 -0.00000000000E+00 -0.00000000000E+00 -0.19228937513E+03  0.19228937513E+03  0.00000000000E+00 0.  1.
          6    1    1    2  501    0 -0.12397476838E+03  0.40152816819E+02 -0.38583690976E+02  0.21999930250E+03  0.17300000000E+03 0.  1.
         -6    1    1    2    0  502  0.12397476838E+03 -0.40152816819E+02  0.12316312057E+03  0.24915887735E+03  0.17300000000E+03 0.  1.
<mgrwt>
<rscale>  2 0.21658945E+03</rscale>
<asrwt>0</asrwt>
<pdfrwt beam="1">  1       21 0.42595201E-01 0.21658945E+03</pdfrwt>
<pdfrwt beam="2">  1       21 0.29582981E-01 0.21658945E+03</pdfrwt>
<totfact> 0.57425731E+04</totfact>
</mgrwt>
</event>
<event>
 4    1  0.4199481E+000  0.1835062E+03  0.7546771E-02  0.1164452E+00
         21   -1    0    0  501  502  0.00000000000E+00  0.00000000000E+00  0.66630343799E+02  0.66630343799E+02  0.00000000000E+00 0. -1.
         21   -1    0    0  502  503 -0.00000000000E+00 -0.00000000000E+00 -0.83544725910E+03  0.83544725910E+03  0.00000000000E+00 0. -1.
          6    1    1    2  501    0 -0.60546050697E+02 -0.89269873946E+01 -0.10091241789E+03  0.20942261445E+03  0.17300000000E+03 0. -1.
         -6    1    1    2    0  503  0.60546050697E+02  0.89269873946E+01 -0.66790449742E+03  0.69265498845E+03  0.17300000000E+03 0. -1.
<mgrwt>
<rscale>  2 0.18350617E+03</rscale>
<asrwt>0</asrwt>
<pdfrwt beam="1">  1       21 0.10250822E-01 0.18350617E+03</pdfrwt>
<pdfrwt beam="2">  1       21 0.12853035E+00 0.18350617E+03</pdfrwt>
<totfact> 0.34729571E+04</totfact>
</mgrwt>
</event>
<event>
 4    1  0.4199481E+000  0.3189956E+03  0.7546771E-02  0.1076113E+00
         21   -1    0    0  503  502  0.00000000000E+00  0.00000000000E+00  0.81505176078E+03  0.81505176078E+03  0.00000000000E+00 0. -1.
         21   -1    0    0  501  503 -0.00000000000E+00 -0.00000000000E+00 -0.54220810334E+03  0.54220810334E+03  0.00000000000E+00 0.  1.
          6    1    1    2  501    0  0.19744708602E+03  0.18122862163E+03 -0.45897306079E+03  0.55894045802E+03  0.17300000000E+03 0.  1.
         -6    1    1    2    0  502 -0.19744708602E+03 -0.18122862163E+03  0.73181671823E+03  0.79831940610E+03  0.17300000000E+03 0. -1.
<mgrwt>
<rscale>  2 0.31899556E+03</rscale>
<asrwt>0</asrwt>
<pdfrwt beam="1">  1       21 0.12539258E+00 0.31899556E+03</pdfrwt>
<pdfrwt beam="2">  1       21 0.83416631E-01 0.31899556E+03</pdfrwt>
<totfact> 0.53138216E+02</totfact>
</mgrwt>
</event>
<event>
 4    1  0.4199481E+000  0.2358475E+03  0.7546771E-02  0.1122590E+00
         21   -1    0    0  501  502  0.00000000000E+00  0.00000000000E+00  0.11334504397E+04  0.11334504397E+04  0.00000000000E+00 0. -1.
         21   -1    0    0  502  503 -0.00000000000E+00 -0.00000000000E+00 -0.52968837193E+02  0.52968837193E+02  0.00000000000E+00 0.  1.
          6    1    1    2  501    0  0.31389962580E+02 -0.15719317781E+03  0.70107914820E+03  0.73968641798E+03  0.17300000000E+03 0. -1.
         -6    1    1    2    0  503 -0.31389962580E+02  0.15719317781E+03  0.37940245431E+03  0.44673285892E+03  0.17300000000E+03 0.  1.
<mgrwt>
<rscale>  2 0.23584746E+03</rscale>
<asrwt>0</asrwt>
<pdfrwt beam="1">  1       21 0.17437697E+00 0.23584746E+03</pdfrwt>
<pdfrwt beam="2">  1       21 0.81490528E-02 0.23584746E+03</pdfrwt>
<totfact> 0.22467992E+04</totfact>
</mgrwt>
</event>
<event>
 4    1  0.4199481E+000  0.2689724E+03  0.7546771E-02  0.1101869E+00
         21   -1    0    0  503  502  0.00000000000E+00  0.00000000000E+00  0.16370742893E+03  0.16370742893E+03  0.00000000000E+00 0.  1.
         21   -1    0    0  501  503 -0.00000000000E+00 -0.00000000000E+00 -0.45253369829E+03  0.45253369829E+03  0.00000000000E+00 0.  1.
          6    1    1    2  501    0 -0.12832517430E+03  0.16108942881E+03 -0.19159310494E+03  0.33023336036E+03  0.17300000000E+03 0.  1.
         -6    1    1    2    0  502  0.12832517430E+03 -0.16108942881E+03 -0.97233164417E+02  0.28600776685E+03  0.17300000000E+03 0.  1.
<mgrwt>
<rscale>  2 0.26897240E+03</rscale>
<asrwt>0</asrwt>
<pdfrwt beam="1">  1       21 0.25185758E-01 0.26897240E+03</pdfrwt>
<pdfrwt beam="2">  1       21 0.69620570E-01 0.26897240E+03</pdfrwt>
<totfact> 0.26963316E+04</totfact>
</mgrwt>
</event>
<event>
 4    1  0.4199481E+000  0.1821314E+03  0.7546771E-02  0.1165756E+00
         21   -1    0    0  501  502  0.00000000000E+00  0.00000000000E+00  0.16935738909E+04  0.16935738909E+04  0.00000000000E+00 0.  1.
         21   -1    0    0  502  503 -0.00000000000E+00 -0.00000000000E+00 -0.73923767105E+02  0.73923767105E+02  0.00000000000E+00 0.  1.
          6    1    1    2  501    0  0.26106237372E+02 -0.50609494353E+02  0.15675020855E+04  0.15780477321E+04  0.17300000000E+03 0.  1.
         -6    1    1    2    0  503 -0.26106237372E+02  0.50609494353E+02  0.52148038289E+02  0.18944992596E+03  0.17300000000E+03 0.  1.
<mgrwt>
<rscale>  2 0.18213143E+03</rscale>
<asrwt>0</asrwt>
<pdfrwt beam="1">  1       21 0.26054980E+00 0.18213143E+03</pdfrwt>
<pdfrwt beam="2">  1       21 0.11372889E-01 0.18213143E+03</pdfrwt>
<totfact> 0.37697509E+03</totfact>
</mgrwt>
</event>
<event>
 4    1  0.4199481E+000  0.3562074E+03  0.7546771E-02  0.1060096E+00
         21   -1    0    0  503  502  0.00000000000E+00  0.00000000000E+00  0.10528389545E+03  0.10528389545E+03  0.00000000000E+00 0. -1.
         21   -1    0    0  501  503 -0.00000000000E+00 -0.00000000000E+00 -0.32175574597E+04  0.32175574597E+04  0.00000000000E+00 0.  1.
          6    1    1    2  501    0 -0.30913224067E+03 -0.37308963938E+02 -0.28700708710E+04  0.28920910265E+04  0.17300000000E+03 0.  1.
         -6    1    1    2    0  502  0.30913224067E+03  0.37308963938E+02 -0.24220269324E+03  0.43075032864E+03  0.17300000000E+03 0. -1.
<mgrwt>
<rscale>  2 0.35620738E+03</rscale>
<asrwt>0</asrwt>
<pdfrwt beam="1">  1       21 0.16197523E-01 0.35620738E+03</pdfrwt>
<pdfrwt beam="2">  1       21 0.49500883E+00 0.35620738E+03</pdfrwt>
<totfact> 0.56106788E+01</totfact>
</mgrwt>
</event>
<event>
 4    1  0.4199481E+000  0.2386542E+03  0.7546771E-02  0.1120693E+00
         21   -1    0    0  501  502  0.00000000000E+00  0.00000000000E+00  0.10917624905E+03  0.10917624905E+03  0.00000000000E+00 0.  1.
         21   -1    0    0  502  503 -0.00000000000E+00 -0.00000000000E+00 -0.77420849048E+03  0.77420849048E+03  0.00000000000E+00 0.  1.
          6    1    1    2  501    0  0.64394653380E+02  0.15126192793E+03 -0.80260991073E+02  0.25178893723E+03  0.17300000000E+03 0.  1.
         -6    1    1    2    0  503 -0.64394653380E+02 -0.15126192793E+03 -0.58477125036E+03  0.63159580230E+03  0.17300000000E+03 0.  1.
<mgrwt>
<rscale>  2 0.23865423E+03</rscale>
<asrwt>0</asrwt>
<pdfrwt beam="1">  1       21 0.16796346E-01 0.23865423E+03</pdfrwt>
<pdfrwt beam="2">  1       21 0.11910900E+00 0.23865423E+03</pdfrwt>
<totfact> 0.16681154E+04</totfact>
</mgrwt>
</event>
<event>
 4    1  0.4199481E+000  0.2792682E+03  0.7546771E-02  0.1096089E+00
         21   -1    0    0  501  502  0.00000000000E+00  0.00000000000E+00  0.32133482869E+03  0.32133482869E+03  0.00000000000E+00 0. -1.
         21   -1    0    0  502  503 -0.00000000000E+00 -0.00000000000E+00 -0.42391887126E+03  0.42391887126E+03  0.00000000000E+00 0. -1.
          6    1    1    2  501    0 -0.21919880628E+03  0.36873244711E+01  0.19233430994E+03  0.33909172773E+03  0.17300000000E+03 0. -1.
         -6    1    1    2    0  503  0.21919880628E+03 -0.36873244711E+01 -0.29491835251E+03  0.40616197222E+03  0.17300000000E+03 0. -1.
<mgrwt>
<rscale>  2 0.27926817E+03</rscale>
<asrwt>0</asrwt>
<pdfrwt beam="1">  1       21 0.49436128E-01 0.27926817E+03</pdfrwt>
<pdfrwt beam="2">  1       21 0.65218287E-01 0.27926817E+03</pdfrwt>
<totfact> 0.80070183E+03</totfact>
</mgrwt>
</event>
<event>
 4    1  0.4199481E+000  0.1782438E+03  0.7546771E-02  0.1169514E+00
         21   -1    0    0  503  502  0.00000000000E+00  0.00000000000E+00  0.14765511683E+03  0.14765511683E+03  0.00000000000E+00 0.  1.
         21   -1    0    0  501  503 -0.00000000000E+00 -0.00000000000E+00 -0.25531106112E+03  0.25531106112E+03  0.00000000000E+00 0.  1.
          6    1    1    2  501    0 -0.42461780171E+02 -0.62326968959E+01 -0.13371972573E+03  0.22282687077E+03  0.17300000000E+03 0.  1.
         -6    1    1    2    0  502  0.42461780171E+02  0.62326968959E+01  0.26063781447E+02  0.18013930717E+03  0.17300000000E+03 0.  1.
<mgrwt>
<rscale>  2 0.17824379E+03</rscale>
<asrwt>0</asrwt>
<pdfrwt beam="1">  1       21 0.22716172E-01 0.17824379E+03</pdfrwt>
<pdfrwt beam="2">  1       21 0.39278624E-01 0.17824379E+03</pdfrwt>
<totfact> 0.11413311E+05</totfact>
</mgrwt>
</event>
<event>
 4    1  0.4199481E+000  0.1990092E+03  0.7546771E-02  0.1150578E+00
         21   -1    0    0  501  502  0.00000000000E+00  0.00000000000E+00  0.12488604271E+03  0.12488604271E+03  0.00000000000E+00 0. -1.
         21   -1    0    0  502  503 -0.00000000000E+00 -0.00000000000E+00 -0.31712662930E+03  0.31712662930E+03  0.00000000000E+00 0.  1.
          6    1    1    2  501    0 -0.68326876783E+02 -0.70760778972E+02 -0.96341953469E+02  0.22110274067E+03  0.17300000000E+03 0.  1.
         -6    1    1    2    0  503  0.68326876783E+02  0.70760778972E+02 -0.95898633118E+02  0.22090993134E+03  0.17300000000E+03 0. -1.
<mgrwt>
<rscale>  2 0.19900917E+03</rscale>
<asrwt>0</asrwt>
<pdfrwt beam="1">  1       21 0.19213237E-01 0.19900917E+03</pdfrwt>
<pdfrwt beam="2">  1       21 0.48788712E-01 0.19900917E+03</pdfrwt>
<totfact> 0.99497920E+04</totfact>
</mgrwt>
</event>
<event>
 4    1  0.4199481E+000  0.2207859E+03  0.7546771E-02  0.1133299E+00
         21   -1    0    0  501  502  0.00000000000E+00  0.00000000000E+00  0.20949967560E+03  0.20949967560E+03  0.00000000000E+00 0. -1.
         21   -1    0    0  502  503 -0.00000000000E+00 -0.00000000000E+00 -0.23476684389E+03  0.23476684389E+03  0.00000000000E+00 0. -1.
          6    1    1    2  501    0 -0.24907210790E+00  0.13717632430E+03  0.83089642160E+01  0.22094217541E+03  0.17300000000E+03 0. -1.
         -6    1    1    2    0  503  0.24907210790E+00 -0.13717632430E+03 -0.33576132501E+02  0.22332434408E+03  0.17300000000E+03 0. -1.
<mgrwt>
<rscale>  2 0.22078588E+03</rscale>
<asrwt>0</asrwt>
<pdfrwt beam="1">  1       21 0.32230719E-01 0.22078588E+03</pdfrwt>
<pdfrwt beam="2">  1       21 0.36117976E-01 0.22078588E+03</pdfrwt>
<totfact> 0.67622336E+04</totfact>
</mgrwt>
</event>
<event>
 4    1  0.4199481E+000  0.2050447E+03  0.7546771E-02  0.1145551E+00
         21   -1    0    0  503  502  0.00000000000E+00  0.00000000000E+00  0.14143076023E+04  0.14143076023E+04  0.00000000000E+00 0.  1.
         21   -1    0    0  501  503 -0.00000000000E+00 -0.00000000000E+00 -0.33280985717E+02  0.33280985717E+02  0.00000000000E+00 0.  1.
          6    1    1    2  501    0 -0.10924144129E+03 -0.13439904459E+02  0.45399421722E+03  0.49815065271E+03  0.17300000000E+03 0.  1.
         -6    1    1    2    0  502  0.10924144129E+03  0.13439904459E+02  0.92703239934E+03  0.94943793528E+03  0.17300000000E+03 0.  1.
<mgrwt>
<rscale>  2 0.20504469E+03</rscale>
<asrwt>0</asrwt>
<pdfrwt beam="1">  1       21 0.21758574E+00 0.20504469E+03</pdfrwt>
<pdfrwt beam="2">  1       21 0.51201527E-02 0.20504469E+03</pdfrwt>
<totfact> 0.26644452E+04</totfact>
</mgrwt>
</event>
<event>
 4    1  0.4199481E+000  0.2102875E+03  0.7546771E-02  0.1141339E+00
         21   -1    0    0  503  502  0.00000000000E+00  0.00000000000E+00  0.27500138613E+03  0.27500138613E+03  0.00000000000E+00 0. -1.
         21   -1    0    0  501  503 -0.00000000000E+00 -0.00000000000E+00 -0.16746250013E+03  0.16746250013E+03  0.00000000000E+00 0. -1.
          6    1    1    2  501    0 -0.15011043241E+02  0.11860230653E+03  0.96495259785E+01  0.21050879289E+03  0.17300000000E+03 0. -1.
         -6    1    1    2    0  502  0.15011043241E+02 -0.11860230653E+03  0.97889360023E+02  0.23195509337E+03  0.17300000000E+03 0. -1.
<mgrwt>
<rscale>  2 0.21028751E+03</rscale>
<asrwt>0</asrwt>
<pdfrwt beam="1">  1       21 0.42307906E-01 0.21028751E+03</pdfrwt>
<pdfrwt beam="2">  1       21 0.25763462E-01 0.21028751E+03</pdfrwt>
<totfact> 0.76290021E+04</totfact>
</mgrwt>
</event>
<event>
 4    1  0.4199481E+000  0.2351511E+03  0.7546771E-02  0.1123066E+00
         21   -1    0    0  501  502  0.00000000000E+00  0.00000000000E+00  0.23992413255E+03  0.23992413255E+03  0.00000000000E+00 0.  1.
         21   -1    0    0  502  503 -0.00000000000E+00 -0.00000000000E+00 -0.23295635416E+03  0.23295635416E+03  0.00000000000E+00 0.  1.
          6    1    1    2  501    0  0.63410099808E+02 -0.14610337585E+03  0.27895840955E+02  0.23679994750E+03  0.17300000000E+03 0.  1.
         -6    1    1    2    0  503 -0.63410099808E+02  0.14610337585E+03 -0.20928062562E+02  0.23608053921E+03  0.17300000000E+03 0.  1.
<mgrwt>
<rscale>  2 0.23515109E+03</rscale>
<asrwt>0</asrwt>
<pdfrwt beam="1">  1       21 0.36911405E-01 0.23515109E+03</pdfrwt>
<pdfrwt beam="2">  1       21 0.35839439E-01 0.23515109E+03</pdfrwt>
<totfact> 0.52127726E+04</totfact>
</mgrwt>
</event>
<event>
 4    1  0.4199481E+000  0.2397955E+03  0.7546771E-02  0.1119929E+00
         21   -1    0    0  501  502  0.00000000000E+00  0.00000000000E+00  0.75944380133E+03  0.75944380133E+03  0.00000000000E+00 0.  1.
         21   -1    0    0  502  503 -0.00000000000E+00 -0.00000000000E+00 -0.11571591723E+03  0.11571591723E+03  0.00000000000E+00 0. -1.
          6    1    1    2  501    0 -0.14206913342E+03 -0.85960725572E+02  0.57913532229E+03  0.62681704391E+03  0.17300000000E+03 0.  1.
         -6    1    1    2    0  503  0.14206913342E+03  0.85960725572E+02  0.64592561807E+02  0.24834267465E+03  0.17300000000E+03 0. -1.
<mgrwt>
<rscale>  2 0.23979551E+03</rscale>
<asrwt>0</asrwt>
<pdfrwt beam="1">  1       21 0.11683750E+00 0.23979551E+03</pdfrwt>
<pdfrwt beam="2">  1       21 0.17802449E-01 0.23979551E+03</pdfrwt>
<totfact> 0.15698391E+04</totfact>
</mgrwt>
</event>
<event>
 4    1  0.4199481E+000  0.1862482E+03  0.7546771E-02  0.1161889E+00
         21   -1    0    0  501  502  0.00000000000E+00  0.00000000000E+00  0.66248743153E+03  0.66248743153E+03  0.00000000000E+00 0. -1.
         21   -1    0    0  502  503 -0.00000000000E+00 -0.00000000000E+00 -0.48455223279E+03  0.48455223279E+03  0.00000000000E+00 0. -1.
          6    1    1    2  501    0  0.67197200257E+02 -0.15618440416E+02  0.63061441810E+03  0.65754311168E+03  0.17300000000E+03 0. -1.
         -6    1    1    2    0  503 -0.67197200257E+02  0.15618440416E+02 -0.45267921936E+03  0.48949655264E+03  0.17300000000E+03 0. -1.
<mgrwt>
<rscale>  2 0.18624822E+03</rscale>
<asrwt>0</asrwt>
<pdfrwt beam="1">  1       21 0.10192114E+00 0.18624822E+03</pdfrwt>
<pdfrwt beam="2">  1       21 0.74546497E-01 0.18624822E+03</pdfrwt>
<totfact> 0.12724613E+03</totfact>
</mgrwt>
</event>
<event>
 4    1  0.4199481E+000  0.1992804E+03  0.7546771E-02  0.1150348E+00
         21   -1    0    0  503  502  0.00000000000E+00  0.00000000000E+00  0.23617721846E+03  0.23617721846E+03  0.00000000000E+00 0. -1.
         21   -1    0    0  501  503 -0.00000000000E+00 -0.00000000000E+00 -0.25927564401E+03  0.25927564401E+03  0.00000000000E+00 0. -1.
          6    1    1    2  501    0  0.97665004916E+02 -0.15659497831E+02 -0.15841380375E+03  0.25457338092E+03  0.17300000000E+03 0. -1.
         -6    1    1    2    0  502 -0.97665004916E+02  0.15659497831E+02  0.13531537819E+03  0.24087948155E+03  0.17300000000E+03 0. -1.
<mgrwt>
<rscale>  2 0.19928039E+03</rscale>
<asrwt>0</asrwt>
<pdfrwt beam="1">  1       21 0.36334957E-01 0.19928039E+03</pdfrwt>
<pdfrwt beam="2">  1       21 0.39888560E-01 0.19928039E+03</pdfrwt>
<totfact> 0.44101218E+04</totfact>
</mgrwt>
</event>
<event>
 4    1  0.4199481E+000  0.2311530E+03  0.7546771E-02  0.1125831E+00
         21   -1    0    0  503  502  0.00000000000E+00  0.00000000000E+00  0.54984852668E+03  0.54984852668E+03  0.00000000000E+00 0.  1.
         21   -1    0    0  501  503 -0.00000000000E+00 -0.00000000000E+00 -0.12840685976E+03  0.12840685976E+03  0.00000000000E+00 0. -1.
          6    1    1    2  501    0  0.93480508489E+02  0.12150770865E+03  0.43471051398E+02  0.23520514671E+03  0.17300000000E+03 0. -1.
         -6    1    1    2    0  502 -0.93480508489E+02 -0.12150770865E+03  0.37797061552E+03  0.44305023973E+03  0.17300000000E+03 0.  1.
<mgrwt>
<rscale>  2 0.23115304E+03</rscale>
<asrwt>0</asrwt>
<pdfrwt beam="1">  1       21 0.84592080E-01 0.23115304E+03</pdfrwt>
<pdfrwt beam="2">  1       21 0.19754902E-01 0.23115304E+03</pdfrwt>
<totfact> 0.28026450E+04</totfact>
</mgrwt>
</event>
<event>
 4    1  0.4199481E+000  0.1796795E+03  0.7546771E-02  0.1168114E+00
         21   -1    0    0  501  502  0.00000000000E+00  0.00000000000E+00  0.26381973801E+02  0.26381973801E+02  0.00000000000E+00 0. -1.
         21   -1    0    0  502  503 -0.00000000000E+00 -0.00000000000E+00 -0.22646601147E+04  0.22646601147E+04  0.00000000000E+00 0. -1.
          6    1    1    2  501    0 -0.36025044372E+02  0.32525553821E+02 -0.34251660455E+03  0.38678461690E+03  0.17300000000E+03 0. -1.
         -6    1    1    2    0  503  0.36025044372E+02 -0.32525553821E+02 -0.18957615364E+04  0.19042574716E+04  0.17300000000E+03 0. -1.
<mgrwt>
<rscale>  2 0.17967948E+03</rscale>
<asrwt>0</asrwt>
<pdfrwt beam="1">  1       21 0.40587656E-02 0.17967948E+03</pdfrwt>
<pdfrwt beam="2">  1       21 0.34840921E+00 0.17967948E+03</pdfrwt>
<totfact> 0.69471502E+03</totfact>
</mgrwt>
</event>
<event>
 4    1  0.4199481E+000  0.1831864E+03  0.7546771E-02  0.1164754E+00
         21   -1    0    0  503  502  0.00000000000E+00  0.00000000000E+00  0.13279613026E+03  0.13279613026E+03  0.00000000000E+00 0.  1.
         21   -1    0    0  501  503 -0.00000000000E+00 -0.00000000000E+00 -0.57683327225E+03  0.57683327225E+03  0.00000000000E+00 0.  1.
          6    1    1    2  501    0  0.52402303118E+02  0.29702684736E+02 -0.48799302891E+03  0.52124317465E+03  0.17300000000E+03 0.  1.
         -6    1    1    2    0  502 -0.52402303118E+02 -0.29702684736E+02  0.43955886918E+02  0.18838622786E+03  0.17300000000E+03 0.  1.
<mgrwt>
<rscale>  2 0.18318638E+03</rscale>
<asrwt>0</asrwt>
<pdfrwt beam="1">  1       21 0.20430174E-01 0.18318638E+03</pdfrwt>
<pdfrwt beam="2">  1       21 0.88743582E-01 0.18318638E+03</pdfrwt>
<totfact> 0.24207412E+04</totfact>
</mgrwt>
</event>
<event>
 4    1  0.4199481E+000  0.1985677E+03  0.7546771E-02  0.1150953E+00
         21   -1    0    0  503  502  0.00000000000E+00  0.00000000000E+00  0.11864577737E+04  0.11864577737E+04  0.00000000000E+00 0. -1.
         21   -1    0    0  501  503 -0.00000000000E+00 -0.00000000000E+00 -0.36565654282E+02  0.36565654282E+02  0.00000000000E+00 0.  1.
          6    1    1    2  501    0 -0.71817390509E+02  0.65896891525E+02  0.39032300409E+03  0.43792828798E+03  0.17300000000E+03 0.  1.
         -6    1    1    2    0  502  0.71817390509E+02 -0.65896891525E+02  0.75956911531E+03  0.78509513999E+03  0.17300000000E+03 0. -1.
<mgrwt>
<rscale>  2 0.19856772E+03</rscale>
<asrwt>0</asrwt>
<pdfrwt beam="1">  1       21 0.18253194E+00 0.19856772E+03</pdfrwt>
<pdfrwt beam="2">  1       21 0.56254862E-02 0.19856772E+03</pdfrwt>
<totfact> 0.38355489E+04</totfact>
</mgrwt>
</event>
<event>
 4    1  0.4199481E+000  0.1890022E+03  0.7546771E-02  0.1159364E+00
         21   -1    0    0  501  502  0.00000000000E+00  0.00000000000E+00  0.25849891883E+03  0.25849891883E+03  0.00000000000E+00 0.  1.
         21   -1    0    0  502  503 -0.00000000000E+00 -0.00000000000E+00 -0.30303617504E+03  0.30303617504E+03  0.00000000000E+00 0.  1.
          6    1    1    2  501    0  0.50153870946E+02  0.57248812488E+02  0.18481213695E+03  0.26434326787E+03  0.17300000000E+03 0.  1.
         -6    1    1    2    0  503 -0.50153870946E+02 -0.57248812488E+02 -0.22934939316E+03  0.29719182600E+03  0.17300000000E+03 0.  1.
<mgrwt>
<rscale>  2 0.18900222E+03</rscale>
<asrwt>0</asrwt>
<pdfrwt beam="1">  1       21 0.39769064E-01 0.18900222E+03</pdfrwt>
<pdfrwt beam="2">  1       21 0.46620950E-01 0.18900222E+03</pdfrwt>
<totfact> 0.26904400E+04</totfact>
</mgrwt>
</event>
<event>
 4    1  0.4199481E+000  0.1823302E+03  0.7546771E-02  0.1165567E+00
         21   -1    0    0  501  502  0.00000000000E+00  0.00000000000E+00  0.11231711045E+04  0.11231711045E+04  0.00000000000E+00 0. -1.
         21   -1    0    0  502  503 -0.00000000000E+00 -0.00000000000E+00 -0.31313408958E+02  0.31313408958E+02  0.00000000000E+00 0.  1.
          6    1    1    2  501    0 -0.41680310513E+02  0.39724617288E+02  0.41084585568E+03  0.44948705279E+03  0.17300000000E+03 0.  1.
         -6    1    1    2    0  503  0.41680310513E+02 -0.39724617288E+02  0.68101183982E+03  0.70499746062E+03  0.17300000000E+03 0. -1.
<mgrwt>
<rscale>  2 0.18233018E+03</rscale>
<asrwt>0</asrwt>
<pdfrwt beam="1">  1       21 0.17279552E+00 0.18233018E+03</pdfrwt>
<pdfrwt beam="2">  1       21 0.48174484E-02 0.18233018E+03</pdfrwt>
<totfact> 0.58790492E+04</totfact>
</mgrwt>
</event>
<event>
 4    1  0.4199481E+000  0.2152124E+03  0.7546771E-02  0.1137504E+00
         21   -1    0    0  503  502  0.00000000000E+00  0.00000000000E+00  0.13561004149E+04  0.13561004149E+04  0.00000000000E+00 0. -1.
         21   -1    0    0  501  503 -0.00000000000E+00 -0.00000000000E+00 -0.59984785870E+02  0.59984785870E+02  0.00000000000E+00 0. -1.
          6    1    1    2  501    0 -0.12360388395E+03  0.33308334009E+02  0.18342813368E+03  0.28277596338E+03  0.17300000000E+03 0. -1.
         -6    1    1    2    0  502  0.12360388395E+03 -0.33308334009E+02  0.11126874954E+04  0.11333092374E+04  0.17300000000E+03 0. -1.
<mgrwt>
<rscale>  2 0.21521237E+03</rscale>
<asrwt>0</asrwt>
<pdfrwt beam="1">  1       21 0.20863081E+00 0.21521237E+03</pdfrwt>
<pdfrwt beam="2">  1       21 0.92284296E-02 0.21521237E+03</pdfrwt>
<totfact> 0.10859889E+04</totfact>
</mgrwt>
</event>
<event>
 4    1  0.4199481E+000  0.2777277E+03  0.7546771E-02  0.1096937E+00
         21   -1    0    0  501  502  0.00000000000E+00  0.00000000000E+00  0.39836780693E+03  0.39836780693E+03  0.00000000000E+00 0. -1.
         21   -1    0    0  502  503 -0.00000000000E+00 -0.00000000000E+00 -0.56522077574E+03  0.56522077574E+03  0.00000000000E+00 0.  1.
          6    1    1    2  501    0 -0.35386874075E+02 -0.21436285102E+03  0.30722536822E+03  0.41414983959E+03  0.17300000000E+03 0. -1.
         -6    1    1    2    0  503  0.35386874075E+02  0.21436285102E+03 -0.47407833703E+03  0.54943874308E+03  0.17300000000E+03 0.  1.
<mgrwt>
<rscale>  2 0.27772768E+03</rscale>
<asrwt>0</asrwt>
<pdfrwt beam="1">  1       21 0.61287355E-01 0.27772768E+03</pdfrwt>
<pdfrwt beam="2">  1       21 0.86957042E-01 0.27772768E+03</pdfrwt>
<totfact> 0.26449237E+03</totfact>
</mgrwt>
</event>
<event>
 4    1  0.4199481E+000  0.2746068E+03  0.7546771E-02  0.1098672E+00
         21   -1    0    0  503  502  0.00000000000E+00  0.00000000000E+00  0.10483812689E+03  0.10483812689E+03  0.00000000000E+00 0. -1.
         21   -1    0    0  501  503 -0.00000000000E+00 -0.00000000000E+00 -0.76891359077E+03  0.76891359077E+03  0.00000000000E+00 0. -1.
          6    1    1    2  501    0  0.59495332209E+02 -0.20479309822E+03 -0.44302365710E+03  0.52122823061E+03  0.17300000000E+03 0. -1.
         -6    1    1    2    0  502 -0.59495332209E+02  0.20479309822E+03 -0.22105180678E+03  0.35252348704E+03  0.17300000000E+03 0. -1.
<mgrwt>
<rscale>  2 0.27460682E+03</rscale>
<asrwt>0</asrwt>
<pdfrwt beam="1">  1       21 0.16128942E-01 0.27460682E+03</pdfrwt>
<pdfrwt beam="2">  1       21 0.11829440E+00 0.27460682E+03</pdfrwt>
<totfact> 0.17956557E+04</totfact>
</mgrwt>
</event>
<event>
 4    1  0.4199481E+000  0.1793868E+03  0.7546771E-02  0.1168398E+00
         21   -1    0    0  501  502  0.00000000000E+00  0.00000000000E+00  0.84308010078E+03  0.84308010078E+03  0.00000000000E+00 0. -1.
         21   -1    0    0  502  503 -0.00000000000E+00 -0.00000000000E+00 -0.14301659355E+03  0.14301659355E+03  0.00000000000E+00 0. -1.
          6    1    1    2  501    0 -0.44901517294E+02  0.15312168475E+02  0.77219004039E+03  0.79275284120E+03  0.17300000000E+03 0. -1.
         -6    1    1    2    0  503  0.44901517294E+02 -0.15312168475E+02 -0.72126533148E+02  0.19334385313E+03  0.17300000000E+03 0. -1.
<mgrwt>
<rscale>  2 0.17938676E+03</rscale>
<asrwt>0</asrwt>
<pdfrwt beam="1">  1       21 0.12970463E+00 0.17938676E+03</pdfrwt>
<pdfrwt beam="2">  1       21 0.22002553E-01 0.17938676E+03</pdfrwt>
<totfact> 0.84754277E+03</totfact>
</mgrwt>
</event>
<event>
 4    1  0.4199481E+000  0.2145326E+03  0.7546771E-02  0.1138026E+00
         21   -1    0    0  501  502  0.00000000000E+00  0.00000000000E+00  0.72644096390E+02  0.72644096390E+02  0.00000000000E+00 0. -1.
         21   -1    0    0  502  503 -0.00000000000E+00 -0.00000000000E+00 -0.75369856962E+03  0.75369856962E+03  0.00000000000E+00 0.  1.
          6    1    1    2  501    0  0.11548775408E+03  0.52514967216E+02 -0.17556812429E+03  0.27721545663E+03  0.17300000000E+03 0. -1.
         -6    1    1    2    0  503 -0.11548775408E+03 -0.52514967216E+02 -0.50548634893E+03  0.54912720938E+03  0.17300000000E+03 0.  1.
<mgrwt>
<rscale>  2 0.21453262E+03</rscale>
<asrwt>0</asrwt>
<pdfrwt beam="1">  1       21 0.11176014E-01 0.21453262E+03</pdfrwt>
<pdfrwt beam="2">  1       21 0.11595363E+00 0.21453262E+03</pdfrwt>
<totfact> 0.37823156E+04</totfact>
</mgrwt>
</event>
<event>
 4    1  0.4199481E+000  0.2134338E+03  0.7546771E-02  0.1138875E+00
         21   -1    0    0  501  502  0.00000000000E+00  0.00000000000E+00  0.53334189357E+03  0.53334189357E+03  0.00000000000E+00 0. -1.
         21   -1    0    0  502  503 -0.00000000000E+00 -0.00000000000E+00 -0.87431568888E+02  0.87431568888E+02  0.00000000000E+00 0.  1.
          6    1    1    2  501    0 -0.65329438428E+02  0.10656940126E+03  0.17578546768E+03  0.27650407494E+03  0.17300000000E+03 0.  1.
         -6    1    1    2    0  503  0.65329438428E+02 -0.10656940126E+03  0.27012485701E+03  0.34426938752E+03  0.17300000000E+03 0. -1.
<mgrwt>
<rscale>  2 0.21343377E+03</rscale>
<asrwt>0</asrwt>
<pdfrwt beam="1">  1       21 0.82052597E-01 0.21343377E+03</pdfrwt>
<pdfrwt beam="2">  1       21 0.13451011E-01 0.21343377E+03</pdfrwt>
<totfact> 0.61471901E+04</totfact>
</mgrwt>
</event>
<event>
 4    1  0.4199481E+000  0.2197074E+03  0.7546771E-02  0.1134101E+00
         21   -1    0    0  503  502  0.00000000000E+00  0.00000000000E+00  0.49678448584E+03  0.49678448584E+03  0.00000000000E+00 0.  1.
         21   -1    0    0  501  503 -0.00000000000E+00 -0.00000000000E+00 -0.13344964406E+03  0.13344964406E+03  0.00000000000E+00 0.  1.
          6    1    1    2  501    0 -0.38701693392E+02  0.12978650422E+03  0.17359285393E+02  0.22039215626E+03  0.17300000000E+03 0.  1.
         -6    1    1    2    0  502  0.38701693392E+02 -0.12978650422E+03  0.34597555638E+03  0.40984197365E+03  0.17300000000E+03 0.  1.
<mgrwt>
<rscale>  2 0.21970744E+03</rscale>
<asrwt>0</asrwt>
<pdfrwt beam="1">  1       21 0.76428381E-01 0.21970744E+03</pdfrwt>
<pdfrwt beam="2">  1       21 0.20530715E-01 0.21970744E+03</pdfrwt>
<totfact> 0.33024054E+04</totfact>
</mgrwt>
</event>
<event>
 4    1  0.4199481E+000  0.3989187E+03  0.7546771E-02  0.1044155E+00
         21   -1    0    0  503  502  0.00000000000E+00  0.00000000000E+00  0.76766121460E+03  0.76766121460E+03  0.00000000000E+00 0.  1.
         21   -1    0    0  501  503 -0.00000000000E+00 -0.00000000000E+00 -0.21011594265E+03  0.21011594265E+03  0.00000000000E+00 0. -1.
          6    1    1    2  501    0  0.25320875473E+03  0.25513225989E+03  0.33536983409E+03  0.52116126979E+03  0.17300000000E+03 0. -1.
         -6    1    1    2    0  502 -0.25320875473E+03 -0.25513225989E+03  0.22217543785E+03  0.45661588747E+03  0.17300000000E+03 0.  1.
<mgrwt>
<rscale>  2 0.39891872E+03</rscale>
<asrwt>0</asrwt>
<pdfrwt beam="1">  1       21 0.11810172E+00 0.39891872E+03</pdfrwt>
<pdfrwt beam="2">  1       21 0.32325530E-01 0.39891872E+03</pdfrwt>
<totfact> 0.45050110E+03</totfact>
</mgrwt>
</event>
<event>
 4    1  0.4199481E+000  0.1922059E+03  0.7546771E-02  0.1156487E+00
         21   -1    0    0  501  502  0.00000000000E+00  0.00000000000E+00  0.24064376778E+03  0.24064376778E+03  0.00000000000E+00 0.  1.
         21   -1    0    0  502  503 -0.00000000000E+00 -0.00000000000E+00 -0.15946759161E+03  0.15946759161E+03  0.00000000000E+00 0. -1.
          6    1    1    2  501    0 -0.39924454109E+02 -0.73621759048E+02  0.79230298600E+02  0.20789556430E+03  0.17300000000E+03 0.  1.
         -6    1    1    2    0  503  0.39924454109E+02  0.73621759048E+02  0.19458775698E+01  0.19221579509E+03  0.17300000000E+03 0. -1.
<mgrwt>
<rscale>  2 0.19220595E+03</rscale>
<asrwt>0</asrwt>
<pdfrwt beam="1">  1       21 0.37022118E-01 0.19220595E+03</pdfrwt>
<pdfrwt beam="2">  1       21 0.24533476E-01 0.19220595E+03</pdfrwt>
<totfact> 0.11050260E+05</totfact>
</mgrwt>
</event>
<event>
 4    1  0.4199481E+000  0.2269678E+03  0.7546771E-02  0.1128792E+00
         21   -1    0    0  503  502  0.00000000000E+00  0.00000000000E+00  0.11010150973E+03  0.11010150973E+03  0.00000000000E+00 0. -1.
         21   -1    0    0  501  503 -0.00000000000E+00 -0.00000000000E+00 -0.46819873141E+03  0.46819873141E+03  0.00000000000E+00 0.  1.
          6    1    1    2  501    0  0.54204740404E+02 -0.13655488682E+03 -0.17151467405E+03  0.28448492827E+03  0.17300000000E+03 0. -1.
         -6    1    1    2    0  502 -0.54204740404E+02  0.13655488682E+03 -0.18658254764E+03  0.29381531287E+03  0.17300000000E+03 0.  1.
<mgrwt>
<rscale>  2 0.22696782E+03</rscale>
<asrwt>0</asrwt>
<pdfrwt beam="1">  1       21 0.16938694E-01 0.22696782E+03</pdfrwt>
<pdfrwt beam="2">  1       21 0.72030575E-01 0.22696782E+03</pdfrwt>
<totfact> 0.53758685E+04</totfact>
</mgrwt>
</event>
<event>
 4    1  0.4199481E+000  0.1927043E+03  0.7546771E-02  0.1156045E+00
         21   -1    0    0  501  502  0.00000000000E+00  0.00000000000E+00  0.86911832406E+02  0.86911832406E+02  0.00000000000E+00 0.  1.
         21   -1    0    0  502  503 -0.00000000000E+00 -0.00000000000E+00 -0.44990374651E+03  0.44990374651E+03  0.00000000000E+00 0.  1.
          6    1    1    2  501    0  0.97129496255E+01  0.84330276542E+02 -0.12129540482E+03  0.22770048784E+03  0.17300000000E+03 0.  1.
         -6    1    1    2    0  503 -0.97129496255E+01 -0.84330276542E+02 -0.24169650929E+03  0.30911509108E+03  0.17300000000E+03 0.  1.
<mgrwt>
<rscale>  2 0.19270427E+03</rscale>
<asrwt>0</asrwt>
<pdfrwt beam="1">  1       21 0.13371051E-01 0.19270427E+03</pdfrwt>
<pdfrwt beam="2">  1       21 0.69215960E-01 0.19270427E+03</pdfrwt>
<totfact> 0.91779095E+04</totfact>
</mgrwt>
</event>
<event>
 4    1  0.4199481E+000  0.2157368E+03  0.7546771E-02  0.1137102E+00
         21   -1    0    0  503  502  0.00000000000E+00  0.00000000000E+00  0.78769334557E+03  0.78769334557E+03  0.00000000000E+00 0.  1.
         21   -1    0    0  501  503 -0.00000000000E+00 -0.00000000000E+00 -0.70724716343E+02  0.70724716343E+02  0.00000000000E+00 0.  1.
          6    1    1    2  501    0 -0.76600880748E+02 -0.10366141404E+03  0.18437645210E+03  0.28379052095E+03  0.17300000000E+03 0.  1.
         -6    1    1    2    0  502  0.76600880748E+02  0.10366141404E+03  0.53259217713E+03  0.57462754097E+03  0.17300000000E+03 0.  1.
<mgrwt>
<rscale>  2 0.21573684E+03</rscale>
<asrwt>0</asrwt>
<pdfrwt beam="1">  1       21 0.12118359E+00 0.21573684E+03</pdfrwt>
<pdfrwt beam="2">  1       21 0.10880726E-01 0.21573684E+03</pdfrwt>
<totfact> 0.35549666E+04</totfact>
</mgrwt>
</event>
<event>
 4    1  0.4199481E+000  0.1920291E+03  0.7546771E-02  0.1156644E+00
         21   -1    0    0  503  502  0.00000000000E+00  0.00000000000E+00  0.46005526846E+02  0.46005526846E+02  0.00000000000E+00 0. -1.
         21   -1    0    0  501  503 -0.00000000000E+00 -0.00000000000E+00 -0.18361836367E+04  0.18361836367E+04  0.00000000000E+00 0. -1.
          6    1    1    2  501    0  0.82015406847E+02  0.14820215963E+02 -0.16015222325E+04  0.16129936847E+04  0.17300000000E+03 0. -1.
         -6    1    1    2    0  502 -0.82015406847E+02 -0.14820215963E+02 -0.18865587737E+03  0.26919547884E+03  0.17300000000E+03 0. -1.
<mgrwt>
<rscale>  2 0.19202908E+03</rscale>
<asrwt>0</asrwt>
<pdfrwt beam="1">  1       21 0.70777741E-02 0.19202908E+03</pdfrwt>
<pdfrwt beam="2">  1       21 0.28248976E+00 0.19202908E+03</pdfrwt>
<totfact> 0.63938929E+03</totfact>
</mgrwt>
</event>
<event>
 4    1  0.4199481E+000  0.1884390E+03  0.7546771E-02  0.1159877E+00
         21   -1    0    0  503  502  0.00000000000E+00  0.00000000000E+00  0.80867275815E+03  0.80867275815E+03  0.00000000000E+00 0. -1.
         21   -1    0    0  501  503 -0.00000000000E+00 -0.00000000000E+00 -0.53254593555E+02  0.53254593555E+02  0.00000000000E+00 0. -1.
          6    1    1    2  501    0 -0.10589379743E+02  0.73946758662E+02  0.19718723369E+03  0.27274908471E+03  0.17300000000E+03 0. -1.
         -6    1    1    2    0  502  0.10589379743E+02 -0.73946758662E+02  0.55823093090E+03  0.58917826699E+03  0.17300000000E+03 0. -1.
<mgrwt>
<rscale>  2 0.18843900E+03</rscale>
<asrwt>0</asrwt>
<pdfrwt beam="1">  1       21 0.12441118E+00 0.18843900E+03</pdfrwt>
<pdfrwt beam="2">  1       21 0.81930150E-02 0.18843900E+03</pdfrwt>
<totfact> 0.55687203E+04</totfact>
</mgrwt>
</event>
<event>
 4    1  0.4199481E+000  0.1868112E+03  0.7546771E-02  0.1161369E+00
         21   -1    0    0  503  502  0.00000000000E+00  0.00000000000E+00  0.19482632267E+03  0.19482632267E+03  0.00000000000E+00 0. -1.
         21   -1    0    0  501  503 -0.00000000000E+00 -0.00000000000E+00 -0.22355157444E+03  0.22355157444E+03  0.00000000000E+00 0. -1.
          6    1    1    2  501    0 -0.33506633690E+02 -0.62022000076E+02  0.78891342457E+02  0.20278625917E+03  0.17300000000E+03 0. -1.
         -6    1    1    2    0  502  0.33506633690E+02  0.62022000076E+02 -0.10761659423E+03  0.21559163794E+03  0.17300000000E+03 0. -1.
<mgrwt>
<rscale>  2 0.18681120E+03</rscale>
<asrwt>0</asrwt>
<pdfrwt beam="1">  1       21 0.29973280E-01 0.18681120E+03</pdfrwt>
<pdfrwt beam="2">  1       21 0.34392550E-01 0.18681120E+03</pdfrwt>
<totfact> 0.87170613E+04</totfact>
</mgrwt>
</event>
<event>
 4    1  0.4199481E+000  0.2245840E+03  0.7546771E-02  0.1130511E+00
         21   -1    0    0  503  502  0.00000000000E+00  0.00000000000E+00  0.61372955686E+03  0.61372955686E+03  0.00000000000E+00 0. -1.
         21   -1    0    0  501  503 -0.00000000000E+00 -0.00000000000E+00 -0.82192563959E+02  0.82192563959E+02  0.00000000000E+00 0. -1.
          6    1    1    2  501    0  0.21806217641E+02  0.14153966272E+03  0.26956928588E+03  0.35086405792E+03  0.17300000000E+03 0. -1.
         -6    1    1    2    0  502 -0.21806217641E+02 -0.14153966272E+03  0.26196770703E+03  0.34505806291E+03  0.17300000000E+03 0. -1.
<mgrwt>
<rscale>  2 0.22458403E+03</rscale>
<asrwt>0</asrwt>
<pdfrwt beam="1">  1       21 0.94419929E-01 0.22458403E+03</pdfrwt>
<pdfrwt beam="2">  1       21 0.12645010E-01 0.22458403E+03</pdfrwt>
<totfact> 0.49423540E+04</totfact>
</mgrwt>
</event>
<event>
 4    1  0.4199481E+000  0.1838915E+03  0.7546771E-02  0.1164089E+00
         21   -1    0    0  503  502  0.00000000000E+00  0.00000000000E+00  0.61166506196E+02  0.61166506196E+02  0.00000000000E+00 0. -1.
         21   -1    0    0  501  503 -0.00000000000E+00 -0.00000000000E+00 -0.58982636662E+03  0.58982636662E+03  0.00000000000E+00 0. -1.
          6    1    1    2  501    0 -0.19530426039E+02 -0.59208463987E+02 -0.34582461586E+03  0.39167683705E+03  0.17300000000E+03 0. -1.
         -6    1    1    2    0  502  0.19530426039E+02  0.59208463987E+02 -0.18283524456E+03  0.25931603576E+03  0.17300000000E+03 0. -1.
<mgrwt>
<rscale>  2 0.18389149E+03</rscale>
<asrwt>0</asrwt>
<pdfrwt beam="1">  1       21 0.94102316E-02 0.18389149E+03</pdfrwt>
<pdfrwt beam="2">  1       21 0.90742519E-01 0.18389149E+03</pdfrwt>
<totfact> 0.93439015E+04</totfact>
</mgrwt>
</event>
<event>
 4    1  0.4199481E+000  0.2622914E+03  0.7546771E-02  0.1105774E+00
         21   -1    0    0  501  502  0.00000000000E+00  0.00000000000E+00  0.20560997527E+04  0.20560997527E+04  0.00000000000E+00 0.  1.
         21   -1    0    0  502  503 -0.00000000000E+00 -0.00000000000E+00 -0.11991428436E+03  0.11991428436E+03  0.00000000000E+00 0. -1.
          6    1    1    2  501    0  0.10218295430E+03  0.16860140340E+03  0.18919180810E+04  0.19100133022E+04  0.17300000000E+03 0.  1.
         -6    1    1    2    0  503 -0.10218295430E+03 -0.16860140340E+03  0.44267387372E+02  0.26600073489E+03  0.17300000000E+03 0. -1.
<mgrwt>
<rscale>  2 0.26229142E+03</rscale>
<asrwt>0</asrwt>
<pdfrwt beam="1">  1       21 0.31632301E+00 0.26229142E+03</pdfrwt>
<pdfrwt beam="2">  1       21 0.18448353E-01 0.26229142E+03</pdfrwt>
<totfact> 0.67701162E+02</totfact>
</mgrwt>
</event>
<event>
 4    1  0.4199481E+000  0.1881239E+03  0.7546771E-02  0.1160164E+00
         21   -1    0    0  503  502  0.00000000000E+00  0.00000000000E+00  0.10749736289E+04  0.10749736289E+04  0.00000000000E+00 0.  1.
         21   -1    0    0  501  503 -0.00000000000E+00 -0.00000000000E+00 -0.48663776831E+02  0.48663776831E+02  0.00000000000E+00 0.  1.
          6    1    1    2  501    0  0.69130147260E+02  0.26127263724E+02  0.19362176487E+03  0.26996295857E+03  0.17300000000E+03 0.  1.
         -6    1    1    2    0  502 -0.69130147260E+02 -0.26127263724E+02  0.83268808722E+03  0.85367444718E+03  0.17300000000E+03 0.  1.
<mgrwt>
<rscale>  2 0.18812393E+03</rscale>
<asrwt>0</asrwt>
<pdfrwt beam="1">  1       21 0.16538054E+00 0.18812393E+03</pdfrwt>
<pdfrwt beam="2">  1       21 0.74867357E-02 0.18812393E+03</pdfrwt>
<totfact> 0.31074507E+04</totfact>
</mgrwt>
</event>
<event>
 4    1  0.4199481E+000  0.2084675E+03  0.7546771E-02  0.1142785E+00
         21   -1    0    0  501  502  0.00000000000E+00  0.00000000000E+00  0.12068370824E+03  0.12068370824E+03  0.00000000000E+00 0. -1.
         21   -1    0    0  502  503 -0.00000000000E+00 -0.00000000000E+00 -0.17481148292E+04  0.17481148292E+04  0.00000000000E+00 0.  1.
          6    1    1    2  501    0 -0.11540946653E+03 -0.14504222770E+02  0.18898801719E+02  0.20932243585E+03  0.17300000000E+03 0. -1.
         -6    1    1    2    0  503  0.11540946653E+03  0.14504222770E+02 -0.16463299226E+04  0.16594761016E+04  0.17300000000E+03 0.  1.
<mgrwt>
<rscale>  2 0.20846755E+03</rscale>
<asrwt>0</asrwt>
<pdfrwt beam="1">  1       21 0.18566725E-01 0.20846755E+03</pdfrwt>
<pdfrwt beam="2">  1       21 0.26894074E+00 0.20846755E+03</pdfrwt>
<totfact> 0.13410144E+03</totfact>
</mgrwt>
</event>
<event>
 4    1  0.4199481E+000  0.2170518E+03  0.7546771E-02  0.1136100E+00
         21   -1    0    0  503  502  0.00000000000E+00  0.00000000000E+00  0.28251115564E+03  0.28251115564E+03  0.00000000000E+00 0.  1.
         21   -1    0    0  501  503 -0.00000000000E+00 -0.00000000000E+00 -0.19751431664E+03  0.19751431664E+03  0.00000000000E+00 0.  1.
          6    1    1    2  501    0  0.10508385800E+03  0.78357408100E+02 -0.52210205267E+02  0.22324293080E+03  0.17300000000E+03 0.  1.
         -6    1    1    2    0  502 -0.10508385800E+03 -0.78357408100E+02  0.13720704426E+03  0.25678254148E+03  0.17300000000E+03 0.  1.
<mgrwt>
<rscale>  2 0.21705184E+03</rscale>
<asrwt>0</asrwt>
<pdfrwt beam="1">  1       21 0.43463255E-01 0.21705184E+03</pdfrwt>
<pdfrwt beam="2">  1       21 0.30386818E-01 0.21705184E+03</pdfrwt>
<totfact> 0.52279111E+04</totfact>
</mgrwt>
</event>
<event>
 4    1  0.4199481E+000  0.2967190E+03  0.7546771E-02  0.1086892E+00
         21   -1    0    0  501  502  0.00000000000E+00  0.00000000000E+00  0.20434471432E+03  0.20434471432E+03  0.00000000000E+00 0.  1.
         21   -1    0    0  502  503 -0.00000000000E+00 -0.00000000000E+00 -0.56330103203E+03  0.56330103203E+03  0.00000000000E+00 0. -1.
          6    1    1    2  501    0 -0.24076552610E+03 -0.12047070857E+02  0.66389269067E+01  0.29679327119E+03  0.17300000000E+03 0. -1.
         -6    1    1    2    0  503  0.24076552610E+03  0.12047070857E+02 -0.36559524462E+03  0.47085247516E+03  0.17300000000E+03 0. -1.
<mgrwt>
<rscale>  2 0.29671901E+03</rscale>
<asrwt>0</asrwt>
<pdfrwt beam="1">  1       21 0.31437648E-01 0.29671901E+03</pdfrwt>
<pdfrwt beam="2">  1       21 0.86661697E-01 0.29671901E+03</pdfrwt>
<totfact> 0.10506933E+04</totfact>
</mgrwt>
</event>
<event>
 4    1  0.4199481E+000  0.1790152E+03  0.7546771E-02  0.1168760E+00
         21   -1    0    0  503  502  0.00000000000E+00  0.00000000000E+00  0.76094935057E+02  0.76094935057E+02  0.00000000000E+00 0. -1.
         21   -1    0    0  501  503 -0.00000000000E+00 -0.00000000000E+00 -0.43947686207E+03  0.43947686207E+03  0.00000000000E+00 0. -1.
          6    1    1    2  501    0 -0.26389750952E+02  0.37696598790E+02 -0.23435084400E+03  0.29490128959E+03  0.17300000000E+03 0. -1.
         -6    1    1    2    0  502  0.26389750952E+02 -0.37696598790E+02 -0.12903108301E+03  0.22067050754E+03  0.17300000000E+03 0. -1.
<mgrwt>
<rscale>  2 0.17901523E+03</rscale>
<asrwt>0</asrwt>
<pdfrwt beam="1">  1       21 0.11706913E-01 0.17901523E+03</pdfrwt>
<pdfrwt beam="2">  1       21 0.67611825E-01 0.17901523E+03</pdfrwt>
<totfact> 0.12326067E+05</totfact>
</mgrwt>
</event>
<event>
 4    1  0.4199481E+000  0.1735932E+03  0.7546771E-02  0.1174152E+00
         21   -1    0    0  501  502  0.00000000000E+00  0.00000000000E+00  0.11693642685E+03  0.11693642685E+03  0.00000000000E+00 0. -1.
         21   -1    0    0  502  503 -0.00000000000E+00 -0.00000000000E+00 -0.94101140009E+03  0.94101140009E+03  0.00000000000E+00 0. -1.
          6    1    1    2  501    0  0.56025590490E+01  0.13198841494E+02  0.38723090379E+02  0.17785970823E+03  0.17300000000E+03 0. -1.
         -6    1    1    2    0  503 -0.56025590490E+01 -0.13198841494E+02 -0.86279806362E+03  0.88008811870E+03  0.17300000000E+03 0. -1.
<mgrwt>
<rscale>  2 0.17359320E+03</rscale>
<asrwt>0</asrwt>
<pdfrwt beam="1">  1       21 0.17990220E-01 0.17359320E+03</pdfrwt>
<pdfrwt beam="2">  1       21 0.14477098E+00 0.17359320E+03</pdfrwt>
<totfact> 0.93567133E+03</totfact>
</mgrwt>
</event>
<event>
 4    1  0.4199481E+000  0.3296903E+03  0.7546771E-02  0.1071274E+00
         21   -1    0    0  503  502  0.00000000000E+00  0.00000000000E+00  0.14948952383E+03  0.14948952383E+03  0.00000000000E+00 0.  1.
         21   -1    0    0  501  503 -0.00000000000E+00 -0.00000000000E+00 -0.74758645652E+03  0.74758645652E+03  0.00000000000E+00 0. -1.
          6    1    1    2  501    0 -0.27887553381E+03 -0.31545948576E+02 -0.37327664110E+03  0.49802726935E+03  0.17300000000E+03 0. -1.
         -6    1    1    2    0  502  0.27887553381E+03  0.31545948576E+02 -0.22482029159E+03  0.39904871099E+03  0.17300000000E+03 0.  1.
<mgrwt>
<rscale>  2 0.32969032E+03</rscale>
<asrwt>0</asrwt>
<pdfrwt beam="1">  1       21 0.22998388E-01 0.32969032E+03</pdfrwt>
<pdfrwt beam="2">  1       21 0.11501330E+00 0.32969032E+03</pdfrwt>
<totfact> 0.96375464E+03</totfact>
</mgrwt>
</event>
<event>
 4    1  0.4199481E+000  0.1998306E+03  0.7546771E-02  0.1149882E+00
         21   -1    0    0  501  502  0.00000000000E+00  0.00000000000E+00  0.21496759473E+03  0.21496759473E+03  0.00000000000E+00 0. -1.
         21   -1    0    0  502  503 -0.00000000000E+00 -0.00000000000E+00 -0.19344762564E+03  0.19344762564E+03  0.00000000000E+00 0. -1.
          6    1    1    2  501    0  0.29808224651E+02 -0.95471105717E+02  0.51470054967E+02  0.20635268072E+03  0.17300000000E+03 0. -1.
         -6    1    1    2    0  503 -0.29808224651E+02  0.95471105717E+02 -0.29950085871E+02  0.20206253964E+03  0.17300000000E+03 0. -1.
<mgrwt>
<rscale>  2 0.19983058E+03</rscale>
<asrwt>0</asrwt>
<pdfrwt beam="1">  1       21 0.33071938E-01 0.19983058E+03</pdfrwt>
<pdfrwt beam="2">  1       21 0.29761173E-01 0.19983058E+03</pdfrwt>
<totfact> 0.94996938E+04</totfact>
</mgrwt>
</event>
<event>
 4    1  0.4199481E+000  0.1860867E+03  0.7546771E-02  0.1162039E+00
         21   -1    0    0  503  502  0.00000000000E+00  0.00000000000E+00  0.14011164599E+03  0.14011164599E+03  0.00000000000E+00 0. -1.
         21   -1    0    0  501  503 -0.00000000000E+00 -0.00000000000E+00 -0.26178763875E+03  0.26178763875E+03  0.00000000000E+00 0. -1.
          6    1    1    2  501    0 -0.33076291026E+01  0.68471265262E+02 -0.10835882920E+03  0.21533669089E+03  0.17300000000E+03 0. -1.
         -6    1    1    2    0  502  0.33076291026E+01 -0.68471265262E+02 -0.13317163559E+02  0.18656259384E+03  0.17300000000E+03 0. -1.
<mgrwt>
<rscale>  2 0.18608669E+03</rscale>
<asrwt>0</asrwt>
<pdfrwt beam="1">  1       21 0.21555638E-01 0.18608669E+03</pdfrwt>
<pdfrwt beam="2">  1       21 0.40275021E-01 0.18608669E+03</pdfrwt>
<totfact> 0.11944052E+05</totfact>
</mgrwt>
</event>
<event>
 4    1  0.4199481E+000  0.2598693E+03  0.7546771E-02  0.1107222E+00
         21   -1    0    0  503  502  0.00000000000E+00  0.00000000000E+00  0.43389537895E+03  0.43389537895E+03  0.00000000000E+00 0. -1.
         21   -1    0    0  501  503 -0.00000000000E+00 -0.00000000000E+00 -0.18542484953E+03  0.18542484953E+03  0.00000000000E+00 0. -1.
          6    1    1    2  501    0  0.46434283137E+01  0.19385946658E+03  0.13025729643E+00  0.25986933481E+03  0.17300000000E+03 0. -1.
         -6    1    1    2    0  502 -0.46434283137E+01 -0.19385946658E+03  0.24834027212E+03  0.35945089367E+03  0.17300000000E+03 0. -1.
<mgrwt>
<rscale>  2 0.25986930E+03</rscale>
<asrwt>0</asrwt>
<pdfrwt beam="1">  1       21 0.66753135E-01 0.25986930E+03</pdfrwt>
<pdfrwt beam="2">  1       21 0.28526900E-01 0.25986930E+03</pdfrwt>
<totfact> 0.23337565E+04</totfact>
</mgrwt>
</event>
<event>
 4    1  0.4199481E+000  0.1778922E+03  0.7546771E-02  0.1169859E+00
         21   -1    0    0  501  502  0.00000000000E+00  0.00000000000E+00  0.73441072066E+03  0.73441072066E+03  0.00000000000E+00 0.  1.
         21   -1    0    0  502  503 -0.00000000000E+00 -0.00000000000E+00 -0.48169496682E+02  0.48169496682E+02  0.00000000000E+00 0.  1.
          6    1    1    2  501    0  0.96362277046E+01  0.40295977181E+02  0.47018710129E+03  0.50271416618E+03  0.17300000000E+03 0.  1.
         -6    1    1    2    0  503 -0.96362277046E+01 -0.40295977181E+02  0.21605412269E+03  0.27986605116E+03  0.17300000000E+03 0.  1.
<mgrwt>
<rscale>  2 0.17789217E+03</rscale>
<asrwt>0</asrwt>
<pdfrwt beam="1">  1       21 0.11298626E+00 0.17789217E+03</pdfrwt>
<pdfrwt beam="2">  1       21 0.74106923E-02 0.17789217E+03</pdfrwt>
<totfact> 0.84439158E+04</totfact>
</mgrwt>
</event>
<event>
 4    1  0.4199481E+000  0.1787870E+03  0.7546771E-02  0.1168982E+00
         21   -1    0    0  501  502  0.00000000000E+00  0.00000000000E+00  0.47625643273E+03  0.47625643273E+03  0.00000000000E+00 0. -1.
         21   -1    0    0  502  503 -0.00000000000E+00 -0.00000000000E+00 -0.68727409550E+02  0.68727409550E+02  0.00000000000E+00 0. -1.
          6    1    1    2  501    0  0.38615047142E+02 -0.23338518362E+02  0.16205034036E+03  0.24129882121E+03  0.17300000000E+03 0. -1.
         -6    1    1    2    0  503 -0.38615047142E+02  0.23338518362E+02  0.24547868282E+03  0.30368502108E+03  0.17300000000E+03 0. -1.
<mgrwt>
<rscale>  2 0.17878705E+03</rscale>
<asrwt>0</asrwt>
<pdfrwt beam="1">  1       21 0.73270219E-01 0.17878705E+03</pdfrwt>
<pdfrwt beam="2">  1       21 0.10573448E-01 0.17878705E+03</pdfrwt>
<totfact> 0.12374877E+05</totfact>
</mgrwt>
</event>
<event>
 4    1  0.4199481E+000  0.1935553E+03  0.7546771E-02  0.1155293E+00
         21   -1    0    0  501  502  0.00000000000E+00  0.00000000000E+00  0.82474346383E+03  0.82474346383E+03  0.00000000000E+00 0.  1.
         21   -1    0    0  502  503 -0.00000000000E+00 -0.00000000000E+00 -0.11049239072E+03  0.11049239072E+03  0.00000000000E+00 0.  1.
          6    1    1    2  501    0 -0.61678727152E+02  0.61076977776E+02  0.71597137522E+03  0.74167288796E+03  0.17300000000E+03 0.  1.
         -6    1    1    2    0  503  0.61678727152E+02 -0.61076977776E+02 -0.17203021134E+01  0.19356296659E+03  0.17300000000E+03 0.  1.
<mgrwt>
<rscale>  2 0.19355532E+03</rscale>
<asrwt>0</asrwt>
<pdfrwt beam="1">  1       21 0.12688361E+00 0.19355532E+03</pdfrwt>
<pdfrwt beam="2">  1       21 0.16998830E-01 0.19355532E+03</pdfrwt>
<totfact> 0.14327867E+04</totfact>
</mgrwt>
</event>
<event>
 4    1  0.4199481E+000  0.2323286E+03  0.7546771E-02  0.1125011E+00
         21   -1    0    0  503  502  0.00000000000E+00  0.00000000000E+00  0.15654711019E+03  0.15654711019E+03  0.00000000000E+00 0. -1.
         21   -1    0    0  501  503 -0.00000000000E+00 -0.00000000000E+00 -0.38883139626E+03  0.38883139626E+03  0.00000000000E+00 0. -1.
          6    1    1    2  501    0  0.94969888762E+02  0.12258996465E+03 -0.20791110467E+03  0.31177492947E+03  0.17300000000E+03 0. -1.
         -6    1    1    2    0  502 -0.94969888762E+02 -0.12258996465E+03 -0.24373181400E+02  0.23360357698E+03  0.17300000000E+03 0. -1.
<mgrwt>
<rscale>  2 0.23232860E+03</rscale>
<asrwt>0</asrwt>
<pdfrwt beam="1">  1       21 0.24084171E-01 0.23232860E+03</pdfrwt>
<pdfrwt beam="2">  1       21 0.59820214E-01 0.23232860E+03</pdfrwt>
<totfact> 0.41604202E+04</totfact>
</mgrwt>
</event>
<event>
 4    1  0.4199481E+000  0.1827469E+03  0.7546771E-02  0.1165171E+00
         21   -1    0    0  501  502  0.00000000000E+00  0.00000000000E+00  0.13288685578E+03  0.13288685578E+03  0.00000000000E+00 0. -1.
         21   -1    0    0  502  503 -0.00000000000E+00 -0.00000000000E+00 -0.34235770028E+03  0.34235770028E+03  0.00000000000E+00 0. -1.
          6    1    1    2  501    0  0.57545960994E+02  0.12486039338E+02  0.17802370502E+02  0.18361199090E+03  0.17300000000E+03 0. -1.
         -6    1    1    2    0  503 -0.57545960994E+02 -0.12486039338E+02 -0.22727321501E+03  0.29163256516E+03  0.17300000000E+03 0. -1.
<mgrwt>
<rscale>  2 0.18274693E+03</rscale>
<asrwt>0</asrwt>
<pdfrwt beam="1">  1       21 0.20444132E-01 0.18274693E+03</pdfrwt>
<pdfrwt beam="2">  1       21 0.52670415E-01 0.18274693E+03</pdfrwt>
<totfact> 0.76017414E+04</totfact>
</mgrwt>
</event>
<event>
 4    1  0.4199481E+000  0.1855931E+03  0.7546771E-02  0.1162497E+00
         21   -1    0    0  503  502  0.00000000000E+00  0.00000000000E+00  0.49092708015E+02  0.49092708015E+02  0.00000000000E+00 0. -1.
         21   -1    0    0  501  503 -0.00000000000E+00 -0.00000000000E+00 -0.14612376101E+04  0.14612376101E+04  0.00000000000E+00 0. -1.
          6    1    1    2  501    0  0.60972574216E+02 -0.28251697364E+02 -0.12505459925E+04  0.12642428930E+04  0.17300000000E+03 0. -1.
         -6    1    1    2    0  502 -0.60972574216E+02  0.28251697364E+02 -0.16159890960E+03  0.24608742511E+03  0.17300000000E+03 0. -1.
<mgrwt>
<rscale>  2 0.18559314E+03</rscale>
<asrwt>0</asrwt>
<pdfrwt beam="1">  1       21 0.75527234E-02 0.18559314E+03</pdfrwt>
<pdfrwt beam="2">  1       21 0.22480581E+00 0.18559314E+03</pdfrwt>
<totfact> 0.12546901E+04</totfact>
</mgrwt>
</event>
<event>
 4    1  0.4199481E+000  0.2606855E+03  0.7546771E-02  0.1106732E+00
         21   -1    0    0  503  502  0.00000000000E+00  0.00000000000E+00  0.31526786536E+03  0.31526786536E+03  0.00000000000E+00 0. -1.
         21   -1    0    0  501  503 -0.00000000000E+00 -0.00000000000E+00 -0.23748134729E+03  0.23748134729E+03  0.00000000000E+00 0.  1.
          6    1    1    2  501    0 -0.18516236130E+03  0.61178480821E+02 -0.45088932410E+02  0.26455607796E+03  0.17300000000E+03 0.  1.
         -6    1    1    2    0  502  0.18516236130E+03 -0.61178480821E+02  0.12287545048E+03  0.28819313470E+03  0.17300000000E+03 0. -1.
<mgrwt>
<rscale>  2 0.26068546E+03</rscale>
<asrwt>0</asrwt>
<pdfrwt beam="1">  1       21 0.48502748E-01 0.26068546E+03</pdfrwt>
<pdfrwt beam="2">  1       21 0.36535592E-01 0.26068546E+03</pdfrwt>
<totfact> 0.28355924E+04</totfact>
</mgrwt>
</event>
<event>
 4    1  0.4199481E+000  0.2203074E+03  0.7546771E-02  0.1133654E+00
         21   -1    0    0  501  502  0.00000000000E+00  0.00000000000E+00  0.15934666587E+03  0.15934666587E+03  0.00000000000E+00 0. -1.
         21   -1    0    0  502  503 -0.00000000000E+00 -0.00000000000E+00 -0.35540244753E+03  0.35540244753E+03  0.00000000000E+00 0.  1.
          6    1    1    2  501    0  0.13587309943E+03  0.12036278219E+02 -0.71031967816E+00  0.22030859197E+03  0.17300000000E+03 0. -1.
         -6    1    1    2    0  503 -0.13587309943E+03 -0.12036278219E+02 -0.19534546198E+03  0.29444052143E+03  0.17300000000E+03 0.  1.
<mgrwt>
<rscale>  2 0.22030745E+03</rscale>
<asrwt>0</asrwt>
<pdfrwt beam="1">  1       21 0.24514872E-01 0.22030745E+03</pdfrwt>
<pdfrwt beam="2">  1       21 0.54677299E-01 0.22030745E+03</pdfrwt>
<totfact> 0.49007232E+04</totfact>
</mgrwt>
</event>
<event>
 4    1  0.4199481E+000  0.1818214E+03  0.7546771E-02  0.1166052E+00
         21   -1    0    0  503  502  0.00000000000E+00  0.00000000000E+00  0.72984913132E+03  0.72984913132E+03  0.00000000000E+00 0.  1.
         21   -1    0    0  501  503 -0.00000000000E+00 -0.00000000000E+00 -0.96541533353E+02  0.96541533353E+02  0.00000000000E+00 0.  1.
          6    1    1    2  501    0 -0.54586465802E+02 -0.12261809536E+02  0.61769611776E+03  0.64390024702E+03  0.17300000000E+03 0.  1.
         -6    1    1    2    0  502  0.54586465802E+02  0.12261809536E+02  0.15611480214E+02  0.18249041766E+03  0.17300000000E+03 0.  1.
<mgrwt>
<rscale>  2 0.18182143E+03</rscale>
<asrwt>0</asrwt>
<pdfrwt beam="1">  1       21 0.11228448E+00 0.18182143E+03</pdfrwt>
<pdfrwt beam="2">  1       21 0.14852544E-01 0.18182143E+03</pdfrwt>
<totfact> 0.24978692E+04</totfact>
</mgrwt>
</event>
<event>
 4    1  0.4199481E+000  0.1886806E+03  0.7546771E-02  0.1159657E+00
         21   -1    0    0  503  502  0.00000000000E+00  0.00000000000E+00  0.10608525858E+03  0.10608525858E+03  0.00000000000E+00 0.  1.
         21   -1    0    0  501  503 -0.00000000000E+00 -0.00000000000E+00 -0.43794095930E+03  0.43794095930E+03  0.00000000000E+00 0.  1.
          6    1    1    2  501    0 -0.55821236351E+02 -0.50550502234E+02 -0.29743330691E+03  0.35223136681E+03  0.17300000000E+03 0.  1.
         -6    1    1    2    0  502  0.55821236351E+02  0.50550502234E+02 -0.34422393817E+02  0.19179485108E+03  0.17300000000E+03 0.  1.
<mgrwt>
<rscale>  2 0.18868059E+03</rscale>
<asrwt>0</asrwt>
<pdfrwt beam="1">  1       21 0.16320809E-01 0.18868059E+03</pdfrwt>
<pdfrwt beam="2">  1       21 0.67375533E-01 0.18868059E+03</pdfrwt>
<totfact> 0.67875330E+04</totfact>
</mgrwt>
</event>
<event>
 4    1  0.4199481E+000  0.1961196E+03  0.7546771E-02  0.1153055E+00
         21   -1    0    0  503  502  0.00000000000E+00  0.00000000000E+00  0.39413524242E+03  0.39413524242E+03  0.00000000000E+00 0. -1.
         21   -1    0    0  501  503 -0.00000000000E+00 -0.00000000000E+00 -0.31047442360E+03  0.31047442360E+03  0.00000000000E+00 0.  1.
          6    1    1    2  501    0 -0.65738461610E+02 -0.64902779904E+02 -0.24989855469E+03  0.31766681257E+03  0.17300000000E+03 0.  1.
         -6    1    1    2    0  502  0.65738461610E+02  0.64902779904E+02  0.33355937351E+03  0.38694285345E+03  0.17300000000E+03 0. -1.
<mgrwt>
<rscale>  2 0.19611965E+03</rscale>
<asrwt>0</asrwt>
<pdfrwt beam="1">  1       21 0.60636191E-01 0.19611965E+03</pdfrwt>
<pdfrwt beam="2">  1       21 0.47765296E-01 0.19611965E+03</pdfrwt>
<totfact> 0.10589542E+04</totfact>
</mgrwt>
</event>
<event>
 4    1  0.4199481E+000  0.3877111E+03  0.7546771E-02  0.1048120E+00
         21   -1    0    0  503  502  0.00000000000E+00  0.00000000000E+00  0.10731823095E+03  0.10731823095E+03  0.00000000000E+00 0. -1.
         21   -1    0    0  501  503 -0.00000000000E+00 -0.00000000000E+00 -0.14103416693E+04  0.14103416693E+04  0.00000000000E+00 0.  1.
          6    1    1    2  501    0 -0.12637790312E+03 -0.32314009229E+03 -0.71427653541E+03  0.81271819389E+03  0.17300000000E+03 0. -1.
         -6    1    1    2    0  502  0.12637790312E+03  0.32314009229E+03 -0.58874690293E+03  0.70494170635E+03  0.17300000000E+03 0.  1.
<mgrwt>
<rscale>  2 0.38771110E+03</rscale>
<asrwt>0</asrwt>
<pdfrwt beam="1">  1       21 0.16510498E-01 0.38771110E+03</pdfrwt>
<pdfrwt beam="2">  1       21 0.21697563E+00 0.38771110E+03</pdfrwt>
<totfact> 0.30128998E+03</totfact>
</mgrwt>
</event>
<event>
 4    1  0.4199481E+000  0.1974141E+03  0.7546771E-02  0.1151939E+00
         21   -1    0    0  503  502  0.00000000000E+00  0.00000000000E+00  0.31092274345E+03  0.31092274345E+03  0.00000000000E+00 0.  1.
         21   -1    0    0  501  503 -0.00000000000E+00 -0.00000000000E+00 -0.16855814324E+03  0.16855814324E+03  0.00000000000E+00 0.  1.
          6    1    1    2  501    0  0.85484659119E+02 -0.41661687961E+02  0.19257121224E+03  0.27578251390E+03  0.17300000000E+03 0.  1.
         -6    1    1    2    0  502 -0.85484659119E+02  0.41661687961E+02 -0.50206612020E+02  0.20369837279E+03  0.17300000000E+03 0.  1.
<mgrwt>
<rscale>  2 0.19741409E+03</rscale>
<asrwt>0</asrwt>
<pdfrwt beam="1">  1       21 0.47834268E-01 0.19741409E+03</pdfrwt>
<pdfrwt beam="2">  1       21 0.25932022E-01 0.19741409E+03</pdfrwt>
<totfact> 0.58869925E+04</totfact>
</mgrwt>
</event>
<event>
 4    1  0.4199481E+000  0.2614520E+03  0.7546771E-02  0.1106274E+00
         21   -1    0    0  501  502  0.00000000000E+00  0.00000000000E+00  0.13042146627E+04  0.13042146627E+04  0.00000000000E+00 0.  1.
         21   -1    0    0  502  503 -0.00000000000E+00 -0.00000000000E+00 -0.14034778927E+03  0.14034778927E+03  0.00000000000E+00 0.  1.
          6    1    1    2  501    0  0.22978111779E+02 -0.19467964413E+03  0.11536557266E+04  0.11829111095E+04  0.17300000000E+03 0.  1.
         -6    1    1    2    0  503 -0.22978111779E+02  0.19467964413E+03  0.10211146757E+02  0.26165134240E+03  0.17300000000E+03 0.  1.
<mgrwt>
<rscale>  2 0.26145202E+03</rscale>
<asrwt>0</asrwt>
<pdfrwt beam="1">  1       21 0.20064840E+00 0.26145202E+03</pdfrwt>
<pdfrwt beam="2">  1       21 0.21591968E-01 0.26145202E+03</pdfrwt>
<totfact> 0.25029693E+03</totfact>
</mgrwt>
</event>
<event>
 4    1  0.4199481E+000  0.1831449E+03  0.7546771E-02  0.1164794E+00
         21   -1    0    0  501  502  0.00000000000E+00  0.00000000000E+00  0.20407439158E+03  0.20407439158E+03  0.00000000000E+00 0.  1.
         21   -1    0    0  502  503 -0.00000000000E+00 -0.00000000000E+00 -0.23505047380E+03  0.23505047380E+03  0.00000000000E+00 0.  1.
          6    1    1    2  501    0  0.34566146016E+02  0.49175484735E+02  0.10491908718E+03  0.21106885512E+03  0.17300000000E+03 0.  1.
         -6    1    1    2    0  503 -0.34566146016E+02 -0.49175484735E+02 -0.13589516940E+03  0.22805601026E+03  0.17300000000E+03 0.  1.
<mgrwt>
<rscale>  2 0.18314488E+03</rscale>
<asrwt>0</asrwt>
<pdfrwt beam="1">  1       21 0.31396060E-01 0.18314488E+03</pdfrwt>
<pdfrwt beam="2">  1       21 0.36161611E-01 0.18314488E+03</pdfrwt>
<totfact> 0.72188075E+04</totfact>
</mgrwt>
</event>
<event>
 4    1  0.4199481E+000  0.1767149E+03  0.7546771E-02  0.1171021E+00
         21   -1    0    0  501  502  0.00000000000E+00  0.00000000000E+00  0.21821196248E+03  0.21821196248E+03  0.00000000000E+00 0.  1.
         21   -1    0    0  502  503 -0.00000000000E+00 -0.00000000000E+00 -0.15016735517E+03  0.15016735517E+03  0.00000000000E+00 0.  1.
          6    1    1    2  501    0 -0.18314858817E+02  0.31044080841E+02 -0.59094976256E+01  0.17681371884E+03  0.17300000000E+03 0. -1.
         -6    1    1    2    0  503  0.18314858817E+02 -0.31044080841E+02  0.73954104938E+02  0.19156559881E+03  0.17300000000E+03 0. -1.
<mgrwt>
<rscale>  2 0.17671494E+03</rscale>
<asrwt>0</asrwt>
<pdfrwt beam="1">  1       21 0.33571071E-01 0.17671494E+03</pdfrwt>
<pdfrwt beam="2">  1       21 0.23102670E-01 0.17671494E+03</pdfrwt>
<totfact> 0.15118432E+05</totfact>
</mgrwt>
</event>
<event>
 4    1  0.4199481E+000  0.2028858E+03  0.7546771E-02  0.1147327E+00
         21   -1    0    0  503  502  0.00000000000E+00  0.00000000000E+00  0.37064330085E+03  0.37064330085E+03  0.00000000000E+00 0.  1.
         21   -1    0    0  501  503 -0.00000000000E+00 -0.00000000000E+00 -0.11114531126E+03  0.11114531126E+03  0.00000000000E+00 0.  1.
          6    1    1    2  501    0 -0.84808820475E+02  0.63569733363E+02  0.12297052585E+03  0.23724332922E+03  0.17300000000E+03 0.  1.
         -6    1    1    2    0  502  0.84808820475E+02 -0.63569733363E+02  0.13652746373E+03  0.24454528289E+03  0.17300000000E+03 0.  1.
<mgrwt>
<rscale>  2 0.20288580E+03</rscale>
<asrwt>0</asrwt>
<pdfrwt beam="1">  1       21 0.57022046E-01 0.20288580E+03</pdfrwt>
<pdfrwt beam="2">  1       21 0.17099279E-01 0.20288580E+03</pdfrwt>
<totfact> 0.88788627E+04</totfact>
</mgrwt>
</event>
<event>
 4    1  0.4199481E+000  0.3778012E+03  0.7546771E-02  0.1051749E+00
         21   -1    0    0  501  502  0.00000000000E+00  0.00000000000E+00  0.36542355958E+03  0.36542355958E+03  0.00000000000E+00 0.  1.
         21   -1    0    0  502  503 -0.00000000000E+00 -0.00000000000E+00 -0.79781427743E+03  0.79781427743E+03  0.00000000000E+00 0. -1.
          6    1    1    2  501    0 -0.33298929198E+03 -0.43850208412E+02  0.19933254228E+03  0.42716176300E+03  0.17300000000E+03 0.  1.
         -6    1    1    2    0  503  0.33298929198E+03  0.43850208412E+02 -0.63172326013E+03  0.73607607402E+03  0.17300000000E+03 0. -1.
<mgrwt>
<rscale>  2 0.37780115E+03</rscale>
<asrwt>0</asrwt>
<pdfrwt beam="1">  1       21 0.56219010E-01 0.37780115E+03</pdfrwt>
<pdfrwt beam="2">  1       21 0.12274066E+00 0.37780115E+03</pdfrwt>
<totfact> 0.13087926E+03</totfact>
</mgrwt>
</event>
<event>
 4    1  0.4199481E+000  0.1893267E+03  0.7546771E-02  0.1159070E+00
         21   -1    0    0  503  502  0.00000000000E+00  0.00000000000E+00  0.31499583735E+03  0.31499583735E+03  0.00000000000E+00 0. -1.
         21   -1    0    0  501  503 -0.00000000000E+00 -0.00000000000E+00 -0.24947238260E+03  0.24947238260E+03  0.00000000000E+00 0.  1.
          6    1    1    2  501    0 -0.39592710814E+02  0.65939443118E+02 -0.17537743964E+03  0.25807332145E+03  0.17300000000E+03 0.  1.
         -6    1    1    2    0  502  0.39592710814E+02 -0.65939443118E+02  0.24090089439E+03  0.30639489850E+03  0.17300000000E+03 0. -1.
<mgrwt>
<rscale>  2 0.18932668E+03</rscale>
<asrwt>0</asrwt>
<pdfrwt beam="1">  1       21 0.48460898E-01 0.18932668E+03</pdfrwt>
<pdfrwt beam="2">  1       21 0.38380366E-01 0.18932668E+03</pdfrwt>
<totfact> 0.26670490E+04</totfact>
</mgrwt>
</event>
<event>
 4    1  0.4199481E+000  0.1918640E+03  0.7546771E-02  0.1156791E+00
         21   -1    0    0  503  502  0.00000000000E+00  0.00000000000E+00  0.80109370791E+02  0.80109370791E+02  0.00000000000E+00 0. -1.
         21   -1    0    0  501  503 -0.00000000000E+00 -0.00000000000E+00 -0.49047839375E+03  0.49047839375E+03  0.00000000000E+00 0. -1.
          6    1    1    2  501    0 -0.81042946736E+02 -0.17744051108E+02 -0.27686086242E+03  0.33684380313E+03  0.17300000000E+03 0.  1.
         -6    1    1    2    0  502  0.81042946736E+02  0.17744051108E+02 -0.13350816053E+03  0.23374396141E+03  0.17300000000E+03 0.  1.
<mgrwt>
<rscale>  2 0.19186404E+03</rscale>
<asrwt>0</asrwt>
<pdfrwt beam="1">  1       21 0.12324519E-01 0.19186404E+03</pdfrwt>
<pdfrwt beam="2">  1       21 0.75458214E-01 0.19186404E+03</pdfrwt>
<totfact> 0.87776534E+04</totfact>
</mgrwt>
</event>
<event>
 4    1  0.4199481E+000  0.2698436E+03  0.7546771E-02  0.1101369E+00
         21   -1    0    0  503  502  0.00000000000E+00  0.00000000000E+00  0.17027028736E+04  0.17027028736E+04  0.00000000000E+00 0. -1.
         21   -1    0    0  501  503 -0.00000000000E+00 -0.00000000000E+00 -0.56533476287E+02  0.56533476287E+02  0.00000000000E+00 0.  1.
          6    1    1    2  501    0 -0.19125832052E+03  0.79415591970E+02  0.12571838981E+04  0.12858176134E+04  0.17300000000E+03 0. -1.
         -6    1    1    2    0  502  0.19125832052E+03 -0.79415591970E+02  0.38898549924E+03  0.47341873647E+03  0.17300000000E+03 0.  1.
<mgrwt>
<rscale>  2 0.26984362E+03</rscale>
<asrwt>0</asrwt>
<pdfrwt beam="1">  1       21 0.26195425E+00 0.26984362E+03</pdfrwt>
<pdfrwt beam="2">  1       21 0.86974592E-02 0.26984362E+03</pdfrwt>
<totfact> 0.54779605E+03</totfact>
</mgrwt>
</event>
<event>
 4    1  0.4199481E+000  0.1766804E+03  0.7546771E-02  0.1171055E+00
         21   -1    0    0  501  502  0.00000000000E+00  0.00000000000E+00  0.12679502646E+03  0.12679502646E+03  0.00000000000E+00 0. -1.
         21   -1    0    0  502  503 -0.00000000000E+00 -0.00000000000E+00 -0.47050257938E+03  0.47050257938E+03  0.00000000000E+00 0. -1.
          6    1    1    2  501    0  0.64645853695E+01 -0.35287063986E+02  0.34353647465E+02  0.17998927980E+03  0.17300000000E+03 0. -1.
         -6    1    1    2    0  503 -0.64645853695E+01  0.35287063986E+02 -0.37806120039E+03  0.41730832604E+03  0.17300000000E+03 0. -1.
<mgrwt>
<rscale>  2 0.17668041E+03</rscale>
<asrwt>0</asrwt>
<pdfrwt beam="1">  1       21 0.19506927E-01 0.17668041E+03</pdfrwt>
<pdfrwt beam="2">  1       21 0.72385011E-01 0.17668041E+03</pdfrwt>
<totfact> 0.41947765E+04</totfact>
</mgrwt>
</event>
<event>
 4    1  0.4199481E+000  0.1808817E+03  0.7546771E-02  0.1166952E+00
         21   -1    0    0  503  502  0.00000000000E+00  0.00000000000E+00  0.23229517470E+04  0.23229517470E+04  0.00000000000E+00 0. -1.
         21   -1    0    0  501  503 -0.00000000000E+00 -0.00000000000E+00 -0.14085310029E+02  0.14085310029E+02  0.00000000000E+00 0. -1.
          6    1    1    2  501    0 -0.52633422652E+02  0.43485727008E+01  0.11470442883E+04  0.11612186645E+04  0.17300000000E+03 0. -1.
         -6    1    1    2    0  502  0.52633422652E+02 -0.43485727008E+01  0.11618221487E+04  0.11758183926E+04  0.17300000000E+03 0. -1.
<mgrwt>
<rscale>  2 0.18088169E+03</rscale>
<asrwt>0</asrwt>
<pdfrwt beam="1">  1       21 0.35737689E+00 0.18088169E+03</pdfrwt>
<pdfrwt beam="2">  1       21 0.21669726E-02 0.18088169E+03</pdfrwt>
<totfact> 0.17320348E+04</totfact>
</mgrwt>
</event>
<event>
 4    1  0.4199481E+000  0.2239820E+03  0.7546771E-02  0.1130949E+00
         21   -1    0    0  503  502  0.00000000000E+00  0.00000000000E+00  0.15133701592E+04  0.15133701592E+04  0.00000000000E+00 0.  1.
         21   -1    0    0  501  503 -0.00000000000E+00 -0.00000000000E+00 -0.53975937942E+02  0.53975937942E+02  0.00000000000E+00 0.  1.
          6    1    1    2  501    0 -0.12890077906E+03  0.60195850554E+02  0.24291013027E+03  0.33041380518E+03  0.17300000000E+03 0.  1.
         -6    1    1    2    0  502  0.12890077906E+03 -0.60195850554E+02  0.12164840910E+04  0.12369322919E+04  0.17300000000E+03 0.  1.
<mgrwt>
<rscale>  2 0.22398203E+03</rscale>
<asrwt>0</asrwt>
<pdfrwt beam="1">  1       21 0.23282615E+00 0.22398203E+03</pdfrwt>
<pdfrwt beam="2">  1       21 0.83039916E-02 0.22398203E+03</pdfrwt>
<totfact> 0.92001132E+03</totfact>
</mgrwt>
</event>
<event>
 4    1  0.4199481E+000  0.1901586E+03  0.7546771E-02  0.1158318E+00
         21   -1    0    0  501  502  0.00000000000E+00  0.00000000000E+00  0.57724866377E+03  0.57724866377E+03  0.00000000000E+00 0. -1.
         21   -1    0    0  502  503 -0.00000000000E+00 -0.00000000000E+00 -0.13130432164E+03  0.13130432164E+03  0.00000000000E+00 0. -1.
          6    1    1    2  501    0 -0.76057232297E+02  0.21132658417E+02  0.47916120064E+03  0.51551503183E+03  0.17300000000E+03 0. -1.
         -6    1    1    2    0  503  0.76057232297E+02 -0.21132658417E+02 -0.33216858512E+02  0.19303795359E+03  0.17300000000E+03 0. -1.
<mgrwt>
<rscale>  2 0.19015860E+03</rscale>
<asrwt>0</asrwt>
<pdfrwt beam="1">  1       21 0.88807485E-01 0.19015860E+03</pdfrwt>
<pdfrwt beam="2">  1       21 0.20200665E-01 0.19015860E+03</pdfrwt>
<totfact> 0.24583757E+04</totfact>
</mgrwt>
</event>
<event>
 4    1  0.4199481E+000  0.1790041E+03  0.7546771E-02  0.1168770E+00
         21   -1    0    0  503  502  0.00000000000E+00  0.00000000000E+00  0.55034773338E+03  0.55034773338E+03  0.00000000000E+00 0. -1.
         21   -1    0    0  501  503 -0.00000000000E+00 -0.00000000000E+00 -0.42522346220E+03  0.42522346220E+03  0.00000000000E+00 0. -1.
          6    1    1    2  501    0  0.18727896841E+02  0.41984766832E+02 -0.39060055195E+03  0.42966410829E+03  0.17300000000E+03 0. -1.
         -6    1    1    2    0  502 -0.18727896841E+02 -0.41984766832E+02  0.51572482313E+03  0.54590708729E+03  0.17300000000E+03 0. -1.
<mgrwt>
<rscale>  2 0.17900406E+03</rscale>
<asrwt>0</asrwt>
<pdfrwt beam="1">  1       21 0.84668882E-01 0.17900406E+03</pdfrwt>
<pdfrwt beam="2">  1       21 0.65418995E-01 0.17900406E+03</pdfrwt>
<totfact> 0.26301704E+03</totfact>
</mgrwt>
</event>
<event>
 4    1  0.4199481E+000  0.1900467E+03  0.7546771E-02  0.1158419E+00
         21   -1    0    0  503  502  0.00000000000E+00  0.00000000000E+00  0.24106280032E+03  0.24106280032E+03  0.00000000000E+00 0.  1.
         21   -1    0    0  501  503 -0.00000000000E+00 -0.00000000000E+00 -0.21307688203E+03  0.21307688203E+03  0.00000000000E+00 0.  1.
          6    1    1    2  501    0 -0.49751622750E+02 -0.60938633319E+02 -0.10972159552E+03  0.21944605150E+03  0.17300000000E+03 0.  1.
         -6    1    1    2    0  502  0.49751622750E+02  0.60938633319E+02  0.13770751381E+03  0.23469363084E+03  0.17300000000E+03 0.  1.
<mgrwt>
<rscale>  2 0.19004668E+03</rscale>
<asrwt>0</asrwt>
<pdfrwt beam="1">  1       21 0.37086585E-01 0.19004668E+03</pdfrwt>
<pdfrwt beam="2">  1       21 0.32781059E-01 0.19004668E+03</pdfrwt>
<totfact> 0.62881988E+04</totfact>
</mgrwt>
</event>
<event>
 4    1  0.4199481E+000  0.2070152E+03  0.7546771E-02  0.1143952E+00
         21   -1    0    0  501  502  0.00000000000E+00  0.00000000000E+00  0.14796930785E+04  0.14796930785E+04  0.00000000000E+00 0.  1.
         21   -1    0    0  502  503 -0.00000000000E+00 -0.00000000000E+00 -0.40378605489E+02  0.40378605489E+02  0.00000000000E+00 0.  1.
          6    1    1    2  501    0 -0.44205208225E+02 -0.10474829495E+03  0.11237874528E+04  0.11426957358E+04  0.17300000000E+03 0.  1.
         -6    1    1    2    0  503  0.44205208225E+02  0.10474829495E+03  0.31552702022E+03  0.37737594812E+03  0.17300000000E+03 0.  1.
<mgrwt>
<rscale>  2 0.20701523E+03</rscale>
<asrwt>0</asrwt>
<pdfrwt beam="1">  1       21 0.22764505E+00 0.20701523E+03</pdfrwt>
<pdfrwt beam="2">  1       21 0.62120943E-02 0.20701523E+03</pdfrwt>
<totfact> 0.16590456E+04</totfact>
</mgrwt>
</event>
<event>
 4    1  0.4199481E+000  0.2388944E+03  0.7546771E-02  0.1120532E+00
         21   -1    0    0  503  502  0.00000000000E+00  0.00000000000E+00  0.67265556792E+02  0.67265556792E+02  0.00000000000E+00 0.  1.
         21   -1    0    0  501  503 -0.00000000000E+00 -0.00000000000E+00 -0.10407855005E+04  0.10407855005E+04  0.00000000000E+00 0. -1.
          6    1    1    2  501    0 -0.16447670842E+03  0.94323056385E+01 -0.72493382705E+03  0.76328212975E+03  0.17300000000E+03 0. -1.
         -6    1    1    2    0  502  0.16447670842E+03 -0.94323056385E+01 -0.24858611667E+03  0.34476892755E+03  0.17300000000E+03 0.  1.
<mgrwt>
<rscale>  2 0.23889445E+03</rscale>
<asrwt>0</asrwt>
<pdfrwt beam="1">  1       21 0.10348548E-01 0.23889445E+03</pdfrwt>
<pdfrwt beam="2">  1       21 0.16012084E+00 0.23889445E+03</pdfrwt>
<totfact> 0.18617264E+04</totfact>
</mgrwt>
</event>
<event>
 4    1  0.4199481E+000  0.2454433E+03  0.7546771E-02  0.1116219E+00
         21   -1    0    0  501  502  0.00000000000E+00  0.00000000000E+00  0.18984424483E+03  0.18984424483E+03  0.00000000000E+00 0. -1.
         21   -1    0    0  502  503 -0.00000000000E+00 -0.00000000000E+00 -0.15315903822E+04  0.15315903822E+04  0.00000000000E+00 0.  1.
          6    1    1    2  501    0  0.15374427112E+03 -0.81707370127E+02  0.95510111054E+02  0.26337155607E+03  0.17300000000E+03 0. -1.
         -6    1    1    2    0  503 -0.15374427112E+03  0.81707370127E+02 -0.14372562485E+04  0.14580630710E+04  0.17300000000E+03 0.  1.
<mgrwt>
<rscale>  2 0.24544326E+03</rscale>
<asrwt>0</asrwt>
<pdfrwt beam="1">  1       21 0.29206806E-01 0.24544326E+03</pdfrwt>
<pdfrwt beam="2">  1       21 0.23562929E+00 0.24544326E+03</pdfrwt>
<totfact> 0.85737537E+02</totfact>
</mgrwt>
</event>
<event>
 4    1  0.4199481E+000  0.1856205E+03  0.7546771E-02  0.1162472E+00
         21   -1    0    0  503  502  0.00000000000E+00  0.00000000000E+00  0.62682774273E+02  0.62682774273E+02  0.00000000000E+00 0.  1.
         21   -1    0    0  501  503 -0.00000000000E+00 -0.00000000000E+00 -0.54972218369E+03  0.54972218369E+03  0.00000000000E+00 0.  1.
          6    1    1    2  501    0  0.32614128236E+02 -0.58841191064E+02 -0.24644475747E+03  0.30852874357E+03  0.17300000000E+03 0.  1.
         -6    1    1    2    0  502 -0.32614128236E+02  0.58841191064E+02 -0.24059465195E+03  0.30387621439E+03  0.17300000000E+03 0.  1.
<mgrwt>
<rscale>  2 0.18562049E+03</rscale>
<asrwt>0</asrwt>
<pdfrwt beam="1">  1       21 0.96435037E-02 0.18562049E+03</pdfrwt>
<pdfrwt beam="2">  1       21 0.84572644E-01 0.18562049E+03</pdfrwt>
<totfact> 0.10515319E+05</totfact>
</mgrwt>
</event>
<event>
 4    1  0.4199481E+000  0.2035200E+03  0.7546771E-02  0.1146803E+00
         21   -1    0    0  501  502  0.00000000000E+00  0.00000000000E+00  0.29614374571E+03  0.29614374571E+03  0.00000000000E+00 0. -1.
         21   -1    0    0  502  503 -0.00000000000E+00 -0.00000000000E+00 -0.32148775111E+03  0.32148775111E+03  0.00000000000E+00 0. -1.
          6    1    1    2  501    0  0.10301352835E+03  0.29658026118E+02  0.21944201987E+03  0.29929113856E+03  0.17300000000E+03 0. -1.
         -6    1    1    2    0  503 -0.10301352835E+03 -0.29658026118E+02 -0.24478602527E+03  0.31834035827E+03  0.17300000000E+03 0. -1.
<mgrwt>
<rscale>  2 0.20351999E+03</rscale>
<asrwt>0</asrwt>
<pdfrwt beam="1">  1       21 0.45560576E-01 0.20351999E+03</pdfrwt>
<pdfrwt beam="2">  1       21 0.49459654E-01 0.20351999E+03</pdfrwt>
<totfact> 0.17885747E+04</totfact>
</mgrwt>
</event>
<event>
 4    1  0.4199481E+000  0.2020429E+03  0.7546771E-02  0.1148027E+00
         21   -1    0    0  501  502  0.00000000000E+00  0.00000000000E+00  0.26122564294E+03  0.26122564294E+03  0.00000000000E+00 0.  1.
         21   -1    0    0  502  503 -0.00000000000E+00 -0.00000000000E+00 -0.41275247872E+03  0.41275247872E+03  0.00000000000E+00 0.  1.
          6    1    1    2  501    0  0.10017349626E+03  0.29284792997E+02  0.18988125713E+03  0.27726561320E+03  0.17300000000E+03 0.  1.
         -6    1    1    2    0  503 -0.10017349626E+03 -0.29284792997E+02 -0.34140809291E+03  0.39671250845E+03  0.17300000000E+03 0.  1.
<mgrwt>
<rscale>  2 0.20204289E+03</rscale>
<asrwt>0</asrwt>
<pdfrwt beam="1">  1       21 0.40188560E-01 0.20204289E+03</pdfrwt>
<pdfrwt beam="2">  1       21 0.63500381E-01 0.20204289E+03</pdfrwt>
<totfact> 0.13596876E+04</totfact>
</mgrwt>
</event>
<event>
 4    1  0.4199481E+000  0.2078114E+03  0.7546771E-02  0.1143311E+00
         21   -1    0    0  503  502  0.00000000000E+00  0.00000000000E+00  0.44155465316E+03  0.44155465316E+03  0.00000000000E+00 0.  1.
         21   -1    0    0  501  503 -0.00000000000E+00 -0.00000000000E+00 -0.87510270949E+03  0.87510270949E+03  0.00000000000E+00 0.  1.
          6    1    1    2  501    0 -0.11426160836E+03 -0.14172148686E+02 -0.83722488878E+03  0.86263032600E+03  0.17300000000E+03 0.  1.
         -6    1    1    2    0  502  0.11426160836E+03  0.14172148686E+02  0.40367683246E+03  0.45402703665E+03  0.17300000000E+03 0.  1.
<mgrwt>
<rscale>  2 0.20781137E+03</rscale>
<asrwt>0</asrwt>
<pdfrwt beam="1">  1       21 0.67931485E-01 0.20781137E+03</pdfrwt>
<pdfrwt beam="2">  1       21 0.13463119E+00 0.20781137E+03</pdfrwt>
<totfact> 0.77066189E+02</totfact>
</mgrwt>
</event>
<event>
 4    1  0.4199481E+000  0.2537372E+03  0.7546771E-02  0.1110966E+00
         21   -1    0    0  503  502  0.00000000000E+00  0.00000000000E+00  0.15092412715E+04  0.15092412715E+04  0.00000000000E+00 0. -1.
         21   -1    0    0  501  503 -0.00000000000E+00 -0.00000000000E+00 -0.43003555066E+02  0.43003555066E+02  0.00000000000E+00 0. -1.
          6    1    1    2  501    0  0.17468950873E+03 -0.62746749969E+02  0.66363760918E+03  0.71049099601E+03  0.17300000000E+03 0. -1.
         -6    1    1    2    0  502 -0.17468950873E+03  0.62746749969E+02  0.80260010721E+03  0.84175383052E+03  0.17300000000E+03 0. -1.
<mgrwt>
<rscale>  2 0.25373722E+03</rscale>
<asrwt>0</asrwt>
<pdfrwt beam="1">  1       21 0.23219092E+00 0.25373722E+03</pdfrwt>
<pdfrwt beam="2">  1       21 0.66159327E-02 0.25373722E+03</pdfrwt>
<totfact> 0.13487136E+04</totfact>
</mgrwt>
</event>
<event>
 4    1  0.4199481E+000  0.1953724E+03  0.7546771E-02  0.1153703E+00
         21   -1    0    0  503  502  0.00000000000E+00  0.00000000000E+00  0.33082645917E+02  0.33082645917E+02  0.00000000000E+00 0. -1.
         21   -1    0    0  501  503 -0.00000000000E+00 -0.00000000000E+00 -0.12824259100E+04  0.12824259100E+04  0.00000000000E+00 0. -1.
          6    1    1    2  501    0 -0.27795053251E+02  0.86422273513E+02 -0.83299178625E+03  0.85559668671E+03  0.17300000000E+03 0. -1.
         -6    1    1    2    0  502  0.27795053251E+02 -0.86422273513E+02 -0.41635147780E+03  0.45991186918E+03  0.17300000000E+03 0. -1.
<mgrwt>
<rscale>  2 0.19537240E+03</rscale>
<asrwt>0</asrwt>
<pdfrwt beam="1">  1       21 0.50896376E-02 0.19537240E+03</pdfrwt>
<pdfrwt beam="2">  1       21 0.19729630E+00 0.19537240E+03</pdfrwt>
<totfact> 0.36411098E+04</totfact>
</mgrwt>
</event>
<event>
 4    1  0.4199481E+000  0.1743950E+03  0.7546771E-02  0.1173341E+00
         21   -1    0    0  503  502  0.00000000000E+00  0.00000000000E+00  0.76589545197E+02  0.76589545197E+02  0.00000000000E+00 0. -1.
         21   -1    0    0  501  503 -0.00000000000E+00 -0.00000000000E+00 -0.71501098530E+03  0.71501098530E+03  0.00000000000E+00 0. -1.
          6    1    1    2  501    0  0.10101536867E+01  0.21990688996E+02 -0.58313136364E+03  0.60865080142E+03  0.17300000000E+03 0. -1.
         -6    1    1    2    0  502 -0.10101536867E+01 -0.21990688996E+02 -0.55290076463E+02  0.18294972907E+03  0.17300000000E+03 0. -1.
<mgrwt>
<rscale>  2 0.17439499E+03</rscale>
<asrwt>0</asrwt>
<pdfrwt beam="1">  1       21 0.11783007E-01 0.17439499E+03</pdfrwt>
<pdfrwt beam="2">  1       21 0.11000169E+00 0.17439499E+03</pdfrwt>
<totfact> 0.39990557E+04</totfact>
</mgrwt>
</event>
<event>
 4    1  0.4199481E+000  0.3234510E+03  0.7546771E-02  0.1074072E+00
         21   -1    0    0  503  502  0.00000000000E+00  0.00000000000E+00  0.34412966073E+03  0.34412966073E+03  0.00000000000E+00 0.  1.
         21   -1    0    0  501  503 -0.00000000000E+00 -0.00000000000E+00 -0.34789331811E+03  0.34789331811E+03  0.00000000000E+00 0.  1.
          6    1    1    2  501    0  0.77308988786E+02  0.26213525240E+03 -0.12476504918E+03  0.34667980587E+03  0.17300000000E+03 0.  1.
         -6    1    1    2    0  502 -0.77308988786E+02 -0.26213525240E+03  0.12100139180E+03  0.34534317297E+03  0.17300000000E+03 0.  1.
<mgrwt>
<rscale>  2 0.32345103E+03</rscale>
<asrwt>0</asrwt>
<pdfrwt beam="1">  1       21 0.52943025E-01 0.32345103E+03</pdfrwt>
<pdfrwt beam="2">  1       21 0.53522049E-01 0.32345103E+03</pdfrwt>
<totfact> 0.10414385E+04</totfact>
</mgrwt>
</event>
<event>
 4    1  0.4199481E+000  0.2050428E+03  0.7546771E-02  0.1145553E+00
         21   -1    0    0  501  502  0.00000000000E+00  0.00000000000E+00  0.79788456806E+03  0.79788456806E+03  0.00000000000E+00 0.  1.
         21   -1    0    0  502  503 -0.00000000000E+00 -0.00000000000E+00 -0.57700548152E+02  0.57700548152E+02  0.00000000000E+00 0. -1.
          6    1    1    2  501    0 -0.19512773128E+02 -0.10831812170E+03  0.49612255318E+03  0.53682413468E+03  0.17300000000E+03 0.  1.
         -6    1    1    2    0  503  0.19512773128E+02  0.10831812170E+03  0.24406146673E+03  0.31876098153E+03  0.17300000000E+03 0. -1.
<mgrwt>
<rscale>  2 0.20504283E+03</rscale>
<asrwt>0</asrwt>
<pdfrwt beam="1">  1       21 0.12275146E+00 0.20504283E+03</pdfrwt>
<pdfrwt beam="2">  1       21 0.88770080E-02 0.20504283E+03</pdfrwt>
<totfact> 0.49619799E+04</totfact>
</mgrwt>
</event>
<event>
 4    1  0.4199481E+000  0.3060306E+03  0.7546771E-02  0.1082264E+00
         21   -1    0    0  503  502  0.00000000000E+00  0.00000000000E+00  0.19741273197E+03  0.19741273197E+03  0.00000000000E+00 0.  1.
         21   -1    0    0  501  503 -0.00000000000E+00 -0.00000000000E+00 -0.53772958183E+03  0.53772958183E+03  0.00000000000E+00 0.  1.
          6    1    1    2  501    0  0.15677328092E+03 -0.19785817521E+03 -0.29629062241E+03  0.42596109217E+03  0.17300000000E+03 0.  1.
         -6    1    1    2    0  502 -0.15677328092E+03  0.19785817521E+03 -0.44026227446E+02  0.30918122164E+03  0.17300000000E+03 0.  1.
<mgrwt>
<rscale>  2 0.30603059E+03</rscale>
<asrwt>0</asrwt>
<pdfrwt beam="1">  1       21 0.30371190E-01 0.30603059E+03</pdfrwt>
<pdfrwt beam="2">  1       21 0.82727627E-01 0.30603059E+03</pdfrwt>
<totfact> 0.12473756E+04</totfact>
</mgrwt>
</event>
<event>
 4    1  0.4199481E+000  0.1875552E+03  0.7546771E-02  0.1160685E+00
         21   -1    0    0  501  502  0.00000000000E+00  0.00000000000E+00  0.13438547681E+03  0.13438547681E+03  0.00000000000E+00 0.  1.
         21   -1    0    0  502  503 -0.00000000000E+00 -0.00000000000E+00 -0.29647280098E+03  0.29647280098E+03  0.00000000000E+00 0.  1.
          6    1    1    2  501    0  0.72435759514E+02  0.10011806108E+01 -0.73300703146E+01  0.18769835255E+03  0.17300000000E+03 0.  1.
         -6    1    1    2    0  503 -0.72435759514E+02 -0.10011806108E+01 -0.15475725386E+03  0.24315992524E+03  0.17300000000E+03 0.  1.
<mgrwt>
<rscale>  2 0.18755517E+03</rscale>
<asrwt>0</asrwt>
<pdfrwt beam="1">  1       21 0.20674689E-01 0.18755517E+03</pdfrwt>
<pdfrwt beam="2">  1       21 0.45611199E-01 0.18755517E+03</pdfrwt>
<totfact> 0.10018061E+05</totfact>
</mgrwt>
</event>
<event>
 4    1  0.4199481E+000  0.1844681E+03  0.7546771E-02  0.1163548E+00
         21   -1    0    0  501  502  0.00000000000E+00  0.00000000000E+00  0.24948883043E+04  0.24948883043E+04  0.00000000000E+00 0. -1.
         21   -1    0    0  502  503 -0.00000000000E+00 -0.00000000000E+00 -0.16800243267E+02  0.16800243267E+02  0.00000000000E+00 0. -1.
          6    1    1    2  501    0 -0.30620075634E+02  0.56230660325E+02  0.17837822388E+04  0.17932951658E+04  0.17300000000E+03 0. -1.
         -6    1    1    2    0  503  0.30620075634E+02 -0.56230660325E+02  0.69430582226E+03  0.71839338180E+03  0.17300000000E+03 0. -1.
<mgrwt>
<rscale>  2 0.18446809E+03</rscale>
<asrwt>0</asrwt>
<pdfrwt beam="1">  1       21 0.38382868E+00 0.18446809E+03</pdfrwt>
<pdfrwt beam="2">  1       21 0.25846548E-02 0.18446809E+03</pdfrwt>
<totfact> 0.89625603E+03</totfact>
</mgrwt>
</event>
<event>
 4    1  0.4199481E+000  0.1858635E+03  0.7546771E-02  0.1162246E+00
         21   -1    0    0  503  502  0.00000000000E+00  0.00000000000E+00  0.16918937098E+03  0.16918937098E+03  0.00000000000E+00 0.  1.
         21   -1    0    0  501  503 -0.00000000000E+00 -0.00000000000E+00 -0.21661508212E+03  0.21661508212E+03  0.00000000000E+00 0.  1.
          6    1    1    2  501    0  0.36263422069E+02 -0.57456089561E+02 -0.69929829837E+02  0.19858353182E+03  0.17300000000E+03 0.  1.
         -6    1    1    2    0  502 -0.36263422069E+02  0.57456089561E+02  0.22504118699E+02  0.18722092128E+03  0.17300000000E+03 0.  1.
<mgrwt>
<rscale>  2 0.18586349E+03</rscale>
<asrwt>0</asrwt>
<pdfrwt beam="1">  1       21 0.26029134E-01 0.18586349E+03</pdfrwt>
<pdfrwt beam="2">  1       21 0.33325397E-01 0.18586349E+03</pdfrwt>
<totfact> 0.12187236E+05</totfact>
</mgrwt>
</event>
<event>
 4    1  0.4199481E+000  0.3978382E+03  0.7546771E-02  0.1044531E+00
         21   -1    0    0  501  502  0.00000000000E+00  0.00000000000E+00  0.37961596947E+03  0.37961596947E+03  0.00000000000E+00 0. -1.
         21   -1    0    0  502  503 -0.00000000000E+00 -0.00000000000E+00 -0.44827697234E+03  0.44827697234E+03  0.00000000000E+00 0. -1.
          6    1    1    2  501    0 -0.10060875942E+03  0.34383737531E+03  0.75123764027E+02  0.40486892083E+03  0.17300000000E+03 0. -1.
         -6    1    1    2    0  503  0.10060875942E+03 -0.34383737531E+03 -0.14378476690E+03  0.42302402098E+03  0.17300000000E+03 0. -1.
<mgrwt>
<rscale>  2 0.39783824E+03</rscale>
<asrwt>0</asrwt>
<pdfrwt beam="1">  1       21 0.58402457E-01 0.39783824E+03</pdfrwt>
<pdfrwt beam="2">  1       21 0.68965688E-01 0.39783824E+03</pdfrwt>
<totfact> 0.47046671E+03</totfact>
</mgrwt>
</event>
<event>
 4    1  0.4199481E+000  0.2432309E+03  0.7546771E-02  0.1117659E+00
         21   -1    0    0  501  502  0.00000000000E+00  0.00000000000E+00  0.17302648171E+04  0.17302648171E+04  0.00000000000E+00 0.  1.
         21   -1    0    0  502  503 -0.00000000000E+00 -0.00000000000E+00 -0.35455699206E+02  0.35455699206E+02  0.00000000000E+00 0. -1.
          6    1    1    2  501    0 -0.11069552082E+03 -0.13030264630E+03  0.68073184524E+03  0.72288112653E+03  0.17300000000E+03 0. -1.
         -6    1    1    2    0  503  0.11069552082E+03  0.13030264630E+03  0.10140772727E+04  0.10428393898E+04  0.17300000000E+03 0.  1.
<mgrwt>
<rscale>  2 0.24323091E+03</rscale>
<asrwt>0</asrwt>
<pdfrwt beam="1">  1       21 0.26619452E+00 0.24323091E+03</pdfrwt>
<pdfrwt beam="2">  1       21 0.54547243E-02 0.24323091E+03</pdfrwt>
<totfact> 0.11867813E+04</totfact>
</mgrwt>
</event>
<event>
 4    1  0.4199481E+000  0.1737942E+03  0.7546771E-02  0.1173948E+00
         21   -1    0    0  501  502  0.00000000000E+00  0.00000000000E+00  0.39612869809E+03  0.39612869809E+03  0.00000000000E+00 0. -1.
         21   -1    0    0  502  503 -0.00000000000E+00 -0.00000000000E+00 -0.88163985254E+02  0.88163985254E+02  0.00000000000E+00 0. -1.
          6    1    1    2  501    0  0.23681280648E+01 -0.16425850592E+02  0.24300061276E+03  0.29875360149E+03  0.17300000000E+03 0.  1.
         -6    1    1    2    0  503 -0.23681280648E+01  0.16425850592E+02  0.64964100073E+02  0.18553908186E+03  0.17300000000E+03 0.  1.
<mgrwt>
<rscale>  2 0.17379418E+03</rscale>
<asrwt>0</asrwt>
<pdfrwt beam="1">  1       21 0.60942875E-01 0.17379418E+03</pdfrwt>
<pdfrwt beam="2">  1       21 0.13563690E-01 0.17379418E+03</pdfrwt>
<totfact> 0.11879915E+05</totfact>
</mgrwt>
</event>
<event>
 4    1  0.4199481E+000  0.1732677E+03  0.7546771E-02  0.1174482E+00
         21   -1    0    0  503  502  0.00000000000E+00  0.00000000000E+00  0.77786443497E+03  0.77786443497E+03  0.00000000000E+00 0.  1.
         21   -1    0    0  501  503 -0.00000000000E+00 -0.00000000000E+00 -0.38354376216E+03  0.38354376216E+03  0.00000000000E+00 0.  1.
          6    1    1    2  501    0 -0.91808353027E+01  0.28986381794E+01 -0.35355188575E+03  0.39372658756E+03  0.17300000000E+03 0.  1.
         -6    1    1    2    0  502  0.91808353027E+01 -0.28986381794E+01  0.74787255855E+03  0.76768160957E+03  0.17300000000E+03 0.  1.
<mgrwt>
<rscale>  2 0.17326768E+03</rscale>
<asrwt>0</asrwt>
<pdfrwt beam="1">  1       21 0.11967145E+00 0.17326768E+03</pdfrwt>
<pdfrwt beam="2">  1       21 0.59006733E-01 0.17326768E+03</pdfrwt>
<totfact> 0.14561896E+03</totfact>
</mgrwt>
</event>
<event>
 4    1  0.4199481E+000  0.2164245E+03  0.7546771E-02  0.1136577E+00
         21   -1    0    0  501  502  0.00000000000E+00  0.00000000000E+00  0.11528885442E+03  0.11528885442E+03  0.00000000000E+00 0. -1.
         21   -1    0    0  502  503 -0.00000000000E+00 -0.00000000000E+00 -0.65152428856E+03  0.65152428856E+03  0.00000000000E+00 0.  1.
          6    1    1    2  501    0 -0.13003970150E+03 -0.50545763066E+00 -0.32887279698E+02  0.21890900534E+03  0.17300000000E+03 0. -1.
         -6    1    1    2    0  503  0.13003970150E+03  0.50545763066E+00 -0.50334815445E+03  0.54790413764E+03  0.17300000000E+03 0.  1.
<mgrwt>
<rscale>  2 0.21642454E+03</rscale>
<asrwt>0</asrwt>
<pdfrwt beam="1">  1       21 0.17736747E-01 0.21642454E+03</pdfrwt>
<pdfrwt beam="2">  1       21 0.10023450E+00 0.21642454E+03</pdfrwt>
<totfact> 0.23225991E+04</totfact>
</mgrwt>
</event>
<event>
 4    1  0.4199481E+000  0.1823718E+03  0.7546771E-02  0.1165527E+00
         21   -1    0    0  501  502  0.00000000000E+00  0.00000000000E+00  0.88061821483E+03  0.88061821483E+03  0.00000000000E+00 0. -1.
         21   -1    0    0  502  503 -0.00000000000E+00 -0.00000000000E+00 -0.88495842823E+02  0.88495842823E+02  0.00000000000E+00 0. -1.
          6    1    1    2  501    0 -0.55932923466E+02 -0.14212512605E+02  0.76292527987E+03  0.78441983026E+03  0.17300000000E+03 0. -1.
         -6    1    1    2    0  503  0.55932923466E+02  0.14212512605E+02  0.29197092135E+02  0.18469422739E+03  0.17300000000E+03 0. -1.
<mgrwt>
<rscale>  2 0.18237184E+03</rscale>
<asrwt>0</asrwt>
<pdfrwt beam="1">  1       21 0.13547972E+00 0.18237184E+03</pdfrwt>
<pdfrwt beam="2">  1       21 0.13614746E-01 0.18237184E+03</pdfrwt>
<totfact> 0.18331276E+04</totfact>
</mgrwt>
</event>
<event>
 4    1  0.4199481E+000  0.1908477E+03  0.7546771E-02  0.1157699E+00
         21   -1    0    0  503  502  0.00000000000E+00  0.00000000000E+00  0.56811813183E+03  0.56811813183E+03  0.00000000000E+00 0. -1.
         21   -1    0    0  501  503 -0.00000000000E+00 -0.00000000000E+00 -0.67597202072E+02  0.67597202072E+02  0.00000000000E+00 0. -1.
          6    1    1    2  501    0 -0.63426405233E+01  0.80334304037E+02  0.17807964518E+03  0.26102718158E+03  0.17300000000E+03 0. -1.
         -6    1    1    2    0  502  0.63426405233E+01 -0.80334304037E+02  0.32244128457E+03  0.37468815232E+03  0.17300000000E+03 0. -1.
<mgrwt>
<rscale>  2 0.19084766E+03</rscale>
<asrwt>0</asrwt>
<pdfrwt beam="1">  1       21 0.87402786E-01 0.19084766E+03</pdfrwt>
<pdfrwt beam="2">  1       21 0.10399570E-01 0.19084766E+03</pdfrwt>
<totfact> 0.85168872E+04</totfact>
</mgrwt>
</event>
<event>
 4    1  0.4199481E+000  0.1918447E+03  0.7546771E-02  0.1156808E+00
         21   -1    0    0  503  502  0.00000000000E+00  0.00000000000E+00  0.50442693356E+02  0.50442693356E+02  0.00000000000E+00 0. -1.
         21   -1    0    0  501  503 -0.00000000000E+00 -0.00000000000E+00 -0.74952878565E+03  0.74952878565E+03  0.00000000000E+00 0. -1.
          6    1    1    2  501    0 -0.62319471057E+02 -0.54696021580E+02 -0.41471969054E+03  0.45694287714E+03  0.17300000000E+03 0. -1.
         -6    1    1    2    0  502  0.62319471057E+02  0.54696021580E+02 -0.28436640175E+03  0.34302860186E+03  0.17300000000E+03 0. -1.
<mgrwt>
<rscale>  2 0.19184465E+03</rscale>
<asrwt>0</asrwt>
<pdfrwt beam="1">  1       21 0.77604151E-02 0.19184465E+03</pdfrwt>
<pdfrwt beam="2">  1       21 0.11531211E+00 0.19184465E+03</pdfrwt>
<totfact> 0.73714842E+04</totfact>
</mgrwt>
</event>
<event>
 4    1  0.4199481E+000  0.2403741E+03  0.7546771E-02  0.1119544E+00
         21   -1    0    0  503  502  0.00000000000E+00  0.00000000000E+00  0.11296040486E+04  0.11296040486E+04  0.00000000000E+00 0. -1.
         21   -1    0    0  501  503 -0.00000000000E+00 -0.00000000000E+00 -0.11263804699E+03  0.11263804699E+03  0.00000000000E+00 0. -1.
          6    1    1    2  501    0  0.45531198838E+02 -0.16055414824E+03  0.49572973594E+02  0.24543268791E+03  0.17300000000E+03 0. -1.
         -6    1    1    2    0  502 -0.45531198838E+02  0.16055414824E+03  0.96739302800E+03  0.99680940766E+03  0.17300000000E+03 0. -1.
<mgrwt>
<rscale>  2 0.24037413E+03</rscale>
<asrwt>0</asrwt>
<pdfrwt beam="1">  1       21 0.17378523E+00 0.24037413E+03</pdfrwt>
<pdfrwt beam="2">  1       21 0.17328931E-01 0.24037413E+03</pdfrwt>
<totfact> 0.58230322E+03</totfact>
</mgrwt>
</event>
<event>
 4    1  0.4199481E+000  0.2067271E+03  0.7546771E-02  0.1144184E+00
         21   -1    0    0  501  502  0.00000000000E+00  0.00000000000E+00  0.74295292891E+03  0.74295292891E+03  0.00000000000E+00 0.  1.
         21   -1    0    0  502  503 -0.00000000000E+00 -0.00000000000E+00 -0.85998030186E+02  0.85998030186E+02  0.00000000000E+00 0.  1.
          6    1    1    2  501    0  0.11283271165E+03  0.87103465161E+01  0.56698097312E+03  0.60349276287E+03  0.17300000000E+03 0.  1.
         -6    1    1    2    0  503 -0.11283271165E+03 -0.87103465161E+01  0.89973925596E+02  0.22545819622E+03  0.17300000000E+03 0.  1.
<mgrwt>
<rscale>  2 0.20672709E+03</rscale>
<asrwt>0</asrwt>
<pdfrwt beam="1">  1       21 0.11430045E+00 0.20672709E+03</pdfrwt>
<pdfrwt beam="2">  1       21 0.13230467E-01 0.20672709E+03</pdfrwt>
<totfact> 0.29063182E+04</totfact>
</mgrwt>
</event>
<event>
 4    1  0.4199481E+000  0.1767721E+03  0.7546771E-02  0.1170964E+00
         21   -1    0    0  503  502  0.00000000000E+00  0.00000000000E+00  0.56363594326E+02  0.56363594326E+02  0.00000000000E+00 0.  1.
         21   -1    0    0  501  503 -0.00000000000E+00 -0.00000000000E+00 -0.65080838252E+03  0.65080838252E+03  0.00000000000E+00 0.  1.
          6    1    1    2  501    0 -0.22328583127E+02  0.28650068136E+02 -0.43330708718E+03  0.46797801640E+03  0.17300000000E+03 0.  1.
         -6    1    1    2    0  502  0.22328583127E+02 -0.28650068136E+02 -0.16113770101E+03  0.23919396045E+03  0.17300000000E+03 0.  1.
<mgrwt>
<rscale>  2 0.17677215E+03</rscale>
<asrwt>0</asrwt>
<pdfrwt beam="1">  1       21 0.86713219E-02 0.17677215E+03</pdfrwt>
<pdfrwt beam="2">  1       21 0.10012437E+00 0.17677215E+03</pdfrwt>
<totfact> 0.85931292E+04</totfact>
</mgrwt>
</event>
<event>
 4    1  0.4199481E+000  0.1925393E+03  0.7546771E-02  0.1156191E+00
         21   -1    0    0  501  502  0.00000000000E+00  0.00000000000E+00  0.26024520184E+03  0.26024520184E+03  0.00000000000E+00 0.  1.
         21   -1    0    0  502  503 -0.00000000000E+00 -0.00000000000E+00 -0.20940881145E+03  0.20940881145E+03  0.00000000000E+00 0.  1.
          6    1    1    2  501    0 -0.61869576253E+02 -0.57572183466E+02  0.15820686383E+03  0.24920034619E+03  0.17300000000E+03 0.  1.
         -6    1    1    2    0  503  0.61869576253E+02  0.57572183466E+02 -0.10737047344E+03  0.22045366711E+03  0.17300000000E+03 0.  1.
<mgrwt>
<rscale>  2 0.19253935E+03</rscale>
<asrwt>0</asrwt>
<pdfrwt beam="1">  1       21 0.40037723E-01 0.19253935E+03</pdfrwt>
<pdfrwt beam="2">  1       21 0.32216740E-01 0.19253935E+03</pdfrwt>
<totfact> 0.55729526E+04</totfact>
</mgrwt>
</event>
<event>
 4    1  0.4199481E+000  0.2108297E+03  0.7546771E-02  0.1140911E+00
         21   -1    0    0  503  502  0.00000000000E+00  0.00000000000E+00  0.29833198445E+02  0.29833198445E+02  0.00000000000E+00 0.  1.
         21   -1    0    0  501  503 -0.00000000000E+00 -0.00000000000E+00 -0.15321905490E+04  0.15321905490E+04  0.00000000000E+00 0.  1.
          6    1    1    2  501    0 -0.47410425592E+02  0.11078087229E+03 -0.62145837388E+03  0.65624664615E+03  0.17300000000E+03 0.  1.
         -6    1    1    2    0  502  0.47410425592E+02 -0.11078087229E+03 -0.88089897671E+03  0.90577710133E+03  0.17300000000E+03 0.  1.
<mgrwt>
<rscale>  2 0.21082967E+03</rscale>
<asrwt>0</asrwt>
<pdfrwt beam="1">  1       21 0.45897222E-02 0.21082967E+03</pdfrwt>
<pdfrwt beam="2">  1       21 0.23572165E+00 0.21082967E+03</pdfrwt>
<totfact> 0.24760557E+04</totfact>
</mgrwt>
</event>
<event>
 4    1  0.4199481E+000  0.1931066E+03  0.7546771E-02  0.1155689E+00
         21   -1    0    0  501  502  0.00000000000E+00  0.00000000000E+00  0.12676656205E+03  0.12676656205E+03  0.00000000000E+00 0. -1.
         21   -1    0    0  502  503 -0.00000000000E+00 -0.00000000000E+00 -0.34238973166E+03  0.34238973166E+03  0.00000000000E+00 0. -1.
          6    1    1    2  501    0 -0.80417590701E+02  0.29902440357E+02 -0.19774206781E+02  0.19411636739E+03  0.17300000000E+03 0. -1.
         -6    1    1    2    0  503  0.80417590701E+02 -0.29902440357E+02 -0.19584896282E+03  0.27503992632E+03  0.17300000000E+03 0. -1.
<mgrwt>
<rscale>  2 0.19310656E+03</rscale>
<asrwt>0</asrwt>
<pdfrwt beam="1">  1       21 0.19502548E-01 0.19310656E+03</pdfrwt>
<pdfrwt beam="2">  1       21 0.52675343E-01 0.19310656E+03</pdfrwt>
<totfact> 0.82649309E+04</totfact>
</mgrwt>
</event>
<event>
 4    1  0.4199481E+000  0.1833076E+03  0.7546771E-02  0.1164640E+00
         21   -1    0    0  501  502  0.00000000000E+00  0.00000000000E+00  0.69635335044E+02  0.69635335044E+02  0.00000000000E+00 0.  1.
         21   -1    0    0  502  503 -0.00000000000E+00 -0.00000000000E+00 -0.59569402797E+03  0.59569402797E+03  0.00000000000E+00 0. -1.
          6    1    1    2  501    0  0.12432025378E+02 -0.59313677286E+02 -0.11804047039E+03  0.21802573293E+03  0.17300000000E+03 0.  1.
         -6    1    1    2    0  503 -0.12432025378E+02  0.59313677286E+02 -0.40801822253E+03  0.44730363009E+03  0.17300000000E+03 0. -1.
<mgrwt>
<rscale>  2 0.18330758E+03</rscale>
<asrwt>0</asrwt>
<pdfrwt beam="1">  1       21 0.10713128E-01 0.18330758E+03</pdfrwt>
<pdfrwt beam="2">  1       21 0.91645239E-01 0.18330758E+03</pdfrwt>
<totfact> 0.72655863E+04</totfact>
</mgrwt>
</event>
<event>
 4    1  0.4199481E+000  0.2326818E+03  0.7546771E-02  0.1124766E+00
         21   -1    0    0  503  502  0.00000000000E+00  0.00000000000E+00  0.11243798171E+03  0.11243798171E+03  0.00000000000E+00 0.  1.
         21   -1    0    0  501  503 -0.00000000000E+00 -0.00000000000E+00 -0.16571668283E+04  0.16571668283E+04  0.00000000000E+00 0.  1.
          6    1    1    2  501    0  0.12669553386E+03  0.90333097693E+02 -0.15176146665E+04  0.15353485281E+04  0.17300000000E+03 0.  1.
         -6    1    1    2    0  502 -0.12669553386E+03 -0.90333097693E+02 -0.27114180093E+02  0.23425628188E+03  0.17300000000E+03 0.  1.
<mgrwt>
<rscale>  2 0.23268181E+03</rscale>
<asrwt>0</asrwt>
<pdfrwt beam="1">  1       21 0.17298153E-01 0.23268181E+03</pdfrwt>
<pdfrwt beam="2">  1       21 0.25494872E+00 0.23268181E+03</pdfrwt>
<totfact> 0.17991518E+03</totfact>
</mgrwt>
</event>
<event>
 4    1  0.4199481E+000  0.2065768E+03  0.7546771E-02  0.1144306E+00
         21   -1    0    0  501  502  0.00000000000E+00  0.00000000000E+00  0.24762235241E+03  0.24762235241E+03  0.00000000000E+00 0.  1.
         21   -1    0    0  502  503 -0.00000000000E+00 -0.00000000000E+00 -0.19366759693E+03  0.19366759693E+03  0.00000000000E+00 0.  1.
          6    1    1    2  501    0 -0.61782872651E+02 -0.94487287833E+02  0.10020729444E+03  0.22959850342E+03  0.17300000000E+03 0.  1.
         -6    1    1    2    0  503  0.61782872651E+02  0.94487287833E+02 -0.46252538952E+02  0.21169144592E+03  0.17300000000E+03 0.  1.
<mgrwt>
<rscale>  2 0.20657679E+03</rscale>
<asrwt>0</asrwt>
<pdfrwt beam="1">  1       21 0.38095747E-01 0.20657679E+03</pdfrwt>
<pdfrwt beam="2">  1       21 0.29795015E-01 0.20657679E+03</pdfrwt>
<totfact> 0.71321862E+04</totfact>
</mgrwt>
</event>
<event>
 4    1  0.4199481E+000  0.2259928E+03  0.7546771E-02  0.1129492E+00
         21   -1    0    0  501  502  0.00000000000E+00  0.00000000000E+00  0.50669766668E+03  0.50669766668E+03  0.00000000000E+00 0.  1.
         21   -1    0    0  502  503 -0.00000000000E+00 -0.00000000000E+00 -0.10208631486E+03  0.10208631486E+03  0.00000000000E+00 0.  1.
          6    1    1    2  501    0  0.37914840134E+02 -0.14037883611E+03  0.23653607446E+03  0.32714227371E+03  0.17300000000E+03 0.  1.
         -6    1    1    2    0  503 -0.37914840134E+02  0.14037883611E+03  0.16807527736E+03  0.28164170783E+03  0.17300000000E+03 0.  1.
<mgrwt>
<rscale>  2 0.22599282E+03</rscale>
<asrwt>0</asrwt>
<pdfrwt beam="1">  1       21 0.77953486E-01 0.22599282E+03</pdfrwt>
<pdfrwt beam="2">  1       21 0.15705587E-01 0.22599282E+03</pdfrwt>
<totfact> 0.51772593E+04</totfact>
</mgrwt>
</event>
<event>
 4    1  0.4199481E+000  0.1765029E+03  0.7546771E-02  0.1171231E+00
         21   -1    0    0  503  502  0.00000000000E+00  0.00000000000E+00  0.62095275565E+02  0.62095275565E+02  0.00000000000E+00 0. -1.
         21   -1    0    0  501  503 -0.00000000000E+00 -0.00000000000E+00 -0.67029711335E+03  0.67029711335E+03  0.00000000000E+00 0. -1.
          6    1    1    2  501    0 -0.22211929819E+02 -0.27035299807E+02 -0.48775628057E+03  0.51870942395E+03  0.17300000000E+03 0. -1.
         -6    1    1    2    0  502  0.22211929819E+02  0.27035299807E+02 -0.12044555721E+03  0.21368296496E+03  0.17300000000E+03 0. -1.
<mgrwt>
<rscale>  2 0.17650291E+03</rscale>
<asrwt>0</asrwt>
<pdfrwt beam="1">  1       21 0.95531201E-02 0.17650291E+03</pdfrwt>
<pdfrwt beam="2">  1       21 0.10312262E+00 0.17650291E+03</pdfrwt>
<totfact> 0.67612781E+04</totfact>
</mgrwt>
</event>
<event>
 4    1  0.4199481E+000  0.2158243E+03  0.7546771E-02  0.1137035E+00
         21   -1    0    0  503  502  0.00000000000E+00  0.00000000000E+00  0.48217090846E+03  0.48217090846E+03  0.00000000000E+00 0. -1.
         21   -1    0    0  501  503 -0.00000000000E+00 -0.00000000000E+00 -0.13854577195E+03  0.13854577195E+03  0.00000000000E+00 0. -1.
          6    1    1    2  501    0 -0.80352273753E+02 -0.10096860627E+03  0.10531349193E+01  0.21582691315E+03  0.17300000000E+03 0. -1.
         -6    1    1    2    0  502  0.80352273753E+02  0.10096860627E+03  0.34257200159E+03  0.40488976725E+03  0.17300000000E+03 0. -1.
<mgrwt>
<rscale>  2 0.21582434E+03</rscale>
<asrwt>0</asrwt>
<pdfrwt beam="1">  1       21 0.74180139E-01 0.21582434E+03</pdfrwt>
<pdfrwt beam="2">  1       21 0.21314734E-01 0.21582434E+03</pdfrwt>
<totfact> 0.32971156E+04</totfact>
</mgrwt>
</event>
<event>
 4    1  0.4199481E+000  0.1813702E+03  0.7546771E-02  0.1166483E+00
         21   -1    0    0  501  502  0.00000000000E+00  0.00000000000E+00  0.16269402259E+03  0.16269402259E+03  0.00000000000E+00 0.  1.
         21   -1    0    0  502  503 -0.00000000000E+00 -0.00000000000E+00 -0.20614987352E+03  0.20614987352E+03  0.00000000000E+00 0.  1.
          6    1    1    2  501    0 -0.53338622843E+02 -0.11006855356E+02  0.38310325860E+01  0.18141068426E+03  0.17300000000E+03 0.  1.
         -6    1    1    2    0  503  0.53338622843E+02  0.11006855356E+02 -0.47286883522E+02  0.18743321185E+03  0.17300000000E+03 0.  1.
<mgrwt>
<rscale>  2 0.18137023E+03</rscale>
<asrwt>0</asrwt>
<pdfrwt beam="1">  1       21 0.25029850E-01 0.18137023E+03</pdfrwt>
<pdfrwt beam="2">  1       21 0.31715365E-01 0.18137023E+03</pdfrwt>
<totfact> 0.14497972E+05</totfact>
</mgrwt>
</event>
<event>
 4    1  0.4199481E+000  0.2077864E+03  0.7546771E-02  0.1143331E+00
         21   -1    0    0  503  502  0.00000000000E+00  0.00000000000E+00  0.99055023520E+02  0.99055023520E+02  0.00000000000E+00 0. -1.
         21   -1    0    0  501  503 -0.00000000000E+00 -0.00000000000E+00 -0.44577532757E+03  0.44577532757E+03  0.00000000000E+00 0. -1.
          6    1    1    2  501    0  0.10191258687E+03  0.53479226271E+02 -0.13275437674E+03  0.24657438543E+03  0.17300000000E+03 0. -1.
         -6    1    1    2    0  502 -0.10191258687E+03 -0.53479226271E+02 -0.21396592730E+03  0.29825596566E+03  0.17300000000E+03 0. -1.
<mgrwt>
<rscale>  2 0.20778644E+03</rscale>
<asrwt>0</asrwt>
<pdfrwt beam="1">  1       21 0.15239234E-01 0.20778644E+03</pdfrwt>
<pdfrwt beam="2">  1       21 0.68580820E-01 0.20778644E+03</pdfrwt>
<totfact> 0.73379737E+04</totfact>
</mgrwt>
</event>
<event>
 4    1  0.4199481E+000  0.2290727E+03  0.7546771E-02  0.1127294E+00
         21   -1    0    0  501  502  0.00000000000E+00  0.00000000000E+00  0.58466818876E+03  0.58466818876E+03  0.00000000000E+00 0. -1.
         21   -1    0    0  502  503 -0.00000000000E+00 -0.00000000000E+00 -0.10300292693E+03  0.10300292693E+03  0.00000000000E+00 0. -1.
          6    1    1    2  501    0 -0.60484283643E+02  0.13742976010E+03  0.11750141708E+03  0.25745071479E+03  0.17300000000E+03 0. -1.
         -6    1    1    2    0  503  0.60484283643E+02 -0.13742976010E+03  0.36416384475E+03  0.43022040090E+03  0.17300000000E+03 0. -1.
<mgrwt>
<rscale>  2 0.22907267E+03</rscale>
<asrwt>0</asrwt>
<pdfrwt beam="1">  1       21 0.89948950E-01 0.22907267E+03</pdfrwt>
<pdfrwt beam="2">  1       21 0.15846605E-01 0.22907267E+03</pdfrwt>
<totfact> 0.36636182E+04</totfact>
</mgrwt>
</event>
<event>
 4    1  0.4199481E+000  0.2324335E+03  0.7546771E-02  0.1124939E+00
         21   -1    0    0  501  502  0.00000000000E+00  0.00000000000E+00  0.89865110508E+02  0.89865110508E+02  0.00000000000E+00 0.  1.
         21   -1    0    0  502  503 -0.00000000000E+00 -0.00000000000E+00 -0.61130770833E+03  0.61130770833E+03  0.00000000000E+00 0. -1.
          6    1    1    2  501    0 -0.11989818122E+03  0.98593836876E+02 -0.21560117427E+03  0.31703183575E+03  0.17300000000E+03 0.  1.
         -6    1    1    2    0  503  0.11989818122E+03 -0.98593836876E+02 -0.30584142356E+03  0.38414098309E+03  0.17300000000E+03 0. -1.
<mgrwt>
<rscale>  2 0.23243347E+03</rscale>
<asrwt>0</asrwt>
<pdfrwt beam="1">  1       21 0.13825402E-01 0.23243347E+03</pdfrwt>
<pdfrwt beam="2">  1       21 0.94047338E-01 0.23243347E+03</pdfrwt>
<totfact> 0.42290480E+04</totfact>
</mgrwt>
</event>
<event>
 4    1  0.4199481E+000  0.2415262E+03  0.7546771E-02  0.1118780E+00
         21   -1    0    0  501  502  0.00000000000E+00  0.00000000000E+00  0.31413241665E+03  0.31413241665E+03  0.00000000000E+00 0. -1.
         21   -1    0    0  502  503 -0.00000000000E+00 -0.00000000000E+00 -0.48508988911E+03  0.48508988911E+03  0.00000000000E+00 0. -1.
          6    1    1    2  501    0 -0.16532911286E+03 -0.32743940333E+02  0.22845928704E+03  0.33245830870E+03  0.17300000000E+03 0. -1.
         -6    1    1    2    0  503  0.16532911286E+03  0.32743940333E+02 -0.39941675950E+03  0.46676399706E+03  0.17300000000E+03 0. -1.
<mgrwt>
<rscale>  2 0.24152615E+03</rscale>
<asrwt>0</asrwt>
<pdfrwt beam="1">  1       21 0.48328064E-01 0.24152615E+03</pdfrwt>
<pdfrwt beam="2">  1       21 0.74629214E-01 0.24152615E+03</pdfrwt>
<totfact> 0.63568059E+03</totfact>
</mgrwt>
</event>
<event>
 4    1  0.4199481E+000  0.1787233E+03  0.7546771E-02  0.1169044E+00
         21   -1    0    0  503  502  0.00000000000E+00  0.00000000000E+00  0.14395888705E+04  0.14395888705E+04  0.00000000000E+00 0. -1.
         21   -1    0    0  501  503 -0.00000000000E+00 -0.00000000000E+00 -0.73261140382E+02  0.73261140382E+02  0.00000000000E+00 0. -1.
          6    1    1    2  501    0  0.24322862180E+02 -0.37701614840E+02  0.51590082189E+02  0.18602029450E+03  0.17300000000E+03 0. -1.
         -6    1    1    2    0  502 -0.24322862180E+02  0.37701614840E+02  0.13147376479E+04  0.13268297164E+04  0.17300000000E+03 0. -1.
<mgrwt>
<rscale>  2 0.17872329E+03</rscale>
<asrwt>0</asrwt>
<pdfrwt beam="1">  1       21 0.22147519E+00 0.17872329E+03</pdfrwt>
<pdfrwt beam="2">  1       21 0.11270946E-01 0.17872329E+03</pdfrwt>
<totfact> 0.65536541E+03</totfact>
</mgrwt>
</event>
<event>
 4    1  0.4199481E+000  0.2220058E+03  0.7546771E-02  0.1132396E+00
         21   -1    0    0  501  502  0.00000000000E+00  0.00000000000E+00  0.16593056402E+03  0.16593056402E+03  0.00000000000E+00 0.  1.
         21   -1    0    0  502  503 -0.00000000000E+00 -0.00000000000E+00 -0.30381122186E+03  0.30381122186E+03  0.00000000000E+00 0.  1.
          6    1    1    2  501    0 -0.63897975110E+02  0.12359047370E+03 -0.33853632436E+02  0.22457209275E+03  0.17300000000E+03 0.  1.
         -6    1    1    2    0  503  0.63897975110E+02 -0.12359047370E+03 -0.10402702540E+03  0.24516969312E+03  0.17300000000E+03 0.  1.
<mgrwt>
<rscale>  2 0.22200576E+03</rscale>
<asrwt>0</asrwt>
<pdfrwt beam="1">  1       21 0.25527779E-01 0.22200576E+03</pdfrwt>
<pdfrwt beam="2">  1       21 0.46740188E-01 0.22200576E+03</pdfrwt>
<totfact> 0.62954664E+04</totfact>
</mgrwt>
</event>
<event>
 4    1  0.4199481E+000  0.2180416E+03  0.7546771E-02  0.1135352E+00
         21   -1    0    0  503  502  0.00000000000E+00  0.00000000000E+00  0.30516651705E+03  0.30516651705E+03  0.00000000000E+00 0. -1.
         21   -1    0    0  501  503 -0.00000000000E+00 -0.00000000000E+00 -0.16267769001E+03  0.16267769001E+03  0.00000000000E+00 0.  1.
          6    1    1    2  501    0 -0.12970548978E+03 -0.28099883647E+02  0.23113874562E+02  0.21926324074E+03  0.17300000000E+03 0.  1.
         -6    1    1    2    0  502  0.12970548978E+03  0.28099883647E+02  0.11937495247E+03  0.24858096632E+03  0.17300000000E+03 0. -1.
<mgrwt>
<rscale>  2 0.21804155E+03</rscale>
<asrwt>0</asrwt>
<pdfrwt beam="1">  1       21 0.46948695E-01 0.21804155E+03</pdfrwt>
<pdfrwt beam="2">  1       21 0.25027337E-01 0.21804155E+03</pdfrwt>
<totfact> 0.64898431E+04</totfact>
</mgrwt>
</event>
<event>
 4    1  0.4199481E+000  0.2309794E+03  0.7546771E-02  0.1125952E+00
         21   -1    0    0  503  502  0.00000000000E+00  0.00000000000E+00  0.27986080654E+02  0.27986080654E+02  0.00000000000E+00 0. -1.
         21   -1    0    0  501  503 -0.00000000000E+00 -0.00000000000E+00 -0.19198402148E+04  0.19198402148E+04  0.00000000000E+00 0.  1.
          6    1    1    2  501    0 -0.70473047623E+02  0.13585295120E+03 -0.10275432609E+04  0.10531840427E+04  0.17300000000E+03 0.  1.
         -6    1    1    2    0  502  0.70473047623E+02 -0.13585295120E+03 -0.86431087325E+03  0.89464225275E+03  0.17300000000E+03 0. -1.
<mgrwt>
<rscale>  2 0.23097938E+03</rscale>
<asrwt>0</asrwt>
<pdfrwt beam="1">  1       21 0.43055493E-02 0.23097938E+03</pdfrwt>
<pdfrwt beam="2">  1       21 0.29536014E+00 0.23097938E+03</pdfrwt>
<totfact> 0.12110387E+04</totfact>
</mgrwt>
</event>
<event>
 4    1  0.4199481E+000  0.2119353E+03  0.7546771E-02  0.1140043E+00
         21   -1    0    0  501  502  0.00000000000E+00  0.00000000000E+00  0.14783799114E+04  0.14783799114E+04  0.00000000000E+00 0. -1.
         21   -1    0    0  502  503 -0.00000000000E+00 -0.00000000000E+00 -0.30670082969E+02  0.30670082969E+02  0.00000000000E+00 0. -1.
          6    1    1    2  501    0  0.10356662366E+03 -0.65280378879E+02  0.65076573577E+03  0.68440676228E+03  0.17300000000E+03 0. -1.
         -6    1    1    2    0  503 -0.10356662366E+03  0.65280378879E+02  0.79694409265E+03  0.82464323208E+03  0.17300000000E+03 0. -1.
<mgrwt>
<rscale>  2 0.21193530E+03</rscale>
<asrwt>0</asrwt>
<pdfrwt beam="1">  1       21 0.22744301E+00 0.21193530E+03</pdfrwt>
<pdfrwt beam="2">  1       21 0.47184755E-02 0.21193530E+03</pdfrwt>
<totfact> 0.26493682E+04</totfact>
</mgrwt>
</event>
<event>
 4    1  0.4199481E+000  0.2015618E+03  0.7546771E-02  0.1148428E+00
         21   -1    0    0  503  502  0.00000000000E+00  0.00000000000E+00  0.81877011506E+02  0.81877011506E+02  0.00000000000E+00 0. -1.
         21   -1    0    0  501  503 -0.00000000000E+00 -0.00000000000E+00 -0.52019829372E+03  0.52019829372E+03  0.00000000000E+00 0. -1.
          6    1    1    2  501    0 -0.56639767210E+01  0.10327671949E+03 -0.28382276009E+03  0.34811279862E+03  0.17300000000E+03 0. -1.
         -6    1    1    2    0  502  0.56639767210E+01 -0.10327671949E+03 -0.15449852213E+03  0.25396250660E+03  0.17300000000E+03 0. -1.
<mgrwt>
<rscale>  2 0.20156181E+03</rscale>
<asrwt>0</asrwt>
<pdfrwt beam="1">  1       21 0.12596463E-01 0.20156181E+03</pdfrwt>
<pdfrwt beam="2">  1       21 0.80030508E-01 0.20156181E+03</pdfrwt>
<totfact> 0.73625672E+04</totfact>
</mgrwt>
</event>
<event>
 4    1  0.4199481E+000  0.2530178E+03  0.7546771E-02  0.1111412E+00
         21   -1    0    0  503  502  0.00000000000E+00  0.00000000000E+00  0.12159294177E+03  0.12159294177E+03  0.00000000000E+00 0.  1.
         21   -1    0    0  501  503 -0.00000000000E+00 -0.00000000000E+00 -0.56428204545E+03  0.56428204545E+03  0.00000000000E+00 0.  1.
          6    1    1    2  501    0 -0.17148655670E+03  0.68420438978E+02 -0.31008918848E+03  0.40021656689E+03  0.17300000000E+03 0.  1.
         -6    1    1    2    0  502  0.17148655670E+03 -0.68420438978E+02 -0.13259991520E+03  0.28565842034E+03  0.17300000000E+03 0.  1.
<mgrwt>
<rscale>  2 0.25301778E+03</rscale>
<asrwt>0</asrwt>
<pdfrwt beam="1">  1       21 0.18706606E-01 0.25301778E+03</pdfrwt>
<pdfrwt beam="2">  1       21 0.86812624E-01 0.25301778E+03</pdfrwt>
<totfact> 0.28936554E+04</totfact>
</mgrwt>
</event>
<event>
 4    1  0.4199481E+000  0.2118104E+03  0.7546771E-02  0.1140140E+00
         21   -1    0    0  503  502  0.00000000000E+00  0.00000000000E+00  0.45333534612E+02  0.45333534612E+02  0.00000000000E+00 0.  1.
         21   -1    0    0  501  503 -0.00000000000E+00 -0.00000000000E+00 -0.99218384824E+03  0.99218384824E+03  0.00000000000E+00 0.  1.
          6    1    1    2  501    0 -0.11361303295E+03  0.45018921651E+02 -0.49972140812E+03  0.54275695325E+03  0.17300000000E+03 0. -1.
         -6    1    1    2    0  502  0.11361303295E+03 -0.45018921651E+02 -0.44712890551E+03  0.49476042961E+03  0.17300000000E+03 0. -1.
<mgrwt>
<rscale>  2 0.21181035E+03</rscale>
<asrwt>0</asrwt>
<pdfrwt beam="1">  1       21 0.69743901E-02 0.21181035E+03</pdfrwt>
<pdfrwt beam="2">  1       21 0.15264366E+00 0.21181035E+03</pdfrwt>
<totfact> 0.42969826E+04</totfact>
</mgrwt>
</event>
<event>
 4    1  0.4199481E+000  0.2232638E+03  0.7546771E-02  0.1131473E+00
         21   -1    0    0  501  502  0.00000000000E+00  0.00000000000E+00  0.34596282255E+02  0.34596282255E+02  0.00000000000E+00 0. -1.
         21   -1    0    0  502  503 -0.00000000000E+00 -0.00000000000E+00 -0.20925830759E+04  0.20925830759E+04  0.00000000000E+00 0. -1.
          6    1    1    2  501    0  0.88568863636E+01  0.14085201380E+03 -0.43541191420E+03  0.48931612405E+03  0.17300000000E+03 0. -1.
         -6    1    1    2    0  503 -0.88568863636E+01 -0.14085201380E+03 -0.16225748795E+04  0.16378632341E+04  0.17300000000E+03 0. -1.
<mgrwt>
<rscale>  2 0.22326382E+03</rscale>
<asrwt>0</asrwt>
<pdfrwt beam="1">  1       21 0.53225048E-02 0.22326382E+03</pdfrwt>
<pdfrwt beam="2">  1       21 0.32193587E+00 0.22326382E+03</pdfrwt>
<totfact> 0.59625851E+03</totfact>
</mgrwt>
</event>
<event>
 4    1  0.4199481E+000  0.2390080E+03  0.7546771E-02  0.1120455E+00
         21   -1    0    0  503  502  0.00000000000E+00  0.00000000000E+00  0.24944081571E+03  0.24944081571E+03  0.00000000000E+00 0. -1.
         21   -1    0    0  501  503 -0.00000000000E+00 -0.00000000000E+00 -0.23117662840E+03  0.23117662840E+03  0.00000000000E+00 0. -1.
          6    1    1    2  501    0  0.42264902458E+02 -0.15940354627E+03  0.32388389074E+02  0.24119249634E+03  0.17300000000E+03 0. -1.
         -6    1    1    2    0  502 -0.42264902458E+02  0.15940354627E+03 -0.14124201766E+02  0.23942494778E+03  0.17300000000E+03 0. -1.
<mgrwt>
<rscale>  2 0.23900798E+03</rscale>
<asrwt>0</asrwt>
<pdfrwt beam="1">  1       21 0.38375510E-01 0.23900798E+03</pdfrwt>
<pdfrwt beam="2">  1       21 0.35565635E-01 0.23900798E+03</pdfrwt>
<totfact> 0.48868487E+04</totfact>
</mgrwt>
</event>
<event>
 4    1  0.4199481E+000  0.2144100E+03  0.7546771E-02  0.1138121E+00
         21   -1    0    0  503  502  0.00000000000E+00  0.00000000000E+00  0.21398329633E+04  0.21398329633E+04  0.00000000000E+00 0. -1.
         21   -1    0    0  501  503 -0.00000000000E+00 -0.00000000000E+00 -0.45722049671E+02  0.45722049671E+02  0.00000000000E+00 0.  1.
          6    1    1    2  501    0  0.11375583589E+03  0.55697806204E+02  0.25140928182E+03  0.33042134132E+03  0.17300000000E+03 0.  1.
         -6    1    1    2    0  502 -0.11375583589E+03 -0.55697806204E+02  0.18427016318E+04  0.18551336716E+04  0.17300000000E+03 0. -1.
<mgrwt>
<rscale>  2 0.21440997E+03</rscale>
<asrwt>0</asrwt>
<pdfrwt beam="1">  1       21 0.32920499E+00 0.21440997E+03</pdfrwt>
<pdfrwt beam="2">  1       21 0.70341631E-02 0.21440997E+03</pdfrwt>
<totfact> 0.33814040E+03</totfact>
</mgrwt>
</event>
<event>
 4    1  0.4199481E+000  0.2734000E+03  0.7546771E-02  0.1099349E+00
         21   -1    0    0  503  502  0.00000000000E+00  0.00000000000E+00  0.15112916791E+03  0.15112916791E+03  0.00000000000E+00 0. -1.
         21   -1    0    0  501  503 -0.00000000000E+00 -0.00000000000E+00 -0.59092117447E+03  0.59092117447E+03  0.00000000000E+00 0. -1.
          6    1    1    2  501    0 -0.11411412483E+03 -0.17831577017E+03 -0.36969658176E+03  0.45980768799E+03  0.17300000000E+03 0. -1.
         -6    1    1    2    0  502  0.11411412483E+03  0.17831577017E+03 -0.70095424806E+02  0.28224265439E+03  0.17300000000E+03 0. -1.
<mgrwt>
<rscale>  2 0.27339998E+03</rscale>
<asrwt>0</asrwt>
<pdfrwt beam="1">  1       21 0.23250641E-01 0.27339998E+03</pdfrwt>
<pdfrwt beam="2">  1       21 0.90910951E-01 0.27339998E+03</pdfrwt>
<totfact> 0.17073726E+04</totfact>
</mgrwt>
</event>
<event>
 4    1  0.4199481E+000  0.2555164E+03  0.7546771E-02  0.1109867E+00
         21   -1    0    0  503  502  0.00000000000E+00  0.00000000000E+00  0.47526472238E+03  0.47526472238E+03  0.00000000000E+00 0. -1.
         21   -1    0    0  501  503 -0.00000000000E+00 -0.00000000000E+00 -0.42143275626E+03  0.42143275626E+03  0.00000000000E+00 0. -1.
          6    1    1    2  501    0  0.17879681604E+03  0.58235314789E+02 -0.34117610496E+03  0.42625085092E+03  0.17300000000E+03 0. -1.
         -6    1    1    2    0  502 -0.17879681604E+03 -0.58235314789E+02  0.39500807108E+03  0.47044662772E+03  0.17300000000E+03 0. -1.
<mgrwt>
<rscale>  2 0.25551644E+03</rscale>
<asrwt>0</asrwt>
<pdfrwt beam="1">  1       21 0.73117650E-01 0.25551644E+03</pdfrwt>
<pdfrwt beam="2">  1       21 0.64835809E-01 0.25551644E+03</pdfrwt>
<totfact> 0.35210622E+03</totfact>
</mgrwt>
</event>
<event>
 4    1  0.4199481E+000  0.2101975E+03  0.7546771E-02  0.1141410E+00
         21   -1    0    0  503  502  0.00000000000E+00  0.00000000000E+00  0.62502364909E+03  0.62502364909E+03  0.00000000000E+00 0.  1.
         21   -1    0    0  501  503 -0.00000000000E+00 -0.00000000000E+00 -0.71907183867E+02  0.71907183867E+02  0.00000000000E+00 0. -1.
          6    1    1    2  501    0 -0.11608844903E+03 -0.27882705126E+02  0.23122288613E+03  0.31248519375E+03  0.17300000000E+03 0. -1.
         -6    1    1    2    0  502  0.11608844903E+03  0.27882705126E+02  0.32189357909E+03  0.38444563920E+03  0.17300000000E+03 0.  1.
<mgrwt>
<rscale>  2 0.21019746E+03</rscale>
<asrwt>0</asrwt>
<pdfrwt beam="1">  1       21 0.96157481E-01 0.21019746E+03</pdfrwt>
<pdfrwt beam="2">  1       21 0.11062644E-01 0.21019746E+03</pdfrwt>
<totfact> 0.60572970E+04</totfact>
</mgrwt>
</event>
<event>
 4    1  0.4199481E+000  0.1737255E+03  0.7546771E-02  0.1174017E+00
         21   -1    0    0  503  502  0.00000000000E+00  0.00000000000E+00  0.45537079627E+03  0.45537079627E+03  0.00000000000E+00 0. -1.
         21   -1    0    0  501  503 -0.00000000000E+00 -0.00000000000E+00 -0.87435824637E+02  0.87435824637E+02  0.00000000000E+00 0. -1.
          6    1    1    2  501    0  0.15166566123E+02 -0.46401793831E+01  0.50456369177E+02  0.18090439791E+03  0.17300000000E+03 0. -1.
         -6    1    1    2    0  502 -0.15166566123E+02  0.46401793831E+01  0.31747860245E+03  0.36190222299E+03  0.17300000000E+03 0. -1.
<mgrwt>
<rscale>  2 0.17372552E+03</rscale>
<asrwt>0</asrwt>
<pdfrwt beam="1">  1       21 0.70057044E-01 0.17372552E+03</pdfrwt>
<pdfrwt beam="2">  1       21 0.13451666E-01 0.17372552E+03</pdfrwt>
<totfact> 0.89086955E+04</totfact>
</mgrwt>
</event>
<event>
 4    1  0.4199481E+000  0.2226560E+03  0.7546771E-02  0.1131918E+00
         21   -1    0    0  501  502  0.00000000000E+00  0.00000000000E+00  0.31526406492E+03  0.31526406492E+03  0.00000000000E+00 0. -1.
         21   -1    0    0  502  503 -0.00000000000E+00 -0.00000000000E+00 -0.24172980206E+03  0.24172980206E+03  0.00000000000E+00 0. -1.
          6    1    1    2  501    0 -0.13951967345E+03  0.13451714756E+02  0.20140449018E+03  0.30023233765E+03  0.17300000000E+03 0. -1.
         -6    1    1    2    0  503  0.13951967345E+03 -0.13451714756E+02 -0.12787022732E+03  0.25676152933E+03  0.17300000000E+03 0. -1.
<mgrwt>
<rscale>  2 0.22265599E+03</rscale>
<asrwt>0</asrwt>
<pdfrwt beam="1">  1       21 0.48502164E-01 0.22265599E+03</pdfrwt>
<pdfrwt beam="2">  1       21 0.37189200E-01 0.22265599E+03</pdfrwt>
<totfact> 0.27852507E+04</totfact>
</mgrwt>
</event>
<event>
 4    1  0.4199481E+000  0.1820275E+03  0.7546771E-02  0.1165855E+00
         21   -1    0    0  503  502  0.00000000000E+00  0.00000000000E+00  0.57578516834E+03  0.57578516834E+03  0.00000000000E+00 0.  1.
         21   -1    0    0  501  503 -0.00000000000E+00 -0.00000000000E+00 -0.73767290177E+02  0.73767290177E+02  0.00000000000E+00 0.  1.
          6    1    1    2  501    0 -0.22996217418E+02  0.51731794182E+02  0.98709602962E+02  0.20706904709E+03  0.17300000000E+03 0.  1.
         -6    1    1    2    0  502  0.22996217418E+02 -0.51731794182E+02  0.40330827520E+03  0.44248341143E+03  0.17300000000E+03 0.  1.
<mgrwt>
<rscale>  2 0.18202748E+03</rscale>
<asrwt>0</asrwt>
<pdfrwt beam="1">  1       21 0.88582331E-01 0.18202748E+03</pdfrwt>
<pdfrwt beam="2">  1       21 0.11348814E-01 0.18202748E+03</pdfrwt>
<totfact> 0.70986835E+04</totfact>
</mgrwt>
</event>
<event>
 4    1  0.4199481E+000  0.1742719E+03  0.7546771E-02  0.1173465E+00
         21   -1    0    0  501  502  0.00000000000E+00  0.00000000000E+00  0.28662183238E+03  0.28662183238E+03  0.00000000000E+00 0. -1.
         21   -1    0    0  502  503 -0.00000000000E+00 -0.00000000000E+00 -0.11521068618E+03  0.11521068618E+03  0.00000000000E+00 0. -1.
          6    1    1    2  501    0  0.10659706028E+02  0.18112128175E+02  0.28776133645E+02  0.17663166304E+03  0.17300000000E+03 0. -1.
         -6    1    1    2    0  503 -0.10659706028E+02 -0.18112128175E+02  0.14263501255E+03  0.22520085552E+03  0.17300000000E+03 0. -1.
<mgrwt>
<rscale>  2 0.17427185E+03</rscale>
<asrwt>0</asrwt>
<pdfrwt beam="1">  1       21 0.44095666E-01 0.17427185E+03</pdfrwt>
<pdfrwt beam="2">  1       21 0.17724721E-01 0.17427185E+03</pdfrwt>
<totfact> 0.14357844E+05</totfact>
</mgrwt>
</event>
<event>
 4    1  0.4199481E+000  0.1984863E+03  0.7546771E-02  0.1151022E+00
         21   -1    0    0  501  502  0.00000000000E+00  0.00000000000E+00  0.84221641281E+02  0.84221641281E+02  0.00000000000E+00 0. -1.
         21   -1    0    0  502  503 -0.00000000000E+00 -0.00000000000E+00 -0.78007161165E+03  0.78007161165E+03  0.00000000000E+00 0. -1.
          6    1    1    2  501    0 -0.96617302064E+02 -0.11528982964E+02 -0.74494346032E+02  0.21200525488E+03  0.17300000000E+03 0. -1.
         -6    1    1    2    0  503  0.96617302064E+02  0.11528982964E+02 -0.62135562434E+03  0.65228799805E+03  0.17300000000E+03 0. -1.
<mgrwt>
<rscale>  2 0.19848632E+03</rscale>
<asrwt>0</asrwt>
<pdfrwt beam="1">  1       21 0.12957176E-01 0.19848632E+03</pdfrwt>
<pdfrwt beam="2">  1       21 0.12001102E+00 0.19848632E+03</pdfrwt>
<totfact> 0.26902592E+04</totfact>
</mgrwt>
</event>
<event>
 4    1  0.4199481E+000  0.2800347E+03  0.7546771E-02  0.1095670E+00
         21   -1    0    0  503  502  0.00000000000E+00  0.00000000000E+00  0.16567236415E+03  0.16567236415E+03  0.00000000000E+00 0. -1.
         21   -1    0    0  501  503 -0.00000000000E+00 -0.00000000000E+00 -0.66164386864E+03  0.66164386864E+03  0.00000000000E+00 0. -1.
          6    1    1    2  501    0 -0.16119755260E+03 -0.15001928358E+03 -0.46866346365E+03  0.54595318350E+03  0.17300000000E+03 0. -1.
         -6    1    1    2    0  502  0.16119755260E+03  0.15001928358E+03 -0.27308040827E+02  0.28136304929E+03  0.17300000000E+03 0. -1.
<mgrwt>
<rscale>  2 0.28003471E+03</rscale>
<asrwt>0</asrwt>
<pdfrwt beam="1">  1       21 0.25488056E-01 0.28003471E+03</pdfrwt>
<pdfrwt beam="2">  1       21 0.10179136E+00 0.28003471E+03</pdfrwt>
<totfact> 0.10908387E+04</totfact>
</mgrwt>
</event>
<event>
 4    1  0.4199481E+000  0.2524311E+03  0.7546771E-02  0.1111778E+00
         21   -1    0    0  501  502  0.00000000000E+00  0.00000000000E+00  0.59021656358E+02  0.59021656358E+02  0.00000000000E+00 0. -1.
         21   -1    0    0  502  503 -0.00000000000E+00 -0.00000000000E+00 -0.17292369366E+04  0.17292369366E+04  0.00000000000E+00 0.  1.
          6    1    1    2  501    0  0.49816321075E+02 -0.17694855725E+03 -0.13831308187E+04  0.14059773538E+04  0.17300000000E+03 0.  1.
         -6    1    1    2    0  503 -0.49816321075E+02  0.17694855725E+03 -0.28708446156E+03  0.38228123918E+03  0.17300000000E+03 0. -1.
<mgrwt>
<rscale>  2 0.25243110E+03</rscale>
<asrwt>0</asrwt>
<pdfrwt beam="1">  1       21 0.90802568E-02 0.25243110E+03</pdfrwt>
<pdfrwt beam="2">  1       21 0.26603639E+00 0.25243110E+03</pdfrwt>
<totfact> 0.48697952E+03</totfact>
</mgrwt>
</event>
<event>
 4    1  0.4199481E+000  0.2056442E+03  0.7546771E-02  0.1145062E+00
         21   -1    0    0  501  502  0.00000000000E+00  0.00000000000E+00  0.24664327515E+03  0.24664327515E+03  0.00000000000E+00 0. -1.
         21   -1    0    0  502  503 -0.00000000000E+00 -0.00000000000E+00 -0.17909900335E+03  0.17909900335E+03  0.00000000000E+00 0. -1.
          6    1    1    2  501    0 -0.12995831378E+02 -0.11041585993E+03  0.77734119342E+02  0.21984573470E+03  0.17300000000E+03 0. -1.
         -6    1    1    2    0  503  0.12995831378E+02  0.11041585993E+03 -0.10189847534E+02  0.20589654380E+03  0.17300000000E+03 0. -1.
<mgrwt>
<rscale>  2 0.20564424E+03</rscale>
<asrwt>0</asrwt>
<pdfrwt beam="1">  1       21 0.37945119E-01 0.20564424E+03</pdfrwt>
<pdfrwt beam="2">  1       21 0.27553693E-01 0.20564424E+03</pdfrwt>
<totfact> 0.83716524E+04</totfact>
</mgrwt>
</event>
<event>
 4    1  0.4199481E+000  0.2453580E+03  0.7546771E-02  0.1116274E+00
         21   -1    0    0  501  502  0.00000000000E+00  0.00000000000E+00  0.83920893143E+02  0.83920893143E+02  0.00000000000E+00 0. -1.
         21   -1    0    0  502  503 -0.00000000000E+00 -0.00000000000E+00 -0.83339588680E+03  0.83339588680E+03  0.00000000000E+00 0.  1.
          6    1    1    2  501    0  0.17300292809E+03  0.18480813217E+02 -0.20358598032E+03  0.31882252896E+03  0.17300000000E+03 0. -1.
         -6    1    1    2    0  503 -0.17300292809E+03 -0.18480813217E+02 -0.54588901334E+03  0.59849425099E+03  0.17300000000E+03 0.  1.
<mgrwt>
<rscale>  2 0.24535801E+03</rscale>
<asrwt>0</asrwt>
<pdfrwt beam="1">  1       21 0.12910906E-01 0.24535801E+03</pdfrwt>
<pdfrwt beam="2">  1       21 0.12821476E+00 0.24535801E+03</pdfrwt>
<totfact> 0.22339225E+04</totfact>
</mgrwt>
</event>
<event>
 4    1  0.4199481E+000  0.2122128E+03  0.7546771E-02  0.1139826E+00
         21   -1    0    0  501  502  0.00000000000E+00  0.00000000000E+00  0.26992344796E+04  0.26992344796E+04  0.00000000000E+00 0.  1.
         21   -1    0    0  502  503 -0.00000000000E+00 -0.00000000000E+00 -0.16864509510E+02  0.16864509510E+02  0.00000000000E+00 0.  1.
          6    1    1    2  501    0 -0.10424527162E+03  0.65101414121E+02  0.12007191889E+04  0.12193280286E+04  0.17300000000E+03 0.  1.
         -6    1    1    2    0  503  0.10424527162E+03 -0.65101414121E+02  0.14816507812E+04  0.14967709605E+04  0.17300000000E+03 0.  1.
<mgrwt>
<rscale>  2 0.21221280E+03</rscale>
<asrwt>0</asrwt>
<pdfrwt beam="1">  1       21 0.41526650E+00 0.21221280E+03</pdfrwt>
<pdfrwt beam="2">  1       21 0.25945421E-02 0.21221280E+03</pdfrwt>
<totfact> 0.54758610E+03</totfact>
</mgrwt>
</event>
<event>
 4    1  0.4199481E+000  0.2310698E+03  0.7546771E-02  0.1125889E+00
         21   -1    0    0  501  502  0.00000000000E+00  0.00000000000E+00  0.15582717896E+03  0.15582717896E+03  0.00000000000E+00 0.  1.
         21   -1    0    0  502  503 -0.00000000000E+00 -0.00000000000E+00 -0.37319101436E+03  0.37319101436E+03  0.00000000000E+00 0. -1.
          6    1    1    2  501    0 -0.14964758740E+03  0.32708616210E+02 -0.33005750106E+02  0.23341515274E+03  0.17300000000E+03 0.  1.
         -6    1    1    2    0  503  0.14964758740E+03 -0.32708616210E+02 -0.18435808529E+03  0.29560304058E+03  0.17300000000E+03 0. -1.
<mgrwt>
<rscale>  2 0.23106980E+03</rscale>
<asrwt>0</asrwt>
<pdfrwt beam="1">  1       21 0.23973413E-01 0.23106980E+03</pdfrwt>
<pdfrwt beam="2">  1       21 0.57414001E-01 0.23106980E+03</pdfrwt>
<totfact> 0.45869215E+04</totfact>
</mgrwt>
</event>
<event>
 4    1  0.4199481E+000  0.1785463E+03  0.7546771E-02  0.1169217E+00
         21   -1    0    0  501  502  0.00000000000E+00  0.00000000000E+00  0.13952334871E+03  0.13952334871E+03  0.00000000000E+00 0. -1.
         21   -1    0    0  502  503 -0.00000000000E+00 -0.00000000000E+00 -0.32384194549E+03  0.32384194549E+03  0.00000000000E+00 0. -1.
          6    1    1    2  501    0  0.22217580890E+02 -0.38159455667E+02 -0.21788001076E+03  0.28169214410E+03  0.17300000000E+03 0. -1.
         -6    1    1    2    0  503 -0.22217580890E+02  0.38159455667E+02  0.33561413982E+02  0.18167315010E+03  0.17300000000E+03 0. -1.
<mgrwt>
<rscale>  2 0.17854625E+03</rscale>
<asrwt>0</asrwt>
<pdfrwt beam="1">  1       21 0.21465131E-01 0.17854625E+03</pdfrwt>
<pdfrwt beam="2">  1       21 0.49821837E-01 0.17854625E+03</pdfrwt>
<totfact> 0.78070217E+04</totfact>
</mgrwt>
</event>
<event>
 4    1  0.4199481E+000  0.1952182E+03  0.7546771E-02  0.1153837E+00
         21   -1    0    0  503  502  0.00000000000E+00  0.00000000000E+00  0.12293145723E+03  0.12293145723E+03  0.00000000000E+00 0.  1.
         21   -1    0    0  501  503 -0.00000000000E+00 -0.00000000000E+00 -0.34532078157E+03  0.34532078157E+03  0.00000000000E+00 0.  1.
          6    1    1    2  501    0  0.54557584139E+02 -0.72142946284E+02 -0.18606063789E+03  0.26968258316E+03  0.17300000000E+03 0.  1.
         -6    1    1    2    0  502 -0.54557584139E+02  0.72142946284E+02 -0.36328686448E+02  0.19856965565E+03  0.17300000000E+03 0.  1.
<mgrwt>
<rscale>  2 0.19521817E+03</rscale>
<asrwt>0</asrwt>
<pdfrwt beam="1">  1       21 0.18912532E-01 0.19521817E+03</pdfrwt>
<pdfrwt beam="2">  1       21 0.53126273E-01 0.19521817E+03</pdfrwt>
<totfact> 0.85877254E+04</totfact>
</mgrwt>
</event>
<event>
 4    1  0.4199481E+000  0.1922955E+03  0.7546771E-02  0.1156407E+00
         21   -1    0    0  501  502  0.00000000000E+00  0.00000000000E+00  0.16413014719E+03  0.16413014719E+03  0.00000000000E+00 0. -1.
         21   -1    0    0  502  503 -0.00000000000E+00 -0.00000000000E+00 -0.29796441714E+03  0.29796441714E+03  0.00000000000E+00 0. -1.
          6    1    1    2  501    0  0.49171939278E+02 -0.68049212385E+02  0.47185797362E+02  0.19800018786E+03  0.17300000000E+03 0. -1.
         -6    1    1    2    0  503 -0.49171939278E+02  0.68049212385E+02 -0.18102006731E+03  0.26409437648E+03  0.17300000000E+03 0. -1.
<mgrwt>
<rscale>  2 0.19229554E+03</rscale>
<asrwt>0</asrwt>
<pdfrwt beam="1">  1       21 0.25250792E-01 0.19229554E+03</pdfrwt>
<pdfrwt beam="2">  1       21 0.45840679E-01 0.19229554E+03</pdfrwt>
<totfact> 0.67804132E+04</totfact>
</mgrwt>
</event>
<event>
 4    1  0.4199481E+000  0.1862320E+03  0.7546771E-02  0.1161904E+00
         21   -1    0    0  501  502  0.00000000000E+00  0.00000000000E+00  0.64941608764E+03  0.64941608764E+03  0.00000000000E+00 0.  1.
         21   -1    0    0  502  503 -0.00000000000E+00 -0.00000000000E+00 -0.12212735904E+03  0.12212735904E+03  0.00000000000E+00 0.  1.
          6    1    1    2  501    0  0.48702395325E+02 -0.48799860641E+02  0.55302639387E+03  0.58354137988E+03  0.17300000000E+03 0.  1.
         -6    1    1    2    0  503 -0.48702395325E+02  0.48799860641E+02 -0.25737665264E+02  0.18800206680E+03  0.17300000000E+03 0.  1.
<mgrwt>
<rscale>  2 0.18623198E+03</rscale>
<asrwt>0</asrwt>
<pdfrwt beam="1">  1       21 0.99910165E-01 0.18623198E+03</pdfrwt>
<pdfrwt beam="2">  1       21 0.18788825E-01 0.18623198E+03</pdfrwt>
<totfact> 0.21417257E+04</totfact>
</mgrwt>
</event>
<event>
 4    1  0.4199481E+000  0.2335917E+03  0.7546771E-02  0.1124137E+00
         21   -1    0    0  503  502  0.00000000000E+00  0.00000000000E+00  0.42835574012E+03  0.42835574012E+03  0.00000000000E+00 0. -1.
         21   -1    0    0  501  503 -0.00000000000E+00 -0.00000000000E+00 -0.26650017676E+03  0.26650017676E+03  0.00000000000E+00 0. -1.
          6    1    1    2  501    0  0.89448537698E+02 -0.12897687567E+03 -0.17009144575E+03  0.28895704745E+03  0.17300000000E+03 0. -1.
         -6    1    1    2    0  502 -0.89448537698E+02  0.12897687567E+03  0.33194700910E+03  0.40589886943E+03  0.17300000000E+03 0. -1.
<mgrwt>
<rscale>  2 0.23359169E+03</rscale>
<asrwt>0</asrwt>
<pdfrwt beam="1">  1       21 0.65900883E-01 0.23359169E+03</pdfrwt>
<pdfrwt beam="2">  1       21 0.41000027E-01 0.23359169E+03</pdfrwt>
<totfact> 0.11811127E+04</totfact>
</mgrwt>
</event>
<event>
 4    1  0.4199481E+000  0.2063406E+03  0.7546771E-02  0.1144497E+00
         21   -1    0    0  503  502  0.00000000000E+00  0.00000000000E+00  0.22307944356E+03  0.22307944356E+03  0.00000000000E+00 0.  1.
         21   -1    0    0  501  503 -0.00000000000E+00 -0.00000000000E+00 -0.36319263451E+03  0.36319263451E+03  0.00000000000E+00 0. -1.
          6    1    1    2  501    0 -0.11164459112E+03 -0.13525388250E+02 -0.27198026971E+03  0.34139378724E+03  0.17300000000E+03 0. -1.
         -6    1    1    2    0  502  0.11164459112E+03  0.13525388250E+02  0.13186707877E+03  0.24487829083E+03  0.17300000000E+03 0.  1.
<mgrwt>
<rscale>  2 0.20634062E+03</rscale>
<asrwt>0</asrwt>
<pdfrwt beam="1">  1       21 0.34319915E-01 0.20634062E+03</pdfrwt>
<pdfrwt beam="2">  1       21 0.55875789E-01 0.20634062E+03</pdfrwt>
<totfact> 0.24486629E+04</totfact>
</mgrwt>
</event>
<event>
 4    1  0.4199481E+000  0.2004279E+03  0.7546771E-02  0.1149378E+00
         21   -1    0    0  501  502  0.00000000000E+00  0.00000000000E+00  0.20890005096E+04  0.20890005096E+04  0.00000000000E+00 0.  1.
         21   -1    0    0  502  503 -0.00000000000E+00 -0.00000000000E+00 -0.13233480448E+03  0.13233480448E+03  0.00000000000E+00 0.  1.
          6    1    1    2  501    0 -0.41038215743E+02  0.92510649164E+02  0.20051372650E+04  0.20151294764E+04  0.17300000000E+03 0.  1.
         -6    1    1    2    0  503  0.41038215743E+02 -0.92510649164E+02 -0.48471559865E+02  0.20620583764E+03  0.17300000000E+03 0.  1.
<mgrwt>
<rscale>  2 0.20042793E+03</rscale>
<asrwt>0</asrwt>
<pdfrwt beam="1">  1       21 0.32138467E+00 0.20042793E+03</pdfrwt>
<pdfrwt beam="2">  1       21 0.20359202E-01 0.20042793E+03</pdfrwt>
<totfact> 0.56729524E+02</totfact>
</mgrwt>
</event>
<event>
 4    1  0.4199481E+000  0.2503870E+03  0.7546771E-02  0.1113060E+00
         21   -1    0    0  503  502  0.00000000000E+00  0.00000000000E+00  0.12728017715E+03  0.12728017715E+03  0.00000000000E+00 0. -1.
         21   -1    0    0  501  503 -0.00000000000E+00 -0.00000000000E+00 -0.51603563417E+03  0.51603563417E+03  0.00000000000E+00 0. -1.
          6    1    1    2  501    0  0.77021788215E+01  0.18084620219E+03 -0.26297758330E+03  0.36311276722E+03  0.17300000000E+03 0. -1.
         -6    1    1    2    0  502 -0.77021788215E+01 -0.18084620219E+03 -0.12577787372E+03  0.28020304410E+03  0.17300000000E+03 0. -1.
<mgrwt>
<rscale>  2 0.25038705E+03</rscale>
<asrwt>0</asrwt>
<pdfrwt beam="1">  1       21 0.19581565E-01 0.25038705E+03</pdfrwt>
<pdfrwt beam="2">  1       21 0.79390098E-01 0.25038705E+03</pdfrwt>
<totfact> 0.32645609E+04</totfact>
</mgrwt>
</event>
<event>
 4    1  0.4199481E+000  0.3812764E+03  0.7546771E-02  0.1050463E+00
         21   -1    0    0  501  502  0.00000000000E+00  0.00000000000E+00  0.50234497825E+03  0.50234497825E+03  0.00000000000E+00 0. -1.
         21   -1    0    0  502  503 -0.00000000000E+00 -0.00000000000E+00 -0.29569265588E+03  0.29569265588E+03  0.00000000000E+00 0. -1.
          6    1    1    2  501    0 -0.32808238242E+03 -0.88343968645E+02  0.45053393628E+02  0.38392904908E+03  0.17300000000E+03 0. -1.
         -6    1    1    2    0  503  0.32808238242E+03  0.88343968645E+02  0.16159892874E+03  0.41410858506E+03  0.17300000000E+03 0. -1.
<mgrwt>
<rscale>  2 0.38127642E+03</rscale>
<asrwt>0</asrwt>
<pdfrwt beam="1">  1       21 0.77283843E-01 0.38127642E+03</pdfrwt>
<pdfrwt beam="2">  1       21 0.45491178E-01 0.38127642E+03</pdfrwt>
<totfact> 0.62319002E+03</totfact>
</mgrwt>
</event>
<event>
 4    1  0.4199481E+000  0.1781802E+03  0.7546771E-02  0.1169576E+00
         21   -1    0    0  503  502  0.00000000000E+00  0.00000000000E+00  0.56278704891E+03  0.56278704891E+03  0.00000000000E+00 0. -1.
         21   -1    0    0  501  503 -0.00000000000E+00 -0.00000000000E+00 -0.16457894562E+03  0.16457894562E+03  0.00000000000E+00 0.  1.
          6    1    1    2  501    0  0.33383934377E+02 -0.26546444454E+02 -0.95733111202E+02  0.20226969464E+03  0.17300000000E+03 0.  1.
         -6    1    1    2    0  502 -0.33383934377E+02  0.26546444454E+02  0.49394121449E+03  0.52509629989E+03  0.17300000000E+03 0. -1.
<mgrwt>
<rscale>  2 0.17818025E+03</rscale>
<asrwt>0</asrwt>
<pdfrwt beam="1">  1       21 0.86582622E-01 0.17818025E+03</pdfrwt>
<pdfrwt beam="2">  1       21 0.25319838E-01 0.17818025E+03</pdfrwt>
<totfact> 0.17137005E+04</totfact>
</mgrwt>
</event>
<event>
 4    1  0.4199481E+000  0.1972086E+03  0.7546771E-02  0.1152116E+00
         21   -1    0    0  501  502  0.00000000000E+00  0.00000000000E+00  0.39150958722E+03  0.39150958722E+03  0.00000000000E+00 0. -1.
         21   -1    0    0  502  503 -0.00000000000E+00 -0.00000000000E+00 -0.12816932231E+03  0.12816932231E+03  0.00000000000E+00 0. -1.
          6    1    1    2  501    0  0.93268419427E+02 -0.16225043045E+02  0.25491121793E+03  0.32229020946E+03  0.17300000000E+03 0. -1.
         -6    1    1    2    0  503 -0.93268419427E+02  0.16225043045E+02  0.84290469713E+01  0.19738870007E+03  0.17300000000E+03 0. -1.
<mgrwt>
<rscale>  2 0.19720865E+03</rscale>
<asrwt>0</asrwt>
<pdfrwt beam="1">  1       21 0.60232244E-01 0.19720865E+03</pdfrwt>
<pdfrwt beam="2">  1       21 0.19718357E-01 0.19720865E+03</pdfrwt>
<totfact> 0.60781312E+04</totfact>
</mgrwt>
</event>
<event>
 4    1  0.4199481E+000  0.1777915E+03  0.7546771E-02  0.1169958E+00
         21   -1    0    0  501  502  0.00000000000E+00  0.00000000000E+00  0.12122860452E+03  0.12122860452E+03  0.00000000000E+00 0. -1.
         21   -1    0    0  502  503 -0.00000000000E+00 -0.00000000000E+00 -0.29371489653E+03  0.29371489653E+03  0.00000000000E+00 0. -1.
          6    1    1    2  501    0 -0.39082270491E+02  0.12385701509E+02 -0.16732616933E+02  0.17857718202E+03  0.17300000000E+03 0. -1.
         -6    1    1    2    0  503  0.39082270491E+02 -0.12385701509E+02 -0.15575367508E+03  0.23636631903E+03  0.17300000000E+03 0. -1.
<mgrwt>
<rscale>  2 0.17779153E+03</rscale>
<asrwt>0</asrwt>
<pdfrwt beam="1">  1       21 0.18650555E-01 0.17779153E+03</pdfrwt>
<pdfrwt beam="2">  1       21 0.45186907E-01 0.17779153E+03</pdfrwt>
<totfact> 0.12416341E+05</totfact>
</mgrwt>
</event>
<event>
 4    1  0.4199481E+000  0.1779462E+03  0.7546771E-02  0.1169806E+00
         21   -1    0    0  501  502  0.00000000000E+00  0.00000000000E+00  0.37867486327E+02  0.37867486327E+02  0.00000000000E+00 0.  1.
         21   -1    0    0  502  503 -0.00000000000E+00 -0.00000000000E+00 -0.88285070622E+03  0.88285070622E+03  0.00000000000E+00 0.  1.
          6    1    1    2  501    0  0.39773501467E+02 -0.12407032628E+02 -0.31667030015E+03  0.36324226747E+03  0.17300000000E+03 0.  1.
         -6    1    1    2    0  503 -0.39773501467E+02  0.12407032628E+02 -0.52831291974E+03  0.55747592508E+03  0.17300000000E+03 0.  1.
<mgrwt>
<rscale>  2 0.17794624E+03</rscale>
<asrwt>0</asrwt>
<pdfrwt beam="1">  1       21 0.58257671E-02 0.17794624E+03</pdfrwt>
<pdfrwt beam="2">  1       21 0.13582319E+00 0.17794624E+03</pdfrwt>
<totfact> 0.80782775E+04</totfact>
</mgrwt>
</event>
<event>
 4    1  0.4199481E+000  0.1794852E+03  0.7546771E-02  0.1168302E+00
         21   -1    0    0  501  502  0.00000000000E+00  0.00000000000E+00  0.20292327236E+03  0.20292327236E+03  0.00000000000E+00 0. -1.
         21   -1    0    0  502  503 -0.00000000000E+00 -0.00000000000E+00 -0.30097552315E+03  0.30097552315E+03  0.00000000000E+00 0. -1.
          6    1    1    2  501    0 -0.39188342974E+02 -0.27390238262E+02  0.12416668922E+03  0.21824829458E+03  0.17300000000E+03 0. -1.
         -6    1    1    2    0  503  0.39188342974E+02  0.27390238262E+02 -0.22221894002E+03  0.28565050093E+03  0.17300000000E+03 0. -1.
<mgrwt>
<rscale>  2 0.17948524E+03</rscale>
<asrwt>0</asrwt>
<pdfrwt beam="1">  1       21 0.31218965E-01 0.17948524E+03</pdfrwt>
<pdfrwt beam="2">  1       21 0.46303926E-01 0.17948524E+03</pdfrwt>
<totfact> 0.44333014E+04</totfact>
</mgrwt>
</event>
<event>
 4    1  0.4199481E+000  0.1900765E+03  0.7546771E-02  0.1158392E+00
         21   -1    0    0  503  502  0.00000000000E+00  0.00000000000E+00  0.17011169103E+03  0.17011169103E+03  0.00000000000E+00 0. -1.
         21   -1    0    0  501  503 -0.00000000000E+00 -0.00000000000E+00 -0.21253687560E+03  0.21253687560E+03  0.00000000000E+00 0. -1.
          6    1    1    2  501    0  0.75698937886E+02  0.21673868416E+02 -0.26335497403E+02  0.19189227236E+03  0.17300000000E+03 0. -1.
         -6    1    1    2    0  502 -0.75698937886E+02 -0.21673868416E+02 -0.16089687170E+02  0.19075629427E+03  0.17300000000E+03 0. -1.
<mgrwt>
<rscale>  2 0.19007653E+03</rscale>
<asrwt>0</asrwt>
<pdfrwt beam="1">  1       21 0.26171030E-01 0.19007653E+03</pdfrwt>
<pdfrwt beam="2">  1       21 0.32697981E-01 0.19007653E+03</pdfrwt>
<totfact> 0.12503135E+05</totfact>
</mgrwt>
</event>
<event>
 4    1  0.4199481E+000  0.2064623E+03  0.7546771E-02  0.1144398E+00
         21   -1    0    0  501  502  0.00000000000E+00  0.00000000000E+00  0.14629468388E+03  0.14629468388E+03  0.00000000000E+00 0.  1.
         21   -1    0    0  502  503 -0.00000000000E+00 -0.00000000000E+00 -0.29169197153E+03  0.29169197153E+03  0.00000000000E+00 0. -1.
          6    1    1    2  501    0  0.11229717803E+03 -0.93297937871E+01 -0.65486447064E+02  0.21659911356E+03  0.17300000000E+03 0.  1.
         -6    1    1    2    0  503 -0.11229717803E+03  0.93297937871E+01 -0.79910840590E+02  0.22138754186E+03  0.17300000000E+03 0. -1.
<mgrwt>
<rscale>  2 0.20646235E+03</rscale>
<asrwt>0</asrwt>
<pdfrwt beam="1">  1       21 0.22506875E-01 0.20646235E+03</pdfrwt>
<pdfrwt beam="2">  1       21 0.44875688E-01 0.20646235E+03</pdfrwt>
<totfact> 0.87613510E+04</totfact>
</mgrwt>
</event>
<event>
 4    1  0.4199481E+000  0.2158962E+03  0.7546771E-02  0.1136980E+00
         21   -1    0    0  503  502  0.00000000000E+00  0.00000000000E+00  0.44801007618E+03  0.44801007618E+03  0.00000000000E+00 0.  1.
         21   -1    0    0  501  503 -0.00000000000E+00 -0.00000000000E+00 -0.14751734370E+03  0.14751734370E+03  0.00000000000E+00 0.  1.
          6    1    1    2  501    0  0.12903256933E+03 -0.57226899491E+01 -0.11405106659E+02  0.21619720069E+03  0.17300000000E+03 0.  1.
         -6    1    1    2    0  502 -0.12903256933E+03  0.57226899491E+01  0.31189783914E+03  0.37933021919E+03  0.17300000000E+03 0.  1.
<mgrwt>
<rscale>  2 0.21589616E+03</rscale>
<asrwt>0</asrwt>
<pdfrwt beam="1">  1       21 0.68924627E-01 0.21589616E+03</pdfrwt>
<pdfrwt beam="2">  1       21 0.22694976E-01 0.21589616E+03</pdfrwt>
<totfact> 0.34471869E+04</totfact>
</mgrwt>
</event>
<event>
 4    1  0.4199481E+000  0.1977262E+03  0.7546771E-02  0.1151672E+00
         21   -1    0    0  501  502  0.00000000000E+00  0.00000000000E+00  0.18860216996E+03  0.18860216996E+03  0.00000000000E+00 0. -1.
         21   -1    0    0  502  503 -0.00000000000E+00 -0.00000000000E+00 -0.21400500919E+03  0.21400500919E+03  0.00000000000E+00 0.  1.
          6    1    1    2  501    0 -0.94586422722E+02 -0.14834137130E+02  0.22952850698E+02  0.19905395335E+03  0.17300000000E+03 0.  1.
         -6    1    1    2    0  503  0.94586422722E+02  0.14834137130E+02 -0.48355689930E+02  0.20355322581E+03  0.17300000000E+03 0. -1.
<mgrwt>
<rscale>  2 0.19772618E+03</rscale>
<asrwt>0</asrwt>
<pdfrwt beam="1">  1       21 0.29015718E-01 0.19772618E+03</pdfrwt>
<pdfrwt beam="2">  1       21 0.32923848E-01 0.19772618E+03</pdfrwt>
<totfact> 0.10077844E+05</totfact>
</mgrwt>
</event>
<event>
 4    1  0.4199481E+000  0.2360639E+03  0.7546771E-02  0.1122443E+00
         21   -1    0    0  501  502  0.00000000000E+00  0.00000000000E+00  0.20986201130E+03  0.20986201130E+03  0.00000000000E+00 0.  1.
         21   -1    0    0  502  503 -0.00000000000E+00 -0.00000000000E+00 -0.47461907795E+03  0.47461907795E+03  0.00000000000E+00 0.  1.
          6    1    1    2  501    0 -0.16060298355E+03  0.19565269098E+01  0.94773788491E+02  0.25437809911E+03  0.17300000000E+03 0.  1.
         -6    1    1    2    0  503  0.16060298355E+03 -0.19565269098E+01 -0.35953085514E+03  0.43010299013E+03  0.17300000000E+03 0.  1.
<mgrwt>
<rscale>  2 0.23606386E+03</rscale>
<asrwt>0</asrwt>
<pdfrwt beam="1">  1       21 0.32286463E-01 0.23606386E+03</pdfrwt>
<pdfrwt beam="2">  1       21 0.73018320E-01 0.23606386E+03</pdfrwt>
<totfact> 0.15175972E+04</totfact>
</mgrwt>
</event>
<event>
 4    1  0.4199481E+000  0.2421521E+03  0.7546771E-02  0.1118367E+00
         21   -1    0    0  503  502  0.00000000000E+00  0.00000000000E+00  0.75218473178E+03  0.75218473178E+03  0.00000000000E+00 0.  1.
         21   -1    0    0  501  503 -0.00000000000E+00 -0.00000000000E+00 -0.51332070351E+03  0.51332070351E+03  0.00000000000E+00 0.  1.
          6    1    1    2  501    0  0.13637088249E+03 -0.10055647672E+03 -0.46329618070E+03  0.52276282735E+03  0.17300000000E+03 0.  1.
         -6    1    1    2    0  502 -0.13637088249E+03  0.10055647672E+03  0.70216020897E+03  0.74274260795E+03  0.17300000000E+03 0.  1.
<mgrwt>
<rscale>  2 0.24215207E+03</rscale>
<asrwt>0</asrwt>
<pdfrwt beam="1">  1       21 0.11572073E+00 0.24215207E+03</pdfrwt>
<pdfrwt beam="2">  1       21 0.78972416E-01 0.24215207E+03</pdfrwt>
<totfact> 0.77998496E+02</totfact>
</mgrwt>
</event>
<event>
 4    1  0.4199481E+000  0.1806462E+03  0.7546771E-02  0.1167179E+00
         21   -1    0    0  501  502  0.00000000000E+00  0.00000000000E+00  0.16485934760E+03  0.16485934760E+03  0.00000000000E+00 0. -1.
         21   -1    0    0  502  503 -0.00000000000E+00 -0.00000000000E+00 -0.21096643213E+03  0.21096643213E+03  0.00000000000E+00 0. -1.
          6    1    1    2  501    0  0.44036732879E+02  0.27655208089E+02  0.23632088589E+02  0.18218540004E+03  0.17300000000E+03 0. -1.
         -6    1    1    2    0  503 -0.44036732879E+02 -0.27655208089E+02 -0.69739173119E+02  0.19364037968E+03  0.17300000000E+03 0. -1.
<mgrwt>
<rscale>  2 0.18064619E+03</rscale>
<asrwt>0</asrwt>
<pdfrwt beam="1">  1       21 0.25362977E-01 0.18064619E+03</pdfrwt>
<pdfrwt beam="2">  1       21 0.32456374E-01 0.18064619E+03</pdfrwt>
<totfact> 0.13514114E+05</totfact>
</mgrwt>
</event>
<event>
 4    1  0.4199481E+000  0.1819302E+03  0.7546771E-02  0.1165948E+00
         21   -1    0    0  501  502  0.00000000000E+00  0.00000000000E+00  0.95363303666E+03  0.95363303666E+03  0.00000000000E+00 0. -1.
         21   -1    0    0  502  503 -0.00000000000E+00 -0.00000000000E+00 -0.37874819459E+02  0.37874819459E+02  0.00000000000E+00 0. -1.
          6    1    1    2  501    0 -0.55641233183E+02  0.85820038225E+01  0.60123302557E+03  0.62815583151E+03  0.17300000000E+03 0. -1.
         -6    1    1    2    0  503  0.55641233183E+02 -0.85820038225E+01  0.31452519163E+03  0.36335202461E+03  0.17300000000E+03 0. -1.
<mgrwt>
<rscale>  2 0.18193020E+03</rscale>
<asrwt>0</asrwt>
<pdfrwt beam="1">  1       21 0.14671276E+00 0.18193020E+03</pdfrwt>
<pdfrwt beam="2">  1       21 0.58268960E-02 0.18193020E+03</pdfrwt>
<totfact> 0.66040582E+04</totfact>
</mgrwt>
</event>
<event>
 4    1  0.4199481E+000  0.1859349E+03  0.7546771E-02  0.1162180E+00
         21   -1    0    0  503  502  0.00000000000E+00  0.00000000000E+00  0.95877504279E+02  0.95877504279E+02  0.00000000000E+00 0.  1.
         21   -1    0    0  501  503 -0.00000000000E+00 -0.00000000000E+00 -0.40518264121E+03  0.40518264121E+03  0.00000000000E+00 0. -1.
          6    1    1    2  501    0  0.61346019003E+02  0.29655612970E+02 -0.23777161890E+03  0.30183958021E+03  0.17300000000E+03 0. -1.
         -6    1    1    2    0  502 -0.61346019003E+02 -0.29655612970E+02 -0.71533518034E+02  0.19922056528E+03  0.17300000000E+03 0.  1.
<mgrwt>
<rscale>  2 0.18593491E+03</rscale>
<asrwt>0</asrwt>
<pdfrwt beam="1">  1       21 0.14750385E-01 0.18593491E+03</pdfrwt>
<pdfrwt beam="2">  1       21 0.62335792E-01 0.18593491E+03</pdfrwt>
<totfact> 0.96774654E+04</totfact>
</mgrwt>
</event>
<event>
 4    1  0.4199481E+000  0.1985276E+03  0.7546771E-02  0.1150987E+00
         21   -1    0    0  503  502  0.00000000000E+00  0.00000000000E+00  0.22973792019E+03  0.22973792019E+03  0.00000000000E+00 0.  1.
         21   -1    0    0  501  503 -0.00000000000E+00 -0.00000000000E+00 -0.21064441601E+03  0.21064441601E+03  0.00000000000E+00 0.  1.
          6    1    1    2  501    0  0.39711719775E+02  0.88922475837E+02 -0.85304155225E+02  0.21607875022E+03  0.17300000000E+03 0.  1.
         -6    1    1    2    0  502 -0.39711719775E+02 -0.88922475837E+02  0.10439765940E+03  0.22430358598E+03  0.17300000000E+03 0.  1.
<mgrwt>
<rscale>  2 0.19852765E+03</rscale>
<asrwt>0</asrwt>
<pdfrwt beam="1">  1       21 0.35344296E-01 0.19852765E+03</pdfrwt>
<pdfrwt beam="2">  1       21 0.32406833E-01 0.19852765E+03</pdfrwt>
<totfact> 0.70526963E+04</totfact>
</mgrwt>
</event>
<event>
 4    1  0.4199481E+000  0.3127499E+03  0.7546771E-02  0.1079035E+00
         21   -1    0    0  503  502  0.00000000000E+00  0.00000000000E+00  0.22013394760E+03  0.22013394760E+03  0.00000000000E+00 0.  1.
         21   -1    0    0  501  503 -0.00000000000E+00 -0.00000000000E+00 -0.46182472810E+03  0.46182472810E+03  0.00000000000E+00 0. -1.
          6    1    1    2  501    0 -0.18593435188E+03  0.18251557268E+03 -0.18720754583E+03  0.36449853593E+03  0.17300000000E+03 0. -1.
         -6    1    1    2    0  502  0.18593435188E+03 -0.18251557268E+03 -0.54483234671E+02  0.31746013976E+03  0.17300000000E+03 0.  1.
<mgrwt>
<rscale>  2 0.31274993E+03</rscale>
<asrwt>0</asrwt>
<pdfrwt beam="1">  1       21 0.33866762E-01 0.31274993E+03</pdfrwt>
<pdfrwt beam="2">  1       21 0.71049957E-01 0.31274993E+03</pdfrwt>
<totfact> 0.14152613E+04</totfact>
</mgrwt>
</event>
<event>
 4    1  0.4199481E+000  0.1940712E+03  0.7546771E-02  0.1154840E+00
         21   -1    0    0  503  502  0.00000000000E+00  0.00000000000E+00  0.49595837335E+03  0.49595837335E+03  0.00000000000E+00 0.  1.
         21   -1    0    0  501  503 -0.00000000000E+00 -0.00000000000E+00 -0.79048291745E+02  0.79048291745E+02  0.00000000000E+00 0.  1.
          6    1    1    2  501    0  0.83054708446E+02 -0.28922954823E+02  0.26545584989E+03  0.32883191778E+03  0.17300000000E+03 0.  1.
         -6    1    1    2    0  502 -0.83054708446E+02  0.28922954823E+02  0.15145423172E+03  0.24617474731E+03  0.17300000000E+03 0.  1.
<mgrwt>
<rscale>  2 0.19407118E+03</rscale>
<asrwt>0</asrwt>
<pdfrwt beam="1">  1       21 0.76301286E-01 0.19407118E+03</pdfrwt>
<pdfrwt beam="2">  1       21 0.12161276E-01 0.19407118E+03</pdfrwt>
<totfact> 0.87610522E+04</totfact>
</mgrwt>
</event>
<event>
 4    1  0.4199481E+000  0.2259679E+03  0.7546771E-02  0.1129510E+00
         21   -1    0    0  501  502  0.00000000000E+00  0.00000000000E+00  0.34859606461E+03  0.34859606461E+03  0.00000000000E+00 0.  1.
         21   -1    0    0  502  503 -0.00000000000E+00 -0.00000000000E+00 -0.35238027504E+03  0.35238027504E+03  0.00000000000E+00 0.  1.
          6    1    1    2  501    0  0.12338813245E+03  0.76862666879E+02  0.26602386712E+03  0.34904182940E+03  0.17300000000E+03 0.  1.
         -6    1    1    2    0  503 -0.12338813245E+03 -0.76862666879E+02 -0.26980807756E+03  0.35193451025E+03  0.17300000000E+03 0.  1.
<mgrwt>
<rscale>  2 0.22596792E+03</rscale>
<asrwt>0</asrwt>
<pdfrwt beam="1">  1       21 0.53630164E-01 0.22596792E+03</pdfrwt>
<pdfrwt beam="2">  1       21 0.54212350E-01 0.22596792E+03</pdfrwt>
<totfact> 0.10351196E+04</totfact>
</mgrwt>
</event>
<event>
 4    1  0.4199481E+000  0.3309733E+03  0.7546771E-02  0.1070707E+00
         21   -1    0    0  501  502  0.00000000000E+00  0.00000000000E+00  0.34264522960E+03  0.34264522960E+03  0.00000000000E+00 0. -1.
         21   -1    0    0  502  503 -0.00000000000E+00 -0.00000000000E+00 -0.57677794500E+03  0.57677794500E+03  0.00000000000E+00 0. -1.
          6    1    1    2  501    0 -0.22038954538E+03 -0.17618963932E+03  0.18984599884E+03  0.38155582028E+03  0.17300000000E+03 0. -1.
         -6    1    1    2    0  503  0.22038954538E+03  0.17618963932E+03 -0.42397871424E+03  0.53786735432E+03  0.17300000000E+03 0. -1.
<mgrwt>
<rscale>  2 0.33097332E+03</rscale>
<asrwt>0</asrwt>
<pdfrwt beam="1">  1       21 0.52714652E-01 0.33097332E+03</pdfrwt>
<pdfrwt beam="2">  1       21 0.88735066E-01 0.33097332E+03</pdfrwt>
<totfact> 0.33895827E+03</totfact>
</mgrwt>
</event>
<event>
 4    1  0.4199481E+000  0.3084899E+03  0.7546771E-02  0.1081072E+00
         21   -1    0    0  503  502  0.00000000000E+00  0.00000000000E+00  0.65606385767E+03  0.65606385767E+03  0.00000000000E+00 0.  1.
         21   -1    0    0  501  503 -0.00000000000E+00 -0.00000000000E+00 -0.14595785724E+03  0.14595785724E+03  0.00000000000E+00 0. -1.
          6    1    1    2  501    0  0.20376942247E+03 -0.15399679646E+03  0.22353096445E+03  0.38096204919E+03  0.17300000000E+03 0.  1.
         -6    1    1    2    0  502 -0.20376942247E+03  0.15399679646E+03  0.28657503598E+03  0.42105966572E+03  0.17300000000E+03 0. -1.
<mgrwt>
<rscale>  2 0.30848986E+03</rscale>
<asrwt>0</asrwt>
<pdfrwt beam="1">  1       21 0.10093290E+00 0.30848986E+03</pdfrwt>
<pdfrwt beam="2">  1       21 0.22455055E-01 0.30848986E+03</pdfrwt>
<totfact> 0.14016272E+04</totfact>
</mgrwt>
</event>
<event>
 4    1  0.4199481E+000  0.3078521E+03  0.7546771E-02  0.1081380E+00
         21   -1    0    0  503  502  0.00000000000E+00  0.00000000000E+00  0.26385606803E+03  0.26385606803E+03  0.00000000000E+00 0. -1.
         21   -1    0    0  501  503 -0.00000000000E+00 -0.00000000000E+00 -0.54523837466E+03  0.54523837466E+03  0.00000000000E+00 0. -1.
          6    1    1    2  501    0 -0.22991584576E+03  0.10946526164E+03 -0.37700854545E+03  0.48673235251E+03  0.17300000000E+03 0. -1.
         -6    1    1    2    0  502  0.22991584576E+03 -0.10946526164E+03  0.95626238813E+02  0.32236209019E+03  0.17300000000E+03 0. -1.
<mgrwt>
<rscale>  2 0.30785214E+03</rscale>
<asrwt>0</asrwt>
<pdfrwt beam="1">  1       21 0.40593242E-01 0.30785214E+03</pdfrwt>
<pdfrwt beam="2">  1       21 0.83882826E-01 0.30785214E+03</pdfrwt>
<totfact> 0.67406320E+03</totfact>
</mgrwt>
</event>
<event>
 4    1  0.4199481E+000  0.2171255E+03  0.7546771E-02  0.1136044E+00
         21   -1    0    0  503  502  0.00000000000E+00  0.00000000000E+00  0.53800276107E+02  0.53800276107E+02  0.00000000000E+00 0. -1.
         21   -1    0    0  501  503 -0.00000000000E+00 -0.00000000000E+00 -0.10012996187E+04  0.10012996187E+04  0.00000000000E+00 0. -1.
          6    1    1    2  501    0 -0.12651089050E+03  0.34777344727E+02 -0.66016911269E+03  0.69495807533E+03  0.17300000000E+03 0. -1.
         -6    1    1    2    0  502  0.12651089050E+03 -0.34777344727E+02 -0.28733022991E+03  0.36014181949E+03  0.17300000000E+03 0. -1.
<mgrwt>
<rscale>  2 0.21712547E+03</rscale>
<asrwt>0</asrwt>
<pdfrwt beam="1">  1       21 0.82769661E-02 0.21712547E+03</pdfrwt>
<pdfrwt beam="2">  1       21 0.15404608E+00 0.21712547E+03</pdfrwt>
<totfact> 0.31038667E+04</totfact>
</mgrwt>
</event>
<event>
 4    1  0.4199481E+000  0.1839362E+03  0.7546771E-02  0.1164047E+00
         21   -1    0    0  501  502  0.00000000000E+00  0.00000000000E+00  0.38208230722E+03  0.38208230722E+03  0.00000000000E+00 0.  1.
         21   -1    0    0  502  503 -0.00000000000E+00 -0.00000000000E+00 -0.10618739460E+03  0.10618739460E+03  0.00000000000E+00 0.  1.
          6    1    1    2  501    0  0.43180571601E+02 -0.45154863978E+02  0.23745096112E+03  0.30035892269E+03  0.17300000000E+03 0.  1.
         -6    1    1    2    0  503 -0.43180571601E+02  0.45154863978E+02  0.38443951503E+02  0.18791077913E+03  0.17300000000E+03 0.  1.
<mgrwt>
<rscale>  2 0.18393619E+03</rscale>
<asrwt>0</asrwt>
<pdfrwt beam="1">  1       21 0.58781893E-01 0.18393619E+03</pdfrwt>
<pdfrwt beam="2">  1       21 0.16336522E-01 0.18393619E+03</pdfrwt>
<totfact> 0.91190472E+04</totfact>
</mgrwt>
</event>
<event>
 4    1  0.4199481E+000  0.1789851E+03  0.7546771E-02  0.1168789E+00
         21   -1    0    0  503  502  0.00000000000E+00  0.00000000000E+00  0.22309261021E+03  0.22309261021E+03  0.00000000000E+00 0.  1.
         21   -1    0    0  501  503 -0.00000000000E+00 -0.00000000000E+00 -0.24435967800E+03  0.24435967800E+03  0.00000000000E+00 0.  1.
          6    1    1    2  501    0  0.42350807092E+02 -0.17693431466E+02 -0.16071956012E+03  0.24055441252E+03  0.17300000000E+03 0.  1.
         -6    1    1    2    0  502 -0.42350807092E+02  0.17693431466E+02  0.13945249233E+03  0.22689787570E+03  0.17300000000E+03 0.  1.
<mgrwt>
<rscale>  2 0.17898505E+03</rscale>
<asrwt>0</asrwt>
<pdfrwt beam="1">  1       21 0.34321940E-01 0.17898505E+03</pdfrwt>
<pdfrwt beam="2">  1       21 0.37593796E-01 0.17898505E+03</pdfrwt>
<totfact> 0.56172339E+04</totfact>
</mgrwt>
</event>
<event>
 4    1  0.4199481E+000  0.1821211E+03  0.7546771E-02  0.1165766E+00
         21   -1    0    0  501  502  0.00000000000E+00  0.00000000000E+00  0.13263115859E+04  0.13263115859E+04  0.00000000000E+00 0.  1.
         21   -1    0    0  502  503 -0.00000000000E+00 -0.00000000000E+00 -0.25369200686E+02  0.25369200686E+02  0.00000000000E+00 0.  1.
          6    1    1    2  501    0 -0.54049288533E+02  0.17825884024E+02  0.56980220687E+03  0.59819950074E+03  0.17300000000E+03 0. -1.
         -6    1    1    2    0  503  0.54049288533E+02 -0.17825884024E+02  0.73114017839E+03  0.75348128589E+03  0.17300000000E+03 0. -1.
<mgrwt>
<rscale>  2 0.18212108E+03</rscale>
<asrwt>0</asrwt>
<pdfrwt beam="1">  1       21 0.20404788E+00 0.18212108E+03</pdfrwt>
<pdfrwt beam="2">  1       21 0.39029550E-02 0.18212108E+03</pdfrwt>
<totfact> 0.52017885E+04</totfact>
</mgrwt>
</event>
<event>
 4    1  0.4199481E+000  0.2304191E+03  0.7546771E-02  0.1126345E+00
         21   -1    0    0  503  502  0.00000000000E+00  0.00000000000E+00  0.11758407804E+03  0.11758407804E+03  0.00000000000E+00 0. -1.
         21   -1    0    0  501  503 -0.00000000000E+00 -0.00000000000E+00 -0.53283012383E+03  0.53283012383E+03  0.00000000000E+00 0.  1.
          6    1    1    2  501    0  0.15015852985E+03 -0.24826856039E+02 -0.33465301880E+03  0.40630727271E+03  0.17300000000E+03 0.  1.
         -6    1    1    2    0  502 -0.15015852985E+03  0.24826856039E+02 -0.80593026987E+02  0.24410692916E+03  0.17300000000E+03 0. -1.
<mgrwt>
<rscale>  2 0.23041909E+03</rscale>
<asrwt>0</asrwt>
<pdfrwt beam="1">  1       21 0.18089858E-01 0.23041909E+03</pdfrwt>
<pdfrwt beam="2">  1       21 0.81973865E-01 0.23041909E+03</pdfrwt>
<totfact> 0.35508482E+04</totfact>
</mgrwt>
</event>
<event>
 4    1  0.4199481E+000  0.2717109E+03  0.7546771E-02  0.1100304E+00
         21   -1    0    0  503  502  0.00000000000E+00  0.00000000000E+00  0.15087207556E+03  0.15087207556E+03  0.00000000000E+00 0.  1.
         21   -1    0    0  501  503 -0.00000000000E+00 -0.00000000000E+00 -0.81882694706E+03  0.81882694706E+03  0.00000000000E+00 0.  1.
          6    1    1    2  501    0 -0.11098610462E+03 -0.17770737523E+03 -0.64154037471E+03  0.69670716877E+03  0.17300000000E+03 0.  1.
         -6    1    1    2    0  502  0.11098610462E+03  0.17770737523E+03 -0.26414496782E+02  0.27299185385E+03  0.17300000000E+03 0.  1.
<mgrwt>
<rscale>  2 0.27171092E+03</rscale>
<asrwt>0</asrwt>
<pdfrwt beam="1">  1       21 0.23211088E-01 0.27171092E+03</pdfrwt>
<pdfrwt beam="2">  1       21 0.12597338E+00 0.27171092E+03</pdfrwt>
<totfact> 0.77495977E+03</totfact>
</mgrwt>
</event>
<event>
 4    1  0.4199481E+000  0.3582737E+03  0.7546771E-02  0.1059269E+00
         21   -1    0    0  501  502  0.00000000000E+00  0.00000000000E+00  0.14236295733E+04  0.14236295733E+04  0.00000000000E+00 0.  1.
         21   -1    0    0  502  503 -0.00000000000E+00 -0.00000000000E+00 -0.17101205907E+03  0.17101205907E+03  0.00000000000E+00 0. -1.
          6    1    1    2  501    0 -0.29840495769E+03 -0.96878988958E+02  0.11745285154E+04  0.12279565508E+04  0.17300000000E+03 0.  1.
         -6    1    1    2    0  503  0.29840495769E+03  0.96878988958E+02  0.78088998841E+02  0.36668508153E+03  0.17300000000E+03 0. -1.
<mgrwt>
<rscale>  2 0.35827372E+03</rscale>
<asrwt>0</asrwt>
<pdfrwt beam="1">  1       21 0.21901993E+00 0.35827372E+03</pdfrwt>
<pdfrwt beam="2">  1       21 0.26309548E-01 0.35827372E+03</pdfrwt>
<totfact> 0.12236379E+03</totfact>
</mgrwt>
</event>
<event>
 4    1  0.4199481E+000  0.1734046E+03  0.7546771E-02  0.1174343E+00
         21   -1    0    0  501  502  0.00000000000E+00  0.00000000000E+00  0.86347202418E+03  0.86347202418E+03  0.00000000000E+00 0.  1.
         21   -1    0    0  502  503 -0.00000000000E+00 -0.00000000000E+00 -0.72882710996E+02  0.72882710996E+02  0.00000000000E+00 0.  1.
          6    1    1    2  501    0  0.11829724292E+02  0.44851473663E+00  0.73361481690E+03  0.75383011555E+03  0.17300000000E+03 0.  1.
         -6    1    1    2    0  503 -0.11829724292E+02 -0.44851473663E+00  0.56974496290E+02  0.18252461963E+03  0.17300000000E+03 0.  1.
<mgrwt>
<rscale>  2 0.17340457E+03</rscale>
<asrwt>0</asrwt>
<pdfrwt beam="1">  1       21 0.13284184E+00 0.17340457E+03</pdfrwt>
<pdfrwt beam="2">  1       21 0.11212725E-01 0.17340457E+03</pdfrwt>
<totfact> 0.27433580E+04</totfact>
</mgrwt>
</event>
<event>
 4    1  0.4199481E+000  0.1835216E+03  0.7546771E-02  0.1164438E+00
         21   -1    0    0  501  502  0.00000000000E+00  0.00000000000E+00  0.11214811280E+03  0.11214811280E+03  0.00000000000E+00 0.  1.
         21   -1    0    0  502  503 -0.00000000000E+00 -0.00000000000E+00 -0.41874673864E+03  0.41874673864E+03  0.00000000000E+00 0.  1.
          6    1    1    2  501    0 -0.55196877101E+02  0.26542015720E+02 -0.12133317882E+02  0.18392224238E+03  0.17300000000E+03 0.  1.
         -6    1    1    2    0  503  0.55196877101E+02 -0.26542015720E+02 -0.29446530797E+03  0.34697260906E+03  0.17300000000E+03 0.  1.
<mgrwt>
<rscale>  2 0.18352159E+03</rscale>
<asrwt>0</asrwt>
<pdfrwt beam="1">  1       21 0.17253556E-01 0.18352159E+03</pdfrwt>
<pdfrwt beam="2">  1       21 0.64422576E-01 0.18352159E+03</pdfrwt>
<totfact> 0.67729793E+04</totfact>
</mgrwt>
</event>
<event>
 4    1  0.4199481E+000  0.2163346E+03  0.7546771E-02  0.1136646E+00
         21   -1    0    0  503  502  0.00000000000E+00  0.00000000000E+00  0.10732539703E+03  0.10732539703E+03  0.00000000000E+00 0. -1.
         21   -1    0    0  501  503 -0.00000000000E+00 -0.00000000000E+00 -0.49652380046E+03  0.49652380046E+03  0.00000000000E+00 0. -1.
          6    1    1    2  501    0  0.13391938729E+02 -0.12919870458E+03 -0.29995657082E+03  0.36983049316E+03  0.17300000000E+03 0. -1.
         -6    1    1    2    0  502 -0.13391938729E+02  0.12919870458E+03 -0.89241832614E+02  0.23401870433E+03  0.17300000000E+03 0. -1.
<mgrwt>
<rscale>  2 0.21633458E+03</rscale>
<asrwt>0</asrwt>
<pdfrwt beam="1">  1       21 0.16511600E-01 0.21633458E+03</pdfrwt>
<pdfrwt beam="2">  1       21 0.76388276E-01 0.21633458E+03</pdfrwt>
<totfact> 0.49649927E+04</totfact>
</mgrwt>
</event>
<event>
 4    1  0.4199481E+000  0.1798870E+03  0.7546771E-02  0.1167912E+00
         21   -1    0    0  503  502  0.00000000000E+00  0.00000000000E+00  0.17416150042E+03  0.17416150042E+03  0.00000000000E+00 0.  1.
         21   -1    0    0  501  503 -0.00000000000E+00 -0.00000000000E+00 -0.20870164330E+03  0.20870164330E+03  0.00000000000E+00 0. -1.
          6    1    1    2  501    0 -0.48252636692E+02  0.10099754990E+02 -0.80682981115E+02  0.19715239141E+03  0.17300000000E+03 0. -1.
         -6    1    1    2    0  502  0.48252636692E+02 -0.10099754990E+02  0.46142838234E+02  0.18571075230E+03  0.17300000000E+03 0.  1.
<mgrwt>
<rscale>  2 0.17988697E+03</rscale>
<asrwt>0</asrwt>
<pdfrwt beam="1">  1       21 0.26794077E-01 0.17988697E+03</pdfrwt>
<pdfrwt beam="2">  1       21 0.32107945E-01 0.17988697E+03</pdfrwt>
<totfact> 0.12429823E+05</totfact>
</mgrwt>
</event>
<event>
 4    1  0.4199481E+000  0.2775275E+03  0.7546771E-02  0.1097047E+00
         21   -1    0    0  503  502  0.00000000000E+00  0.00000000000E+00  0.48801272098E+03  0.48801272098E+03  0.00000000000E+00 0.  1.
         21   -1    0    0  501  503 -0.00000000000E+00 -0.00000000000E+00 -0.16548920386E+03  0.16548920386E+03  0.00000000000E+00 0. -1.
          6    1    1    2  501    0  0.20793490966E+03  0.62093359693E+02  0.23157110474E+03  0.36145081066E+03  0.17300000000E+03 0.  1.
         -6    1    1    2    0  502 -0.20793490966E+03 -0.62093359693E+02  0.90952412377E+02  0.29205111418E+03  0.17300000000E+03 0. -1.
<mgrwt>
<rscale>  2 0.27752750E+03</rscale>
<asrwt>0</asrwt>
<pdfrwt beam="1">  1       21 0.75078879E-01 0.27752750E+03</pdfrwt>
<pdfrwt beam="2">  1       21 0.25459878E-01 0.27752750E+03</pdfrwt>
<totfact> 0.22220661E+04</totfact>
</mgrwt>
</event>
<event>
 4    1  0.4199481E+000  0.1751051E+03  0.7546771E-02  0.1172626E+00
         21   -1    0    0  503  502  0.00000000000E+00  0.00000000000E+00  0.27374839559E+03  0.27374839559E+03  0.00000000000E+00 0.  1.
         21   -1    0    0  501  503 -0.00000000000E+00 -0.00000000000E+00 -0.11338703100E+03  0.11338703100E+03  0.00000000000E+00 0.  1.
          6    1    1    2  501    0 -0.26824649168E+02  0.36397546505E+01  0.58827940719E+02  0.18472286330E+03  0.17300000000E+03 0. -1.
         -6    1    1    2    0  502  0.26824649168E+02 -0.36397546505E+01  0.10153342387E+03  0.20241256330E+03  0.17300000000E+03 0. -1.
<mgrwt>
<rscale>  2 0.17510514E+03</rscale>
<asrwt>0</asrwt>
<pdfrwt beam="1">  1       21 0.42115138E-01 0.17510514E+03</pdfrwt>
<pdfrwt beam="2">  1       21 0.17444159E-01 0.17510514E+03</pdfrwt>
<totfact> 0.16231513E+05</totfact>
</mgrwt>
</event>
<event>
 4    1  0.4199481E+000  0.1917418E+03  0.7546771E-02  0.1156900E+00
         21   -1    0    0  501  502  0.00000000000E+00  0.00000000000E+00  0.23451190051E+03  0.23451190051E+03  0.00000000000E+00 0.  1.
         21   -1    0    0  502  503 -0.00000000000E+00 -0.00000000000E+00 -0.18337955578E+03  0.18337955578E+03  0.00000000000E+00 0.  1.
          6    1    1    2  501    0  0.76761125511E+02 -0.30719094292E+02  0.10515632983E+03  0.21868421719E+03  0.17300000000E+03 0.  1.
         -6    1    1    2    0  503 -0.76761125511E+02  0.30719094292E+02 -0.54023985098E+02  0.19920723910E+03  0.17300000000E+03 0.  1.
<mgrwt>
<rscale>  2 0.19174184E+03</rscale>
<asrwt>0</asrwt>
<pdfrwt beam="1">  1       21 0.36078754E-01 0.19174184E+03</pdfrwt>
<pdfrwt beam="2">  1       21 0.28212239E-01 0.19174184E+03</pdfrwt>
<totfact> 0.88987377E+04</totfact>
</mgrwt>
</event>
<event>
 4    1  0.4199481E+000  0.1920247E+03  0.7546771E-02  0.1156648E+00
         21   -1    0    0  503  502  0.00000000000E+00  0.00000000000E+00  0.94194306898E+02  0.94194306898E+02  0.00000000000E+00 0.  1.
         21   -1    0    0  501  503 -0.00000000000E+00 -0.00000000000E+00 -0.40456970367E+03  0.40456970367E+03  0.00000000000E+00 0.  1.
          6    1    1    2  501    0 -0.71437171044E+02  0.42909493151E+02 -0.20007581118E+03  0.27731538765E+03  0.17300000000E+03 0. -1.
         -6    1    1    2    0  502  0.71437171044E+02 -0.42909493151E+02 -0.11029958559E+03  0.22144862292E+03  0.17300000000E+03 0. -1.
<mgrwt>
<rscale>  2 0.19202472E+03</rscale>
<asrwt>0</asrwt>
<pdfrwt beam="1">  1       21 0.14491432E-01 0.19202472E+03</pdfrwt>
<pdfrwt beam="2">  1       21 0.62241493E-01 0.19202472E+03</pdfrwt>
<totfact> 0.10003666E+05</totfact>
</mgrwt>
</event>
<event>
 4    1  0.4199481E+000  0.1848915E+03  0.7546771E-02  0.1163151E+00
         21   -1    0    0  503  502  0.00000000000E+00  0.00000000000E+00  0.28377724730E+03  0.28377724730E+03  0.00000000000E+00 0.  1.
         21   -1    0    0  501  503 -0.00000000000E+00 -0.00000000000E+00 -0.19746039733E+03  0.19746039733E+03  0.00000000000E+00 0.  1.
          6    1    1    2  501    0  0.22996886468E+01  0.65196386376E+02 -0.10709543590E+03  0.21366864476E+03  0.17300000000E+03 0.  1.
         -6    1    1    2    0  502 -0.22996886468E+01 -0.65196386376E+02  0.19341228587E+03  0.26756899987E+03  0.17300000000E+03 0.  1.
<mgrwt>
<rscale>  2 0.18489147E+03</rscale>
<asrwt>0</asrwt>
<pdfrwt beam="1">  1       21 0.43658038E-01 0.18489147E+03</pdfrwt>
<pdfrwt beam="2">  1       21 0.30378523E-01 0.18489147E+03</pdfrwt>
<totfact> 0.52617805E+04</totfact>
</mgrwt>
</event>
<event>
 4    1  0.4199481E+000  0.2054748E+03  0.7546771E-02  0.1145200E+00
         21   -1    0    0  501  502  0.00000000000E+00  0.00000000000E+00  0.48967359504E+03  0.48967359504E+03  0.00000000000E+00 0. -1.
         21   -1    0    0  502  503 -0.00000000000E+00 -0.00000000000E+00 -0.17067670535E+03  0.17067670535E+03  0.00000000000E+00 0. -1.
          6    1    1    2  501    0 -0.42100784884E+02 -0.10255930222E+03  0.39175775031E+03  0.44237316995E+03  0.17300000000E+03 0. -1.
         -6    1    1    2    0  503  0.42100784884E+02  0.10255930222E+03 -0.72760860613E+02  0.21797713045E+03  0.17300000000E+03 0. -1.
<mgrwt>
<rscale>  2 0.20547478E+03</rscale>
<asrwt>0</asrwt>
<pdfrwt beam="1">  1       21 0.75334399E-01 0.20547478E+03</pdfrwt>
<pdfrwt beam="2">  1       21 0.26257955E-01 0.20547478E+03</pdfrwt>
<totfact> 0.21540250E+04</totfact>
</mgrwt>
</event>
<event>
 4    1  0.4199481E+000  0.2187185E+03  0.7546771E-02  0.1134842E+00
         21   -1    0    0  501  502  0.00000000000E+00  0.00000000000E+00  0.65509537172E+02  0.65509537172E+02  0.00000000000E+00 0.  1.
         21   -1    0    0  502  503 -0.00000000000E+00 -0.00000000000E+00 -0.73031987714E+03  0.73031987714E+03  0.00000000000E+00 0. -1.
          6    1    1    2  501    0 -0.12983211977E+03  0.32440726475E+02 -0.33652841691E+03  0.40135913525E+03  0.17300000000E+03 0.  1.
         -6    1    1    2    0  503  0.12983211977E+03 -0.32440726475E+02 -0.32828192306E+03  0.39447027906E+03  0.17300000000E+03 0.  1.
<mgrwt>
<rscale>  2 0.21871850E+03</rscale>
<asrwt>0</asrwt>
<pdfrwt beam="1">  1       21 0.10078390E-01 0.21871850E+03</pdfrwt>
<pdfrwt beam="2">  1       21 0.11235691E+00 0.21871850E+03</pdfrwt>
<totfact> 0.48992366E+04</totfact>
</mgrwt>
</event>
<event>
 4    1  0.4199481E+000  0.2646988E+03  0.7546771E-02  0.1104353E+00
         21   -1    0    0  501  502  0.00000000000E+00  0.00000000000E+00  0.48514224258E+03  0.48514224258E+03  0.00000000000E+00 0. -1.
         21   -1    0    0  502  503 -0.00000000000E+00 -0.00000000000E+00 -0.15032376258E+03  0.15032376258E+03  0.00000000000E+00 0.  1.
          6    1    1    2  501    0  0.20033898196E+03 -0.86067321353E+00  0.23036297688E+03  0.35090247871E+03  0.17300000000E+03 0.  1.
         -6    1    1    2    0  503 -0.20033898196E+03  0.86067321353E+00  0.10445550313E+03  0.28456352645E+03  0.17300000000E+03 0. -1.
<mgrwt>
<rscale>  2 0.26469879E+03</rscale>
<asrwt>0</asrwt>
<pdfrwt beam="1">  1       21 0.74637268E-01 0.26469879E+03</pdfrwt>
<pdfrwt beam="2">  1       21 0.23126733E-01 0.26469879E+03</pdfrwt>
<totfact> 0.27228126E+04</totfact>
</mgrwt>
</event>
<event>
 4    1  0.4199481E+000  0.3335682E+03  0.7546771E-02  0.1069569E+00
         21   -1    0    0  503  502  0.00000000000E+00  0.00000000000E+00  0.12132764936E+03  0.12132764936E+03  0.00000000000E+00 0. -1.
         21   -1    0    0  501  503 -0.00000000000E+00 -0.00000000000E+00 -0.93083097138E+03  0.93083097138E+03  0.00000000000E+00 0.  1.
          6    1    1    2  501    0  0.23421086641E+03 -0.16273900772E+03 -0.46868249844E+03  0.57526602448E+03  0.17300000000E+03 0.  1.
         -6    1    1    2    0  502 -0.23421086641E+03  0.16273900772E+03 -0.34082082358E+03  0.47689259626E+03  0.17300000000E+03 0. -1.
<mgrwt>
<rscale>  2 0.33356816E+03</rscale>
<asrwt>0</asrwt>
<pdfrwt beam="1">  1       21 0.18665793E-01 0.33356816E+03</pdfrwt>
<pdfrwt beam="2">  1       21 0.14320476E+00 0.33356816E+03</pdfrwt>
<totfact> 0.81484295E+03</totfact>
</mgrwt>
</event>
<event>
 4    1  0.4199481E+000  0.2015052E+03  0.7546771E-02  0.1148475E+00
         21   -1    0    0  503  502  0.00000000000E+00  0.00000000000E+00  0.38595459547E+03  0.38595459547E+03  0.00000000000E+00 0.  1.
         21   -1    0    0  501  503 -0.00000000000E+00 -0.00000000000E+00 -0.17280451378E+03  0.17280451378E+03  0.00000000000E+00 0. -1.
          6    1    1    2  501    0  0.68012091188E+02  0.77779731312E+02 -0.68163638583E+02  0.21272191419E+03  0.17300000000E+03 0. -1.
         -6    1    1    2    0  502 -0.68012091188E+02 -0.77779731312E+02  0.28131372028E+03  0.34603719506E+03  0.17300000000E+03 0.  1.
<mgrwt>
<rscale>  2 0.20150516E+03</rscale>
<asrwt>0</asrwt>
<pdfrwt beam="1">  1       21 0.59377630E-01 0.20150516E+03</pdfrwt>
<pdfrwt beam="2">  1       21 0.26585310E-01 0.20150516E+03</pdfrwt>
<totfact> 0.35509613E+04</totfact>
</mgrwt>
</event>
<event>
 4    1  0.4199481E+000  0.2280421E+03  0.7546771E-02  0.1128025E+00
         21   -1    0    0  501  502  0.00000000000E+00  0.00000000000E+00  0.10014182361E+03  0.10014182361E+03  0.00000000000E+00 0.  1.
         21   -1    0    0  502  503 -0.00000000000E+00 -0.00000000000E+00 -0.71994013140E+03  0.71994013140E+03  0.00000000000E+00 0.  1.
          6    1    1    2  501    0 -0.91073636278E+02 -0.11738732868E+03 -0.93431551108E+02  0.24643994583E+03  0.17300000000E+03 0.  1.
         -6    1    1    2    0  503  0.91073636278E+02  0.11738732868E+03 -0.52636675668E+03  0.57364200918E+03  0.17300000000E+03 0.  1.
<mgrwt>
<rscale>  2 0.22804208E+03</rscale>
<asrwt>0</asrwt>
<pdfrwt beam="1">  1       21 0.15406435E-01 0.22804208E+03</pdfrwt>
<pdfrwt beam="2">  1       21 0.11076002E+00 0.22804208E+03</pdfrwt>
<totfact> 0.23508183E+04</totfact>
</mgrwt>
</event>
<event>
 4    1  0.4199481E+000  0.1798542E+03  0.7546771E-02  0.1167944E+00
         21   -1    0    0  501  502  0.00000000000E+00  0.00000000000E+00  0.11464562898E+04  0.11464562898E+04  0.00000000000E+00 0. -1.
         21   -1    0    0  502  503 -0.00000000000E+00 -0.00000000000E+00 -0.39897888217E+02  0.39897888217E+02  0.00000000000E+00 0. -1.
          6    1    1    2  501    0 -0.47605417383E+02  0.12339694187E+02  0.87426069284E+03  0.89256893451E+03  0.17300000000E+03 0.  1.
         -6    1    1    2    0  503  0.47605417383E+02 -0.12339694187E+02  0.23229770878E+03  0.29378524354E+03  0.17300000000E+03 0.  1.
<mgrwt>
<rscale>  2 0.17985423E+03</rscale>
<asrwt>0</asrwt>
<pdfrwt beam="1">  1       21 0.17637787E+00 0.17985423E+03</pdfrwt>
<pdfrwt beam="2">  1       21 0.61381375E-02 0.17985423E+03</pdfrwt>
<totfact> 0.36839194E+04</totfact>
</mgrwt>
</event>
<event>
 4    1  0.4199481E+000  0.2285607E+03  0.7546771E-02  0.1127657E+00
         21   -1    0    0  503  502  0.00000000000E+00  0.00000000000E+00  0.26829722804E+04  0.26829722804E+04  0.00000000000E+00 0. -1.
         21   -1    0    0  501  503 -0.00000000000E+00 -0.00000000000E+00 -0.23802577570E+02  0.23802577570E+02  0.00000000000E+00 0. -1.
          6    1    1    2  501    0  0.11289841954E+03 -0.97800422120E+02  0.75223838835E+03  0.78619499401E+03  0.17300000000E+03 0. -1.
         -6    1    1    2    0  502 -0.11289841954E+03  0.97800422120E+02  0.19069313145E+04  0.19205798639E+04  0.17300000000E+03 0. -1.
<mgrwt>
<rscale>  2 0.22856066E+03</rscale>
<asrwt>0</asrwt>
<pdfrwt beam="1">  1       21 0.41276473E+00 0.22856066E+03</pdfrwt>
<pdfrwt beam="2">  1       21 0.36619371E-02 0.22856066E+03</pdfrwt>
<totfact> 0.31386672E+03</totfact>
</mgrwt>
</event>
<event>
 4    1  0.4199481E+000  0.1920803E+03  0.7546771E-02  0.1156598E+00
         21   -1    0    0  501  502  0.00000000000E+00  0.00000000000E+00  0.75291704911E+03  0.75291704911E+03  0.00000000000E+00 0. -1.
         21   -1    0    0  502  503 -0.00000000000E+00 -0.00000000000E+00 -0.16427633600E+03  0.16427633600E+03  0.00000000000E+00 0. -1.
          6    1    1    2  501    0 -0.64699253468E+02  0.52724102407E+02  0.67847737353E+03  0.70514280169E+03  0.17300000000E+03 0. -1.
         -6    1    1    2    0  503  0.64699253468E+02 -0.52724102407E+02 -0.89836660419E+02  0.21205058342E+03  0.17300000000E+03 0. -1.
<mgrwt>
<rscale>  2 0.19208026E+03</rscale>
<asrwt>0</asrwt>
<pdfrwt beam="1">  1       21 0.11583339E+00 0.19208026E+03</pdfrwt>
<pdfrwt beam="2">  1       21 0.25273283E-01 0.19208026E+03</pdfrwt>
<totfact> 0.85495691E+03</totfact>
</mgrwt>
</event>
<event>
 4    1  0.4199481E+000  0.1969024E+03  0.7546771E-02  0.1152379E+00
         21   -1    0    0  503  502  0.00000000000E+00  0.00000000000E+00  0.42631438160E+02  0.42631438160E+02  0.00000000000E+00 0.  1.
         21   -1    0    0  501  503 -0.00000000000E+00 -0.00000000000E+00 -0.11942720011E+04  0.11942720011E+04  0.00000000000E+00 0. -1.
          6    1    1    2  501    0  0.82702088971E+02  0.44742945248E+02 -0.87785132207E+03  0.89966299820E+03  0.17300000000E+03 0.  1.
         -6    1    1    2    0  502 -0.82702088971E+02 -0.44742945248E+02 -0.27378924087E+03  0.33724044106E+03  0.17300000000E+03 0.  1.
<mgrwt>
<rscale>  2 0.19690243E+03</rscale>
<asrwt>0</asrwt>
<pdfrwt beam="1">  1       21 0.65586841E-02 0.19690243E+03</pdfrwt>
<pdfrwt beam="2">  1       21 0.18373412E+00 0.19690243E+03</pdfrwt>
<totfact> 0.28970385E+04</totfact>
</mgrwt>
</event>
<event>
 4    1  0.4199481E+000  0.1938572E+03  0.7546771E-02  0.1155028E+00
         21   -1    0    0  501  502  0.00000000000E+00  0.00000000000E+00  0.22208485215E+04  0.22208485215E+04  0.00000000000E+00 0.  1.
         21   -1    0    0  502  503 -0.00000000000E+00 -0.00000000000E+00 -0.76628947453E+02  0.76628947453E+02  0.00000000000E+00 0.  1.
          6    1    1    2  501    0 -0.42668854985E+02  0.76360834368E+02  0.20861104438E+04  0.20950984206E+04  0.17300000000E+03 0.  1.
         -6    1    1    2    0  503  0.42668854985E+02 -0.76360834368E+02  0.58109130286E+02  0.20237904841E+03  0.17300000000E+03 0.  1.
<mgrwt>
<rscale>  2 0.19385719E+03</rscale>
<asrwt>0</asrwt>
<pdfrwt beam="1">  1       21 0.34166895E+00 0.19385719E+03</pdfrwt>
<pdfrwt beam="2">  1       21 0.11789071E-01 0.19385719E+03</pdfrwt>
<totfact> 0.11836536E+03</totfact>
</mgrwt>
</event>
<event>
 4    1  0.4199481E+000  0.1784539E+03  0.7546771E-02  0.1169308E+00
         21   -1    0    0  503  502  0.00000000000E+00  0.00000000000E+00  0.32464676399E+03  0.32464676399E+03  0.00000000000E+00 0.  1.
         21   -1    0    0  501  503 -0.00000000000E+00 -0.00000000000E+00 -0.10910651772E+03  0.10910651772E+03  0.00000000000E+00 0.  1.
          6    1    1    2  501    0  0.39082967677E+02 -0.19730764171E+02  0.38867156233E+02  0.18263744756E+03  0.17300000000E+03 0.  1.
         -6    1    1    2    0  502 -0.39082967677E+02  0.19730764171E+02  0.17667309003E+03  0.25111583415E+03  0.17300000000E+03 0.  1.
<mgrwt>
<rscale>  2 0.17845386E+03</rscale>
<asrwt>0</asrwt>
<pdfrwt beam="1">  1       21 0.49945656E-01 0.17845386E+03</pdfrwt>
<pdfrwt beam="2">  1       21 0.16785618E-01 0.17845386E+03</pdfrwt>
<totfact> 0.12256946E+05</totfact>
</mgrwt>
</event>
<event>
 4    1  0.4199481E+000  0.2128200E+03  0.7546771E-02  0.1139352E+00
         21   -1    0    0  503  502  0.00000000000E+00  0.00000000000E+00  0.37874795001E+03  0.37874795001E+03  0.00000000000E+00 0.  1.
         21   -1    0    0  501  503 -0.00000000000E+00 -0.00000000000E+00 -0.13352829521E+03  0.13352829521E+03  0.00000000000E+00 0.  1.
          6    1    1    2  501    0  0.37482806930E+02  0.11814570884E+03  0.39838736294E+02  0.21651672971E+03  0.17300000000E+03 0.  1.
         -6    1    1    2    0  502 -0.37482806930E+02 -0.11814570884E+03  0.20538091850E+03  0.29575951551E+03  0.17300000000E+03 0.  1.
<mgrwt>
<rscale>  2 0.21282004E+03</rscale>
<asrwt>0</asrwt>
<pdfrwt beam="1">  1       21 0.58268915E-01 0.21282004E+03</pdfrwt>
<pdfrwt beam="2">  1       21 0.20542815E-01 0.21282004E+03</pdfrwt>
<totfact> 0.60011281E+04</totfact>
</mgrwt>
</event>
<event>
 4    1  0.4199481E+000  0.4160877E+03  0.7546771E-02  0.1038347E+00
         21   -1    0    0  503  502  0.00000000000E+00  0.00000000000E+00  0.31653368069E+03  0.31653368069E+03  0.00000000000E+00 0.  1.
         21   -1    0    0  501  503 -0.00000000000E+00 -0.00000000000E+00 -0.69459890631E+03  0.69459890631E+03  0.00000000000E+00 0. -1.
          6    1    1    2  501    0  0.22032700663E+03 -0.30766212675E+03 -0.42212178757E+03  0.59271897019E+03  0.17300000000E+03 0.  1.
         -6    1    1    2    0  502 -0.22032700663E+03  0.30766212675E+03  0.44056561948E+02  0.41841361682E+03  0.17300000000E+03 0. -1.
<mgrwt>
<rscale>  2 0.41608770E+03</rscale>
<asrwt>0</asrwt>
<pdfrwt beam="1">  1       21 0.48697490E-01 0.41608770E+03</pdfrwt>
<pdfrwt beam="2">  1       21 0.10686137E+00 0.41608770E+03</pdfrwt>
<totfact> 0.24715817E+03</totfact>
</mgrwt>
</event>
<event>
 4    1  0.4199481E+000  0.2613248E+03  0.7546771E-02  0.1106350E+00
         21   -1    0    0  503  502  0.00000000000E+00  0.00000000000E+00  0.61488535389E+02  0.61488535389E+02  0.00000000000E+00 0. -1.
         21   -1    0    0  501  503 -0.00000000000E+00 -0.00000000000E+00 -0.11117621785E+04  0.11117621785E+04  0.00000000000E+00 0. -1.
          6    1    1    2  501    0 -0.98793906930E+02 -0.16911949848E+03 -0.50636669258E+03  0.56982266379E+03  0.17300000000E+03 0. -1.
         -6    1    1    2    0  502  0.98793906930E+02  0.16911949848E+03 -0.54390695056E+03  0.60342805013E+03  0.17300000000E+03 0. -1.
<mgrwt>
<rscale>  2 0.26132478E+03</rscale>
<asrwt>0</asrwt>
<pdfrwt beam="1">  1       21 0.94597754E-02 0.26132478E+03</pdfrwt>
<pdfrwt beam="2">  1       21 0.17104032E+00 0.26132478E+03</pdfrwt>
<totfact> 0.17976513E+04</totfact>
</mgrwt>
</event>
<event>
 4    1  0.4199481E+000  0.2177043E+03  0.7546771E-02  0.1135606E+00
         21   -1    0    0  501  502  0.00000000000E+00  0.00000000000E+00  0.38433914913E+03  0.38433914913E+03  0.00000000000E+00 0. -1.
         21   -1    0    0  502  503 -0.00000000000E+00 -0.00000000000E+00 -0.21970416256E+03  0.21970416256E+03  0.00000000000E+00 0. -1.
          6    1    1    2  501    0  0.13062028725E+03  0.20112622012E+02  0.28236388894E+03  0.35654528854E+03  0.17300000000E+03 0. -1.
         -6    1    1    2    0  503 -0.13062028725E+03 -0.20112622012E+02 -0.11772890237E+03  0.24749802314E+03  0.17300000000E+03 0. -1.
<mgrwt>
<rscale>  2 0.21770433E+03</rscale>
<asrwt>0</asrwt>
<pdfrwt beam="1">  1       21 0.59129100E-01 0.21770433E+03</pdfrwt>
<pdfrwt beam="2">  1       21 0.33800640E-01 0.21770433E+03</pdfrwt>
<totfact> 0.22223374E+04</totfact>
</mgrwt>
</event>
<event>
 4    1  0.4199481E+000  0.1949088E+03  0.7546771E-02  0.1154107E+00
         21   -1    0    0  503  502  0.00000000000E+00  0.00000000000E+00  0.41747174176E+03  0.41747174176E+03  0.00000000000E+00 0.  1.
         21   -1    0    0  501  503 -0.00000000000E+00 -0.00000000000E+00 -0.17489330553E+03  0.17489330553E+03  0.00000000000E+00 0.  1.
          6    1    1    2  501    0 -0.83284344633E+02 -0.33528330638E+02 -0.83845691288E+02  0.21217806429E+03  0.17300000000E+03 0.  1.
         -6    1    1    2    0  502  0.83284344633E+02  0.33528330638E+02  0.32642412752E+03  0.38018698300E+03  0.17300000000E+03 0.  1.
<mgrwt>
<rscale>  2 0.19490878E+03</rscale>
<asrwt>0</asrwt>
<pdfrwt beam="1">  1       21 0.64226422E-01 0.19490878E+03</pdfrwt>
<pdfrwt beam="2">  1       21 0.26906662E-01 0.19490878E+03</pdfrwt>
<totfact> 0.29395376E+04</totfact>
</mgrwt>
</event>
<event>
 4    1  0.4199481E+000  0.3389466E+03  0.7546771E-02  0.1067245E+00
         21   -1    0    0  501  502  0.00000000000E+00  0.00000000000E+00  0.40245958959E+03  0.40245958959E+03  0.00000000000E+00 0.  1.
         21   -1    0    0  502  503 -0.00000000000E+00 -0.00000000000E+00 -0.21527832639E+04  0.21527832639E+04  0.00000000000E+00 0. -1.
          6    1    1    2  501    0 -0.29116716165E+03 -0.13321090280E+02  0.31474285079E+03  0.46254494873E+03  0.17300000000E+03 0.  1.
         -6    1    1    2    0  503  0.29116716165E+03  0.13321090280E+02 -0.20650665251E+04  0.20926979047E+04  0.17300000000E+03 0. -1.
<mgrwt>
<rscale>  2 0.33894656E+03</rscale>
<asrwt>0</asrwt>
<pdfrwt beam="1">  1       21 0.61916861E-01 0.33894656E+03</pdfrwt>
<pdfrwt beam="2">  1       21 0.33119742E+00 0.33894656E+03</pdfrwt>
<totfact> 0.44989449E+01</totfact>
</mgrwt>
</event>
<event>
 4    1  0.4199481E+000  0.2807889E+03  0.7546771E-02  0.1095259E+00
         21   -1    0    0  501  502  0.00000000000E+00  0.00000000000E+00  0.70293771745E+03  0.70293771745E+03  0.00000000000E+00 0.  1.
         21   -1    0    0  502  503 -0.00000000000E+00 -0.00000000000E+00 -0.11940754557E+03  0.11940754557E+03  0.00000000000E+00 0. -1.
          6    1    1    2  501    0  0.19439824807E+03 -0.10546442567E+03  0.39305452525E+03  0.48304687531E+03  0.17300000000E+03 0. -1.
         -6    1    1    2    0  503 -0.19439824807E+03  0.10546442567E+03  0.19047564664E+03  0.33929838770E+03  0.17300000000E+03 0. -1.
<mgrwt>
<rscale>  2 0.28078893E+03</rscale>
<asrwt>0</asrwt>
<pdfrwt beam="1">  1       21 0.10814426E+00 0.28078893E+03</pdfrwt>
<pdfrwt beam="2">  1       21 0.18370392E-01 0.28078893E+03</pdfrwt>
<totfact> 0.17531264E+04</totfact>
</mgrwt>
</event>
<event>
 4    1  0.4199481E+000  0.2299599E+03  0.7546771E-02  0.1126668E+00
         21   -1    0    0  501  502  0.00000000000E+00  0.00000000000E+00  0.19207209852E+03  0.19207209852E+03  0.00000000000E+00 0.  1.
         21   -1    0    0  502  503 -0.00000000000E+00 -0.00000000000E+00 -0.28104837506E+03  0.28104837506E+03  0.00000000000E+00 0. -1.
          6    1    1    2  501    0  0.10276525629E+03 -0.11131869767E+03 -0.10719342513E+02  0.23020958854E+03  0.17300000000E+03 0. -1.
         -6    1    1    2    0  503 -0.10276525629E+03  0.11131869767E+03 -0.78256934031E+02  0.24291088505E+03  0.17300000000E+03 0.  1.
<mgrwt>
<rscale>  2 0.22995989E+03</rscale>
<asrwt>0</asrwt>
<pdfrwt beam="1">  1       21 0.29549554E-01 0.22995989E+03</pdfrwt>
<pdfrwt beam="2">  1       21 0.43238211E-01 0.22995989E+03</pdfrwt>
<totfact> 0.55495067E+04</totfact>
</mgrwt>
</event>
<event>
 4    1  0.4199481E+000  0.1838432E+03  0.7546771E-02  0.1164135E+00
         21   -1    0    0  503  502  0.00000000000E+00  0.00000000000E+00  0.22105849767E+03  0.22105849767E+03  0.00000000000E+00 0.  1.
         21   -1    0    0  501  503 -0.00000000000E+00 -0.00000000000E+00 -0.18528799170E+03  0.18528799170E+03  0.00000000000E+00 0.  1.
          6    1    1    2  501    0  0.52438566723E+02 -0.33458987403E+02 -0.67068291886E+02  0.19569482082E+03  0.17300000000E+03 0. -1.
         -6    1    1    2    0  502 -0.52438566723E+02  0.33458987403E+02  0.10283879786E+03  0.21065166855E+03  0.17300000000E+03 0. -1.
<mgrwt>
<rscale>  2 0.18384316E+03</rscale>
<asrwt>0</asrwt>
<pdfrwt beam="1">  1       21 0.34009000E-01 0.18384316E+03</pdfrwt>
<pdfrwt beam="2">  1       21 0.28505845E-01 0.18384316E+03</pdfrwt>
<totfact> 0.98359293E+04</totfact>
</mgrwt>
</event>
<event>
 4    1  0.4199481E+000  0.1943660E+03  0.7546771E-02  0.1154581E+00
         21   -1    0    0  503  502  0.00000000000E+00  0.00000000000E+00  0.90489055853E+03  0.90489055853E+03  0.00000000000E+00 0.  1.
         21   -1    0    0  501  503 -0.00000000000E+00 -0.00000000000E+00 -0.54461900649E+02  0.54461900649E+02  0.00000000000E+00 0.  1.
          6    1    1    2  501    0  0.71540444286E+02 -0.52259970326E+02  0.19346061678E+03  0.27423557375E+03  0.17300000000E+03 0.  1.
         -6    1    1    2    0  502 -0.71540444286E+02  0.52259970326E+02  0.65696804110E+03  0.68511688542E+03  0.17300000000E+03 0.  1.
<mgrwt>
<rscale>  2 0.19436599E+03</rscale>
<asrwt>0</asrwt>
<pdfrwt beam="1">  1       21 0.13921392E+00 0.19436599E+03</pdfrwt>
<pdfrwt beam="2">  1       21 0.83787546E-02 0.19436599E+03</pdfrwt>
<totfact> 0.40155541E+04</totfact>
</mgrwt>
</event>
<event>
 4    1  0.4199481E+000  0.1816307E+03  0.7546771E-02  0.1166234E+00
         21   -1    0    0  503  502  0.00000000000E+00  0.00000000000E+00  0.12541986268E+04  0.12541986268E+04  0.00000000000E+00 0.  1.
         21   -1    0    0  501  503 -0.00000000000E+00 -0.00000000000E+00 -0.54173730512E+02  0.54173730512E+02  0.00000000000E+00 0. -1.
          6    1    1    2  501    0 -0.51109800308E+02  0.21177435288E+02  0.13079083634E+03  0.22382121955E+03  0.17300000000E+03 0. -1.
         -6    1    1    2    0  502  0.51109800308E+02 -0.21177435288E+02  0.10692340599E+04  0.10845511377E+04  0.17300000000E+03 0.  1.
<mgrwt>
<rscale>  2 0.18163066E+03</rscale>
<asrwt>0</asrwt>
<pdfrwt beam="1">  1       21 0.19295361E+00 0.18163066E+03</pdfrwt>
<pdfrwt beam="2">  1       21 0.83344210E-02 0.18163066E+03</pdfrwt>
<totfact> 0.16809633E+04</totfact>
</mgrwt>
</event>
<event>
 4    1  0.4199481E+000  0.2209174E+03  0.7546771E-02  0.1133201E+00
         21   -1    0    0  503  502  0.00000000000E+00  0.00000000000E+00  0.46265340856E+03  0.46265340856E+03  0.00000000000E+00 0.  1.
         21   -1    0    0  501  503 -0.00000000000E+00 -0.00000000000E+00 -0.39487442492E+03  0.39487442492E+03  0.00000000000E+00 0. -1.
          6    1    1    2  501    0  0.15578248625E+02 -0.13650214737E+03 -0.33316249918E+03  0.39975213436E+03  0.17300000000E+03 0. -1.
         -6    1    1    2    0  502 -0.15578248625E+02  0.13650214737E+03  0.40094148281E+03  0.45777569912E+03  0.17300000000E+03 0.  1.
<mgrwt>
<rscale>  2 0.22091745E+03</rscale>
<asrwt>0</asrwt>
<pdfrwt beam="1">  1       21 0.71177447E-01 0.22091745E+03</pdfrwt>
<pdfrwt beam="2">  1       21 0.60749912E-01 0.22091745E+03</pdfrwt>
<totfact> 0.44091585E+03</totfact>
</mgrwt>
</event>
<event>
 4    1  0.4199481E+000  0.2625654E+03  0.7546771E-02  0.1105612E+00
         21   -1    0    0  503  502  0.00000000000E+00  0.00000000000E+00  0.94212150864E+02  0.94212150864E+02  0.00000000000E+00 0.  1.
         21   -1    0    0  501  503 -0.00000000000E+00 -0.00000000000E+00 -0.99198451632E+03  0.99198451632E+03  0.00000000000E+00 0. -1.
          6    1    1    2  501    0 -0.18193842046E+03  0.76876436916E+02 -0.72705028734E+03  0.77300885875E+03  0.17300000000E+03 0. -1.
         -6    1    1    2    0  502  0.18193842046E+03 -0.76876436916E+02 -0.17072207812E+03  0.31318780843E+03  0.17300000000E+03 0.  1.
<mgrwt>
<rscale>  2 0.26256537E+03</rscale>
<asrwt>0</asrwt>
<pdfrwt beam="1">  1       21 0.14494177E-01 0.26256537E+03</pdfrwt>
<pdfrwt beam="2">  1       21 0.15261300E+00 0.26256537E+03</pdfrwt>
<totfact> 0.11390353E+04</totfact>
</mgrwt>
</event>
<event>
 4    1  0.4199481E+000  0.2281868E+03  0.7546771E-02  0.1127922E+00
         21   -1    0    0  503  502  0.00000000000E+00  0.00000000000E+00  0.34898411639E+03  0.34898411639E+03  0.00000000000E+00 0.  1.
         21   -1    0    0  501  503 -0.00000000000E+00 -0.00000000000E+00 -0.29340295624E+03  0.29340295624E+03  0.00000000000E+00 0. -1.
          6    1    1    2  501    0  0.88555149888E+01 -0.14853219995E+03 -0.19738337973E+03  0.30171084363E+03  0.17300000000E+03 0. -1.
         -6    1    1    2    0  502 -0.88555149888E+01  0.14853219995E+03  0.25296453989E+03  0.34067622900E+03  0.17300000000E+03 0.  1.
<mgrwt>
<rscale>  2 0.22818684E+03</rscale>
<asrwt>0</asrwt>
<pdfrwt beam="1">  1       21 0.53689864E-01 0.22818684E+03</pdfrwt>
<pdfrwt beam="2">  1       21 0.45138916E-01 0.22818684E+03</pdfrwt>
<totfact> 0.15125567E+04</totfact>
</mgrwt>
</event>
<event>
 4    1  0.4199481E+000  0.2037919E+03  0.7546771E-02  0.1146579E+00
         21   -1    0    0  503  502  0.00000000000E+00  0.00000000000E+00  0.82849612481E+02  0.82849612481E+02  0.00000000000E+00 0. -1.
         21   -1    0    0  501  503 -0.00000000000E+00 -0.00000000000E+00 -0.10893849606E+04  0.10893849606E+04  0.00000000000E+00 0.  1.
          6    1    1    2  501    0  0.48616503524E+02 -0.96117555674E+02 -0.93391320880E+03  0.95588965393E+03  0.17300000000E+03 0.  1.
         -6    1    1    2    0  502 -0.48616503524E+02  0.96117555674E+02 -0.72622139323E+02  0.21634491915E+03  0.17300000000E+03 0. -1.
<mgrwt>
<rscale>  2 0.20379193E+03</rscale>
<asrwt>0</asrwt>
<pdfrwt beam="1">  1       21 0.12746094E-01 0.20379193E+03</pdfrwt>
<pdfrwt beam="2">  1       21 0.16759769E+00 0.20379193E+03</pdfrwt>
<totfact> 0.11586920E+04</totfact>
</mgrwt>
</event>
<event>
 4    1  0.4199481E+000  0.2077038E+03  0.7546771E-02  0.1143397E+00
         21   -1    0    0  501  502  0.00000000000E+00  0.00000000000E+00  0.17209572099E+03  0.17209572099E+03  0.00000000000E+00 0. -1.
         21   -1    0    0  502  503 -0.00000000000E+00 -0.00000000000E+00 -0.30547751304E+03  0.30547751304E+03  0.00000000000E+00 0. -1.
          6    1    1    2  501    0  0.55156776480E+02  0.10084453029E+03  0.34444296367E+02  0.21054049215E+03  0.17300000000E+03 0. -1.
         -6    1    1    2    0  503 -0.55156776480E+02 -0.10084453029E+03 -0.16782608842E+03  0.26703274188E+03  0.17300000000E+03 0. -1.
<mgrwt>
<rscale>  2 0.20770385E+03</rscale>
<asrwt>0</asrwt>
<pdfrwt beam="1">  1       21 0.26476265E-01 0.20770385E+03</pdfrwt>
<pdfrwt beam="2">  1       21 0.46996539E-01 0.20770385E+03</pdfrwt>
<totfact> 0.58394859E+04</totfact>
</mgrwt>
</event>
<event>
 4    1  0.4199481E+000  0.1765594E+03  0.7546771E-02  0.1171175E+00
         21   -1    0    0  503  502  0.00000000000E+00  0.00000000000E+00  0.12443302225E+03  0.12443302225E+03  0.00000000000E+00 0.  1.
         21   -1    0    0  501  503 -0.00000000000E+00 -0.00000000000E+00 -0.40846424952E+03  0.40846424952E+03  0.00000000000E+00 0.  1.
          6    1    1    2  501    0 -0.16161199850E+02  0.31353227478E+02 -0.30770154712E+03  0.35475829991E+03  0.17300000000E+03 0.  1.
         -6    1    1    2    0  502  0.16161199850E+02 -0.31353227478E+02  0.23670319849E+02  0.17813897186E+03  0.17300000000E+03 0.  1.
<mgrwt>
<rscale>  2 0.17655936E+03</rscale>
<asrwt>0</asrwt>
<pdfrwt beam="1">  1       21 0.19143542E-01 0.17655936E+03</pdfrwt>
<pdfrwt beam="2">  1       21 0.62840653E-01 0.17655936E+03</pdfrwt>
<totfact> 0.59171412E+04</totfact>
</mgrwt>
</event>
<event>
 4    1  0.4199481E+000  0.1786517E+03  0.7546771E-02  0.1169114E+00
         21   -1    0    0  503  502  0.00000000000E+00  0.00000000000E+00  0.63966325837E+02  0.63966325837E+02  0.00000000000E+00 0.  1.
         21   -1    0    0  501  503 -0.00000000000E+00 -0.00000000000E+00 -0.94506161514E+03  0.94506161514E+03  0.00000000000E+00 0.  1.
          6    1    1    2  501    0 -0.44402844072E+02  0.39778638238E+01 -0.78717399106E+03  0.80719224982E+03  0.17300000000E+03 0.  1.
         -6    1    1    2    0  502  0.44402844072E+02 -0.39778638238E+01 -0.93921298240E+02  0.20183569116E+03  0.17300000000E+03 0.  1.
<mgrwt>
<rscale>  2 0.17865172E+03</rscale>
<asrwt>0</asrwt>
<pdfrwt beam="1">  1       21 0.98409735E-02 0.17865172E+03</pdfrwt>
<pdfrwt beam="2">  1       21 0.14539409E+00 0.17865172E+03</pdfrwt>
<totfact> 0.27316917E+04</totfact>
</mgrwt>
</event>
<event>
 4    1  0.4199481E+000  0.1940508E+03  0.7546771E-02  0.1154858E+00
         21   -1    0    0  501  502  0.00000000000E+00  0.00000000000E+00  0.83208226306E+02  0.83208226306E+02  0.00000000000E+00 0.  1.
         21   -1    0    0  502  503 -0.00000000000E+00 -0.00000000000E+00 -0.93617293146E+03  0.93617293146E+03  0.00000000000E+00 0.  1.
          6    1    1    2  501    0 -0.74554426591E+02 -0.46565459655E+02 -0.60143508470E+02  0.20315744182E+03  0.17300000000E+03 0.  1.
         -6    1    1    2    0  503  0.74554426591E+02  0.46565459655E+02 -0.79282119669E+03  0.81622371595E+03  0.17300000000E+03 0.  1.
<mgrwt>
<rscale>  2 0.19405078E+03</rscale>
<asrwt>0</asrwt>
<pdfrwt beam="1">  1       21 0.12801266E-01 0.19405078E+03</pdfrwt>
<pdfrwt beam="2">  1       21 0.14402660E+00 0.19405078E+03</pdfrwt>
<totfact> 0.17357847E+04</totfact>
</mgrwt>
</event>
<event>
 4    1  0.4199481E+000  0.2105856E+03  0.7546771E-02  0.1141103E+00
         21   -1    0    0  503  502  0.00000000000E+00  0.00000000000E+00  0.54410725095E+02  0.54410725095E+02  0.00000000000E+00 0. -1.
         21   -1    0    0  501  503 -0.00000000000E+00 -0.00000000000E+00 -0.10091079934E+04  0.10091079934E+04  0.00000000000E+00 0. -1.
          6    1    1    2  501    0 -0.36800081331E+02 -0.11429375615E+03 -0.71055252617E+03  0.74110134335E+03  0.17300000000E+03 0. -1.
         -6    1    1    2    0  502  0.36800081331E+02  0.11429375615E+03 -0.24414474215E+03  0.32241737515E+03  0.17300000000E+03 0. -1.
<mgrwt>
<rscale>  2 0.21058563E+03</rscale>
<asrwt>0</asrwt>
<pdfrwt beam="1">  1       21 0.83708809E-02 0.21058563E+03</pdfrwt>
<pdfrwt beam="2">  1       21 0.15524738E+00 0.21058563E+03</pdfrwt>
<totfact> 0.29924478E+04</totfact>
</mgrwt>
</event>
<event>
 4    1  0.4199481E+000  0.2427854E+03  0.7546771E-02  0.1117951E+00
         21   -1    0    0  503  502  0.00000000000E+00  0.00000000000E+00  0.42470375762E+03  0.42470375762E+03  0.00000000000E+00 0. -1.
         21   -1    0    0  501  503 -0.00000000000E+00 -0.00000000000E+00 -0.16776791944E+03  0.16776791944E+03  0.00000000000E+00 0. -1.
          6    1    1    2  501    0  0.17033680102E+03 -0.10546194603E+01  0.53518010680E+01  0.24284435299E+03  0.17300000000E+03 0. -1.
         -6    1    1    2    0  502 -0.17033680102E+03  0.10546194603E+01  0.25158403711E+03  0.34962732407E+03  0.17300000000E+03 0. -1.
<mgrwt>
<rscale>  2 0.24278537E+03</rscale>
<asrwt>0</asrwt>
<pdfrwt beam="1">  1       21 0.65339039E-01 0.24278537E+03</pdfrwt>
<pdfrwt beam="2">  1       21 0.25810449E-01 0.24278537E+03</pdfrwt>
<totfact> 0.29930439E+04</totfact>
</mgrwt>
</event>
<event>
 4    1  0.4199481E+000  0.1948878E+03  0.7546771E-02  0.1154125E+00
         21   -1    0    0  501  502  0.00000000000E+00  0.00000000000E+00  0.47758026387E+03  0.47758026387E+03  0.00000000000E+00 0. -1.
         21   -1    0    0  502  503 -0.00000000000E+00 -0.00000000000E+00 -0.84653006656E+02  0.84653006656E+02  0.00000000000E+00 0. -1.
          6    1    1    2  501    0  0.77839285258E+02  0.44646349332E+02  0.26562930049E+03  0.32945436120E+03  0.17300000000E+03 0. -1.
         -6    1    1    2    0  503 -0.77839285258E+02 -0.44646349332E+02  0.12729795672E+03  0.23277890932E+03  0.17300000000E+03 0. -1.
<mgrwt>
<rscale>  2 0.19488779E+03</rscale>
<asrwt>0</asrwt>
<pdfrwt beam="1">  1       21 0.73473885E-01 0.19488779E+03</pdfrwt>
<pdfrwt beam="2">  1       21 0.13023540E-01 0.19488779E+03</pdfrwt>
<totfact> 0.84252756E+04</totfact>
</mgrwt>
</event>
<event>
 4    1  0.4199481E+000  0.2036618E+03  0.7546771E-02  0.1146686E+00
         21   -1    0    0  501  502  0.00000000000E+00  0.00000000000E+00  0.47050506320E+03  0.47050506320E+03  0.00000000000E+00 0.  1.
         21   -1    0    0  502  503 -0.00000000000E+00 -0.00000000000E+00 -0.19142214071E+03  0.19142214071E+03  0.00000000000E+00 0. -1.
          6    1    1    2  501    0 -0.91122035567E+01 -0.10707988394E+03  0.38262851494E+03  0.43345439696E+03  0.17300000000E+03 0.  1.
         -6    1    1    2    0  503  0.91122035567E+01  0.10707988394E+03 -0.10354559245E+03  0.22847280695E+03  0.17300000000E+03 0. -1.
<mgrwt>
<rscale>  2 0.20366181E+03</rscale>
<asrwt>0</asrwt>
<pdfrwt beam="1">  1       21 0.72385394E-01 0.20366181E+03</pdfrwt>
<pdfrwt beam="2">  1       21 0.29449560E-01 0.20366181E+03</pdfrwt>
<totfact> 0.18879971E+04</totfact>
</mgrwt>
</event>
<event>
 4    1  0.4199481E+000  0.2226524E+03  0.7546771E-02  0.1131921E+00
         21   -1    0    0  503  502  0.00000000000E+00  0.00000000000E+00  0.13560137791E+03  0.13560137791E+03  0.00000000000E+00 0.  1.
         21   -1    0    0  501  503 -0.00000000000E+00 -0.00000000000E+00 -0.36693600035E+03  0.36693600035E+03  0.00000000000E+00 0. -1.
          6    1    1    2  501    0 -0.10972744505E+02  0.13973085398E+03 -0.13090206072E+03  0.25828174960E+03  0.17300000000E+03 0. -1.
         -6    1    1    2    0  502  0.10972744505E+02 -0.13973085398E+03 -0.10043256173E+03  0.24425562866E+03  0.17300000000E+03 0.  1.
<mgrwt>
<rscale>  2 0.22265245E+03</rscale>
<asrwt>0</asrwt>
<pdfrwt beam="1">  1       21 0.20861751E-01 0.22265245E+03</pdfrwt>
<pdfrwt beam="2">  1       21 0.56451692E-01 0.22265245E+03</pdfrwt>
<totfact> 0.62117903E+04</totfact>
</mgrwt>
</event>
<event>
 4    1  0.4199481E+000  0.2222117E+03  0.7546771E-02  0.1132245E+00
         21   -1    0    0  503  502  0.00000000000E+00  0.00000000000E+00  0.53082558406E+03  0.53082558406E+03  0.00000000000E+00 0.  1.
         21   -1    0    0  501  503 -0.00000000000E+00 -0.00000000000E+00 -0.96453470690E+02  0.96453470690E+02  0.00000000000E+00 0.  1.
          6    1    1    2  501    0  0.64612677454E+02  0.12358895508E+03  0.15802128231E+03  0.27266967849E+03  0.17300000000E+03 0.  1.
         -6    1    1    2    0  502 -0.64612677454E+02 -0.12358895508E+03  0.27635083106E+03  0.35460937626E+03  0.17300000000E+03 0.  1.
<mgrwt>
<rscale>  2 0.22221167E+03</rscale>
<asrwt>0</asrwt>
<pdfrwt beam="1">  1       21 0.81665473E-01 0.22221167E+03</pdfrwt>
<pdfrwt beam="2">  1       21 0.14838996E-01 0.22221167E+03</pdfrwt>
<totfact> 0.51774526E+04</totfact>
</mgrwt>
</event>
<event>
 4    1  0.4199481E+000  0.1881528E+03  0.7546771E-02  0.1160138E+00
         21   -1    0    0  501  502  0.00000000000E+00  0.00000000000E+00  0.30012072689E+02  0.30012072689E+02  0.00000000000E+00 0. -1.
         21   -1    0    0  502  503 -0.00000000000E+00 -0.00000000000E+00 -0.21980007613E+04  0.21980007613E+04  0.00000000000E+00 0. -1.
          6    1    1    2  501    0  0.92560280242E+01 -0.73394721596E+02 -0.32569848465E+03  0.37613955139E+03  0.17300000000E+03 0. -1.
         -6    1    1    2    0  503 -0.92560280242E+01  0.73394721596E+02 -0.18422902040E+04  0.18518732826E+04  0.17300000000E+03 0. -1.
<mgrwt>
<rscale>  2 0.18815275E+03</rscale>
<asrwt>0</asrwt>
<pdfrwt beam="1">  1       21 0.46172447E-02 0.18815275E+03</pdfrwt>
<pdfrwt beam="2">  1       21 0.33815376E+00 0.18815275E+03</pdfrwt>
<totfact> 0.63530053E+03</totfact>
</mgrwt>
</event>
<event>
 4    1  0.4199481E+000  0.1978170E+03  0.7546771E-02  0.1151594E+00
         21   -1    0    0  501  502  0.00000000000E+00  0.00000000000E+00  0.39972726221E+03  0.39972726221E+03  0.00000000000E+00 0. -1.
         21   -1    0    0  502  503 -0.00000000000E+00 -0.00000000000E+00 -0.11518079096E+03  0.11518079096E+03  0.00000000000E+00 0. -1.
          6    1    1    2  501    0  0.95877682629E+02  0.31692076634E+01  0.24200779908E+03  0.31256895034E+03  0.17300000000E+03 0. -1.
         -6    1    1    2    0  503 -0.95877682629E+02 -0.31692076634E+01  0.42538672168E+02  0.20233910283E+03  0.17300000000E+03 0. -1.
<mgrwt>
<rscale>  2 0.19781702E+03</rscale>
<asrwt>0</asrwt>
<pdfrwt beam="1">  1       21 0.61496501E-01 0.19781702E+03</pdfrwt>
<pdfrwt beam="2">  1       21 0.17720122E-01 0.19781702E+03</pdfrwt>
<totfact> 0.70856806E+04</totfact>
</mgrwt>
</event>
<event>
 4    1  0.4199481E+000  0.1980460E+03  0.7546771E-02  0.1151398E+00
         21   -1    0    0  501  502  0.00000000000E+00  0.00000000000E+00  0.27532709962E+03  0.27532709962E+03  0.00000000000E+00 0.  1.
         21   -1    0    0  502  503 -0.00000000000E+00 -0.00000000000E+00 -0.15902536750E+03  0.15902536750E+03  0.00000000000E+00 0.  1.
          6    1    1    2  501    0 -0.56742090909E+02 -0.77932889430E+02  0.12825157391E+03  0.23594632090E+03  0.17300000000E+03 0.  1.
         -6    1    1    2    0  503  0.56742090909E+02  0.77932889430E+02 -0.11949841794E+02  0.19840614621E+03  0.17300000000E+03 0.  1.
<mgrwt>
<rscale>  2 0.19804595E+03</rscale>
<asrwt>0</asrwt>
<pdfrwt beam="1">  1       21 0.42358015E-01 0.19804595E+03</pdfrwt>
<pdfrwt beam="2">  1       21 0.24465441E-01 0.19804595E+03</pdfrwt>
<totfact> 0.84454735E+04</totfact>
</mgrwt>
</event>
<event>
 4    1  0.4199481E+000  0.1796809E+03  0.7546771E-02  0.1168112E+00
         21   -1    0    0  503  502  0.00000000000E+00  0.00000000000E+00  0.66729264656E+02  0.66729264656E+02  0.00000000000E+00 0. -1.
         21   -1    0    0  501  503 -0.00000000000E+00 -0.00000000000E+00 -0.66454667790E+03  0.66454667790E+03  0.00000000000E+00 0. -1.
          6    1    1    2  501    0  0.31540584105E+02 -0.36897204371E+02 -0.48958425696E+03  0.52151505903E+03  0.17300000000E+03 0. -1.
         -6    1    1    2    0  502 -0.31540584105E+02  0.36897204371E+02 -0.10823315628E+03  0.20976088352E+03  0.17300000000E+03 0. -1.
<mgrwt>
<rscale>  2 0.17968086E+03</rscale>
<asrwt>0</asrwt>
<pdfrwt beam="1">  1       21 0.10266040E-01 0.17968086E+03</pdfrwt>
<pdfrwt beam="2">  1       21 0.10223796E+00 0.17968086E+03</pdfrwt>
<totfact> 0.60701981E+04</totfact>
</mgrwt>
</event>
<event>
 4    1  0.4199481E+000  0.1935949E+03  0.7546771E-02  0.1155258E+00
         21   -1    0    0  501  502  0.00000000000E+00  0.00000000000E+00  0.14388817827E+03  0.14388817827E+03  0.00000000000E+00 0.  1.
         21   -1    0    0  502  503 -0.00000000000E+00 -0.00000000000E+00 -0.26941758257E+03  0.26941758257E+03  0.00000000000E+00 0.  1.
          6    1    1    2  501    0 -0.69442199356E+02  0.52227950814E+02 -0.25110815573E+02  0.19521662572E+03  0.17300000000E+03 0.  1.
         -6    1    1    2    0  503  0.69442199356E+02 -0.52227950814E+02 -0.10041858873E+03  0.21808913513E+03  0.17300000000E+03 0.  1.
<mgrwt>
<rscale>  2 0.19359488E+03</rscale>
<asrwt>0</asrwt>
<pdfrwt beam="1">  1       21 0.22136643E-01 0.19359488E+03</pdfrwt>
<pdfrwt beam="2">  1       21 0.41448858E-01 0.19359488E+03</pdfrwt>
<totfact> 0.10690030E+05</totfact>
</mgrwt>
</event>
<event>
 4    1  0.4199481E+000  0.1940025E+03  0.7546771E-02  0.1154900E+00
         21   -1    0    0  503  502  0.00000000000E+00  0.00000000000E+00  0.81462427064E+02  0.81462427064E+02  0.00000000000E+00 0.  1.
         21   -1    0    0  501  503 -0.00000000000E+00 -0.00000000000E+00 -0.47425001834E+03  0.47425001834E+03  0.00000000000E+00 0.  1.
          6    1    1    2  501    0  0.41571575668E+02 -0.77329099419E+02 -0.24102022290E+03  0.30939898734E+03  0.17300000000E+03 0. -1.
         -6    1    1    2    0  502 -0.41571575668E+02  0.77329099419E+02 -0.15176736838E+03  0.24631345807E+03  0.17300000000E+03 0. -1.
<mgrwt>
<rscale>  2 0.19400254E+03</rscale>
<asrwt>0</asrwt>
<pdfrwt beam="1">  1       21 0.12532681E-01 0.19400254E+03</pdfrwt>
<pdfrwt beam="2">  1       21 0.72961540E-01 0.19400254E+03</pdfrwt>
<totfact> 0.91729764E+04</totfact>
</mgrwt>
</event>
<event>
 4    1  0.4199481E+000  0.1928026E+03  0.7546771E-02  0.1155958E+00
         21   -1    0    0  503  502  0.00000000000E+00  0.00000000000E+00  0.11844610902E+03  0.11844610902E+03  0.00000000000E+00 0. -1.
         21   -1    0    0  501  503 -0.00000000000E+00 -0.00000000000E+00 -0.31788701616E+03  0.31788701616E+03  0.00000000000E+00 0. -1.
          6    1    1    2  501    0  0.84630600307E+02  0.90281175517E+01 -0.12434377975E+03  0.22942149197E+03  0.17300000000E+03 0. -1.
         -6    1    1    2    0  502 -0.84630600307E+02 -0.90281175517E+01 -0.75097127398E+02  0.20691163321E+03  0.17300000000E+03 0. -1.
<mgrwt>
<rscale>  2 0.19280261E+03</rscale>
<asrwt>0</asrwt>
<pdfrwt beam="1">  1       21 0.18222478E-01 0.19280261E+03</pdfrwt>
<pdfrwt beam="2">  1       21 0.48905695E-01 0.19280261E+03</pdfrwt>
<totfact> 0.10950807E+05</totfact>
</mgrwt>
</event>
<event>
 4    1  0.4199481E+000  0.2024170E+03  0.7546771E-02  0.1147716E+00
         21   -1    0    0  501  502  0.00000000000E+00  0.00000000000E+00  0.65176999712E+03  0.65176999712E+03  0.00000000000E+00 0. -1.
         21   -1    0    0  502  503 -0.00000000000E+00 -0.00000000000E+00 -0.30269820440E+03  0.30269820440E+03  0.00000000000E+00 0.  1.
          6    1    1    2  501    0 -0.10455364895E+03  0.10591910141E+02  0.59933383967E+03  0.63259284334E+03  0.17300000000E+03 0. -1.
         -6    1    1    2    0  503  0.10455364895E+03 -0.10591910141E+02 -0.25026204694E+03  0.32187535819E+03  0.17300000000E+03 0.  1.
<mgrwt>
<rscale>  2 0.20241703E+03</rscale>
<asrwt>0</asrwt>
<pdfrwt beam="1">  1       21 0.10027231E+00 0.20241703E+03</pdfrwt>
<pdfrwt beam="2">  1       21 0.46568955E-01 0.20241703E+03</pdfrwt>
<totfact> 0.35727506E+03</totfact>
</mgrwt>
</event>
<event>
 4    1  0.4199481E+000  0.1880869E+03  0.7546771E-02  0.1160198E+00
         21   -1    0    0  501  502  0.00000000000E+00  0.00000000000E+00  0.37429578342E+03  0.37429578342E+03  0.00000000000E+00 0. -1.
         21   -1    0    0  502  503 -0.00000000000E+00 -0.00000000000E+00 -0.25480164312E+03  0.25480164312E+03  0.00000000000E+00 0.  1.
          6    1    1    2  501    0  0.73484085972E+02 -0.69103818103E+01  0.30922671195E+03  0.36193621489E+03  0.17300000000E+03 0. -1.
         -6    1    1    2    0  503 -0.73484085972E+02  0.69103818103E+01 -0.18973257164E+03  0.26716121165E+03  0.17300000000E+03 0.  1.
<mgrwt>
<rscale>  2 0.18808685E+03</rscale>
<asrwt>0</asrwt>
<pdfrwt beam="1">  1       21 0.57583967E-01 0.18808685E+03</pdfrwt>
<pdfrwt beam="2">  1       21 0.39200253E-01 0.18808685E+03</pdfrwt>
<totfact> 0.17801375E+04</totfact>
</mgrwt>
</event>
<event>
 4    1  0.4199481E+000  0.1911167E+03  0.7546771E-02  0.1157458E+00
         21   -1    0    0  503  502  0.00000000000E+00  0.00000000000E+00  0.66757357227E+03  0.66757357227E+03  0.00000000000E+00 0. -1.
         21   -1    0    0  501  503 -0.00000000000E+00 -0.00000000000E+00 -0.15277765818E+03  0.15277765818E+03  0.00000000000E+00 0. -1.
          6    1    1    2  501    0  0.80823889526E+02 -0.80057509378E+01 -0.71222086851E+02  0.20395631596E+03  0.17300000000E+03 0. -1.
         -6    1    1    2    0  502 -0.80823889526E+02  0.80057509378E+01  0.58601800094E+03  0.61639491448E+03  0.17300000000E+03 0. -1.
<mgrwt>
<rscale>  2 0.19111670E+03</rscale>
<asrwt>0</asrwt>
<pdfrwt beam="1">  1       21 0.10270363E+00 0.19111670E+03</pdfrwt>
<pdfrwt beam="2">  1       21 0.23504255E-01 0.19111670E+03</pdfrwt>
<totfact> 0.13136258E+04</totfact>
</mgrwt>
</event>
<event>
 4    1  0.4199481E+000  0.1926564E+03  0.7546771E-02  0.1156087E+00
         21   -1    0    0  501  502  0.00000000000E+00  0.00000000000E+00  0.11414457752E+03  0.11414457752E+03  0.00000000000E+00 0.  1.
         21   -1    0    0  502  503 -0.00000000000E+00 -0.00000000000E+00 -0.43741769245E+03  0.43741769245E+03  0.00000000000E+00 0.  1.
          6    1    1    2  501    0  0.83429784509E+02 -0.15064872568E+02 -0.30133887715E+03  0.35766128979E+03  0.17300000000E+03 0.  1.
         -6    1    1    2    0  503 -0.83429784509E+02  0.15064872568E+02 -0.21934237784E+02  0.19390098018E+03  0.17300000000E+03 0.  1.
<mgrwt>
<rscale>  2 0.19265638E+03</rscale>
<asrwt>0</asrwt>
<pdfrwt beam="1">  1       21 0.17560704E-01 0.19265638E+03</pdfrwt>
<pdfrwt beam="2">  1       21 0.67295029E-01 0.19265638E+03</pdfrwt>
<totfact> 0.59379185E+04</totfact>
</mgrwt>
</event>
<event>
 4    1  0.4199481E+000  0.1749424E+03  0.7546771E-02  0.1172790E+00
         21   -1    0    0  501  502  0.00000000000E+00  0.00000000000E+00  0.16042277539E+03  0.16042277539E+03  0.00000000000E+00 0.  1.
         21   -1    0    0  502  503 -0.00000000000E+00 -0.00000000000E+00 -0.31368856790E+03  0.31368856790E+03  0.00000000000E+00 0.  1.
          6    1    1    2  501    0  0.16037759806E+02  0.20460155196E+02  0.71755183683E+02  0.18908631382E+03  0.17300000000E+03 0.  1.
         -6    1    1    2    0  503 -0.16037759806E+02 -0.20460155196E+02 -0.22502097619E+03  0.28502502946E+03  0.17300000000E+03 0.  1.
<mgrwt>
<rscale>  2 0.17494236E+03</rscale>
<asrwt>0</asrwt>
<pdfrwt beam="1">  1       21 0.24680428E-01 0.17494236E+03</pdfrwt>
<pdfrwt beam="2">  1       21 0.48259779E-01 0.17494236E+03</pdfrwt>
<totfact> 0.64172447E+04</totfact>
</mgrwt>
</event>
<event>
 4    1  0.4199481E+000  0.2024698E+03  0.7546771E-02  0.1147672E+00
         21   -1    0    0  503  502  0.00000000000E+00  0.00000000000E+00  0.46072771083E+03  0.46072771083E+03  0.00000000000E+00 0. -1.
         21   -1    0    0  501  503 -0.00000000000E+00 -0.00000000000E+00 -0.89558338848E+02  0.89558338848E+02  0.00000000000E+00 0. -1.
          6    1    1    2  501    0 -0.95976325853E+01 -0.10475155183E+03  0.16341008512E+03  0.26018619887E+03  0.17300000000E+03 0. -1.
         -6    1    1    2    0  502  0.95976325853E+01  0.10475155183E+03  0.20775928686E+03  0.29009985081E+03  0.17300000000E+03 0. -1.
<mgrwt>
<rscale>  2 0.20246976E+03</rscale>
<asrwt>0</asrwt>
<pdfrwt beam="1">  1       21 0.70881185E-01 0.20246976E+03</pdfrwt>
<pdfrwt beam="2">  1       21 0.13778206E-01 0.20246976E+03</pdfrwt>
<totfact> 0.82141250E+04</totfact>
</mgrwt>
</event>
<event>
 4    1  0.4199481E+000  0.1814101E+03  0.7546771E-02  0.1166445E+00
         21   -1    0    0  503  502  0.00000000000E+00  0.00000000000E+00  0.43838441896E+03  0.43838441896E+03  0.00000000000E+00 0. -1.
         21   -1    0    0  501  503 -0.00000000000E+00 -0.00000000000E+00 -0.10715335380E+03  0.10715335380E+03  0.00000000000E+00 0.  1.
          6    1    1    2  501    0  0.64710285851E+01 -0.54210168238E+02  0.16360044099E+02  0.18214628076E+03  0.17300000000E+03 0.  1.
         -6    1    1    2    0  502 -0.64710285851E+01  0.54210168238E+02  0.31487102107E+03  0.36339149200E+03  0.17300000000E+03 0. -1.
<mgrwt>
<rscale>  2 0.18141008E+03</rscale>
<asrwt>0</asrwt>
<pdfrwt beam="1">  1       21 0.67443756E-01 0.18141008E+03</pdfrwt>
<pdfrwt beam="2">  1       21 0.16485132E-01 0.18141008E+03</pdfrwt>
<totfact> 0.66704293E+04</totfact>
</mgrwt>
</event>
<event>
 4    1  0.4199481E+000  0.2318264E+03  0.7546771E-02  0.1125361E+00
         21   -1    0    0  501  502  0.00000000000E+00  0.00000000000E+00  0.85983470980E+03  0.85983470980E+03  0.00000000000E+00 0.  1.
         21   -1    0    0  502  503 -0.00000000000E+00 -0.00000000000E+00 -0.62508314485E+02  0.62508314485E+02  0.00000000000E+00 0.  1.
          6    1    1    2  501    0 -0.14321236699E+03  0.57486512518E+02  0.40229716909E+03  0.46431292620E+03  0.17300000000E+03 0.  1.
         -6    1    1    2    0  503  0.14321236699E+03 -0.57486512518E+02  0.39502922622E+03  0.45803009808E+03  0.17300000000E+03 0.  1.
<mgrwt>
<rscale>  2 0.23182640E+03</rscale>
<asrwt>0</asrwt>
<pdfrwt beam="1">  1       21 0.13228226E+00 0.23182640E+03</pdfrwt>
<pdfrwt beam="2">  1       21 0.96166643E-02 0.23182640E+03</pdfrwt>
<totfact> 0.35188261E+04</totfact>
</mgrwt>
</event>
<event>
 4    1  0.4199481E+000  0.2109109E+03  0.7546771E-02  0.1140847E+00
         21   -1    0    0  501  502  0.00000000000E+00  0.00000000000E+00  0.66584761759E+03  0.66584761759E+03  0.00000000000E+00 0.  1.
         21   -1    0    0  502  503 -0.00000000000E+00 -0.00000000000E+00 -0.15824228565E+03  0.15824228565E+03  0.00000000000E+00 0.  1.
          6    1    1    2  501    0  0.69016004661E+02  0.98950447580E+02  0.56701569199E+03  0.60497123480E+03  0.17300000000E+03 0.  1.
         -6    1    1    2    0  503 -0.69016004661E+02 -0.98950447580E+02 -0.59410360045E+02  0.21911866843E+03  0.17300000000E+03 0.  1.
<mgrwt>
<rscale>  2 0.21091088E+03</rscale>
<asrwt>0</asrwt>
<pdfrwt beam="1">  1       21 0.10243809E+00 0.21091088E+03</pdfrwt>
<pdfrwt beam="2">  1       21 0.24344967E-01 0.21091088E+03</pdfrwt>
<totfact> 0.12199712E+04</totfact>
</mgrwt>
</event>
<event>
 4    1  0.4199481E+000  0.1748046E+03  0.7546771E-02  0.1172928E+00
         21   -1    0    0  503  502  0.00000000000E+00  0.00000000000E+00  0.24176033377E+03  0.24176033377E+03  0.00000000000E+00 0. -1.
         21   -1    0    0  501  503 -0.00000000000E+00 -0.00000000000E+00 -0.13322517734E+03  0.13322517734E+03  0.00000000000E+00 0.  1.
          6    1    1    2  501    0 -0.17796906076E+02 -0.17633301690E+02  0.11806530040E+02  0.17520290336E+03  0.17300000000E+03 0.  1.
         -6    1    1    2    0  502  0.17796906076E+02  0.17633301690E+02  0.96728626393E+02  0.19978260775E+03  0.17300000000E+03 0. -1.
<mgrwt>
<rscale>  2 0.17480464E+03</rscale>
<asrwt>0</asrwt>
<pdfrwt beam="1">  1       21 0.37193897E-01 0.17480464E+03</pdfrwt>
<pdfrwt beam="2">  1       21 0.20496181E-01 0.17480464E+03</pdfrwt>
<totfact> 0.15460061E+05</totfact>
</mgrwt>
</event>
<event>
 4    1  0.4199481E+000  0.2332902E+03  0.7546771E-02  0.1124345E+00
         21   -1    0    0  503  502  0.00000000000E+00  0.00000000000E+00  0.66782889538E+03  0.66782889538E+03  0.00000000000E+00 0.  1.
         21   -1    0    0  501  503 -0.00000000000E+00 -0.00000000000E+00 -0.84380672128E+02  0.84380672128E+02  0.00000000000E+00 0.  1.
          6    1    1    2  501    0  0.15583803936E+03  0.14484926503E+02  0.22216454743E+03  0.32215119702E+03  0.17300000000E+03 0.  1.
         -6    1    1    2    0  502 -0.15583803936E+03 -0.14484926503E+02  0.36128367582E+03  0.43005837048E+03  0.17300000000E+03 0.  1.
<mgrwt>
<rscale>  2 0.23329018E+03</rscale>
<asrwt>0</asrwt>
<pdfrwt beam="1">  1       21 0.10274290E+00 0.23329018E+03</pdfrwt>
<pdfrwt beam="2">  1       21 0.12981642E-01 0.23329018E+03</pdfrwt>
<totfact> 0.38408109E+04</totfact>
</mgrwt>
</event>
<event>
 4    1  0.4199481E+000  0.1788455E+03  0.7546771E-02  0.1168925E+00
         21   -1    0    0  501  502  0.00000000000E+00  0.00000000000E+00  0.14520578790E+03  0.14520578790E+03  0.00000000000E+00 0.  1.
         21   -1    0    0  502  503 -0.00000000000E+00 -0.00000000000E+00 -0.31460660993E+03  0.31460660993E+03  0.00000000000E+00 0.  1.
          6    1    1    2  501    0 -0.45297388447E+02 -0.22059842834E+01  0.41188425890E+02  0.18352712659E+03  0.17300000000E+03 0.  1.
         -6    1    1    2    0  503  0.45297388447E+02  0.22059842834E+01 -0.21058924792E+03  0.27628527125E+03  0.17300000000E+03 0.  1.
<mgrwt>
<rscale>  2 0.17884552E+03</rscale>
<asrwt>0</asrwt>
<pdfrwt beam="1">  1       21 0.22339352E-01 0.17884552E+03</pdfrwt>
<pdfrwt beam="2">  1       21 0.48401017E-01 0.17884552E+03</pdfrwt>
<totfact> 0.76896566E+04</totfact>
</mgrwt>
</event>
<event>
 4    1  0.4199481E+000  0.1968501E+03  0.7546771E-02  0.1152424E+00
         21   -1    0    0  501  502  0.00000000000E+00  0.00000000000E+00  0.11750788555E+04  0.11750788555E+04  0.00000000000E+00 0. -1.
         21   -1    0    0  502  503 -0.00000000000E+00 -0.00000000000E+00 -0.63387761111E+02  0.63387761111E+02  0.00000000000E+00 0. -1.
          6    1    1    2  501    0 -0.61057722951E+02  0.71364764553E+02  0.98475823645E+03  0.10042403893E+04  0.17300000000E+03 0. -1.
         -6    1    1    2    0  503  0.61057722951E+02 -0.71364764553E+02  0.12693285791E+03  0.23422622733E+03  0.17300000000E+03 0. -1.
<mgrwt>
<rscale>  2 0.19685013E+03</rscale>
<asrwt>0</asrwt>
<pdfrwt beam="1">  1       21 0.18078135E+00 0.19685013E+03</pdfrwt>
<pdfrwt beam="2">  1       21 0.97519641E-02 0.19685013E+03</pdfrwt>
<totfact> 0.15198577E+04</totfact>
</mgrwt>
</event>
<event>
 4    1  0.4199481E+000  0.2094050E+03  0.7546771E-02  0.1142038E+00
         21   -1    0    0  503  502  0.00000000000E+00  0.00000000000E+00  0.16931715462E+03  0.16931715462E+03  0.00000000000E+00 0. -1.
         21   -1    0    0  501  503 -0.00000000000E+00 -0.00000000000E+00 -0.26005180992E+03  0.26005180992E+03  0.00000000000E+00 0. -1.
          6    1    1    2  501    0  0.11182128397E+03 -0.37648891026E+02 -0.59123962097E+02  0.21759154726E+03  0.17300000000E+03 0. -1.
         -6    1    1    2    0  502 -0.11182128397E+03  0.37648891026E+02 -0.31610693212E+02  0.21177741728E+03  0.17300000000E+03 0. -1.
<mgrwt>
<rscale>  2 0.20940496E+03</rscale>
<asrwt>0</asrwt>
<pdfrwt beam="1">  1       21 0.26048793E-01 0.20940496E+03</pdfrwt>
<pdfrwt beam="2">  1       21 0.40007971E-01 0.20940496E+03</pdfrwt>
<totfact> 0.83711356E+04</totfact>
</mgrwt>
</event>
<event>
 4    1  0.4199481E+000  0.1912669E+03  0.7546771E-02  0.1157324E+00
         21   -1    0    0  501  502  0.00000000000E+00  0.00000000000E+00  0.61171235781E+03  0.61171235781E+03  0.00000000000E+00 0.  1.
         21   -1    0    0  502  503 -0.00000000000E+00 -0.00000000000E+00 -0.61254588020E+02  0.61254588020E+02  0.00000000000E+00 0.  1.
          6    1    1    2  501    0  0.25051141793E+02 -0.77630307187E+02  0.32700420525E+03  0.37883343906E+03  0.17300000000E+03 0.  1.
         -6    1    1    2    0  503 -0.25051141793E+02  0.77630307187E+02  0.22345356455E+03  0.29413350677E+03  0.17300000000E+03 0.  1.
<mgrwt>
<rscale>  2 0.19126689E+03</rscale>
<asrwt>0</asrwt>
<pdfrwt beam="1">  1       21 0.94109590E-01 0.19126689E+03</pdfrwt>
<pdfrwt beam="2">  1       21 0.94237832E-02 0.19126689E+03</pdfrwt>
<totfact> 0.85372069E+04</totfact>
</mgrwt>
</event>
<event>
 4    1  0.4199481E+000  0.2435479E+03  0.7546771E-02  0.1117452E+00
         21   -1    0    0  501  502  0.00000000000E+00  0.00000000000E+00  0.61449630318E+03  0.61449630318E+03  0.00000000000E+00 0.  1.
         21   -1    0    0  502  503 -0.00000000000E+00 -0.00000000000E+00 -0.35833356476E+03  0.35833356476E+03  0.00000000000E+00 0. -1.
          6    1    1    2  501    0  0.17041848645E+03  0.18549824909E+02  0.54385153659E+03  0.59589432820E+03  0.17300000000E+03 0.  1.
         -6    1    1    2    0  503 -0.17041848645E+03 -0.18549824909E+02 -0.28768879817E+03  0.37693553974E+03  0.17300000000E+03 0. -1.
<mgrwt>
<rscale>  2 0.24354785E+03</rscale>
<asrwt>0</asrwt>
<pdfrwt beam="1">  1       21 0.94537893E-01 0.24354785E+03</pdfrwt>
<pdfrwt beam="2">  1       21 0.55128241E-01 0.24354785E+03</pdfrwt>
<totfact> 0.27940098E+03</totfact>
</mgrwt>
</event>
<event>
 4    1  0.4199481E+000  0.2123294E+03  0.7546771E-02  0.1139735E+00
         21   -1    0    0  503  502  0.00000000000E+00  0.00000000000E+00  0.13537340626E+03  0.13537340626E+03  0.00000000000E+00 0.  1.
         21   -1    0    0  501  503 -0.00000000000E+00 -0.00000000000E+00 -0.33325801931E+03  0.33325801931E+03  0.00000000000E+00 0.  1.
          6    1    1    2  501    0 -0.92704757004E+02  0.80997423155E+02 -0.92847954971E+02  0.23174230790E+03  0.17300000000E+03 0.  1.
         -6    1    1    2    0  502  0.92704757004E+02 -0.80997423155E+02 -0.10503665808E+03  0.23688911767E+03  0.17300000000E+03 0.  1.
<mgrwt>
<rscale>  2 0.21232935E+03</rscale>
<asrwt>0</asrwt>
<pdfrwt beam="1">  1       21 0.20826678E-01 0.21232935E+03</pdfrwt>
<pdfrwt beam="2">  1       21 0.51270464E-01 0.21232935E+03</pdfrwt>
<totfact> 0.76717427E+04</totfact>
</mgrwt>
</event>
<event>
 4    1  0.4199481E+000  0.2101918E+03  0.7546771E-02  0.1141414E+00
         21   -1    0    0  501  502  0.00000000000E+00  0.00000000000E+00  0.34314297208E+03  0.34314297208E+03  0.00000000000E+00 0. -1.
         21   -1    0    0  502  503 -0.00000000000E+00 -0.00000000000E+00 -0.12886293332E+03  0.12886293332E+03  0.00000000000E+00 0. -1.
          6    1    1    2  501    0  0.10369579029E+03 -0.59150432860E+02  0.10023805647E+03  0.23286961716E+03  0.17300000000E+03 0. -1.
         -6    1    1    2    0  503 -0.10369579029E+03  0.59150432860E+02  0.11404198229E+03  0.23913628824E+03  0.17300000000E+03 0. -1.
<mgrwt>
<rscale>  2 0.21019179E+03</rscale>
<asrwt>0</asrwt>
<pdfrwt beam="1">  1       21 0.52791226E-01 0.21019179E+03</pdfrwt>
<pdfrwt beam="2">  1       21 0.19825067E-01 0.21019179E+03</pdfrwt>
<totfact> 0.79199496E+04</totfact>
</mgrwt>
</event>
<event>
 4    1  0.4199481E+000  0.3045194E+03  0.7546771E-02  0.1083003E+00
         21   -1    0    0  501  502  0.00000000000E+00  0.00000000000E+00  0.13267712426E+03  0.13267712426E+03  0.00000000000E+00 0. -1.
         21   -1    0    0  502  503 -0.00000000000E+00 -0.00000000000E+00 -0.69934098463E+03  0.69934098463E+03  0.00000000000E+00 0. -1.
          6    1    1    2  501    0  0.13203412229E+03  0.21300249218E+03 -0.29341231679E+03  0.42287451894E+03  0.17300000000E+03 0. -1.
         -6    1    1    2    0  503 -0.13203412229E+03 -0.21300249218E+03 -0.27325154358E+03  0.40914358995E+03  0.17300000000E+03 0. -1.
<mgrwt>
<rscale>  2 0.30451941E+03</rscale>
<asrwt>0</asrwt>
<pdfrwt beam="1">  1       21 0.20411865E-01 0.30451941E+03</pdfrwt>
<pdfrwt beam="2">  1       21 0.10759092E+00 0.30451941E+03</pdfrwt>
<totfact> 0.14409877E+04</totfact>
</mgrwt>
</event>
<event>
 4    1  0.4199481E+000  0.2415448E+03  0.7546771E-02  0.1118768E+00
         21   -1    0    0  503  502  0.00000000000E+00  0.00000000000E+00  0.13331695933E+03  0.13331695933E+03  0.00000000000E+00 0.  1.
         21   -1    0    0  501  503 -0.00000000000E+00 -0.00000000000E+00 -0.48355713324E+03  0.48355713324E+03  0.00000000000E+00 0. -1.
          6    1    1    2  501    0 -0.16261548337E+03  0.44396781511E+02 -0.27017273710E+03  0.36240471508E+03  0.17300000000E+03 0. -1.
         -6    1    1    2    0  502  0.16261548337E+03 -0.44396781511E+02 -0.80067436805E+02  0.25446937748E+03  0.17300000000E+03 0.  1.
<mgrwt>
<rscale>  2 0.24154476E+03</rscale>
<asrwt>0</asrwt>
<pdfrwt beam="1">  1       21 0.20510302E-01 0.24154476E+03</pdfrwt>
<pdfrwt beam="2">  1       21 0.74393405E-01 0.24154476E+03</pdfrwt>
<totfact> 0.34789955E+04</totfact>
</mgrwt>
</event>
<event>
 4    1  0.4199481E+000  0.2076997E+03  0.7546771E-02  0.1143401E+00
         21   -1    0    0  503  502  0.00000000000E+00  0.00000000000E+00  0.13192408713E+04  0.13192408713E+04  0.00000000000E+00 0. -1.
         21   -1    0    0  501  503 -0.00000000000E+00 -0.00000000000E+00 -0.35373576849E+02  0.35373576849E+02  0.00000000000E+00 0.  1.
          6    1    1    2  501    0  0.75339937522E+02  0.86798847138E+02  0.45572732188E+03  0.50082585592E+03  0.17300000000E+03 0.  1.
         -6    1    1    2    0  502 -0.75339937522E+02 -0.86798847138E+02  0.82813997255E+03  0.85378859221E+03  0.17300000000E+03 0. -1.
<mgrwt>
<rscale>  2 0.20769965E+03</rscale>
<asrwt>0</asrwt>
<pdfrwt beam="1">  1       21 0.20296010E+00 0.20769965E+03</pdfrwt>
<pdfrwt beam="2">  1       21 0.54420898E-02 0.20769965E+03</pdfrwt>
<totfact> 0.29621866E+04</totfact>
</mgrwt>
</event>
<event>
 4    1  0.4199481E+000  0.2752808E+03  0.7546771E-02  0.1098295E+00
         21   -1    0    0  501  502  0.00000000000E+00  0.00000000000E+00  0.59845970684E+03  0.59845970684E+03  0.00000000000E+00 0. -1.
         21   -1    0    0  502  503 -0.00000000000E+00 -0.00000000000E+00 -0.29156050490E+03  0.29156050490E+03  0.00000000000E+00 0. -1.
          6    1    1    2  501    0  0.14179619711E+02  0.21365735824E+03  0.48815564467E+03  0.56042435865E+03  0.17300000000E+03 0. -1.
         -6    1    1    2    0  503 -0.14179619711E+02 -0.21365735824E+03 -0.18125644273E+03  0.32959585310E+03  0.17300000000E+03 0. -1.
<mgrwt>
<rscale>  2 0.27528082E+03</rscale>
<asrwt>0</asrwt>
<pdfrwt beam="1">  1       21 0.92070724E-01 0.27528082E+03</pdfrwt>
<pdfrwt beam="2">  1       21 0.44855462E-01 0.27528082E+03</pdfrwt>
<totfact> 0.44926756E+03</totfact>
</mgrwt>
</event>
<event>
 4    1  0.4199481E+000  0.1944649E+03  0.7546771E-02  0.1154495E+00
         21   -1    0    0  501  502  0.00000000000E+00  0.00000000000E+00  0.40828421743E+02  0.40828421743E+02  0.00000000000E+00 0.  1.
         21   -1    0    0  502  503 -0.00000000000E+00 -0.00000000000E+00 -0.96525896287E+03  0.96525896287E+03  0.00000000000E+00 0. -1.
          6    1    1    2  501    0  0.84086749002E+02  0.28583166821E+02 -0.36106482698E+03  0.41010289936E+03  0.17300000000E+03 0.  1.
         -6    1    1    2    0  503 -0.84086749002E+02 -0.28583166821E+02 -0.56336571415E+03  0.59598448525E+03  0.17300000000E+03 0. -1.
<mgrwt>
<rscale>  2 0.19446485E+03</rscale>
<asrwt>0</asrwt>
<pdfrwt beam="1">  1       21 0.62812956E-02 0.19446485E+03</pdfrwt>
<pdfrwt beam="2">  1       21 0.14850138E+00 0.19446485E+03</pdfrwt>
<totfact> 0.55888402E+04</totfact>
</mgrwt>
</event>
<event>
 4    1  0.4199481E+000  0.1827096E+03  0.7546771E-02  0.1165206E+00
         21   -1    0    0  503  502  0.00000000000E+00  0.00000000000E+00  0.32286926140E+03  0.32286926140E+03  0.00000000000E+00 0.  1.
         21   -1    0    0  501  503 -0.00000000000E+00 -0.00000000000E+00 -0.25636043454E+03  0.25636043454E+03  0.00000000000E+00 0.  1.
          6    1    1    2  501    0 -0.32887025328E+02 -0.48705597746E+02 -0.19045959946E+03  0.26392735878E+03  0.17300000000E+03 0.  1.
         -6    1    1    2    0  502  0.32887025328E+02  0.48705597746E+02  0.25696842632E+03  0.31530233715E+03  0.17300000000E+03 0.  1.
<mgrwt>
<rscale>  2 0.18270958E+03</rscale>
<asrwt>0</asrwt>
<pdfrwt beam="1">  1       21 0.49672194E-01 0.18270958E+03</pdfrwt>
<pdfrwt beam="2">  1       21 0.39440067E-01 0.18270958E+03</pdfrwt>
<totfact> 0.24076249E+04</totfact>
</mgrwt>
</event>
<event>
 4    1  0.4199481E+000  0.2171658E+03  0.7546771E-02  0.1136014E+00
         21   -1    0    0  501  502  0.00000000000E+00  0.00000000000E+00  0.10284032678E+03  0.10284032678E+03  0.00000000000E+00 0. -1.
         21   -1    0    0  502  503 -0.00000000000E+00 -0.00000000000E+00 -0.96610583815E+03  0.96610583815E+03  0.00000000000E+00 0.  1.
          6    1    1    2  501    0  0.11367842029E+03  0.65644665833E+02 -0.44249779498E+02  0.22162817596E+03  0.17300000000E+03 0. -1.
         -6    1    1    2    0  503 -0.11367842029E+03 -0.65644665833E+02 -0.81901573187E+03  0.84731798897E+03  0.17300000000E+03 0.  1.
<mgrwt>
<rscale>  2 0.21716585E+03</rscale>
<asrwt>0</asrwt>
<pdfrwt beam="1">  1       21 0.15821588E-01 0.21716585E+03</pdfrwt>
<pdfrwt beam="2">  1       21 0.14863167E+00 0.21716585E+03</pdfrwt>
<totfact> 0.10705427E+04</totfact>
</mgrwt>
</event>
<event>
 4    1  0.4199481E+000  0.2921754E+03  0.7546771E-02  0.1089219E+00
         21   -1    0    0  501  502  0.00000000000E+00  0.00000000000E+00  0.21653801969E+03  0.21653801969E+03  0.00000000000E+00 0.  1.
         21   -1    0    0  502  503 -0.00000000000E+00 -0.00000000000E+00 -0.70783980211E+03  0.70783980211E+03  0.00000000000E+00 0.  1.
          6    1    1    2  501    0 -0.21689462509E+03 -0.91619889648E+02  0.61990389380E+02  0.29867924425E+03  0.17300000000E+03 0.  1.
         -6    1    1    2    0  503  0.21689462509E+03  0.91619889648E+02 -0.55329217180E+03  0.62569857755E+03  0.17300000000E+03 0.  1.
<mgrwt>
<rscale>  2 0.29217543E+03</rscale>
<asrwt>0</asrwt>
<pdfrwt beam="1">  1       21 0.33313542E-01 0.29217543E+03</pdfrwt>
<pdfrwt beam="2">  1       21 0.10889843E+00 0.29217543E+03</pdfrwt>
<totfact> 0.54428830E+03</totfact>
</mgrwt>
</event>
<event>
 4    1  0.4199481E+000  0.2050387E+03  0.7546771E-02  0.1145556E+00
         21   -1    0    0  501  502  0.00000000000E+00  0.00000000000E+00  0.58823512091E+03  0.58823512091E+03  0.00000000000E+00 0. -1.
         21   -1    0    0  502  503 -0.00000000000E+00 -0.00000000000E+00 -0.13230486785E+03  0.13230486785E+03  0.00000000000E+00 0. -1.
          6    1    1    2  501    0 -0.10289452901E+03  0.39045856827E+02  0.47226221574E+03  0.51485188497E+03  0.17300000000E+03 0. -1.
         -6    1    1    2    0  503  0.10289452901E+03 -0.39045856827E+02 -0.16331962685E+02  0.20568810379E+03  0.17300000000E+03 0. -1.
<mgrwt>
<rscale>  2 0.20503869E+03</rscale>
<asrwt>0</asrwt>
<pdfrwt beam="1">  1       21 0.90497709E-01 0.20503869E+03</pdfrwt>
<pdfrwt beam="2">  1       21 0.20354595E-01 0.20503869E+03</pdfrwt>
<totfact> 0.22998487E+04</totfact>
</mgrwt>
</event>
<event>
 4    1  0.4199481E+000  0.5385598E+03  0.7546771E-02  0.1004177E+00
         21   -1    0    0  501  502  0.00000000000E+00  0.00000000000E+00  0.49074186661E+03  0.49074186661E+03  0.00000000000E+00 0.  1.
         21   -1    0    0  502  503 -0.00000000000E+00 -0.00000000000E+00 -0.83200684709E+03  0.83200684709E+03  0.00000000000E+00 0. -1.
          6    1    1    2  501    0  0.38861662200E+03 -0.33029505388E+03  0.18529789757E+03  0.56954544363E+03  0.17300000000E+03 0.  1.
         -6    1    1    2    0  503 -0.38861662200E+03  0.33029505388E+03 -0.52656287805E+03  0.75320327008E+03  0.17300000000E+03 0. -1.
<mgrwt>
<rscale>  2 0.53855984E+03</rscale>
<asrwt>0</asrwt>
<pdfrwt beam="1">  1       21 0.75498749E-01 0.53855984E+03</pdfrwt>
<pdfrwt beam="2">  1       21 0.12800105E+00 0.53855984E+03</pdfrwt>
<totfact> 0.56961885E+02</totfact>
</mgrwt>
</event>
<event>
 4    1  0.4199481E+000  0.2406479E+03  0.7546771E-02  0.1119362E+00
         21   -1    0    0  501  502  0.00000000000E+00  0.00000000000E+00  0.32189549909E+03  0.32189549909E+03  0.00000000000E+00 0.  1.
         21   -1    0    0  502  503 -0.00000000000E+00 -0.00000000000E+00 -0.26519821162E+03  0.26519821162E+03  0.00000000000E+00 0.  1.
          6    1    1    2  501    0  0.15406185739E+03 -0.65171672081E+02  0.19482137264E+03  0.30962359403E+03  0.17300000000E+03 0.  1.
         -6    1    1    2    0  503 -0.15406185739E+03  0.65171672081E+02 -0.13812408516E+03  0.27747011667E+03  0.17300000000E+03 0.  1.
<mgrwt>
<rscale>  2 0.24064788E+03</rscale>
<asrwt>0</asrwt>
<pdfrwt beam="1">  1       21 0.49522384E-01 0.24064788E+03</pdfrwt>
<pdfrwt beam="2">  1       21 0.40799725E-01 0.24064788E+03</pdfrwt>
<totfact> 0.21914614E+04</totfact>
</mgrwt>
</event>
<event>
 4    1  0.4199481E+000  0.2246278E+03  0.7546771E-02  0.1130479E+00
         21   -1    0    0  503  502  0.00000000000E+00  0.00000000000E+00  0.27879320640E+03  0.27879320640E+03  0.00000000000E+00 0.  1.
         21   -1    0    0  501  503 -0.00000000000E+00 -0.00000000000E+00 -0.19665834809E+03  0.19665834809E+03  0.00000000000E+00 0. -1.
          6    1    1    2  501    0  0.13605613085E+03  0.44915084908E+02 -0.26042795146E+02  0.22613240098E+03  0.17300000000E+03 0. -1.
         -6    1    1    2    0  502 -0.13605613085E+03 -0.44915084908E+02  0.10817765345E+03  0.24931915350E+03  0.17300000000E+03 0.  1.
<mgrwt>
<rscale>  2 0.22462777E+03</rscale>
<asrwt>0</asrwt>
<pdfrwt beam="1">  1       21 0.42891262E-01 0.22462777E+03</pdfrwt>
<pdfrwt beam="2">  1       21 0.30255131E-01 0.22462777E+03</pdfrwt>
<totfact> 0.53996009E+04</totfact>
</mgrwt>
</event>
<event>
 4    1  0.4199481E+000  0.1848449E+03  0.7546771E-02  0.1163195E+00
         21   -1    0    0  503  502  0.00000000000E+00  0.00000000000E+00  0.20179240582E+03  0.20179240582E+03  0.00000000000E+00 0. -1.
         21   -1    0    0  501  503 -0.00000000000E+00 -0.00000000000E+00 -0.28871484436E+03  0.28871484436E+03  0.00000000000E+00 0.  1.
          6    1    1    2  501    0  0.41731342534E+02 -0.49971235546E+02 -0.20117600525E+03  0.27320214937E+03  0.17300000000E+03 0.  1.
         -6    1    1    2    0  502 -0.41731342534E+02  0.49971235546E+02  0.11425356671E+03  0.21730510081E+03  0.17300000000E+03 0. -1.
<mgrwt>
<rscale>  2 0.18484488E+03</rscale>
<asrwt>0</asrwt>
<pdfrwt beam="1">  1       21 0.31044986E-01 0.18484488E+03</pdfrwt>
<pdfrwt beam="2">  1       21 0.44417668E-01 0.18484488E+03</pdfrwt>
<totfact> 0.48687924E+04</totfact>
</mgrwt>
</event>
<event>
 4    1  0.4199481E+000  0.1844244E+03  0.7546771E-02  0.1163589E+00
         21   -1    0    0  503  502  0.00000000000E+00  0.00000000000E+00  0.12811496158E+03  0.12811496158E+03  0.00000000000E+00 0. -1.
         21   -1    0    0  501  503 -0.00000000000E+00 -0.00000000000E+00 -0.91670898895E+03  0.91670898895E+03  0.00000000000E+00 0. -1.
          6    1    1    2  501    0 -0.45569313261E+02 -0.44797159166E+02 -0.83461176142E+03  0.85474507315E+03  0.17300000000E+03 0. -1.
         -6    1    1    2    0  502  0.45569313261E+02  0.44797159166E+02  0.46017734050E+02  0.19007887738E+03  0.17300000000E+03 0. -1.
<mgrwt>
<rscale>  2 0.18442437E+03</rscale>
<asrwt>0</asrwt>
<pdfrwt beam="1">  1       21 0.19709995E-01 0.18442437E+03</pdfrwt>
<pdfrwt beam="2">  1       21 0.14103214E+00 0.18442437E+03</pdfrwt>
<totfact> 0.83814055E+03</totfact>
</mgrwt>
</event>
<event>
 4    1  0.4199481E+000  0.1986262E+03  0.7546771E-02  0.1150903E+00
         21   -1    0    0  501  502  0.00000000000E+00  0.00000000000E+00  0.21407299359E+04  0.21407299359E+04  0.00000000000E+00 0. -1.
         21   -1    0    0  502  503 -0.00000000000E+00 -0.00000000000E+00 -0.18799883978E+02  0.18799883978E+02  0.00000000000E+00 0. -1.
          6    1    1    2  501    0  0.94515657576E+02  0.24292850438E+02  0.12125446299E+04  0.12287053477E+04  0.17300000000E+03 0. -1.
         -6    1    1    2    0  503 -0.94515657576E+02 -0.24292850438E+02  0.90938542204E+03  0.93082447213E+03  0.17300000000E+03 0. -1.
<mgrwt>
<rscale>  2 0.19862616E+03</rscale>
<asrwt>0</asrwt>
<pdfrwt beam="1">  1       21 0.32934287E+00 0.19862616E+03</pdfrwt>
<pdfrwt beam="2">  1       21 0.28922915E-02 0.19862616E+03</pdfrwt>
<totfact> 0.15428822E+04</totfact>
</mgrwt>
</event>
<event>
 4    1  0.4199481E+000  0.1909911E+03  0.7546771E-02  0.1157570E+00
         21   -1    0    0  503  502  0.00000000000E+00  0.00000000000E+00  0.19744707445E+03  0.19744707445E+03  0.00000000000E+00 0.  1.
         21   -1    0    0  501  503 -0.00000000000E+00 -0.00000000000E+00 -0.18742001725E+03  0.18742001725E+03  0.00000000000E+00 0.  1.
          6    1    1    2  501    0  0.36231705194E+02 -0.72359260036E+02  0.27998169502E+02  0.19303237156E+03  0.17300000000E+03 0.  1.
         -6    1    1    2    0  502 -0.36231705194E+02  0.72359260036E+02 -0.17971112294E+02  0.19183472014E+03  0.17300000000E+03 0.  1.
<mgrwt>
<rscale>  2 0.19099110E+03</rscale>
<asrwt>0</asrwt>
<pdfrwt beam="1">  1       21 0.30376473E-01 0.19099110E+03</pdfrwt>
<pdfrwt beam="2">  1       21 0.28833849E-01 0.19099110E+03</pdfrwt>
<totfact> 0.11978293E+05</totfact>
</mgrwt>
</event>
<event>
 4    1  0.4199481E+000  0.2488732E+03  0.7546771E-02  0.1114019E+00
         21   -1    0    0  501  502  0.00000000000E+00  0.00000000000E+00  0.58909798846E+02  0.58909798846E+02  0.00000000000E+00 0. -1.
         21   -1    0    0  502  503 -0.00000000000E+00 -0.00000000000E+00 -0.11110231263E+04  0.11110231263E+04  0.00000000000E+00 0. -1.
          6    1    1    2  501    0  0.67648822180E+02  0.16562762107E+03 -0.39054707696E+03  0.46310354277E+03  0.17300000000E+03 0. -1.
         -6    1    1    2    0  503 -0.67648822180E+02 -0.16562762107E+03 -0.66156625051E+03  0.70682938240E+03  0.17300000000E+03 0. -1.
<mgrwt>
<rscale>  2 0.24887320E+03</rscale>
<asrwt>0</asrwt>
<pdfrwt beam="1">  1       21 0.90630457E-02 0.24887320E+03</pdfrwt>
<pdfrwt beam="2">  1       21 0.17092664E+00 0.24887320E+03</pdfrwt>
<totfact> 0.19563135E+04</totfact>
</mgrwt>
</event>
<event>
 4    1  0.4199481E+000  0.1923297E+03  0.7546771E-02  0.1156377E+00
         21   -1    0    0  501  502  0.00000000000E+00  0.00000000000E+00  0.99644877450E+03  0.99644877450E+03  0.00000000000E+00 0.  1.
         21   -1    0    0  502  503 -0.00000000000E+00 -0.00000000000E+00 -0.38204752789E+02  0.38204752789E+02  0.00000000000E+00 0. -1.
          6    1    1    2  501    0 -0.71392230888E+01  0.83730198251E+02  0.39205341296E+03  0.43668821053E+03  0.17300000000E+03 0.  1.
         -6    1    1    2    0  503  0.71392230888E+01 -0.83730198251E+02  0.56619060875E+03  0.59796531676E+03  0.17300000000E+03 0. -1.
<mgrwt>
<rscale>  2 0.19232970E+03</rscale>
<asrwt>0</asrwt>
<pdfrwt beam="1">  1       21 0.15329979E+00 0.19232970E+03</pdfrwt>
<pdfrwt beam="2">  1       21 0.58776550E-02 0.19232970E+03</pdfrwt>
<totfact> 0.57654913E+04</totfact>
</mgrwt>
</event>
<event>
 4    1  0.4199481E+000  0.2534594E+03  0.7546771E-02  0.1111138E+00
         21   -1    0    0  501  502  0.00000000000E+00  0.00000000000E+00  0.50960485371E+03  0.50960485371E+03  0.00000000000E+00 0. -1.
         21   -1    0    0  502  503 -0.00000000000E+00 -0.00000000000E+00 -0.16818494721E+03  0.16818494721E+03  0.00000000000E+00 0.  1.
          6    1    1    2  501    0 -0.75464433244E+02 -0.16916785704E+03  0.34031254758E+03  0.42432802710E+03  0.17300000000E+03 0. -1.
         -6    1    1    2    0  503  0.75464433244E+02  0.16916785704E+03  0.11073589220E+01  0.25346177381E+03  0.17300000000E+03 0.  1.
<mgrwt>
<rscale>  2 0.25345935E+03</rscale>
<asrwt>0</asrwt>
<pdfrwt beam="1">  1       21 0.78400746E-01 0.25345935E+03</pdfrwt>
<pdfrwt beam="2">  1       21 0.25874607E-01 0.25345935E+03</pdfrwt>
<totfact> 0.19744852E+04</totfact>
</mgrwt>
</event>
<event>
 4    1  0.4199481E+000  0.2371725E+03  0.7546771E-02  0.1121691E+00
         21   -1    0    0  503  502  0.00000000000E+00  0.00000000000E+00  0.11846829540E+04  0.11846829540E+04  0.00000000000E+00 0. -1.
         21   -1    0    0  501  503 -0.00000000000E+00 -0.00000000000E+00 -0.14377729110E+03  0.14377729110E+03  0.00000000000E+00 0.  1.
          6    1    1    2  501    0  0.71994358901E+02  0.14539126481E+03 -0.23143516857E+02  0.23829903476E+03  0.17300000000E+03 0.  1.
         -6    1    1    2    0  502 -0.71994358901E+02 -0.14539126481E+03  0.10640491797E+04  0.10901612103E+04  0.17300000000E+03 0. -1.
<mgrwt>
<rscale>  2 0.23717253E+03</rscale>
<asrwt>0</asrwt>
<pdfrwt beam="1">  1       21 0.18225891E+00 0.23717253E+03</pdfrwt>
<pdfrwt beam="2">  1       21 0.22119584E-01 0.23717253E+03</pdfrwt>
<totfact> 0.32281504E+03</totfact>
</mgrwt>
</event>
<event>
 4    1  0.4199481E+000  0.1771782E+03  0.7546771E-02  0.1170562E+00
         21   -1    0    0  503  502  0.00000000000E+00  0.00000000000E+00  0.24542288906E+04  0.24542288906E+04  0.00000000000E+00 0. -1.
         21   -1    0    0  501  503 -0.00000000000E+00 -0.00000000000E+00 -0.27612061584E+02  0.27612061584E+02  0.00000000000E+00 0. -1.
          6    1    1    2  501    0 -0.37619723535E+02 -0.69197062586E+01  0.30416229908E+03  0.35200402002E+03  0.17300000000E+03 0. -1.
         -6    1    1    2    0  502  0.37619723535E+02  0.69197062586E+01  0.21224545299E+04  0.21298369321E+04  0.17300000000E+03 0. -1.
<mgrwt>
<rscale>  2 0.17717823E+03</rscale>
<asrwt>0</asrwt>
<pdfrwt beam="1">  1       21 0.37757350E+00 0.17717823E+03</pdfrwt>
<pdfrwt beam="2">  1       21 0.42480114E-02 0.17717823E+03</pdfrwt>
<totfact> 0.43308265E+03</totfact>
</mgrwt>
</event>
<event>
 4    1  0.4199481E+000  0.2201798E+03  0.7546771E-02  0.1133749E+00
         21   -1    0    0  501  502  0.00000000000E+00  0.00000000000E+00  0.45022197201E+02  0.45022197201E+02  0.00000000000E+00 0.  1.
         21   -1    0    0  502  503 -0.00000000000E+00 -0.00000000000E+00 -0.14978901459E+04  0.14978901459E+04  0.00000000000E+00 0.  1.
          6    1    1    2  501    0 -0.12456058263E+03 -0.55089206172E+02 -0.31739252352E+03  0.38628638776E+03  0.17300000000E+03 0.  1.
         -6    1    1    2    0  503  0.12456058263E+03  0.55089206172E+02 -0.11354754251E+04  0.11566259553E+04  0.17300000000E+03 0.  1.
<mgrwt>
<rscale>  2 0.22017983E+03</rscale>
<asrwt>0</asrwt>
<pdfrwt beam="1">  1       21 0.69264928E-02 0.22017983E+03</pdfrwt>
<pdfrwt beam="2">  1       21 0.23044461E+00 0.22017983E+03</pdfrwt>
<totfact> 0.13083343E+04</totfact>
</mgrwt>
</event>
<event>
 4    1  0.4199481E+000  0.1950756E+03  0.7546771E-02  0.1153962E+00
         21   -1    0    0  503  502  0.00000000000E+00  0.00000000000E+00  0.34521897143E+03  0.34521897143E+03  0.00000000000E+00 0. -1.
         21   -1    0    0  501  503 -0.00000000000E+00 -0.00000000000E+00 -0.11300796863E+03  0.11300796863E+03  0.00000000000E+00 0.  1.
          6    1    1    2  501    0  0.49114387262E+02 -0.75586112464E+02  0.80202226139E+02  0.21091913263E+03  0.17300000000E+03 0.  1.
         -6    1    1    2    0  502 -0.49114387262E+02  0.75586112464E+02  0.15200877666E+03  0.24730780743E+03  0.17300000000E+03 0.  1.
<mgrwt>
<rscale>  2 0.19507558E+03</rscale>
<asrwt>0</asrwt>
<pdfrwt beam="1">  1       21 0.53110610E-01 0.19507558E+03</pdfrwt>
<pdfrwt beam="2">  1       21 0.17385842E-01 0.19507558E+03</pdfrwt>
<totfact> 0.10042198E+05</totfact>
</mgrwt>
</event>
<event>
 4    1  0.4199481E+000  0.1994169E+03  0.7546771E-02  0.1150232E+00
         21   -1    0    0  501  502  0.00000000000E+00  0.00000000000E+00  0.24182429094E+03  0.24182429094E+03  0.00000000000E+00 0. -1.
         21   -1    0    0  502  503 -0.00000000000E+00 -0.00000000000E+00 -0.39921269556E+03  0.39921269556E+03  0.00000000000E+00 0. -1.
          6    1    1    2  501    0  0.74736440472E+02  0.65211709607E+02  0.16709846041E+03  0.26017109385E+03  0.17300000000E+03 0. -1.
         -6    1    1    2    0  503 -0.74736440472E+02 -0.65211709607E+02 -0.32448686503E+03  0.38086589265E+03  0.17300000000E+03 0. -1.
<mgrwt>
<rscale>  2 0.19941691E+03</rscale>
<asrwt>0</asrwt>
<pdfrwt beam="1">  1       21 0.37203738E-01 0.19941691E+03</pdfrwt>
<pdfrwt beam="2">  1       21 0.61417337E-01 0.19941691E+03</pdfrwt>
<totfact> 0.17098593E+04</totfact>
</mgrwt>
</event>
<event>
 4    1  0.4199481E+000  0.1817665E+03  0.7546771E-02  0.1166104E+00
         21   -1    0    0  501  502  0.00000000000E+00  0.00000000000E+00  0.80577789175E+02  0.80577789175E+02  0.00000000000E+00 0.  1.
         21   -1    0    0  502  503 -0.00000000000E+00 -0.00000000000E+00 -0.15276620020E+04  0.15276620020E+04  0.00000000000E+00 0.  1.
          6    1    1    2  501    0  0.49844481419E+02  0.25011585432E+02 -0.35749966080E+02  0.18524878355E+03  0.17300000000E+03 0.  1.
         -6    1    1    2    0  503 -0.49844481419E+02 -0.25011585432E+02 -0.14113342467E+04  0.14229910076E+04  0.17300000000E+03 0.  1.
<mgrwt>
<rscale>  2 0.18176648E+03</rscale>
<asrwt>0</asrwt>
<pdfrwt beam="1">  1       21 0.12396583E-01 0.18176648E+03</pdfrwt>
<pdfrwt beam="2">  1       21 0.23502493E+00 0.18176648E+03</pdfrwt>
<totfact> 0.45676327E+03</totfact>
</mgrwt>
</event>
<event>
 4    1  0.4199481E+000  0.2129549E+03  0.7546771E-02  0.1139247E+00
         21   -1    0    0  503  502  0.00000000000E+00  0.00000000000E+00  0.75054768899E+03  0.75054768899E+03  0.00000000000E+00 0.  1.
         21   -1    0    0  501  503 -0.00000000000E+00 -0.00000000000E+00 -0.11095766222E+03  0.11095766222E+03  0.00000000000E+00 0. -1.
          6    1    1    2  501    0  0.65084590185E+02  0.10575807664E+03  0.29093513691E+02  0.21493302955E+03  0.17300000000E+03 0. -1.
         -6    1    1    2    0  502 -0.65084590185E+02 -0.10575807664E+03  0.61049651308E+03  0.64657232166E+03  0.17300000000E+03 0.  1.
<mgrwt>
<rscale>  2 0.21295487E+03</rscale>
<asrwt>0</asrwt>
<pdfrwt beam="1">  1       21 0.11546887E+00 0.21295487E+03</pdfrwt>
<pdfrwt beam="2">  1       21 0.17070410E-01 0.21295487E+03</pdfrwt>
<totfact> 0.17740746E+04</totfact>
</mgrwt>
</event>
<event>
 4    1  0.4199481E+000  0.1951042E+03  0.7546771E-02  0.1153937E+00
         21   -1    0    0  501  502  0.00000000000E+00  0.00000000000E+00  0.19999657847E+03  0.19999657847E+03  0.00000000000E+00 0. -1.
         21   -1    0    0  502  503 -0.00000000000E+00 -0.00000000000E+00 -0.28249583127E+03  0.28249583127E+03  0.00000000000E+00 0. -1.
          6    1    1    2  501    0  0.73214343489E+02  0.52690628202E+02  0.96546173960E+02  0.21768510767E+03  0.17300000000E+03 0. -1.
         -6    1    1    2    0  503 -0.73214343489E+02 -0.52690628202E+02 -0.17904542676E+03  0.26480730208E+03  0.17300000000E+03 0. -1.
<mgrwt>
<rscale>  2 0.19510418E+03</rscale>
<asrwt>0</asrwt>
<pdfrwt beam="1">  1       21 0.30768704E-01 0.19510418E+03</pdfrwt>
<pdfrwt beam="2">  1       21 0.43460897E-01 0.19510418E+03</pdfrwt>
<totfact> 0.51555780E+04</totfact>
</mgrwt>
</event>
<event>
 4    1  0.4199481E+000  0.2845289E+03  0.7546771E-02  0.1093241E+00
         21   -1    0    0  501  502  0.00000000000E+00  0.00000000000E+00  0.76433322749E+03  0.76433322749E+03  0.00000000000E+00 0.  1.
         21   -1    0    0  502  503 -0.00000000000E+00 -0.00000000000E+00 -0.11048177435E+03  0.11048177435E+03  0.00000000000E+00 0.  1.
          6    1    1    2  501    0  0.74740623408E+02 -0.21317023621E+03  0.23802628599E+03  0.37096256309E+03  0.17300000000E+03 0.  1.
         -6    1    1    2    0  503 -0.74740623408E+02  0.21317023621E+03  0.41582516716E+03  0.50385243875E+03  0.17300000000E+03 0.  1.
<mgrwt>
<rscale>  2 0.28452893E+03</rscale>
<asrwt>0</asrwt>
<pdfrwt beam="1">  1       21 0.11758972E+00 0.28452893E+03</pdfrwt>
<pdfrwt beam="2">  1       21 0.16997197E-01 0.28452893E+03</pdfrwt>
<totfact> 0.16461911E+04</totfact>
</mgrwt>
</event>
<event>
 4    1  0.4199481E+000  0.1901342E+03  0.7546771E-02  0.1158340E+00
         21   -1    0    0  503  502  0.00000000000E+00  0.00000000000E+00  0.33224860890E+03  0.33224860890E+03  0.00000000000E+00 0. -1.
         21   -1    0    0  501  503 -0.00000000000E+00 -0.00000000000E+00 -0.11563285944E+03  0.11563285944E+03  0.00000000000E+00 0. -1.
          6    1    1    2  501    0  0.68078053298E+02 -0.39842263231E+02  0.53899460132E+02  0.19762636232E+03  0.17300000000E+03 0. -1.
         -6    1    1    2    0  502 -0.68078053298E+02  0.39842263231E+02  0.16271628933E+03  0.25025510603E+03  0.17300000000E+03 0. -1.
<mgrwt>
<rscale>  2 0.19013423E+03</rscale>
<asrwt>0</asrwt>
<pdfrwt beam="1">  1       21 0.51115170E-01 0.19013423E+03</pdfrwt>
<pdfrwt beam="2">  1       21 0.17789671E-01 0.19013423E+03</pdfrwt>
<totfact> 0.10450774E+05</totfact>
</mgrwt>
</event>
<event>
 4    1  0.4199481E+000  0.3071045E+03  0.7546771E-02  0.1081742E+00
         21   -1    0    0  501  502  0.00000000000E+00  0.00000000000E+00  0.93719397671E+03  0.93719397671E+03  0.00000000000E+00 0.  1.
         21   -1    0    0  502  503 -0.00000000000E+00 -0.00000000000E+00 -0.10704389809E+03  0.10704389809E+03  0.00000000000E+00 0. -1.
          6    1    1    2  501    0  0.12432331593E+03  0.22119648720E+03  0.54284498749E+03  0.62369371752E+03  0.17300000000E+03 0.  1.
         -6    1    1    2    0  503 -0.12432331593E+03 -0.22119648720E+03  0.28730509113E+03  0.42054415728E+03  0.17300000000E+03 0. -1.
<mgrwt>
<rscale>  2 0.30710450E+03</rscale>
<asrwt>0</asrwt>
<pdfrwt beam="1">  1       21 0.14418368E+00 0.30710450E+03</pdfrwt>
<pdfrwt beam="2">  1       21 0.16468293E-01 0.30710450E+03</pdfrwt>
<totfact> 0.10235507E+04</totfact>
</mgrwt>
</event>
<event>
 4    1  0.4199481E+000  0.1811939E+03  0.7546771E-02  0.1166653E+00
         21   -1    0    0  503  502  0.00000000000E+00  0.00000000000E+00  0.49252758699E+02  0.49252758699E+02  0.00000000000E+00 0. -1.
         21   -1    0    0  501  503 -0.00000000000E+00 -0.00000000000E+00 -0.74517413316E+03  0.74517413316E+03  0.00000000000E+00 0. -1.
          6    1    1    2  501    0 -0.47679748202E+02  0.25077623894E+02 -0.47695511495E+03  0.51021311947E+03  0.17300000000E+03 0. -1.
         -6    1    1    2    0  502  0.47679748202E+02 -0.25077623894E+02 -0.21896625952E+03  0.28421377239E+03  0.17300000000E+03 0. -1.
<mgrwt>
<rscale>  2 0.18119394E+03</rscale>
<asrwt>0</asrwt>
<pdfrwt beam="1">  1       21 0.75773478E-02 0.18119394E+03</pdfrwt>
<pdfrwt beam="2">  1       21 0.11464217E+00 0.18119394E+03</pdfrwt>
<totfact> 0.78310227E+04</totfact>
</mgrwt>
</event>
<event>
 4    1  0.4199481E+000  0.2160944E+03  0.7546771E-02  0.1136829E+00
         21   -1    0    0  503  502  0.00000000000E+00  0.00000000000E+00  0.84864709100E+03  0.84864709100E+03  0.00000000000E+00 0.  1.
         21   -1    0    0  501  503 -0.00000000000E+00 -0.00000000000E+00 -0.66874387275E+02  0.66874387275E+02  0.00000000000E+00 0. -1.
          6    1    1    2  501    0  0.10046366001E+03 -0.81699645294E+02  0.19819724349E+03  0.29322163349E+03  0.17300000000E+03 0. -1.
         -6    1    1    2    0  502 -0.10046366001E+03  0.81699645294E+02  0.58357546024E+03  0.62229984479E+03  0.17300000000E+03 0.  1.
<mgrwt>
<rscale>  2 0.21609438E+03</rscale>
<asrwt>0</asrwt>
<pdfrwt beam="1">  1       21 0.13056108E+00 0.21609438E+03</pdfrwt>
<pdfrwt beam="2">  1       21 0.10288368E-01 0.21609438E+03</pdfrwt>
<totfact> 0.32549746E+04</totfact>
</mgrwt>
</event>
<event>
 4    1  0.4199481E+000  0.2610279E+03  0.7546771E-02  0.1106527E+00
         21   -1    0    0  503  502  0.00000000000E+00  0.00000000000E+00  0.28694009366E+03  0.28694009366E+03  0.00000000000E+00 0.  1.
         21   -1    0    0  501  503 -0.00000000000E+00 -0.00000000000E+00 -0.29094087489E+03  0.29094087489E+03  0.00000000000E+00 0.  1.
          6    1    1    2  501    0  0.19242986511E+03 -0.34311661514E+02 -0.12588660622E+03  0.28979817240E+03  0.17300000000E+03 0.  1.
         -6    1    1    2    0  502 -0.19242986511E+03  0.34311661514E+02  0.12188582499E+03  0.28808279615E+03  0.17300000000E+03 0.  1.
<mgrwt>
<rscale>  2 0.26102786E+03</rscale>
<asrwt>0</asrwt>
<pdfrwt beam="1">  1       21 0.44144630E-01 0.26102786E+03</pdfrwt>
<pdfrwt beam="2">  1       21 0.44760134E-01 0.26102786E+03</pdfrwt>
<totfact> 0.22792266E+04</totfact>
</mgrwt>
</event>
<event>
 4    1  0.4199481E+000  0.2211636E+03  0.7546771E-02  0.1133018E+00
         21   -1    0    0  501  502  0.00000000000E+00  0.00000000000E+00  0.11220175844E+03  0.11220175844E+03  0.00000000000E+00 0. -1.
         21   -1    0    0  502  503 -0.00000000000E+00 -0.00000000000E+00 -0.11715056903E+04  0.11715056903E+04  0.00000000000E+00 0. -1.
          6    1    1    2  501    0 -0.36894545488E+02  0.13275218718E+03 -0.21054384333E+02  0.22216353839E+03  0.17300000000E+03 0. -1.
         -6    1    1    2    0  503  0.36894545488E+02 -0.13275218718E+03 -0.10382495476E+04  0.10615439104E+04  0.17300000000E+03 0. -1.
<mgrwt>
<rscale>  2 0.22116363E+03</rscale>
<asrwt>0</asrwt>
<pdfrwt beam="1">  1       21 0.17261810E-01 0.22116363E+03</pdfrwt>
<pdfrwt beam="2">  1       21 0.18023164E+00 0.22116363E+03</pdfrwt>
<totfact> 0.53684227E+03</totfact>
</mgrwt>
</event>
<event>
 4    1  0.4199481E+000  0.4670701E+03  0.7546771E-02  0.1022750E+00
         21   -1    0    0  503  502  0.00000000000E+00  0.00000000000E+00  0.21942552503E+03  0.21942552503E+03  0.00000000000E+00 0. -1.
         21   -1    0    0  501  503 -0.00000000000E+00 -0.00000000000E+00 -0.13269241419E+04  0.13269241419E+04  0.00000000000E+00 0.  1.
          6    1    1    2  501    0 -0.28176414677E+03 -0.32990065624E+03 -0.94091066138E+03  0.10504605419E+04  0.17300000000E+03 0.  1.
         -6    1    1    2    0  502  0.28176414677E+03  0.32990065624E+03 -0.16658795546E+03  0.49588912501E+03  0.17300000000E+03 0. -1.
<mgrwt>
<rscale>  2 0.46707010E+03</rscale>
<asrwt>0</asrwt>
<pdfrwt beam="1">  1       21 0.33757773E-01 0.46707010E+03</pdfrwt>
<pdfrwt beam="2">  1       21 0.20414217E+00 0.46707010E+03</pdfrwt>
<totfact> 0.88116040E+02</totfact>
</mgrwt>
</event>
<event>
 4    1  0.4199481E+000  0.2337290E+03  0.7546771E-02  0.1124042E+00
         21   -1    0    0  503  502  0.00000000000E+00  0.00000000000E+00  0.54284198748E+03  0.54284198748E+03  0.00000000000E+00 0. -1.
         21   -1    0    0  501  503 -0.00000000000E+00 -0.00000000000E+00 -0.17568257579E+03  0.17568257579E+03  0.00000000000E+00 0. -1.
          6    1    1    2  501    0  0.14911771478E+03  0.49640133635E+02 -0.51228808816E+02  0.23927730060E+03  0.17300000000E+03 0. -1.
         -6    1    1    2    0  502 -0.14911771478E+03 -0.49640133635E+02  0.41838822050E+03  0.47924726268E+03  0.17300000000E+03 0. -1.
<mgrwt>
<rscale>  2 0.23372898E+03</rscale>
<asrwt>0</asrwt>
<pdfrwt beam="1">  1       21 0.83514151E-01 0.23372898E+03</pdfrwt>
<pdfrwt beam="2">  1       21 0.27028089E-01 0.23372898E+03</pdfrwt>
<totfact> 0.15874359E+04</totfact>
</mgrwt>
</event>
<event>
 4    1  0.4199481E+000  0.1762161E+03  0.7546771E-02  0.1171516E+00
         21   -1    0    0  503  502  0.00000000000E+00  0.00000000000E+00  0.22214805818E+03  0.22214805818E+03  0.00000000000E+00 0.  1.
         21   -1    0    0  501  503 -0.00000000000E+00 -0.00000000000E+00 -0.14080835527E+03  0.14080835527E+03  0.00000000000E+00 0.  1.
          6    1    1    2  501    0 -0.33404145998E+02 -0.26976242516E+01  0.56170002576E+02  0.18495184059E+03  0.17300000000E+03 0.  1.
         -6    1    1    2    0  502  0.33404145998E+02  0.26976242516E+01  0.25169700341E+02  0.17800457287E+03  0.17300000000E+03 0.  1.
<mgrwt>
<rscale>  2 0.17621610E+03</rscale>
<asrwt>0</asrwt>
<pdfrwt beam="1">  1       21 0.34176624E-01 0.17621610E+03</pdfrwt>
<pdfrwt beam="2">  1       21 0.21662824E-01 0.17621610E+03</pdfrwt>
<totfact> 0.16478242E+05</totfact>
</mgrwt>
</event>
<event>
 4    1  0.4199481E+000  0.2980249E+03  0.7546771E-02  0.1086232E+00
         21   -1    0    0  501  502  0.00000000000E+00  0.00000000000E+00  0.76991096260E+03  0.76991096260E+03  0.00000000000E+00 0. -1.
         21   -1    0    0  502  503 -0.00000000000E+00 -0.00000000000E+00 -0.30630446621E+03  0.30630446621E+03  0.00000000000E+00 0.  1.
          6    1    1    2  501    0  0.21843775851E+02 -0.24168716578E+03  0.65666073283E+03  0.72112561644E+03  0.17300000000E+03 0. -1.
         -6    1    1    2    0  503 -0.21843775851E+02  0.24168716578E+03 -0.19305423644E+03  0.35508981238E+03  0.17300000000E+03 0.  1.
<mgrwt>
<rscale>  2 0.29802489E+03</rscale>
<asrwt>0</asrwt>
<pdfrwt beam="1">  1       21 0.11844784E+00 0.29802489E+03</pdfrwt>
<pdfrwt beam="2">  1       21 0.47123764E-01 0.29802489E+03</pdfrwt>
<totfact> 0.21741422E+03</totfact>
</mgrwt>
</event>
<event>
 4    1  0.4199481E+000  0.1905201E+03  0.7546771E-02  0.1157993E+00
         21   -1    0    0  501  502  0.00000000000E+00  0.00000000000E+00  0.10318989557E+04  0.10318989557E+04  0.00000000000E+00 0. -1.
         21   -1    0    0  502  503 -0.00000000000E+00 -0.00000000000E+00 -0.40589038423E+02  0.40589038423E+02  0.00000000000E+00 0. -1.
          6    1    1    2  501    0 -0.30819693052E+02 -0.73614322495E+02  0.69148741448E+03  0.71725362763E+03  0.17300000000E+03 0. -1.
         -6    1    1    2    0  503  0.30819693052E+02  0.73614322495E+02  0.29982250278E+03  0.35523436648E+03  0.17300000000E+03 0. -1.
<mgrwt>
<rscale>  2 0.19052014E+03</rscale>
<asrwt>0</asrwt>
<pdfrwt beam="1">  1       21 0.15875367E+00 0.19052014E+03</pdfrwt>
<pdfrwt beam="2">  1       21 0.62444682E-02 0.19052014E+03</pdfrwt>
<totfact> 0.47391709E+04</totfact>
</mgrwt>
</event>
<event>
 4    1  0.4199481E+000  0.1995823E+03  0.7546771E-02  0.1150092E+00
         21   -1    0    0  501  502  0.00000000000E+00  0.00000000000E+00  0.63145310073E+03  0.63145310073E+03  0.00000000000E+00 0.  1.
         21   -1    0    0  502  503 -0.00000000000E+00 -0.00000000000E+00 -0.67362396475E+02  0.67362396475E+02  0.00000000000E+00 0.  1.
          6    1    1    2  501    0  0.41853773567E+02  0.90290467039E+02  0.37012655873E+03  0.42050776007E+03  0.17300000000E+03 0.  1.
         -6    1    1    2    0  503 -0.41853773567E+02 -0.90290467039E+02  0.19396414552E+03  0.27830773713E+03  0.17300000000E+03 0.  1.
<mgrwt>
<rscale>  2 0.19958233E+03</rscale>
<asrwt>0</asrwt>
<pdfrwt beam="1">  1       21 0.97146627E-01 0.19958233E+03</pdfrwt>
<pdfrwt beam="2">  1       21 0.10363446E-01 0.19958233E+03</pdfrwt>
<totfact> 0.66742391E+04</totfact>
</mgrwt>
</event>
<event>
 4    1  0.4199481E+000  0.2087891E+03  0.7546771E-02  0.1142528E+00
         21   -1    0    0  501  502  0.00000000000E+00  0.00000000000E+00  0.60354763146E+03  0.60354763146E+03  0.00000000000E+00 0. -1.
         21   -1    0    0  502  503 -0.00000000000E+00 -0.00000000000E+00 -0.72278094166E+02  0.72278094166E+02  0.00000000000E+00 0. -1.
          6    1    1    2  501    0 -0.10163308099E+03  0.57746190809E+02  0.27455026192E+03  0.34492137079E+03  0.17300000000E+03 0. -1.
         -6    1    1    2    0  503  0.10163308099E+03 -0.57746190809E+02  0.25671927537E+03  0.33090435484E+03  0.17300000000E+03 0. -1.
<mgrwt>
<rscale>  2 0.20878914E+03</rscale>
<asrwt>0</asrwt>
<pdfrwt beam="1">  1       21 0.92853478E-01 0.20878914E+03</pdfrwt>
<pdfrwt beam="2">  1       21 0.11119707E-01 0.20878914E+03</pdfrwt>
<totfact> 0.65189284E+04</totfact>
</mgrwt>
</event>
<event>
 4    1  0.4199481E+000  0.1800875E+03  0.7546771E-02  0.1167718E+00
         21   -1    0    0  503  502  0.00000000000E+00  0.00000000000E+00  0.20546005529E+03  0.20546005529E+03  0.00000000000E+00 0.  1.
         21   -1    0    0  501  503 -0.00000000000E+00 -0.00000000000E+00 -0.36075301875E+03  0.36075301875E+03  0.00000000000E+00 0.  1.
          6    1    1    2  501    0 -0.47583909919E+02  0.15435849304E+02 -0.28996658766E+03  0.34133871138E+03  0.17300000000E+03 0.  1.
         -6    1    1    2    0  502  0.47583909919E+02 -0.15435849304E+02  0.13467362419E+03  0.22487436266E+03  0.17300000000E+03 0.  1.
<mgrwt>
<rscale>  2 0.18008746E+03</rscale>
<asrwt>0</asrwt>
<pdfrwt beam="1">  1       21 0.31609240E-01 0.18008746E+03</pdfrwt>
<pdfrwt beam="2">  1       21 0.55500464E-01 0.18008746E+03</pdfrwt>
<totfact> 0.29642637E+04</totfact>
</mgrwt>
</event>
<event>
 4    1  0.4199481E+000  0.2937741E+03  0.7546771E-02  0.1088395E+00
         21   -1    0    0  501  502  0.00000000000E+00  0.00000000000E+00  0.11254708073E+03  0.11254708073E+03  0.00000000000E+00 0.  1.
         21   -1    0    0  502  503 -0.00000000000E+00 -0.00000000000E+00 -0.84269314377E+03  0.84269314377E+03  0.00000000000E+00 0.  1.
          6    1    1    2  501    0  0.78285892056E+02  0.22415518686E+03 -0.22175690470E+03  0.36807520084E+03  0.17300000000E+03 0.  1.
         -6    1    1    2    0  503 -0.78285892056E+02 -0.22415518686E+03 -0.50838915834E+03  0.58716502366E+03  0.17300000000E+03 0.  1.
<mgrwt>
<rscale>  2 0.29377411E+03</rscale>
<asrwt>0</asrwt>
<pdfrwt beam="1">  1       21 0.17314936E-01 0.29377411E+03</pdfrwt>
<pdfrwt beam="2">  1       21 0.12964510E+00 0.29377411E+03</pdfrwt>
<totfact> 0.12374114E+04</totfact>
</mgrwt>
</event>
<event>
 4    1  0.4199481E+000  0.1942236E+03  0.7546771E-02  0.1154706E+00
         21   -1    0    0  503  502  0.00000000000E+00  0.00000000000E+00  0.16641226997E+04  0.16641226997E+04  0.00000000000E+00 0. -1.
         21   -1    0    0  501  503 -0.00000000000E+00 -0.00000000000E+00 -0.30466163618E+02  0.30466163618E+02  0.00000000000E+00 0. -1.
          6    1    1    2  501    0 -0.86002052644E+02 -0.19936266842E+02  0.38816753746E+03  0.43404705382E+03  0.17300000000E+03 0. -1.
         -6    1    1    2    0  502  0.86002052644E+02  0.19936266842E+02  0.12454889987E+04  0.12605418095E+04  0.17300000000E+03 0. -1.
<mgrwt>
<rscale>  2 0.19422360E+03</rscale>
<asrwt>0</asrwt>
<pdfrwt beam="1">  1       21 0.25601881E+00 0.19422360E+03</pdfrwt>
<pdfrwt beam="2">  1       21 0.46871034E-02 0.19422360E+03</pdfrwt>
<totfact> 0.18369876E+04</totfact>
</mgrwt>
</event>
<event>
 4    1  0.4199481E+000  0.2075497E+03  0.7546771E-02  0.1143521E+00
         21   -1    0    0  501  502  0.00000000000E+00  0.00000000000E+00  0.19943321139E+03  0.19943321139E+03  0.00000000000E+00 0. -1.
         21   -1    0    0  502  503 -0.00000000000E+00 -0.00000000000E+00 -0.75919347263E+03  0.75919347263E+03  0.00000000000E+00 0. -1.
          6    1    1    2  501    0 -0.42971188160E+02 -0.10630792161E+03  0.12555549969E+03  0.24257180527E+03  0.17300000000E+03 0. -1.
         -6    1    1    2    0  503  0.42971188160E+02  0.10630792161E+03 -0.68531576093E+03  0.71605487875E+03  0.17300000000E+03 0. -1.
<mgrwt>
<rscale>  2 0.20754975E+03</rscale>
<asrwt>0</asrwt>
<pdfrwt beam="1">  1       21 0.30682033E-01 0.20754975E+03</pdfrwt>
<pdfrwt beam="2">  1       21 0.11679900E+00 0.20754975E+03</pdfrwt>
<totfact> 0.56902880E+03</totfact>
</mgrwt>
</event>
<event>
 4    1  0.4199481E+000  0.1919863E+03  0.7546771E-02  0.1156682E+00
         21   -1    0    0  501  502  0.00000000000E+00  0.00000000000E+00  0.22935774117E+03  0.22935774117E+03  0.00000000000E+00 0. -1.
         21   -1    0    0  502  503 -0.00000000000E+00 -0.00000000000E+00 -0.26332938737E+03  0.26332938737E+03  0.00000000000E+00 0. -1.
          6    1    1    2  501    0 -0.83008627344E+02 -0.62707924189E+01  0.13680078301E+03  0.23573970663E+03  0.17300000000E+03 0. -1.
         -6    1    1    2    0  503  0.83008627344E+02  0.62707924189E+01 -0.17077242921E+03  0.25694742191E+03  0.17300000000E+03 0. -1.
<mgrwt>
<rscale>  2 0.19198634E+03</rscale>
<asrwt>0</asrwt>
<pdfrwt beam="1">  1       21 0.35285806E-01 0.19198634E+03</pdfrwt>
<pdfrwt beam="2">  1       21 0.40512213E-01 0.19198634E+03</pdfrwt>
<totfact> 0.45474105E+04</totfact>
</mgrwt>
</event>
<event>
 4    1  0.4199481E+000  0.1916911E+03  0.7546771E-02  0.1156945E+00
         21   -1    0    0  503  502  0.00000000000E+00  0.00000000000E+00  0.56492723268E+03  0.56492723268E+03  0.00000000000E+00 0.  1.
         21   -1    0    0  501  503 -0.00000000000E+00 -0.00000000000E+00 -0.71265181952E+02  0.71265181952E+02  0.00000000000E+00 0.  1.
          6    1    1    2  501    0 -0.82189984578E+02 -0.78282045744E+01  0.15285116914E+03  0.24517127535E+03  0.17300000000E+03 0.  1.
         -6    1    1    2    0  502  0.82189984578E+02  0.78282045744E+01  0.34081088159E+03  0.39102113928E+03  0.17300000000E+03 0.  1.
<mgrwt>
<rscale>  2 0.19169109E+03</rscale>
<asrwt>0</asrwt>
<pdfrwt beam="1">  1       21 0.86911879E-01 0.19169109E+03</pdfrwt>
<pdfrwt beam="2">  1       21 0.10963874E-01 0.19169109E+03</pdfrwt>
<totfact> 0.78530678E+04</totfact>
</mgrwt>
</event>
<event>
 4    1  0.4199481E+000  0.2201352E+03  0.7546771E-02  0.1133782E+00
         21   -1    0    0  501  502  0.00000000000E+00  0.00000000000E+00  0.97871720528E+03  0.97871720528E+03  0.00000000000E+00 0. -1.
         21   -1    0    0  502  503 -0.00000000000E+00 -0.00000000000E+00 -0.68989533116E+02  0.68989533116E+02  0.00000000000E+00 0.  1.
          6    1    1    2  501    0  0.66079480641E+02 -0.11901264337E+03  0.73320071446E+03  0.76553431976E+03  0.17300000000E+03 0. -1.
         -6    1    1    2    0  503 -0.66079480641E+02  0.11901264337E+03  0.17652695770E+03  0.28217241863E+03  0.17300000000E+03 0.  1.
<mgrwt>
<rscale>  2 0.22013520E+03</rscale>
<asrwt>0</asrwt>
<pdfrwt beam="1">  1       21 0.15057187E+00 0.22013520E+03</pdfrwt>
<pdfrwt beam="2">  1       21 0.10613775E-01 0.22013520E+03</pdfrwt>
<totfact> 0.21228679E+04</totfact>
</mgrwt>
</event>
<event>
 4    1  0.4199481E+000  0.2203500E+03  0.7546771E-02  0.1133622E+00
         21   -1    0    0  503  502  0.00000000000E+00  0.00000000000E+00  0.55061973966E+03  0.55061973966E+03  0.00000000000E+00 0. -1.
         21   -1    0    0  501  503 -0.00000000000E+00 -0.00000000000E+00 -0.93443896335E+02  0.93443896335E+02  0.00000000000E+00 0.  1.
          6    1    1    2  501    0  0.13576444528E+03 -0.13897437920E+02  0.15216187272E+03  0.26778229757E+03  0.17300000000E+03 0. -1.
         -6    1    1    2    0  502 -0.13576444528E+03  0.13897437920E+02  0.30501397060E+03  0.37628133842E+03  0.17300000000E+03 0. -1.
<mgrwt>
<rscale>  2 0.22035000E+03</rscale>
<asrwt>0</asrwt>
<pdfrwt beam="1">  1       21 0.84710727E-01 0.22035000E+03</pdfrwt>
<pdfrwt beam="2">  1       21 0.14375984E-01 0.22035000E+03</pdfrwt>
<totfact> 0.50492573E+04</totfact>
</mgrwt>
</event>
<event>
 4    1  0.4199481E+000  0.1757284E+03  0.7546771E-02  0.1172002E+00
         21   -1    0    0  501  502  0.00000000000E+00  0.00000000000E+00  0.67153039634E+03  0.67153039634E+03  0.00000000000E+00 0.  1.
         21   -1    0    0  502  503 -0.00000000000E+00 -0.00000000000E+00 -0.52959900742E+02  0.52959900742E+02  0.00000000000E+00 0.  1.
          6    1    1    2  501    0  0.24494581822E+02 -0.18747887067E+02  0.44074457473E+03  0.47448524525E+03  0.17300000000E+03 0.  1.
         -6    1    1    2    0  503 -0.24494581822E+02  0.18747887067E+02  0.17782592087E+03  0.25000505183E+03  0.17300000000E+03 0.  1.
<mgrwt>
<rscale>  2 0.17572839E+03</rscale>
<asrwt>0</asrwt>
<pdfrwt beam="1">  1       21 0.10331236E+00 0.17572839E+03</pdfrwt>
<pdfrwt beam="2">  1       21 0.81476775E-02 0.17572839E+03</pdfrwt>
<totfact> 0.88939117E+04</totfact>
</mgrwt>
</event>
<event>
 4    1  0.4199481E+000  0.2370390E+03  0.7546771E-02  0.1121781E+00
         21   -1    0    0  503  502  0.00000000000E+00  0.00000000000E+00  0.90511704007E+03  0.90511704007E+03  0.00000000000E+00 0. -1.
         21   -1    0    0  501  503 -0.00000000000E+00 -0.00000000000E+00 -0.10721829920E+03  0.10721829920E+03  0.00000000000E+00 0.  1.
          6    1    1    2  501    0  0.11946388759E+03  0.10948462873E+03  0.70518456614E+02  0.24730620107E+03  0.17300000000E+03 0.  1.
         -6    1    1    2    0  502 -0.11946388759E+03 -0.10948462873E+03  0.72738028425E+03  0.76502913819E+03  0.17300000000E+03 0. -1.
<mgrwt>
<rscale>  2 0.23703904E+03</rscale>
<asrwt>0</asrwt>
<pdfrwt beam="1">  1       21 0.13924877E+00 0.23703904E+03</pdfrwt>
<pdfrwt beam="2">  1       21 0.16495124E-01 0.23703904E+03</pdfrwt>
<totfact> 0.11610753E+04</totfact>
</mgrwt>
</event>
<event>
 4    1  0.4199481E+000  0.2567245E+03  0.7546771E-02  0.1109127E+00
         21   -1    0    0  503  502  0.00000000000E+00  0.00000000000E+00  0.73697571777E+02  0.73697571777E+02  0.00000000000E+00 0. -1.
         21   -1    0    0  501  503 -0.00000000000E+00 -0.00000000000E+00 -0.13204302071E+04  0.13204302071E+04  0.00000000000E+00 0.  1.
          6    1    1    2  501    0 -0.18639481026E+03  0.35148587818E+02 -0.22737284716E+03  0.34293710814E+03  0.17300000000E+03 0. -1.
         -6    1    1    2    0  502  0.18639481026E+03 -0.35148587818E+02 -0.10193597882E+04  0.10511906708E+04  0.17300000000E+03 0.  1.
<mgrwt>
<rscale>  2 0.25672446E+03</rscale>
<asrwt>0</asrwt>
<pdfrwt beam="1">  1       21 0.11338089E-01 0.25672446E+03</pdfrwt>
<pdfrwt beam="2">  1       21 0.20314310E+00 0.25672446E+03</pdfrwt>
<totfact> 0.79220712E+03</totfact>
</mgrwt>
</event>
<event>
 4    1  0.4199481E+000  0.1772174E+03  0.7546771E-02  0.1170524E+00
         21   -1    0    0  503  502  0.00000000000E+00  0.00000000000E+00  0.78701099105E+02  0.78701099105E+02  0.00000000000E+00 0.  1.
         21   -1    0    0  501  503 -0.00000000000E+00 -0.00000000000E+00 -0.52849295534E+03  0.52849295534E+03  0.00000000000E+00 0.  1.
          6    1    1    2  501    0  0.25907165887E+01  0.38344602151E+02 -0.37514428542E+03  0.41489668016E+03  0.17300000000E+03 0.  1.
         -6    1    1    2    0  502 -0.25907165887E+01 -0.38344602151E+02 -0.74647570812E+02  0.19229737428E+03  0.17300000000E+03 0.  1.
<mgrwt>
<rscale>  2 0.17721744E+03</rscale>
<asrwt>0</asrwt>
<pdfrwt beam="1">  1       21 0.12107862E-01 0.17721744E+03</pdfrwt>
<pdfrwt beam="2">  1       21 0.81306606E-01 0.17721744E+03</pdfrwt>
<totfact> 0.77077181E+04</totfact>
</mgrwt>
</event>
<event>
 4    1  0.4199481E+000  0.2895154E+03  0.7546771E-02  0.1090602E+00
         21   -1    0    0  501  502  0.00000000000E+00  0.00000000000E+00  0.41530868563E+03  0.41530868563E+03  0.00000000000E+00 0. -1.
         21   -1    0    0  502  503 -0.00000000000E+00 -0.00000000000E+00 -0.20195773273E+03  0.20195773273E+03  0.00000000000E+00 0.  1.
          6    1    1    2  501    0 -0.19207449892E+03 -0.13037476860E+03  0.98728680423E+02  0.30588649163E+03  0.17300000000E+03 0. -1.
         -6    1    1    2    0  503  0.19207449892E+03  0.13037476860E+03  0.11462227247E+03  0.31137992673E+03  0.17300000000E+03 0. -1.
<mgrwt>
<rscale>  2 0.28951545E+03</rscale>
<asrwt>0</asrwt>
<pdfrwt beam="1">  1       21 0.63893644E-01 0.28951545E+03</pdfrwt>
<pdfrwt beam="2">  1       21 0.31070420E-01 0.28951545E+03</pdfrwt>
<totfact> 0.21452548E+04</totfact>
</mgrwt>
</event>
<event>
 4    1  0.4199481E+000  0.2032719E+03  0.7546771E-02  0.1147008E+00
         21   -1    0    0  503  502  0.00000000000E+00  0.00000000000E+00  0.52988503516E+02  0.52988503516E+02  0.00000000000E+00 0.  1.
         21   -1    0    0  501  503 -0.00000000000E+00 -0.00000000000E+00 -0.78085887120E+03  0.78085887120E+03  0.00000000000E+00 0. -1.
          6    1    1    2  501    0  0.88039070953E+02  0.60328848863E+02 -0.34844778109E+03  0.40340464073E+03  0.17300000000E+03 0. -1.
         -6    1    1    2    0  502 -0.88039070953E+02 -0.60328848863E+02 -0.37942258659E+03  0.43044273398E+03  0.17300000000E+03 0. -1.
<mgrwt>
<rscale>  2 0.20327186E+03</rscale>
<asrwt>0</asrwt>
<pdfrwt beam="1">  1       21 0.81520777E-02 0.20327186E+03</pdfrwt>
<pdfrwt beam="2">  1       21 0.12013213E+00 0.20327186E+03</pdfrwt>
<totfact> 0.60831382E+04</totfact>
</mgrwt>
</event>
<event>
 4    1  0.4199481E+000  0.2004677E+03  0.7546771E-02  0.1149345E+00
         21   -1    0    0  503  502  0.00000000000E+00  0.00000000000E+00  0.16286594246E+04  0.16286594246E+04  0.00000000000E+00 0.  1.
         21   -1    0    0  501  503 -0.00000000000E+00 -0.00000000000E+00 -0.25166523669E+02  0.25166523669E+02  0.00000000000E+00 0.  1.
          6    1    1    2  501    0  0.92514559045E+02 -0.41223116060E+02  0.91730138587E+03  0.93895107511E+03  0.17300000000E+03 0.  1.
         -6    1    1    2    0  502 -0.92514559045E+02  0.41223116060E+02  0.68619151510E+03  0.71487487320E+03  0.17300000000E+03 0.  1.
<mgrwt>
<rscale>  2 0.20046768E+03</rscale>
<asrwt>0</asrwt>
<pdfrwt beam="1">  1       21 0.25056291E+00 0.20046768E+03</pdfrwt>
<pdfrwt beam="2">  1       21 0.38717742E-02 0.20046768E+03</pdfrwt>
<totfact> 0.27130772E+04</totfact>
</mgrwt>
</event>
<event>
 4    1  0.4199481E+000  0.1764744E+03  0.7546771E-02  0.1171259E+00
         21   -1    0    0  501  502  0.00000000000E+00  0.00000000000E+00  0.24017731056E+03  0.24017731056E+03  0.00000000000E+00 0. -1.
         21   -1    0    0  502  503 -0.00000000000E+00 -0.00000000000E+00 -0.13674670565E+03  0.13674670565E+03  0.00000000000E+00 0. -1.
          6    1    1    2  501    0 -0.28824769995E+02  0.19579638326E+02  0.94595103894E+02  0.20022852765E+03  0.17300000000E+03 0. -1.
         -6    1    1    2    0  503  0.28824769995E+02 -0.19579638326E+02  0.88355010217E+01  0.17669548857E+03  0.17300000000E+03 0. -1.
<mgrwt>
<rscale>  2 0.17647444E+03</rscale>
<asrwt>0</asrwt>
<pdfrwt beam="1">  1       21 0.36950356E-01 0.17647444E+03</pdfrwt>
<pdfrwt beam="2">  1       21 0.21037955E-01 0.17647444E+03</pdfrwt>
<totfact> 0.14909714E+05</totfact>
</mgrwt>
</event>
<event>
 4    1  0.4199481E+000  0.2426639E+03  0.7546771E-02  0.1118031E+00
         21   -1    0    0  503  502  0.00000000000E+00  0.00000000000E+00  0.39712891452E+03  0.39712891452E+03  0.00000000000E+00 0.  1.
         21   -1    0    0  501  503 -0.00000000000E+00 -0.00000000000E+00 -0.15052485027E+03  0.15052485027E+03  0.00000000000E+00 0.  1.
          6    1    1    2  501    0 -0.12479134862E+03 -0.11568873291E+03  0.89852480221E+02  0.25876481951E+03  0.17300000000E+03 0.  1.
         -6    1    1    2    0  502  0.12479134862E+03  0.11568873291E+03  0.15675158402E+03  0.28888894528E+03  0.17300000000E+03 0.  1.
<mgrwt>
<rscale>  2 0.24266389E+03</rscale>
<asrwt>0</asrwt>
<pdfrwt beam="1">  1       21 0.61096756E-01 0.24266389E+03</pdfrwt>
<pdfrwt beam="2">  1       21 0.23157669E-01 0.24266389E+03</pdfrwt>
<totfact> 0.42645310E+04</totfact>
</mgrwt>
</event>
<event>
 4    1  0.4199481E+000  0.1848158E+03  0.7546771E-02  0.1163222E+00
         21   -1    0    0  503  502  0.00000000000E+00  0.00000000000E+00  0.27320127146E+04  0.27320127146E+04  0.00000000000E+00 0. -1.
         21   -1    0    0  501  503 -0.00000000000E+00 -0.00000000000E+00 -0.32922033224E+02  0.32922033224E+02  0.00000000000E+00 0. -1.
          6    1    1    2  501    0 -0.26594145544E+02 -0.59334961469E+02  0.26077853569E+03  0.31962842631E+03  0.17300000000E+03 0. -1.
         -6    1    1    2    0  502  0.26594145544E+02  0.59334961469E+02  0.24383121457E+04  0.24453063216E+04  0.17300000000E+03 0. -1.
<mgrwt>
<rscale>  2 0.18481582E+03</rscale>
<asrwt>0</asrwt>
<pdfrwt beam="1">  1       21 0.42030947E+00 0.18481582E+03</pdfrwt>
<pdfrwt beam="2">  1       21 0.50649303E-02 0.18481582E+03</pdfrwt>
<totfact> 0.17288494E+03</totfact>
</mgrwt>
</event>
<event>
 4    1  0.4199481E+000  0.1893101E+03  0.7546771E-02  0.1159085E+00
         21   -1    0    0  501  502  0.00000000000E+00  0.00000000000E+00  0.41131415881E+02  0.41131415881E+02  0.00000000000E+00 0. -1.
         21   -1    0    0  502  503 -0.00000000000E+00 -0.00000000000E+00 -0.87503548621E+03  0.87503548621E+03  0.00000000000E+00 0. -1.
          6    1    1    2  501    0 -0.64215931141E+02  0.42256742280E+02 -0.38707237404E+03  0.43088669140E+03  0.17300000000E+03 0.  1.
         -6    1    1    2    0  503  0.64215931141E+02 -0.42256742280E+02 -0.44683169629E+03  0.48528021070E+03  0.17300000000E+03 0.  1.
<mgrwt>
<rscale>  2 0.18931011E+03</rscale>
<asrwt>0</asrwt>
<pdfrwt beam="1">  1       21 0.63279110E-02 0.18931011E+03</pdfrwt>
<pdfrwt beam="2">  1       21 0.13462083E+00 0.18931011E+03</pdfrwt>
<totfact> 0.71330592E+04</totfact>
</mgrwt>
</event>
<event>
 4    1  0.4199481E+000  0.2360554E+03  0.7546771E-02  0.1122449E+00
         21   -1    0    0  501  502  0.00000000000E+00  0.00000000000E+00  0.42889861075E+03  0.42889861075E+03  0.00000000000E+00 0.  1.
         21   -1    0    0  502  503 -0.00000000000E+00 -0.00000000000E+00 -0.32376528240E+03  0.32376528240E+03  0.00000000000E+00 0.  1.
          6    1    1    2  501    0 -0.15704666903E+03 -0.33607807173E+02  0.34376207323E+03  0.41700659941E+03  0.17300000000E+03 0.  1.
         -6    1    1    2    0  503  0.15704666903E+03  0.33607807173E+02 -0.23862874488E+03  0.33565729374E+03  0.17300000000E+03 0.  1.
<mgrwt>
<rscale>  2 0.23605538E+03</rscale>
<asrwt>0</asrwt>
<pdfrwt beam="1">  1       21 0.65984402E-01 0.23605538E+03</pdfrwt>
<pdfrwt beam="2">  1       21 0.49810043E-01 0.23605538E+03</pdfrwt>
<totfact> 0.78682426E+03</totfact>
</mgrwt>
</event>
<event>
 4    1  0.4199481E+000  0.2172109E+03  0.7546771E-02  0.1135980E+00
         21   -1    0    0  503  502  0.00000000000E+00  0.00000000000E+00  0.12404837090E+03  0.12404837090E+03  0.00000000000E+00 0. -1.
         21   -1    0    0  501  503 -0.00000000000E+00 -0.00000000000E+00 -0.38515853071E+03  0.38515853071E+03  0.00000000000E+00 0. -1.
          6    1    1    2  501    0  0.12156773700E+03 -0.49727990022E+02 -0.15903185723E+03  0.26920571926E+03  0.17300000000E+03 0. -1.
         -6    1    1    2    0  502 -0.12156773700E+03  0.49727990022E+02 -0.10207830258E+03  0.24000118235E+03  0.17300000000E+03 0. -1.
<mgrwt>
<rscale>  2 0.21721093E+03</rscale>
<asrwt>0</asrwt>
<pdfrwt beam="1">  1       21 0.19084365E-01 0.21721093E+03</pdfrwt>
<pdfrwt beam="2">  1       21 0.59255158E-01 0.21721093E+03</pdfrwt>
<totfact> 0.66313280E+04</totfact>
</mgrwt>
</event>
<event>
 4    1  0.4199481E+000  0.1829080E+03  0.7546771E-02  0.1165018E+00
         21   -1    0    0  501  502  0.00000000000E+00  0.00000000000E+00  0.20213770094E+03  0.20213770094E+03  0.00000000000E+00 0. -1.
         21   -1    0    0  502  503 -0.00000000000E+00 -0.00000000000E+00 -0.16871386505E+03  0.16871386505E+03  0.00000000000E+00 0. -1.
          6    1    1    2  501    0  0.57715181744E+02 -0.13975297412E+02  0.42273394531E+02  0.18772956887E+03  0.17300000000E+03 0. -1.
         -6    1    1    2    0  503 -0.57715181744E+02  0.13975297412E+02 -0.88495586426E+01  0.18312199712E+03  0.17300000000E+03 0. -1.
<mgrwt>
<rscale>  2 0.18290804E+03</rscale>
<asrwt>0</asrwt>
<pdfrwt beam="1">  1       21 0.31098108E-01 0.18290804E+03</pdfrwt>
<pdfrwt beam="2">  1       21 0.25955979E-01 0.18290804E+03</pdfrwt>
<totfact> 0.14048985E+05</totfact>
</mgrwt>
</event>
<event>
 4    1  0.4199481E+000  0.1842934E+03  0.7546771E-02  0.1163711E+00
         21   -1    0    0  503  502  0.00000000000E+00  0.00000000000E+00  0.32918106309E+03  0.32918106309E+03  0.00000000000E+00 0.  1.
         21   -1    0    0  501  503 -0.00000000000E+00 -0.00000000000E+00 -0.21424672902E+03  0.21424672902E+03  0.00000000000E+00 0.  1.
          6    1    1    2  501    0  0.57244245739E+02  0.27534292710E+02 -0.13817022068E+03  0.23033682039E+03  0.17300000000E+03 0.  1.
         -6    1    1    2    0  502 -0.57244245739E+02 -0.27534292710E+02  0.25310455475E+03  0.31309097173E+03  0.17300000000E+03 0.  1.
<mgrwt>
<rscale>  2 0.18429336E+03</rscale>
<asrwt>0</asrwt>
<pdfrwt beam="1">  1       21 0.50643241E-01 0.18429336E+03</pdfrwt>
<pdfrwt beam="2">  1       21 0.32961035E-01 0.18429336E+03</pdfrwt>
<totfact> 0.33020404E+04</totfact>
</mgrwt>
</event>
<event>
 4    1  0.4199481E+000  0.1831398E+03  0.7546771E-02  0.1164799E+00
         21   -1    0    0  501  502  0.00000000000E+00  0.00000000000E+00  0.26483980654E+03  0.26483980654E+03  0.00000000000E+00 0. -1.
         21   -1    0    0  502  503 -0.00000000000E+00 -0.00000000000E+00 -0.17736742079E+03  0.17736742079E+03  0.00000000000E+00 0. -1.
          6    1    1    2  501    0  0.57473612111E+02 -0.17548616705E+02  0.16197674654E+03  0.24449261023E+03  0.17300000000E+03 0. -1.
         -6    1    1    2    0  503 -0.57473612111E+02  0.17548616705E+02 -0.74504360791E+02  0.19771461710E+03  0.17300000000E+03 0. -1.
<mgrwt>
<rscale>  2 0.18313976E+03</rscale>
<asrwt>0</asrwt>
<pdfrwt beam="1">  1       21 0.40744586E-01 0.18313976E+03</pdfrwt>
<pdfrwt beam="2">  1       21 0.27287295E-01 0.18313976E+03</pdfrwt>
<totfact> 0.74602069E+04</totfact>
</mgrwt>
</event>
<event>
 4    1  0.4199481E+000  0.1855967E+03  0.7546771E-02  0.1162494E+00
         21   -1    0    0  503  502  0.00000000000E+00  0.00000000000E+00  0.47139723891E+02  0.47139723891E+02  0.00000000000E+00 0.  1.
         21   -1    0    0  501  503 -0.00000000000E+00 -0.00000000000E+00 -0.11470544430E+04  0.11470544430E+04  0.00000000000E+00 0.  1.
          6    1    1    2  501    0 -0.45504151670E+01  0.67055506468E+02 -0.90968333692E+03  0.92842335209E+03  0.17300000000E+03 0.  1.
         -6    1    1    2    0  502  0.45504151670E+01 -0.67055506468E+02 -0.19023138214E+03  0.26577081476E+03  0.17300000000E+03 0.  1.
<mgrwt>
<rscale>  2 0.18559673E+03</rscale>
<asrwt>0</asrwt>
<pdfrwt beam="1">  1       21 0.72522657E-02 0.18559673E+03</pdfrwt>
<pdfrwt beam="2">  1       21 0.17646990E+00 0.18559673E+03</pdfrwt>
<totfact> 0.27503051E+04</totfact>
</mgrwt>
</event>
<event>
 4    1  0.4199481E+000  0.1756677E+03  0.7546771E-02  0.1172063E+00
         21   -1    0    0  501  502  0.00000000000E+00  0.00000000000E+00  0.10178127502E+03  0.10178127502E+03  0.00000000000E+00 0.  1.
         21   -1    0    0  502  503 -0.00000000000E+00 -0.00000000000E+00 -0.30319210307E+03  0.30319210307E+03  0.00000000000E+00 0.  1.
          6    1    1    2  501    0 -0.16664544376E+02 -0.25542662403E+02 -0.10026772710E+03  0.20226900835E+03  0.17300000000E+03 0. -1.
         -6    1    1    2    0  503  0.16664544376E+02  0.25542662403E+02 -0.10114310096E+03  0.20270436974E+03  0.17300000000E+03 0. -1.
<mgrwt>
<rscale>  2 0.17566768E+03</rscale>
<asrwt>0</asrwt>
<pdfrwt beam="1">  1       21 0.15658658E-01 0.17566768E+03</pdfrwt>
<pdfrwt beam="2">  1       21 0.46644939E-01 0.17566768E+03</pdfrwt>
<totfact> 0.16049282E+05</totfact>
</mgrwt>
</event>
<event>
 4    1  0.4199481E+000  0.1915286E+03  0.7546771E-02  0.1157090E+00
         21   -1    0    0  503  502  0.00000000000E+00  0.00000000000E+00  0.21681103896E+03  0.21681103896E+03  0.00000000000E+00 0.  1.
         21   -1    0    0  501  503 -0.00000000000E+00 -0.00000000000E+00 -0.22623485084E+03  0.22623485084E+03  0.00000000000E+00 0.  1.
          6    1    1    2  501    0 -0.76498659432E+02  0.30036259059E+02 -0.11594404650E+03  0.22388890922E+03  0.17300000000E+03 0.  1.
         -6    1    1    2    0  502  0.76498659432E+02 -0.30036259059E+02  0.10652023462E+03  0.21915698058E+03  0.17300000000E+03 0.  1.
<mgrwt>
<rscale>  2 0.19152864E+03</rscale>
<asrwt>0</asrwt>
<pdfrwt beam="1">  1       21 0.33355545E-01 0.19152864E+03</pdfrwt>
<pdfrwt beam="2">  1       21 0.34805361E-01 0.19152864E+03</pdfrwt>
<totfact> 0.68909236E+04</totfact>
</mgrwt>
</event>
<event>
 4    1  0.4199481E+000  0.2170325E+03  0.7546771E-02  0.1136115E+00
         21   -1    0    0  503  502  0.00000000000E+00  0.00000000000E+00  0.62018054109E+03  0.62018054109E+03  0.00000000000E+00 0. -1.
         21   -1    0    0  501  503 -0.00000000000E+00 -0.00000000000E+00 -0.12283217771E+03  0.12283217771E+03  0.00000000000E+00 0.  1.
          6    1    1    2  501    0  0.85845588317E+02 -0.99018312114E+02  0.19159097304E+02  0.21787648376E+03  0.17300000000E+03 0.  1.
         -6    1    1    2    0  502 -0.85845588317E+02  0.99018312114E+02  0.47818926607E+03  0.52513623504E+03  0.17300000000E+03 0. -1.
<mgrwt>
<rscale>  2 0.21703247E+03</rscale>
<asrwt>0</asrwt>
<pdfrwt beam="1">  1       21 0.95412389E-01 0.21703247E+03</pdfrwt>
<pdfrwt beam="2">  1       21 0.18897258E-01 0.21703247E+03</pdfrwt>
<totfact> 0.23192523E+04</totfact>
</mgrwt>
</event>
<event>
 4    1  0.4199481E+000  0.1801371E+03  0.7546771E-02  0.1167670E+00
         21   -1    0    0  501  502  0.00000000000E+00  0.00000000000E+00  0.17297519977E+03  0.17297519977E+03  0.00000000000E+00 0.  1.
         21   -1    0    0  502  503 -0.00000000000E+00 -0.00000000000E+00 -0.33876469530E+03  0.33876469530E+03  0.00000000000E+00 0.  1.
          6    1    1    2  501    0 -0.24791907348E+02  0.43654736568E+02  0.88028766033E+02  0.20049548210E+03  0.17300000000E+03 0.  1.
         -6    1    1    2    0  503  0.24791907348E+02 -0.43654736568E+02 -0.25381826157E+03  0.31124441296E+03  0.17300000000E+03 0.  1.
<mgrwt>
<rscale>  2 0.18013710E+03</rscale>
<asrwt>0</asrwt>
<pdfrwt beam="1">  1       21 0.26611570E-01 0.18013710E+03</pdfrwt>
<pdfrwt beam="2">  1       21 0.52117644E-01 0.18013710E+03</pdfrwt>
<totfact> 0.47233869E+04</totfact>
</mgrwt>
</event>
<event>
 4    1  0.4199481E+000  0.1761081E+03  0.7546771E-02  0.1171624E+00
         21   -1    0    0  503  502  0.00000000000E+00  0.00000000000E+00  0.10549480856E+03  0.10549480856E+03  0.00000000000E+00 0. -1.
         21   -1    0    0  501  503 -0.00000000000E+00 -0.00000000000E+00 -0.59541843455E+03  0.59541843455E+03  0.00000000000E+00 0. -1.
          6    1    1    2  501    0 -0.10477683317E+02 -0.31229482983E+02 -0.49431657925E+03  0.52475036253E+03  0.17300000000E+03 0. -1.
         -6    1    1    2    0  502  0.10477683317E+02  0.31229482983E+02  0.43929532556E+01  0.17616288058E+03  0.17300000000E+03 0. -1.
<mgrwt>
<rscale>  2 0.17610810E+03</rscale>
<asrwt>0</asrwt>
<pdfrwt beam="1">  1       21 0.16229971E-01 0.17610810E+03</pdfrwt>
<pdfrwt beam="2">  1       21 0.91602835E-01 0.17610810E+03</pdfrwt>
<totfact> 0.34565888E+04</totfact>
</mgrwt>
</event>
<event>
 4    1  0.4199481E+000  0.1840960E+03  0.7546771E-02  0.1163897E+00
         21   -1    0    0  503  502  0.00000000000E+00  0.00000000000E+00  0.17162832007E+03  0.17162832007E+03  0.00000000000E+00 0.  1.
         21   -1    0    0  501  503 -0.00000000000E+00 -0.00000000000E+00 -0.51565241019E+03  0.51565241019E+03  0.00000000000E+00 0.  1.
          6    1    1    2  501    0 -0.28068681896E+02  0.56342429378E+02 -0.44195016758E+03  0.47876013919E+03  0.17300000000E+03 0.  1.
         -6    1    1    2    0  502  0.28068681896E+02 -0.56342429378E+02  0.97926077467E+02  0.20852059107E+03  0.17300000000E+03 0.  1.
<mgrwt>
<rscale>  2 0.18409595E+03</rscale>
<asrwt>0</asrwt>
<pdfrwt beam="1">  1       21 0.26404357E-01 0.18409595E+03</pdfrwt>
<pdfrwt beam="2">  1       21 0.79331139E-01 0.18409595E+03</pdfrwt>
<totfact> 0.19221107E+04</totfact>
</mgrwt>
</event>
<event>
 4    1  0.4199481E+000  0.1982789E+03  0.7546771E-02  0.1151199E+00
         21   -1    0    0  501  502  0.00000000000E+00  0.00000000000E+00  0.98684099860E+02  0.98684099860E+02  0.00000000000E+00 0. -1.
         21   -1    0    0  502  503 -0.00000000000E+00 -0.00000000000E+00 -0.68354877287E+03  0.68354877287E+03  0.00000000000E+00 0. -1.
          6    1    1    2  501    0 -0.92514323832E+02 -0.28750697683E+02 -0.39812961831E+02  0.20223643258E+03  0.17300000000E+03 0. -1.
         -6    1    1    2    0  503  0.92514323832E+02  0.28750697683E+02 -0.54505171118E+03  0.57999644015E+03  0.17300000000E+03 0. -1.
<mgrwt>
<rscale>  2 0.19827885E+03</rscale>
<asrwt>0</asrwt>
<pdfrwt beam="1">  1       21 0.15182169E-01 0.19827885E+03</pdfrwt>
<pdfrwt beam="2">  1       21 0.10516135E+00 0.19827885E+03</pdfrwt>
<totfact> 0.27842021E+04</totfact>
</mgrwt>
</event>
<event>
 4    1  0.4199481E+000  0.1851480E+03  0.7546771E-02  0.1162912E+00
         21   -1    0    0  501  502  0.00000000000E+00  0.00000000000E+00  0.19310942270E+03  0.19310942270E+03  0.00000000000E+00 0. -1.
         21   -1    0    0  502  503 -0.00000000000E+00 -0.00000000000E+00 -0.25502909587E+03  0.25502909587E+03  0.00000000000E+00 0. -1.
          6    1    1    2  501    0  0.25353117234E+02  0.60893298990E+02  0.92571859697E+02  0.20700078170E+03  0.17300000000E+03 0. -1.
         -6    1    1    2    0  503 -0.25353117234E+02 -0.60893298990E+02 -0.15449153287E+03  0.24113773687E+03  0.17300000000E+03 0. -1.
<mgrwt>
<rscale>  2 0.18514798E+03</rscale>
<asrwt>0</asrwt>
<pdfrwt beam="1">  1       21 0.29709142E-01 0.18514798E+03</pdfrwt>
<pdfrwt beam="2">  1       21 0.39235245E-01 0.18514798E+03</pdfrwt>
<totfact> 0.68233088E+04</totfact>
</mgrwt>
</event>
<event>
 4    1  0.4199481E+000  0.2206093E+03  0.7546771E-02  0.1133430E+00
         21   -1    0    0  501  502  0.00000000000E+00  0.00000000000E+00  0.49498925341E+03  0.49498925341E+03  0.00000000000E+00 0. -1.
         21   -1    0    0  502  503 -0.00000000000E+00 -0.00000000000E+00 -0.10310242649E+03  0.10310242649E+03  0.00000000000E+00 0. -1.
          6    1    1    2  501    0  0.13563030207E+03 -0.18544400719E+02  0.26033420626E+03  0.34123653466E+03  0.17300000000E+03 0. -1.
         -6    1    1    2    0  503 -0.13563030207E+03  0.18544400719E+02  0.13155262066E+03  0.25685514525E+03  0.17300000000E+03 0. -1.
<mgrwt>
<rscale>  2 0.22060932E+03</rscale>
<asrwt>0</asrwt>
<pdfrwt beam="1">  1       21 0.76152192E-01 0.22060932E+03</pdfrwt>
<pdfrwt beam="2">  1       21 0.15861912E-01 0.22060932E+03</pdfrwt>
<totfact> 0.53718785E+04</totfact>
</mgrwt>
</event>
<event>
 4    1  0.4199481E+000  0.2118834E+03  0.7546771E-02  0.1140083E+00
         21   -1    0    0  503  502  0.00000000000E+00  0.00000000000E+00  0.71951029207E+02  0.71951029207E+02  0.00000000000E+00 0.  1.
         21   -1    0    0  501  503 -0.00000000000E+00 -0.00000000000E+00 -0.74947935789E+03  0.74947935789E+03  0.00000000000E+00 0. -1.
          6    1    1    2  501    0 -0.19976110505E+02  0.12069187198E+03 -0.50684417796E+03  0.54935015580E+03  0.17300000000E+03 0. -1.
         -6    1    1    2    0  502  0.19976110505E+02 -0.12069187198E+03 -0.17068415073E+03  0.27208023129E+03  0.17300000000E+03 0.  1.
<mgrwt>
<rscale>  2 0.21188339E+03</rscale>
<asrwt>0</asrwt>
<pdfrwt beam="1">  1       21 0.11069389E-01 0.21188339E+03</pdfrwt>
<pdfrwt beam="2">  1       21 0.11530452E+00 0.21188339E+03</pdfrwt>
<totfact> 0.39062517E+04</totfact>
</mgrwt>
</event>
<event>
 4    1  0.4199481E+000  0.1747003E+03  0.7546771E-02  0.1173033E+00
         21   -1    0    0  503  502  0.00000000000E+00  0.00000000000E+00  0.69493193557E+03  0.69493193557E+03  0.00000000000E+00 0.  1.
         21   -1    0    0  501  503 -0.00000000000E+00 -0.00000000000E+00 -0.49622455106E+02  0.49622455106E+02  0.00000000000E+00 0.  1.
          6    1    1    2  501    0  0.13981158477E+02 -0.19892833801E+02  0.19643574937E+03  0.26288248565E+03  0.17300000000E+03 0.  1.
         -6    1    1    2    0  502 -0.13981158477E+02  0.19892833801E+02  0.44887373109E+03  0.48167190503E+03  0.17300000000E+03 0.  1.
<mgrwt>
<rscale>  2 0.17470031E+03</rscale>
<asrwt>0</asrwt>
<pdfrwt beam="1">  1       21 0.10691260E+00 0.17470031E+03</pdfrwt>
<pdfrwt beam="2">  1       21 0.76342244E-02 0.17470031E+03</pdfrwt>
<totfact> 0.91777302E+04</totfact>
</mgrwt>
</event>
<event>
 4    1  0.4199481E+000  0.2171739E+03  0.7546771E-02  0.1136008E+00
         21   -1    0    0  503  502  0.00000000000E+00  0.00000000000E+00  0.25467949896E+02  0.25467949896E+02  0.00000000000E+00 0.  1.
         21   -1    0    0  501  503 -0.00000000000E+00 -0.00000000000E+00 -0.19123853305E+04  0.19123853305E+04  0.00000000000E+00 0. -1.
          6    1    1    2  501    0 -0.70409595951E+02  0.11080617153E+03 -0.77116528016E+03  0.80116191133E+03  0.17300000000E+03 0. -1.
         -6    1    1    2    0  502  0.70409595951E+02 -0.11080617153E+03 -0.11157521004E+04  0.11366913690E+04  0.17300000000E+03 0. -1.
<mgrwt>
<rscale>  2 0.21717394E+03</rscale>
<asrwt>0</asrwt>
<pdfrwt beam="1">  1       21 0.39181450E-02 0.21717394E+03</pdfrwt>
<pdfrwt beam="2">  1       21 0.29421322E+00 0.21717394E+03</pdfrwt>
<totfact> 0.14598636E+04</totfact>
</mgrwt>
</event>
<event>
 4    1  0.4199481E+000  0.1826589E+03  0.7546771E-02  0.1165254E+00
         21   -1    0    0  501  502  0.00000000000E+00  0.00000000000E+00  0.36917839167E+02  0.36917839167E+02  0.00000000000E+00 0. -1.
         21   -1    0    0  502  503 -0.00000000000E+00 -0.00000000000E+00 -0.96278287644E+03  0.96278287644E+03  0.00000000000E+00 0. -1.
          6    1    1    2  501    0 -0.56581596190E+02  0.15289993708E+02 -0.33915369940E+03  0.38521356772E+03  0.17300000000E+03 0. -1.
         -6    1    1    2    0  503  0.56581596190E+02 -0.15289993708E+02 -0.58671133787E+03  0.61448714789E+03  0.17300000000E+03 0. -1.
<mgrwt>
<rscale>  2 0.18265886E+03</rscale>
<asrwt>0</asrwt>
<pdfrwt beam="1">  1       21 0.56796679E-02 0.18265886E+03</pdfrwt>
<pdfrwt beam="2">  1       21 0.14812043E+00 0.18265886E+03</pdfrwt>
<totfact> 0.67260383E+04</totfact>
</mgrwt>
</event>
<event>
 4    1  0.4199481E+000  0.3758037E+03  0.7546771E-02  0.1052496E+00
         21   -1    0    0  503  502  0.00000000000E+00  0.00000000000E+00  0.12835918799E+04  0.12835918799E+04  0.00000000000E+00 0.  1.
         21   -1    0    0  501  503 -0.00000000000E+00 -0.00000000000E+00 -0.21911881321E+03  0.21911881321E+03  0.00000000000E+00 0. -1.
          6    1    1    2  501    0  0.31820788715E+03  0.10021543674E+03  0.20804451761E+01  0.37580942172E+03  0.17300000000E+03 0. -1.
         -6    1    1    2    0  502 -0.31820788715E+03 -0.10021543674E+03  0.10623926215E+04  0.11269012714E+04  0.17300000000E+03 0.  1.
<mgrwt>
<rscale>  2 0.37580366E+03</rscale>
<asrwt>0</asrwt>
<pdfrwt beam="1">  1       21 0.19747567E+00 0.37580366E+03</pdfrwt>
<pdfrwt beam="2">  1       21 0.33710587E-01 0.37580366E+03</pdfrwt>
<totfact> 0.10240913E+03</totfact>
</mgrwt>
</event>
<event>
 4    1  0.4199481E+000  0.1885845E+03  0.7546771E-02  0.1159744E+00
         21   -1    0    0  501  502  0.00000000000E+00  0.00000000000E+00  0.50861776988E+03  0.50861776988E+03  0.00000000000E+00 0. -1.
         21   -1    0    0  502  503 -0.00000000000E+00 -0.00000000000E+00 -0.79218075457E+02  0.79218075457E+02  0.00000000000E+00 0. -1.
          6    1    1    2  501    0 -0.87612469930E+01  0.74554486519E+02  0.31537865456E+03  0.36746132676E+03  0.17300000000E+03 0. -1.
         -6    1    1    2    0  503  0.87612469930E+01 -0.74554486519E+02  0.11402103986E+03  0.22037451858E+03  0.17300000000E+03 0. -1.
<mgrwt>
<rscale>  2 0.18858455E+03</rscale>
<asrwt>0</asrwt>
<pdfrwt beam="1">  1       21 0.78248886E-01 0.18858455E+03</pdfrwt>
<pdfrwt beam="2">  1       21 0.12187397E-01 0.18858455E+03</pdfrwt>
<totfact> 0.82659038E+04</totfact>
</mgrwt>
</event>
<event>
 4    1  0.4199481E+000  0.2434549E+03  0.7546771E-02  0.1117512E+00
         21   -1    0    0  503  502  0.00000000000E+00  0.00000000000E+00  0.17485010230E+03  0.17485010230E+03  0.00000000000E+00 0.  1.
         21   -1    0    0  501  503 -0.00000000000E+00 -0.00000000000E+00 -0.34278434598E+03  0.34278434598E+03  0.00000000000E+00 0. -1.
          6    1    1    2  501    0  0.15208078350E+03 -0.78820792273E+02 -0.56692729875E+02  0.24996869329E+03  0.17300000000E+03 0. -1.
         -6    1    1    2    0  502 -0.15208078350E+03  0.78820792273E+02 -0.11124151380E+03  0.26766575499E+03  0.17300000000E+03 0. -1.
<mgrwt>
<rscale>  2 0.24345489E+03</rscale>
<asrwt>0</asrwt>
<pdfrwt beam="1">  1       21 0.26900016E-01 0.24345489E+03</pdfrwt>
<pdfrwt beam="2">  1       21 0.52736053E-01 0.24345489E+03</pdfrwt>
<totfact> 0.43812854E+04</totfact>
</mgrwt>
</event>
<event>
 4    1  0.4199481E+000  0.2039132E+03  0.7546771E-02  0.1146479E+00
         21   -1    0    0  503  502  0.00000000000E+00  0.00000000000E+00  0.14593000826E+03  0.14593000826E+03  0.00000000000E+00 0.  1.
         21   -1    0    0  501  503 -0.00000000000E+00 -0.00000000000E+00 -0.40511273564E+03  0.40511273564E+03  0.00000000000E+00 0.  1.
          6    1    1    2  501    0  0.10046037531E+03 -0.39488099091E+02 -0.27965621429E+03  0.34610431256E+03  0.17300000000E+03 0.  1.
         -6    1    1    2    0  502 -0.10046037531E+03  0.39488099091E+02  0.20473486910E+02  0.20493843135E+03  0.17300000000E+03 0.  1.
<mgrwt>
<rscale>  2 0.20391321E+03</rscale>
<asrwt>0</asrwt>
<pdfrwt beam="1">  1       21 0.22450770E-01 0.20391321E+03</pdfrwt>
<pdfrwt beam="2">  1       21 0.62325036E-01 0.20391321E+03</pdfrwt>
<totfact> 0.44102646E+04</totfact>
</mgrwt>
</event>
<event>
 4    1  0.4199481E+000  0.5290507E+03  0.7546771E-02  0.1006463E+00
         21   -1    0    0  503  502  0.00000000000E+00  0.00000000000E+00  0.33629354628E+03  0.33629354628E+03  0.00000000000E+00 0.  1.
         21   -1    0    0  501  503 -0.00000000000E+00 -0.00000000000E+00 -0.89512757954E+03  0.89512757954E+03  0.00000000000E+00 0. -1.
          6    1    1    2  501    0 -0.49985841459E+03  0.10353383147E+02 -0.11628661590E+03  0.54167998322E+03  0.17300000000E+03 0.  1.
         -6    1    1    2    0  502  0.49985841459E+03 -0.10353383147E+02 -0.44254741736E+03  0.68974114260E+03  0.17300000000E+03 0. -1.
<mgrwt>
<rscale>  2 0.52905068E+03</rscale>
<asrwt>0</asrwt>
<pdfrwt beam="1">  1       21 0.51737469E-01 0.52905068E+03</pdfrwt>
<pdfrwt beam="2">  1       21 0.13771193E+00 0.52905068E+03</pdfrwt>
<totfact> 0.10904395E+03</totfact>
</mgrwt>
</event>
<event>
 4    1  0.4199481E+000  0.2014538E+03  0.7546771E-02  0.1148518E+00
         21   -1    0    0  501  502  0.00000000000E+00  0.00000000000E+00  0.22707745884E+03  0.22707745884E+03  0.00000000000E+00 0.  1.
         21   -1    0    0  502  503 -0.00000000000E+00 -0.00000000000E+00 -0.26720035927E+03  0.26720035927E+03  0.00000000000E+00 0. -1.
          6    1    1    2  501    0  0.92497987089E+02 -0.45812160050E+02  0.12215252692E+03  0.23559471865E+03  0.17300000000E+03 0. -1.
         -6    1    1    2    0  503 -0.92497987089E+02  0.45812160050E+02 -0.16227542735E+03  0.25868309946E+03  0.17300000000E+03 0. -1.
<mgrwt>
<rscale>  2 0.20145380E+03</rscale>
<asrwt>0</asrwt>
<pdfrwt beam="1">  1       21 0.34934994E-01 0.20145380E+03</pdfrwt>
<pdfrwt beam="2">  1       21 0.41107748E-01 0.20145380E+03</pdfrwt>
<totfact> 0.44818888E+04</totfact>
</mgrwt>
</event>
<event>
 4    1  0.4199481E+000  0.1763500E+03  0.7546771E-02  0.1171383E+00
         21   -1    0    0  503  502  0.00000000000E+00  0.00000000000E+00  0.18392853572E+04  0.18392853572E+04  0.00000000000E+00 0.  1.
         21   -1    0    0  501  503 -0.00000000000E+00 -0.00000000000E+00 -0.17226548887E+02  0.17226548887E+02  0.00000000000E+00 0.  1.
          6    1    1    2  501    0  0.16652110362E+02 -0.29883865789E+02  0.10371821018E+04  0.10520675123E+04  0.17300000000E+03 0.  1.
         -6    1    1    2    0  502 -0.16652110362E+02  0.29883865789E+02  0.78487670649E+03  0.80444439373E+03  0.17300000000E+03 0.  1.
<mgrwt>
<rscale>  2 0.17635004E+03</rscale>
<asrwt>0</asrwt>
<pdfrwt beam="1">  1       21 0.28296682E+00 0.17635004E+03</pdfrwt>
<pdfrwt beam="2">  1       21 0.26502397E-02 0.17635004E+03</pdfrwt>
<totfact> 0.33723521E+04</totfact>
</mgrwt>
</event>
<event>
 4    1  0.4199481E+000  0.1997278E+03  0.7546771E-02  0.1149969E+00
         21   -1    0    0  503  502  0.00000000000E+00  0.00000000000E+00  0.26908244536E+03  0.26908244536E+03  0.00000000000E+00 0.  1.
         21   -1    0    0  501  503 -0.00000000000E+00 -0.00000000000E+00 -0.30262552767E+03  0.30262552767E+03  0.00000000000E+00 0.  1.
          6    1    1    2  501    0  0.45498202626E+02 -0.88837560104E+02 -0.22093693614E+03  0.29783271862E+03  0.17300000000E+03 0.  1.
         -6    1    1    2    0  502 -0.45498202626E+02  0.88837560104E+02  0.18739385382E+03  0.27387525441E+03  0.17300000000E+03 0.  1.
<mgrwt>
<rscale>  2 0.19972781E+03</rscale>
<asrwt>0</asrwt>
<pdfrwt beam="1">  1       21 0.41397299E-01 0.19972781E+03</pdfrwt>
<pdfrwt beam="2">  1       21 0.46557774E-01 0.19972781E+03</pdfrwt>
<totfact> 0.24723515E+04</totfact>
</mgrwt>
</event>
<event>
 4    1  0.4199481E+000  0.1825569E+03  0.7546771E-02  0.1165351E+00
         21   -1    0    0  501  502  0.00000000000E+00  0.00000000000E+00  0.29558434363E+03  0.29558434363E+03  0.00000000000E+00 0.  1.
         21   -1    0    0  502  503 -0.00000000000E+00 -0.00000000000E+00 -0.20619307987E+03  0.20619307987E+03  0.00000000000E+00 0.  1.
          6    1    1    2  501    0 -0.45144574772E+02 -0.36878151338E+02  0.21359128373E+03  0.28097734279E+03  0.17300000000E+03 0.  1.
         -6    1    1    2    0  503  0.45144574772E+02  0.36878151338E+02 -0.12420001997E+03  0.22080008070E+03  0.17300000000E+03 0.  1.
<mgrwt>
<rscale>  2 0.18255692E+03</rscale>
<asrwt>0</asrwt>
<pdfrwt beam="1">  1       21 0.45474514E-01 0.18255692E+03</pdfrwt>
<pdfrwt beam="2">  1       21 0.31722012E-01 0.18255692E+03</pdfrwt>
<totfact> 0.44526927E+04</totfact>
</mgrwt>
</event>
<event>
 4    1  0.4199481E+000  0.2461003E+03  0.7546771E-02  0.1115794E+00
         21   -1    0    0  501  502  0.00000000000E+00  0.00000000000E+00  0.18402761036E+03  0.18402761036E+03  0.00000000000E+00 0.  1.
         21   -1    0    0  502  503 -0.00000000000E+00 -0.00000000000E+00 -0.35254125008E+03  0.35254125008E+03  0.00000000000E+00 0. -1.
          6    1    1    2  501    0 -0.15206400016E+03 -0.86677092398E+02 -0.15091939822E+02  0.24656265966E+03  0.17300000000E+03 0.  1.
         -6    1    1    2    0  503  0.15206400016E+03  0.86677092398E+02 -0.15342169989E+03  0.29000620078E+03  0.17300000000E+03 0. -1.
<mgrwt>
<rscale>  2 0.24610034E+03</rscale>
<asrwt>0</asrwt>
<pdfrwt beam="1">  1       21 0.28311940E-01 0.24610034E+03</pdfrwt>
<pdfrwt beam="2">  1       21 0.54237115E-01 0.24610034E+03</pdfrwt>
<totfact> 0.37337958E+04</totfact>
</mgrwt>
</event>
<event>
 4    1  0.4199481E+000  0.2837419E+03  0.7546771E-02  0.1093663E+00
         21   -1    0    0  503  502  0.00000000000E+00  0.00000000000E+00  0.23673813952E+03  0.23673813952E+03  0.00000000000E+00 0.  1.
         21   -1    0    0  501  503 -0.00000000000E+00 -0.00000000000E+00 -0.35704766634E+03  0.35704766634E+03  0.00000000000E+00 0.  1.
          6    1    1    2  501    0 -0.12007700808E+03  0.19016301795E+03 -0.12487973092E+03  0.31000711034E+03  0.17300000000E+03 0.  1.
         -6    1    1    2    0  502  0.12007700808E+03 -0.19016301795E+03  0.45702041014E+01  0.28377869552E+03  0.17300000000E+03 0.  1.
<mgrwt>
<rscale>  2 0.28374189E+03</rscale>
<asrwt>0</asrwt>
<pdfrwt beam="1">  1       21 0.36421253E-01 0.28374189E+03</pdfrwt>
<pdfrwt beam="2">  1       21 0.54930409E-01 0.28374189E+03</pdfrwt>
<totfact> 0.21724089E+04</totfact>
</mgrwt>
</event>
<event>
 4    1  0.4199481E+000  0.1876428E+03  0.7546771E-02  0.1160605E+00
         21   -1    0    0  501  502  0.00000000000E+00  0.00000000000E+00  0.41462430592E+02  0.41462430592E+02  0.00000000000E+00 0. -1.
         21   -1    0    0  502  503 -0.00000000000E+00 -0.00000000000E+00 -0.85040656612E+03  0.85040656612E+03  0.00000000000E+00 0. -1.
          6    1    1    2  501    0  0.66450842011E+02  0.29412897644E+02 -0.42127972105E+03  0.46117939711E+03  0.17300000000E+03 0. -1.
         -6    1    1    2    0  503 -0.66450842011E+02 -0.29412897644E+02 -0.38766441447E+03  0.43068959960E+03  0.17300000000E+03 0. -1.
<mgrwt>
<rscale>  2 0.18764283E+03</rscale>
<asrwt>0</asrwt>
<pdfrwt beam="1">  1       21 0.63788353E-02 0.18764283E+03</pdfrwt>
<pdfrwt beam="2">  1       21 0.13083178E+00 0.18764283E+03</pdfrwt>
<totfact> 0.75691381E+04</totfact>
</mgrwt>
</event>
<event>
 4    1  0.4199481E+000  0.3698914E+03  0.7546771E-02  0.1054734E+00
         21   -1    0    0  503  502  0.00000000000E+00  0.00000000000E+00  0.20044761970E+04  0.20044761970E+04  0.00000000000E+00 0.  1.
         21   -1    0    0  501  503 -0.00000000000E+00 -0.00000000000E+00 -0.13741198741E+03  0.13741198741E+03  0.00000000000E+00 0. -1.
          6    1    1    2  501    0  0.14574711323E+03 -0.29265758131E+03  0.17379032707E+03  0.40868417965E+03  0.17300000000E+03 0. -1.
         -6    1    1    2    0  502 -0.14574711323E+03  0.29265758131E+03  0.16932738825E+04  0.17332040047E+04  0.17300000000E+03 0.  1.
<mgrwt>
<rscale>  2 0.36989144E+03</rscale>
<asrwt>0</asrwt>
<pdfrwt beam="1">  1       21 0.30838093E+00 0.36989144E+03</pdfrwt>
<pdfrwt beam="2">  1       21 0.21140307E-01 0.36989144E+03</pdfrwt>
<totfact> 0.53195755E+02</totfact>
</mgrwt>
</event>
<event>
 4    1  0.4199481E+000  0.1915724E+03  0.7546771E-02  0.1157051E+00
         21   -1    0    0  503  502  0.00000000000E+00  0.00000000000E+00  0.58575431367E+03  0.58575431367E+03  0.00000000000E+00 0. -1.
         21   -1    0    0  501  503 -0.00000000000E+00 -0.00000000000E+00 -0.15842788500E+03  0.15842788500E+03  0.00000000000E+00 0. -1.
          6    1    1    2  501    0  0.14508719936E+02  0.80996808431E+02 -0.75642157985E+02  0.20596534173E+03  0.17300000000E+03 0. -1.
         -6    1    1    2    0  502 -0.14508719936E+02 -0.80996808431E+02  0.50296858665E+03  0.53821685693E+03  0.17300000000E+03 0. -1.
<mgrwt>
<rscale>  2 0.19157240E+03</rscale>
<asrwt>0</asrwt>
<pdfrwt beam="1">  1       21 0.90116047E-01 0.19157240E+03</pdfrwt>
<pdfrwt beam="2">  1       21 0.24373521E-01 0.19157240E+03</pdfrwt>
<totfact> 0.16664170E+04</totfact>
</mgrwt>
</event>
<event>
 4    1  0.4199481E+000  0.1942687E+03  0.7546771E-02  0.1154667E+00
         21   -1    0    0  501  502  0.00000000000E+00  0.00000000000E+00  0.10842561515E+03  0.10842561515E+03  0.00000000000E+00 0.  1.
         21   -1    0    0  502  503 -0.00000000000E+00 -0.00000000000E+00 -0.34978441086E+03  0.34978441086E+03  0.00000000000E+00 0.  1.
          6    1    1    2  501    0 -0.17645222218E+02 -0.86602438564E+02 -0.10466716680E+03  0.22067068686E+03  0.17300000000E+03 0. -1.
         -6    1    1    2    0  503  0.17645222218E+02  0.86602438564E+02 -0.13669162891E+03  0.23753933916E+03  0.17300000000E+03 0. -1.
<mgrwt>
<rscale>  2 0.19426872E+03</rscale>
<asrwt>0</asrwt>
<pdfrwt beam="1">  1       21 0.16680864E-01 0.19426872E+03</pdfrwt>
<pdfrwt beam="2">  1       21 0.53812985E-01 0.19426872E+03</pdfrwt>
<totfact> 0.10544869E+05</totfact>
</mgrwt>
</event>
<event>
 4    1  0.4199481E+000  0.2033504E+03  0.7546771E-02  0.1146943E+00
         21   -1    0    0  501  502  0.00000000000E+00  0.00000000000E+00  0.15241119723E+03  0.15241119723E+03  0.00000000000E+00 0. -1.
         21   -1    0    0  502  503 -0.00000000000E+00 -0.00000000000E+00 -0.58140322537E+03  0.58140322537E+03  0.00000000000E+00 0. -1.
          6    1    1    2  501    0 -0.89285467705E+02  0.58740913200E+02  0.53458092170E+02  0.21025973758E+03  0.17300000000E+03 0. -1.
         -6    1    1    2    0  503  0.89285467705E+02 -0.58740913200E+02 -0.48245012031E+03  0.52355468503E+03  0.17300000000E+03 0. -1.
<mgrwt>
<rscale>  2 0.20335041E+03</rscale>
<asrwt>0</asrwt>
<pdfrwt beam="1">  1       21 0.23447877E-01 0.20335041E+03</pdfrwt>
<pdfrwt beam="2">  1       21 0.89446647E-01 0.20335041E+03</pdfrwt>
<totfact> 0.18113658E+04</totfact>
</mgrwt>
</event>
<event>
 4    1  0.4199481E+000  0.2101458E+03  0.7546771E-02  0.1141451E+00
         21   -1    0    0  503  502  0.00000000000E+00  0.00000000000E+00  0.44883253208E+03  0.44883253208E+03  0.00000000000E+00 0.  1.
         21   -1    0    0  501  503 -0.00000000000E+00 -0.00000000000E+00 -0.13548599734E+03  0.13548599734E+03  0.00000000000E+00 0.  1.
          6    1    1    2  501    0  0.11878576007E+03 -0.11054752158E+02  0.38013382152E+01  0.21018019534E+03  0.17300000000E+03 0.  1.
         -6    1    1    2    0  502 -0.11878576007E+03  0.11054752158E+02  0.30954519652E+03  0.37413833408E+03  0.17300000000E+03 0.  1.
<mgrwt>
<rscale>  2 0.21014582E+03</rscale>
<asrwt>0</asrwt>
<pdfrwt beam="1">  1       21 0.69051158E-01 0.21014582E+03</pdfrwt>
<pdfrwt beam="2">  1       21 0.20844000E-01 0.21014582E+03</pdfrwt>
<totfact> 0.40429243E+04</totfact>
</mgrwt>
</event>
<event>
 4    1  0.4199481E+000  0.1775004E+03  0.7546771E-02  0.1170244E+00
         21   -1    0    0  503  502  0.00000000000E+00  0.00000000000E+00  0.96389747855E+03  0.96389747855E+03  0.00000000000E+00 0.  1.
         21   -1    0    0  501  503 -0.00000000000E+00 -0.00000000000E+00 -0.34893684024E+02  0.34893684024E+02  0.00000000000E+00 0.  1.
          6    1    1    2  501    0  0.39505707941E+02  0.40876047271E+01  0.59010291370E+03  0.61622062463E+03  0.17300000000E+03 0.  1.
         -6    1    1    2    0  502 -0.39505707941E+02 -0.40876047271E+01  0.33890088083E+03  0.38257053794E+03  0.17300000000E+03 0.  1.
<mgrwt>
<rscale>  2 0.17750045E+03</rscale>
<asrwt>0</asrwt>
<pdfrwt beam="1">  1       21 0.14829190E+00 0.17750045E+03</pdfrwt>
<pdfrwt beam="2">  1       21 0.53682598E-02 0.17750045E+03</pdfrwt>
<totfact> 0.74010336E+04</totfact>
</mgrwt>
</event>
<event>
 4    1  0.4199481E+000  0.2992374E+03  0.7546771E-02  0.1085622E+00
         21   -1    0    0  501  502  0.00000000000E+00  0.00000000000E+00  0.15305360641E+03  0.15305360641E+03  0.00000000000E+00 0.  1.
         21   -1    0    0  502  503 -0.00000000000E+00 -0.00000000000E+00 -0.61262755463E+03  0.61262755463E+03  0.00000000000E+00 0. -1.
          6    1    1    2  501    0  0.96159012512E+02 -0.22442692608E+03 -0.14855077111E+03  0.33408132608E+03  0.17300000000E+03 0. -1.
         -6    1    1    2    0  503 -0.96159012512E+02  0.22442692608E+03 -0.31102317711E+03  0.43159983496E+03  0.17300000000E+03 0.  1.
<mgrwt>
<rscale>  2 0.29923737E+03</rscale>
<asrwt>0</asrwt>
<pdfrwt beam="1">  1       21 0.23546709E-01 0.29923737E+03</pdfrwt>
<pdfrwt beam="2">  1       21 0.94250393E-01 0.29923737E+03</pdfrwt>
<totfact> 0.15133173E+04</totfact>
</mgrwt>
</event>
<event>
 4    1  0.4199481E+000  0.2380711E+03  0.7546771E-02  0.1121085E+00
         21   -1    0    0  503  502  0.00000000000E+00  0.00000000000E+00  0.99208614471E+03  0.99208614471E+03  0.00000000000E+00 0. -1.
         21   -1    0    0  501  503 -0.00000000000E+00 -0.00000000000E+00 -0.10093869781E+03  0.10093869781E+03  0.00000000000E+00 0.  1.
          6    1    1    2  501    0  0.16281278713E+03 -0.15518699321E+02  0.85533022061E+02  0.25296982339E+03  0.17300000000E+03 0.  1.
         -6    1    1    2    0  502 -0.16281278713E+03  0.15518699321E+02  0.80561442484E+03  0.84005501914E+03  0.17300000000E+03 0. -1.
<mgrwt>
<rscale>  2 0.23807107E+03</rscale>
<asrwt>0</asrwt>
<pdfrwt beam="1">  1       21 0.15262863E+00 0.23807107E+03</pdfrwt>
<pdfrwt beam="2">  1       21 0.15529031E-01 0.23807107E+03</pdfrwt>
<totfact> 0.10183110E+04</totfact>
</mgrwt>
</event>
<event>
 4    1  0.4199481E+000  0.1798729E+03  0.7546771E-02  0.1167926E+00
         21   -1    0    0  501  502  0.00000000000E+00  0.00000000000E+00  0.20493736622E+04  0.20493736622E+04  0.00000000000E+00 0. -1.
         21   -1    0    0  502  503 -0.00000000000E+00 -0.00000000000E+00 -0.46589070944E+02  0.46589070944E+02  0.00000000000E+00 0. -1.
          6    1    1    2  501    0  0.48748636578E+02  0.69871350041E+01  0.18535084227E+04  0.18622158099E+04  0.17300000000E+03 0. -1.
         -6    1    1    2    0  503 -0.48748636578E+02 -0.69871350041E+01  0.14927616854E+03  0.23374692323E+03  0.17300000000E+03 0. -1.
<mgrwt>
<rscale>  2 0.17987287E+03</rscale>
<asrwt>0</asrwt>
<pdfrwt beam="1">  1       21 0.31528818E+00 0.17987287E+03</pdfrwt>
<pdfrwt beam="2">  1       21 0.71675510E-02 0.17987287E+03</pdfrwt>
<totfact> 0.41122411E+03</totfact>
</mgrwt>
</event>
<event>
 4    1  0.4199481E+000  0.2354152E+03  0.7546771E-02  0.1122885E+00
         21   -1    0    0  501  502  0.00000000000E+00  0.00000000000E+00  0.32644635586E+03  0.32644635586E+03  0.00000000000E+00 0.  1.
         21   -1    0    0  502  503 -0.00000000000E+00 -0.00000000000E+00 -0.18825658366E+03  0.18825658366E+03  0.00000000000E+00 0.  1.
          6    1    1    2  501    0  0.83301752568E+02 -0.13620623112E+03  0.14974353791E+03  0.27900438442E+03  0.17300000000E+03 0.  1.
         -6    1    1    2    0  503 -0.83301752568E+02  0.13620623112E+03 -0.11553765715E+02  0.23569855511E+03  0.17300000000E+03 0.  1.
<mgrwt>
<rscale>  2 0.23541521E+03</rscale>
<asrwt>0</asrwt>
<pdfrwt beam="1">  1       21 0.50222516E-01 0.23541521E+03</pdfrwt>
<pdfrwt beam="2">  1       21 0.28962551E-01 0.23541521E+03</pdfrwt>
<totfact> 0.42208495E+04</totfact>
</mgrwt>
</event>
<event>
 4    1  0.4199481E+000  0.1903888E+03  0.7546771E-02  0.1158111E+00
         21   -1    0    0  503  502  0.00000000000E+00  0.00000000000E+00  0.88561681396E+02  0.88561681396E+02  0.00000000000E+00 0. -1.
         21   -1    0    0  501  503 -0.00000000000E+00 -0.00000000000E+00 -0.10130683395E+04  0.10130683395E+04  0.00000000000E+00 0. -1.
          6    1    1    2  501    0  0.52496025290E+02  0.59691327794E+02 -0.88748267049E+03  0.90767470919E+03  0.17300000000E+03 0. -1.
         -6    1    1    2    0  502 -0.52496025290E+02 -0.59691327794E+02 -0.37023987631E+02  0.19395531172E+03  0.17300000000E+03 0. -1.
<mgrwt>
<rscale>  2 0.19038878E+03</rscale>
<asrwt>0</asrwt>
<pdfrwt beam="1">  1       21 0.13624874E-01 0.19038878E+03</pdfrwt>
<pdfrwt beam="2">  1       21 0.15585666E+00 0.19038878E+03</pdfrwt>
<totfact> 0.12634553E+04</totfact>
</mgrwt>
</event>
<event>
 4    1  0.4199481E+000  0.1889393E+03  0.7546771E-02  0.1159422E+00
         21   -1    0    0  503  502  0.00000000000E+00  0.00000000000E+00  0.12688621322E+04  0.12688621322E+04  0.00000000000E+00 0. -1.
         21   -1    0    0  501  503 -0.00000000000E+00 -0.00000000000E+00 -0.61532888414E+02  0.61532888414E+02  0.00000000000E+00 0. -1.
          6    1    1    2  501    0  0.67406209348E+02 -0.35006432473E+02  0.11358845267E+03  0.22045494767E+03  0.17300000000E+03 0. -1.
         -6    1    1    2    0  502 -0.67406209348E+02  0.35006432473E+02  0.10937407911E+04  0.11099400729E+04  0.17300000000E+03 0. -1.
<mgrwt>
<rscale>  2 0.18893927E+03</rscale>
<asrwt>0</asrwt>
<pdfrwt beam="1">  1       21 0.19520954E+00 0.18893927E+03</pdfrwt>
<pdfrwt beam="2">  1       21 0.94665992E-02 0.18893927E+03</pdfrwt>
<totfact> 0.12926219E+04</totfact>
</mgrwt>
</event>
<event>
 4    1  0.4199481E+000  0.2256937E+03  0.7546771E-02  0.1129708E+00
         21   -1    0    0  503  502  0.00000000000E+00  0.00000000000E+00  0.59079242251E+03  0.59079242251E+03  0.00000000000E+00 0.  1.
         21   -1    0    0  501  503 -0.00000000000E+00 -0.00000000000E+00 -0.11170016598E+03  0.11170016598E+03  0.00000000000E+00 0. -1.
          6    1    1    2  501    0  0.42684531854E+01 -0.14488065559E+03  0.71784296099E+02  0.23683456087E+03  0.17300000000E+03 0. -1.
         -6    1    1    2    0  502 -0.42684531854E+01  0.14488065559E+03  0.40730796043E+03  0.46565802762E+03  0.17300000000E+03 0.  1.
<mgrwt>
<rscale>  2 0.22569365E+03</rscale>
<asrwt>0</asrwt>
<pdfrwt beam="1">  1       21 0.90891140E-01 0.22569365E+03</pdfrwt>
<pdfrwt beam="2">  1       21 0.17184641E-01 0.22569365E+03</pdfrwt>
<totfact> 0.30848993E+04</totfact>
</mgrwt>
</event>
<event>
 4    1  0.4199481E+000  0.4289821E+03  0.7546771E-02  0.1034182E+00
         21   -1    0    0  501  502  0.00000000000E+00  0.00000000000E+00  0.33042260569E+03  0.33042260569E+03  0.00000000000E+00 0. -1.
         21   -1    0    0  502  503 -0.00000000000E+00 -0.00000000000E+00 -0.56335850671E+03  0.56335850671E+03  0.00000000000E+00 0.  1.
          6    1    1    2  501    0  0.35953900732E+02  0.39090152283E+03 -0.68768462639E+02  0.43445918678E+03  0.17300000000E+03 0. -1.
         -6    1    1    2    0  503 -0.35953900732E+02 -0.39090152283E+03 -0.16416743839E+03  0.45932192562E+03  0.17300000000E+03 0.  1.
<mgrwt>
<rscale>  2 0.42898215E+03</rscale>
<asrwt>0</asrwt>
<pdfrwt beam="1">  1       21 0.50834247E-01 0.42898215E+03</pdfrwt>
<pdfrwt beam="2">  1       21 0.86670540E-01 0.42898215E+03</pdfrwt>
<totfact> 0.37143735E+03</totfact>
</mgrwt>
</event>
<event>
 4    1  0.4199481E+000  0.1799846E+03  0.7546771E-02  0.1167818E+00
         21   -1    0    0  501  502  0.00000000000E+00  0.00000000000E+00  0.52969223580E+03  0.52969223580E+03  0.00000000000E+00 0. -1.
         21   -1    0    0  502  503 -0.00000000000E+00 -0.00000000000E+00 -0.93771557391E+02  0.93771557391E+02  0.00000000000E+00 0. -1.
          6    1    1    2  501    0 -0.48907340509E+02  0.85746500213E+01  0.34115852245E+02  0.18318936638E+03  0.17300000000E+03 0. -1.
         -6    1    1    2    0  503  0.48907340509E+02 -0.85746500213E+01  0.40180482617E+03  0.44027442682E+03  0.17300000000E+03 0. -1.
<mgrwt>
<rscale>  2 0.17998459E+03</rscale>
<asrwt>0</asrwt>
<pdfrwt beam="1">  1       21 0.81491112E-01 0.17998459E+03</pdfrwt>
<pdfrwt beam="2">  1       21 0.14426394E-01 0.17998459E+03</pdfrwt>
<totfact> 0.55876487E+04</totfact>
</mgrwt>
</event>
<event>
 4    1  0.4199481E+000  0.2032758E+03  0.7546771E-02  0.1147004E+00
         21   -1    0    0  503  502  0.00000000000E+00  0.00000000000E+00  0.59949490106E+03  0.59949490106E+03  0.00000000000E+00 0. -1.
         21   -1    0    0  501  503 -0.00000000000E+00 -0.00000000000E+00 -0.89603056256E+02  0.89603056256E+02  0.00000000000E+00 0.  1.
          6    1    1    2  501    0 -0.41292794979E+02  0.98422339789E+02  0.89434014757E+02  0.22207992904E+03  0.17300000000E+03 0. -1.
         -6    1    1    2    0  502  0.41292794979E+02 -0.98422339789E+02  0.42045783005E+03  0.46701802828E+03  0.17300000000E+03 0. -1.
<mgrwt>
<rscale>  2 0.20327580E+03</rscale>
<asrwt>0</asrwt>
<pdfrwt beam="1">  1       21 0.92229982E-01 0.20327580E+03</pdfrwt>
<pdfrwt beam="2">  1       21 0.13785086E-01 0.20327580E+03</pdfrwt>
<totfact> 0.45137629E+04</totfact>
</mgrwt>
</event>
<event>
 4    1  0.4199481E+000  0.3151508E+03  0.7546771E-02  0.1077903E+00
         21   -1    0    0  503  502  0.00000000000E+00  0.00000000000E+00  0.31659795053E+03  0.31659795053E+03  0.00000000000E+00 0.  1.
         21   -1    0    0  501  503 -0.00000000000E+00 -0.00000000000E+00 -0.69740417337E+03  0.69740417337E+03  0.00000000000E+00 0. -1.
          6    1    1    2  501    0  0.22478149247E+03  0.13734729995E+03 -0.56646480546E+03  0.64823018750E+03  0.17300000000E+03 0. -1.
         -6    1    1    2    0  502 -0.22478149247E+03 -0.13734729995E+03  0.18565858261E+03  0.36577193640E+03  0.17300000000E+03 0.  1.
<mgrwt>
<rscale>  2 0.31515076E+03</rscale>
<asrwt>0</asrwt>
<pdfrwt beam="1">  1       21 0.48707377E-01 0.31515076E+03</pdfrwt>
<pdfrwt beam="2">  1       21 0.10729295E+00 0.31515076E+03</pdfrwt>
<totfact> 0.25638720E+03</totfact>
</mgrwt>
</event>
<event>
 4    1  0.4199481E+000  0.2342066E+03  0.7546771E-02  0.1123713E+00
         21   -1    0    0  501  502  0.00000000000E+00  0.00000000000E+00  0.68798826291E+03  0.68798826291E+03  0.00000000000E+00 0.  1.
         21   -1    0    0  502  503 -0.00000000000E+00 -0.00000000000E+00 -0.10466454696E+03  0.10466454696E+03  0.00000000000E+00 0.  1.
          6    1    1    2  501    0  0.15780521539E+03  0.46106185739E+01  0.48510843224E+03  0.53868630467E+03  0.17300000000E+03 0.  1.
         -6    1    1    2    0  503 -0.15780521539E+03 -0.46106185739E+01  0.98215283712E+02  0.25396650520E+03  0.17300000000E+03 0.  1.
<mgrwt>
<rscale>  2 0.23420663E+03</rscale>
<asrwt>0</asrwt>
<pdfrwt beam="1">  1       21 0.10584435E+00 0.23420663E+03</pdfrwt>
<pdfrwt beam="2">  1       21 0.16102238E-01 0.23420663E+03</pdfrwt>
<totfact> 0.24123135E+04</totfact>
</mgrwt>
</event>
<event>
 4    1  0.4199481E+000  0.1875195E+03  0.7546771E-02  0.1160718E+00
         21   -1    0    0  503  502  0.00000000000E+00  0.00000000000E+00  0.83995027680E+03  0.83995027680E+03  0.00000000000E+00 0. -1.
         21   -1    0    0  501  503 -0.00000000000E+00 -0.00000000000E+00 -0.53379271407E+02  0.53379271407E+02  0.00000000000E+00 0. -1.
          6    1    1    2  501    0  0.64759956742E+02 -0.32259940968E+02  0.18582509630E+03  0.26399720113E+03  0.17300000000E+03 0. -1.
         -6    1    1    2    0  502 -0.64759956742E+02  0.32259940968E+02  0.60074590909E+03  0.62933234707E+03  0.17300000000E+03 0. -1.
<mgrwt>
<rscale>  2 0.18751948E+03</rscale>
<asrwt>0</asrwt>
<pdfrwt beam="1">  1       21 0.12922311E+00 0.18751948E+03</pdfrwt>
<pdfrwt beam="2">  1       21 0.82121962E-02 0.18751948E+03</pdfrwt>
<totfact> 0.50449635E+04</totfact>
</mgrwt>
</event>
<event>
 4    1  0.4199481E+000  0.1767440E+03  0.7546771E-02  0.1170992E+00
         21   -1    0    0  501  502  0.00000000000E+00  0.00000000000E+00  0.64208817367E+02  0.64208817367E+02  0.00000000000E+00 0.  1.
         21   -1    0    0  502  503 -0.00000000000E+00 -0.00000000000E+00 -0.53856094995E+03  0.53856094995E+03  0.00000000000E+00 0.  1.
          6    1    1    2  501    0  0.21911708975E+02 -0.28797990565E+02 -0.14348366652E+03  0.22765326663E+03  0.17300000000E+03 0.  1.
         -6    1    1    2    0  503 -0.21911708975E+02  0.28797990565E+02 -0.33086846607E+03  0.37511650069E+03  0.17300000000E+03 0.  1.
<mgrwt>
<rscale>  2 0.17674402E+03</rscale>
<asrwt>0</asrwt>
<pdfrwt beam="1">  1       21 0.98782797E-02 0.17674402E+03</pdfrwt>
<pdfrwt beam="2">  1       21 0.82855530E-01 0.17674402E+03</pdfrwt>
<totfact> 0.10598098E+05</totfact>
</mgrwt>
</event>
<event>
 4    1  0.4199481E+000  0.2189535E+03  0.7546771E-02  0.1134666E+00
         21   -1    0    0  501  502  0.00000000000E+00  0.00000000000E+00  0.44400416900E+03  0.44400416900E+03  0.00000000000E+00 0.  1.
         21   -1    0    0  502  503 -0.00000000000E+00 -0.00000000000E+00 -0.11283254696E+03  0.11283254696E+03  0.00000000000E+00 0.  1.
          6    1    1    2  501    0 -0.95841625985E+02 -0.93946968582E+02  0.22336342973E+03  0.31278086885E+03  0.17300000000E+03 0. -1.
         -6    1    1    2    0  503  0.95841625985E+02  0.93946968582E+02  0.10780819231E+03  0.24405584711E+03  0.17300000000E+03 0. -1.
<mgrwt>
<rscale>  2 0.21895353E+03</rscale>
<asrwt>0</asrwt>
<pdfrwt beam="1">  1       21 0.68308333E-01 0.21895353E+03</pdfrwt>
<pdfrwt beam="2">  1       21 0.17358854E-01 0.21895353E+03</pdfrwt>
<totfact> 0.57987719E+04</totfact>
</mgrwt>
</event>
<event>
 4    1  0.4199481E+000  0.1840082E+03  0.7546771E-02  0.1163979E+00
         21   -1    0    0  501  502  0.00000000000E+00  0.00000000000E+00  0.33073562576E+02  0.33073562576E+02  0.00000000000E+00 0.  1.
         21   -1    0    0  502  503 -0.00000000000E+00 -0.00000000000E+00 -0.10283391666E+04  0.10283391666E+04  0.00000000000E+00 0.  1.
          6    1    1    2  501    0  0.60048063731E+02  0.18006513650E+02 -0.46217335383E+03  0.49745674534E+03  0.17300000000E+03 0.  1.
         -6    1    1    2    0  503 -0.60048063731E+02 -0.18006513650E+02 -0.53309225023E+03  0.56395598388E+03  0.17300000000E+03 0.  1.
<mgrwt>
<rscale>  2 0.18400816E+03</rscale>
<asrwt>0</asrwt>
<pdfrwt beam="1">  1       21 0.50882410E-02 0.18400816E+03</pdfrwt>
<pdfrwt beam="2">  1       21 0.15820601E+00 0.18400816E+03</pdfrwt>
<totfact> 0.68063748E+04</totfact>
</mgrwt>
</event>
<event>
 4    1  0.4199481E+000  0.2239773E+03  0.7546771E-02  0.1130952E+00
         21   -1    0    0  501  502  0.00000000000E+00  0.00000000000E+00  0.19480630557E+03  0.19480630557E+03  0.00000000000E+00 0. -1.
         21   -1    0    0  502  503 -0.00000000000E+00 -0.00000000000E+00 -0.26381228109E+03  0.26381228109E+03  0.00000000000E+00 0. -1.
          6    1    1    2  501    0 -0.26219740743E+02 -0.13981905169E+03  0.92106508965E+00  0.22397921864E+03  0.17300000000E+03 0.  1.
         -6    1    1    2    0  503  0.26219740743E+02  0.13981905169E+03 -0.69927040614E+02  0.23463936803E+03  0.17300000000E+03 0.  1.
<mgrwt>
<rscale>  2 0.22397732E+03</rscale>
<asrwt>0</asrwt>
<pdfrwt beam="1">  1       21 0.29970201E-01 0.22397732E+03</pdfrwt>
<pdfrwt beam="2">  1       21 0.40586505E-01 0.22397732E+03</pdfrwt>
<totfact> 0.61582134E+04</totfact>
</mgrwt>
</event>
<event>
 4    1  0.4199481E+000  0.2232648E+03  0.7546771E-02  0.1131472E+00
         21   -1    0    0  501  502  0.00000000000E+00  0.00000000000E+00  0.46429155274E+02  0.46429155274E+02  0.00000000000E+00 0. -1.
         21   -1    0    0  502  503 -0.00000000000E+00 -0.00000000000E+00 -0.10788475248E+04  0.10788475248E+04  0.00000000000E+00 0.  1.
          6    1    1    2  501    0 -0.19260091006E+02 -0.13981144518E+03 -0.47703793312E+03  0.52669951675E+03  0.17300000000E+03 0. -1.
         -6    1    1    2    0  503  0.19260091006E+02  0.13981144518E+03 -0.55538043638E+03  0.59857716329E+03  0.17300000000E+03 0.  1.
<mgrwt>
<rscale>  2 0.22326485E+03</rscale>
<asrwt>0</asrwt>
<pdfrwt beam="1">  1       21 0.71429470E-02 0.22326485E+03</pdfrwt>
<pdfrwt beam="2">  1       21 0.16597654E+00 0.22326485E+03</pdfrwt>
<totfact> 0.32659681E+04</totfact>
</mgrwt>
</event>
<event>
 4    1  0.4199481E+000  0.1737831E+03  0.7546771E-02  0.1173959E+00
         21   -1    0    0  501  502  0.00000000000E+00  0.00000000000E+00  0.60149217853E+03  0.60149217853E+03  0.00000000000E+00 0.  1.
         21   -1    0    0  502  503 -0.00000000000E+00 -0.00000000000E+00 -0.51438643124E+02  0.51438643124E+02  0.00000000000E+00 0.  1.
          6    1    1    2  501    0  0.15848931163E+02 -0.45156825864E+01  0.22455995841E+03  0.28395026841E+03  0.17300000000E+03 0. -1.
         -6    1    1    2    0  503 -0.15848931163E+02  0.45156825864E+01  0.32549357699E+03  0.36898055324E+03  0.17300000000E+03 0. -1.
<mgrwt>
<rscale>  2 0.17378314E+03</rscale>
<asrwt>0</asrwt>
<pdfrwt beam="1">  1       21 0.92537253E-01 0.17378314E+03</pdfrwt>
<pdfrwt beam="2">  1       21 0.79136379E-02 0.17378314E+03</pdfrwt>
<totfact> 0.12132389E+05</totfact>
</mgrwt>
</event>
<event>
 4    1  0.4199481E+000  0.1789361E+03  0.7546771E-02  0.1168837E+00
         21   -1    0    0  501  502  0.00000000000E+00  0.00000000000E+00  0.27166908888E+03  0.27166908888E+03  0.00000000000E+00 0.  1.
         21   -1    0    0  502  503 -0.00000000000E+00 -0.00000000000E+00 -0.12779836325E+03  0.12779836325E+03  0.00000000000E+00 0.  1.
          6    1    1    2  501    0  0.42306079099E+02 -0.17300948187E+02  0.12764237344E+03  0.21979695775E+03  0.17300000000E+03 0.  1.
         -6    1    1    2    0  503 -0.42306079099E+02  0.17300948187E+02  0.16228352194E+02  0.17967049438E+03  0.17300000000E+03 0.  1.
<mgrwt>
<rscale>  2 0.17893610E+03</rscale>
<asrwt>0</asrwt>
<pdfrwt beam="1">  1       21 0.41795244E-01 0.17893610E+03</pdfrwt>
<pdfrwt beam="2">  1       21 0.19661287E-01 0.17893610E+03</pdfrwt>
<totfact> 0.13193933E+05</totfact>
</mgrwt>
</event>
<event>
 4    1  0.4199481E+000  0.2357185E+03  0.7546771E-02  0.1122678E+00
         21   -1    0    0  503  502  0.00000000000E+00  0.00000000000E+00  0.19322138242E+04  0.19322138242E+04  0.00000000000E+00 0.  1.
         21   -1    0    0  501  503 -0.00000000000E+00 -0.00000000000E+00 -0.77255187663E+02  0.77255187663E+02  0.00000000000E+00 0.  1.
          6    1    1    2  501    0  0.27548119254E+02  0.15771913294E+03  0.13140501642E+03  0.26987126951E+03  0.17300000000E+03 0.  1.
         -6    1    1    2    0  502 -0.27548119254E+02 -0.15771913294E+03  0.17235536202E+04  0.17395977424E+04  0.17300000000E+03 0.  1.
<mgrwt>
<rscale>  2 0.23571853E+03</rscale>
<asrwt>0</asrwt>
<pdfrwt beam="1">  1       21 0.29726363E+00 0.23571853E+03</pdfrwt>
<pdfrwt beam="2">  1       21 0.11885415E-01 0.23571853E+03</pdfrwt>
<totfact> 0.20107243E+03</totfact>
</mgrwt>
</event>
<event>
 4    1  0.4199481E+000  0.2170461E+03  0.7546771E-02  0.1136105E+00
         21   -1    0    0  503  502  0.00000000000E+00  0.00000000000E+00  0.10700844229E+03  0.10700844229E+03  0.00000000000E+00 0.  1.
         21   -1    0    0  501  503 -0.00000000000E+00 -0.00000000000E+00 -0.44026929035E+03  0.44026929035E+03  0.00000000000E+00 0.  1.
          6    1    1    2  501    0  0.12911726039E+03  0.22555072311E+02 -0.16899996723E+03  0.27508178264E+03  0.17300000000E+03 0.  1.
         -6    1    1    2    0  502 -0.12911726039E+03 -0.22555072311E+02 -0.16426088083E+03  0.27219594999E+03  0.17300000000E+03 0.  1.
<mgrwt>
<rscale>  2 0.21704607E+03</rscale>
<asrwt>0</asrwt>
<pdfrwt beam="1">  1       21 0.16462837E-01 0.21704607E+03</pdfrwt>
<pdfrwt beam="2">  1       21 0.67733737E-01 0.21704607E+03</pdfrwt>
<totfact> 0.65195730E+04</totfact>
</mgrwt>
</event>
<event>
 4    1  0.4199481E+000  0.1913192E+03  0.7546771E-02  0.1157277E+00
         21   -1    0    0  503  502  0.00000000000E+00  0.00000000000E+00  0.16140569370E+03  0.16140569370E+03  0.00000000000E+00 0.  1.
         21   -1    0    0  501  503 -0.00000000000E+00 -0.00000000000E+00 -0.24073593858E+03  0.24073593858E+03  0.00000000000E+00 0.  1.
          6    1    1    2  501    0  0.61562986975E+02  0.53703334634E+02 -0.88083423163E+02  0.21062226604E+03  0.17300000000E+03 0.  1.
         -6    1    1    2    0  502 -0.61562986975E+02 -0.53703334634E+02  0.87531782879E+01  0.19151936624E+03  0.17300000000E+03 0.  1.
<mgrwt>
<rscale>  2 0.19131923E+03</rscale>
<asrwt>0</asrwt>
<pdfrwt beam="1">  1       21 0.24831645E-01 0.19131923E+03</pdfrwt>
<pdfrwt beam="2">  1       21 0.37036298E-01 0.19131923E+03</pdfrwt>
<totfact> 0.10793754E+05</totfact>
</mgrwt>
</event>
<event>
 4    1  0.4199481E+000  0.2152319E+03  0.7546771E-02  0.1137489E+00
         21   -1    0    0  501  502  0.00000000000E+00  0.00000000000E+00  0.30772676791E+03  0.30772676791E+03  0.00000000000E+00 0. -1.
         21   -1    0    0  502  503 -0.00000000000E+00 -0.00000000000E+00 -0.63246147216E+03  0.63246147216E+03  0.00000000000E+00 0. -1.
          6    1    1    2  501    0 -0.45672488663E+02  0.11962354729E+03  0.24798462735E+03  0.32836130206E+03  0.17300000000E+03 0. -1.
         -6    1    1    2    0  503  0.45672488663E+02 -0.11962354729E+03 -0.57271933161E+03  0.61182693802E+03  0.17300000000E+03 0. -1.
<mgrwt>
<rscale>  2 0.21523190E+03</rscale>
<asrwt>0</asrwt>
<pdfrwt beam="1">  1       21 0.47342580E-01 0.21523190E+03</pdfrwt>
<pdfrwt beam="2">  1       21 0.97301765E-01 0.21523190E+03</pdfrwt>
<totfact> 0.36701386E+03</totfact>
</mgrwt>
</event>
<event>
 4    1  0.4199481E+000  0.1815566E+03  0.7546771E-02  0.1166305E+00
         21   -1    0    0  503  502  0.00000000000E+00  0.00000000000E+00  0.75650795827E+02  0.75650795827E+02  0.00000000000E+00 0.  1.
         21   -1    0    0  501  503 -0.00000000000E+00 -0.00000000000E+00 -0.91290670508E+03  0.91290670508E+03  0.00000000000E+00 0.  1.
          6    1    1    2  501    0 -0.50519037162E+02 -0.21946264492E+02 -0.77598423928E+03  0.79694061965E+03  0.17300000000E+03 0.  1.
         -6    1    1    2    0  502  0.50519037162E+02  0.21946264492E+02 -0.61271669974E+02  0.19161688126E+03  0.17300000000E+03 0.  1.
<mgrwt>
<rscale>  2 0.18155663E+03</rscale>
<asrwt>0</asrwt>
<pdfrwt beam="1">  1       21 0.11638584E-01 0.18155663E+03</pdfrwt>
<pdfrwt beam="2">  1       21 0.14044719E+00 0.18155663E+03</pdfrwt>
<totfact> 0.22154407E+04</totfact>
</mgrwt>
</event>
<event>
 4    1  0.4199481E+000  0.1756092E+03  0.7546771E-02  0.1172121E+00
         21   -1    0    0  501  502  0.00000000000E+00  0.00000000000E+00  0.27477497188E+03  0.27477497188E+03  0.00000000000E+00 0. -1.
         21   -1    0    0  502  503 -0.00000000000E+00 -0.00000000000E+00 -0.23321486387E+03  0.23321486387E+03  0.00000000000E+00 0. -1.
          6    1    1    2  501    0  0.26958503853E+02  0.13521374712E+02  0.20372000466E+03  0.26896176085E+03  0.17300000000E+03 0. -1.
         -6    1    1    2    0  503 -0.26958503853E+02 -0.13521374712E+02 -0.16215989665E+03  0.23902807489E+03  0.17300000000E+03 0. -1.
<mgrwt>
<rscale>  2 0.17560919E+03</rscale>
<asrwt>0</asrwt>
<pdfrwt beam="1">  1       21 0.42273073E-01 0.17560919E+03</pdfrwt>
<pdfrwt beam="2">  1       21 0.35879210E-01 0.17560919E+03</pdfrwt>
<totfact> 0.40682546E+04</totfact>
</mgrwt>
</event>
<event>
 4    1  0.4199481E+000  0.2058699E+03  0.7546771E-02  0.1144879E+00
         21   -1    0    0  501  502  0.00000000000E+00  0.00000000000E+00  0.46525687781E+03  0.46525687781E+03  0.00000000000E+00 0.  1.
         21   -1    0    0  502  503 -0.00000000000E+00 -0.00000000000E+00 -0.99539166800E+02  0.99539166800E+02  0.00000000000E+00 0.  1.
          6    1    1    2  501    0 -0.49807501259E+02 -0.99862989808E+02  0.26511200265E+03  0.33565872231E+03  0.17300000000E+03 0.  1.
         -6    1    1    2    0  503  0.49807501259E+02  0.99862989808E+02  0.10060570836E+03  0.22913732230E+03  0.17300000000E+03 0.  1.
<mgrwt>
<rscale>  2 0.20586987E+03</rscale>
<asrwt>0</asrwt>
<pdfrwt beam="1">  1       21 0.71577980E-01 0.20586987E+03</pdfrwt>
<pdfrwt beam="2">  1       21 0.15313718E-01 0.20586987E+03</pdfrwt>
<totfact> 0.66227199E+04</totfact>
</mgrwt>
</event>
<event>
 4    1  0.4199481E+000  0.2003500E+03  0.7546771E-02  0.1149444E+00
         21   -1    0    0  503  502  0.00000000000E+00  0.00000000000E+00  0.48272529799E+02  0.48272529799E+02  0.00000000000E+00 0.  1.
         21   -1    0    0  501  503 -0.00000000000E+00 -0.00000000000E+00 -0.10250257776E+04  0.10250257776E+04  0.00000000000E+00 0.  1.
          6    1    1    2  501    0  0.99498349950E+02  0.17640707119E+02 -0.72153843410E+03  0.74883765135E+03  0.17300000000E+03 0.  1.
         -6    1    1    2    0  502 -0.99498349950E+02 -0.17640707119E+02 -0.25521481368E+03  0.32446065603E+03  0.17300000000E+03 0.  1.
<mgrwt>
<rscale>  2 0.20034998E+03</rscale>
<asrwt>0</asrwt>
<pdfrwt beam="1">  1       21 0.74265435E-02 0.20034998E+03</pdfrwt>
<pdfrwt beam="2">  1       21 0.15769626E+00 0.20034998E+03</pdfrwt>
<totfact> 0.35567036E+04</totfact>
</mgrwt>
</event>
<event>
 4    1  0.4199481E+000  0.2065633E+03  0.7546771E-02  0.1144317E+00
         21   -1    0    0  501  502  0.00000000000E+00  0.00000000000E+00  0.28647743024E+02  0.28647743024E+02  0.00000000000E+00 0. -1.
         21   -1    0    0  502  503 -0.00000000000E+00 -0.00000000000E+00 -0.19788474516E+04  0.19788474516E+04  0.00000000000E+00 0.  1.
          6    1    1    2  501    0 -0.10961241474E+03  0.26917114543E+02 -0.47591177051E+03  0.51880673264E+03  0.17300000000E+03 0.  1.
         -6    1    1    2    0  503  0.10961241474E+03 -0.26917114543E+02 -0.14742879381E+04  0.14886884620E+04  0.17300000000E+03 0.  1.
<mgrwt>
<rscale>  2 0.20656334E+03</rscale>
<asrwt>0</asrwt>
<pdfrwt beam="1">  1       21 0.44073440E-02 0.20656334E+03</pdfrwt>
<pdfrwt beam="2">  1       21 0.30443814E+00 0.20656334E+03</pdfrwt>
<totfact> 0.10559645E+04</totfact>
</mgrwt>
</event>
<event>
 4    1  0.4199481E+000  0.2146866E+03  0.7546771E-02  0.1137908E+00
         21   -1    0    0  501  502  0.00000000000E+00  0.00000000000E+00  0.15717001893E+03  0.15717001893E+03  0.00000000000E+00 0. -1.
         21   -1    0    0  502  503 -0.00000000000E+00 -0.00000000000E+00 -0.37303309203E+03  0.37303309203E+03  0.00000000000E+00 0. -1.
          6    1    1    2  501    0 -0.12233428669E+03  0.34578121442E+02  0.14668411155E+02  0.21518709643E+03  0.17300000000E+03 0. -1.
         -6    1    1    2    0  503  0.12233428669E+03 -0.34578121442E+02 -0.23053148425E+03  0.31501601453E+03  0.17300000000E+03 0. -1.
<mgrwt>
<rscale>  2 0.21468657E+03</rscale>
<asrwt>0</asrwt>
<pdfrwt beam="1">  1       21 0.24180003E-01 0.21468657E+03</pdfrwt>
<pdfrwt beam="2">  1       21 0.57389706E-01 0.21468657E+03</pdfrwt>
<totfact> 0.45503058E+04</totfact>
</mgrwt>
</event>
<event>
 4    1  0.4199481E+000  0.2311858E+03  0.7546771E-02  0.1125808E+00
         21   -1    0    0  503  502  0.00000000000E+00  0.00000000000E+00  0.16504114707E+04  0.16504114707E+04  0.00000000000E+00 0.  1.
         21   -1    0    0  501  503 -0.00000000000E+00 -0.00000000000E+00 -0.34615624517E+02  0.34615624517E+02  0.00000000000E+00 0.  1.
          6    1    1    2  501    0 -0.13269434934E+03 -0.76877073589E+02  0.10218193730E+04  0.10476457922E+04  0.17300000000E+03 0.  1.
         -6    1    1    2    0  502  0.13269434934E+03  0.76877073589E+02  0.59397647317E+03  0.63738130304E+03  0.17300000000E+03 0.  1.
<mgrwt>
<rscale>  2 0.23118580E+03</rscale>
<asrwt>0</asrwt>
<pdfrwt beam="1">  1       21 0.25390940E+00 0.23118580E+03</pdfrwt>
<pdfrwt beam="2">  1       21 0.53254820E-02 0.23118580E+03</pdfrwt>
<totfact> 0.14745365E+04</totfact>
</mgrwt>
</event>
<event>
 4    1  0.4199481E+000  0.2000665E+03  0.7546771E-02  0.1149683E+00
         21   -1    0    0  503  502  0.00000000000E+00  0.00000000000E+00  0.87204968560E+02  0.87204968560E+02  0.00000000000E+00 0. -1.
         21   -1    0    0  501  503 -0.00000000000E+00 -0.00000000000E+00 -0.50055893403E+03  0.50055893403E+03  0.00000000000E+00 0. -1.
          6    1    1    2  501    0 -0.10030279193E+03  0.60795621163E+01 -0.29136181478E+03  0.35343785629E+03  0.17300000000E+03 0. -1.
         -6    1    1    2    0  502  0.10030279193E+03 -0.60795621163E+01 -0.12199215069E+03  0.23432604630E+03  0.17300000000E+03 0. -1.
<mgrwt>
<rscale>  2 0.20006652E+03</rscale>
<asrwt>0</asrwt>
<pdfrwt beam="1">  1       21 0.13416149E-01 0.20006652E+03</pdfrwt>
<pdfrwt beam="2">  1       21 0.77009066E-01 0.20006652E+03</pdfrwt>
<totfact> 0.71724909E+04</totfact>
</mgrwt>
</event>
<event>
 4    1  0.4199481E+000  0.1754195E+03  0.7546771E-02  0.1172311E+00
         21   -1    0    0  501  502  0.00000000000E+00  0.00000000000E+00  0.12878321924E+03  0.12878321924E+03  0.00000000000E+00 0. -1.
         21   -1    0    0  502  503 -0.00000000000E+00 -0.00000000000E+00 -0.11697490972E+04  0.11697490972E+04  0.00000000000E+00 0. -1.
          6    1    1    2  501    0 -0.28582231596E+02  0.51038076400E+01  0.58686658313E+02  0.18497598947E+03  0.17300000000E+03 0. -1.
         -6    1    1    2    0  503  0.28582231596E+02 -0.51038076400E+01 -0.10996525363E+04  0.11135563270E+04  0.17300000000E+03 0. -1.
<mgrwt>
<rscale>  2 0.17541948E+03</rscale>
<asrwt>0</asrwt>
<pdfrwt beam="1">  1       21 0.19812803E-01 0.17541948E+03</pdfrwt>
<pdfrwt beam="2">  1       21 0.17996140E+00 0.17541948E+03</pdfrwt>
<totfact> 0.43469108E+03</totfact>
</mgrwt>
</event>
<event>
 4    1  0.4199481E+000  0.1758837E+03  0.7546771E-02  0.1171847E+00
         21   -1    0    0  501  502  0.00000000000E+00  0.00000000000E+00  0.11099252816E+04  0.11099252816E+04  0.00000000000E+00 0. -1.
         21   -1    0    0  502  503 -0.00000000000E+00 -0.00000000000E+00 -0.11970910805E+03  0.11970910805E+03  0.00000000000E+00 0. -1.
          6    1    1    2  501    0 -0.29501603245E+02  0.11649631581E+02  0.10336173356E+04  0.10484750140E+04  0.17300000000E+03 0. -1.
         -6    1    1    2    0  503  0.29501603245E+02 -0.11649631581E+02 -0.43401162077E+02  0.18115937563E+03  0.17300000000E+03 0. -1.
<mgrwt>
<rscale>  2 0.17588365E+03</rscale>
<asrwt>0</asrwt>
<pdfrwt beam="1">  1       21 0.17075773E+00 0.17588365E+03</pdfrwt>
<pdfrwt beam="2">  1       21 0.18416787E-01 0.17588365E+03</pdfrwt>
<totfact> 0.57570165E+03</totfact>
</mgrwt>
</event>
<event>
 4    1  0.4199481E+000  0.1798340E+03  0.7546771E-02  0.1167964E+00
         21   -1    0    0  501  502  0.00000000000E+00  0.00000000000E+00  0.21263666061E+02  0.21263666061E+02  0.00000000000E+00 0. -1.
         21   -1    0    0  502  503 -0.00000000000E+00 -0.00000000000E+00 -0.21250940335E+04  0.21250940335E+04  0.00000000000E+00 0. -1.
          6    1    1    2  501    0 -0.89768298622E+00  0.49096283595E+02 -0.47969196179E+03  0.51229349898E+03  0.17300000000E+03 0. -1.
         -6    1    1    2    0  503  0.89768298622E+00 -0.49096283595E+02 -0.16241384057E+04  0.16340642006E+04  0.17300000000E+03 0. -1.
<mgrwt>
<rscale>  2 0.17983395E+03</rscale>
<asrwt>0</asrwt>
<pdfrwt beam="1">  1       21 0.32713337E-02 0.17983395E+03</pdfrwt>
<pdfrwt beam="2">  1       21 0.32693750E+00 0.17983395E+03</pdfrwt>
<totfact> 0.13271052E+04</totfact>
</mgrwt>
</event>
<event>
 4    1  0.4199481E+000  0.2291040E+03  0.7546771E-02  0.1127272E+00
         21   -1    0    0  503  502  0.00000000000E+00  0.00000000000E+00  0.28117539603E+03  0.28117539603E+03  0.00000000000E+00 0.  1.
         21   -1    0    0  501  503 -0.00000000000E+00 -0.00000000000E+00 -0.23720526688E+03  0.23720526688E+03  0.00000000000E+00 0. -1.
          6    1    1    2  501    0 -0.10032917171E+03 -0.11177521112E+03 -0.97641880935E+02  0.24904332440E+03  0.17300000000E+03 0. -1.
         -6    1    1    2    0  502  0.10032917171E+03  0.11177521112E+03  0.14161201008E+03  0.26933733851E+03  0.17300000000E+03 0.  1.
<mgrwt>
<rscale>  2 0.22910399E+03</rscale>
<asrwt>0</asrwt>
<pdfrwt beam="1">  1       21 0.43257753E-01 0.22910399E+03</pdfrwt>
<pdfrwt beam="2">  1       21 0.36493118E-01 0.22910399E+03</pdfrwt>
<totfact> 0.36533061E+04</totfact>
</mgrwt>
</event>
<event>
 4    1  0.4199481E+000  0.2255196E+03  0.7546771E-02  0.1129834E+00
         21   -1    0    0  501  502  0.00000000000E+00  0.00000000000E+00  0.19727121414E+03  0.19727121414E+03  0.00000000000E+00 0. -1.
         21   -1    0    0  502  503 -0.00000000000E+00 -0.00000000000E+00 -0.91080837021E+03  0.91080837021E+03  0.00000000000E+00 0. -1.
          6    1    1    2  501    0 -0.11617991651E+03  0.86211017257E+02  0.11234980682E+03  0.25195553494E+03  0.17300000000E+03 0. -1.
         -6    1    1    2    0  503  0.11617991651E+03 -0.86211017257E+02 -0.82588696289E+03  0.85612404940E+03  0.17300000000E+03 0. -1.
<mgrwt>
<rscale>  2 0.22551965E+03</rscale>
<asrwt>0</asrwt>
<pdfrwt beam="1">  1       21 0.30349418E-01 0.22551965E+03</pdfrwt>
<pdfrwt beam="2">  1       21 0.14012436E+00 0.22551965E+03</pdfrwt>
<totfact> 0.36197062E+03</totfact>
</mgrwt>
</event>
<event>
 4    1  0.4199481E+000  0.2153281E+03  0.7546771E-02  0.1137415E+00
         21   -1    0    0  503  502  0.00000000000E+00  0.00000000000E+00  0.96033858161E+03  0.96033858161E+03  0.00000000000E+00 0. -1.
         21   -1    0    0  501  503 -0.00000000000E+00 -0.00000000000E+00 -0.64840975811E+02  0.64840975811E+02  0.00000000000E+00 0. -1.
          6    1    1    2  501    0 -0.97369665212E+02 -0.83404750955E+02  0.18870470977E+03  0.28631393902E+03  0.17300000000E+03 0. -1.
         -6    1    1    2    0  502  0.97369665212E+02  0.83404750955E+02  0.70679289603E+03  0.73886561840E+03  0.17300000000E+03 0. -1.
<mgrwt>
<rscale>  2 0.21532813E+03</rscale>
<asrwt>0</asrwt>
<pdfrwt beam="1">  1       21 0.14774439E+00 0.21532813E+03</pdfrwt>
<pdfrwt beam="2">  1       21 0.99755354E-02 0.21532813E+03</pdfrwt>
<totfact> 0.24988491E+04</totfact>
</mgrwt>
</event>
<event>
 4    1  0.4199481E+000  0.1802239E+03  0.7546771E-02  0.1167587E+00
         21   -1    0    0  503  502  0.00000000000E+00  0.00000000000E+00  0.53817761535E+02  0.53817761535E+02  0.00000000000E+00 0.  1.
         21   -1    0    0  501  503 -0.00000000000E+00 -0.00000000000E+00 -0.68875696267E+03  0.68875696267E+03  0.00000000000E+00 0.  1.
          6    1    1    2  501    0 -0.27876669528E+02  0.42125466392E+02 -0.44807593808E+03  0.48296243116E+03  0.17300000000E+03 0.  1.
         -6    1    1    2    0  502  0.27876669528E+02 -0.42125466392E+02 -0.18686326306E+03  0.25961229305E+03  0.17300000000E+03 0.  1.
<mgrwt>
<rscale>  2 0.18022393E+03</rscale>
<asrwt>0</asrwt>
<pdfrwt beam="1">  1       21 0.82796559E-02 0.18022393E+03</pdfrwt>
<pdfrwt beam="2">  1       21 0.10596261E+00 0.18022393E+03</pdfrwt>
<totfact> 0.81234819E+04</totfact>
</mgrwt>
</event>
<event>
 4    1  0.4199481E+000  0.2276228E+03  0.7546771E-02  0.1128324E+00
         21   -1    0    0  501  502  0.00000000000E+00  0.00000000000E+00  0.67544374739E+02  0.67544374739E+02  0.00000000000E+00 0. -1.
         21   -1    0    0  502  503 -0.00000000000E+00 -0.00000000000E+00 -0.11461412477E+04  0.11461412477E+04  0.00000000000E+00 0.  1.
          6    1    1    2  501    0  0.11851571005E+03 -0.88527755935E+02 -0.19031070968E+03  0.29669901132E+03  0.17300000000E+03 0. -1.
         -6    1    1    2    0  503 -0.11851571005E+03  0.88527755935E+02 -0.88828616330E+03  0.91698661114E+03  0.17300000000E+03 0.  1.
<mgrwt>
<rscale>  2 0.22762280E+03</rscale>
<asrwt>0</asrwt>
<pdfrwt beam="1">  1       21 0.10391443E-01 0.22762280E+03</pdfrwt>
<pdfrwt beam="2">  1       21 0.17632940E+00 0.22762280E+03</pdfrwt>
<totfact> 0.14254870E+04</totfact>
</mgrwt>
</event>
<event>
 4    1  0.4199481E+000  0.2041148E+03  0.7546771E-02  0.1146313E+00
         21   -1    0    0  503  502  0.00000000000E+00  0.00000000000E+00  0.30467822791E+03  0.30467822791E+03  0.00000000000E+00 0.  1.
         21   -1    0    0  501  503 -0.00000000000E+00 -0.00000000000E+00 -0.25665237991E+03  0.25665237991E+03  0.00000000000E+00 0.  1.
          6    1    1    2  501    0  0.92763779933E+02 -0.55934997669E+02 -0.16782802056E+03  0.26425193910E+03  0.17300000000E+03 0.  1.
         -6    1    1    2    0  502 -0.92763779933E+02  0.55934997669E+02  0.21585386856E+03  0.29707866872E+03  0.17300000000E+03 0.  1.
<mgrwt>
<rscale>  2 0.20411478E+03</rscale>
<asrwt>0</asrwt>
<pdfrwt beam="1">  1       21 0.46873573E-01 0.20411478E+03</pdfrwt>
<pdfrwt beam="2">  1       21 0.39484982E-01 0.20411478E+03</pdfrwt>
<totfact> 0.26765402E+04</totfact>
</mgrwt>
</event>
<event>
 4    1  0.4199481E+000  0.2308600E+03  0.7546771E-02  0.1126036E+00
         21   -1    0    0  503  502  0.00000000000E+00  0.00000000000E+00  0.48324134643E+02  0.48324134643E+02  0.00000000000E+00 0. -1.
         21   -1    0    0  501  503 -0.00000000000E+00 -0.00000000000E+00 -0.12359016024E+04  0.12359016024E+04  0.00000000000E+00 0. -1.
          6    1    1    2  501    0 -0.97628565749E+02 -0.11762644714E+03 -0.80443820305E+03  0.83690927850E+03  0.17300000000E+03 0. -1.
         -6    1    1    2    0  502  0.97628565749E+02  0.11762644714E+03 -0.38313926468E+03  0.44731645851E+03  0.17300000000E+03 0. -1.
<mgrwt>
<rscale>  2 0.23085995E+03</rscale>
<asrwt>0</asrwt>
<pdfrwt beam="1">  1       21 0.74344827E-02 0.23085995E+03</pdfrwt>
<pdfrwt beam="2">  1       21 0.19013870E+00 0.23085995E+03</pdfrwt>
<totfact> 0.20656091E+04</totfact>
</mgrwt>
</event>
<event>
 4    1  0.4199481E+000  0.2060436E+03  0.7546771E-02  0.1144738E+00
         21   -1    0    0  501  502  0.00000000000E+00  0.00000000000E+00  0.36893516927E+03  0.36893516927E+03  0.00000000000E+00 0. -1.
         21   -1    0    0  502  503 -0.00000000000E+00 -0.00000000000E+00 -0.14657757891E+03  0.14657757891E+03  0.00000000000E+00 0. -1.
          6    1    1    2  501    0 -0.75012822190E+02  0.83054508282E+02  0.23067988274E+03  0.30930112050E+03  0.17300000000E+03 0. -1.
         -6    1    1    2    0  503  0.75012822190E+02 -0.83054508282E+02 -0.83222923806E+01  0.20621162768E+03  0.17300000000E+03 0. -1.
<mgrwt>
<rscale>  2 0.20604362E+03</rscale>
<asrwt>0</asrwt>
<pdfrwt beam="1">  1       21 0.56759256E-01 0.20604362E+03</pdfrwt>
<pdfrwt beam="2">  1       21 0.22550397E-01 0.20604362E+03</pdfrwt>
<totfact> 0.53409593E+04</totfact>
</mgrwt>
</event>
<event>
 4    1  0.4199481E+000  0.1826463E+03  0.7546771E-02  0.1165266E+00
         21   -1    0    0  503  502  0.00000000000E+00  0.00000000000E+00  0.60247426342E+02  0.60247426342E+02  0.00000000000E+00 0.  1.
         21   -1    0    0  501  503 -0.00000000000E+00 -0.00000000000E+00 -0.56372660013E+03  0.56372660013E+03  0.00000000000E+00 0. -1.
          6    1    1    2  501    0 -0.51636266230E+02  0.27647452283E+02 -0.29332418344E+03  0.34554125977E+03  0.17300000000E+03 0.  1.
         -6    1    1    2    0  502  0.51636266230E+02 -0.27647452283E+02 -0.21015499034E+03  0.27843276670E+03  0.17300000000E+03 0.  1.
<mgrwt>
<rscale>  2 0.18264634E+03</rscale>
<asrwt>0</asrwt>
<pdfrwt beam="1">  1       21 0.92688352E-02 0.18264634E+03</pdfrwt>
<pdfrwt beam="2">  1       21 0.86727166E-01 0.18264634E+03</pdfrwt>
<totfact> 0.10655809E+05</totfact>
</mgrwt>
</event>
<event>
 4    1  0.4199481E+000  0.1731794E+03  0.7546771E-02  0.1174572E+00
         21   -1    0    0  503  502  0.00000000000E+00  0.00000000000E+00  0.15269679033E+03  0.15269679033E+03  0.00000000000E+00 0.  1.
         21   -1    0    0  501  503 -0.00000000000E+00 -0.00000000000E+00 -0.10708590228E+04  0.10708590228E+04  0.00000000000E+00 0.  1.
          6    1    1    2  501    0  0.72996441055E+01 -0.29721760744E+01 -0.10119154176E+04  0.10266274548E+04  0.17300000000E+03 0.  1.
         -6    1    1    2    0  502 -0.72996441055E+01  0.29721760744E+01  0.93753185039E+02  0.19692835839E+03  0.17300000000E+03 0.  1.
<mgrwt>
<rscale>  2 0.17317944E+03</rscale>
<asrwt>0</asrwt>
<pdfrwt beam="1">  1       21 0.23491814E-01 0.17317944E+03</pdfrwt>
<pdfrwt beam="2">  1       21 0.16474754E+00 0.17317944E+03</pdfrwt>
<totfact> 0.40368434E+03</totfact>
</mgrwt>
</event>
<event>
 4    1  0.4199481E+000  0.2699135E+03  0.7546771E-02  0.1101329E+00
         21   -1    0    0  503  502  0.00000000000E+00  0.00000000000E+00  0.28444991176E+03  0.28444991176E+03  0.00000000000E+00 0.  1.
         21   -1    0    0  501  503 -0.00000000000E+00 -0.00000000000E+00 -0.25628877595E+03  0.25628877595E+03  0.00000000000E+00 0. -1.
          6    1    1    2  501    0 -0.17539995637E+03 -0.11026852522E+03  0.21020162340E+02  0.27073075107E+03  0.17300000000E+03 0.  1.
         -6    1    1    2    0  502  0.17539995637E+03  0.11026852522E+03  0.71409734687E+01  0.27000793664E+03  0.17300000000E+03 0. -1.
<mgrwt>
<rscale>  2 0.26991349E+03</rscale>
<asrwt>0</asrwt>
<pdfrwt beam="1">  1       21 0.43761525E-01 0.26991349E+03</pdfrwt>
<pdfrwt beam="2">  1       21 0.39429042E-01 0.26991349E+03</pdfrwt>
<totfact> 0.29981771E+04</totfact>
</mgrwt>
</event>
<event>
 4    1  0.4199481E+000  0.3661034E+03  0.7546771E-02  0.1056193E+00
         21   -1    0    0  501  502  0.00000000000E+00  0.00000000000E+00  0.22784100206E+03  0.22784100206E+03  0.00000000000E+00 0. -1.
         21   -1    0    0  502  503 -0.00000000000E+00 -0.00000000000E+00 -0.18652697834E+04  0.18652697834E+04  0.00000000000E+00 0.  1.
          6    1    1    2  501    0  0.97292610099E+01 -0.32250278289E+03  0.47224101661E+02  0.36913658620E+03  0.17300000000E+03 0. -1.
         -6    1    1    2    0  503 -0.97292610099E+01  0.32250278289E+03 -0.16846528830E+04  0.17239741992E+04  0.17300000000E+03 0.  1.
<mgrwt>
<rscale>  2 0.36610341E+03</rscale>
<asrwt>0</asrwt>
<pdfrwt beam="1">  1       21 0.35052460E-01 0.36610341E+03</pdfrwt>
<pdfrwt beam="2">  1       21 0.28696459E+00 0.36610341E+03</pdfrwt>
<totfact> 0.26592554E+02</totfact>
</mgrwt>
</event>
<event>
 4    1  0.4199481E+000  0.2199421E+03  0.7546771E-02  0.1133926E+00
         21   -1    0    0  503  502  0.00000000000E+00  0.00000000000E+00  0.31410126367E+03  0.31410126367E+03  0.00000000000E+00 0.  1.
         21   -1    0    0  501  503 -0.00000000000E+00 -0.00000000000E+00 -0.17106453872E+03  0.17106453872E+03  0.00000000000E+00 0.  1.
          6    1    1    2  501    0 -0.14801436548E+02  0.13500540745E+03 -0.50779751331E+01  0.22000074635E+03  0.17300000000E+03 0.  1.
         -6    1    1    2    0  502  0.14801436548E+02 -0.13500540745E+03  0.14811470007E+03  0.26516505604E+03  0.17300000000E+03 0.  1.
<mgrwt>
<rscale>  2 0.21994213E+03</rscale>
<asrwt>0</asrwt>
<pdfrwt beam="1">  1       21 0.48323271E-01 0.21994213E+03</pdfrwt>
<pdfrwt beam="2">  1       21 0.26317621E-01 0.21994213E+03</pdfrwt>
<totfact> 0.55453145E+04</totfact>
</mgrwt>
</event>
<event>
 4    1  0.4199481E+000  0.1951988E+03  0.7546771E-02  0.1153854E+00
         21   -1    0    0  501  502  0.00000000000E+00  0.00000000000E+00  0.47291490685E+02  0.47291490685E+02  0.00000000000E+00 0.  1.
         21   -1    0    0  502  503 -0.00000000000E+00 -0.00000000000E+00 -0.26807123869E+04  0.26807123869E+04  0.00000000000E+00 0.  1.
          6    1    1    2  501    0  0.72243936393E+02 -0.54354275201E+02 -0.17595542552E+03  0.26279818369E+03  0.17300000000E+03 0.  1.
         -6    1    1    2    0  503 -0.72243936393E+02  0.54354275201E+02 -0.24574654707E+04  0.24652056939E+04  0.17300000000E+03 0.  1.
<mgrwt>
<rscale>  2 0.19519881E+03</rscale>
<asrwt>0</asrwt>
<pdfrwt beam="1">  1       21 0.72756154E-02 0.19519881E+03</pdfrwt>
<pdfrwt beam="2">  1       21 0.41241721E+00 0.19519881E+03</pdfrwt>
<totfact> 0.10263691E+03</totfact>
</mgrwt>
</event>
<event>
 4    1  0.4199481E+000  0.1815204E+03  0.7546771E-02  0.1166340E+00
         21   -1    0    0  501  502  0.00000000000E+00  0.00000000000E+00  0.32841179120E+03  0.32841179120E+03  0.00000000000E+00 0. -1.
         21   -1    0    0  502  503 -0.00000000000E+00 -0.00000000000E+00 -0.16379547934E+03  0.16379547934E+03  0.00000000000E+00 0.  1.
          6    1    1    2  501    0 -0.54571685578E+02 -0.65247516728E+01  0.23549975763E+03  0.29733781645E+03  0.17300000000E+03 0. -1.
         -6    1    1    2    0  503  0.54571685578E+02  0.65247516728E+01 -0.70883445775E+02  0.19486945409E+03  0.17300000000E+03 0.  1.
<mgrwt>
<rscale>  2 0.18152036E+03</rscale>
<asrwt>0</asrwt>
<pdfrwt beam="1">  1       21 0.50524891E-01 0.18152036E+03</pdfrwt>
<pdfrwt beam="2">  1       21 0.25199305E-01 0.18152036E+03</pdfrwt>
<totfact> 0.55904078E+04</totfact>
</mgrwt>
</event>
<event>
 4    1  0.4199481E+000  0.1757991E+03  0.7546771E-02  0.1171932E+00
         21   -1    0    0  501  502  0.00000000000E+00  0.00000000000E+00  0.56792045240E+02  0.56792045240E+02  0.00000000000E+00 0.  1.
         21   -1    0    0  502  503 -0.00000000000E+00 -0.00000000000E+00 -0.72370956860E+03  0.72370956860E+03  0.00000000000E+00 0.  1.
          6    1    1    2  501    0  0.27185750232E+02  0.15403040304E+02 -0.13909070784E+03  0.22416856085E+03  0.17300000000E+03 0. -1.
         -6    1    1    2    0  503 -0.27185750232E+02 -0.15403040304E+02 -0.52782681552E+03  0.55633305299E+03  0.17300000000E+03 0. -1.
<mgrwt>
<rscale>  2 0.17579909E+03</rscale>
<asrwt>0</asrwt>
<pdfrwt beam="1">  1       21 0.87372377E-02 0.17579909E+03</pdfrwt>
<pdfrwt beam="2">  1       21 0.11133993E+00 0.17579909E+03</pdfrwt>
<totfact> 0.65784101E+04</totfact>
</mgrwt>
</event>
<event>
 4    1  0.4199481E+000  0.1790949E+03  0.7546771E-02  0.1168682E+00
         21   -1    0    0  503  502  0.00000000000E+00  0.00000000000E+00  0.51023145959E+02  0.51023145959E+02  0.00000000000E+00 0. -1.
         21   -1    0    0  501  503 -0.00000000000E+00 -0.00000000000E+00 -0.63027563980E+03  0.63027563980E+03  0.00000000000E+00 0. -1.
          6    1    1    2  501    0  0.40395089538E+02 -0.22676064876E+02 -0.30700291196E+03  0.35542334635E+03  0.17300000000E+03 0. -1.
         -6    1    1    2    0  502 -0.40395089538E+02  0.22676064876E+02 -0.27224958188E+03  0.32587543941E+03  0.17300000000E+03 0. -1.
<mgrwt>
<rscale>  2 0.17909486E+03</rscale>
<asrwt>0</asrwt>
<pdfrwt beam="1">  1       21 0.78497142E-02 0.17909486E+03</pdfrwt>
<pdfrwt beam="2">  1       21 0.96965491E-01 0.17909486E+03</pdfrwt>
<totfact> 0.11009341E+05</totfact>
</mgrwt>
</event>
<event>
 4    1  0.4199481E+000  0.1950607E+03  0.7546771E-02  0.1153974E+00
         21   -1    0    0  501  502  0.00000000000E+00  0.00000000000E+00  0.10517103091E+03  0.10517103091E+03  0.00000000000E+00 0.  1.
         21   -1    0    0  502  503 -0.00000000000E+00 -0.00000000000E+00 -0.36194532798E+03  0.36194532798E+03  0.00000000000E+00 0. -1.
          6    1    1    2  501    0  0.81934812592E+02 -0.37501563628E+02 -0.12338188288E+03  0.23080678025E+03  0.17300000000E+03 0. -1.
         -6    1    1    2    0  503 -0.81934812592E+02  0.37501563628E+02 -0.13339241419E+03  0.23630957863E+03  0.17300000000E+03 0.  1.
<mgrwt>
<rscale>  2 0.19506071E+03</rscale>
<asrwt>0</asrwt>
<pdfrwt beam="1">  1       21 0.16180159E-01 0.19506071E+03</pdfrwt>
<pdfrwt beam="2">  1       21 0.55683897E-01 0.19506071E+03</pdfrwt>
<totfact> 0.10370468E+05</totfact>
</mgrwt>
</event>
<event>
 4    1  0.4199481E+000  0.1934869E+03  0.7546771E-02  0.1155353E+00
         21   -1    0    0  503  502  0.00000000000E+00  0.00000000000E+00  0.17580437615E+03  0.17580437615E+03  0.00000000000E+00 0. -1.
         21   -1    0    0  501  503 -0.00000000000E+00 -0.00000000000E+00 -0.24473357171E+03  0.24473357171E+03  0.00000000000E+00 0.  1.
          6    1    1    2  501    0 -0.44086764798E+01  0.86537613817E+02 -0.11024261728E+03  0.22268953657E+03  0.17300000000E+03 0.  1.
         -6    1    1    2    0  502  0.44086764798E+01 -0.86537613817E+02  0.41313421727E+02  0.19784841129E+03  0.17300000000E+03 0. -1.
<mgrwt>
<rscale>  2 0.19348694E+03</rscale>
<asrwt>0</asrwt>
<pdfrwt beam="1">  1       21 0.27046827E-01 0.19348694E+03</pdfrwt>
<pdfrwt beam="2">  1       21 0.37651319E-01 0.19348694E+03</pdfrwt>
<totfact> 0.88591856E+04</totfact>
</mgrwt>
</event>
<event>
 4    1  0.4199481E+000  0.2032443E+03  0.7546771E-02  0.1147030E+00
         21   -1    0    0  503  502  0.00000000000E+00  0.00000000000E+00  0.28950079814E+03  0.28950079814E+03  0.00000000000E+00 0. -1.
         21   -1    0    0  501  503 -0.00000000000E+00 -0.00000000000E+00 -0.31898181764E+03  0.31898181764E+03  0.00000000000E+00 0. -1.
          6    1    1    2  501    0  0.10642866048E+03 -0.72228771354E+01 -0.24092041217E+03  0.31519973783E+03  0.17300000000E+03 0. -1.
         -6    1    1    2    0  502 -0.10642866048E+03  0.72228771354E+01  0.21143939267E+03  0.29328287795E+03  0.17300000000E+03 0. -1.
<mgrwt>
<rscale>  2 0.20324426E+03</rscale>
<asrwt>0</asrwt>
<pdfrwt beam="1">  1       21 0.44538584E-01 0.20324426E+03</pdfrwt>
<pdfrwt beam="2">  1       21 0.49074126E-01 0.20324426E+03</pdfrwt>
<totfact> 0.19051268E+04</totfact>
</mgrwt>
</event>
<event>
 4    1  0.4199481E+000  0.1987412E+03  0.7546771E-02  0.1150805E+00
         21   -1    0    0  501  502  0.00000000000E+00  0.00000000000E+00  0.55240687370E+03  0.55240687370E+03  0.00000000000E+00 0.  1.
         21   -1    0    0  502  503 -0.00000000000E+00 -0.00000000000E+00 -0.13620972227E+03  0.13620972227E+03  0.00000000000E+00 0.  1.
          6    1    1    2  501    0  0.11231256107E+02 -0.97174691298E+02  0.44541200195E+03  0.48773959571E+03  0.17300000000E+03 0.  1.
         -6    1    1    2    0  503 -0.11231256107E+02  0.97174691298E+02 -0.29214850518E+02  0.20087700026E+03  0.17300000000E+03 0.  1.
<mgrwt>
<rscale>  2 0.19874119E+03</rscale>
<asrwt>0</asrwt>
<pdfrwt beam="1">  1       21 0.84985671E-01 0.19874119E+03</pdfrwt>
<pdfrwt beam="2">  1       21 0.20955342E-01 0.19874119E+03</pdfrwt>
<totfact> 0.25265611E+04</totfact>
</mgrwt>
</event>
<event>
 4    1  0.4199481E+000  0.2059442E+03  0.7546771E-02  0.1144819E+00
         21   -1    0    0  503  502  0.00000000000E+00  0.00000000000E+00  0.16459109452E+03  0.16459109452E+03  0.00000000000E+00 0.  1.
         21   -1    0    0  501  503 -0.00000000000E+00 -0.00000000000E+00 -0.37736541540E+03  0.37736541540E+03  0.00000000000E+00 0.  1.
          6    1    1    2  501    0 -0.11124820030E+03  0.10385392605E+02 -0.25898941303E+03  0.33089051741E+03  0.17300000000E+03 0.  1.
         -6    1    1    2    0  502  0.11124820030E+03 -0.10385392605E+02  0.46215092160E+02  0.21106599251E+03  0.17300000000E+03 0.  1.
<mgrwt>
<rscale>  2 0.20594421E+03</rscale>
<asrwt>0</asrwt>
<pdfrwt beam="1">  1       21 0.25321707E-01 0.20594421E+03</pdfrwt>
<pdfrwt beam="2">  1       21 0.58056217E-01 0.20594421E+03</pdfrwt>
<totfact> 0.40820377E+04</totfact>
</mgrwt>
</event>
<event>
 4    1  0.4199481E+000  0.2194287E+03  0.7546771E-02  0.1134310E+00
         21   -1    0    0  501  502  0.00000000000E+00  0.00000000000E+00  0.12557992258E+03  0.12557992258E+03  0.00000000000E+00 0. -1.
         21   -1    0    0  502  503 -0.00000000000E+00 -0.00000000000E+00 -0.39923459105E+03  0.39923459105E+03  0.00000000000E+00 0.  1.
          6    1    1    2  501    0 -0.66137043226E+02 -0.11766838323E+03 -0.84589062566E+02  0.23516859145E+03  0.17300000000E+03 0. -1.
         -6    1    1    2    0  503  0.66137043226E+02  0.11766838323E+03 -0.18906560591E+03  0.28964592218E+03  0.17300000000E+03 0.  1.
<mgrwt>
<rscale>  2 0.21942871E+03</rscale>
<asrwt>0</asrwt>
<pdfrwt beam="1">  1       21 0.19319988E-01 0.21942871E+03</pdfrwt>
<pdfrwt beam="2">  1       21 0.61420706E-01 0.21942871E+03</pdfrwt>
<totfact> 0.59927967E+04</totfact>
</mgrwt>
</event>
<event>
 4    1  0.4199481E+000  0.2756904E+03  0.7546771E-02  0.1098066E+00
         21   -1    0    0  503  502  0.00000000000E+00  0.00000000000E+00  0.14214327147E+03  0.14214327147E+03  0.00000000000E+00 0. -1.
         21   -1    0    0  501  503 -0.00000000000E+00 -0.00000000000E+00 -0.64974682164E+03  0.64974682164E+03  0.00000000000E+00 0.  1.
          6    1    1    2  501    0 -0.15154967636E+03  0.15201607651E+03 -0.42040538735E+03  0.50273838290E+03  0.17300000000E+03 0.  1.
         -6    1    1    2    0  502  0.15154967636E+03 -0.15201607651E+03 -0.87198162816E+02  0.28915171022E+03  0.17300000000E+03 0. -1.
<mgrwt>
<rscale>  2 0.27569039E+03</rscale>
<asrwt>0</asrwt>
<pdfrwt beam="1">  1       21 0.21868195E-01 0.27569039E+03</pdfrwt>
<pdfrwt beam="2">  1       21 0.99961050E-01 0.27569039E+03</pdfrwt>
<totfact> 0.15311533E+04</totfact>
</mgrwt>
</event>
<event>
 4    1  0.4199481E+000  0.1883804E+03  0.7546771E-02  0.1159930E+00
         21   -1    0    0  501  502  0.00000000000E+00  0.00000000000E+00  0.95721483669E+02  0.95721483669E+02  0.00000000000E+00 0.  1.
         21   -1    0    0  502  503 -0.00000000000E+00 -0.00000000000E+00 -0.51166514369E+03  0.51166514369E+03  0.00000000000E+00 0.  1.
          6    1    1    2  501    0  0.42717035264E+02  0.61101930860E+02 -0.48587330337E+02  0.19454541816E+03  0.17300000000E+03 0.  1.
         -6    1    1    2    0  503 -0.42717035264E+02 -0.61101930860E+02 -0.36735632968E+03  0.41284120920E+03  0.17300000000E+03 0.  1.
<mgrwt>
<rscale>  2 0.18838044E+03</rscale>
<asrwt>0</asrwt>
<pdfrwt beam="1">  1       21 0.14726382E-01 0.18838044E+03</pdfrwt>
<pdfrwt beam="2">  1       21 0.78717714E-01 0.18838044E+03</pdfrwt>
<totfact> 0.57977257E+04</totfact>
</mgrwt>
</event>
<event>
 4    1  0.4199481E+000  0.2192367E+03  0.7546771E-02  0.1134453E+00
         21   -1    0    0  501  502  0.00000000000E+00  0.00000000000E+00  0.22733172178E+03  0.22733172178E+03  0.00000000000E+00 0.  1.
         21   -1    0    0  502  503 -0.00000000000E+00 -0.00000000000E+00 -0.25183621170E+03  0.25183621170E+03  0.00000000000E+00 0.  1.
          6    1    1    2  501    0  0.13443737469E+03  0.78943207417E+01  0.83715027903E+02  0.23467623209E+03  0.17300000000E+03 0.  1.
         -6    1    1    2    0  503 -0.13443737469E+03 -0.78943207417E+01 -0.10821951782E+03  0.24449170139E+03  0.17300000000E+03 0.  1.
<mgrwt>
<rscale>  2 0.21923669E+03</rscale>
<asrwt>0</asrwt>
<pdfrwt beam="1">  1       21 0.34974111E-01 0.21923669E+03</pdfrwt>
<pdfrwt beam="2">  1       21 0.38744033E-01 0.21923669E+03</pdfrwt>
<totfact> 0.49990184E+04</totfact>
</mgrwt>
</event>
<event>
 4    1  0.4199481E+000  0.1972224E+03  0.7546771E-02  0.1152104E+00
         21   -1    0    0  501  502  0.00000000000E+00  0.00000000000E+00  0.19493279303E+03  0.19493279303E+03  0.00000000000E+00 0. -1.
         21   -1    0    0  502  503 -0.00000000000E+00 -0.00000000000E+00 -0.24521866104E+03  0.24521866104E+03  0.00000000000E+00 0. -1.
          6    1    1    2  501    0  0.90779208411E+02 -0.26959152804E+02 -0.12012850812E+03  0.23092751907E+03  0.17300000000E+03 0. -1.
         -6    1    1    2    0  503 -0.90779208411E+02  0.26959152804E+02  0.69842640111E+02  0.20922393500E+03  0.17300000000E+03 0. -1.
<mgrwt>
<rscale>  2 0.19722236E+03</rscale>
<asrwt>0</asrwt>
<pdfrwt beam="1">  1       21 0.29989660E-01 0.19722236E+03</pdfrwt>
<pdfrwt beam="2">  1       21 0.37725948E-01 0.19722236E+03</pdfrwt>
<totfact> 0.72112655E+04</totfact>
</mgrwt>
</event>
<event>
 4    1  0.4199481E+000  0.2312730E+03  0.7546771E-02  0.1125747E+00
         21   -1    0    0  503  502  0.00000000000E+00  0.00000000000E+00  0.10373857138E+04  0.10373857138E+04  0.00000000000E+00 0. -1.
         21   -1    0    0  501  503 -0.00000000000E+00 -0.00000000000E+00 -0.59477251137E+02  0.59477251137E+02  0.00000000000E+00 0.  1.
          6    1    1    2  501    0  0.93790594919E+02 -0.12149705367E+03  0.28885535175E+03  0.37003327416E+03  0.17300000000E+03 0.  1.
         -6    1    1    2    0  502 -0.93790594919E+02  0.12149705367E+03  0.68905311093E+03  0.72682969080E+03  0.17300000000E+03 0. -1.
<mgrwt>
<rscale>  2 0.23127302E+03</rscale>
<asrwt>0</asrwt>
<pdfrwt beam="1">  1       21 0.15959779E+00 0.23127302E+03</pdfrwt>
<pdfrwt beam="2">  1       21 0.91503470E-02 0.23127302E+03</pdfrwt>
<totfact> 0.23461966E+04</totfact>
</mgrwt>
</event>
<event>
 4    1  0.4199481E+000  0.2028852E+03  0.7546771E-02  0.1147327E+00
         21   -1    0    0  501  502  0.00000000000E+00  0.00000000000E+00  0.94558406641E+02  0.94558406641E+02  0.00000000000E+00 0. -1.
         21   -1    0    0  502  503 -0.00000000000E+00 -0.00000000000E+00 -0.55082502588E+03  0.55082502588E+03  0.00000000000E+00 0.  1.
          6    1    1    2  501    0 -0.56111122777E+02  0.89916353202E+02 -0.80359838749E+02  0.21822032984E+03  0.17300000000E+03 0. -1.
         -6    1    1    2    0  503  0.56111122777E+02 -0.89916353202E+02 -0.37590678049E+03  0.42716310268E+03  0.17300000000E+03 0.  1.
<mgrwt>
<rscale>  2 0.20288521E+03</rscale>
<asrwt>0</asrwt>
<pdfrwt beam="1">  1       21 0.14547447E-01 0.20288521E+03</pdfrwt>
<pdfrwt beam="2">  1       21 0.84742314E-01 0.20288521E+03</pdfrwt>
<totfact> 0.49787997E+04</totfact>
</mgrwt>
</event>
<event>
 4    1  0.4199481E+000  0.1936362E+03  0.7546771E-02  0.1155222E+00
         21   -1    0    0  501  502  0.00000000000E+00  0.00000000000E+00  0.67071512941E+03  0.67071512941E+03  0.00000000000E+00 0.  1.
         21   -1    0    0  502  503 -0.00000000000E+00 -0.00000000000E+00 -0.58098105062E+02  0.58098105062E+02  0.00000000000E+00 0.  1.
          6    1    1    2  501    0  0.69078194451E+02  0.52860183555E+02  0.23547614831E+03  0.30486720450E+03  0.17300000000E+03 0.  1.
         -6    1    1    2    0  503 -0.69078194451E+02 -0.52860183555E+02  0.37714087603E+03  0.42394602997E+03  0.17300000000E+03 0.  1.
<mgrwt>
<rscale>  2 0.19363625E+03</rscale>
<asrwt>0</asrwt>
<pdfrwt beam="1">  1       21 0.10318694E+00 0.19363625E+03</pdfrwt>
<pdfrwt beam="2">  1       21 0.89381705E-02 0.19363625E+03</pdfrwt>
<totfact> 0.75286117E+04</totfact>
</mgrwt>
</event>
<event>
 4    1  0.4199481E+000  0.2284483E+03  0.7546771E-02  0.1127737E+00
         21   -1    0    0  501  502  0.00000000000E+00  0.00000000000E+00  0.62030501950E+02  0.62030501950E+02  0.00000000000E+00 0.  1.
         21   -1    0    0  502  503 -0.00000000000E+00 -0.00000000000E+00 -0.84181191933E+03  0.84181191933E+03  0.00000000000E+00 0. -1.
          6    1    1    2  501    0 -0.87183956534E+01  0.14894171229E+03 -0.40060881288E+03  0.46116815267E+03  0.17300000000E+03 0. -1.
         -6    1    1    2    0  503  0.87183956534E+01 -0.14894171229E+03 -0.37917260450E+03  0.44267426861E+03  0.17300000000E+03 0.  1.
<mgrwt>
<rscale>  2 0.22844834E+03</rscale>
<asrwt>0</asrwt>
<pdfrwt beam="1">  1       21 0.95431552E-02 0.22844834E+03</pdfrwt>
<pdfrwt beam="2">  1       21 0.12950951E+00 0.22844834E+03</pdfrwt>
<totfact> 0.37708295E+04</totfact>
</mgrwt>
</event>
<event>
 4    1  0.4199481E+000  0.2189681E+03  0.7546771E-02  0.1134655E+00
         21   -1    0    0  503  502  0.00000000000E+00  0.00000000000E+00  0.57898992214E+03  0.57898992214E+03  0.00000000000E+00 0. -1.
         21   -1    0    0  501  503 -0.00000000000E+00 -0.00000000000E+00 -0.42305381153E+03  0.42305381153E+03  0.00000000000E+00 0.  1.
          6    1    1    2  501    0  0.86970693935E+02  0.10224546625E+03 -0.37134912052E+03  0.43109999569E+03  0.17300000000E+03 0.  1.
         -6    1    1    2    0  502 -0.86970693935E+02 -0.10224546625E+03  0.52728523113E+03  0.57094373799E+03  0.17300000000E+03 0. -1.
<mgrwt>
<rscale>  2 0.21896812E+03</rscale>
<asrwt>0</asrwt>
<pdfrwt beam="1">  1       21 0.89075372E-01 0.21896812E+03</pdfrwt>
<pdfrwt beam="2">  1       21 0.65085202E-01 0.21896812E+03</pdfrwt>
<totfact> 0.22863273E+03</totfact>
</mgrwt>
</event>
<event>
 4    1  0.4199481E+000  0.1982441E+03  0.7546771E-02  0.1151229E+00
         21   -1    0    0  503  502  0.00000000000E+00  0.00000000000E+00  0.30969521928E+03  0.30969521928E+03  0.00000000000E+00 0. -1.
         21   -1    0    0  501  503 -0.00000000000E+00 -0.00000000000E+00 -0.22078746591E+03  0.22078746591E+03  0.00000000000E+00 0. -1.
          6    1    1    2  501    0 -0.53074601836E+02 -0.80961883566E+02 -0.12850971988E+03  0.23625301703E+03  0.17300000000E+03 0. -1.
         -6    1    1    2    0  502  0.53074601836E+02  0.80961883566E+02  0.21741747325E+03  0.29422966816E+03  0.17300000000E+03 0. -1.
<mgrwt>
<rscale>  2 0.19824414E+03</rscale>
<asrwt>0</asrwt>
<pdfrwt beam="1">  1       21 0.47645418E-01 0.19824414E+03</pdfrwt>
<pdfrwt beam="2">  1       21 0.33967303E-01 0.19824414E+03</pdfrwt>
<totfact> 0.35068871E+04</totfact>
</mgrwt>
</event>
<event>
 4    1  0.4199481E+000  0.2279989E+03  0.7546771E-02  0.1128056E+00
         21   -1    0    0  503  502  0.00000000000E+00  0.00000000000E+00  0.72985629097E+03  0.72985629097E+03  0.00000000000E+00 0. -1.
         21   -1    0    0  501  503 -0.00000000000E+00 -0.00000000000E+00 -0.10239666793E+03  0.10239666793E+03  0.00000000000E+00 0. -1.
          6    1    1    2  501    0  0.14481268637E+03  0.32921065275E+02  0.84132251976E+02  0.24302622594E+03  0.17300000000E+03 0. -1.
         -6    1    1    2    0  502 -0.14481268637E+03 -0.32921065275E+02  0.54332737107E+03  0.58922673295E+03  0.17300000000E+03 0. -1.
<mgrwt>
<rscale>  2 0.22799893E+03</rscale>
<asrwt>0</asrwt>
<pdfrwt beam="1">  1       21 0.11228558E+00 0.22799893E+03</pdfrwt>
<pdfrwt beam="2">  1       21 0.15753334E-01 0.22799893E+03</pdfrwt>
<totfact> 0.21827835E+04</totfact>
</mgrwt>
</event>
<event>
 4    1  0.4199481E+000  0.1824395E+03  0.7546771E-02  0.1165463E+00
         21   -1    0    0  503  502  0.00000000000E+00  0.00000000000E+00  0.12247098932E+04  0.12247098932E+04  0.00000000000E+00 0. -1.
         21   -1    0    0  501  503 -0.00000000000E+00 -0.00000000000E+00 -0.35960004086E+02  0.35960004086E+02  0.00000000000E+00 0. -1.
          6    1    1    2  501    0 -0.28821476703E+02  0.50244197866E+02  0.28286013409E+03  0.33659175925E+03  0.17300000000E+03 0. -1.
         -6    1    1    2    0  502  0.28821476703E+02 -0.50244197866E+02  0.90588975506E+03  0.92407813807E+03  0.17300000000E+03 0. -1.
<mgrwt>
<rscale>  2 0.18243946E+03</rscale>
<asrwt>0</asrwt>
<pdfrwt beam="1">  1       21 0.18841687E+00 0.18243946E+03</pdfrwt>
<pdfrwt beam="2">  1       21 0.55323093E-02 0.18243946E+03</pdfrwt>
<totfact> 0.36435136E+04</totfact>
</mgrwt>
</event>
<event>
 4    1  0.4199481E+000  0.1734041E+03  0.7546771E-02  0.1174344E+00
         21   -1    0    0  501  502  0.00000000000E+00  0.00000000000E+00  0.40691783897E+02  0.40691783897E+02  0.00000000000E+00 0. -1.
         21   -1    0    0  502  503 -0.00000000000E+00 -0.00000000000E+00 -0.90103038787E+03  0.90103038787E+03  0.00000000000E+00 0. -1.
          6    1    1    2  501    0 -0.89472808195E+01 -0.77402412672E+01 -0.23046112885E+03  0.28841167986E+03  0.17300000000E+03 0. -1.
         -6    1    1    2    0  503  0.89472808195E+01  0.77402412672E+01 -0.62987747513E+03  0.65331049191E+03  0.17300000000E+03 0. -1.
<mgrwt>
<rscale>  2 0.17340405E+03</rscale>
<asrwt>0</asrwt>
<pdfrwt beam="1">  1       21 0.62602749E-02 0.17340405E+03</pdfrwt>
<pdfrwt beam="2">  1       21 0.13862005E+00 0.17340405E+03</pdfrwt>
<totfact> 0.67970344E+04</totfact>
</mgrwt>
</event>
<event>
 4    1  0.4199481E+000  0.3204052E+03  0.7546771E-02  0.1075463E+00
         21   -1    0    0  501  502  0.00000000000E+00  0.00000000000E+00  0.29168507179E+03  0.29168507179E+03  0.00000000000E+00 0. -1.
         21   -1    0    0  502  503 -0.00000000000E+00 -0.00000000000E+00 -0.64011163847E+03  0.64011163847E+03  0.00000000000E+00 0.  1.
          6    1    1    2  501    0 -0.12403668907E+03  0.23946898204E+03  0.13837952952E+03  0.34901058406E+03  0.17300000000E+03 0. -1.
         -6    1    1    2    0  503  0.12403668907E+03 -0.23946898204E+03 -0.48680609620E+03  0.58278612620E+03  0.17300000000E+03 0.  1.
<mgrwt>
<rscale>  2 0.32040520E+03</rscale>
<asrwt>0</asrwt>
<pdfrwt beam="1">  1       21 0.44874627E-01 0.32040520E+03</pdfrwt>
<pdfrwt beam="2">  1       21 0.98478713E-01 0.32040520E+03</pdfrwt>
<totfact> 0.37356798E+03</totfact>
</mgrwt>
</event>
<event>
 4    1  0.4199481E+000  0.1877532E+03  0.7546771E-02  0.1160504E+00
         21   -1    0    0  501  502  0.00000000000E+00  0.00000000000E+00  0.20835523899E+03  0.20835523899E+03  0.00000000000E+00 0. -1.
         21   -1    0    0  502  503 -0.00000000000E+00 -0.00000000000E+00 -0.18801597068E+03  0.18801597068E+03  0.00000000000E+00 0. -1.
          6    1    1    2  501    0  0.72513099028E+02 -0.80082545439E+01 -0.52545493909E+02  0.19496746037E+03  0.17300000000E+03 0. -1.
         -6    1    1    2    0  503 -0.72513099028E+02  0.80082545439E+01  0.72884762215E+02  0.20140374931E+03  0.17300000000E+03 0. -1.
<mgrwt>
<rscale>  2 0.18775325E+03</rscale>
<asrwt>0</asrwt>
<pdfrwt beam="1">  1       21 0.32054652E-01 0.18775325E+03</pdfrwt>
<pdfrwt beam="2">  1       21 0.28925534E-01 0.18775325E+03</pdfrwt>
<totfact> 0.10727664E+05</totfact>
</mgrwt>
</event>
<event>
 4    1  0.4199481E+000  0.2964903E+03  0.7546771E-02  0.1087008E+00
         21   -1    0    0  501  502  0.00000000000E+00  0.00000000000E+00  0.12961605836E+03  0.12961605836E+03  0.00000000000E+00 0.  1.
         21   -1    0    0  502  503 -0.00000000000E+00 -0.00000000000E+00 -0.15989407619E+04  0.15989407619E+04  0.00000000000E+00 0. -1.
          6    1    1    2  501    0 -0.20692870447E+03 -0.12311796763E+03 -0.78812381635E+02  0.30678643090E+03  0.17300000000E+03 0.  1.
         -6    1    1    2    0  503  0.20692870447E+03  0.12311796763E+03 -0.13905123219E+04  0.14217703894E+04  0.17300000000E+03 0. -1.
<mgrwt>
<rscale>  2 0.29649034E+03</rscale>
<asrwt>0</asrwt>
<pdfrwt beam="1">  1       21 0.19940931E-01 0.29649034E+03</pdfrwt>
<pdfrwt beam="2">  1       21 0.24599090E+00 0.29649034E+03</pdfrwt>
<totfact> 0.14776023E+03</totfact>
</mgrwt>
</event>
<event>
 4    1  0.4199481E+000  0.2769035E+03  0.7546771E-02  0.1097392E+00
         21   -1    0    0  501  502  0.00000000000E+00  0.00000000000E+00  0.15722169135E+04  0.15722169135E+04  0.00000000000E+00 0. -1.
         21   -1    0    0  502  503 -0.00000000000E+00 -0.00000000000E+00 -0.48799647261E+02  0.48799647261E+02  0.00000000000E+00 0.  1.
          6    1    1    2  501    0  0.83035287131E+02 -0.19962889719E+03  0.74141995000E+03  0.79144115243E+03  0.17300000000E+03 0. -1.
         -6    1    1    2    0  503 -0.83035287131E+02  0.19962889719E+03  0.78199731621E+03  0.82957540830E+03  0.17300000000E+03 0.  1.
<mgrwt>
<rscale>  2 0.27690351E+03</rscale>
<asrwt>0</asrwt>
<pdfrwt beam="1">  1       21 0.24187949E+00 0.27690351E+03</pdfrwt>
<pdfrwt beam="2">  1       21 0.75076392E-02 0.27690351E+03</pdfrwt>
<totfact> 0.93045643E+03</totfact>
</mgrwt>
</event>
<event>
 4    1  0.4199481E+000  0.2816956E+03  0.7546771E-02  0.1094766E+00
         21   -1    0    0  501  502  0.00000000000E+00  0.00000000000E+00  0.21399417919E+03  0.21399417919E+03  0.00000000000E+00 0. -1.
         21   -1    0    0  502  503 -0.00000000000E+00 -0.00000000000E+00 -0.10249956000E+04  0.10249956000E+04  0.00000000000E+00 0.  1.
          6    1    1    2  501    0  0.22072820330E+03  0.26504652653E+02  0.89408198099E+02  0.29554401065E+03  0.17300000000E+03 0. -1.
         -6    1    1    2    0  503 -0.22072820330E+03 -0.26504652653E+02 -0.90040961890E+03  0.94344576852E+03  0.17300000000E+03 0.  1.
<mgrwt>
<rscale>  2 0.28169564E+03</rscale>
<asrwt>0</asrwt>
<pdfrwt beam="1">  1       21 0.32922182E-01 0.28169564E+03</pdfrwt>
<pdfrwt beam="2">  1       21 0.15769163E+00 0.28169564E+03</pdfrwt>
<totfact> 0.21644886E+03</totfact>
</mgrwt>
</event>
<event>
 4    1  0.4199481E+000  0.1778716E+03  0.7546771E-02  0.1169879E+00
         21   -1    0    0  503  502  0.00000000000E+00  0.00000000000E+00  0.34795328200E+03  0.34795328200E+03  0.00000000000E+00 0.  1.
         21   -1    0    0  501  503 -0.00000000000E+00 -0.00000000000E+00 -0.16365473122E+03  0.16365473122E+03  0.00000000000E+00 0.  1.
          6    1    1    2  501    0  0.37575448600E+02 -0.17244636850E+02 -0.78377885794E+02  0.19437434198E+03  0.17300000000E+03 0.  1.
         -6    1    1    2    0  502 -0.37575448600E+02  0.17244636850E+02  0.26267643657E+03  0.31723367124E+03  0.17300000000E+03 0.  1.
<mgrwt>
<rscale>  2 0.17787156E+03</rscale>
<asrwt>0</asrwt>
<pdfrwt beam="1">  1       21 0.53531274E-01 0.17787156E+03</pdfrwt>
<pdfrwt beam="2">  1       21 0.25177651E-01 0.17787156E+03</pdfrwt>
<totfact> 0.49699655E+04</totfact>
</mgrwt>
</event>
<event>
 4    1  0.4199481E+000  0.1876361E+03  0.7546771E-02  0.1160611E+00
         21   -1    0    0  501  502  0.00000000000E+00  0.00000000000E+00  0.70903946066E+03  0.70903946066E+03  0.00000000000E+00 0.  1.
         21   -1    0    0  502  503 -0.00000000000E+00 -0.00000000000E+00 -0.63027347446E+02  0.63027347446E+02  0.00000000000E+00 0. -1.
          6    1    1    2  501    0  0.71219184434E+02  0.14357397628E+02  0.50081978213E+03  0.53481563297E+03  0.17300000000E+03 0.  1.
         -6    1    1    2    0  503 -0.71219184434E+02 -0.14357397628E+02  0.14519233109E+03  0.23725117514E+03  0.17300000000E+03 0. -1.
<mgrwt>
<rscale>  2 0.18763610E+03</rscale>
<asrwt>0</asrwt>
<pdfrwt beam="1">  1       21 0.10908299E+00 0.18763610E+03</pdfrwt>
<pdfrwt beam="2">  1       21 0.96965155E-02 0.18763610E+03</pdfrwt>
<totfact> 0.57242962E+04</totfact>
</mgrwt>
</event>
<event>
 4    1  0.4199481E+000  0.1764399E+03  0.7546771E-02  0.1171294E+00
         21   -1    0    0  503  502  0.00000000000E+00  0.00000000000E+00  0.40810431456E+03  0.40810431456E+03  0.00000000000E+00 0. -1.
         21   -1    0    0  501  503 -0.00000000000E+00 -0.00000000000E+00 -0.19147592335E+03  0.19147592335E+03  0.00000000000E+00 0. -1.
          6    1    1    2  501    0 -0.27052398553E+02 -0.21684059427E+02 -0.12421363132E+03  0.21577779521E+03  0.17300000000E+03 0. -1.
         -6    1    1    2    0  502  0.27052398553E+02  0.21684059427E+02  0.34084202253E+03  0.38380244270E+03  0.17300000000E+03 0. -1.
<mgrwt>
<rscale>  2 0.17643988E+03</rscale>
<asrwt>0</asrwt>
<pdfrwt beam="1">  1       21 0.62785279E-01 0.17643988E+03</pdfrwt>
<pdfrwt beam="2">  1       21 0.29457835E-01 0.17643988E+03</pdfrwt>
<totfact> 0.26184060E+04</totfact>
</mgrwt>
</event>
<event>
 4    1  0.4199481E+000  0.1836605E+03  0.7546771E-02  0.1164307E+00
         21   -1    0    0  501  502  0.00000000000E+00  0.00000000000E+00  0.15796983416E+04  0.15796983416E+04  0.00000000000E+00 0.  1.
         21   -1    0    0  502  503 -0.00000000000E+00 -0.00000000000E+00 -0.28945951457E+02  0.28945951457E+02  0.00000000000E+00 0.  1.
          6    1    1    2  501    0 -0.55141713434E+02 -0.27596648785E+02  0.11873252470E+04  0.12014459728E+04  0.17300000000E+03 0.  1.
         -6    1    1    2    0  503  0.55141713434E+02  0.27596648785E+02  0.36342714317E+03  0.40719832020E+03  0.17300000000E+03 0.  1.
<mgrwt>
<rscale>  2 0.18366051E+03</rscale>
<asrwt>0</asrwt>
<pdfrwt beam="1">  1       21 0.24303045E+00 0.18366051E+03</pdfrwt>
<pdfrwt beam="2">  1       21 0.44532245E-02 0.18366051E+03</pdfrwt>
<totfact> 0.24097840E+04</totfact>
</mgrwt>
</event>
<event>
 4    1  0.4199481E+000  0.1842348E+03  0.7546771E-02  0.1163766E+00
         21   -1    0    0  503  502  0.00000000000E+00  0.00000000000E+00  0.99550808577E+03  0.99550808577E+03  0.00000000000E+00 0. -1.
         21   -1    0    0  501  503 -0.00000000000E+00 -0.00000000000E+00 -0.48484887605E+02  0.48484887605E+02  0.00000000000E+00 0. -1.
          6    1    1    2  501    0  0.53979708624E+02  0.33161140780E+02  0.18914167940E+03  0.26403985511E+03  0.17300000000E+03 0. -1.
         -6    1    1    2    0  502 -0.53979708624E+02 -0.33161140780E+02  0.75788151877E+03  0.77995311826E+03  0.17300000000E+03 0. -1.
<mgrwt>
<rscale>  2 0.18423482E+03</rscale>
<asrwt>0</asrwt>
<pdfrwt beam="1">  1       21 0.15315508E+00 0.18423482E+03</pdfrwt>
<pdfrwt beam="2">  1       21 0.74592142E-02 0.18423482E+03</pdfrwt>
<totfact> 0.38533188E+04</totfact>
</mgrwt>
</event>
<event>
 4    1  0.4199481E+000  0.1743816E+03  0.7546771E-02  0.1173354E+00
         21   -1    0    0  503  502  0.00000000000E+00  0.00000000000E+00  0.69427494787E+03  0.69427494787E+03  0.00000000000E+00 0. -1.
         21   -1    0    0  501  503 -0.00000000000E+00 -0.00000000000E+00 -0.54018743897E+02  0.54018743897E+02  0.00000000000E+00 0. -1.
          6    1    1    2  501    0 -0.12359692340E+01 -0.21872881196E+02  0.15739438379E+03  0.23490837065E+03  0.17300000000E+03 0. -1.
         -6    1    1    2    0  502  0.12359692340E+01  0.21872881196E+02  0.48286182018E+03  0.51338532111E+03  0.17300000000E+03 0. -1.
<mgrwt>
<rscale>  2 0.17438162E+03</rscale>
<asrwt>0</asrwt>
<pdfrwt beam="1">  1       21 0.10681152E+00 0.17438162E+03</pdfrwt>
<pdfrwt beam="2">  1       21 0.83105764E-02 0.17438162E+03</pdfrwt>
<totfact> 0.79391450E+04</totfact>
</mgrwt>
</event>
<event>
 4    1  0.4199481E+000  0.2217642E+03  0.7546771E-02  0.1132575E+00
         21   -1    0    0  501  502  0.00000000000E+00  0.00000000000E+00  0.87282911657E+02  0.87282911657E+02  0.00000000000E+00 0.  1.
         21   -1    0    0  502  503 -0.00000000000E+00 -0.00000000000E+00 -0.56609128228E+03  0.56609128228E+03  0.00000000000E+00 0. -1.
          6    1    1    2  501    0  0.21317131022E+02  0.13709832125E+03 -0.26172818683E+03  0.34304666380E+03  0.17300000000E+03 0. -1.
         -6    1    1    2    0  503 -0.21317131022E+02 -0.13709832125E+03 -0.21708018379E+03  0.31032753013E+03  0.17300000000E+03 0. -1.
<mgrwt>
<rscale>  2 0.22176422E+03</rscale>
<asrwt>0</asrwt>
<pdfrwt beam="1">  1       21 0.13428140E-01 0.22176422E+03</pdfrwt>
<pdfrwt beam="2">  1       21 0.87090966E-01 0.22176422E+03</pdfrwt>
<totfact> 0.53584019E+04</totfact>
</mgrwt>
</event>
<event>
 4    1  0.4199481E+000  0.1936079E+03  0.7546771E-02  0.1155247E+00
         21   -1    0    0  503  502  0.00000000000E+00  0.00000000000E+00  0.30501282243E+03  0.30501282243E+03  0.00000000000E+00 0.  1.
         21   -1    0    0  501  503 -0.00000000000E+00 -0.00000000000E+00 -0.15980659020E+03  0.15980659020E+03  0.00000000000E+00 0. -1.
          6    1    1    2  501    0  0.73255997754E+02  0.46782380805E+02 -0.39095629643E+02  0.19751582372E+03  0.17300000000E+03 0. -1.
         -6    1    1    2    0  502 -0.73255997754E+02 -0.46782380805E+02  0.18430186187E+03  0.26730358892E+03  0.17300000000E+03 0.  1.
<mgrwt>
<rscale>  2 0.19360793E+03</rscale>
<asrwt>0</asrwt>
<pdfrwt beam="1">  1       21 0.46925050E-01 0.19360793E+03</pdfrwt>
<pdfrwt beam="2">  1       21 0.24585629E-01 0.19360793E+03</pdfrwt>
<totfact> 0.67950538E+04</totfact>
</mgrwt>
</event>
<event>
 4    1  0.4199481E+000  0.1980451E+03  0.7546771E-02  0.1151399E+00
         21   -1    0    0  503  502  0.00000000000E+00  0.00000000000E+00  0.10872578065E+03  0.10872578065E+03  0.00000000000E+00 0. -1.
         21   -1    0    0  501  503 -0.00000000000E+00 -0.00000000000E+00 -0.36380225514E+03  0.36380225514E+03  0.00000000000E+00 0.  1.
          6    1    1    2  501    0 -0.96386488378E+02  0.15892344310E+01 -0.10586656166E+03  0.22456537953E+03  0.17300000000E+03 0.  1.
         -6    1    1    2    0  502  0.96386488378E+02 -0.15892344310E+01 -0.14920991283E+03  0.24796265625E+03  0.17300000000E+03 0.  1.
<mgrwt>
<rscale>  2 0.19804515E+03</rscale>
<asrwt>0</asrwt>
<pdfrwt beam="1">  1       21 0.16727043E-01 0.19804515E+03</pdfrwt>
<pdfrwt beam="2">  1       21 0.55969578E-01 0.19804515E+03</pdfrwt>
<totfact> 0.96392128E+04</totfact>
</mgrwt>
</event>
<event>
 4    1  0.4199481E+000  0.1813557E+03  0.7546771E-02  0.1166497E+00
         21   -1    0    0  501  502  0.00000000000E+00  0.00000000000E+00  0.24662657223E+03  0.24662657223E+03  0.00000000000E+00 0.  1.
         21   -1    0    0  502  503 -0.00000000000E+00 -0.00000000000E+00 -0.17114695860E+03  0.17114695860E+03  0.00000000000E+00 0.  1.
          6    1    1    2  501    0 -0.51124412587E+02 -0.18632456557E+02  0.13589268186E+03  0.22662015573E+03  0.17300000000E+03 0.  1.
         -6    1    1    2    0  503  0.51124412587E+02  0.18632456557E+02 -0.60413068228E+02  0.19115337510E+03  0.17300000000E+03 0.  1.
<mgrwt>
<rscale>  2 0.18135566E+03</rscale>
<asrwt>0</asrwt>
<pdfrwt beam="1">  1       21 0.37942550E-01 0.18135566E+03</pdfrwt>
<pdfrwt beam="2">  1       21 0.26330301E-01 0.18135566E+03</pdfrwt>
<totfact> 0.92281176E+04</totfact>
</mgrwt>
</event>
<event>
 4    1  0.4199481E+000  0.2857529E+03  0.7546771E-02  0.1092588E+00
         21   -1    0    0  501  502  0.00000000000E+00  0.00000000000E+00  0.13746435291E+03  0.13746435291E+03  0.00000000000E+00 0.  1.
         21   -1    0    0  502  503 -0.00000000000E+00 -0.00000000000E+00 -0.13974255340E+04  0.13974255340E+04  0.00000000000E+00 0. -1.
          6    1    1    2  501    0  0.15557842613E+03  0.16589481436E+03 -0.48073141581E+02  0.28976846455E+03  0.17300000000E+03 0.  1.
         -6    1    1    2    0  503 -0.15557842613E+03 -0.16589481436E+03 -0.12118880395E+04  0.12451214224E+04  0.17300000000E+03 0. -1.
<mgrwt>
<rscale>  2 0.28575293E+03</rscale>
<asrwt>0</asrwt>
<pdfrwt beam="1">  1       21 0.21148363E-01 0.28575293E+03</pdfrwt>
<pdfrwt beam="2">  1       21 0.21498854E+00 0.28575293E+03</pdfrwt>
<totfact> 0.20694029E+03</totfact>
</mgrwt>
</event>
<event>
 4    1  0.4199481E+000  0.2420258E+03  0.7546771E-02  0.1118451E+00
         21   -1    0    0  503  502  0.00000000000E+00  0.00000000000E+00  0.13795342988E+03  0.13795342988E+03  0.00000000000E+00 0. -1.
         21   -1    0    0  501  503 -0.00000000000E+00 -0.00000000000E+00 -0.42617887491E+03  0.42617887491E+03  0.00000000000E+00 0.  1.
          6    1    1    2  501    0 -0.13419052265E+03  0.10315235408E+03 -0.16122272861E+03  0.29080796540E+03  0.17300000000E+03 0. -1.
         -6    1    1    2    0  502  0.13419052265E+03 -0.10315235408E+03 -0.12700271643E+03  0.27332433939E+03  0.17300000000E+03 0.  1.
<mgrwt>
<rscale>  2 0.24202583E+03</rscale>
<asrwt>0</asrwt>
<pdfrwt beam="1">  1       21 0.21223605E-01 0.24202583E+03</pdfrwt>
<pdfrwt beam="2">  1       21 0.65565981E-01 0.24202583E+03</pdfrwt>
<totfact> 0.43152051E+04</totfact>
</mgrwt>
</event>
<event>
 4    1  0.4199481E+000  0.2692179E+03  0.7546771E-02  0.1101728E+00
         21   -1    0    0  503  502  0.00000000000E+00  0.00000000000E+00  0.12698905261E+03  0.12698905261E+03  0.00000000000E+00 0. -1.
         21   -1    0    0  501  503 -0.00000000000E+00 -0.00000000000E+00 -0.65361645850E+03  0.65361645850E+03  0.00000000000E+00 0. -1.
          6    1    1    2  501    0 -0.17606981475E+03  0.10746481096E+03 -0.40229127320E+03  0.48406253083E+03  0.17300000000E+03 0. -1.
         -6    1    1    2    0  502  0.17606981475E+03 -0.10746481096E+03 -0.12433613269E+03  0.29654298028E+03  0.17300000000E+03 0. -1.
<mgrwt>
<rscale>  2 0.26921788E+03</rscale>
<asrwt>0</asrwt>
<pdfrwt beam="1">  1       21 0.19536777E-01 0.26921788E+03</pdfrwt>
<pdfrwt beam="2">  1       21 0.10055638E+00 0.26921788E+03</pdfrwt>
<totfact> 0.18734040E+04</totfact>
</mgrwt>
</event>
<event>
 4    1  0.4199481E+000  0.1977394E+03  0.7546771E-02  0.1151660E+00
         21   -1    0    0  501  502  0.00000000000E+00  0.00000000000E+00  0.63928423444E+02  0.63928423444E+02  0.00000000000E+00 0.  1.
         21   -1    0    0  502  503 -0.00000000000E+00 -0.00000000000E+00 -0.66253087747E+03  0.66253087747E+03  0.00000000000E+00 0.  1.
          6    1    1    2  501    0 -0.54421197231E+02 -0.78804941142E+02 -0.19862708892E+03  0.28027416204E+03  0.17300000000E+03 0.  1.
         -6    1    1    2    0  503  0.54421197231E+02  0.78804941142E+02 -0.39997536510E+03  0.44618513887E+03  0.17300000000E+03 0.  1.
<mgrwt>
<rscale>  2 0.19773944E+03</rscale>
<asrwt>0</asrwt>
<pdfrwt beam="1">  1       21 0.98351422E-02 0.19773944E+03</pdfrwt>
<pdfrwt beam="2">  1       21 0.10192783E+00 0.19773944E+03</pdfrwt>
<totfact> 0.65389848E+04</totfact>
</mgrwt>
</event>
<event>
 4    1  0.4199481E+000  0.1818445E+03  0.7546771E-02  0.1166030E+00
         21   -1    0    0  503  502  0.00000000000E+00  0.00000000000E+00  0.52899927983E+02  0.52899927983E+02  0.00000000000E+00 0.  1.
         21   -1    0    0  501  503 -0.00000000000E+00 -0.00000000000E+00 -0.11386097796E+04  0.11386097796E+04  0.00000000000E+00 0.  1.
          6    1    1    2  501    0  0.53705285942E+02  0.15942697990E+02 -0.94294431453E+03  0.96031838869E+03  0.17300000000E+03 0.  1.
         -6    1    1    2    0  502 -0.53705285942E+02 -0.15942697990E+02 -0.14276553713E+03  0.23119131893E+03  0.17300000000E+03 0.  1.
<mgrwt>
<rscale>  2 0.18184451E+03</rscale>
<asrwt>0</asrwt>
<pdfrwt beam="1">  1       21 0.81384509E-02 0.18184451E+03</pdfrwt>
<pdfrwt beam="2">  1       21 0.17517073E+00 0.18184451E+03</pdfrwt>
<totfact> 0.23047228E+04</totfact>
</mgrwt>
</event>
<event>
 4    1  0.4199481E+000  0.2209872E+03  0.7546771E-02  0.1133149E+00
         21   -1    0    0  503  502  0.00000000000E+00  0.00000000000E+00  0.66534469282E+03  0.66534469282E+03  0.00000000000E+00 0.  1.
         21   -1    0    0  501  503 -0.00000000000E+00 -0.00000000000E+00 -0.87521611920E+02  0.87521611920E+02  0.00000000000E+00 0.  1.
          6    1    1    2  501    0  0.12460031798E+03  0.58147326643E+02  0.13769674277E+03  0.26037615829E+03  0.17300000000E+03 0.  1.
         -6    1    1    2    0  502 -0.12460031798E+03 -0.58147326643E+02  0.44012633813E+03  0.49249014645E+03  0.17300000000E+03 0.  1.
<mgrwt>
<rscale>  2 0.22098722E+03</rscale>
<asrwt>0</asrwt>
<pdfrwt beam="1">  1       21 0.10236072E+00 0.22098722E+03</pdfrwt>
<pdfrwt beam="2">  1       21 0.13464864E-01 0.22098722E+03</pdfrwt>
<totfact> 0.36492720E+04</totfact>
</mgrwt>
</event>
<event>
 4    1  0.4199481E+000  0.1867305E+03  0.7546771E-02  0.1161444E+00
         21   -1    0    0  501  502  0.00000000000E+00  0.00000000000E+00  0.41868020903E+03  0.41868020903E+03  0.00000000000E+00 0. -1.
         21   -1    0    0  502  503 -0.00000000000E+00 -0.00000000000E+00 -0.85170182222E+02  0.85170182222E+02  0.00000000000E+00 0. -1.
          6    1    1    2  501    0 -0.40890650599E+02 -0.57159866321E+02  0.20427069234E+03  0.27675767627E+03  0.17300000000E+03 0. -1.
         -6    1    1    2    0  503  0.40890650599E+02  0.57159866321E+02  0.12923933446E+03  0.22709271498E+03  0.17300000000E+03 0. -1.
<mgrwt>
<rscale>  2 0.18673054E+03</rscale>
<asrwt>0</asrwt>
<pdfrwt beam="1">  1       21 0.64412339E-01 0.18673054E+03</pdfrwt>
<pdfrwt beam="2">  1       21 0.13103105E-01 0.18673054E+03</pdfrwt>
<totfact> 0.11164330E+05</totfact>
</mgrwt>
</event>
<event>
 4    1  0.4199481E+000  0.2530759E+03  0.7546771E-02  0.1111376E+00
         21   -1    0    0  503  502  0.00000000000E+00  0.00000000000E+00  0.19119074325E+04  0.19119074325E+04  0.00000000000E+00 0.  1.
         21   -1    0    0  501  503 -0.00000000000E+00 -0.00000000000E+00 -0.40825919507E+02  0.40825919507E+02  0.00000000000E+00 0.  1.
          6    1    1    2  501    0 -0.18470489704E+03  0.15860489912E+01  0.52192312372E+03  0.58004410316E+03  0.17300000000E+03 0.  1.
         -6    1    1    2    0  502  0.18470489704E+03 -0.15860489912E+01  0.13491583893E+04  0.13726892489E+04  0.17300000000E+03 0.  1.
<mgrwt>
<rscale>  2 0.25307591E+03</rscale>
<asrwt>0</asrwt>
<pdfrwt beam="1">  1       21 0.29413954E+00 0.25307591E+03</pdfrwt>
<pdfrwt beam="2">  1       21 0.62809122E-02 0.25307591E+03</pdfrwt>
<totfact> 0.63391125E+03</totfact>
</mgrwt>
</event>
<event>
 4    1  0.4199481E+000  0.2327044E+03  0.7546771E-02  0.1124751E+00
         21   -1    0    0  501  502  0.00000000000E+00  0.00000000000E+00  0.70525644002E+03  0.70525644002E+03  0.00000000000E+00 0.  1.
         21   -1    0    0  502  503 -0.00000000000E+00 -0.00000000000E+00 -0.77702079814E+02  0.77702079814E+02  0.00000000000E+00 0.  1.
          6    1    1    2  501    0 -0.79384239966E+02 -0.13386737100E+03  0.35636589435E+03  0.42561482731E+03  0.17300000000E+03 0.  1.
         -6    1    1    2    0  503  0.79384239966E+02  0.13386737100E+03  0.27118846585E+03  0.35734369252E+03  0.17300000000E+03 0.  1.
<mgrwt>
<rscale>  2 0.23270438E+03</rscale>
<asrwt>0</asrwt>
<pdfrwt beam="1">  1       21 0.10850099E+00 0.23270438E+03</pdfrwt>
<pdfrwt beam="2">  1       21 0.11954167E-01 0.23270438E+03</pdfrwt>
<totfact> 0.39068111E+04</totfact>
</mgrwt>
</event>
<event>
 4    1  0.4199481E+000  0.2636094E+03  0.7546771E-02  0.1104994E+00
         21   -1    0    0  503  502  0.00000000000E+00  0.00000000000E+00  0.55281248862E+03  0.55281248862E+03  0.00000000000E+00 0.  1.
         21   -1    0    0  501  503 -0.00000000000E+00 -0.00000000000E+00 -0.14772152450E+03  0.14772152450E+03  0.00000000000E+00 0.  1.
          6    1    1    2  501    0 -0.62653051572E+02  0.18877367305E+03  0.67314404476E+02  0.27206825165E+03  0.17300000000E+03 0.  1.
         -6    1    1    2    0  502  0.62653051572E+02 -0.18877367305E+03  0.33777655964E+03  0.42846576147E+03  0.17300000000E+03 0.  1.
<mgrwt>
<rscale>  2 0.26360938E+03</rscale>
<asrwt>0</asrwt>
<pdfrwt beam="1">  1       21 0.85048074E-01 0.26360938E+03</pdfrwt>
<pdfrwt beam="2">  1       21 0.22726389E-01 0.26360938E+03</pdfrwt>
<totfact> 0.20917345E+04</totfact>
</mgrwt>
</event>
<event>
 4    1  0.4199481E+000  0.2323117E+03  0.7546771E-02  0.1125023E+00
         21   -1    0    0  503  502  0.00000000000E+00  0.00000000000E+00  0.27553586731E+03  0.27553586731E+03  0.00000000000E+00 0.  1.
         21   -1    0    0  501  503 -0.00000000000E+00 -0.00000000000E+00 -0.23023716159E+03  0.23023716159E+03  0.00000000000E+00 0.  1.
          6    1    1    2  501    0 -0.14585600498E+03 -0.52590441219E+02 -0.75056557611E+02  0.24413564987E+03  0.17300000000E+03 0.  1.
         -6    1    1    2    0  502  0.14585600498E+03  0.52590441219E+02  0.12035526332E+03  0.26163737903E+03  0.17300000000E+03 0.  1.
<mgrwt>
<rscale>  2 0.23231171E+03</rscale>
<asrwt>0</asrwt>
<pdfrwt beam="1">  1       21 0.42390133E-01 0.23231171E+03</pdfrwt>
<pdfrwt beam="2">  1       21 0.35421102E-01 0.23231171E+03</pdfrwt>
<totfact> 0.40362537E+04</totfact>
</mgrwt>
</event>
<event>
 4    1  0.4199481E+000  0.2227986E+03  0.7546771E-02  0.1131814E+00
         21   -1    0    0  501  502  0.00000000000E+00  0.00000000000E+00  0.10264556998E+03  0.10264556998E+03  0.00000000000E+00 0.  1.
         21   -1    0    0  502  503 -0.00000000000E+00 -0.00000000000E+00 -0.48936741408E+03  0.48936741408E+03  0.00000000000E+00 0. -1.
          6    1    1    2  501    0  0.12854631353E+03 -0.56445292353E+02 -0.22550028911E+03  0.31700095606E+03  0.17300000000E+03 0. -1.
         -6    1    1    2    0  503 -0.12854631353E+03  0.56445292353E+02 -0.16122155499E+03  0.27501202800E+03  0.17300000000E+03 0. -1.
<mgrwt>
<rscale>  2 0.22279862E+03</rscale>
<asrwt>0</asrwt>
<pdfrwt beam="1">  1       21 0.15791626E-01 0.22279862E+03</pdfrwt>
<pdfrwt beam="2">  1       21 0.75287295E-01 0.22279862E+03</pdfrwt>
<totfact> 0.55511013E+04</totfact>
</mgrwt>
</event>
<event>
 4    1  0.4199481E+000  0.1860039E+03  0.7546771E-02  0.1162116E+00
         21   -1    0    0  501  502  0.00000000000E+00  0.00000000000E+00  0.21823249980E+03  0.21823249980E+03  0.00000000000E+00 0. -1.
         21   -1    0    0  502  503 -0.00000000000E+00 -0.00000000000E+00 -0.17523132674E+03  0.17523132674E+03  0.00000000000E+00 0.  1.
          6    1    1    2  501    0  0.56943869420E+01  0.68088266670E+02  0.82227675493E+02  0.20336870142E+03  0.17300000000E+03 0. -1.
         -6    1    1    2    0  503 -0.56943869420E+01 -0.68088266670E+02 -0.39226502429E+02  0.19009512512E+03  0.17300000000E+03 0.  1.
<mgrwt>
<rscale>  2 0.18600387E+03</rscale>
<asrwt>0</asrwt>
<pdfrwt beam="1">  1       21 0.33574231E-01 0.18600387E+03</pdfrwt>
<pdfrwt beam="2">  1       21 0.26958666E-01 0.18600387E+03</pdfrwt>
<totfact> 0.11227113E+05</totfact>
</mgrwt>
</event>
<event>
 4    1  0.4199481E+000  0.1933381E+03  0.7546771E-02  0.1155485E+00
         21   -1    0    0  503  502  0.00000000000E+00  0.00000000000E+00  0.57576895966E+02  0.57576895966E+02  0.00000000000E+00 0. -1.
         21   -1    0    0  501  503 -0.00000000000E+00 -0.00000000000E+00 -0.64963063865E+03  0.64963063865E+03  0.00000000000E+00 0. -1.
          6    1    1    2  501    0 -0.86136782521E+02 -0.55739077803E+01 -0.30500292773E+03  0.36111826272E+03  0.17300000000E+03 0.  1.
         -6    1    1    2    0  502  0.86136782521E+02  0.55739077803E+01 -0.28705081496E+03  0.34608927189E+03  0.17300000000E+03 0.  1.
<mgrwt>
<rscale>  2 0.19333808E+03</rscale>
<asrwt>0</asrwt>
<pdfrwt beam="1">  1       21 0.88579844E-02 0.19333808E+03</pdfrwt>
<pdfrwt beam="2">  1       21 0.99943171E-01 0.19333808E+03</pdfrwt>
<totfact> 0.82553196E+04</totfact>
</mgrwt>
</event>
<event>
 4    1  0.4199481E+000  0.2498253E+03  0.7546771E-02  0.1113415E+00
         21   -1    0    0  503  502  0.00000000000E+00  0.00000000000E+00  0.12816919337E+04  0.12816919337E+04  0.00000000000E+00 0.  1.
         21   -1    0    0  501  503 -0.00000000000E+00 -0.00000000000E+00 -0.52346290990E+02  0.52346290990E+02  0.00000000000E+00 0. -1.
          6    1    1    2  501    0  0.11037705419E+03 -0.14248011721E+03  0.43852123343E+03  0.50469153952E+03  0.17300000000E+03 0. -1.
         -6    1    1    2    0  502 -0.11037705419E+03  0.14248011721E+03  0.79082440928E+03  0.82934668517E+03  0.17300000000E+03 0.  1.
<mgrwt>
<rscale>  2 0.24982529E+03</rscale>
<asrwt>0</asrwt>
<pdfrwt beam="1">  1       21 0.19718335E+00 0.24982529E+03</pdfrwt>
<pdfrwt beam="2">  1       21 0.80532766E-02 0.24982529E+03</pdfrwt>
<totfact> 0.15951720E+04</totfact>
</mgrwt>
</event>
<event>
 4    1  0.4199481E+000  0.2026901E+03  0.7546771E-02  0.1147489E+00
         21   -1    0    0  501  502  0.00000000000E+00  0.00000000000E+00  0.29085897885E+03  0.29085897885E+03  0.00000000000E+00 0.  1.
         21   -1    0    0  502  503 -0.00000000000E+00 -0.00000000000E+00 -0.17729449283E+03  0.17729449283E+03  0.00000000000E+00 0. -1.
          6    1    1    2  501    0  0.10317145688E+03  0.22581148890E+02  0.16232828617E+03  0.25968005370E+03  0.17300000000E+03 0.  1.
         -6    1    1    2    0  503 -0.10317145688E+03 -0.22581148890E+02 -0.48763800149E+02  0.20847341798E+03  0.17300000000E+03 0. -1.
<mgrwt>
<rscale>  2 0.20269005E+03</rscale>
<asrwt>0</asrwt>
<pdfrwt beam="1">  1       21 0.44747535E-01 0.20269005E+03</pdfrwt>
<pdfrwt beam="2">  1       21 0.27276076E-01 0.20269005E+03</pdfrwt>
<totfact> 0.61149225E+04</totfact>
</mgrwt>
</event>
<event>
 4    1  0.4199481E+000  0.1871434E+03  0.7546771E-02  0.1161063E+00
         21   -1    0    0  503  502  0.00000000000E+00  0.00000000000E+00  0.12167810105E+03  0.12167810105E+03  0.00000000000E+00 0. -1.
         21   -1    0    0  501  503 -0.00000000000E+00 -0.00000000000E+00 -0.11431379162E+04  0.11431379162E+04  0.00000000000E+00 0. -1.
          6    1    1    2  501    0  0.67494168538E+02  0.23199247099E+02 -0.10577574164E+04  0.10741850026E+04  0.17300000000E+03 0. -1.
         -6    1    1    2    0  502 -0.67494168538E+02 -0.23199247099E+02  0.36297601343E+02  0.19063101457E+03  0.17300000000E+03 0. -1.
<mgrwt>
<rscale>  2 0.18714344E+03</rscale>
<asrwt>0</asrwt>
<pdfrwt beam="1">  1       21 0.18719707E-01 0.18714344E+03</pdfrwt>
<pdfrwt beam="2">  1       21 0.17586738E+00 0.18714344E+03</pdfrwt>
<totfact> 0.50959346E+03</totfact>
</mgrwt>
</event>
<event>
 4    1  0.4199481E+000  0.2033105E+03  0.7546771E-02  0.1146976E+00
         21   -1    0    0  501  502  0.00000000000E+00  0.00000000000E+00  0.49835509793E+03  0.49835509793E+03  0.00000000000E+00 0.  1.
         21   -1    0    0  502  503 -0.00000000000E+00 -0.00000000000E+00 -0.11451431855E+03  0.11451431855E+03  0.00000000000E+00 0. -1.
          6    1    1    2  501    0 -0.31244523832E+02 -0.10212717214E+03  0.35281921098E+03  0.40720581430E+03  0.17300000000E+03 0.  1.
         -6    1    1    2    0  503  0.31244523832E+02  0.10212717214E+03  0.31021568395E+02  0.20566360219E+03  0.17300000000E+03 0. -1.
<mgrwt>
<rscale>  2 0.20331055E+03</rscale>
<asrwt>0</asrwt>
<pdfrwt beam="1">  1       21 0.76670014E-01 0.20331055E+03</pdfrwt>
<pdfrwt beam="2">  1       21 0.17617588E-01 0.20331055E+03</pdfrwt>
<totfact> 0.43970315E+04</totfact>
</mgrwt>
</event>
<event>
 4    1  0.4199481E+000  0.3710819E+03  0.7546771E-02  0.1054280E+00
         21   -1    0    0  501  502  0.00000000000E+00  0.00000000000E+00  0.83537247554E+02  0.83537247554E+02  0.00000000000E+00 0.  1.
         21   -1    0    0  502  503 -0.00000000000E+00 -0.00000000000E+00 -0.16553744812E+04  0.16553744812E+04  0.00000000000E+00 0.  1.
          6    1    1    2  501    0  0.12860752510E+03 -0.30204780628E+03 -0.72943305485E+03  0.81839743052E+03  0.17300000000E+03 0.  1.
         -6    1    1    2    0  503 -0.12860752510E+03  0.30204780628E+03 -0.84240417885E+03  0.92051429827E+03  0.17300000000E+03 0.  1.
<mgrwt>
<rscale>  2 0.37108189E+03</rscale>
<asrwt>0</asrwt>
<pdfrwt beam="1">  1       21 0.12851884E-01 0.37108189E+03</pdfrwt>
<pdfrwt beam="2">  1       21 0.25467300E+00 0.37108189E+03</pdfrwt>
<totfact> 0.28162052E+03</totfact>
</mgrwt>
</event>
<event>
 4    1  0.4199481E+000  0.3574894E+03  0.7546771E-02  0.1059582E+00
         21   -1    0    0  501  502  0.00000000000E+00  0.00000000000E+00  0.33861422402E+03  0.33861422402E+03  0.00000000000E+00 0.  1.
         21   -1    0    0  502  503 -0.00000000000E+00 -0.00000000000E+00 -0.80523910711E+03  0.80523910711E+03  0.00000000000E+00 0. -1.
          6    1    1    2  501    0 -0.10168575558E+03 -0.29585410101E+03  0.18356626367E+03  0.40186467266E+03  0.17300000000E+03 0.  1.
         -6    1    1    2    0  503  0.10168575558E+03  0.29585410101E+03 -0.65019114676E+03  0.74198865847E+03  0.17300000000E+03 0. -1.
<mgrwt>
<rscale>  2 0.35748936E+03</rscale>
<asrwt>0</asrwt>
<pdfrwt beam="1">  1       21 0.52094497E-01 0.35748936E+03</pdfrwt>
<pdfrwt beam="2">  1       21 0.12388294E+00 0.35748936E+03</pdfrwt>
<totfact> 0.15203993E+03</totfact>
</mgrwt>
</event>
<event>
 4    1  0.4199481E+000  0.2054003E+03  0.7546771E-02  0.1145261E+00
         21   -1    0    0  503  502  0.00000000000E+00  0.00000000000E+00  0.54684732677E+03  0.54684732677E+03  0.00000000000E+00 0. -1.
         21   -1    0    0  501  503 -0.00000000000E+00 -0.00000000000E+00 -0.16198687071E+03  0.16198687071E+03  0.00000000000E+00 0. -1.
          6    1    1    2  501    0  0.67817539088E+02 -0.87527513007E+02 -0.64057752628E+02  0.21515733734E+03  0.17300000000E+03 0. -1.
         -6    1    1    2    0  502 -0.67817539088E+02  0.87527513007E+02  0.44891820869E+03  0.49367686014E+03  0.17300000000E+03 0. -1.
<mgrwt>
<rscale>  2 0.20540030E+03</rscale>
<asrwt>0</asrwt>
<pdfrwt beam="1">  1       21 0.84130357E-01 0.20540030E+03</pdfrwt>
<pdfrwt beam="2">  1       21 0.24921057E-01 0.20540030E+03</pdfrwt>
<totfact> 0.18546985E+04</totfact>
</mgrwt>
</event>
<event>
 4    1  0.4199481E+000  0.2863126E+03  0.7546771E-02  0.1092290E+00
         21   -1    0    0  503  502  0.00000000000E+00  0.00000000000E+00  0.77461574754E+03  0.77461574754E+03  0.00000000000E+00 0.  1.
         21   -1    0    0  501  503 -0.00000000000E+00 -0.00000000000E+00 -0.13609429936E+03  0.13609429936E+03  0.00000000000E+00 0.  1.
          6    1    1    2  501    0 -0.19154106009E+03 -0.12392713622E+03  0.10451712707E+03  0.30479295045E+03  0.17300000000E+03 0.  1.
         -6    1    1    2    0  502  0.19154106009E+03  0.12392713622E+03  0.53400432112E+03  0.60591709645E+03  0.17300000000E+03 0.  1.
<mgrwt>
<rscale>  2 0.28631261E+03</rscale>
<asrwt>0</asrwt>
<pdfrwt beam="1">  1       21 0.11917165E+00 0.28631261E+03</pdfrwt>
<pdfrwt beam="2">  1       21 0.20937585E-01 0.28631261E+03</pdfrwt>
<totfact> 0.10762443E+04</totfact>
</mgrwt>
</event>
<event>
 4    1  0.4199481E+000  0.1812862E+03  0.7546771E-02  0.1166564E+00
         21   -1    0    0  503  502  0.00000000000E+00  0.00000000000E+00  0.16864630787E+03  0.16864630787E+03  0.00000000000E+00 0.  1.
         21   -1    0    0  501  503 -0.00000000000E+00 -0.00000000000E+00 -0.40507715863E+03  0.40507715863E+03  0.00000000000E+00 0.  1.
          6    1    1    2  501    0  0.46178997795E+02 -0.28340610042E+02 -0.32485995568E+03  0.37201973176E+03  0.17300000000E+03 0.  1.
         -6    1    1    2    0  502 -0.46178997795E+02  0.28340610042E+02  0.88429104915E+02  0.20170373475E+03  0.17300000000E+03 0.  1.
<mgrwt>
<rscale>  2 0.18128621E+03</rscale>
<asrwt>0</asrwt>
<pdfrwt beam="1">  1       21 0.25945586E-01 0.18128621E+03</pdfrwt>
<pdfrwt beam="2">  1       21 0.62319562E-01 0.18128621E+03</pdfrwt>
<totfact> 0.33891566E+04</totfact>
</mgrwt>
</event>
<event>
 4    1  0.4199481E+000  0.2473677E+03  0.7546771E-02  0.1114980E+00
         21   -1    0    0  501  502  0.00000000000E+00  0.00000000000E+00  0.33617631604E+03  0.33617631604E+03  0.00000000000E+00 0.  1.
         21   -1    0    0  502  503 -0.00000000000E+00 -0.00000000000E+00 -0.12768562332E+04  0.12768562332E+04  0.00000000000E+00 0. -1.
          6    1    1    2  501    0  0.10912730930E+03  0.13911510329E+03  0.27648140760E+03  0.37098888170E+03  0.17300000000E+03 0.  1.
         -6    1    1    2    0  503 -0.10912730930E+03 -0.13911510329E+03 -0.12171613248E+04  0.12420436676E+04  0.17300000000E+03 0. -1.
<mgrwt>
<rscale>  2 0.24736771E+03</rscale>
<asrwt>0</asrwt>
<pdfrwt beam="1">  1       21 0.51719433E-01 0.24736771E+03</pdfrwt>
<pdfrwt beam="2">  1       21 0.19643942E+00 0.24736771E+03</pdfrwt>
<totfact> 0.47363806E+02</totfact>
</mgrwt>
</event>
<event>
 4    1  0.4199481E+000  0.1823348E+03  0.7546771E-02  0.1165562E+00
         21   -1    0    0  501  502  0.00000000000E+00  0.00000000000E+00  0.47779934172E+03  0.47779934172E+03  0.00000000000E+00 0. -1.
         21   -1    0    0  502  503 -0.00000000000E+00 -0.00000000000E+00 -0.84749544167E+02  0.84749544167E+02  0.00000000000E+00 0. -1.
          6    1    1    2  501    0  0.14971116367E+01 -0.57573604436E+02  0.31551953551E+03  0.36441533798E+03  0.17300000000E+03 0. -1.
         -6    1    1    2    0  503 -0.14971116367E+01  0.57573604436E+02  0.77530262041E+02  0.19813354790E+03  0.17300000000E+03 0. -1.
<mgrwt>
<rscale>  2 0.18233475E+03</rscale>
<asrwt>0</asrwt>
<pdfrwt beam="1">  1       21 0.73507589E-01 0.18233475E+03</pdfrwt>
<pdfrwt beam="2">  1       21 0.13038392E-01 0.18233475E+03</pdfrwt>
<totfact> 0.84428821E+04</totfact>
</mgrwt>
</event>
<event>
 4    1  0.4199481E+000  0.2339316E+03  0.7546771E-02  0.1123903E+00
         21   -1    0    0  503  502  0.00000000000E+00  0.00000000000E+00  0.12425576323E+03  0.12425576323E+03  0.00000000000E+00 0. -1.
         21   -1    0    0  501  503 -0.00000000000E+00 -0.00000000000E+00 -0.49461222176E+03  0.49461222176E+03  0.00000000000E+00 0. -1.
          6    1    1    2  501    0  0.28286244593E+02  0.15490281584E+03 -0.28760832840E+03  0.37073244335E+03  0.17300000000E+03 0. -1.
         -6    1    1    2    0  502 -0.28286244593E+02 -0.15490281584E+03 -0.82748130124E+02  0.24813554164E+03  0.17300000000E+03 0. -1.
<mgrwt>
<rscale>  2 0.23393160E+03</rscale>
<asrwt>0</asrwt>
<pdfrwt beam="1">  1       21 0.19116271E-01 0.23393160E+03</pdfrwt>
<pdfrwt beam="2">  1       21 0.76094188E-01 0.23393160E+03</pdfrwt>
<totfact> 0.37863544E+04</totfact>
</mgrwt>
</event>
<event>
 4    1  0.4199481E+000  0.1924345E+03  0.7546771E-02  0.1156284E+00
         21   -1    0    0  501  502  0.00000000000E+00  0.00000000000E+00  0.55153288509E+03  0.55153288509E+03  0.00000000000E+00 0.  1.
         21   -1    0    0  502  503 -0.00000000000E+00 -0.00000000000E+00 -0.23125453205E+03  0.23125453205E+03  0.00000000000E+00 0.  1.
          6    1    1    2  501    0  0.28223018640E+02 -0.79407115416E+02  0.48985483178E+03  0.52629724014E+03  0.17300000000E+03 0.  1.
         -6    1    1    2    0  503 -0.28223018640E+02  0.79407115416E+02 -0.16957647874E+03  0.25649017701E+03  0.17300000000E+03 0.  1.
<mgrwt>
<rscale>  2 0.19243448E+03</rscale>
<asrwt>0</asrwt>
<pdfrwt beam="1">  1       21 0.84851213E-01 0.19243448E+03</pdfrwt>
<pdfrwt beam="2">  1       21 0.35577620E-01 0.19243448E+03</pdfrwt>
<totfact> 0.91663929E+03</totfact>
</mgrwt>
</event>
<event>
 4    1  0.4199481E+000  0.1882094E+03  0.7546771E-02  0.1160086E+00
         21   -1    0    0  501  502  0.00000000000E+00  0.00000000000E+00  0.47735272249E+02  0.47735272249E+02  0.00000000000E+00 0.  1.
         21   -1    0    0  502  503 -0.00000000000E+00 -0.00000000000E+00 -0.77241620147E+03  0.77241620147E+03  0.00000000000E+00 0.  1.
          6    1    1    2  501    0  0.31904698993E+02 -0.66901868629E+02 -0.28105515109E+03  0.33825252076E+03  0.17300000000E+03 0.  1.
         -6    1    1    2    0  503 -0.31904698993E+02  0.66901868629E+02 -0.44362577814E+03  0.48189895297E+03  0.17300000000E+03 0.  1.
<mgrwt>
<rscale>  2 0.18820938E+03</rscale>
<asrwt>0</asrwt>
<pdfrwt beam="1">  1       21 0.73438886E-02 0.18820938E+03</pdfrwt>
<pdfrwt beam="2">  1       21 0.11883325E+00 0.18820938E+03</pdfrwt>
<totfact> 0.75482274E+04</totfact>
</mgrwt>
</event>
<event>
 4    1  0.4199481E+000  0.3044990E+03  0.7546771E-02  0.1083013E+00
         21   -1    0    0  503  502  0.00000000000E+00  0.00000000000E+00  0.97427823960E+02  0.97427823960E+02  0.00000000000E+00 0. -1.
         21   -1    0    0  501  503 -0.00000000000E+00 -0.00000000000E+00 -0.10486653454E+04  0.10486653454E+04  0.00000000000E+00 0.  1.
          6    1    1    2  501    0 -0.10101146211E+03  0.22931932264E+03 -0.30134390225E+03  0.42840146433E+03  0.17300000000E+03 0.  1.
         -6    1    1    2    0  502  0.10101146211E+03 -0.22931932264E+03 -0.64989361921E+03  0.71769170505E+03  0.17300000000E+03 0.  1.
<mgrwt>
<rscale>  2 0.30449904E+03</rscale>
<asrwt>0</asrwt>
<pdfrwt beam="1">  1       21 0.14988896E-01 0.30449904E+03</pdfrwt>
<pdfrwt beam="2">  1       21 0.16133313E+00 0.30449904E+03</pdfrwt>
<totfact> 0.90055164E+03</totfact>
</mgrwt>
</event>
<event>
 4    1  0.4199481E+000  0.1999108E+03  0.7546771E-02  0.1149814E+00
         21   -1    0    0  501  502  0.00000000000E+00  0.00000000000E+00  0.18728199630E+03  0.18728199630E+03  0.00000000000E+00 0. -1.
         21   -1    0    0  502  503 -0.00000000000E+00 -0.00000000000E+00 -0.38420781741E+03  0.38420781741E+03  0.00000000000E+00 0. -1.
          6    1    1    2  501    0 -0.15864377257E+02  0.98912242743E+02  0.92065871876E+02  0.22009187853E+03  0.17300000000E+03 0. -1.
         -6    1    1    2    0  503  0.15864377257E+02 -0.98912242743E+02 -0.28899169299E+03  0.35139793518E+03  0.17300000000E+03 0. -1.
<mgrwt>
<rscale>  2 0.19991076E+03</rscale>
<asrwt>0</asrwt>
<pdfrwt beam="1">  1       21 0.28812615E-01 0.19991076E+03</pdfrwt>
<pdfrwt beam="2">  1       21 0.59108894E-01 0.19991076E+03</pdfrwt>
<totfact> 0.30719107E+04</totfact>
</mgrwt>
</event>
<event>
 4    1  0.4199481E+000  0.2536746E+03  0.7546771E-02  0.1111004E+00
         21   -1    0    0  503  502  0.00000000000E+00  0.00000000000E+00  0.73831581279E+03  0.73831581279E+03  0.00000000000E+00 0. -1.
         21   -1    0    0  501  503 -0.00000000000E+00 -0.00000000000E+00 -0.94838193577E+02  0.94838193577E+02  0.00000000000E+00 0.  1.
          6    1    1    2  501    0  0.60093967668E+02  0.17552930939E+03  0.20319928871E+03  0.32502426731E+03  0.17300000000E+03 0.  1.
         -6    1    1    2    0  502 -0.60093967668E+02 -0.17552930939E+03  0.44027833050E+03  0.50812973906E+03  0.17300000000E+03 0. -1.
<mgrwt>
<rscale>  2 0.25367464E+03</rscale>
<asrwt>0</asrwt>
<pdfrwt beam="1">  1       21 0.11358704E+00 0.25367464E+03</pdfrwt>
<pdfrwt beam="2">  1       21 0.14590492E-01 0.25367464E+03</pdfrwt>
<totfact> 0.24102268E+04</totfact>
</mgrwt>
</event>
<event>
 4    1  0.4199481E+000  0.2102491E+03  0.7546771E-02  0.1141369E+00
         21   -1    0    0  501  502  0.00000000000E+00  0.00000000000E+00  0.29164117926E+03  0.29164117926E+03  0.00000000000E+00 0.  1.
         21   -1    0    0  502  503 -0.00000000000E+00 -0.00000000000E+00 -0.19090165868E+03  0.19090165868E+03  0.00000000000E+00 0.  1.
          6    1    1    2  501    0  0.31634043601E+02  0.11521703470E+03  0.15988141483E+03  0.26413395201E+03  0.17300000000E+03 0.  1.
         -6    1    1    2    0  503 -0.31634043601E+02 -0.11521703470E+03 -0.59141894250E+02  0.21840888593E+03  0.17300000000E+03 0.  1.
<mgrwt>
<rscale>  2 0.21024909E+03</rscale>
<asrwt>0</asrwt>
<pdfrwt beam="1">  1       21 0.44867874E-01 0.21024909E+03</pdfrwt>
<pdfrwt beam="2">  1       21 0.29369486E-01 0.21024909E+03</pdfrwt>
<totfact> 0.52503860E+04</totfact>
</mgrwt>
</event>
<event>
 4    1  0.4199481E+000  0.1974218E+03  0.7546771E-02  0.1151933E+00
         21   -1    0    0  503  502  0.00000000000E+00  0.00000000000E+00  0.37056474485E+03  0.37056474485E+03  0.00000000000E+00 0.  1.
         21   -1    0    0  501  503 -0.00000000000E+00 -0.00000000000E+00 -0.53293460690E+03  0.53293460690E+03  0.00000000000E+00 0.  1.
          6    1    1    2  501    0 -0.58414669088E+02 -0.75060727764E+02 -0.48590904077E+03  0.52448353865E+03  0.17300000000E+03 0.  1.
         -6    1    1    2    0  502  0.58414669088E+02  0.75060727764E+02  0.32353917872E+03  0.37901581310E+03  0.17300000000E+03 0.  1.
<mgrwt>
<rscale>  2 0.19742185E+03</rscale>
<asrwt>0</asrwt>
<pdfrwt beam="1">  1       21 0.57009961E-01 0.19742185E+03</pdfrwt>
<pdfrwt beam="2">  1       21 0.81989940E-01 0.19742185E+03</pdfrwt>
<totfact> 0.37455139E+03</totfact>
</mgrwt>
</event>
<event>
 4    1  0.4199481E+000  0.2690664E+03  0.7546771E-02  0.1101815E+00
         21   -1    0    0  503  502  0.00000000000E+00  0.00000000000E+00  0.98032796724E+03  0.98032796724E+03  0.00000000000E+00 0.  1.
         21   -1    0    0  501  503 -0.00000000000E+00 -0.00000000000E+00 -0.10443038268E+03  0.10443038268E+03  0.00000000000E+00 0. -1.
          6    1    1    2  501    0 -0.20591667006E+03  0.81264075449E+01  0.14444433516E+03  0.30538644283E+03  0.17300000000E+03 0. -1.
         -6    1    1    2    0  502  0.20591667006E+03 -0.81264075449E+01  0.73145324940E+03  0.77937190709E+03  0.17300000000E+03 0.  1.
<mgrwt>
<rscale>  2 0.26906637E+03</rscale>
<asrwt>0</asrwt>
<pdfrwt beam="1">  1       21 0.15081968E+00 0.26906637E+03</pdfrwt>
<pdfrwt beam="2">  1       21 0.16066213E-01 0.26906637E+03</pdfrwt>
<totfact> 0.96942579E+03</totfact>
</mgrwt>
</event>
<event>
 4    1  0.4199481E+000  0.2456173E+03  0.7546771E-02  0.1116106E+00
         21   -1    0    0  503  502  0.00000000000E+00  0.00000000000E+00  0.14582715500E+04  0.14582715500E+04  0.00000000000E+00 0.  1.
         21   -1    0    0  501  503 -0.00000000000E+00 -0.00000000000E+00 -0.45570630609E+02  0.45570630609E+02  0.00000000000E+00 0. -1.
          6    1    1    2  501    0  0.14805109091E+03 -0.92085519778E+02  0.47804502159E+03  0.53745224080E+03  0.17300000000E+03 0. -1.
         -6    1    1    2    0  502 -0.14805109091E+03  0.92085519778E+02  0.93465589779E+03  0.96638993980E+03  0.17300000000E+03 0.  1.
<mgrwt>
<rscale>  2 0.24561732E+03</rscale>
<asrwt>0</asrwt>
<pdfrwt beam="1">  1       21 0.22434943E+00 0.24561732E+03</pdfrwt>
<pdfrwt beam="2">  1       21 0.70108674E-02 0.24561732E+03</pdfrwt>
<totfact> 0.13700112E+04</totfact>
</mgrwt>
</event>
<event>
 4    1  0.4199481E+000  0.2326652E+03  0.7546771E-02  0.1124778E+00
         21   -1    0    0  501  502  0.00000000000E+00  0.00000000000E+00  0.56412333729E+03  0.56412333729E+03  0.00000000000E+00 0.  1.
         21   -1    0    0  502  503 -0.00000000000E+00 -0.00000000000E+00 -0.10926834292E+03  0.10926834292E+03  0.00000000000E+00 0.  1.
          6    1    1    2  501    0 -0.46882171814E+02  0.14834469610E+03  0.34493294915E+03  0.41606709352E+03  0.17300000000E+03 0.  1.
         -6    1    1    2    0  503  0.46882171814E+02 -0.14834469610E+03  0.10992204521E+03  0.25732458670E+03  0.17300000000E+03 0.  1.
<mgrwt>
<rscale>  2 0.23266518E+03</rscale>
<asrwt>0</asrwt>
<pdfrwt beam="1">  1       21 0.86788204E-01 0.23266518E+03</pdfrwt>
<pdfrwt beam="2">  1       21 0.16810515E-01 0.23266518E+03</pdfrwt>
<totfact> 0.35641122E+04</totfact>
</mgrwt>
</event>
<event>
 4    1  0.4199481E+000  0.1817204E+03  0.7546771E-02  0.1166148E+00
         21   -1    0    0  501  502  0.00000000000E+00  0.00000000000E+00  0.34196729731E+03  0.34196729731E+03  0.00000000000E+00 0. -1.
         21   -1    0    0  502  503 -0.00000000000E+00 -0.00000000000E+00 -0.34784236141E+03  0.34784236141E+03  0.00000000000E+00 0. -1.
          6    1    1    2  501    0 -0.25921577888E+02  0.49207295395E+02  0.29020860838E+03  0.34240812271E+03  0.17300000000E+03 0. -1.
         -6    1    1    2    0  503  0.25921577888E+02 -0.49207295395E+02 -0.29608367248E+03  0.34740153602E+03  0.17300000000E+03 0. -1.
<mgrwt>
<rscale>  2 0.18172035E+03</rscale>
<asrwt>0</asrwt>
<pdfrwt beam="1">  1       21 0.52610353E-01 0.18172035E+03</pdfrwt>
<pdfrwt beam="2">  1       21 0.53514209E-01 0.18172035E+03</pdfrwt>
<totfact> 0.11403948E+04</totfact>
</mgrwt>
</event>
<event>
 4    1  0.4199481E+000  0.2727272E+03  0.7546771E-02  0.1099729E+00
         21   -1    0    0  503  502  0.00000000000E+00  0.00000000000E+00  0.16422591945E+03  0.16422591945E+03  0.00000000000E+00 0.  1.
         21   -1    0    0  501  503 -0.00000000000E+00 -0.00000000000E+00 -0.78894755212E+03  0.78894755212E+03  0.00000000000E+00 0. -1.
          6    1    1    2  501    0  0.17238585779E+03  0.12138476936E+03 -0.62339597883E+03  0.68044301203E+03  0.17300000000E+03 0. -1.
         -6    1    1    2    0  502 -0.17238585779E+03 -0.12138476936E+03 -0.13256538316E+01  0.27273045953E+03  0.17300000000E+03 0.  1.
<mgrwt>
<rscale>  2 0.27272724E+03</rscale>
<asrwt>0</asrwt>
<pdfrwt beam="1">  1       21 0.25265526E-01 0.27272724E+03</pdfrwt>
<pdfrwt beam="2">  1       21 0.12137655E+00 0.27272724E+03</pdfrwt>
<totfact> 0.72301414E+03</totfact>
</mgrwt>
</event>
<event>
 4    1  0.4199481E+000  0.1963495E+03  0.7546771E-02  0.1152856E+00
         21   -1    0    0  501  502  0.00000000000E+00  0.00000000000E+00  0.37360495112E+03  0.37360495112E+03  0.00000000000E+00 0.  1.
         21   -1    0    0  502  503 -0.00000000000E+00 -0.00000000000E+00 -0.30140011815E+03  0.30140011815E+03  0.00000000000E+00 0.  1.
          6    1    1    2  501    0 -0.86038956629E+02  0.34949011741E+02  0.30979673042E+03  0.36677942917E+03  0.17300000000E+03 0.  1.
         -6    1    1    2    0  503  0.86038956629E+02 -0.34949011741E+02 -0.23759189746E+03  0.30822564010E+03  0.17300000000E+03 0.  1.
<mgrwt>
<rscale>  2 0.19634952E+03</rscale>
<asrwt>0</asrwt>
<pdfrwt beam="1">  1       21 0.57477685E-01 0.19634952E+03</pdfrwt>
<pdfrwt beam="2">  1       21 0.46369249E-01 0.19634952E+03</pdfrwt>
<totfact> 0.12624767E+04</totfact>
</mgrwt>
</event>
<event>
 4    1  0.4199481E+000  0.2272479E+03  0.7546771E-02  0.1128592E+00
         21   -1    0    0  501  502  0.00000000000E+00  0.00000000000E+00  0.15576408092E+03  0.15576408092E+03  0.00000000000E+00 0.  1.
         21   -1    0    0  502  503 -0.00000000000E+00 -0.00000000000E+00 -0.89154018577E+03  0.89154018577E+03  0.00000000000E+00 0.  1.
          6    1    1    2  501    0  0.14347017632E+03 -0.33599512805E+02  0.47130497109E+02  0.23208382647E+03  0.17300000000E+03 0.  1.
         -6    1    1    2    0  503 -0.14347017632E+03  0.33599512805E+02 -0.78290660196E+03  0.81522044022E+03  0.17300000000E+03 0.  1.
<mgrwt>
<rscale>  2 0.22724792E+03</rscale>
<asrwt>0</asrwt>
<pdfrwt beam="1">  1       21 0.23963704E-01 0.22724792E+03</pdfrwt>
<pdfrwt beam="2">  1       21 0.13716003E+00 0.22724792E+03</pdfrwt>
<totfact> 0.60327193E+03</totfact>
</mgrwt>
</event>
<event>
 4    1  0.4199481E+000  0.1779902E+03  0.7546771E-02  0.1169762E+00
         21   -1    0    0  503  502  0.00000000000E+00  0.00000000000E+00  0.40395752772E+03  0.40395752772E+03  0.00000000000E+00 0.  1.
         21   -1    0    0  501  503 -0.00000000000E+00 -0.00000000000E+00 -0.25645299892E+03  0.25645299892E+03  0.00000000000E+00 0.  1.
          6    1    1    2  501    0 -0.39390482069E+02  0.14139123242E+02 -0.20136876338E+03  0.26875621620E+03  0.17300000000E+03 0.  1.
         -6    1    1    2    0  502  0.39390482069E+02 -0.14139123242E+02  0.34887329218E+03  0.39165431043E+03  0.17300000000E+03 0.  1.
<mgrwt>
<rscale>  2 0.17799024E+03</rscale>
<asrwt>0</asrwt>
<pdfrwt beam="1">  1       21 0.62147312E-01 0.17799024E+03</pdfrwt>
<pdfrwt beam="2">  1       21 0.39454308E-01 0.17799024E+03</pdfrwt>
<totfact> 0.15017077E+04</totfact>
</mgrwt>
</event>
<event>
 4    1  0.4199481E+000  0.2235712E+03  0.7546771E-02  0.1131248E+00
         21   -1    0    0  503  502  0.00000000000E+00  0.00000000000E+00  0.45672766178E+03  0.45672766178E+03  0.00000000000E+00 0. -1.
         21   -1    0    0  501  503 -0.00000000000E+00 -0.00000000000E+00 -0.10944693127E+03  0.10944693127E+03  0.00000000000E+00 0.  1.
          6    1    1    2  501    0 -0.12685761630E+03  0.62946072312E+02  0.17131317958E+03  0.28165984508E+03  0.17300000000E+03 0.  1.
         -6    1    1    2    0  502  0.12685761630E+03 -0.62946072312E+02  0.17596755092E+03  0.28451474796E+03  0.17300000000E+03 0. -1.
<mgrwt>
<rscale>  2 0.22357116E+03</rscale>
<asrwt>0</asrwt>
<pdfrwt beam="1">  1       21 0.70265793E-01 0.22357116E+03</pdfrwt>
<pdfrwt beam="2">  1       21 0.16837990E-01 0.22357116E+03</pdfrwt>
<totfact> 0.57516092E+04</totfact>
</mgrwt>
</event>
<event>
 4    1  0.4199481E+000  0.1880227E+03  0.7546771E-02  0.1160257E+00
         21   -1    0    0  501  502  0.00000000000E+00  0.00000000000E+00  0.88964009689E+02  0.88964009689E+02  0.00000000000E+00 0.  1.
         21   -1    0    0  502  503 -0.00000000000E+00 -0.00000000000E+00 -0.11943402981E+04  0.11943402981E+04  0.00000000000E+00 0. -1.
          6    1    1    2  501    0 -0.20584140199E+02 -0.70709391801E+02 -0.28540140356E+02  0.19017640371E+03  0.17300000000E+03 0.  1.
         -6    1    1    2    0  503  0.20584140199E+02  0.70709391801E+02 -0.10768361481E+04  0.10931279041E+04  0.17300000000E+03 0. -1.
<mgrwt>
<rscale>  2 0.18802267E+03</rscale>
<asrwt>0</asrwt>
<pdfrwt beam="1">  1       21 0.13686771E-01 0.18802267E+03</pdfrwt>
<pdfrwt beam="2">  1       21 0.18374466E+00 0.18802267E+03</pdfrwt>
<totfact> 0.79825848E+03</totfact>
</mgrwt>
</event>
<event>
 4    1  0.4199481E+000  0.2111874E+03  0.7546771E-02  0.1140629E+00
         21   -1    0    0  501  502  0.00000000000E+00  0.00000000000E+00  0.27319285166E+04  0.27319285166E+04  0.00000000000E+00 0. -1.
         21   -1    0    0  502  503 -0.00000000000E+00 -0.00000000000E+00 -0.39818903107E+02  0.39818903107E+02  0.00000000000E+00 0. -1.
          6    1    1    2  501    0 -0.11441457864E+03  0.39754755659E+02  0.24105699621E+04  0.24198032313E+04  0.17300000000E+03 0. -1.
         -6    1    1    2    0  503  0.11441457864E+03 -0.39754755659E+02  0.28153965145E+03  0.35194418839E+03  0.17300000000E+03 0. -1.
<mgrwt>
<rscale>  2 0.21118744E+03</rscale>
<asrwt>0</asrwt>
<pdfrwt beam="1">  1       21 0.42029655E+00 0.21118744E+03</pdfrwt>
<pdfrwt beam="2">  1       21 0.61259872E-02 0.21118744E+03</pdfrwt>
<totfact> 0.12017499E+03</totfact>
</mgrwt>
</event>
<event>
 4    1  0.4199481E+000  0.1849753E+03  0.7546771E-02  0.1163073E+00
         21   -1    0    0  501  502  0.00000000000E+00  0.00000000000E+00  0.54460194876E+03  0.54460194876E+03  0.00000000000E+00 0.  1.
         21   -1    0    0  502  503 -0.00000000000E+00 -0.00000000000E+00 -0.74714102945E+03  0.74714102945E+03  0.00000000000E+00 0.  1.
          6    1    1    2  501    0 -0.63297890104E+02  0.16740201851E+02  0.51684997395E+03  0.54895332481E+03  0.17300000000E+03 0.  1.
         -6    1    1    2    0  503  0.63297890104E+02 -0.16740201851E+02 -0.71938905464E+03  0.74278965339E+03  0.17300000000E+03 0.  1.
<mgrwt>
<rscale>  2 0.18497529E+03</rscale>
<asrwt>0</asrwt>
<pdfrwt beam="1">  1       21 0.83784916E-01 0.18497529E+03</pdfrwt>
<pdfrwt beam="2">  1       21 0.11494477E+00 0.18497529E+03</pdfrwt>
<totfact> 0.73288890E+02</totfact>
</mgrwt>
</event>
<event>
 4    1  0.4199481E+000  0.2146339E+03  0.7546771E-02  0.1137948E+00
         21   -1    0    0  503  502  0.00000000000E+00  0.00000000000E+00  0.88220825599E+02  0.88220825599E+02  0.00000000000E+00 0. -1.
         21   -1    0    0  501  503 -0.00000000000E+00 -0.00000000000E+00 -0.54163344044E+03  0.54163344044E+03  0.00000000000E+00 0. -1.
          6    1    1    2  501    0 -0.10331020777E+03  0.73930475685E+02 -0.28638018205E+03  0.35788451061E+03  0.17300000000E+03 0. -1.
         -6    1    1    2    0  502  0.10331020777E+03 -0.73930475685E+02 -0.16703243279E+03  0.27196975543E+03  0.17300000000E+03 0. -1.
<mgrwt>
<rscale>  2 0.21463391E+03</rscale>
<asrwt>0</asrwt>
<pdfrwt beam="1">  1       21 0.13572435E-01 0.21463391E+03</pdfrwt>
<pdfrwt beam="2">  1       21 0.83328222E-01 0.21463391E+03</pdfrwt>
<totfact> 0.58356468E+04</totfact>
</mgrwt>
</event>
<event>
 4    1  0.4199481E+000  0.1789357E+03  0.7546771E-02  0.1168837E+00
         21   -1    0    0  503  502  0.00000000000E+00  0.00000000000E+00  0.59237389861E+02  0.59237389861E+02  0.00000000000E+00 0.  1.
         21   -1    0    0  501  503 -0.00000000000E+00 -0.00000000000E+00 -0.54235430131E+03  0.54235430131E+03  0.00000000000E+00 0.  1.
          6    1    1    2  501    0 -0.63149117137E+01  0.45267075891E+02 -0.22398447462E+03  0.28668280580E+03  0.17300000000E+03 0. -1.
         -6    1    1    2    0  502  0.63149117137E+01 -0.45267075891E+02 -0.25913243683E+03  0.31490888538E+03  0.17300000000E+03 0. -1.
<mgrwt>
<rscale>  2 0.17893570E+03</rscale>
<asrwt>0</asrwt>
<pdfrwt beam="1">  1       21 0.91134445E-02 0.17893570E+03</pdfrwt>
<pdfrwt beam="2">  1       21 0.83439124E-01 0.17893570E+03</pdfrwt>
<totfact> 0.12006765E+05</totfact>
</mgrwt>
</event>
<event>
 4    1  0.4199481E+000  0.2070770E+03  0.7546771E-02  0.1143902E+00
         21   -1    0    0  501  502  0.00000000000E+00  0.00000000000E+00  0.45495065439E+03  0.45495065439E+03  0.00000000000E+00 0.  1.
         21   -1    0    0  502  503 -0.00000000000E+00 -0.00000000000E+00 -0.15972903641E+03  0.15972903641E+03  0.00000000000E+00 0. -1.
          6    1    1    2  501    0 -0.74359472859E+02 -0.86154235288E+02 -0.49161991148E+02  0.21283276260E+03  0.17300000000E+03 0. -1.
         -6    1    1    2    0  503  0.74359472859E+02  0.86154235288E+02  0.34438360913E+03  0.40184692820E+03  0.17300000000E+03 0.  1.
<mgrwt>
<rscale>  2 0.20707700E+03</rscale>
<asrwt>0</asrwt>
<pdfrwt beam="1">  1       21 0.69992408E-01 0.20707700E+03</pdfrwt>
<pdfrwt beam="2">  1       21 0.24573698E-01 0.20707700E+03</pdfrwt>
<totfact> 0.28775910E+04</totfact>
</mgrwt>
</event>
<event>
 4    1  0.4199481E+000  0.1840005E+03  0.7546771E-02  0.1163987E+00
         21   -1    0    0  503  502  0.00000000000E+00  0.00000000000E+00  0.72460607827E+02  0.72460607827E+02  0.00000000000E+00 0. -1.
         21   -1    0    0  501  503 -0.00000000000E+00 -0.00000000000E+00 -0.51992716576E+03  0.51992716576E+03  0.00000000000E+00 0.  1.
          6    1    1    2  501    0  0.62665829383E+02 -0.44187938567E+00 -0.31802507706E+03  0.36741822365E+03  0.17300000000E+03 0. -1.
         -6    1    1    2    0  502 -0.62665829383E+02  0.44187938567E+00 -0.12944148088E+03  0.22496954994E+03  0.17300000000E+03 0. -1.
<mgrwt>
<rscale>  2 0.18400055E+03</rscale>
<asrwt>0</asrwt>
<pdfrwt beam="1">  1       21 0.11147786E-01 0.18400055E+03</pdfrwt>
<pdfrwt beam="2">  1       21 0.79988792E-01 0.18400055E+03</pdfrwt>
<totfact> 0.92396482E+04</totfact>
</mgrwt>
</event>
<event>
 4    1  0.4199481E+000  0.2100372E+03  0.7546771E-02  0.1141537E+00
         21   -1    0    0  503  502  0.00000000000E+00  0.00000000000E+00  0.35259379861E+02  0.35259379861E+02  0.00000000000E+00 0.  1.
         21   -1    0    0  501  503 -0.00000000000E+00 -0.00000000000E+00 -0.15421660394E+04  0.15421660394E+04  0.00000000000E+00 0.  1.
          6    1    1    2  501    0  0.71603159425E+02  0.95181968076E+02 -0.10960584291E+04  0.11160016574E+04  0.17300000000E+03 0.  1.
         -6    1    1    2    0  502 -0.71603159425E+02 -0.95181968076E+02 -0.41084823046E+03  0.46142376181E+03  0.17300000000E+03 0.  1.
<mgrwt>
<rscale>  2 0.21003719E+03</rscale>
<asrwt>0</asrwt>
<pdfrwt beam="1">  1       21 0.54245205E-02 0.21003719E+03</pdfrwt>
<pdfrwt beam="2">  1       21 0.23725629E+00 0.21003719E+03</pdfrwt>
<totfact> 0.18261800E+04</totfact>
</mgrwt>
</event>
<event>
 4    1  0.4199481E+000  0.1780723E+03  0.7546771E-02  0.1169682E+00
         21   -1    0    0  501  502  0.00000000000E+00  0.00000000000E+00  0.55992973246E+03  0.55992973246E+03  0.00000000000E+00 0. -1.
         21   -1    0    0  502  503 -0.00000000000E+00 -0.00000000000E+00 -0.61161493378E+02  0.61161493378E+02  0.00000000000E+00 0. -1.
          6    1    1    2  501    0  0.22301018540E+02  0.35824731450E+02  0.33389794583E+03  0.37841456769E+03  0.17300000000E+03 0. -1.
         -6    1    1    2    0  503 -0.22301018540E+02 -0.35824731450E+02  0.16487029325E+03  0.24267665814E+03  0.17300000000E+03 0. -1.
<mgrwt>
<rscale>  2 0.17807231E+03</rscale>
<asrwt>0</asrwt>
<pdfrwt beam="1">  1       21 0.86143032E-01 0.17807231E+03</pdfrwt>
<pdfrwt beam="2">  1       21 0.94094609E-02 0.17807231E+03</pdfrwt>
<totfact> 0.10558894E+05</totfact>
</mgrwt>
</event>
<event>
 4    1  0.4199481E+000  0.3238284E+03  0.7546771E-02  0.1073901E+00
         21   -1    0    0  503  502  0.00000000000E+00  0.00000000000E+00  0.14841622987E+04  0.14841622987E+04  0.00000000000E+00 0.  1.
         21   -1    0    0  501  503 -0.00000000000E+00 -0.00000000000E+00 -0.88084840407E+02  0.88084840407E+02  0.00000000000E+00 0.  1.
          6    1    1    2  501    0  0.55181392399E+02  0.26812467051E+03  0.10477226853E+04  0.10966255744E+04  0.17300000000E+03 0.  1.
         -6    1    1    2    0  502 -0.55181392399E+02 -0.26812467051E+03  0.34835477299E+03  0.47562156477E+03  0.17300000000E+03 0.  1.
<mgrwt>
<rscale>  2 0.32382839E+03</rscale>
<asrwt>0</asrwt>
<pdfrwt beam="1">  1       21 0.22833264E+00 0.32382839E+03</pdfrwt>
<pdfrwt beam="2">  1       21 0.13551515E-01 0.32382839E+03</pdfrwt>
<totfact> 0.38098534E+03</totfact>
</mgrwt>
</event>
<event>
 4    1  0.4199481E+000  0.1766387E+03  0.7546771E-02  0.1171096E+00
         21   -1    0    0  503  502  0.00000000000E+00  0.00000000000E+00  0.71047648081E+03  0.71047648081E+03  0.00000000000E+00 0. -1.
         21   -1    0    0  501  503 -0.00000000000E+00 -0.00000000000E+00 -0.26932404182E+03  0.26932404182E+03  0.00000000000E+00 0. -1.
          6    1    1    2  501    0 -0.15198328413E+02  0.32268427312E+02 -0.22760625789E+03  0.28810735710E+03  0.17300000000E+03 0. -1.
         -6    1    1    2    0  502  0.15198328413E+02 -0.32268427312E+02  0.66875869688E+03  0.69169316553E+03  0.17300000000E+03 0. -1.
<mgrwt>
<rscale>  2 0.17663873E+03</rscale>
<asrwt>0</asrwt>
<pdfrwt beam="1">  1       21 0.10930407E+00 0.17663873E+03</pdfrwt>
<pdfrwt beam="2">  1       21 0.41434468E-01 0.17663873E+03</pdfrwt>
<totfact> 0.37712035E+03</totfact>
</mgrwt>
</event>
<event>
 4    1  0.4199481E+000  0.3759222E+03  0.7546771E-02  0.1052451E+00
         21   -1    0    0  503  502  0.00000000000E+00  0.00000000000E+00  0.15272883610E+04  0.15272883610E+04  0.00000000000E+00 0. -1.
         21   -1    0    0  501  503 -0.00000000000E+00 -0.00000000000E+00 -0.12994057809E+03  0.12994057809E+03  0.00000000000E+00 0. -1.
          6    1    1    2  501    0 -0.16724328279E+03 -0.28882208426E+03  0.25405618880E+03  0.45372024317E+03  0.17300000000E+03 0. -1.
         -6    1    1    2    0  502  0.16724328279E+03  0.28882208426E+03  0.11432915941E+04  0.12035086959E+04  0.17300000000E+03 0. -1.
<mgrwt>
<rscale>  2 0.37592222E+03</rscale>
<asrwt>0</asrwt>
<pdfrwt beam="1">  1       21 0.23496743E+00 0.37592222E+03</pdfrwt>
<pdfrwt beam="2">  1       21 0.19990859E-01 0.37592222E+03</pdfrwt>
<totfact> 0.16310375E+03</totfact>
</mgrwt>
</event>
<event>
 4    1  0.4199481E+000  0.2191713E+03  0.7546771E-02  0.1134502E+00
         21   -1    0    0  501  502  0.00000000000E+00  0.00000000000E+00  0.10832611841E+03  0.10832611841E+03  0.00000000000E+00 0.  1.
         21   -1    0    0  502  503 -0.00000000000E+00 -0.00000000000E+00 -0.44346964647E+03  0.44346964647E+03  0.00000000000E+00 0. -1.
          6    1    1    2  501    0  0.77322872938E+02 -0.11012831361E+03 -0.16984918056E+03  0.27728111417E+03  0.17300000000E+03 0. -1.
         -6    1    1    2    0  503 -0.77322872938E+02  0.11012831361E+03 -0.16529434750E+03  0.27451465071E+03  0.17300000000E+03 0.  1.
<mgrwt>
<rscale>  2 0.21917133E+03</rscale>
<asrwt>0</asrwt>
<pdfrwt beam="1">  1       21 0.16665556E-01 0.21917133E+03</pdfrwt>
<pdfrwt beam="2">  1       21 0.68226100E-01 0.21917133E+03</pdfrwt>
<totfact> 0.62677716E+04</totfact>
</mgrwt>
</event>
<event>
 4    1  0.4199481E+000  0.1876160E+03  0.7546771E-02  0.1160629E+00
         21   -1    0    0  501  502  0.00000000000E+00  0.00000000000E+00  0.69497897091E+02  0.69497897091E+02  0.00000000000E+00 0. -1.
         21   -1    0    0  502  503 -0.00000000000E+00 -0.00000000000E+00 -0.55812556779E+03  0.55812556779E+03  0.00000000000E+00 0. -1.
          6    1    1    2  501    0 -0.41608808614E+02 -0.59493554927E+02 -0.14886060362E+03  0.23949792346E+03  0.17300000000E+03 0. -1.
         -6    1    1    2    0  503  0.41608808614E+02  0.59493554927E+02 -0.33976706708E+03  0.38812554142E+03  0.17300000000E+03 0. -1.
<mgrwt>
<rscale>  2 0.18761603E+03</rscale>
<asrwt>0</asrwt>
<pdfrwt beam="1">  1       21 0.10691984E-01 0.18761603E+03</pdfrwt>
<pdfrwt beam="2">  1       21 0.85865470E-01 0.18761603E+03</pdfrwt>
<totfact> 0.84567221E+04</totfact>
</mgrwt>
</event>
<event>
 4    1  0.4199481E+000  0.2136045E+03  0.7546771E-02  0.1138743E+00
         21   -1    0    0  503  502  0.00000000000E+00  0.00000000000E+00  0.12430264059E+03  0.12430264059E+03  0.00000000000E+00 0. -1.
         21   -1    0    0  501  503 -0.00000000000E+00 -0.00000000000E+00 -0.42488421604E+03  0.42488421604E+03  0.00000000000E+00 0.  1.
          6    1    1    2  501    0 -0.12518625794E+03  0.51255247962E+01 -0.48993140871E+02  0.21915108495E+03  0.17300000000E+03 0. -1.
         -6    1    1    2    0  502  0.12518625794E+03 -0.51255247962E+01 -0.25158843457E+03  0.33003577168E+03  0.17300000000E+03 0.  1.
<mgrwt>
<rscale>  2 0.21360447E+03</rscale>
<asrwt>0</asrwt>
<pdfrwt beam="1">  1       21 0.19123483E-01 0.21360447E+03</pdfrwt>
<pdfrwt beam="2">  1       21 0.65366802E-01 0.21360447E+03</pdfrwt>
<totfact> 0.53489157E+04</totfact>
</mgrwt>
</event>
<event>
 4    1  0.4199481E+000  0.1957849E+03  0.7546771E-02  0.1153345E+00
         21   -1    0    0  503  502  0.00000000000E+00  0.00000000000E+00  0.29098797043E+03  0.29098797043E+03  0.00000000000E+00 0. -1.
         21   -1    0    0  501  503 -0.00000000000E+00 -0.00000000000E+00 -0.13231973446E+03  0.13231973446E+03  0.00000000000E+00 0. -1.
          6    1    1    2  501    0 -0.70791953817E+02  0.58234377308E+02  0.93468312037E+02  0.21695176602E+03  0.17300000000E+03 0. -1.
         -6    1    1    2    0  502  0.70791953817E+02 -0.58234377308E+02  0.65199923932E+02  0.20635593887E+03  0.17300000000E+03 0. -1.
<mgrwt>
<rscale>  2 0.19578494E+03</rscale>
<asrwt>0</asrwt>
<pdfrwt beam="1">  1       21 0.44767380E-01 0.19578494E+03</pdfrwt>
<pdfrwt beam="2">  1       21 0.20356882E-01 0.19578494E+03</pdfrwt>
<totfact> 0.10682865E+05</totfact>
</mgrwt>
</event>
<event>
 4    1  0.4199481E+000  0.2314055E+03  0.7546771E-02  0.1125654E+00
         21   -1    0    0  503  502  0.00000000000E+00  0.00000000000E+00  0.10728269014E+04  0.10728269014E+04  0.00000000000E+00 0. -1.
         21   -1    0    0  501  503 -0.00000000000E+00 -0.00000000000E+00 -0.83025682165E+02  0.83025682165E+02  0.00000000000E+00 0.  1.
          6    1    1    2  501    0 -0.10358843002E+03  0.11352940830E+03  0.12992783369E+03  0.26538600444E+03  0.17300000000E+03 0.  1.
         -6    1    1    2    0  502  0.10358843002E+03 -0.11352940830E+03  0.85987338558E+03  0.89046657917E+03  0.17300000000E+03 0. -1.
<mgrwt>
<rscale>  2 0.23140547E+03</rscale>
<asrwt>0</asrwt>
<pdfrwt beam="1">  1       21 0.16505028E+00 0.23140547E+03</pdfrwt>
<pdfrwt beam="2">  1       21 0.12773183E-01 0.23140547E+03</pdfrwt>
<totfact> 0.11806002E+04</totfact>
</mgrwt>
</event>
<event>
 4    1  0.4199481E+000  0.2009153E+03  0.7546771E-02  0.1148969E+00
         21   -1    0    0  501  502  0.00000000000E+00  0.00000000000E+00  0.26389705947E+02  0.26389705947E+02  0.00000000000E+00 0. -1.
         21   -1    0    0  502  503 -0.00000000000E+00 -0.00000000000E+00 -0.17689675870E+04  0.17689675870E+04  0.00000000000E+00 0. -1.
          6    1    1    2  501    0 -0.27774868329E+02  0.98318509532E+02 -0.54110976651E+03  0.57720598753E+03  0.17300000000E+03 0. -1.
         -6    1    1    2    0  503  0.27774868329E+02 -0.98318509532E+02 -0.12014681146E+04  0.12181513055E+04  0.17300000000E+03 0. -1.
<mgrwt>
<rscale>  2 0.20091534E+03</rscale>
<asrwt>0</asrwt>
<pdfrwt beam="1">  1       21 0.40599566E-02 0.20091534E+03</pdfrwt>
<pdfrwt beam="2">  1       21 0.27214874E+00 0.20091534E+03</pdfrwt>
<totfact> 0.18736198E+04</totfact>
</mgrwt>
</event>
<event>
 4    1  0.4199481E+000  0.1910964E+03  0.7546771E-02  0.1157476E+00
         21   -1    0    0  503  502  0.00000000000E+00  0.00000000000E+00  0.78641273431E+02  0.78641273431E+02  0.00000000000E+00 0. -1.
         21   -1    0    0  501  503 -0.00000000000E+00 -0.00000000000E+00 -0.46460423237E+03  0.46460423237E+03  0.00000000000E+00 0. -1.
          6    1    1    2  501    0 -0.37774997539E+02 -0.71846264661E+02 -0.19921329804E+03  0.27605031117E+03  0.17300000000E+03 0. -1.
         -6    1    1    2    0  502  0.37774997539E+02  0.71846264661E+02 -0.18674966091E+03  0.26719519463E+03  0.17300000000E+03 0. -1.
<mgrwt>
<rscale>  2 0.19109641E+03</rscale>
<asrwt>0</asrwt>
<pdfrwt beam="1">  1       21 0.12098657E-01 0.19109641E+03</pdfrwt>
<pdfrwt beam="2">  1       21 0.71477575E-01 0.19109641E+03</pdfrwt>
<totfact> 0.10238407E+05</totfact>
</mgrwt>
</event>
<event>
 4    1  0.4199481E+000  0.2199392E+03  0.7546771E-02  0.1133928E+00
         21   -1    0    0  503  502  0.00000000000E+00  0.00000000000E+00  0.40578581654E+02  0.40578581654E+02  0.00000000000E+00 0.  1.
         21   -1    0    0  501  503 -0.00000000000E+00 -0.00000000000E+00 -0.12971214548E+04  0.12971214548E+04  0.00000000000E+00 0. -1.
          6    1    1    2  501    0 -0.11276715586E+03  0.75682377032E+02 -0.81859894622E+03  0.84763051407E+03  0.17300000000E+03 0.  1.
         -6    1    1    2    0  502  0.11276715586E+03 -0.75682377032E+02 -0.43794392690E+03  0.49006952235E+03  0.17300000000E+03 0. -1.
<mgrwt>
<rscale>  2 0.21993920E+03</rscale>
<asrwt>0</asrwt>
<pdfrwt beam="1">  1       21 0.62428577E-02 0.21993920E+03</pdfrwt>
<pdfrwt beam="2">  1       21 0.19955718E+00 0.21993920E+03</pdfrwt>
<totfact> 0.24418831E+04</totfact>
</mgrwt>
</event>
<event>
 4    1  0.4199481E+000  0.1827740E+03  0.7546771E-02  0.1165145E+00
         21   -1    0    0  503  502  0.00000000000E+00  0.00000000000E+00  0.10279428718E+03  0.10279428718E+03  0.00000000000E+00 0. -1.
         21   -1    0    0  501  503 -0.00000000000E+00 -0.00000000000E+00 -0.62130095245E+03  0.62130095245E+03  0.00000000000E+00 0. -1.
          6    1    1    2  501    0 -0.21893348855E+02  0.54754143450E+02 -0.50928447379E+03  0.54108872672E+03  0.17300000000E+03 0. -1.
         -6    1    1    2    0  502  0.21893348855E+02 -0.54754143450E+02 -0.92221914899E+01  0.18300651290E+03  0.17300000000E+03 0. -1.
<mgrwt>
<rscale>  2 0.18277400E+03</rscale>
<asrwt>0</asrwt>
<pdfrwt beam="1">  1       21 0.15814506E-01 0.18277400E+03</pdfrwt>
<pdfrwt beam="2">  1       21 0.95584762E-01 0.18277400E+03</pdfrwt>
<totfact> 0.32702248E+04</totfact>
</mgrwt>
</event>
<event>
 4    1  0.4199481E+000  0.1777235E+03  0.7546771E-02  0.1170025E+00
         21   -1    0    0  503  502  0.00000000000E+00  0.00000000000E+00  0.27124170557E+03  0.27124170557E+03  0.00000000000E+00 0. -1.
         21   -1    0    0  501  503 -0.00000000000E+00 -0.00000000000E+00 -0.12157982041E+03  0.12157982041E+03  0.00000000000E+00 0. -1.
          6    1    1    2  501    0 -0.40671812662E+02  0.15625851042E+01  0.34479675937E+02  0.18103725050E+03  0.17300000000E+03 0. -1.
         -6    1    1    2    0  502  0.40671812662E+02 -0.15625851042E+01  0.11518220922E+03  0.21178427547E+03  0.17300000000E+03 0. -1.
<mgrwt>
<rscale>  2 0.17772349E+03</rscale>
<asrwt>0</asrwt>
<pdfrwt beam="1">  1       21 0.41729493E-01 0.17772349E+03</pdfrwt>
<pdfrwt beam="2">  1       21 0.18704588E-01 0.17772349E+03</pdfrwt>
<totfact> 0.14526892E+05</totfact>
</mgrwt>
</event>
<event>
 4    1  0.4199481E+000  0.3258686E+03  0.7546771E-02  0.1072980E+00
         21   -1    0    0  501  502  0.00000000000E+00  0.00000000000E+00  0.27000424140E+03  0.27000424140E+03  0.00000000000E+00 0.  1.
         21   -1    0    0  502  503 -0.00000000000E+00 -0.00000000000E+00 -0.63329976302E+03  0.63329976302E+03  0.00000000000E+00 0. -1.
          6    1    1    2  501    0 -0.12724337476E+03 -0.24509273154E+03  0.96395607032E+02  0.33982706857E+03  0.17300000000E+03 0.  1.
         -6    1    1    2    0  503  0.12724337476E+03  0.24509273154E+03 -0.45969112865E+03  0.56347693585E+03  0.17300000000E+03 0. -1.
<mgrwt>
<rscale>  2 0.32586857E+03</rscale>
<asrwt>0</asrwt>
<pdfrwt beam="1">  1       21 0.41539114E-01 0.32586857E+03</pdfrwt>
<pdfrwt beam="2">  1       21 0.97430732E-01 0.32586857E+03</pdfrwt>
<totfact> 0.44839713E+03</totfact>
</mgrwt>
</event>
<event>
 4    1  0.4199481E+000  0.2097795E+03  0.7546771E-02  0.1141741E+00
         21   -1    0    0  503  502  0.00000000000E+00  0.00000000000E+00  0.66985251039E+03  0.66985251039E+03  0.00000000000E+00 0.  1.
         21   -1    0    0  501  503 -0.00000000000E+00 -0.00000000000E+00 -0.99913658442E+02  0.99913658442E+02  0.00000000000E+00 0.  1.
          6    1    1    2  501    0 -0.10904172373E+03  0.46779818104E+02  0.59735512004E+02  0.21811872980E+03  0.17300000000E+03 0.  1.
         -6    1    1    2    0  502  0.10904172373E+03 -0.46779818104E+02  0.51020333995E+03  0.55164743903E+03  0.17300000000E+03 0.  1.
<mgrwt>
<rscale>  2 0.20977952E+03</rscale>
<asrwt>0</asrwt>
<pdfrwt beam="1">  1       21 0.10305423E+00 0.20977952E+03</pdfrwt>
<pdfrwt beam="2">  1       21 0.15371332E-01 0.20977952E+03</pdfrwt>
<totfact> 0.28386674E+04</totfact>
</mgrwt>
</event>
<event>
 4    1  0.4199481E+000  0.2021712E+03  0.7546771E-02  0.1147920E+00
         21   -1    0    0  501  502  0.00000000000E+00  0.00000000000E+00  0.47901926847E+03  0.47901926847E+03  0.00000000000E+00 0.  1.
         21   -1    0    0  502  503 -0.00000000000E+00 -0.00000000000E+00 -0.27229763141E+03  0.27229763141E+03  0.00000000000E+00 0. -1.
          6    1    1    2  501    0  0.68685584999E+02  0.78908007319E+02  0.41464579108E+03  0.46130718103E+03  0.17300000000E+03 0.  1.
         -6    1    1    2    0  503 -0.68685584999E+02 -0.78908007319E+02 -0.20792415402E+03  0.29000971885E+03  0.17300000000E+03 0. -1.
<mgrwt>
<rscale>  2 0.20217117E+03</rscale>
<asrwt>0</asrwt>
<pdfrwt beam="1">  1       21 0.73695272E-01 0.20217117E+03</pdfrwt>
<pdfrwt beam="2">  1       21 0.41891943E-01 0.20217117E+03</pdfrwt>
<totfact> 0.90077883E+03</totfact>
</mgrwt>
</event>
<event>
 4    1  0.4199481E+000  0.1876762E+03  0.7546771E-02  0.1160574E+00
         21   -1    0    0  501  502  0.00000000000E+00  0.00000000000E+00  0.92783829510E+02  0.92783829510E+02  0.00000000000E+00 0. -1.
         21   -1    0    0  502  503 -0.00000000000E+00 -0.00000000000E+00 -0.10285381396E+04  0.10285381396E+04  0.00000000000E+00 0. -1.
          6    1    1    2  501    0  0.19499948590E+01 -0.72729262093E+02 -0.22543013674E+02  0.18902522453E+03  0.17300000000E+03 0. -1.
         -6    1    1    2    0  503 -0.19499948590E+01  0.72729262093E+02 -0.91321129639E+03  0.93229674455E+03  0.17300000000E+03 0. -1.
<mgrwt>
<rscale>  2 0.18767618E+03</rscale>
<asrwt>0</asrwt>
<pdfrwt beam="1">  1       21 0.14274436E-01 0.18767618E+03</pdfrwt>
<pdfrwt beam="2">  1       21 0.15823663E+00 0.18767618E+03</pdfrwt>
<totfact> 0.11173814E+04</totfact>
</mgrwt>
</event>
<event>
 4    1  0.4199481E+000  0.1891423E+03  0.7546771E-02  0.1159237E+00
         21   -1    0    0  501  502  0.00000000000E+00  0.00000000000E+00  0.79177656798E+03  0.79177656798E+03  0.00000000000E+00 0. -1.
         21   -1    0    0  502  503 -0.00000000000E+00 -0.00000000000E+00 -0.82373250136E+02  0.82373250136E+02  0.00000000000E+00 0. -1.
          6    1    1    2  501    0  0.44261249485E+02  0.62343791662E+02  0.64838382596E+03  0.67540831527E+03  0.17300000000E+03 0. -1.
         -6    1    1    2    0  503 -0.44261249485E+02 -0.62343791662E+02  0.61019491882E+02  0.19874150285E+03  0.17300000000E+03 0. -1.
<mgrwt>
<rscale>  2 0.18914229E+03</rscale>
<asrwt>0</asrwt>
<pdfrwt beam="1">  1       21 0.12181177E+00 0.18914229E+03</pdfrwt>
<pdfrwt beam="2">  1       21 0.12672808E-01 0.18914229E+03</pdfrwt>
<totfact> 0.27132652E+04</totfact>
</mgrwt>
</event>
<event>
 4    1  0.4199481E+000  0.1968986E+03  0.7546771E-02  0.1152382E+00
         21   -1    0    0  503  502  0.00000000000E+00  0.00000000000E+00  0.67846042414E+03  0.67846042414E+03  0.00000000000E+00 0.  1.
         21   -1    0    0  501  503 -0.00000000000E+00 -0.00000000000E+00 -0.64325224091E+02  0.64325224091E+02  0.00000000000E+00 0. -1.
          6    1    1    2  501    0 -0.30788245610E+02 -0.88837730831E+02  0.18296482614E+03  0.26878464631E+03  0.17300000000E+03 0. -1.
         -6    1    1    2    0  502  0.30788245610E+02  0.88837730831E+02  0.43117037390E+03  0.47400100192E+03  0.17300000000E+03 0. -1.
<mgrwt>
<rscale>  2 0.19689860E+03</rscale>
<asrwt>0</asrwt>
<pdfrwt beam="1">  1       21 0.10437852E+00 0.19689860E+03</pdfrwt>
<pdfrwt beam="2">  1       21 0.98961888E-02 0.19689860E+03</pdfrwt>
<totfact> 0.61127310E+04</totfact>
</mgrwt>
</event>
<event>
 4    1  0.4199481E+000  0.2953142E+03  0.7546771E-02  0.1087607E+00
         21   -1    0    0  503  502  0.00000000000E+00  0.00000000000E+00  0.21891996730E+03  0.21891996730E+03  0.00000000000E+00 0.  1.
         21   -1    0    0  501  503 -0.00000000000E+00 -0.00000000000E+00 -0.48585649830E+03  0.48585649830E+03  0.00000000000E+00 0.  1.
          6    1    1    2  501    0  0.22852837164E+03  0.71107552904E+02 -0.28300408607E+03  0.40902544354E+03  0.17300000000E+03 0.  1.
         -6    1    1    2    0  502 -0.22852837164E+03 -0.71107552904E+02  0.16067555064E+02  0.29575102206E+03  0.17300000000E+03 0.  1.
<mgrwt>
<rscale>  2 0.29531424E+03</rscale>
<asrwt>0</asrwt>
<pdfrwt beam="1">  1       21 0.33679995E-01 0.29531424E+03</pdfrwt>
<pdfrwt beam="2">  1       21 0.74747153E-01 0.29531424E+03</pdfrwt>
<totfact> 0.12862774E+04</totfact>
</mgrwt>
</event>
<event>
 4    1  0.4199481E+000  0.1854274E+03  0.7546771E-02  0.1162651E+00
         21   -1    0    0  503  502  0.00000000000E+00  0.00000000000E+00  0.35401548257E+03  0.35401548257E+03  0.00000000000E+00 0. -1.
         21   -1    0    0  501  503 -0.00000000000E+00 -0.00000000000E+00 -0.99204314103E+02  0.99204314103E+02  0.00000000000E+00 0. -1.
          6    1    1    2  501    0 -0.66276797423E+02  0.78560826800E+01  0.94588646849E+02  0.20815941974E+03  0.17300000000E+03 0. -1.
         -6    1    1    2    0  502  0.66276797423E+02 -0.78560826800E+01  0.16022252162E+03  0.24506037694E+03  0.17300000000E+03 0. -1.
<mgrwt>
<rscale>  2 0.18542743E+03</rscale>
<asrwt>0</asrwt>
<pdfrwt beam="1">  1       21 0.54463920E-01 0.18542743E+03</pdfrwt>
<pdfrwt beam="2">  1       21 0.15262202E-01 0.18542743E+03</pdfrwt>
<totfact> 0.12134701E+05</totfact>
</mgrwt>
</event>
<event>
 4    1  0.4199481E+000  0.1842998E+03  0.7546771E-02  0.1163705E+00
         21   -1    0    0  501  502  0.00000000000E+00  0.00000000000E+00  0.11024694279E+03  0.11024694279E+03  0.00000000000E+00 0.  1.
         21   -1    0    0  502  503 -0.00000000000E+00 -0.00000000000E+00 -0.35425226049E+03  0.35425226049E+03  0.00000000000E+00 0.  1.
          6    1    1    2  501    0 -0.62622068418E+02  0.10766026717E+02 -0.38168118553E+02  0.18821061622E+03  0.17300000000E+03 0. -1.
         -6    1    1    2    0  503  0.62622068418E+02 -0.10766026717E+02 -0.20583719915E+03  0.27628858706E+03  0.17300000000E+03 0. -1.
<mgrwt>
<rscale>  2 0.18429984E+03</rscale>
<asrwt>0</asrwt>
<pdfrwt beam="1">  1       21 0.16961068E-01 0.18429984E+03</pdfrwt>
<pdfrwt beam="2">  1       21 0.54500348E-01 0.18429984E+03</pdfrwt>
<totfact> 0.99939744E+04</totfact>
</mgrwt>
</event>
<event>
 4    1  0.4199481E+000  0.2621413E+03  0.7546771E-02  0.1105863E+00
         21   -1    0    0  501  502  0.00000000000E+00  0.00000000000E+00  0.17552624193E+04  0.17552624193E+04  0.00000000000E+00 0. -1.
         21   -1    0    0  502  503 -0.00000000000E+00 -0.00000000000E+00 -0.42858016750E+02  0.42858016750E+02  0.00000000000E+00 0.  1.
          6    1    1    2  501    0  0.10571192491E+03  0.16617479993E+03  0.59174307837E+03  0.64720780743E+03  0.17300000000E+03 0. -1.
         -6    1    1    2    0  503 -0.10571192491E+03 -0.16617479993E+03  0.11206613242E+04  0.11509126287E+04  0.17300000000E+03 0.  1.
<mgrwt>
<rscale>  2 0.26214133E+03</rscale>
<asrwt>0</asrwt>
<pdfrwt beam="1">  1       21 0.27004032E+00 0.26214133E+03</pdfrwt>
<pdfrwt beam="2">  1       21 0.65935424E-02 0.26214133E+03</pdfrwt>
<totfact> 0.80094140E+03</totfact>
</mgrwt>
</event>
<event>
 4    1  0.4199481E+000  0.2014102E+03  0.7546771E-02  0.1148555E+00
         21   -1    0    0  503  502  0.00000000000E+00  0.00000000000E+00  0.11987633779E+04  0.11987633779E+04  0.00000000000E+00 0.  1.
         21   -1    0    0  501  503 -0.00000000000E+00 -0.00000000000E+00 -0.35740006808E+02  0.35740006808E+02  0.00000000000E+00 0. -1.
          6    1    1    2  501    0 -0.32109573927E+02  0.98010482714E+02  0.43919050558E+03  0.48317117013E+03  0.17300000000E+03 0.  1.
         -6    1    1    2    0  502  0.32109573927E+02 -0.98010482714E+02  0.72383286554E+03  0.75133221460E+03  0.17300000000E+03 0.  1.
<mgrwt>
<rscale>  2 0.20141023E+03</rscale>
<asrwt>0</asrwt>
<pdfrwt beam="1">  1       21 0.18442510E+00 0.20141023E+03</pdfrwt>
<pdfrwt beam="2">  1       21 0.54984635E-02 0.20141023E+03</pdfrwt>
<totfact> 0.38653722E+04</totfact>
</mgrwt>
</event>
<event>
 4    1  0.4199481E+000  0.1990572E+03  0.7546771E-02  0.1150537E+00
         21   -1    0    0  503  502  0.00000000000E+00  0.00000000000E+00  0.42294140044E+03  0.42294140044E+03  0.00000000000E+00 0. -1.
         21   -1    0    0  501  503 -0.00000000000E+00 -0.00000000000E+00 -0.29659241155E+03  0.29659241155E+03  0.00000000000E+00 0. -1.
          6    1    1    2  501    0 -0.79541493852E+02  0.58033615480E+02 -0.23439535319E+03  0.30751411572E+03  0.17300000000E+03 0. -1.
         -6    1    1    2    0  502  0.79541493852E+02 -0.58033615480E+02  0.36074434208E+03  0.41201969627E+03  0.17300000000E+03 0. -1.
<mgrwt>
<rscale>  2 0.19905715E+03</rscale>
<asrwt>0</asrwt>
<pdfrwt beam="1">  1       21 0.65067908E-01 0.19905715E+03</pdfrwt>
<pdfrwt beam="2">  1       21 0.45629602E-01 0.19905715E+03</pdfrwt>
<totfact> 0.99700118E+03</totfact>
</mgrwt>
</event>
<event>
 4    1  0.4199481E+000  0.1906122E+03  0.7546771E-02  0.1157910E+00
         21   -1    0    0  503  502  0.00000000000E+00  0.00000000000E+00  0.12465416067E+03  0.12465416067E+03  0.00000000000E+00 0. -1.
         21   -1    0    0  501  503 -0.00000000000E+00 -0.00000000000E+00 -0.29349869153E+03  0.29349869153E+03  0.00000000000E+00 0. -1.
          6    1    1    2  501    0 -0.37912374425E+02  0.70474666424E+02 -0.10180197631E+03  0.21609412098E+03  0.17300000000E+03 0. -1.
         -6    1    1    2    0  502  0.37912374425E+02 -0.70474666424E+02 -0.67042554539E+02  0.20205873122E+03  0.17300000000E+03 0. -1.
<mgrwt>
<rscale>  2 0.19061224E+03</rscale>
<asrwt>0</asrwt>
<pdfrwt beam="1">  1       21 0.19177563E-01 0.19061224E+03</pdfrwt>
<pdfrwt beam="2">  1       21 0.45153645E-01 0.19061224E+03</pdfrwt>
<totfact> 0.11755345E+05</totfact>
</mgrwt>
</event>
<event>
 4    1  0.4199481E+000  0.3494718E+03  0.7546771E-02  0.1062832E+00
         21   -1    0    0  501  502  0.00000000000E+00  0.00000000000E+00  0.99072933524E+03  0.99072933524E+03  0.00000000000E+00 0. -1.
         21   -1    0    0  502  503 -0.00000000000E+00 -0.00000000000E+00 -0.12327333961E+03  0.12327333961E+03  0.00000000000E+00 0.  1.
          6    1    1    2  501    0  0.15158975865E+03  0.26310085108E+03  0.43377925957E+03  0.55704125413E+03  0.17300000000E+03 0.  1.
         -6    1    1    2    0  503 -0.15158975865E+03 -0.26310085108E+03  0.43367673606E+03  0.55696142072E+03  0.17300000000E+03 0.  1.
<mgrwt>
<rscale>  2 0.34947176E+03</rscale>
<asrwt>0</asrwt>
<pdfrwt beam="1">  1       21 0.15241989E+00 0.34947176E+03</pdfrwt>
<pdfrwt beam="2">  1       21 0.18965130E-01 0.34947176E+03</pdfrwt>
<totfact> 0.66443078E+03</totfact>
</mgrwt>
</event>
<event>
 4    1  0.4199481E+000  0.1753891E+03  0.7546771E-02  0.1172342E+00
         21   -1    0    0  501  502  0.00000000000E+00  0.00000000000E+00  0.72058534688E+03  0.72058534688E+03  0.00000000000E+00 0.  1.
         21   -1    0    0  502  503 -0.00000000000E+00 -0.00000000000E+00 -0.54951288707E+02  0.54951288707E+02  0.00000000000E+00 0.  1.
          6    1    1    2  501    0  0.15813653586E+02  0.24129914061E+02  0.51599061441E+03  0.54498407183E+03  0.17300000000E+03 0.  1.
         -6    1    1    2    0  503 -0.15813653586E+02 -0.24129914061E+02  0.14964344377E+03  0.23055256376E+03  0.17300000000E+03 0.  1.
<mgrwt>
<rscale>  2 0.17538907E+03</rscale>
<asrwt>0</asrwt>
<pdfrwt beam="1">  1       21 0.11085928E+00 0.17538907E+03</pdfrwt>
<pdfrwt beam="2">  1       21 0.84540449E-02 0.17538907E+03</pdfrwt>
<totfact> 0.70423011E+04</totfact>
</mgrwt>
</event>
<event>
 4    1  0.4199481E+000  0.1898611E+03  0.7546771E-02  0.1158587E+00
         21   -1    0    0  503  502  0.00000000000E+00  0.00000000000E+00  0.94354768363E+02  0.94354768363E+02  0.00000000000E+00 0. -1.
         21   -1    0    0  501  503 -0.00000000000E+00 -0.00000000000E+00 -0.11621276122E+04  0.11621276122E+04  0.00000000000E+00 0. -1.
          6    1    1    2  501    0 -0.67975986666E+02  0.38697350582E+02 -0.10486068587E+04  0.10656564005E+04  0.17300000000E+03 0. -1.
         -6    1    1    2    0  502  0.67975986666E+02 -0.38697350582E+02 -0.19165985152E+02  0.19082598013E+03  0.17300000000E+03 0. -1.
<mgrwt>
<rscale>  2 0.18986105E+03</rscale>
<asrwt>0</asrwt>
<pdfrwt beam="1">  1       21 0.14516119E-01 0.18986105E+03</pdfrwt>
<pdfrwt beam="2">  1       21 0.17878886E+00 0.18986105E+03</pdfrwt>
<totfact> 0.77402076E+03</totfact>
</mgrwt>
</event>
<event>
 4    1  0.4199481E+000  0.1790930E+03  0.7546771E-02  0.1168684E+00
         21   -1    0    0  503  502  0.00000000000E+00  0.00000000000E+00  0.16582816595E+04  0.16582816595E+04  0.00000000000E+00 0. -1.
         21   -1    0    0  501  503 -0.00000000000E+00 -0.00000000000E+00 -0.19389655509E+02  0.19389655509E+02  0.00000000000E+00 0. -1.
          6    1    1    2  501    0  0.38070874439E+02  0.26380007719E+02  0.77781055939E+03  0.79816261663E+03  0.17300000000E+03 0. -1.
         -6    1    1    2    0  502 -0.38070874439E+02 -0.26380007719E+02  0.86108144465E+03  0.87950869843E+03  0.17300000000E+03 0. -1.
<mgrwt>
<rscale>  2 0.17909298E+03</rscale>
<asrwt>0</asrwt>
<pdfrwt beam="1">  1       21 0.25512014E+00 0.17909298E+03</pdfrwt>
<pdfrwt beam="2">  1       21 0.29830252E-02 0.17909298E+03</pdfrwt>
<totfact> 0.40078656E+04</totfact>
</mgrwt>
</event>
<event>
 4    1  0.4199481E+000  0.2144806E+03  0.7546771E-02  0.1138066E+00
         21   -1    0    0  501  502  0.00000000000E+00  0.00000000000E+00  0.96983786715E+02  0.96983786715E+02  0.00000000000E+00 0.  1.
         21   -1    0    0  502  503 -0.00000000000E+00 -0.00000000000E+00 -0.10111084361E+04  0.10111084361E+04  0.00000000000E+00 0.  1.
          6    1    1    2  501    0 -0.12664396806E+03  0.58515754619E+01 -0.53374012083E+02  0.22102199155E+03  0.17300000000E+03 0.  1.
         -6    1    1    2    0  503  0.12664396806E+03 -0.58515754619E+01 -0.86075063731E+03  0.88707023127E+03  0.17300000000E+03 0.  1.
<mgrwt>
<rscale>  2 0.21448062E+03</rscale>
<asrwt>0</asrwt>
<pdfrwt beam="1">  1       21 0.14920582E-01 0.21448062E+03</pdfrwt>
<pdfrwt beam="2">  1       21 0.15555515E+00 0.21448062E+03</pdfrwt>
<totfact> 0.10580536E+04</totfact>
</mgrwt>
</event>
<event>
 4    1  0.4199481E+000  0.1881184E+03  0.7546771E-02  0.1160169E+00
         21   -1    0    0  501  502  0.00000000000E+00  0.00000000000E+00  0.27131322096E+02  0.27131322096E+02  0.00000000000E+00 0. -1.
         21   -1    0    0  502  503 -0.00000000000E+00 -0.00000000000E+00 -0.14180049145E+04  0.14180049145E+04  0.00000000000E+00 0. -1.
          6    1    1    2  501    0  0.28715623491E+02  0.68080538854E+02 -0.49086411375E+03  0.52567682560E+03  0.17300000000E+03 0. -1.
         -6    1    1    2    0  503 -0.28715623491E+02 -0.68080538854E+02 -0.90000947862E+03  0.91945941096E+03  0.17300000000E+03 0. -1.
<mgrwt>
<rscale>  2 0.18811844E+03</rscale>
<asrwt>0</asrwt>
<pdfrwt beam="1">  1       21 0.41740501E-02 0.18811844E+03</pdfrwt>
<pdfrwt beam="2">  1       21 0.21815457E+00 0.18811844E+03</pdfrwt>
<totfact> 0.37796036E+04</totfact>
</mgrwt>
</event>
<event>
 4    1  0.4199481E+000  0.1795289E+03  0.7546771E-02  0.1168260E+00
         21   -1    0    0  501  502  0.00000000000E+00  0.00000000000E+00  0.11747717819E+04  0.11747717819E+04  0.00000000000E+00 0.  1.
         21   -1    0    0  502  503 -0.00000000000E+00 -0.00000000000E+00 -0.29616779089E+02  0.29616779089E+02  0.00000000000E+00 0.  1.
          6    1    1    2  501    0 -0.35449938739E+02 -0.32325467323E+02  0.73599849344E+03  0.75757799357E+03  0.17300000000E+03 0.  1.
         -6    1    1    2    0  503  0.35449938739E+02  0.32325467323E+02  0.40915650933E+03  0.44681056738E+03  0.17300000000E+03 0.  1.
<mgrwt>
<rscale>  2 0.17952892E+03</rscale>
<asrwt>0</asrwt>
<pdfrwt beam="1">  1       21 0.18073408E+00 0.17952892E+03</pdfrwt>
<pdfrwt beam="2">  1       21 0.45564285E-02 0.17952892E+03</pdfrwt>
<totfact> 0.57069454E+04</totfact>
</mgrwt>
</event>
<event>
 4    1  0.4199481E+000  0.1833609E+03  0.7546771E-02  0.1164589E+00
         21   -1    0    0  501  502  0.00000000000E+00  0.00000000000E+00  0.30524789245E+03  0.30524789245E+03  0.00000000000E+00 0.  1.
         21   -1    0    0  502  503 -0.00000000000E+00 -0.00000000000E+00 -0.12523245642E+03  0.12523245642E+03  0.00000000000E+00 0.  1.
          6    1    1    2  501    0 -0.49565199248E+02 -0.35149826088E+02  0.16471922727E+03  0.24648254114E+03  0.17300000000E+03 0.  1.
         -6    1    1    2    0  503  0.49565199248E+02  0.35149826088E+02  0.15296208753E+02  0.18399780774E+03  0.17300000000E+03 0.  1.
<mgrwt>
<rscale>  2 0.18336090E+03</rscale>
<asrwt>0</asrwt>
<pdfrwt beam="1">  1       21 0.46961214E-01 0.18336090E+03</pdfrwt>
<pdfrwt beam="2">  1       21 0.19266532E-01 0.18336090E+03</pdfrwt>
<totfact> 0.10777593E+05</totfact>
</mgrwt>
</event>
<event>
 4    1  0.4199481E+000  0.1987441E+03  0.7546771E-02  0.1150803E+00
         21   -1    0    0  503  502  0.00000000000E+00  0.00000000000E+00  0.22495240951E+03  0.22495240951E+03  0.00000000000E+00 0. -1.
         21   -1    0    0  501  503 -0.00000000000E+00 -0.00000000000E+00 -0.24453359733E+03  0.24453359733E+03  0.00000000000E+00 0. -1.
          6    1    1    2  501    0  0.76153070021E+02  0.61407883534E+02 -0.13443500607E+03  0.23994163684E+03  0.17300000000E+03 0. -1.
         -6    1    1    2    0  502 -0.76153070021E+02 -0.61407883534E+02  0.11485381825E+03  0.22954437000E+03  0.17300000000E+03 0. -1.
<mgrwt>
<rscale>  2 0.19874410E+03</rscale>
<asrwt>0</asrwt>
<pdfrwt beam="1">  1       21 0.34608063E-01 0.19874410E+03</pdfrwt>
<pdfrwt beam="2">  1       21 0.37620554E-01 0.19874410E+03</pdfrwt>
<totfact> 0.54676990E+04</totfact>
</mgrwt>
</event>
<event>
 4    1  0.4199481E+000  0.1766425E+03  0.7546771E-02  0.1171093E+00
         21   -1    0    0  503  502  0.00000000000E+00  0.00000000000E+00  0.28917803248E+03  0.28917803248E+03  0.00000000000E+00 0.  1.
         21   -1    0    0  501  503 -0.00000000000E+00 -0.00000000000E+00 -0.10790732523E+03  0.10790732523E+03  0.00000000000E+00 0.  1.
          6    1    1    2  501    0  0.33838817328E+02 -0.11336766701E+02  0.92160017109E+02  0.19923869250E+03  0.17300000000E+03 0.  1.
         -6    1    1    2    0  502 -0.33838817328E+02  0.11336766701E+02  0.89110690132E+02  0.19784666521E+03  0.17300000000E+03 0.  1.
<mgrwt>
<rscale>  2 0.17664254E+03</rscale>
<asrwt>0</asrwt>
<pdfrwt beam="1">  1       21 0.44488928E-01 0.17664254E+03</pdfrwt>
<pdfrwt beam="2">  1       21 0.16601127E-01 0.17664254E+03</pdfrwt>
<totfact> 0.15889438E+05</totfact>
</mgrwt>
</event>
<event>
 4    1  0.4199481E+000  0.2508959E+03  0.7546771E-02  0.1112740E+00
         21   -1    0    0  503  502  0.00000000000E+00  0.00000000000E+00  0.77368538735E+03  0.77368538735E+03  0.00000000000E+00 0. -1.
         21   -1    0    0  501  503 -0.00000000000E+00 -0.00000000000E+00 -0.82311822679E+02  0.82311822679E+02  0.00000000000E+00 0. -1.
          6    1    1    2  501    0  0.49379302174E+02 -0.17487555023E+03  0.29971636877E+03  0.39086912804E+03  0.17300000000E+03 0. -1.
         -6    1    1    2    0  502 -0.49379302174E+02  0.17487555023E+03  0.39165719591E+03  0.46512808199E+03  0.17300000000E+03 0. -1.
<mgrwt>
<rscale>  2 0.25089594E+03</rscale>
<asrwt>0</asrwt>
<pdfrwt beam="1">  1       21 0.11902852E+00 0.25089594E+03</pdfrwt>
<pdfrwt beam="2">  1       21 0.12663358E-01 0.25089594E+03</pdfrwt>
<totfact> 0.27819855E+04</totfact>
</mgrwt>
</event>
<event>
 4    1  0.4199481E+000  0.2230182E+03  0.7546771E-02  0.1131653E+00
         21   -1    0    0  501  502  0.00000000000E+00  0.00000000000E+00  0.27726319408E+03  0.27726319408E+03  0.00000000000E+00 0.  1.
         21   -1    0    0  502  503 -0.00000000000E+00 -0.00000000000E+00 -0.38202426183E+03  0.38202426183E+03  0.00000000000E+00 0.  1.
          6    1    1    2  501    0 -0.12385428354E+03 -0.66844931812E+02  0.18770174051E+03  0.29149454858E+03  0.17300000000E+03 0.  1.
         -6    1    1    2    0  503  0.12385428354E+03  0.66844931812E+02 -0.29246280827E+03  0.36779290733E+03  0.17300000000E+03 0.  1.
<mgrwt>
<rscale>  2 0.22301822E+03</rscale>
<asrwt>0</asrwt>
<pdfrwt beam="1">  1       21 0.42655876E-01 0.22301822E+03</pdfrwt>
<pdfrwt beam="2">  1       21 0.58772963E-01 0.22301822E+03</pdfrwt>
<totfact> 0.14051816E+04</totfact>
</mgrwt>
</event>
<event>
 4    1  0.4199481E+000  0.1740661E+03  0.7546771E-02  0.1173673E+00
         21   -1    0    0  503  502  0.00000000000E+00  0.00000000000E+00  0.23528597715E+03  0.23528597715E+03  0.00000000000E+00 0. -1.
         21   -1    0    0  501  503 -0.00000000000E+00 -0.00000000000E+00 -0.12953387871E+03  0.12953387871E+03  0.00000000000E+00 0. -1.
          6    1    1    2  501    0  0.18684140383E+02 -0.45718091928E+01  0.38916030306E+02  0.17836326964E+03  0.17300000000E+03 0.  1.
         -6    1    1    2    0  502 -0.18684140383E+02  0.45718091928E+01  0.66836068139E+02  0.18645658622E+03  0.17300000000E+03 0.  1.
<mgrwt>
<rscale>  2 0.17406608E+03</rscale>
<asrwt>0</asrwt>
<pdfrwt beam="1">  1       21 0.36197842E-01 0.17406608E+03</pdfrwt>
<pdfrwt beam="2">  1       21 0.19928289E-01 0.17406608E+03</pdfrwt>
<totfact> 0.17201020E+05</totfact>
</mgrwt>
</event>
<event>
 4    1  0.4199481E+000  0.6339510E+03  0.7546771E-02  0.9837369E-01
         21   -1    0    0  503  502  0.00000000000E+00  0.00000000000E+00  0.20563603819E+03  0.20563603819E+03  0.00000000000E+00 0.  1.
         21   -1    0    0  501  503 -0.00000000000E+00 -0.00000000000E+00 -0.20116472870E+04  0.20116472870E+04  0.00000000000E+00 0. -1.
          6    1    1    2  501    0 -0.46355974334E+03  0.39632965402E+03 -0.71597373780E+03  0.95630132464E+03  0.17300000000E+03 0. -1.
         -6    1    1    2    0  502  0.46355974334E+03 -0.39632965402E+03 -0.10900375110E+04  0.12609820005E+04  0.17300000000E+03 0. -1.
<mgrwt>
<rscale>  2 0.63395097E+03</rscale>
<asrwt>0</asrwt>
<pdfrwt beam="1">  1       21 0.31636315E-01 0.63395097E+03</pdfrwt>
<pdfrwt beam="2">  1       21 0.30948419E+00 0.63395097E+03</pdfrwt>
<totfact> 0.20622259E+02</totfact>
</mgrwt>
</event>
<event>
 4    1  0.4199481E+000  0.1758231E+03  0.7546771E-02  0.1171908E+00
         21   -1    0    0  503  502  0.00000000000E+00  0.00000000000E+00  0.10298083725E+03  0.10298083725E+03  0.00000000000E+00 0. -1.
         21   -1    0    0  501  503 -0.00000000000E+00 -0.00000000000E+00 -0.35598892514E+03  0.35598892514E+03  0.00000000000E+00 0. -1.
          6    1    1    2  501    0 -0.31307768440E+02 -0.21375570603E+01 -0.21735959638E+03  0.27956920369E+03  0.17300000000E+03 0. -1.
         -6    1    1    2    0  502  0.31307768440E+02  0.21375570603E+01 -0.35648491514E+02  0.17940055870E+03  0.17300000000E+03 0. -1.
<mgrwt>
<rscale>  2 0.17582305E+03</rscale>
<asrwt>0</asrwt>
<pdfrwt beam="1">  1       21 0.15843206E-01 0.17582305E+03</pdfrwt>
<pdfrwt beam="2">  1       21 0.54767526E-01 0.17582305E+03</pdfrwt>
<totfact> 0.11242848E+05</totfact>
</mgrwt>
</event>
<event>
 4    1  0.4199481E+000  0.1775471E+03  0.7546771E-02  0.1170198E+00
         21   -1    0    0  501  502  0.00000000000E+00  0.00000000000E+00  0.12868705869E+04  0.12868705869E+04  0.00000000000E+00 0.  1.
         21   -1    0    0  502  503 -0.00000000000E+00 -0.00000000000E+00 -0.57484315674E+02  0.57484315674E+02  0.00000000000E+00 0.  1.
          6    1    1    2  501    0  0.39080987390E+02 -0.81638634402E+01  0.11238954866E+04  0.11378330445E+04  0.17300000000E+03 0.  1.
         -6    1    1    2    0  503 -0.39080987390E+02  0.81638634402E+01  0.10549078462E+03  0.20652185812E+03  0.17300000000E+03 0.  1.
<mgrwt>
<rscale>  2 0.17754710E+03</rscale>
<asrwt>0</asrwt>
<pdfrwt beam="1">  1       21 0.19798007E+00 0.17754710E+03</pdfrwt>
<pdfrwt beam="2">  1       21 0.88437419E-02 0.17754710E+03</pdfrwt>
<totfact> 0.14108573E+04</totfact>
</mgrwt>
</event>
<event>
 4    1  0.4199481E+000  0.1831550E+03  0.7546771E-02  0.1164784E+00
         21   -1    0    0  503  502  0.00000000000E+00  0.00000000000E+00  0.87296912200E+03  0.87296912200E+03  0.00000000000E+00 0.  1.
         21   -1    0    0  501  503 -0.00000000000E+00 -0.00000000000E+00 -0.62278430316E+02  0.62278430316E+02  0.00000000000E+00 0.  1.
          6    1    1    2  501    0  0.32553948233E+02  0.50566593771E+02  0.11595546045E+03  0.21677501876E+03  0.17300000000E+03 0.  1.
         -6    1    1    2    0  502 -0.32553948233E+02 -0.50566593771E+02  0.69473523123E+03  0.71847253355E+03  0.17300000000E+03 0.  1.
<mgrwt>
<rscale>  2 0.18315496E+03</rscale>
<asrwt>0</asrwt>
<pdfrwt beam="1">  1       21 0.13430293E+00 0.18315496E+03</pdfrwt>
<pdfrwt beam="2">  1       21 0.95812976E-02 0.18315496E+03</pdfrwt>
<totfact> 0.35022968E+04</totfact>
</mgrwt>
</event>
<event>
 4    1  0.4199481E+000  0.1983589E+03  0.7546771E-02  0.1151131E+00
         21   -1    0    0  501  502  0.00000000000E+00  0.00000000000E+00  0.30184073225E+02  0.30184073225E+02  0.00000000000E+00 0. -1.
         21   -1    0    0  502  503 -0.00000000000E+00 -0.00000000000E+00 -0.13785329414E+04  0.13785329414E+04  0.00000000000E+00 0.  1.
          6    1    1    2  501    0  0.96539938753E+02 -0.98645419111E+01 -0.50989482301E+03  0.54711881662E+03  0.17300000000E+03 0. -1.
         -6    1    1    2    0  503 -0.96539938753E+02  0.98645419111E+01 -0.83845404514E+03  0.86159819799E+03  0.17300000000E+03 0.  1.
<mgrwt>
<rscale>  2 0.19835894E+03</rscale>
<asrwt>0</asrwt>
<pdfrwt beam="1">  1       21 0.46437037E-02 0.19835894E+03</pdfrwt>
<pdfrwt beam="2">  1       21 0.21208199E+00 0.19835894E+03</pdfrwt>
<totfact> 0.34186905E+04</totfact>
</mgrwt>
</event>
<event>
 4    1  0.4199481E+000  0.2063932E+03  0.7546771E-02  0.1144454E+00
         21   -1    0    0  503  502  0.00000000000E+00  0.00000000000E+00  0.17508053712E+04  0.17508053712E+04  0.00000000000E+00 0.  1.
         21   -1    0    0  501  503 -0.00000000000E+00 -0.00000000000E+00 -0.24876054018E+02  0.24876054018E+02  0.00000000000E+00 0.  1.
          6    1    1    2  501    0  0.10622314272E+03  0.37226321699E+02  0.73149633378E+03  0.76005594624E+03  0.17300000000E+03 0.  1.
         -6    1    1    2    0  502 -0.10622314272E+03 -0.37226321699E+02  0.99443298337E+03  0.10156254790E+04  0.17300000000E+03 0.  1.
<mgrwt>
<rscale>  2 0.20639321E+03</rscale>
<asrwt>0</asrwt>
<pdfrwt beam="1">  1       21 0.26935458E+00 0.20639321E+03</pdfrwt>
<pdfrwt beam="2">  1       21 0.38270866E-02 0.20639321E+03</pdfrwt>
<totfact> 0.21370802E+04</totfact>
</mgrwt>
</event>
<event>
 4    1  0.4199481E+000  0.1982057E+03  0.7546771E-02  0.1151262E+00
         21   -1    0    0  501  502  0.00000000000E+00  0.00000000000E+00  0.18313276452E+03  0.18313276452E+03  0.00000000000E+00 0. -1.
         21   -1    0    0  502  503 -0.00000000000E+00 -0.00000000000E+00 -0.53628407687E+03  0.53628407687E+03  0.00000000000E+00 0. -1.
          6    1    1    2  501    0 -0.80430325034E+02 -0.53735060311E+02  0.10205087769E+03  0.22293468893E+03  0.17300000000E+03 0. -1.
         -6    1    1    2    0  503  0.80430325034E+02  0.53735060311E+02 -0.45520219004E+03  0.49648215245E+03  0.17300000000E+03 0. -1.
<mgrwt>
<rscale>  2 0.19820569E+03</rscale>
<asrwt>0</asrwt>
<pdfrwt beam="1">  1       21 0.28174272E-01 0.19820569E+03</pdfrwt>
<pdfrwt beam="2">  1       21 0.82505241E-01 0.19820569E+03</pdfrwt>
<totfact> 0.15383888E+04</totfact>
</mgrwt>
</event>
<event>
 4    1  0.4199481E+000  0.2453652E+03  0.7546771E-02  0.1116269E+00
         21   -1    0    0  501  502  0.00000000000E+00  0.00000000000E+00  0.11005595364E+03  0.11005595364E+03  0.00000000000E+00 0. -1.
         21   -1    0    0  502  503 -0.00000000000E+00 -0.00000000000E+00 -0.56026191392E+03  0.56026191392E+03  0.00000000000E+00 0.  1.
          6    1    1    2  501    0  0.29539259772E+02 -0.17147165662E+03 -0.17359927624E+03  0.30056747262E+03  0.17300000000E+03 0.  1.
         -6    1    1    2    0  503 -0.29539259772E+02  0.17147165662E+03 -0.27660668405E+03  0.36975039493E+03  0.17300000000E+03 0.  1.
<mgrwt>
<rscale>  2 0.24536523E+03</rscale>
<asrwt>0</asrwt>
<pdfrwt beam="1">  1       21 0.16931685E-01 0.24536523E+03</pdfrwt>
<pdfrwt beam="2">  1       21 0.86194143E-01 0.24536523E+03</pdfrwt>
<totfact> 0.35527438E+04</totfact>
</mgrwt>
</event>
<event>
 4    1  0.4199481E+000  0.2413487E+03  0.7546771E-02  0.1118898E+00
         21   -1    0    0  503  502  0.00000000000E+00  0.00000000000E+00  0.81063451403E+03  0.81063451403E+03  0.00000000000E+00 0. -1.
         21   -1    0    0  501  503 -0.00000000000E+00 -0.00000000000E+00 -0.15213218195E+03  0.15213218195E+03  0.00000000000E+00 0. -1.
          6    1    1    2  501    0  0.14271313111E+03  0.89180514080E+02 -0.20430644359E+02  0.24221191778E+03  0.17300000000E+03 0. -1.
         -6    1    1    2    0  502 -0.14271313111E+03 -0.89180514080E+02  0.67893297645E+03  0.72055477820E+03  0.17300000000E+03 0. -1.
<mgrwt>
<rscale>  2 0.24134871E+03</rscale>
<asrwt>0</asrwt>
<pdfrwt beam="1">  1       21 0.12471300E+00 0.24134871E+03</pdfrwt>
<pdfrwt beam="2">  1       21 0.23404952E-01 0.24134871E+03</pdfrwt>
<totfact> 0.79642530E+03</totfact>
</mgrwt>
</event>
<event>
 4    1  0.4199481E+000  0.1760006E+03  0.7546771E-02  0.1171731E+00
         21   -1    0    0  503  502  0.00000000000E+00  0.00000000000E+00  0.17330376953E+03  0.17330376953E+03  0.00000000000E+00 0. -1.
         21   -1    0    0  501  503 -0.00000000000E+00 -0.00000000000E+00 -0.30097300159E+03  0.30097300159E+03  0.00000000000E+00 0. -1.
          6    1    1    2  501    0 -0.32275478506E+02  0.23459006998E+01 -0.21495860694E+03  0.27781902826E+03  0.17300000000E+03 0. -1.
         -6    1    1    2    0  502  0.32275478506E+02 -0.23459006998E+01  0.87289374885E+02  0.19645774286E+03  0.17300000000E+03 0. -1.
<mgrwt>
<rscale>  2 0.17600060E+03</rscale>
<asrwt>0</asrwt>
<pdfrwt beam="1">  1       21 0.26662118E-01 0.17600060E+03</pdfrwt>
<pdfrwt beam="2">  1       21 0.46303539E-01 0.17600060E+03</pdfrwt>
<totfact> 0.60277168E+04</totfact>
</mgrwt>
</event>
<event>
 4    1  0.4199481E+000  0.1770954E+03  0.7546771E-02  0.1170644E+00
         21   -1    0    0  503  502  0.00000000000E+00  0.00000000000E+00  0.14128875709E+03  0.14128875709E+03  0.00000000000E+00 0. -1.
         21   -1    0    0  501  503 -0.00000000000E+00 -0.00000000000E+00 -0.30818653436E+03  0.30818653436E+03  0.00000000000E+00 0. -1.
          6    1    1    2  501    0 -0.84152997282E+01 -0.36918227178E+02 -0.20231227612E+03  0.26887363172E+03  0.17300000000E+03 0. -1.
         -6    1    1    2    0  502  0.84152997282E+01  0.36918227178E+02  0.35414498847E+02  0.18060165973E+03  0.17300000000E+03 0. -1.
<mgrwt>
<rscale>  2 0.17709538E+03</rscale>
<asrwt>0</asrwt>
<pdfrwt beam="1">  1       21 0.21736732E-01 0.17709538E+03</pdfrwt>
<pdfrwt beam="2">  1       21 0.47413313E-01 0.17709538E+03</pdfrwt>
<totfact> 0.84544750E+04</totfact>
</mgrwt>
</event>
<event>
 4    1  0.4199481E+000  0.2082901E+03  0.7546771E-02  0.1142927E+00
         21   -1    0    0  503  502  0.00000000000E+00  0.00000000000E+00  0.74573170379E+03  0.74573170379E+03  0.00000000000E+00 0.  1.
         21   -1    0    0  501  503 -0.00000000000E+00 -0.00000000000E+00 -0.65139316826E+02  0.65139316826E+02  0.00000000000E+00 0.  1.
          6    1    1    2  501    0 -0.22407005720E+02 -0.11381435457E+03  0.20775144498E+03  0.29418607055E+03  0.17300000000E+03 0.  1.
         -6    1    1    2    0  502  0.22407005720E+02  0.11381435457E+03  0.47284094199E+03  0.51668495007E+03  0.17300000000E+03 0.  1.
<mgrwt>
<rscale>  2 0.20829014E+03</rscale>
<asrwt>0</asrwt>
<pdfrwt beam="1">  1       21 0.11472795E+00 0.20829014E+03</pdfrwt>
<pdfrwt beam="2">  1       21 0.10021434E-01 0.20829014E+03</pdfrwt>
<totfact> 0.47274330E+04</totfact>
</mgrwt>
</event>
<event>
 4    1  0.4199481E+000  0.2139117E+03  0.7546771E-02  0.1138505E+00
         21   -1    0    0  501  502  0.00000000000E+00  0.00000000000E+00  0.41355023189E+03  0.41355023189E+03  0.00000000000E+00 0.  1.
         21   -1    0    0  502  503 -0.00000000000E+00 -0.00000000000E+00 -0.12855109724E+03  0.12855109724E+03  0.00000000000E+00 0.  1.
          6    1    1    2  501    0  0.12117842472E+03 -0.33837827278E+02  0.24365410626E+03  0.32423067817E+03  0.17300000000E+03 0.  1.
         -6    1    1    2    0  503 -0.12117842472E+03  0.33837827278E+02  0.41345028392E+02  0.21787065095E+03  0.17300000000E+03 0.  1.
<mgrwt>
<rscale>  2 0.21391169E+03</rscale>
<asrwt>0</asrwt>
<pdfrwt beam="1">  1       21 0.63623112E-01 0.21391169E+03</pdfrwt>
<pdfrwt beam="2">  1       21 0.19777092E-01 0.21391169E+03</pdfrwt>
<totfact> 0.53276526E+04</totfact>
</mgrwt>
</event>
<event>
 4    1  0.4199481E+000  0.2609239E+03  0.7546771E-02  0.1106589E+00
         21   -1    0    0  501  502  0.00000000000E+00  0.00000000000E+00  0.50482979115E+03  0.50482979115E+03  0.00000000000E+00 0. -1.
         21   -1    0    0  502  503 -0.00000000000E+00 -0.00000000000E+00 -0.14173025597E+03  0.14173025597E+03  0.00000000000E+00 0.  1.
          6    1    1    2  501    0 -0.87281293637E+02 -0.17474047995E+03  0.11037280810E+03  0.28330798845E+03  0.17300000000E+03 0.  1.
         -6    1    1    2    0  503  0.87281293637E+02  0.17474047995E+03  0.25272672709E+03  0.36325205868E+03  0.17300000000E+03 0. -1.
<mgrwt>
<rscale>  2 0.26092386E+03</rscale>
<asrwt>0</asrwt>
<pdfrwt beam="1">  1       21 0.77666121E-01 0.26092386E+03</pdfrwt>
<pdfrwt beam="2">  1       21 0.21804655E-01 0.26092386E+03</pdfrwt>
<totfact> 0.27884755E+04</totfact>
</mgrwt>
</event>
<event>
 4    1  0.4199481E+000  0.2167646E+03  0.7546771E-02  0.1136318E+00
         21   -1    0    0  503  502  0.00000000000E+00  0.00000000000E+00  0.97078033510E+03  0.97078033510E+03  0.00000000000E+00 0.  1.
         21   -1    0    0  501  503 -0.00000000000E+00 -0.00000000000E+00 -0.51225180575E+02  0.51225180575E+02  0.00000000000E+00 0.  1.
          6    1    1    2  501    0  0.11843049265E+03  0.55064642411E+02  0.33979580954E+03  0.40304849412E+03  0.17300000000E+03 0.  1.
         -6    1    1    2    0  502 -0.11843049265E+03 -0.55064642411E+02  0.57975934498E+03  0.61895702155E+03  0.17300000000E+03 0.  1.
<mgrwt>
<rscale>  2 0.21676461E+03</rscale>
<asrwt>0</asrwt>
<pdfrwt beam="1">  1       21 0.14935081E+00 0.21676461E+03</pdfrwt>
<pdfrwt beam="2">  1       21 0.78807977E-02 0.21676461E+03</pdfrwt>
<totfact> 0.36715819E+04</totfact>
</mgrwt>
</event>
<event>
 4    1  0.4199481E+000  0.2235538E+03  0.7546771E-02  0.1131261E+00
         21   -1    0    0  503  502  0.00000000000E+00  0.00000000000E+00  0.97378630520E+03  0.97378630520E+03  0.00000000000E+00 0.  1.
         21   -1    0    0  501  503 -0.00000000000E+00 -0.00000000000E+00 -0.69257008582E+02  0.69257008582E+02  0.00000000000E+00 0.  1.
          6    1    1    2  501    0  0.18887456044E+01 -0.14157586707E+03  0.18686774945E+03  0.29136892298E+03  0.17300000000E+03 0.  1.
         -6    1    1    2    0  502 -0.18887456044E+01  0.14157586707E+03  0.71766154717E+03  0.75167439080E+03  0.17300000000E+03 0.  1.
<mgrwt>
<rscale>  2 0.22355378E+03</rscale>
<asrwt>0</asrwt>
<pdfrwt beam="1">  1       21 0.14981327E+00 0.22355378E+03</pdfrwt>
<pdfrwt beam="2">  1       21 0.10654925E-01 0.22355378E+03</pdfrwt>
<totfact> 0.21322361E+04</totfact>
</mgrwt>
</event>
<event>
 4    1  0.4199481E+000  0.1860638E+03  0.7546771E-02  0.1162060E+00
         21   -1    0    0  501  502  0.00000000000E+00  0.00000000000E+00  0.43392473877E+03  0.43392473877E+03  0.00000000000E+00 0.  1.
         21   -1    0    0  502  503 -0.00000000000E+00 -0.00000000000E+00 -0.12233540031E+03  0.12233540031E+03  0.00000000000E+00 0.  1.
          6    1    1    2  501    0 -0.30147614463E+02 -0.61496830402E+02  0.31982902858E+03  0.37001398126E+03  0.17300000000E+03 0.  1.
         -6    1    1    2    0  503  0.30147614463E+02  0.61496830402E+02 -0.82396901157E+01  0.18624615781E+03  0.17300000000E+03 0.  1.
<mgrwt>
<rscale>  2 0.18606380E+03</rscale>
<asrwt>0</asrwt>
<pdfrwt beam="1">  1       21 0.66757651E-01 0.18606380E+03</pdfrwt>
<pdfrwt beam="2">  1       21 0.18820831E-01 0.18606380E+03</pdfrwt>
<totfact> 0.53316488E+04</totfact>
</mgrwt>
</event>
<event>
 4    1  0.4199481E+000  0.2051417E+03  0.7546771E-02  0.1145472E+00
         21   -1    0    0  501  502  0.00000000000E+00  0.00000000000E+00  0.69699528998E+03  0.69699528998E+03  0.00000000000E+00 0.  1.
         21   -1    0    0  502  503 -0.00000000000E+00 -0.00000000000E+00 -0.69381463019E+02  0.69381463019E+02  0.00000000000E+00 0. -1.
          6    1    1    2  501    0  0.11002775732E+03  0.69279659764E+01  0.17576909877E+03  0.27014418405E+03  0.17300000000E+03 0. -1.
         -6    1    1    2    0  503 -0.11002775732E+03 -0.69279659764E+01  0.45184472819E+03  0.49623256895E+03  0.17300000000E+03 0.  1.
<mgrwt>
<rscale>  2 0.20514167E+03</rscale>
<asrwt>0</asrwt>
<pdfrwt beam="1">  1       21 0.10723004E+00 0.20514167E+03</pdfrwt>
<pdfrwt beam="2">  1       21 0.10674072E-01 0.20514167E+03</pdfrwt>
<totfact> 0.49891070E+04</totfact>
</mgrwt>
</event>
<event>
 4    1  0.4199481E+000  0.2757532E+03  0.7546771E-02  0.1098031E+00
         21   -1    0    0  503  502  0.00000000000E+00  0.00000000000E+00  0.15466981592E+03  0.15466981592E+03  0.00000000000E+00 0. -1.
         21   -1    0    0  501  503 -0.00000000000E+00 -0.00000000000E+00 -0.67764716579E+03  0.67764716579E+03  0.00000000000E+00 0.  1.
          6    1    1    2  501    0  0.20800536421E+03  0.53334974545E+02 -0.47952909484E+03  0.55316182429E+03  0.17300000000E+03 0.  1.
         -6    1    1    2    0  502 -0.20800536421E+03 -0.53334974545E+02 -0.43448255024E+02  0.27915515742E+03  0.17300000000E+03 0. -1.
<mgrwt>
<rscale>  2 0.27575324E+03</rscale>
<asrwt>0</asrwt>
<pdfrwt beam="1">  1       21 0.23795356E-01 0.27575324E+03</pdfrwt>
<pdfrwt beam="2">  1       21 0.10425341E+00 0.27575324E+03</pdfrwt>
<totfact> 0.11774975E+04</totfact>
</mgrwt>
</event>
<event>
 4    1  0.4199481E+000  0.2198802E+03  0.7546771E-02  0.1133972E+00
         21   -1    0    0  501  502  0.00000000000E+00  0.00000000000E+00  0.86301836141E+03  0.86301836141E+03  0.00000000000E+00 0.  1.
         21   -1    0    0  502  503 -0.00000000000E+00 -0.00000000000E+00 -0.57397622358E+02  0.57397622358E+02  0.00000000000E+00 0.  1.
          6    1    1    2  501    0 -0.43348057036E+02 -0.12860496047E+03  0.33154322830E+03  0.39782936309E+03  0.17300000000E+03 0.  1.
         -6    1    1    2    0  503  0.43348057036E+02  0.12860496047E+03  0.47407751075E+03  0.52258662068E+03  0.17300000000E+03 0.  1.
<mgrwt>
<rscale>  2 0.21988017E+03</rscale>
<asrwt>0</asrwt>
<pdfrwt beam="1">  1       21 0.13277205E+00 0.21988017E+03</pdfrwt>
<pdfrwt beam="2">  1       21 0.88304041E-02 0.21988017E+03</pdfrwt>
<totfact> 0.40769047E+04</totfact>
</mgrwt>
</event>
<event>
 4    1  0.4199481E+000  0.2031653E+03  0.7546771E-02  0.1147096E+00
         21   -1    0    0  503  502  0.00000000000E+00  0.00000000000E+00  0.48028954324E+03  0.48028954324E+03  0.00000000000E+00 0. -1.
         21   -1    0    0  501  503 -0.00000000000E+00 -0.00000000000E+00 -0.93083298929E+02  0.93083298929E+02  0.00000000000E+00 0. -1.
          6    1    1    2  501    0  0.69302562209E+02  0.80896782836E+02  0.11418540340E+03  0.23305458792E+03  0.17300000000E+03 0.  1.
         -6    1    1    2    0  502 -0.69302562209E+02 -0.80896782836E+02  0.27302084092E+03  0.34031825425E+03  0.17300000000E+03 0.  1.
<mgrwt>
<rscale>  2 0.20316529E+03</rscale>
<asrwt>0</asrwt>
<pdfrwt beam="1">  1       21 0.73890698E-01 0.20316529E+03</pdfrwt>
<pdfrwt beam="2">  1       21 0.14320508E-01 0.20316529E+03</pdfrwt>
<totfact> 0.69808579E+04</totfact>
</mgrwt>
</event>
<event>
 4    1  0.4199481E+000  0.1786540E+03  0.7546771E-02  0.1169112E+00
         21   -1    0    0  503  502  0.00000000000E+00  0.00000000000E+00  0.20381405600E+04  0.20381405600E+04  0.00000000000E+00 0.  1.
         21   -1    0    0  501  503 -0.00000000000E+00 -0.00000000000E+00 -0.22696152586E+02  0.22696152586E+02  0.00000000000E+00 0.  1.
          6    1    1    2  501    0 -0.28360008839E+02  0.34408801346E+02  0.43399495677E+03  0.46932811360E+03  0.17300000000E+03 0. -1.
         -6    1    1    2    0  502  0.28360008839E+02 -0.34408801346E+02  0.15814494507E+04  0.15915085990E+04  0.17300000000E+03 0. -1.
<mgrwt>
<rscale>  2 0.17865401E+03</rscale>
<asrwt>0</asrwt>
<pdfrwt beam="1">  1       21 0.31355994E+00 0.17865401E+03</pdfrwt>
<pdfrwt beam="2">  1       21 0.34917174E-02 0.17865401E+03</pdfrwt>
<totfact> 0.14241866E+04</totfact>
</mgrwt>
</event>
<event>
 4    1  0.4199481E+000  0.2516597E+03  0.7546771E-02  0.1112260E+00
         21   -1    0    0  503  502  0.00000000000E+00  0.00000000000E+00  0.15289993821E+03  0.15289993821E+03  0.00000000000E+00 0. -1.
         21   -1    0    0  501  503 -0.00000000000E+00 -0.00000000000E+00 -0.48358435861E+03  0.48358435861E+03  0.00000000000E+00 0.  1.
          6    1    1    2  501    0  0.15788409835E+03  0.92066414571E+02 -0.28587979980E+03  0.38086726446E+03  0.17300000000E+03 0.  1.
         -6    1    1    2    0  502 -0.15788409835E+03 -0.92066414571E+02 -0.44804620596E+02  0.25561703235E+03  0.17300000000E+03 0.  1.
<mgrwt>
<rscale>  2 0.25165972E+03</rscale>
<asrwt>0</asrwt>
<pdfrwt beam="1">  1       21 0.23523067E-01 0.25165972E+03</pdfrwt>
<pdfrwt beam="2">  1       21 0.74397594E-01 0.25165972E+03</pdfrwt>
<totfact> 0.26704258E+04</totfact>
</mgrwt>
</event>
<event>
 4    1  0.4199481E+000  0.1862118E+03  0.7546771E-02  0.1161923E+00
         21   -1    0    0  501  502  0.00000000000E+00  0.00000000000E+00  0.68005159804E+03  0.68005159804E+03  0.00000000000E+00 0.  1.
         21   -1    0    0  502  503 -0.00000000000E+00 -0.00000000000E+00 -0.62408873266E+03  0.62408873266E+03  0.00000000000E+00 0.  1.
          6    1    1    2  501    0 -0.45701417268E+02 -0.51548188915E+02  0.65284677556E+03  0.67888419313E+03  0.17300000000E+03 0.  1.
         -6    1    1    2    0  503  0.45701417268E+02  0.51548188915E+02 -0.59688391018E+03  0.62525613756E+03  0.17300000000E+03 0.  1.
<mgrwt>
<rscale>  2 0.18621180E+03</rscale>
<asrwt>0</asrwt>
<pdfrwt beam="1">  1       21 0.10462332E+00 0.18621180E+03</pdfrwt>
<pdfrwt beam="2">  1       21 0.96013651E-01 0.18621180E+03</pdfrwt>
<totfact> 0.67058476E+02</totfact>
</mgrwt>
</event>
<event>
 4    1  0.4199481E+000  0.2930671E+03  0.7546771E-02  0.1088759E+00
         21   -1    0    0  501  502  0.00000000000E+00  0.00000000000E+00  0.56217871599E+03  0.56217871599E+03  0.00000000000E+00 0.  1.
         21   -1    0    0  502  503 -0.00000000000E+00 -0.00000000000E+00 -0.21812069499E+03  0.21812069499E+03  0.00000000000E+00 0. -1.
          6    1    1    2  501    0 -0.12335271635E+03  0.20185006880E+03  0.38557063026E+03  0.48430677656E+03  0.17300000000E+03 0.  1.
         -6    1    1    2    0  503  0.12335271635E+03 -0.20185006880E+03 -0.41512609262E+02  0.29599263442E+03  0.17300000000E+03 0. -1.
<mgrwt>
<rscale>  2 0.29306713E+03</rscale>
<asrwt>0</asrwt>
<pdfrwt beam="1">  1       21 0.86489033E-01 0.29306713E+03</pdfrwt>
<pdfrwt beam="2">  1       21 0.33557030E-01 0.29306713E+03</pdfrwt>
<totfact> 0.92880652E+03</totfact>
</mgrwt>
</event>
<event>
 4    1  0.4199481E+000  0.2125051E+03  0.7546771E-02  0.1139597E+00
         21   -1    0    0  501  502  0.00000000000E+00  0.00000000000E+00  0.72804191993E+02  0.72804191993E+02  0.00000000000E+00 0. -1.
         21   -1    0    0  502  503 -0.00000000000E+00 -0.00000000000E+00 -0.69634917800E+03  0.69634917800E+03  0.00000000000E+00 0. -1.
          6    1    1    2  501    0 -0.44514424307E+02  0.11509935986E+03 -0.18465748837E+03  0.28152581520E+03  0.17300000000E+03 0. -1.
         -6    1    1    2    0  503  0.44514424307E+02 -0.11509935986E+03 -0.43888749763E+03  0.48762755479E+03  0.17300000000E+03 0. -1.
<mgrwt>
<rscale>  2 0.21250505E+03</rscale>
<asrwt>0</asrwt>
<pdfrwt beam="1">  1       21 0.11200645E-01 0.21250505E+03</pdfrwt>
<pdfrwt beam="2">  1       21 0.10713064E+00 0.21250505E+03</pdfrwt>
<totfact> 0.45723091E+04</totfact>
</mgrwt>
</event>
<event>
 4    1  0.4199481E+000  0.2091415E+03  0.7546771E-02  0.1142248E+00
         21   -1    0    0  503  502  0.00000000000E+00  0.00000000000E+00  0.32007363244E+03  0.32007363244E+03  0.00000000000E+00 0.  1.
         21   -1    0    0  501  503 -0.00000000000E+00 -0.00000000000E+00 -0.53128579376E+03  0.53128579376E+03  0.00000000000E+00 0.  1.
          6    1    1    2  501    0  0.44127514860E+02  0.10892171212E+03 -0.47247713872E+03  0.51669606497E+03  0.17300000000E+03 0.  1.
         -6    1    1    2    0  502 -0.44127514860E+02 -0.10892171212E+03  0.26126497740E+03  0.33466336124E+03  0.17300000000E+03 0.  1.
<mgrwt>
<rscale>  2 0.20914152E+03</rscale>
<asrwt>0</asrwt>
<pdfrwt beam="1">  1       21 0.49242098E-01 0.20914152E+03</pdfrwt>
<pdfrwt beam="2">  1       21 0.81736275E-01 0.20914152E+03</pdfrwt>
<totfact> 0.50882713E+03</totfact>
</mgrwt>
</event>
<event>
 4    1  0.4199481E+000  0.1948040E+03  0.7546771E-02  0.1154198E+00
         21   -1    0    0  501  502  0.00000000000E+00  0.00000000000E+00  0.34660408327E+03  0.34660408327E+03  0.00000000000E+00 0.  1.
         21   -1    0    0  502  503 -0.00000000000E+00 -0.00000000000E+00 -0.20676919520E+03  0.20676919520E+03  0.00000000000E+00 0. -1.
          6    1    1    2  501    0  0.38771086258E+02 -0.80724263468E+02  0.25970257836E+03  0.32464447177E+03  0.17300000000E+03 0.  1.
         -6    1    1    2    0  503 -0.38771086258E+02  0.80724263468E+02 -0.11986769028E+03  0.22872880670E+03  0.17300000000E+03 0. -1.
<mgrwt>
<rscale>  2 0.19480401E+03</rscale>
<asrwt>0</asrwt>
<pdfrwt beam="1">  1       21 0.53323705E-01 0.19480401E+03</pdfrwt>
<pdfrwt beam="2">  1       21 0.31810646E-01 0.19480401E+03</pdfrwt>
<totfact> 0.31604708E+04</totfact>
</mgrwt>
</event>
<event>
 4    1  0.4199481E+000  0.1869603E+03  0.7546771E-02  0.1161232E+00
         21   -1    0    0  503  502  0.00000000000E+00  0.00000000000E+00  0.11185392763E+03  0.11185392763E+03  0.00000000000E+00 0. -1.
         21   -1    0    0  501  503 -0.00000000000E+00 -0.00000000000E+00 -0.33656448167E+03  0.33656448167E+03  0.00000000000E+00 0. -1.
          6    1    1    2  501    0  0.40447495485E+02  0.58216585645E+02 -0.17230983516E+03  0.25425351527E+03  0.17300000000E+03 0. -1.
         -6    1    1    2    0  502 -0.40447495485E+02 -0.58216585645E+02 -0.52400718880E+02  0.19416489403E+03  0.17300000000E+03 0. -1.
<mgrwt>
<rscale>  2 0.18696035E+03</rscale>
<asrwt>0</asrwt>
<pdfrwt beam="1">  1       21 0.17208296E-01 0.18696035E+03</pdfrwt>
<pdfrwt beam="2">  1       21 0.51779152E-01 0.18696035E+03</pdfrwt>
<totfact> 0.10827194E+05</totfact>
</mgrwt>
</event>
<event>
 4    1  0.4199481E+000  0.1738777E+03  0.7546771E-02  0.1173863E+00
         21   -1    0    0  501  502  0.00000000000E+00  0.00000000000E+00  0.12104840787E+03  0.12104840787E+03  0.00000000000E+00 0. -1.
         21   -1    0    0  502  503 -0.00000000000E+00 -0.00000000000E+00 -0.30936141941E+03  0.30936141941E+03  0.00000000000E+00 0. -1.
          6    1    1    2  501    0 -0.15833170230E+02  0.73320231339E+01  0.30077619810E+00  0.17387794084E+03  0.17300000000E+03 0. -1.
         -6    1    1    2    0  503  0.15833170230E+02 -0.73320231339E+01 -0.18861378774E+03  0.25653188645E+03  0.17300000000E+03 0. -1.
<mgrwt>
<rscale>  2 0.17387768E+03</rscale>
<asrwt>0</asrwt>
<pdfrwt beam="1">  1       21 0.18622832E-01 0.17387768E+03</pdfrwt>
<pdfrwt beam="2">  1       21 0.47594063E-01 0.17387768E+03</pdfrwt>
<totfact> 0.11205772E+05</totfact>
</mgrwt>
</event>
<event>
 4    1  0.4199481E+000  0.2684467E+03  0.7546771E-02  0.1102172E+00
         21   -1    0    0  503  502  0.00000000000E+00  0.00000000000E+00  0.84807524162E+03  0.84807524162E+03  0.00000000000E+00 0.  1.
         21   -1    0    0  501  503 -0.00000000000E+00 -0.00000000000E+00 -0.90554836622E+02  0.90554836622E+02  0.00000000000E+00 0.  1.
          6    1    1    2  501    0 -0.10681190795E+03 -0.17528790337E+03  0.49527766073E+03  0.56335032970E+03  0.17300000000E+03 0.  1.
         -6    1    1    2    0  502  0.10681190795E+03  0.17528790337E+03  0.26224274427E+03  0.37527974855E+03  0.17300000000E+03 0.  1.
<mgrwt>
<rscale>  2 0.26844670E+03</rscale>
<asrwt>0</asrwt>
<pdfrwt beam="1">  1       21 0.13047311E+00 0.26844670E+03</pdfrwt>
<pdfrwt beam="2">  1       21 0.13931514E-01 0.26844670E+03</pdfrwt>
<totfact> 0.18394254E+04</totfact>
</mgrwt>
</event>
<event>
 4    1  0.4199481E+000  0.2173160E+03  0.7546771E-02  0.1135900E+00
         21   -1    0    0  503  502  0.00000000000E+00  0.00000000000E+00  0.39522650775E+02  0.39522650775E+02  0.00000000000E+00 0. -1.
         21   -1    0    0  501  503 -0.00000000000E+00 -0.00000000000E+00 -0.11957329246E+04  0.11957329246E+04  0.00000000000E+00 0. -1.
          6    1    1    2  501    0  0.11869684808E+02  0.13098228638E+03 -0.56196177216E+03  0.60251745380E+03  0.17300000000E+03 0. -1.
         -6    1    1    2    0  502 -0.11869684808E+02 -0.13098228638E+03 -0.59424850165E+03  0.63273812156E+03  0.17300000000E+03 0. -1.
<mgrwt>
<rscale>  2 0.21731601E+03</rscale>
<asrwt>0</asrwt>
<pdfrwt beam="1">  1       21 0.60804086E-02 0.21731601E+03</pdfrwt>
<pdfrwt beam="2">  1       21 0.18395889E+00 0.21731601E+03</pdfrwt>
<totfact> 0.32445677E+04</totfact>
</mgrwt>
</event>
<event>
 4    1  0.4199481E+000  0.1871615E+03  0.7546771E-02  0.1161047E+00
         21   -1    0    0  501  502  0.00000000000E+00  0.00000000000E+00  0.67086289364E+03  0.67086289364E+03  0.00000000000E+00 0.  1.
         21   -1    0    0  502  503 -0.00000000000E+00 -0.00000000000E+00 -0.52427610652E+02  0.52427610652E+02  0.00000000000E+00 0.  1.
          6    1    1    2  501    0  0.57240860984E+02 -0.42707485490E+02  0.33222028657E+03  0.38131321022E+03  0.17300000000E+03 0. -1.
         -6    1    1    2    0  503 -0.57240860984E+02  0.42707485490E+02  0.28621499642E+03  0.34197729407E+03  0.17300000000E+03 0. -1.
<mgrwt>
<rscale>  2 0.18716155E+03</rscale>
<asrwt>0</asrwt>
<pdfrwt beam="1">  1       21 0.10320967E+00 0.18716155E+03</pdfrwt>
<pdfrwt beam="2">  1       21 0.80657867E-02 0.18716155E+03</pdfrwt>
<totfact> 0.90282407E+04</totfact>
</mgrwt>
</event>
<event>
 4    1  0.4199481E+000  0.2676127E+03  0.7546771E-02  0.1102654E+00
         21   -1    0    0  501  502  0.00000000000E+00  0.00000000000E+00  0.23883784013E+04  0.23883784013E+04  0.00000000000E+00 0.  1.
         21   -1    0    0  502  503 -0.00000000000E+00 -0.00000000000E+00 -0.11753858846E+03  0.11753858846E+03  0.00000000000E+00 0. -1.
          6    1    1    2  501    0  0.33611781753E+01 -0.20414769657E+03  0.22168098616E+04  0.22329045081E+04  0.17300000000E+03 0.  1.
         -6    1    1    2    0  503 -0.33611781753E+01  0.20414769657E+03  0.54029951222E+02  0.27301248170E+03  0.17300000000E+03 0. -1.
<mgrwt>
<rscale>  2 0.26761274E+03</rscale>
<asrwt>0</asrwt>
<pdfrwt beam="1">  1       21 0.36744280E+00 0.26761274E+03</pdfrwt>
<pdfrwt beam="2">  1       21 0.18082862E-01 0.26761274E+03</pdfrwt>
<totfact> 0.34610995E+02</totfact>
</mgrwt>
</event>
<event>
 4    1  0.4199481E+000  0.2012801E+03  0.7546771E-02  0.1148663E+00
         21   -1    0    0  503  502  0.00000000000E+00  0.00000000000E+00  0.33142582612E+03  0.33142582612E+03  0.00000000000E+00 0. -1.
         21   -1    0    0  501  503 -0.00000000000E+00 -0.00000000000E+00 -0.12226978619E+03  0.12226978619E+03  0.00000000000E+00 0. -1.
          6    1    1    2  501    0  0.28542967702E+02 -0.98843119259E+02  0.10808800326E+03  0.22846592673E+03  0.17300000000E+03 0. -1.
         -6    1    1    2    0  502 -0.28542967702E+02  0.98843119259E+02  0.10106803667E+03  0.22522968558E+03  0.17300000000E+03 0. -1.
<mgrwt>
<rscale>  2 0.20128006E+03</rscale>
<asrwt>0</asrwt>
<pdfrwt beam="1">  1       21 0.50988589E-01 0.20128006E+03</pdfrwt>
<pdfrwt beam="2">  1       21 0.18810736E-01 0.20128006E+03</pdfrwt>
<totfact> 0.94309366E+04</totfact>
</mgrwt>
</event>
<event>
 4    1  0.4199481E+000  0.1790993E+03  0.7546771E-02  0.1168678E+00
         21   -1    0    0  503  502  0.00000000000E+00  0.00000000000E+00  0.45141214660E+02  0.45141214660E+02  0.00000000000E+00 0. -1.
         21   -1    0    0  501  503 -0.00000000000E+00 -0.00000000000E+00 -0.71068193710E+03  0.71068193710E+03  0.00000000000E+00 0. -1.
          6    1    1    2  501    0 -0.26461192866E+02 -0.38044144279E+02 -0.33724330945E+03  0.38185023427E+03  0.17300000000E+03 0.  1.
         -6    1    1    2    0  502  0.26461192866E+02  0.38044144279E+02 -0.32829741299E+03  0.37397291749E+03  0.17300000000E+03 0.  1.
<mgrwt>
<rscale>  2 0.17909928E+03</rscale>
<asrwt>0</asrwt>
<pdfrwt beam="1">  1       21 0.69448029E-02 0.17909928E+03</pdfrwt>
<pdfrwt beam="2">  1       21 0.10933567E+00 0.17909928E+03</pdfrwt>
<totfact> 0.10220935E+05</totfact>
</mgrwt>
</event>
<event>
 4    1  0.4199481E+000  0.1744638E+03  0.7546771E-02  0.1173271E+00
         21   -1    0    0  501  502  0.00000000000E+00  0.00000000000E+00  0.78021046735E+03  0.78021046735E+03  0.00000000000E+00 0. -1.
         21   -1    0    0  502  503 -0.00000000000E+00 -0.00000000000E+00 -0.69674439625E+02  0.69674439625E+02  0.00000000000E+00 0. -1.
          6    1    1    2  501    0  0.18678837748E+02 -0.12638259914E+02  0.63716877154E+03  0.66062218251E+03  0.17300000000E+03 0. -1.
         -6    1    1    2    0  503 -0.18678837748E+02  0.12638259914E+02  0.73367256185E+02  0.18926272447E+03  0.17300000000E+03 0. -1.
<mgrwt>
<rscale>  2 0.17446382E+03</rscale>
<asrwt>0</asrwt>
<pdfrwt beam="1">  1       21 0.12003237E+00 0.17446382E+03</pdfrwt>
<pdfrwt beam="2">  1       21 0.10719145E-01 0.17446382E+03</pdfrwt>
<totfact> 0.38256936E+04</totfact>
</mgrwt>
</event>
<event>
 4    1  0.4199481E+000  0.2253498E+03  0.7546771E-02  0.1129956E+00
         21   -1    0    0  503  502  0.00000000000E+00  0.00000000000E+00  0.18949383408E+04  0.18949383408E+04  0.00000000000E+00 0. -1.
         21   -1    0    0  501  503 -0.00000000000E+00 -0.00000000000E+00 -0.36383679316E+02  0.36383679316E+02  0.00000000000E+00 0. -1.
          6    1    1    2  501    0 -0.67852539094E+02 -0.12747369669E+03  0.43364515648E+03  0.48870301017E+03  0.17300000000E+03 0. -1.
         -6    1    1    2    0  502  0.67852539094E+02  0.12747369669E+03  0.14249095050E+04  0.14426190099E+04  0.17300000000E+03 0. -1.
<mgrwt>
<rscale>  2 0.22534975E+03</rscale>
<asrwt>0</asrwt>
<pdfrwt beam="1">  1       21 0.29152890E+00 0.22534975E+03</pdfrwt>
<pdfrwt beam="2">  1       21 0.55974906E-02 0.22534975E+03</pdfrwt>
<totfact> 0.82023597E+03</totfact>
</mgrwt>
</event>
<event>
 4    1  0.4199481E+000  0.1752853E+03  0.7546771E-02  0.1172446E+00
         21   -1    0    0  503  502  0.00000000000E+00  0.00000000000E+00  0.81002458107E+02  0.81002458107E+02  0.00000000000E+00 0.  1.
         21   -1    0    0  501  503 -0.00000000000E+00 -0.00000000000E+00 -0.10310442731E+04  0.10310442731E+04  0.00000000000E+00 0.  1.
          6    1    1    2  501    0  0.17555096419E+02  0.22085039483E+02 -0.91708997327E+03  0.93369103533E+03  0.17300000000E+03 0.  1.
         -6    1    1    2    0  502 -0.17555096419E+02 -0.22085039483E+02 -0.32951841722E+02  0.17835569588E+03  0.17300000000E+03 0.  1.
<mgrwt>
<rscale>  2 0.17528528E+03</rscale>
<asrwt>0</asrwt>
<pdfrwt beam="1">  1       21 0.12461917E-01 0.17528528E+03</pdfrwt>
<pdfrwt beam="2">  1       21 0.15862219E+00 0.17528528E+03</pdfrwt>
<totfact> 0.14312349E+04</totfact>
</mgrwt>
</event>
<event>
 4    1  0.4199481E+000  0.2181998E+03  0.7546771E-02  0.1135232E+00
         21   -1    0    0  501  502  0.00000000000E+00  0.00000000000E+00  0.31430296821E+02  0.31430296821E+02  0.00000000000E+00 0. -1.
         21   -1    0    0  502  503 -0.00000000000E+00 -0.00000000000E+00 -0.15622679340E+04  0.15622679340E+04  0.00000000000E+00 0. -1.
          6    1    1    2  501    0 -0.11691726051E+03 -0.63344453529E+02 -0.62654571321E+03  0.66345361281E+03  0.17300000000E+03 0. -1.
         -6    1    1    2    0  503  0.11691726051E+03  0.63344453529E+02 -0.90429192397E+03  0.93024461802E+03  0.17300000000E+03 0. -1.
<mgrwt>
<rscale>  2 0.21819983E+03</rscale>
<asrwt>0</asrwt>
<pdfrwt beam="1">  1       21 0.48354295E-02 0.21819983E+03</pdfrwt>
<pdfrwt beam="2">  1       21 0.24034895E+00 0.21819983E+03</pdfrwt>
<totfact> 0.21142584E+04</totfact>
</mgrwt>
</event>
<event>
 4    1  0.4199481E+000  0.2013606E+03  0.7546771E-02  0.1148596E+00
         21   -1    0    0  501  502  0.00000000000E+00  0.00000000000E+00  0.27173908468E+03  0.27173908468E+03  0.00000000000E+00 0.  1.
         21   -1    0    0  502  503 -0.00000000000E+00 -0.00000000000E+00 -0.21039841685E+03  0.21039841685E+03  0.00000000000E+00 0.  1.
          6    1    1    2  501    0 -0.98340372131E+02  0.30761686184E+02  0.16067391621E+03  0.25760865179E+03  0.17300000000E+03 0.  1.
         -6    1    1    2    0  503  0.98340372131E+02 -0.30761686184E+02 -0.99333248388E+02  0.22452884973E+03  0.17300000000E+03 0.  1.
<mgrwt>
<rscale>  2 0.20136065E+03</rscale>
<asrwt>0</asrwt>
<pdfrwt beam="1">  1       21 0.41806013E-01 0.20136065E+03</pdfrwt>
<pdfrwt beam="2">  1       21 0.32368987E-01 0.20136065E+03</pdfrwt>
<totfact> 0.50364711E+04</totfact>
</mgrwt>
</event>
<event>
 4    1  0.4199481E+000  0.1883423E+03  0.7546771E-02  0.1159965E+00
         21   -1    0    0  501  502  0.00000000000E+00  0.00000000000E+00  0.36985339496E+03  0.36985339496E+03  0.00000000000E+00 0. -1.
         21   -1    0    0  502  503 -0.00000000000E+00 -0.00000000000E+00 -0.17708171930E+03  0.17708171930E+03  0.00000000000E+00 0. -1.
          6    1    1    2  501    0  0.68937139576E+01  0.74136903733E+02  0.28153430781E+03  0.33872462305E+03  0.17300000000E+03 0. -1.
         -6    1    1    2    0  503 -0.68937139576E+01 -0.74136903733E+02 -0.88762632141E+02  0.20821049121E+03  0.17300000000E+03 0. -1.
<mgrwt>
<rscale>  2 0.18834225E+03</rscale>
<asrwt>0</asrwt>
<pdfrwt beam="1">  1       21 0.56900522E-01 0.18834225E+03</pdfrwt>
<pdfrwt beam="2">  1       21 0.27243342E-01 0.18834225E+03</pdfrwt>
<totfact> 0.37363447E+04</totfact>
</mgrwt>
</event>
<event>
 4    1  0.4199481E+000  0.1940471E+03  0.7546771E-02  0.1154861E+00
         21   -1    0    0  503  502  0.00000000000E+00  0.00000000000E+00  0.54745888651E+02  0.54745888651E+02  0.00000000000E+00 0. -1.
         21   -1    0    0  501  503 -0.00000000000E+00 -0.00000000000E+00 -0.23802619123E+04  0.23802619123E+04  0.00000000000E+00 0. -1.
          6    1    1    2  501    0 -0.15839420771E+02  0.86454535157E+02 -0.21893959721E+04  0.21979783886E+04  0.17300000000E+03 0. -1.
         -6    1    1    2    0  502  0.15839420771E+02 -0.86454535157E+02 -0.13612005151E+03  0.23702941236E+03  0.17300000000E+03 0. -1.
<mgrwt>
<rscale>  2 0.19404709E+03</rscale>
<asrwt>0</asrwt>
<pdfrwt beam="1">  1       21 0.84224453E-02 0.19404709E+03</pdfrwt>
<pdfrwt beam="2">  1       21 0.36619410E+00 0.19404709E+03</pdfrwt>
<totfact> 0.15337380E+03</totfact>
</mgrwt>
</event>
<event>
 4    1  0.4199481E+000  0.2058038E+03  0.7546771E-02  0.1144933E+00
         21   -1    0    0  503  502  0.00000000000E+00  0.00000000000E+00  0.46920587970E+03  0.46920587970E+03  0.00000000000E+00 0.  1.
         21   -1    0    0  501  503 -0.00000000000E+00 -0.00000000000E+00 -0.92597243055E+02  0.92597243055E+02  0.00000000000E+00 0. -1.
          6    1    1    2  501    0  0.11988571731E+02  0.11082636860E+03  0.14377182854E+03  0.25104889666E+03  0.17300000000E+03 0. -1.
         -6    1    1    2    0  502 -0.11988571731E+02 -0.11082636860E+03  0.23283680810E+03  0.31075422610E+03  0.17300000000E+03 0. -1.
<mgrwt>
<rscale>  2 0.20580381E+03</rscale>
<asrwt>0</asrwt>
<pdfrwt beam="1">  1       21 0.72185518E-01 0.20580381E+03</pdfrwt>
<pdfrwt beam="2">  1       21 0.14245730E-01 0.20580381E+03</pdfrwt>
<totfact> 0.74146350E+04</totfact>
</mgrwt>
</event>
<event>
 4    1  0.4199481E+000  0.1854452E+03  0.7546771E-02  0.1162635E+00
         21   -1    0    0  501  502  0.00000000000E+00  0.00000000000E+00  0.36677627304E+03  0.36677627304E+03  0.00000000000E+00 0. -1.
         21   -1    0    0  502  503 -0.00000000000E+00 -0.00000000000E+00 -0.13608168782E+03  0.13608168782E+03  0.00000000000E+00 0.  1.
          6    1    1    2  501    0 -0.34380233403E+01 -0.66701606199E+02  0.25555867068E+03  0.31575331896E+03  0.17300000000E+03 0. -1.
         -6    1    1    2    0  503  0.34380233403E+01  0.66701606199E+02 -0.24864085457E+02  0.18710464190E+03  0.17300000000E+03 0.  1.
<mgrwt>
<rscale>  2 0.18544521E+03</rscale>
<asrwt>0</asrwt>
<pdfrwt beam="1">  1       21 0.56427119E-01 0.18544521E+03</pdfrwt>
<pdfrwt beam="2">  1       21 0.20935644E-01 0.18544521E+03</pdfrwt>
<totfact> 0.62799836E+04</totfact>
</mgrwt>
</event>
<event>
 4    1  0.4199481E+000  0.1836826E+03  0.7546771E-02  0.1164286E+00
         21   -1    0    0  503  502  0.00000000000E+00  0.00000000000E+00  0.19200863976E+03  0.19200863976E+03  0.00000000000E+00 0.  1.
         21   -1    0    0  501  503 -0.00000000000E+00 -0.00000000000E+00 -0.21657022993E+03  0.21657022993E+03  0.00000000000E+00 0.  1.
          6    1    1    2  501    0  0.54531464111E+01  0.61486192382E+02 -0.10100799557E+03  0.20962324257E+03  0.17300000000E+03 0.  1.
         -6    1    1    2    0  502 -0.54531464111E+01 -0.61486192382E+02  0.76446405397E+02  0.19895562711E+03  0.17300000000E+03 0.  1.
<mgrwt>
<rscale>  2 0.18368258E+03</rscale>
<asrwt>0</asrwt>
<pdfrwt beam="1">  1       21 0.29539791E-01 0.18368258E+03</pdfrwt>
<pdfrwt beam="2">  1       21 0.33318497E-01 0.18368258E+03</pdfrwt>
<totfact> 0.95589690E+04</totfact>
</mgrwt>
</event>
<event>
 4    1  0.4199481E+000  0.1779901E+03  0.7546771E-02  0.1169762E+00
         21   -1    0    0  501  502  0.00000000000E+00  0.00000000000E+00  0.40642102356E+03  0.40642102356E+03  0.00000000000E+00 0.  1.
         21   -1    0    0  502  503 -0.00000000000E+00 -0.00000000000E+00 -0.21928763158E+03  0.21928763158E+03  0.00000000000E+00 0.  1.
          6    1    1    2  501    0  0.33941190448E+02  0.24484327023E+02  0.34473459014E+03  0.38797219529E+03  0.17300000000E+03 0.  1.
         -6    1    1    2    0  503 -0.33941190448E+02 -0.24484327023E+02 -0.15760119817E+03  0.23773645985E+03  0.17300000000E+03 0.  1.
<mgrwt>
<rscale>  2 0.17799013E+03</rscale>
<asrwt>0</asrwt>
<pdfrwt beam="1">  1       21 0.62526311E-01 0.17799013E+03</pdfrwt>
<pdfrwt beam="2">  1       21 0.33736559E-01 0.17799013E+03</pdfrwt>
<totfact> 0.20243626E+04</totfact>
</mgrwt>
</event>
<event>
 4    1  0.4199481E+000  0.1837047E+03  0.7546771E-02  0.1164265E+00
         21   -1    0    0  503  502  0.00000000000E+00  0.00000000000E+00  0.37979654564E+03  0.37979654564E+03  0.00000000000E+00 0.  1.
         21   -1    0    0  501  503 -0.00000000000E+00 -0.00000000000E+00 -0.13216204033E+03  0.13216204033E+03  0.00000000000E+00 0.  1.
          6    1    1    2  501    0  0.56895855456E+02 -0.24109432176E+02 -0.22711566301E+02  0.18510326397E+03  0.17300000000E+03 0.  1.
         -6    1    1    2    0  502 -0.56895855456E+02  0.24109432176E+02  0.27034607161E+03  0.32685532200E+03  0.17300000000E+03 0.  1.
<mgrwt>
<rscale>  2 0.18370466E+03</rscale>
<asrwt>0</asrwt>
<pdfrwt beam="1">  1       21 0.58430237E-01 0.18370466E+03</pdfrwt>
<pdfrwt beam="2">  1       21 0.20332622E-01 0.18370466E+03</pdfrwt>
<totfact> 0.61630593E+04</totfact>
</mgrwt>
</event>
<event>
 4    1  0.4199481E+000  0.2708307E+03  0.7546771E-02  0.1100805E+00
         21   -1    0    0  503  502  0.00000000000E+00  0.00000000000E+00  0.12873501517E+03  0.12873501517E+03  0.00000000000E+00 0. -1.
         21   -1    0    0  501  503 -0.00000000000E+00 -0.00000000000E+00 -0.62424513754E+03  0.62424513754E+03  0.00000000000E+00 0.  1.
          6    1    1    2  501    0 -0.17842715692E+03  0.10762910296E+03 -0.13653645357E+03  0.30330096816E+03  0.17300000000E+03 0. -1.
         -6    1    1    2    0  502  0.17842715692E+03 -0.10762910296E+03 -0.35897366880E+03  0.44967918455E+03  0.17300000000E+03 0.  1.
<mgrwt>
<rscale>  2 0.27083071E+03</rscale>
<asrwt>0</asrwt>
<pdfrwt beam="1">  1       21 0.19805387E-01 0.27083071E+03</pdfrwt>
<pdfrwt beam="2">  1       21 0.96037713E-01 0.27083071E+03</pdfrwt>
<totfact> 0.20358606E+04</totfact>
</mgrwt>
</event>
<event>
 4    1  0.4199481E+000  0.1869123E+03  0.7546771E-02  0.1161276E+00
         21   -1    0    0  503  502  0.00000000000E+00  0.00000000000E+00  0.15463688708E+03  0.15463688708E+03  0.00000000000E+00 0.  1.
         21   -1    0    0  501  503 -0.00000000000E+00 -0.00000000000E+00 -0.34196319916E+03  0.34196319916E+03  0.00000000000E+00 0.  1.
          6    1    1    2  501    0  0.43372480604E+01  0.70628553994E+02 -0.23830342651E+03  0.30286090446E+03  0.17300000000E+03 0.  1.
         -6    1    1    2    0  502 -0.43372480604E+01 -0.70628553994E+02  0.50977114441E+02  0.19373918178E+03  0.17300000000E+03 0.  1.
<mgrwt>
<rscale>  2 0.18691229E+03</rscale>
<asrwt>0</asrwt>
<pdfrwt beam="1">  1       21 0.23790290E-01 0.18691229E+03</pdfrwt>
<pdfrwt beam="2">  1       21 0.52609723E-01 0.18691229E+03</pdfrwt>
<totfact> 0.57172777E+04</totfact>
</mgrwt>
</event>
<event>
 4    1  0.4199481E+000  0.2106149E+03  0.7546771E-02  0.1141080E+00
         21   -1    0    0  503  502  0.00000000000E+00  0.00000000000E+00  0.45869260878E+03  0.45869260878E+03  0.00000000000E+00 0. -1.
         21   -1    0    0  501  503 -0.00000000000E+00 -0.00000000000E+00 -0.37715721938E+03  0.37715721938E+03  0.00000000000E+00 0.  1.
          6    1    1    2  501    0  0.11667010493E+03 -0.28595530332E+02 -0.31961607642E+03  0.38277023662E+03  0.17300000000E+03 0.  1.
         -6    1    1    2    0  502 -0.11667010493E+03  0.28595530332E+02  0.40115146582E+03  0.45307959154E+03  0.17300000000E+03 0. -1.
<mgrwt>
<rscale>  2 0.21061486E+03</rscale>
<asrwt>0</asrwt>
<pdfrwt beam="1">  1       21 0.70568094E-01 0.21061486E+03</pdfrwt>
<pdfrwt beam="2">  1       21 0.58024188E-01 0.21061486E+03</pdfrwt>
<totfact> 0.49976369E+03</totfact>
</mgrwt>
</event>
<event>
 4    1  0.4199481E+000  0.2208559E+03  0.7546771E-02  0.1133247E+00
         21   -1    0    0  503  502  0.00000000000E+00  0.00000000000E+00  0.17907433919E+03  0.17907433919E+03  0.00000000000E+00 0.  1.
         21   -1    0    0  501  503 -0.00000000000E+00 -0.00000000000E+00 -0.32942559962E+03  0.32942559962E+03  0.00000000000E+00 0. -1.
          6    1    1    2  501    0 -0.13714389976E+03  0.63149429452E+01 -0.18097200691E+03  0.28553142565E+03  0.17300000000E+03 0. -1.
         -6    1    1    2    0  502  0.13714389976E+03 -0.63149429452E+01  0.30620746488E+02  0.22296851316E+03  0.17300000000E+03 0.  1.
<mgrwt>
<rscale>  2 0.22085590E+03</rscale>
<asrwt>0</asrwt>
<pdfrwt beam="1">  1       21 0.27549898E-01 0.22085590E+03</pdfrwt>
<pdfrwt beam="2">  1       21 0.50680862E-01 0.22085590E+03</pdfrwt>
<totfact> 0.45936845E+04</totfact>
</mgrwt>
</event>
<event>
 4    1  0.4199481E+000  0.2613913E+03  0.7546771E-02  0.1106310E+00
         21   -1    0    0  501  502  0.00000000000E+00  0.00000000000E+00  0.73057687370E+02  0.73057687370E+02  0.00000000000E+00 0. -1.
         21   -1    0    0  502  503 -0.00000000000E+00 -0.00000000000E+00 -0.10635693740E+04  0.10635693740E+04  0.00000000000E+00 0. -1.
          6    1    1    2  501    0 -0.10290391163E+03  0.16675494570E+03 -0.29783531258E+03  0.39627175065E+03  0.17300000000E+03 0. -1.
         -6    1    1    2    0  503  0.10290391163E+03 -0.16675494570E+03 -0.69267637410E+03  0.74035531077E+03  0.17300000000E+03 0. -1.
<mgrwt>
<rscale>  2 0.26139133E+03</rscale>
<asrwt>0</asrwt>
<pdfrwt beam="1">  1       21 0.11239645E-01 0.26139133E+03</pdfrwt>
<pdfrwt beam="2">  1       21 0.16362605E+00 0.26139133E+03</pdfrwt>
<totfact> 0.14947502E+04</totfact>
</mgrwt>
</event>
<event>
 4    1  0.4199481E+000  0.1746924E+03  0.7546771E-02  0.1173041E+00
         21   -1    0    0  503  502  0.00000000000E+00  0.00000000000E+00  0.48998330760E+03  0.48998330760E+03  0.00000000000E+00 0. -1.
         21   -1    0    0  501  503 -0.00000000000E+00 -0.00000000000E+00 -0.63688422284E+02  0.63688422284E+02  0.00000000000E+00 0. -1.
          6    1    1    2  501    0  0.23371001280E+02 -0.64997217996E+01  0.17201804388E+03  0.24516863075E+03  0.17300000000E+03 0. -1.
         -6    1    1    2    0  502 -0.23371001280E+02  0.64997217996E+01  0.25427684144E+03  0.30850309914E+03  0.17300000000E+03 0. -1.
<mgrwt>
<rscale>  2 0.17469244E+03</rscale>
<asrwt>0</asrwt>
<pdfrwt beam="1">  1       21 0.75382045E-01 0.17469244E+03</pdfrwt>
<pdfrwt beam="2">  1       21 0.97982191E-02 0.17469244E+03</pdfrwt>
<totfact> 0.13308552E+05</totfact>
</mgrwt>
</event>
<event>
 4    1  0.4199481E+000  0.2655292E+03  0.7546771E-02  0.1103866E+00
         21   -1    0    0  503  502  0.00000000000E+00  0.00000000000E+00  0.11820793239E+03  0.11820793239E+03  0.00000000000E+00 0.  1.
         21   -1    0    0  501  503 -0.00000000000E+00 -0.00000000000E+00 -0.61014032916E+03  0.61014032916E+03  0.00000000000E+00 0.  1.
          6    1    1    2  501    0 -0.13177130039E+03  0.15235843886E+03 -0.30050607792E+03  0.40101081328E+03  0.17300000000E+03 0.  1.
         -6    1    1    2    0  502  0.13177130039E+03 -0.15235843886E+03 -0.19142631885E+03  0.32733744828E+03  0.17300000000E+03 0.  1.
<mgrwt>
<rscale>  2 0.26552923E+03</rscale>
<asrwt>0</asrwt>
<pdfrwt beam="1">  1       21 0.18185836E-01 0.26552923E+03</pdfrwt>
<pdfrwt beam="2">  1       21 0.93867743E-01 0.26552923E+03</pdfrwt>
<totfact> 0.25271632E+04</totfact>
</mgrwt>
</event>
<event>
 4    1  0.4199481E+000  0.1902225E+03  0.7546771E-02  0.1158261E+00
         21   -1    0    0  503  502  0.00000000000E+00  0.00000000000E+00  0.17019568732E+03  0.17019568732E+03  0.00000000000E+00 0. -1.
         21   -1    0    0  501  503 -0.00000000000E+00 -0.00000000000E+00 -0.29815269589E+03  0.29815269589E+03  0.00000000000E+00 0. -1.
          6    1    1    2  501    0 -0.65531127367E+02 -0.44286101471E+02 -0.18941439823E+03  0.26844441081E+03  0.17300000000E+03 0. -1.
         -6    1    1    2    0  502  0.65531127367E+02  0.44286101471E+02  0.61457389658E+02  0.19990397240E+03  0.17300000000E+03 0. -1.
<mgrwt>
<rscale>  2 0.19022247E+03</rscale>
<asrwt>0</asrwt>
<pdfrwt beam="1">  1       21 0.26183952E-01 0.19022247E+03</pdfrwt>
<pdfrwt beam="2">  1       21 0.45869646E-01 0.19022247E+03</pdfrwt>
<totfact> 0.63226102E+04</totfact>
</mgrwt>
</event>
<event>
 4    1  0.4199481E+000  0.2182265E+03  0.7546771E-02  0.1135212E+00
         21   -1    0    0  503  502  0.00000000000E+00  0.00000000000E+00  0.50703704321E+02  0.50703704321E+02  0.00000000000E+00 0.  1.
         21   -1    0    0  501  503 -0.00000000000E+00 -0.00000000000E+00 -0.21670319259E+04  0.21670319259E+04  0.00000000000E+00 0. -1.
          6    1    1    2  501    0 -0.12183927808E+03 -0.53376032384E+02 -0.18928248525E+04  0.19053631498E+04  0.17300000000E+03 0. -1.
         -6    1    1    2    0  502  0.12183927808E+03  0.53376032384E+02 -0.22350336910E+03  0.31237248041E+03  0.17300000000E+03 0.  1.
<mgrwt>
<rscale>  2 0.21822651E+03</rscale>
<asrwt>0</asrwt>
<pdfrwt beam="1">  1       21 0.78005696E-02 0.21822651E+03</pdfrwt>
<pdfrwt beam="2">  1       21 0.33338954E+00 0.21822651E+03</pdfrwt>
<totfact> 0.26583517E+03</totfact>
</mgrwt>
</event>
<event>
 4    1  0.4199481E+000  0.2229583E+03  0.7546771E-02  0.1131697E+00
         21   -1    0    0  503  502  0.00000000000E+00  0.00000000000E+00  0.94561655600E+03  0.94561655600E+03  0.00000000000E+00 0.  1.
         21   -1    0    0  501  503 -0.00000000000E+00 -0.00000000000E+00 -0.18885315472E+03  0.18885315472E+03  0.00000000000E+00 0. -1.
          6    1    1    2  501    0  0.10306335206E+02 -0.14026826608E+03 -0.10348063438E+03  0.24580205187E+03  0.17300000000E+03 0. -1.
         -6    1    1    2    0  502 -0.10306335206E+02  0.14026826608E+03  0.86024403565E+03  0.88866765885E+03  0.17300000000E+03 0.  1.
<mgrwt>
<rscale>  2 0.22295831E+03</rscale>
<asrwt>0</asrwt>
<pdfrwt beam="1">  1       21 0.14547947E+00 0.22295831E+03</pdfrwt>
<pdfrwt beam="2">  1       21 0.29054332E-01 0.22295831E+03</pdfrwt>
<totfact> 0.35808926E+03</totfact>
</mgrwt>
</event>
<event>
 4    1  0.4199481E+000  0.2391020E+03  0.7546771E-02  0.1120392E+00
         21   -1    0    0  501  502  0.00000000000E+00  0.00000000000E+00  0.62698288049E+03  0.62698288049E+03  0.00000000000E+00 0.  1.
         21   -1    0    0  502  503 -0.00000000000E+00 -0.00000000000E+00 -0.91405971137E+02  0.91405971137E+02  0.00000000000E+00 0.  1.
          6    1    1    2  501    0  0.16029946498E+03 -0.39304519609E+02  0.28555537823E+03  0.37244011299E+03  0.17300000000E+03 0.  1.
         -6    1    1    2    0  503 -0.16029946498E+03  0.39304519609E+02  0.25002153113E+03  0.34594873863E+03  0.17300000000E+03 0.  1.
<mgrwt>
<rscale>  2 0.23910199E+03</rscale>
<asrwt>0</asrwt>
<pdfrwt beam="1">  1       21 0.96458902E-01 0.23910199E+03</pdfrwt>
<pdfrwt beam="2">  1       21 0.14062458E-01 0.23910199E+03</pdfrwt>
<totfact> 0.38511134E+04</totfact>
</mgrwt>
</event>
<event>
 4    1  0.4199481E+000  0.1963837E+03  0.7546771E-02  0.1152826E+00
         21   -1    0    0  503  502  0.00000000000E+00  0.00000000000E+00  0.80738623799E+02  0.80738623799E+02  0.00000000000E+00 0.  1.
         21   -1    0    0  501  503 -0.00000000000E+00 -0.00000000000E+00 -0.62130760752E+03  0.62130760752E+03  0.00000000000E+00 0.  1.
          6    1    1    2  501    0 -0.92765211229E+02 -0.56722560385E+01 -0.43906171301E+03  0.48097998579E+03  0.17300000000E+03 0.  1.
         -6    1    1    2    0  502  0.92765211229E+02  0.56722560385E+01 -0.10150727071E+03  0.22106624552E+03  0.17300000000E+03 0.  1.
<mgrwt>
<rscale>  2 0.19638370E+03</rscale>
<asrwt>0</asrwt>
<pdfrwt beam="1">  1       21 0.12421326E-01 0.19638370E+03</pdfrwt>
<pdfrwt beam="2">  1       21 0.95585789E-01 0.19638370E+03</pdfrwt>
<totfact> 0.50276203E+04</totfact>
</mgrwt>
</event>
<event>
 4    1  0.4199481E+000  0.1757002E+03  0.7546771E-02  0.1172030E+00
         21   -1    0    0  501  502  0.00000000000E+00  0.00000000000E+00  0.16706277542E+04  0.16706277542E+04  0.00000000000E+00 0. -1.
         21   -1    0    0  502  503 -0.00000000000E+00 -0.00000000000E+00 -0.28135552260E+02  0.28135552260E+02  0.00000000000E+00 0. -1.
          6    1    1    2  501    0 -0.29866302806E+02  0.70412539717E+01  0.13188675083E+04  0.13305194775E+04  0.17300000000E+03 0. -1.
         -6    1    1    2    0  503  0.29866302806E+02 -0.70412539717E+01  0.32362469360E+03  0.36824382902E+03  0.17300000000E+03 0. -1.
<mgrwt>
<rscale>  2 0.17570024E+03</rscale>
<asrwt>0</asrwt>
<pdfrwt beam="1">  1       21 0.25701958E+00 0.17570024E+03</pdfrwt>
<pdfrwt beam="2">  1       21 0.43285478E-02 0.17570024E+03</pdfrwt>
<totfact> 0.21081768E+04</totfact>
</mgrwt>
</event>
<event>
 4    1  0.4199481E+000  0.2197595E+03  0.7546771E-02  0.1134063E+00
         21   -1    0    0  501  502  0.00000000000E+00  0.00000000000E+00  0.22435630268E+04  0.22435630268E+04  0.00000000000E+00 0. -1.
         21   -1    0    0  502  503 -0.00000000000E+00 -0.00000000000E+00 -0.59574993757E+02  0.59574993757E+02  0.00000000000E+00 0.  1.
          6    1    1    2  501    0 -0.28341528077E+02 -0.13252163719E+03  0.20122981304E+04  0.20242623328E+04  0.17300000000E+03 0. -1.
         -6    1    1    2    0  503  0.28341528077E+02  0.13252163719E+03  0.17168990268E+03  0.27887568775E+03  0.17300000000E+03 0.  1.
<mgrwt>
<rscale>  2 0.21975947E+03</rscale>
<asrwt>0</asrwt>
<pdfrwt beam="1">  1       21 0.34516348E+00 0.21975947E+03</pdfrwt>
<pdfrwt beam="2">  1       21 0.91653854E-02 0.21975947E+03</pdfrwt>
<totfact> 0.17051213E+03</totfact>
</mgrwt>
</event>
<event>
 4    1  0.4199481E+000  0.1984455E+03  0.7546771E-02  0.1151057E+00
         21   -1    0    0  501  502  0.00000000000E+00  0.00000000000E+00  0.90857224050E+03  0.90857224050E+03  0.00000000000E+00 0. -1.
         21   -1    0    0  502  503 -0.00000000000E+00 -0.00000000000E+00 -0.64952621515E+02  0.64952621515E+02  0.00000000000E+00 0. -1.
          6    1    1    2  501    0  0.28354878092E+02  0.92992571022E+02  0.70257172003E+03  0.73006002436E+03  0.17300000000E+03 0. -1.
         -6    1    1    2    0  503 -0.28354878092E+02 -0.92992571022E+02  0.14104789896E+03  0.24346483766E+03  0.17300000000E+03 0. -1.
<mgrwt>
<rscale>  2 0.19844550E+03</rscale>
<asrwt>0</asrwt>
<pdfrwt beam="1">  1       21 0.13978034E+00 0.19844550E+03</pdfrwt>
<pdfrwt beam="2">  1       21 0.99927116E-02 0.19844550E+03</pdfrwt>
<totfact> 0.29087396E+04</totfact>
</mgrwt>
</event>
<event>
 4    1  0.4199481E+000  0.1979261E+03  0.7546771E-02  0.1151501E+00
         21   -1    0    0  503  502  0.00000000000E+00  0.00000000000E+00  0.67686962108E+03  0.67686962108E+03  0.00000000000E+00 0. -1.
         21   -1    0    0  501  503 -0.00000000000E+00 -0.00000000000E+00 -0.10333565904E+03  0.10333565904E+03  0.00000000000E+00 0.  1.
          6    1    1    2  501    0  0.21242437460E+02 -0.93779067213E+02  0.28026061827E+02  0.19990051210E+03  0.17300000000E+03 0.  1.
         -6    1    1    2    0  502 -0.21242437460E+02  0.93779067213E+02  0.54550790021E+03  0.58030476802E+03  0.17300000000E+03 0. -1.
<mgrwt>
<rscale>  2 0.19792613E+03</rscale>
<asrwt>0</asrwt>
<pdfrwt beam="1">  1       21 0.10413379E+00 0.19792613E+03</pdfrwt>
<pdfrwt beam="2">  1       21 0.15897794E-01 0.19792613E+03</pdfrwt>
<totfact> 0.26210978E+04</totfact>
</mgrwt>
</event>
<event>
 4    1  0.4199481E+000  0.1964101E+03  0.7546771E-02  0.1152804E+00
         21   -1    0    0  503  502  0.00000000000E+00  0.00000000000E+00  0.25142471917E+03  0.25142471917E+03  0.00000000000E+00 0.  1.
         21   -1    0    0  501  503 -0.00000000000E+00 -0.00000000000E+00 -0.17750829463E+03  0.17750829463E+03  0.00000000000E+00 0.  1.
          6    1    1    2  501    0  0.92739650952E+02  0.68755878831E+01 -0.42024770675E+02  0.20085566439E+03  0.17300000000E+03 0.  1.
         -6    1    1    2    0  502 -0.92739650952E+02 -0.68755878831E+01  0.11594119521E+03  0.22807734941E+03  0.17300000000E+03 0.  1.
<mgrwt>
<rscale>  2 0.19641007E+03</rscale>
<asrwt>0</asrwt>
<pdfrwt beam="1">  1       21 0.38680726E-01 0.19641007E+03</pdfrwt>
<pdfrwt beam="2">  1       21 0.27308968E-01 0.19641007E+03</pdfrwt>
<totfact> 0.82272024E+04</totfact>
</mgrwt>
</event>
<event>
 4    1  0.4199481E+000  0.2413941E+03  0.7546771E-02  0.1118868E+00
         21   -1    0    0  503  502  0.00000000000E+00  0.00000000000E+00  0.41505001701E+03  0.41505001701E+03  0.00000000000E+00 0.  1.
         21   -1    0    0  501  503 -0.00000000000E+00 -0.00000000000E+00 -0.39445124469E+03  0.39445124469E+03  0.00000000000E+00 0.  1.
          6    1    1    2  501    0 -0.52059388243E+02  0.16009973798E+03 -0.31453012527E+03  0.39648493756E+03  0.17300000000E+03 0.  1.
         -6    1    1    2    0  502  0.52059388243E+02 -0.16009973798E+03  0.33512889759E+03  0.41301632414E+03  0.17300000000E+03 0.  1.
<mgrwt>
<rscale>  2 0.24139409E+03</rscale>
<asrwt>0</asrwt>
<pdfrwt beam="1">  1       21 0.63853849E-01 0.24139409E+03</pdfrwt>
<pdfrwt beam="2">  1       21 0.60684807E-01 0.24139409E+03</pdfrwt>
<totfact> 0.55354012E+03</totfact>
</mgrwt>
</event>
<event>
 4    1  0.4199481E+000  0.2127584E+03  0.7546771E-02  0.1139400E+00
         21   -1    0    0  501  502  0.00000000000E+00  0.00000000000E+00  0.36605051784E+02  0.36605051784E+02  0.00000000000E+00 0.  1.
         21   -1    0    0  502  503 -0.00000000000E+00 -0.00000000000E+00 -0.30555842995E+04  0.30555842995E+04  0.00000000000E+00 0. -1.
          6    1    1    2  501    0  0.12316066669E+03 -0.12984351910E+02 -0.31659432094E+03  0.38144214144E+03  0.17300000000E+03 0.  1.
         -6    1    1    2    0  503 -0.12316066669E+03  0.12984351910E+02 -0.27023849268E+04  0.27107472098E+04  0.17300000000E+03 0. -1.
<mgrwt>
<rscale>  2 0.21275842E+03</rscale>
<asrwt>0</asrwt>
<pdfrwt beam="1">  1       21 0.56315471E-02 0.21275842E+03</pdfrwt>
<pdfrwt beam="2">  1       21 0.47008983E+00 0.21275842E+03</pdfrwt>
<totfact> 0.64942704E+02</totfact>
</mgrwt>
</event>
<event>
 4    1  0.4199481E+000  0.2067121E+03  0.7546771E-02  0.1144196E+00
         21   -1    0    0  503  502  0.00000000000E+00  0.00000000000E+00  0.18501015461E+03  0.18501015461E+03  0.00000000000E+00 0.  1.
         21   -1    0    0  501  503 -0.00000000000E+00 -0.00000000000E+00 -0.26154257847E+03  0.26154257847E+03  0.00000000000E+00 0.  1.
          6    1    1    2  501    0  0.11041151410E+03 -0.24702064858E+02 -0.11461647832E+03  0.23636165416E+03  0.17300000000E+03 0.  1.
         -6    1    1    2    0  502 -0.11041151410E+03  0.24702064858E+02  0.38084054467E+02  0.21019107892E+03  0.17300000000E+03 0.  1.
<mgrwt>
<rscale>  2 0.20671211E+03</rscale>
<asrwt>0</asrwt>
<pdfrwt beam="1">  1       21 0.28463101E-01 0.20671211E+03</pdfrwt>
<pdfrwt beam="2">  1       21 0.40237320E-01 0.20671211E+03</pdfrwt>
<totfact> 0.69811003E+04</totfact>
</mgrwt>
</event>
<event>
 4    1  0.4199481E+000  0.2287135E+03  0.7546771E-02  0.1127549E+00
         21   -1    0    0  503  502  0.00000000000E+00  0.00000000000E+00  0.61429767529E+03  0.61429767529E+03  0.00000000000E+00 0.  1.
         21   -1    0    0  501  503 -0.00000000000E+00 -0.00000000000E+00 -0.20601591859E+03  0.20601591859E+03  0.00000000000E+00 0. -1.
          6    1    1    2  501    0  0.14649124115E+03  0.30350680463E+02 -0.11001445080E+03  0.25379721615E+03  0.17300000000E+03 0. -1.
         -6    1    1    2    0  502 -0.14649124115E+03 -0.30350680463E+02  0.51829620750E+03  0.56651637774E+03  0.17300000000E+03 0.  1.
<mgrwt>
<rscale>  2 0.22871346E+03</rscale>
<asrwt>0</asrwt>
<pdfrwt beam="1">  1       21 0.94507334E-01 0.22871346E+03</pdfrwt>
<pdfrwt beam="2">  1       21 0.31694757E-01 0.22871346E+03</pdfrwt>
<totfact> 0.87562298E+03</totfact>
</mgrwt>
</event>
<event>
 4    1  0.4199481E+000  0.1910942E+03  0.7546771E-02  0.1157478E+00
         21   -1    0    0  503  502  0.00000000000E+00  0.00000000000E+00  0.15463714992E+04  0.15463714992E+04  0.00000000000E+00 0.  1.
         21   -1    0    0  501  503 -0.00000000000E+00 -0.00000000000E+00 -0.33564085721E+02  0.33564085721E+02  0.00000000000E+00 0.  1.
          6    1    1    2  501    0  0.60666112202E+01  0.80939386852E+02  0.32630149684E+03  0.37813972941E+03  0.17300000000E+03 0.  1.
         -6    1    1    2    0  502 -0.60666112202E+01 -0.80939386852E+02  0.11865059167E+04  0.12017958556E+04  0.17300000000E+03 0.  1.
<mgrwt>
<rscale>  2 0.19109419E+03</rscale>
<asrwt>0</asrwt>
<pdfrwt beam="1">  1       21 0.23790325E+00 0.19109419E+03</pdfrwt>
<pdfrwt beam="2">  1       21 0.51637067E-02 0.19109419E+03</pdfrwt>
<totfact> 0.19995833E+04</totfact>
</mgrwt>
</event>
<event>
 4    1  0.4199481E+000  0.1804142E+03  0.7546771E-02  0.1167403E+00
         21   -1    0    0  501  502  0.00000000000E+00  0.00000000000E+00  0.15619482340E+03  0.15619482340E+03  0.00000000000E+00 0.  1.
         21   -1    0    0  502  503 -0.00000000000E+00 -0.00000000000E+00 -0.21055321563E+03  0.21055321563E+03  0.00000000000E+00 0.  1.
          6    1    1    2  501    0 -0.14027866750E+02 -0.49229200732E+02 -0.85883440405E+01  0.18061853422E+03  0.17300000000E+03 0.  1.
         -6    1    1    2    0  503  0.14027866750E+02  0.49229200732E+02 -0.45770048187E+02  0.18612950481E+03  0.17300000000E+03 0.  1.
<mgrwt>
<rscale>  2 0.18041423E+03</rscale>
<asrwt>0</asrwt>
<pdfrwt beam="1">  1       21 0.24029973E-01 0.18041423E+03</pdfrwt>
<pdfrwt beam="2">  1       21 0.32392802E-01 0.18041423E+03</pdfrwt>
<totfact> 0.15035788E+05</totfact>
</mgrwt>
</event>
<event>
 4    1  0.4199481E+000  0.2129964E+03  0.7546771E-02  0.1139215E+00
         21   -1    0    0  503  502  0.00000000000E+00  0.00000000000E+00  0.11813801896E+03  0.11813801896E+03  0.00000000000E+00 0. -1.
         21   -1    0    0  501  503 -0.00000000000E+00 -0.00000000000E+00 -0.46939277138E+03  0.46939277138E+03  0.00000000000E+00 0.  1.
          6    1    1    2  501    0  0.12307250526E+03 -0.17077503822E+02 -0.30090962187E+03  0.36866527260E+03  0.17300000000E+03 0.  1.
         -6    1    1    2    0  502 -0.12307250526E+03  0.17077503822E+02 -0.50345130551E+02  0.21886551775E+03  0.17300000000E+03 0. -1.
<mgrwt>
<rscale>  2 0.21299644E+03</rscale>
<asrwt>0</asrwt>
<pdfrwt beam="1">  1       21 0.18175080E-01 0.21299644E+03</pdfrwt>
<pdfrwt beam="2">  1       21 0.72214273E-01 0.21299644E+03</pdfrwt>
<totfact> 0.47220673E+04</totfact>
</mgrwt>
</event>
<event>
 4    1  0.4199481E+000  0.1738005E+03  0.7546771E-02  0.1173942E+00
         21   -1    0    0  501  502  0.00000000000E+00  0.00000000000E+00  0.15684565346E+03  0.15684565346E+03  0.00000000000E+00 0.  1.
         21   -1    0    0  502  503 -0.00000000000E+00 -0.00000000000E+00 -0.35918418146E+03  0.35918418146E+03  0.00000000000E+00 0.  1.
          6    1    1    2  501    0 -0.61123815038E+01  0.15499551618E+02  0.74549719187E+02  0.18911440437E+03  0.17300000000E+03 0.  1.
         -6    1    1    2    0  503  0.61123815038E+01 -0.15499551618E+02 -0.27688824719E+03  0.32691543056E+03  0.17300000000E+03 0.  1.
<mgrwt>
<rscale>  2 0.17380045E+03</rscale>
<asrwt>0</asrwt>
<pdfrwt beam="1">  1       21 0.24130101E-01 0.17380045E+03</pdfrwt>
<pdfrwt beam="2">  1       21 0.55259104E-01 0.17380045E+03</pdfrwt>
<totfact> 0.50496693E+04</totfact>
</mgrwt>
</event>
<event>
 4    1  0.4199481E+000  0.2213021E+03  0.7546771E-02  0.1132916E+00
         21   -1    0    0  501  502  0.00000000000E+00  0.00000000000E+00  0.47471164402E+03  0.47471164402E+03  0.00000000000E+00 0. -1.
         21   -1    0    0  502  503 -0.00000000000E+00 -0.00000000000E+00 -0.10889277494E+03  0.10889277494E+03  0.00000000000E+00 0.  1.
          6    1    1    2  501    0  0.13791772665E+03  0.49294573715E+01  0.24982148938E+03  0.33374447626E+03  0.17300000000E+03 0. -1.
         -6    1    1    2    0  503 -0.13791772665E+03 -0.49294573715E+01  0.11599737970E+03  0.24985994271E+03  0.17300000000E+03 0.  1.
<mgrwt>
<rscale>  2 0.22130205E+03</rscale>
<asrwt>0</asrwt>
<pdfrwt beam="1">  1       21 0.73032560E-01 0.22130205E+03</pdfrwt>
<pdfrwt beam="2">  1       21 0.16752735E-01 0.22130205E+03</pdfrwt>
<totfact> 0.53334979E+04</totfact>
</mgrwt>
</event>
<event>
 4    1  0.4199481E+000  0.1758766E+03  0.7546771E-02  0.1171854E+00
         21   -1    0    0  501  502  0.00000000000E+00  0.00000000000E+00  0.26611869624E+03  0.26611869624E+03  0.00000000000E+00 0.  1.
         21   -1    0    0  502  503 -0.00000000000E+00 -0.00000000000E+00 -0.12200115227E+03  0.12200115227E+03  0.00000000000E+00 0.  1.
          6    1    1    2  501    0  0.31179732797E+02  0.56049097217E+01  0.11424364425E+03  0.20972410687E+03  0.17300000000E+03 0. -1.
         -6    1    1    2    0  503 -0.31179732797E+02 -0.56049097217E+01  0.29873899726E+02  0.17839574164E+03  0.17300000000E+03 0. -1.
<mgrwt>
<rscale>  2 0.17587664E+03</rscale>
<asrwt>0</asrwt>
<pdfrwt beam="1">  1       21 0.40941338E-01 0.17587664E+03</pdfrwt>
<pdfrwt beam="2">  1       21 0.18769408E-01 0.17587664E+03</pdfrwt>
<totfact> 0.15011701E+05</totfact>
</mgrwt>
</event>
<event>
 4    1  0.4199481E+000  0.3055772E+03  0.7546771E-02  0.1082485E+00
         21   -1    0    0  501  502  0.00000000000E+00  0.00000000000E+00  0.39021872598E+03  0.39021872598E+03  0.00000000000E+00 0.  1.
         21   -1    0    0  502  503 -0.00000000000E+00 -0.00000000000E+00 -0.23953371911E+03  0.23953371911E+03  0.00000000000E+00 0.  1.
          6    1    1    2  501    0  0.12650661459E+03 -0.21781752526E+03  0.65402605654E+02  0.31249783787E+03  0.17300000000E+03 0.  1.
         -6    1    1    2    0  503 -0.12650661459E+03  0.21781752526E+03  0.85282401219E+02  0.31725460722E+03  0.17300000000E+03 0.  1.
<mgrwt>
<rscale>  2 0.30557716E+03</rscale>
<asrwt>0</asrwt>
<pdfrwt beam="1">  1       21 0.60033650E-01 0.30557716E+03</pdfrwt>
<pdfrwt beam="2">  1       21 0.36851341E-01 0.30557716E+03</pdfrwt>
<totfact> 0.17366417E+04</totfact>
</mgrwt>
</event>
<event>
 4    1  0.4199481E+000  0.1826275E+03  0.7546771E-02  0.1165284E+00
         21   -1    0    0  501  502  0.00000000000E+00  0.00000000000E+00  0.37224896273E+03  0.37224896273E+03  0.00000000000E+00 0.  1.
         21   -1    0    0  502  503 -0.00000000000E+00 -0.00000000000E+00 -0.92629278897E+02  0.92629278897E+02  0.00000000000E+00 0. -1.
          6    1    1    2  501    0 -0.57173051488E+02  0.12451664667E+02  0.97762312269E+02  0.20714794585E+03  0.17300000000E+03 0. -1.
         -6    1    1    2    0  503  0.57173051488E+02 -0.12451664667E+02  0.18185737156E+03  0.25773029578E+03  0.17300000000E+03 0.  1.
<mgrwt>
<rscale>  2 0.18262749E+03</rscale>
<asrwt>0</asrwt>
<pdfrwt beam="1">  1       21 0.57269070E-01 0.18262749E+03</pdfrwt>
<pdfrwt beam="2">  1       21 0.14250658E-01 0.18262749E+03</pdfrwt>
<totfact> 0.12369573E+05</totfact>
</mgrwt>
</event>
<event>
 4    1  0.4199481E+000  0.2643772E+03  0.7546771E-02  0.1104541E+00
         21   -1    0    0  501  502  0.00000000000E+00  0.00000000000E+00  0.12847343327E+04  0.12847343327E+04  0.00000000000E+00 0.  1.
         21   -1    0    0  502  503 -0.00000000000E+00 -0.00000000000E+00 -0.76001051725E+02  0.76001051725E+02  0.00000000000E+00 0.  1.
          6    1    1    2  501    0  0.19296531847E+03 -0.52255996248E+02  0.96704888079E+03  0.10025362044E+04  0.17300000000E+03 0.  1.
         -6    1    1    2    0  503 -0.19296531847E+03  0.52255996248E+02  0.24168440015E+03  0.35819918000E+03  0.17300000000E+03 0.  1.
<mgrwt>
<rscale>  2 0.26437720E+03</rscale>
<asrwt>0</asrwt>
<pdfrwt beam="1">  1       21 0.19765142E+00 0.26437720E+03</pdfrwt>
<pdfrwt beam="2">  1       21 0.11692470E-01 0.26437720E+03</pdfrwt>
<totfact> 0.80978571E+03</totfact>
</mgrwt>
</event>
<event>
 4    1  0.4199481E+000  0.2130475E+03  0.7546771E-02  0.1139175E+00
         21   -1    0    0  501  502  0.00000000000E+00  0.00000000000E+00  0.59102448130E+02  0.59102448130E+02  0.00000000000E+00 0. -1.
         21   -1    0    0  502  503 -0.00000000000E+00 -0.00000000000E+00 -0.79712884188E+03  0.79712884188E+03  0.00000000000E+00 0.  1.
          6    1    1    2  501    0  0.82050070731E+02 -0.93423993557E+02 -0.28714072187E+03  0.35754587235E+03  0.17300000000E+03 0.  1.
         -6    1    1    2    0  503 -0.82050070731E+02  0.93423993557E+02 -0.45088567188E+03  0.49868541766E+03  0.17300000000E+03 0.  1.
<mgrwt>
<rscale>  2 0.21304755E+03</rscale>
<asrwt>0</asrwt>
<pdfrwt beam="1">  1       21 0.90926846E-02 0.21304755E+03</pdfrwt>
<pdfrwt beam="2">  1       21 0.12263520E+00 0.21304755E+03</pdfrwt>
<totfact> 0.47485153E+04</totfact>
</mgrwt>
</event>
<event>
 4    1  0.4199481E+000  0.5965772E+03  0.7546771E-02  0.9912533E-01
         21   -1    0    0  503  502  0.00000000000E+00  0.00000000000E+00  0.84370587745E+03  0.84370587745E+03  0.00000000000E+00 0.  1.
         21   -1    0    0  501  503 -0.00000000000E+00 -0.00000000000E+00 -0.54358576036E+03  0.54358576036E+03  0.00000000000E+00 0. -1.
          6    1    1    2  501    0 -0.51978858855E+03  0.23621002889E+03 -0.17821678013E+03  0.62262795894E+03  0.17300000000E+03 0. -1.
         -6    1    1    2    0  502  0.51978858855E+03 -0.23621002889E+03  0.47833689722E+03  0.76466367886E+03  0.17300000000E+03 0.  1.
<mgrwt>
<rscale>  2 0.59657720E+03</rscale>
<asrwt>0</asrwt>
<pdfrwt beam="1">  1       21 0.12980090E+00 0.59657720E+03</pdfrwt>
<pdfrwt beam="2">  1       21 0.83628578E-01 0.59657720E+03</pdfrwt>
<totfact> 0.42435204E+02</totfact>
</mgrwt>
</event>
<event>
 4    1  0.4199481E+000  0.1826346E+03  0.7546771E-02  0.1165277E+00
         21   -1    0    0  501  502  0.00000000000E+00  0.00000000000E+00  0.33200895504E+03  0.33200895504E+03  0.00000000000E+00 0. -1.
         21   -1    0    0  502  503 -0.00000000000E+00 -0.00000000000E+00 -0.10166007988E+03  0.10166007988E+03  0.00000000000E+00 0. -1.
          6    1    1    2  501    0  0.55866613199E+02  0.17473799405E+02  0.13868046043E+03  0.22932004326E+03  0.17300000000E+03 0. -1.
         -6    1    1    2    0  503 -0.55866613199E+02 -0.17473799405E+02  0.91668414728E+02  0.20434899167E+03  0.17300000000E+03 0. -1.
<mgrwt>
<rscale>  2 0.18263464E+03</rscale>
<asrwt>0</asrwt>
<pdfrwt beam="1">  1       21 0.51078300E-01 0.18263464E+03</pdfrwt>
<pdfrwt beam="2">  1       21 0.15640012E-01 0.18263464E+03</pdfrwt>
<totfact> 0.13292472E+05</totfact>
</mgrwt>
</event>
<event>
 4    1  0.4199481E+000  0.1761968E+03  0.7546771E-02  0.1171535E+00
         21   -1    0    0  501  502  0.00000000000E+00  0.00000000000E+00  0.24333498689E+03  0.24333498689E+03  0.00000000000E+00 0. -1.
         21   -1    0    0  502  503 -0.00000000000E+00 -0.00000000000E+00 -0.13026547226E+03  0.13026547226E+03  0.00000000000E+00 0. -1.
          6    1    1    2  501    0 -0.30675564042E+02  0.13240448918E+02  0.29726643203E+02  0.17868680151E+03  0.17300000000E+03 0. -1.
         -6    1    1    2    0  503  0.30675564042E+02 -0.13240448918E+02  0.83342871422E+02  0.19491365764E+03  0.17300000000E+03 0. -1.
<mgrwt>
<rscale>  2 0.17619676E+03</rscale>
<asrwt>0</asrwt>
<pdfrwt beam="1">  1       21 0.37436152E-01 0.17619676E+03</pdfrwt>
<pdfrwt beam="2">  1       21 0.20040842E-01 0.17619676E+03</pdfrwt>
<totfact> 0.15907057E+05</totfact>
</mgrwt>
</event>
<event>
 4    1  0.4199481E+000  0.1886946E+03  0.7546771E-02  0.1159644E+00
         21   -1    0    0  503  502  0.00000000000E+00  0.00000000000E+00  0.15633103110E+03  0.15633103110E+03  0.00000000000E+00 0.  1.
         21   -1    0    0  501  503 -0.00000000000E+00 -0.00000000000E+00 -0.23259456953E+03  0.23259456953E+03  0.00000000000E+00 0.  1.
          6    1    1    2  501    0 -0.70334875336E+02 -0.27012514504E+02 -0.66173029425E+02  0.19996134739E+03  0.17300000000E+03 0.  1.
         -6    1    1    2    0  502  0.70334875336E+02  0.27012514504E+02 -0.10090509003E+02  0.18896425323E+03  0.17300000000E+03 0.  1.
<mgrwt>
<rscale>  2 0.18869465E+03</rscale>
<asrwt>0</asrwt>
<pdfrwt beam="1">  1       21 0.24050928E-01 0.18869465E+03</pdfrwt>
<pdfrwt beam="2">  1       21 0.35783780E-01 0.18869465E+03</pdfrwt>
<totfact> 0.12296239E+05</totfact>
</mgrwt>
</event>
<event>
 4    1  0.4199481E+000  0.1971199E+03  0.7546771E-02  0.1152192E+00
         21   -1    0    0  501  502  0.00000000000E+00  0.00000000000E+00  0.60637367307E+02  0.60637367307E+02  0.00000000000E+00 0.  1.
         21   -1    0    0  502  503 -0.00000000000E+00 -0.00000000000E+00 -0.65514564194E+03  0.65514564194E+03  0.00000000000E+00 0. -1.
          6    1    1    2  501    0 -0.93881981837E+02  0.10650961686E+02 -0.24429007823E+03  0.31390111790E+03  0.17300000000E+03 0. -1.
         -6    1    1    2    0  503  0.93881981837E+02 -0.10650961686E+02 -0.35021819640E+03  0.40188189134E+03  0.17300000000E+03 0. -1.
<mgrwt>
<rscale>  2 0.19711994E+03</rscale>
<asrwt>0</asrwt>
<pdfrwt beam="1">  1       21 0.93288261E-02 0.19711994E+03</pdfrwt>
<pdfrwt beam="2">  1       21 0.10079163E+00 0.19711994E+03</pdfrwt>
<totfact> 0.73742404E+04</totfact>
</mgrwt>
</event>
<event>
 4    1  0.4199481E+000  0.1822147E+03  0.7546771E-02  0.1165677E+00
         21   -1    0    0  501  502  0.00000000000E+00  0.00000000000E+00  0.70386114517E+03  0.70386114517E+03  0.00000000000E+00 0.  1.
         21   -1    0    0  502  503 -0.00000000000E+00 -0.00000000000E+00 -0.95559698458E+02  0.95559698458E+02  0.00000000000E+00 0.  1.
          6    1    1    2  501    0 -0.54120758824E+02 -0.18550999146E+02  0.58858226083E+03  0.61614225133E+03  0.17300000000E+03 0.  1.
         -6    1    1    2    0  503  0.54120758824E+02  0.18550999146E+02  0.19719185884E+02  0.18327859230E+03  0.17300000000E+03 0.  1.
<mgrwt>
<rscale>  2 0.18221470E+03</rscale>
<asrwt>0</asrwt>
<pdfrwt beam="1">  1       21 0.10828633E+00 0.18221470E+03</pdfrwt>
<pdfrwt beam="2">  1       21 0.14701493E-01 0.18221470E+03</pdfrwt>
<totfact> 0.27770401E+04</totfact>
</mgrwt>
</event>
<event>
 4    1  0.4199481E+000  0.1826290E+03  0.7546771E-02  0.1165283E+00
         21   -1    0    0  503  502  0.00000000000E+00  0.00000000000E+00  0.22557025482E+03  0.22557025482E+03  0.00000000000E+00 0.  1.
         21   -1    0    0  501  503 -0.00000000000E+00 -0.00000000000E+00 -0.18390473072E+03  0.18390473072E+03  0.00000000000E+00 0.  1.
          6    1    1    2  501    0 -0.38819601476E+02  0.43787846517E+02 -0.69804746466E+02  0.19551480658E+03  0.17300000000E+03 0.  1.
         -6    1    1    2    0  502  0.38819601476E+02 -0.43787846517E+02  0.11147027057E+03  0.21396017897E+03  0.17300000000E+03 0.  1.
<mgrwt>
<rscale>  2 0.18262896E+03</rscale>
<asrwt>0</asrwt>
<pdfrwt beam="1">  1       21 0.34703116E-01 0.18262896E+03</pdfrwt>
<pdfrwt beam="2">  1       21 0.28293035E-01 0.18262896E+03</pdfrwt>
<totfact> 0.95930451E+04</totfact>
</mgrwt>
</event>
<event>
 4    1  0.4199481E+000  0.2004105E+03  0.7546771E-02  0.1149393E+00
         21   -1    0    0  501  502  0.00000000000E+00  0.00000000000E+00  0.30949646963E+03  0.30949646963E+03  0.00000000000E+00 0. -1.
         21   -1    0    0  502  503 -0.00000000000E+00 -0.00000000000E+00 -0.35642716669E+03  0.35642716669E+03  0.00000000000E+00 0. -1.
          6    1    1    2  501    0 -0.91966428769E+02  0.42161126103E+02  0.24205058111E+03  0.31424969116E+03  0.17300000000E+03 0. -1.
         -6    1    1    2    0  503  0.91966428769E+02 -0.42161126103E+02 -0.28898127818E+03  0.35167394517E+03  0.17300000000E+03 0. -1.
<mgrwt>
<rscale>  2 0.20041054E+03</rscale>
<asrwt>0</asrwt>
<pdfrwt beam="1">  1       21 0.47614841E-01 0.20041054E+03</pdfrwt>
<pdfrwt beam="2">  1       21 0.54834949E-01 0.20041054E+03</pdfrwt>
<totfact> 0.13172588E+04</totfact>
</mgrwt>
</event>
<event>
 4    1  0.4199481E+000  0.2368214E+03  0.7546771E-02  0.1121929E+00
         21   -1    0    0  503  502  0.00000000000E+00  0.00000000000E+00  0.11714559566E+03  0.11714559566E+03  0.00000000000E+00 0.  1.
         21   -1    0    0  501  503 -0.00000000000E+00 -0.00000000000E+00 -0.86343324035E+03  0.86343324035E+03  0.00000000000E+00 0.  1.
          6    1    1    2  501    0  0.15407148051E+03 -0.49166450779E+02 -0.70039815104E+03  0.73935237267E+03  0.17300000000E+03 0.  1.
         -6    1    1    2    0  502 -0.15407148051E+03  0.49166450779E+02 -0.45889493648E+02  0.24122646334E+03  0.17300000000E+03 0.  1.
<mgrwt>
<rscale>  2 0.23682137E+03</rscale>
<asrwt>0</asrwt>
<pdfrwt beam="1">  1       21 0.18022400E-01 0.23682137E+03</pdfrwt>
<pdfrwt beam="2">  1       21 0.13283588E+00 0.23682137E+03</pdfrwt>
<totfact> 0.11128775E+04</totfact>
</mgrwt>
</event>
<event>
 4    1  0.4199481E+000  0.4936193E+03  0.7546771E-02  0.1015458E+00
         21   -1    0    0  501  502  0.00000000000E+00  0.00000000000E+00  0.10458080133E+04  0.10458080133E+04  0.00000000000E+00 0. -1.
         21   -1    0    0  502  503 -0.00000000000E+00 -0.00000000000E+00 -0.38056409384E+03  0.38056409384E+03  0.00000000000E+00 0.  1.
          6    1    1    2  501    0 -0.44544314424E+03  0.12373921749E+03  0.77673954265E+03  0.92031750272E+03  0.17300000000E+03 0. -1.
         -6    1    1    2    0  503  0.44544314424E+03 -0.12373921749E+03 -0.11149562317E+03  0.50605460445E+03  0.17300000000E+03 0.  1.
<mgrwt>
<rscale>  2 0.49361928E+03</rscale>
<asrwt>0</asrwt>
<pdfrwt beam="1">  1       21 0.16089354E+00 0.49361928E+03</pdfrwt>
<pdfrwt beam="2">  1       21 0.58548323E-01 0.49361928E+03</pdfrwt>
<totfact> 0.55333355E+02</totfact>
</mgrwt>
</event>
<event>
 4    1  0.4199481E+000  0.1884703E+03  0.7546771E-02  0.1159848E+00
         21   -1    0    0  503  502  0.00000000000E+00  0.00000000000E+00  0.85749652761E+02  0.85749652761E+02  0.00000000000E+00 0. -1.
         21   -1    0    0  501  503 -0.00000000000E+00 -0.00000000000E+00 -0.47283248389E+03  0.47283248389E+03  0.00000000000E+00 0. -1.
          6    1    1    2  501    0  0.36562055799E+02  0.65232497383E+02 -0.29185621167E+03  0.34742065415E+03  0.17300000000E+03 0. -1.
         -6    1    1    2    0  502 -0.36562055799E+02 -0.65232497383E+02 -0.95226619461E+02  0.21116148250E+03  0.17300000000E+03 0. -1.
<mgrwt>
<rscale>  2 0.18847032E+03</rscale>
<asrwt>0</asrwt>
<pdfrwt beam="1">  1       21 0.13192254E-01 0.18847032E+03</pdfrwt>
<pdfrwt beam="2">  1       21 0.72743459E-01 0.18847032E+03</pdfrwt>
<totfact> 0.84392779E+04</totfact>
</mgrwt>
</event>
<event>
 4    1  0.4199481E+000  0.2209434E+03  0.7546771E-02  0.1133182E+00
         21   -1    0    0  503  502  0.00000000000E+00  0.00000000000E+00  0.31598703501E+03  0.31598703501E+03  0.00000000000E+00 0. -1.
         21   -1    0    0  501  503 -0.00000000000E+00 -0.00000000000E+00 -0.15537606738E+03  0.15537606738E+03  0.00000000000E+00 0.  1.
          6    1    1    2  501    0 -0.14351881734E+01 -0.13742237936E+03  0.62480127597E+02  0.22960778832E+03  0.17300000000E+03 0. -1.
         -6    1    1    2    0  502  0.14351881734E+01  0.13742237936E+03  0.98130840034E+02  0.24175531407E+03  0.17300000000E+03 0.  1.
<mgrwt>
<rscale>  2 0.22094336E+03</rscale>
<asrwt>0</asrwt>
<pdfrwt beam="1">  1       21 0.48613390E-01 0.22094336E+03</pdfrwt>
<pdfrwt beam="2">  1       21 0.23904010E-01 0.22094336E+03</pdfrwt>
<totfact> 0.65821534E+04</totfact>
</mgrwt>
</event>
<event>
 4    1  0.4199481E+000  0.1790999E+03  0.7546771E-02  0.1168677E+00
         21   -1    0    0  501  502  0.00000000000E+00  0.00000000000E+00  0.24436994693E+03  0.24436994693E+03  0.00000000000E+00 0.  1.
         21   -1    0    0  502  503 -0.00000000000E+00 -0.00000000000E+00 -0.14658218848E+03  0.14658218848E+03  0.00000000000E+00 0.  1.
          6    1    1    2  501    0 -0.45687167333E+02  0.77757875304E+01 -0.14298993856E+02  0.17966981203E+03  0.17300000000E+03 0.  1.
         -6    1    1    2    0  503  0.45687167333E+02 -0.77757875304E+01  0.11208675230E+03  0.21128232338E+03  0.17300000000E+03 0.  1.
<mgrwt>
<rscale>  2 0.17909992E+03</rscale>
<asrwt>0</asrwt>
<pdfrwt beam="1">  1       21 0.37595376E-01 0.17909992E+03</pdfrwt>
<pdfrwt beam="2">  1       21 0.22551106E-01 0.17909992E+03</pdfrwt>
<totfact> 0.12629426E+05</totfact>
</mgrwt>
</event>
<event>
 4    1  0.4199481E+000  0.2297067E+03  0.7546771E-02  0.1126846E+00
         21   -1    0    0  501  502  0.00000000000E+00  0.00000000000E+00  0.75843344563E+03  0.75843344563E+03  0.00000000000E+00 0.  1.
         21   -1    0    0  502  503 -0.00000000000E+00 -0.00000000000E+00 -0.25262638152E+03  0.25262638152E+03  0.00000000000E+00 0.  1.
          6    1    1    2  501    0 -0.13689614272E+03 -0.63997020350E+02  0.68323038466E+03  0.72081130057E+03  0.17300000000E+03 0.  1.
         -6    1    1    2    0  503  0.13689614272E+03  0.63997020350E+02 -0.17742332056E+03  0.29024852658E+03  0.17300000000E+03 0.  1.
<mgrwt>
<rscale>  2 0.22970671E+03</rscale>
<asrwt>0</asrwt>
<pdfrwt beam="1">  1       21 0.11668207E+00 0.22970671E+03</pdfrwt>
<pdfrwt beam="2">  1       21 0.38865597E-01 0.22970671E+03</pdfrwt>
<totfact> 0.35062478E+03</totfact>
</mgrwt>
</event>
