<event>
 4    1  0.4072310E+000  0.1807446E+03  0.7546771E-02  0.1167084E+00
         21   -1    0    0  503  502  0.00000000000E+00  0.00000000000E+00  0.12626426920E+03  0.12626426920E+03  0.00000000000E+00 0. -1.
         21   -1    0    0  501  503 -0.00000000000E+00 -0.00000000000E+00 -0.26377879095E+03  0.26377879095E+03  0.00000000000E+00 0. -1.
          6    1    1    2  501    0 -0.45977178215E+02 -0.25014414808E+02 -0.95732492393E+02  0.20453198274E+03  0.17300000000E+03 0. -1.
         -6    1    1    2    0  502  0.45977178215E+02  0.25014414808E+02 -0.41782029358E+02  0.18551107741E+03  0.17300000000E+03 0. -1.
<mgrwt>
<rscale>  2 0.18074463E+03</rscale>
<asrwt>0</asrwt>
<pdfrwt beam="1">  1       21 0.19425272E-01 0.18074463E+03</pdfrwt>
<pdfrwt beam="2">  1       21 0.40581352E-01 0.18074463E+03</pdfrwt>
<totfact> 0.14314871E+05</totfact>
</mgrwt>
</event>
<event>
 4    1  0.4072310E+000  0.1897420E+03  0.7546771E-02  0.1158694E+00
         21   -1    0    0  501  502  0.00000000000E+00  0.00000000000E+00  0.70299820184E+03  0.70299820184E+03  0.00000000000E+00 0. -1.
         21   -1    0    0  502  503 -0.00000000000E+00 -0.00000000000E+00 -0.66856013886E+02  0.66856013886E+02  0.00000000000E+00 0. -1.
          6    1    1    2  501    0  0.77823467740E+02  0.40663066947E+01  0.50427153838E+03  0.53878735267E+03  0.17300000000E+03 0. -1.
         -6    1    1    2    0  503 -0.77823467740E+02 -0.40663066947E+01  0.13187064957E+03  0.23106686305E+03  0.17300000000E+03 0. -1.
<mgrwt>
<rscale>  2 0.18974200E+03</rscale>
<asrwt>0</asrwt>
<pdfrwt beam="1">  1       21 0.10815356E+00 0.18974200E+03</pdfrwt>
<pdfrwt beam="2">  1       21 0.10285541E-01 0.18974200E+03</pdfrwt>
<totfact> 0.52605072E+04</totfact>
</mgrwt>
</event>
<event>
 4    1  0.4072310E+000  0.2033772E+03  0.7546771E-02  0.1146921E+00
         21   -1    0    0  503  502  0.00000000000E+00  0.00000000000E+00  0.27607412521E+03  0.27607412521E+03  0.00000000000E+00 0.  1.
         21   -1    0    0  501  503 -0.00000000000E+00 -0.00000000000E+00 -0.19909964996E+03  0.19909964996E+03  0.00000000000E+00 0.  1.
          6    1    1    2  501    0 -0.99620744893E+02  0.38845946130E+02 -0.79709928020E+02  0.21843986122E+03  0.17300000000E+03 0.  1.
         -6    1    1    2    0  502  0.99620744893E+02 -0.38845946130E+02  0.15668440327E+03  0.25673391395E+03  0.17300000000E+03 0.  1.
<mgrwt>
<rscale>  2 0.20337724E+03</rscale>
<asrwt>0</asrwt>
<pdfrwt beam="1">  1       21 0.42472942E-01 0.20337724E+03</pdfrwt>
<pdfrwt beam="2">  1       21 0.30630715E-01 0.20337724E+03</pdfrwt>
<totfact> 0.54292552E+04</totfact>
</mgrwt>
</event>
<event>
 4    1  0.4072310E+000  0.2086247E+03  0.7546771E-02  0.1142660E+00
         21   -1    0    0  503  502  0.00000000000E+00  0.00000000000E+00  0.71665523856E+03  0.71665523856E+03  0.00000000000E+00 0.  1.
         21   -1    0    0  501  503 -0.00000000000E+00 -0.00000000000E+00 -0.12623567428E+03  0.12623567428E+03  0.00000000000E+00 0.  1.
          6    1    1    2  501    0 -0.84236713463E+02  0.80619058982E+02 -0.83760730625E+01  0.20879275650E+03  0.17300000000E+03 0.  1.
         -6    1    1    2    0  502  0.84236713463E+02 -0.80619058982E+02  0.59879563735E+03  0.63409815634E+03  0.17300000000E+03 0.  1.
<mgrwt>
<rscale>  2 0.20862468E+03</rscale>
<asrwt>0</asrwt>
<pdfrwt beam="1">  1       21 0.11025465E+00 0.20862468E+03</pdfrwt>
<pdfrwt beam="2">  1       21 0.19420873E-01 0.20862468E+03</pdfrwt>
<totfact> 0.15671899E+04</totfact>
</mgrwt>
</event>
<event>
 4    1  0.4072310E+000  0.1738795E+03  0.7546771E-02  0.1173861E+00
         21   -1    0    0  503  502  0.00000000000E+00  0.00000000000E+00  0.15033475290E+04  0.15033475290E+04  0.00000000000E+00 0.  1.
         21   -1    0    0  501  503 -0.00000000000E+00 -0.00000000000E+00 -0.27821005963E+02  0.27821005963E+02  0.00000000000E+00 0.  1.
          6    1    1    2  501    0  0.13278905293E+02 -0.11346918815E+02  0.33474096214E+03  0.37720762668E+03  0.17300000000E+03 0.  1.
         -6    1    1    2    0  502 -0.13278905293E+02  0.11346918815E+02  0.11407855609E+04  0.11539609083E+04  0.17300000000E+03 0.  1.
<mgrwt>
<rscale>  2 0.17387950E+03</rscale>
<asrwt>0</asrwt>
<pdfrwt beam="1">  1       21 0.23128417E+00 0.17387950E+03</pdfrwt>
<pdfrwt beam="2">  1       21 0.42801559E-02 0.17387950E+03</pdfrwt>
<totfact> 0.30504019E+04</totfact>
</mgrwt>
</event>
<event>
 4    1  0.4072310E+000  0.2345944E+03  0.7546771E-02  0.1123447E+00
         21   -1    0    0  503  502  0.00000000000E+00  0.00000000000E+00  0.69247818445E+02  0.69247818445E+02  0.00000000000E+00 0. -1.
         21   -1    0    0  501  503 -0.00000000000E+00 -0.00000000000E+00 -0.87611944719E+03  0.87611944719E+03  0.00000000000E+00 0. -1.
          6    1    1    2  501    0 -0.61787420549E+02 -0.14590355867E+03 -0.54749008440E+03  0.59563405400E+03  0.17300000000E+03 0. -1.
         -6    1    1    2    0  502  0.61787420549E+02  0.14590355867E+03 -0.25938154435E+03  0.34973321163E+03  0.17300000000E+03 0. -1.
<mgrwt>
<rscale>  2 0.23459440E+03</rscale>
<asrwt>0</asrwt>
<pdfrwt beam="1">  1       21 0.10653511E-01 0.23459440E+03</pdfrwt>
<pdfrwt beam="2">  1       21 0.13478760E+00 0.23459440E+03</pdfrwt>
<totfact> 0.27924739E+04</totfact>
</mgrwt>
</event>
<event>
 4    1  0.4072310E+000  0.1756357E+03  0.7546771E-02  0.1172095E+00
         21   -1    0    0  503  502  0.00000000000E+00  0.00000000000E+00  0.24925627733E+02  0.24925627733E+02  0.00000000000E+00 0.  1.
         21   -1    0    0  501  503 -0.00000000000E+00 -0.00000000000E+00 -0.13552803284E+04  0.13552803284E+04  0.00000000000E+00 0.  1.
          6    1    1    2  501    0  0.44715662069E+01 -0.29981734634E+02 -0.86853266712E+03  0.88611336361E+03  0.17300000000E+03 0.  1.
         -6    1    1    2    0  502 -0.44715662069E+01  0.29981734634E+02 -0.46182203355E+03  0.49409259253E+03  0.17300000000E+03 0.  1.
<mgrwt>
<rscale>  2 0.17563570E+03</rscale>
<asrwt>0</asrwt>
<pdfrwt beam="1">  1       21 0.38347113E-02 0.17563570E+03</pdfrwt>
<pdfrwt beam="2">  1       21 0.20850470E+00 0.17563570E+03</pdfrwt>
<totfact> 0.50449919E+04</totfact>
</mgrwt>
</event>
<event>
 4    1  0.4072310E+000  0.2189711E+03  0.7546771E-02  0.1134652E+00
         21   -1    0    0  503  502  0.00000000000E+00  0.00000000000E+00  0.19959916443E+03  0.19959916443E+03  0.00000000000E+00 0. -1.
         21   -1    0    0  501  503 -0.00000000000E+00 -0.00000000000E+00 -0.46302912742E+03  0.46302912742E+03  0.00000000000E+00 0. -1.
          6    1    1    2  501    0 -0.12147499393E+03 -0.57124017431E+02 -0.36154105810E+03  0.42268222603E+03  0.17300000000E+03 0. -1.
         -6    1    1    2    0  502  0.12147499393E+03  0.57124017431E+02  0.98111095103E+02  0.23994606581E+03  0.17300000000E+03 0. -1.
<mgrwt>
<rscale>  2 0.21897107E+03</rscale>
<asrwt>0</asrwt>
<pdfrwt beam="1">  1       21 0.30707564E-01 0.21897107E+03</pdfrwt>
<pdfrwt beam="2">  1       21 0.71235250E-01 0.21897107E+03</pdfrwt>
<totfact> 0.17866839E+04</totfact>
</mgrwt>
</event>
<event>
 4    1  0.4072310E+000  0.1924793E+03  0.7546771E-02  0.1156244E+00
         21   -1    0    0  501  502  0.00000000000E+00  0.00000000000E+00  0.48671737264E+03  0.48671737264E+03  0.00000000000E+00 0.  1.
         21   -1    0    0  502  503 -0.00000000000E+00 -0.00000000000E+00 -0.14212562690E+03  0.14212562690E+03  0.00000000000E+00 0.  1.
          6    1    1    2  501    0  0.37509742131E+02  0.75579796858E+02  0.38657054732E+03  0.43183917666E+03  0.17300000000E+03 0.  1.
         -6    1    1    2    0  503 -0.37509742131E+02 -0.75579796858E+02 -0.41978801578E+02  0.19700382288E+03  0.17300000000E+03 0.  1.
<mgrwt>
<rscale>  2 0.19247931E+03</rscale>
<asrwt>0</asrwt>
<pdfrwt beam="1">  1       21 0.74879595E-01 0.19247931E+03</pdfrwt>
<pdfrwt beam="2">  1       21 0.21865481E-01 0.19247931E+03</pdfrwt>
<totfact> 0.31163564E+04</totfact>
</mgrwt>
</event>
<event>
 4    1  0.4072310E+000  0.1835236E+03  0.7546771E-02  0.1164436E+00
         21   -1    0    0  503  502  0.00000000000E+00  0.00000000000E+00  0.16007202962E+04  0.16007202962E+04  0.00000000000E+00 0.  1.
         21   -1    0    0  501  503 -0.00000000000E+00 -0.00000000000E+00 -0.24446737118E+02  0.24446737118E+02  0.00000000000E+00 0.  1.
          6    1    1    2  501    0  0.54747704022E+02 -0.27470093564E+02  0.48484775790E+03  0.51841900570E+03  0.17300000000E+03 0.  1.
         -6    1    1    2    0  502 -0.54747704022E+02  0.27470093564E+02  0.10914258012E+04  0.11067480276E+04  0.17300000000E+03 0.  1.
<mgrwt>
<rscale>  2 0.18352361E+03</rscale>
<asrwt>0</asrwt>
<pdfrwt beam="1">  1       21 0.24626458E+00 0.18352361E+03</pdfrwt>
<pdfrwt beam="2">  1       21 0.37610377E-02 0.18352361E+03</pdfrwt>
<totfact> 0.30618478E+04</totfact>
</mgrwt>
</event>
<event>
 4    1  0.4072310E+000  0.1756651E+03  0.7546771E-02  0.1172066E+00
         21   -1    0    0  503  502  0.00000000000E+00  0.00000000000E+00  0.26756418900E+03  0.26756418900E+03  0.00000000000E+00 0. -1.
         21   -1    0    0  501  503 -0.00000000000E+00 -0.00000000000E+00 -0.20135393118E+03  0.20135393118E+03  0.00000000000E+00 0. -1.
          6    1    1    2  501    0 -0.22444580803E+02 -0.20626668537E+02 -0.12014336723E+03  0.21282069296E+03  0.17300000000E+03 0. -1.
         -6    1    1    2    0  502  0.22444580803E+02  0.20626668537E+02  0.18635362505E+03  0.25609742723E+03  0.17300000000E+03 0. -1.
<mgrwt>
<rscale>  2 0.17566508E+03</rscale>
<asrwt>0</asrwt>
<pdfrwt beam="1">  1       21 0.41163722E-01 0.17566508E+03</pdfrwt>
<pdfrwt beam="2">  1       21 0.30977528E-01 0.17566508E+03</pdfrwt>
<totfact> 0.57333221E+04</totfact>
</mgrwt>
</event>
<event>
 4    1  0.4072310E+000  0.3636765E+03  0.7546771E-02  0.1057138E+00
         21   -1    0    0  501  502  0.00000000000E+00  0.00000000000E+00  0.29093048415E+03  0.29093048415E+03  0.00000000000E+00 0.  1.
         21   -1    0    0  502  503 -0.00000000000E+00 -0.00000000000E+00 -0.48782188456E+03  0.48782188456E+03  0.00000000000E+00 0. -1.
          6    1    1    2  501    0 -0.24930610612E+03  0.20044463726E+03  0.31488069543E+01  0.36369011829E+03  0.17300000000E+03 0.  1.
         -6    1    1    2    0  503  0.24930610612E+03 -0.20044463726E+03 -0.20004020737E+03  0.41506225042E+03  0.17300000000E+03 0. -1.
<mgrwt>
<rscale>  2 0.36367649E+03</rscale>
<asrwt>0</asrwt>
<pdfrwt beam="1">  1       21 0.44758537E-01 0.36367649E+03</pdfrwt>
<pdfrwt beam="2">  1       21 0.75049520E-01 0.36367649E+03</pdfrwt>
<totfact> 0.69391126E+03</totfact>
</mgrwt>
</event>
<event>
 4    1  0.4072310E+000  0.1821313E+03  0.7546771E-02  0.1165756E+00
         21   -1    0    0  503  502  0.00000000000E+00  0.00000000000E+00  0.49537556831E+03  0.49537556831E+03  0.00000000000E+00 0.  1.
         21   -1    0    0  501  503 -0.00000000000E+00 -0.00000000000E+00 -0.93229457159E+02  0.93229457159E+02  0.00000000000E+00 0.  1.
          6    1    1    2  501    0  0.55499396047E+02  0.12752688495E+02  0.44859586111E+02  0.18757450917E+03  0.17300000000E+03 0.  1.
         -6    1    1    2    0  502 -0.55499396047E+02 -0.12752688495E+02  0.35728652505E+03  0.40103051630E+03  0.17300000000E+03 0.  1.
<mgrwt>
<rscale>  2 0.18213131E+03</rscale>
<asrwt>0</asrwt>
<pdfrwt beam="1">  1       21 0.76211625E-01 0.18213131E+03</pdfrwt>
<pdfrwt beam="2">  1       21 0.14342994E-01 0.18213131E+03</pdfrwt>
<totfact> 0.65584474E+04</totfact>
</mgrwt>
</event>
<event>
 4    1  0.4072310E+000  0.1868243E+03  0.7546771E-02  0.1161357E+00
         21   -1    0    0  503  502  0.00000000000E+00  0.00000000000E+00  0.40363887677E+03  0.40363887677E+03  0.00000000000E+00 0. -1.
         21   -1    0    0  501  503 -0.00000000000E+00 -0.00000000000E+00 -0.91186550455E+02  0.91186550455E+02  0.00000000000E+00 0.  1.
          6    1    1    2  501    0 -0.54399416377E+02 -0.44888922014E+02  0.99966933707E+02  0.21188841322E+03  0.17300000000E+03 0.  1.
         -6    1    1    2    0  502  0.54399416377E+02  0.44888922014E+02  0.21248539260E+03  0.28293701400E+03  0.17300000000E+03 0. -1.
<mgrwt>
<rscale>  2 0.18682428E+03</rscale>
<asrwt>0</asrwt>
<pdfrwt beam="1">  1       21 0.62098288E-01 0.18682428E+03</pdfrwt>
<pdfrwt beam="2">  1       21 0.14028700E-01 0.18682428E+03</pdfrwt>
<totfact> 0.10683182E+05</totfact>
</mgrwt>
</event>
<event>
 4    1  0.4072310E+000  0.2026942E+03  0.7546771E-02  0.1147486E+00
         21   -1    0    0  503  502  0.00000000000E+00  0.00000000000E+00  0.27844630154E+02  0.27844630154E+02  0.00000000000E+00 0. -1.
         21   -1    0    0  501  503 -0.00000000000E+00 -0.00000000000E+00 -0.15497029260E+04  0.15497029260E+04  0.00000000000E+00 0. -1.
          6    1    1    2  501    0  0.52195508873E+02 -0.91823463356E+02 -0.93352133010E+03  0.95527325584E+03  0.17300000000E+03 0. -1.
         -6    1    1    2    0  502 -0.52195508873E+02  0.91823463356E+02 -0.58833696574E+03  0.62227430031E+03  0.17300000000E+03 0. -1.
<mgrwt>
<rscale>  2 0.20269415E+03</rscale>
<asrwt>0</asrwt>
<pdfrwt beam="1">  1       21 0.42837895E-02 0.20269415E+03</pdfrwt>
<pdfrwt beam="2">  1       21 0.23841582E+00 0.20269415E+03</pdfrwt>
<totfact> 0.26973721E+04</totfact>
</mgrwt>
</event>
<event>
 4    1  0.4072310E+000  0.1899498E+03  0.7546771E-02  0.1158507E+00
         21   -1    0    0  503  502  0.00000000000E+00  0.00000000000E+00  0.66496733493E+02  0.66496733493E+02  0.00000000000E+00 0.  1.
         21   -1    0    0  501  503 -0.00000000000E+00 -0.00000000000E+00 -0.58749536230E+03  0.58749536230E+03  0.00000000000E+00 0.  1.
          6    1    1    2  501    0  0.63434580414E+02 -0.46129851369E+02 -0.35089691616E+03  0.39901072035E+03  0.17300000000E+03 0. -1.
         -6    1    1    2    0  502 -0.63434580414E+02  0.46129851369E+02 -0.17010171264E+03  0.25498137545E+03  0.17300000000E+03 0. -1.
<mgrwt>
<rscale>  2 0.18994975E+03</rscale>
<asrwt>0</asrwt>
<pdfrwt beam="1">  1       21 0.10230267E-01 0.18994975E+03</pdfrwt>
<pdfrwt beam="2">  1       21 0.90383901E-01 0.18994975E+03</pdfrwt>
<totfact> 0.81178932E+04</totfact>
</mgrwt>
</event>
<event>
 4    1  0.4072310E+000  0.2215924E+03  0.7546771E-02  0.1132701E+00
         21   -1    0    0  503  502  0.00000000000E+00  0.00000000000E+00  0.28357279692E+03  0.28357279692E+03  0.00000000000E+00 0.  1.
         21   -1    0    0  501  503 -0.00000000000E+00 -0.00000000000E+00 -0.41879185183E+03  0.41879185183E+03  0.00000000000E+00 0. -1.
          6    1    1    2  501    0  0.93072267123E+02  0.10252676115E+03 -0.33656275306E+03  0.40296112766E+03  0.17300000000E+03 0.  1.
         -6    1    1    2    0  502 -0.93072267123E+02 -0.10252676115E+03  0.20134369814E+03  0.29940352109E+03  0.17300000000E+03 0.  1.
<mgrwt>
<rscale>  2 0.22159238E+03</rscale>
<asrwt>0</asrwt>
<pdfrwt beam="1">  1       21 0.43626584E-01 0.22159238E+03</pdfrwt>
<pdfrwt beam="2">  1       21 0.64429516E-01 0.22159238E+03</pdfrwt>
<totfact> 0.11008016E+04</totfact>
</mgrwt>
</event>
<event>
 4    1  0.4072310E+000  0.2418150E+03  0.7546771E-02  0.1118590E+00
         21   -1    0    0  501  502  0.00000000000E+00  0.00000000000E+00  0.44810040872E+03  0.44810040872E+03  0.00000000000E+00 0.  1.
         21   -1    0    0  502  503 -0.00000000000E+00 -0.00000000000E+00 -0.16851799223E+03  0.16851799223E+03  0.00000000000E+00 0.  1.
          6    1    1    2  501    0  0.66880323585E+02 -0.15515326580E+03  0.28624173685E+03  0.37471168315E+03  0.17300000000E+03 0.  1.
         -6    1    1    2    0  503 -0.66880323585E+02  0.15515326580E+03 -0.66593203550E+01  0.24190671780E+03  0.17300000000E+03 0.  1.
<mgrwt>
<rscale>  2 0.24181504E+03</rscale>
<asrwt>0</asrwt>
<pdfrwt beam="1">  1       21 0.68938524E-01 0.24181504E+03</pdfrwt>
<pdfrwt beam="2">  1       21 0.25925845E-01 0.24181504E+03</pdfrwt>
<totfact> 0.26381673E+04</totfact>
</mgrwt>
</event>
<event>
 4    1  0.4072310E+000  0.2004033E+03  0.7546771E-02  0.1149399E+00
         21   -1    0    0  501  502  0.00000000000E+00  0.00000000000E+00  0.16068620870E+03  0.16068620870E+03  0.00000000000E+00 0.  1.
         21   -1    0    0  502  503 -0.00000000000E+00 -0.00000000000E+00 -0.25282468861E+03  0.25282468861E+03  0.00000000000E+00 0.  1.
          6    1    1    2  501    0  0.91369909438E+02 -0.43405457684E+02 -0.23974346840E+02  0.20183226554E+03  0.17300000000E+03 0.  1.
         -6    1    1    2    0  503 -0.91369909438E+02  0.43405457684E+02 -0.68164133068E+02  0.21167863176E+03  0.17300000000E+03 0.  1.
<mgrwt>
<rscale>  2 0.20040333E+03</rscale>
<asrwt>0</asrwt>
<pdfrwt beam="1">  1       21 0.24720955E-01 0.20040333E+03</pdfrwt>
<pdfrwt beam="2">  1       21 0.38896106E-01 0.20040333E+03</pdfrwt>
<totfact> 0.98313263E+04</totfact>
</mgrwt>
</event>
<event>
 4    1  0.4072310E+000  0.1775110E+03  0.7546771E-02  0.1170234E+00
         21   -1    0    0  501  502  0.00000000000E+00  0.00000000000E+00  0.20973138426E+03  0.20973138426E+03  0.00000000000E+00 0.  1.
         21   -1    0    0  502  503 -0.00000000000E+00 -0.00000000000E+00 -0.15024487399E+03  0.15024487399E+03  0.00000000000E+00 0.  1.
          6    1    1    2  501    0  0.10836684014E+02  0.38258416625E+02  0.30718556050E+02  0.18014929877E+03  0.17300000000E+03 0.  1.
         -6    1    1    2    0  503 -0.10836684014E+02 -0.38258416625E+02  0.28767954220E+02  0.17982695947E+03  0.17300000000E+03 0.  1.
<mgrwt>
<rscale>  2 0.17751096E+03</rscale>
<asrwt>0</asrwt>
<pdfrwt beam="1">  1       21 0.32266367E-01 0.17751096E+03</pdfrwt>
<pdfrwt beam="2">  1       21 0.23114596E-01 0.17751096E+03</pdfrwt>
<totfact> 0.16323579E+05</totfact>
</mgrwt>
</event>
<event>
 4    1  0.4072310E+000  0.3130207E+03  0.7546771E-02  0.1078907E+00
         21   -1    0    0  501  502  0.00000000000E+00  0.00000000000E+00  0.81657417574E+02  0.81657417574E+02  0.00000000000E+00 0. -1.
         21   -1    0    0  502  503 -0.00000000000E+00 -0.00000000000E+00 -0.18784909968E+04  0.18784909968E+04  0.00000000000E+00 0.  1.
          6    1    1    2  501    0 -0.23976888309E+03 -0.10278051991E+03 -0.30936473173E+03  0.44010054512E+03  0.17300000000E+03 0. -1.
         -6    1    1    2    0  503  0.23976888309E+03  0.10278051991E+03 -0.14874688475E+04  0.15200478692E+04  0.17300000000E+03 0.  1.
<mgrwt>
<rscale>  2 0.31302069E+03</rscale>
<asrwt>0</asrwt>
<pdfrwt beam="1">  1       21 0.12562681E-01 0.31302069E+03</pdfrwt>
<pdfrwt beam="2">  1       21 0.28899859E+00 0.31302069E+03</pdfrwt>
<totfact> 0.19011118E+03</totfact>
</mgrwt>
</event>
<event>
 4    1  0.4072310E+000  0.1785876E+03  0.7546771E-02  0.1169177E+00
         21   -1    0    0  503  502  0.00000000000E+00  0.00000000000E+00  0.16183333595E+03  0.16183333595E+03  0.00000000000E+00 0.  1.
         21   -1    0    0  501  503 -0.00000000000E+00 -0.00000000000E+00 -0.30595357782E+03  0.30595357782E+03  0.00000000000E+00 0.  1.
          6    1    1    2  501    0 -0.43259087187E+02  0.96538535719E+01 -0.21158721727E+03  0.27688029187E+03  0.17300000000E+03 0.  1.
         -6    1    1    2    0  502  0.43259087187E+02 -0.96538535719E+01  0.67466975410E+02  0.19090662190E+03  0.17300000000E+03 0.  1.
<mgrwt>
<rscale>  2 0.17858764E+03</rscale>
<asrwt>0</asrwt>
<pdfrwt beam="1">  1       21 0.24897436E-01 0.17858764E+03</pdfrwt>
<pdfrwt beam="2">  1       21 0.47069781E-01 0.17858764E+03</pdfrwt>
<totfact> 0.66343349E+04</totfact>
</mgrwt>
</event>
<event>
 4    1  0.4072310E+000  0.1733114E+03  0.7546771E-02  0.1174438E+00
         21   -1    0    0  503  502  0.00000000000E+00  0.00000000000E+00  0.74246093625E+02  0.74246093625E+02  0.00000000000E+00 0.  1.
         21   -1    0    0  501  503 -0.00000000000E+00 -0.00000000000E+00 -0.77665121422E+03  0.77665121422E+03  0.00000000000E+00 0.  1.
          6    1    1    2  501    0  0.52959645180E+01 -0.89330607608E+01 -0.64568543919E+03  0.66854059951E+03  0.17300000000E+03 0.  1.
         -6    1    1    2    0  502 -0.52959645180E+01  0.89330607608E+01 -0.56719681403E+02  0.18235670833E+03  0.17300000000E+03 0.  1.
<mgrwt>
<rscale>  2 0.17331142E+03</rscale>
<asrwt>0</asrwt>
<pdfrwt beam="1">  1       21 0.11422477E-01 0.17331142E+03</pdfrwt>
<pdfrwt beam="2">  1       21 0.11948480E+00 0.17331142E+03</pdfrwt>
<totfact> 0.34588860E+04</totfact>
</mgrwt>
</event>
<event>
 4    1  0.4072310E+000  0.1759001E+03  0.7546771E-02  0.1171831E+00
         21   -1    0    0  503  502  0.00000000000E+00  0.00000000000E+00  0.58910098030E+03  0.58910098030E+03  0.00000000000E+00 0.  1.
         21   -1    0    0  501  503 -0.00000000000E+00 -0.00000000000E+00 -0.54264136101E+02  0.54264136101E+02  0.00000000000E+00 0.  1.
          6    1    1    2  501    0  0.26597694108E+02 -0.17447147055E+02  0.32505464065E+03  0.36959621167E+03  0.17300000000E+03 0. -1.
         -6    1    1    2    0  502 -0.26597694108E+02  0.17447147055E+02  0.20978220355E+03  0.27376890474E+03  0.17300000000E+03 0. -1.
<mgrwt>
<rscale>  2 0.17590009E+03</rscale>
<asrwt>0</asrwt>
<pdfrwt beam="1">  1       21 0.90630916E-01 0.17590009E+03</pdfrwt>
<pdfrwt beam="2">  1       21 0.83483290E-02 0.17590009E+03</pdfrwt>
<totfact> 0.11591631E+05</totfact>
</mgrwt>
</event>
<event>
 4    1  0.4072310E+000  0.2087684E+03  0.7546771E-02  0.1142545E+00
         21   -1    0    0  503  502  0.00000000000E+00  0.00000000000E+00  0.98156915152E+02  0.98156915152E+02  0.00000000000E+00 0.  1.
         21   -1    0    0  501  503 -0.00000000000E+00 -0.00000000000E+00 -0.58794869239E+03  0.58794869239E+03  0.00000000000E+00 0.  1.
          6    1    1    2  501    0  0.23297651303E+02  0.11450966721E+03 -0.41462469518E+03  0.46421749460E+03  0.17300000000E+03 0.  1.
         -6    1    1    2    0  502 -0.23297651303E+02 -0.11450966721E+03 -0.75167082061E+02  0.22188811294E+03  0.17300000000E+03 0.  1.
<mgrwt>
<rscale>  2 0.20876840E+03</rscale>
<asrwt>0</asrwt>
<pdfrwt beam="1">  1       21 0.15101064E-01 0.20876840E+03</pdfrwt>
<pdfrwt beam="2">  1       21 0.90453645E-01 0.20876840E+03</pdfrwt>
<totfact> 0.39899119E+04</totfact>
</mgrwt>
</event>
<event>
 4    1  0.4072310E+000  0.1836216E+03  0.7546771E-02  0.1164343E+00
         21   -1    0    0  503  502  0.00000000000E+00  0.00000000000E+00  0.35074164203E+04  0.35074164203E+04  0.00000000000E+00 0.  1.
         21   -1    0    0  501  503 -0.00000000000E+00 -0.00000000000E+00 -0.18047881791E+02  0.18047881791E+02  0.00000000000E+00 0.  1.
          6    1    1    2  501    0  0.54855765221E+01  0.61300800235E+02  0.53961481322E+03  0.57000090027E+03  0.17300000000E+03 0.  1.
         -6    1    1    2    0  502 -0.54855765221E+01 -0.61300800235E+02  0.29497537253E+04  0.29554634018E+04  0.17300000000E+03 0.  1.
<mgrwt>
<rscale>  2 0.18362157E+03</rscale>
<asrwt>0</asrwt>
<pdfrwt beam="1">  1       21 0.53960199E+00 0.18362157E+03</pdfrwt>
<pdfrwt beam="2">  1       21 0.27766000E-02 0.18362157E+03</pdfrwt>
<totfact> 0.71607182E+02</totfact>
</mgrwt>
</event>
<event>
 4    1  0.4072310E+000  0.2306795E+03  0.7546771E-02  0.1126162E+00
         21   -1    0    0  503  502  0.00000000000E+00  0.00000000000E+00  0.13984511800E+04  0.13984511800E+04  0.00000000000E+00 0.  1.
         21   -1    0    0  501  503 -0.00000000000E+00 -0.00000000000E+00 -0.41209069716E+02  0.41209069716E+02  0.00000000000E+00 0. -1.
          6    1    1    2  501    0 -0.11359396356E+03 -0.10188441185E+03  0.47936243168E+03  0.53197872405E+03  0.17300000000E+03 0. -1.
         -6    1    1    2    0  502  0.11359396356E+03  0.10188441185E+03  0.87787967864E+03  0.90768152571E+03  0.17300000000E+03 0. -1.
<mgrwt>
<rscale>  2 0.23067948E+03</rscale>
<asrwt>0</asrwt>
<pdfrwt beam="1">  1       21 0.21514630E+00 0.23067948E+03</pdfrwt>
<pdfrwt beam="2">  1       21 0.63398580E-02 0.23067948E+03</pdfrwt>
<totfact> 0.18788965E+04</totfact>
</mgrwt>
</event>
<event>
 4    1  0.4072310E+000  0.1839413E+03  0.7546771E-02  0.1164042E+00
         21   -1    0    0  501  502  0.00000000000E+00  0.00000000000E+00  0.51168699375E+03  0.51168699375E+03  0.00000000000E+00 0. -1.
         21   -1    0    0  502  503 -0.00000000000E+00 -0.00000000000E+00 -0.12751609494E+03  0.12751609494E+03  0.00000000000E+00 0. -1.
          6    1    1    2  501    0 -0.62475100440E+02  0.15085339084E+01  0.41384646365E+03  0.45288332860E+03  0.17300000000E+03 0. -1.
         -6    1    1    2    0  503  0.62475100440E+02 -0.15085339084E+01 -0.29675564839E+02  0.18631976008E+03  0.17300000000E+03 0. -1.
<mgrwt>
<rscale>  2 0.18394133E+03</rscale>
<asrwt>0</asrwt>
<pdfrwt beam="1">  1       21 0.78721075E-01 0.18394133E+03</pdfrwt>
<pdfrwt beam="2">  1       21 0.19617861E-01 0.18394133E+03</pdfrwt>
<totfact> 0.34288025E+04</totfact>
</mgrwt>
</event>
<event>
 4    1  0.4072310E+000  0.1746069E+03  0.7546771E-02  0.1173127E+00
         21   -1    0    0  501  502  0.00000000000E+00  0.00000000000E+00  0.12057712788E+04  0.12057712788E+04  0.00000000000E+00 0.  1.
         21   -1    0    0  502  503 -0.00000000000E+00 -0.00000000000E+00 -0.25375540549E+02  0.25375540549E+02  0.00000000000E+00 0.  1.
          6    1    1    2  501    0  0.15537559639E+02  0.17808802280E+02  0.62702805069E+03  0.65088535515E+03  0.17300000000E+03 0.  1.
         -6    1    1    2    0  503 -0.15537559639E+02 -0.17808802280E+02  0.55336768761E+03  0.58026146424E+03  0.17300000000E+03 0.  1.
<mgrwt>
<rscale>  2 0.17460690E+03</rscale>
<asrwt>0</asrwt>
<pdfrwt beam="1">  1       21 0.18550323E+00 0.17460690E+03</pdfrwt>
<pdfrwt beam="2">  1       21 0.39039302E-02 0.17460690E+03</pdfrwt>
<totfact> 0.68921056E+04</totfact>
</mgrwt>
</event>
<event>
 4    1  0.4072310E+000  0.1883049E+03  0.7546771E-02  0.1159999E+00
         21   -1    0    0  501  502  0.00000000000E+00  0.00000000000E+00  0.32690233270E+03  0.32690233270E+03  0.00000000000E+00 0.  1.
         21   -1    0    0  502  503 -0.00000000000E+00 -0.00000000000E+00 -0.27763265977E+03  0.27763265977E+03  0.00000000000E+00 0.  1.
          6    1    1    2  501    0 -0.15109698688E+02  0.72810828617E+02  0.26057936018E+03  0.32149700265E+03  0.17300000000E+03 0.  1.
         -6    1    1    2    0  503  0.15109698688E+02 -0.72810828617E+02 -0.21130968725E+03  0.28303798982E+03  0.17300000000E+03 0.  1.
<mgrwt>
<rscale>  2 0.18830486E+03</rscale>
<asrwt>0</asrwt>
<pdfrwt beam="1">  1       21 0.50292667E-01 0.18830486E+03</pdfrwt>
<pdfrwt beam="2">  1       21 0.42712717E-01 0.18830486E+03</pdfrwt>
<totfact> 0.19898397E+04</totfact>
</mgrwt>
</event>
<event>
 4    1  0.4072310E+000  0.1773657E+03  0.7546771E-02  0.1170377E+00
         21   -1    0    0  501  502  0.00000000000E+00  0.00000000000E+00  0.25841759723E+03  0.25841759723E+03  0.00000000000E+00 0. -1.
         21   -1    0    0  502  503 -0.00000000000E+00 -0.00000000000E+00 -0.12398311045E+03  0.12398311045E+03  0.00000000000E+00 0.  1.
          6    1    1    2  501    0  0.23212044134E+02  0.31476825593E+02  0.92960894545E+02  0.20025063660E+03  0.17300000000E+03 0. -1.
         -6    1    1    2    0  503 -0.23212044134E+02 -0.31476825593E+02  0.41473592242E+02  0.18215007108E+03  0.17300000000E+03 0. -1.
<mgrwt>
<rscale>  2 0.17736569E+03</rscale>
<asrwt>0</asrwt>
<pdfrwt beam="1">  1       21 0.39756553E-01 0.17736569E+03</pdfrwt>
<pdfrwt beam="2">  1       21 0.19074325E-01 0.17736569E+03</pdfrwt>
<totfact> 0.15451820E+05</totfact>
</mgrwt>
</event>
<event>
 4    1  0.4072310E+000  0.2290947E+03  0.7546771E-02  0.1127279E+00
         21   -1    0    0  501  502  0.00000000000E+00  0.00000000000E+00  0.76381656693E+02  0.76381656693E+02  0.00000000000E+00 0. -1.
         21   -1    0    0  502  503 -0.00000000000E+00 -0.00000000000E+00 -0.78641769655E+03  0.78641769655E+03  0.00000000000E+00 0.  1.
          6    1    1    2  501    0 -0.13284869114E+03  0.70047115854E+02 -0.20173506397E+03  0.30525630086E+03  0.17300000000E+03 0. -1.
         -6    1    1    2    0  503  0.13284869114E+03 -0.70047115854E+02 -0.50830097588E+03  0.55754305238E+03  0.17300000000E+03 0.  1.
<mgrwt>
<rscale>  2 0.22909468E+03</rscale>
<asrwt>0</asrwt>
<pdfrwt beam="1">  1       21 0.11751024E-01 0.22909468E+03</pdfrwt>
<pdfrwt beam="2">  1       21 0.12098734E+00 0.22909468E+03</pdfrwt>
<totfact> 0.30888281E+04</totfact>
</mgrwt>
</event>
<event>
 4    1  0.4072310E+000  0.2097555E+03  0.7546771E-02  0.1141760E+00
         21   -1    0    0  501  502  0.00000000000E+00  0.00000000000E+00  0.21058784945E+03  0.21058784945E+03  0.00000000000E+00 0.  1.
         21   -1    0    0  502  503 -0.00000000000E+00 -0.00000000000E+00 -0.24067495854E+03  0.24067495854E+03  0.00000000000E+00 0. -1.
          6    1    1    2  501    0 -0.18417844779E+02  0.11717148588E+03  0.66905827301E+02  0.22016758126E+03  0.17300000000E+03 0.  1.
         -6    1    1    2    0  503  0.18417844779E+02 -0.11717148588E+03 -0.96992936393E+02  0.23109522673E+03  0.17300000000E+03 0. -1.
<mgrwt>
<rscale>  2 0.20975551E+03</rscale>
<asrwt>0</asrwt>
<pdfrwt beam="1">  1       21 0.32398131E-01 0.20975551E+03</pdfrwt>
<pdfrwt beam="2">  1       21 0.37026917E-01 0.20975551E+03</pdfrwt>
<totfact> 0.63987669E+04</totfact>
</mgrwt>
</event>
<event>
 4    1  0.4072310E+000  0.1846388E+03  0.7546771E-02  0.1163388E+00
         21   -1    0    0  503  502  0.00000000000E+00  0.00000000000E+00  0.17158228041E+04  0.17158228041E+04  0.00000000000E+00 0.  1.
         21   -1    0    0  501  503 -0.00000000000E+00 -0.00000000000E+00 -0.44214818080E+02  0.44214818080E+02  0.00000000000E+00 0.  1.
          6    1    1    2  501    0 -0.62460751968E+02 -0.16160388538E+02  0.18279200482E+03  0.25981612868E+03  0.17300000000E+03 0.  1.
         -6    1    1    2    0  502  0.62460751968E+02  0.16160388538E+02  0.14888159812E+04  0.15002214935E+04  0.17300000000E+03 0.  1.
<mgrwt>
<rscale>  2 0.18463885E+03</rscale>
<asrwt>0</asrwt>
<pdfrwt beam="1">  1       21 0.26397269E+00 0.18463885E+03</pdfrwt>
<pdfrwt beam="2">  1       21 0.68022810E-02 0.18463885E+03</pdfrwt>
<totfact> 0.88288403E+03</totfact>
</mgrwt>
</event>
<event>
 4    1  0.4072310E+000  0.1874842E+03  0.7546771E-02  0.1160750E+00
         21   -1    0    0  501  502  0.00000000000E+00  0.00000000000E+00  0.26901489924E+03  0.26901489924E+03  0.00000000000E+00 0. -1.
         21   -1    0    0  502  503 -0.00000000000E+00 -0.00000000000E+00 -0.16491631490E+03  0.16491631490E+03  0.00000000000E+00 0. -1.
          6    1    1    2  501    0  0.43164490358E+02 -0.57949533683E+02  0.15092958206E+03  0.24068664363E+03  0.17300000000E+03 0. -1.
         -6    1    1    2    0  503 -0.43164490358E+02  0.57949533683E+02 -0.46830997729E+02  0.19324457051E+03  0.17300000000E+03 0. -1.
<mgrwt>
<rscale>  2 0.18748419E+03</rscale>
<asrwt>0</asrwt>
<pdfrwt beam="1">  1       21 0.41386908E-01 0.18748419E+03</pdfrwt>
<pdfrwt beam="2">  1       21 0.25371741E-01 0.18748419E+03</pdfrwt>
<totfact> 0.82954904E+04</totfact>
</mgrwt>
</event>
<event>
 4    1  0.4072310E+000  0.3441164E+03  0.7546771E-02  0.1065056E+00
         21   -1    0    0  501  502  0.00000000000E+00  0.00000000000E+00  0.49969062164E+03  0.49969062164E+03  0.00000000000E+00 0.  1.
         21   -1    0    0  502  503 -0.00000000000E+00 -0.00000000000E+00 -0.23907857899E+03  0.23907857899E+03  0.00000000000E+00 0.  1.
          6    1    1    2  501    0 -0.11876732280E+03  0.27272953736E+03  0.95688452496E+02  0.35717272776E+03  0.17300000000E+03 0.  1.
         -6    1    1    2    0  503  0.11876732280E+03 -0.27272953736E+03  0.16492359016E+03  0.38159647287E+03  0.17300000000E+03 0.  1.
<mgrwt>
<rscale>  2 0.34411637E+03</rscale>
<asrwt>0</asrwt>
<pdfrwt beam="1">  1       21 0.76875480E-01 0.34411637E+03</pdfrwt>
<pdfrwt beam="2">  1       21 0.36781320E-01 0.34411637E+03</pdfrwt>
<totfact> 0.99072420E+03</totfact>
</mgrwt>
</event>
<event>
 4    1  0.4072310E+000  0.1776314E+03  0.7546771E-02  0.1170115E+00
         21   -1    0    0  503  502  0.00000000000E+00  0.00000000000E+00  0.78053970961E+02  0.78053970961E+02  0.00000000000E+00 0.  1.
         21   -1    0    0  501  503 -0.00000000000E+00 -0.00000000000E+00 -0.64389263192E+03  0.64389263192E+03  0.00000000000E+00 0.  1.
          6    1    1    2  501    0 -0.39926840626E+02  0.54556980522E+01 -0.50313846103E+03  0.53357401380E+03  0.17300000000E+03 0.  1.
         -6    1    1    2    0  502  0.39926840626E+02 -0.54556980522E+01 -0.62700199932E+02  0.18837258908E+03  0.17300000000E+03 0.  1.
<mgrwt>
<rscale>  2 0.17763141E+03</rscale>
<asrwt>0</asrwt>
<pdfrwt beam="1">  1       21 0.12008304E-01 0.17763141E+03</pdfrwt>
<pdfrwt beam="2">  1       21 0.99060401E-01 0.17763141E+03</pdfrwt>
<totfact> 0.49575656E+04</totfact>
</mgrwt>
</event>
<event>
 4    1  0.4072310E+000  0.1873890E+03  0.7546771E-02  0.1160838E+00
         21   -1    0    0  503  502  0.00000000000E+00  0.00000000000E+00  0.15906565509E+03  0.15906565509E+03  0.00000000000E+00 0.  1.
         21   -1    0    0  501  503 -0.00000000000E+00 -0.00000000000E+00 -0.25897255908E+03  0.25897255908E+03  0.00000000000E+00 0.  1.
          6    1    1    2  501    0 -0.46231867866E+02  0.55210913701E+02 -0.13024823037E+03  0.22820874679E+03  0.17300000000E+03 0.  1.
         -6    1    1    2    0  502  0.46231867866E+02 -0.55210913701E+02  0.30341326386E+02  0.18982946738E+03  0.17300000000E+03 0.  1.
<mgrwt>
<rscale>  2 0.18738898E+03</rscale>
<asrwt>0</asrwt>
<pdfrwt beam="1">  1       21 0.24471640E-01 0.18738898E+03</pdfrwt>
<pdfrwt beam="2">  1       21 0.39841932E-01 0.18738898E+03</pdfrwt>
<totfact> 0.95985801E+04</totfact>
</mgrwt>
</event>
<event>
 4    1  0.4072310E+000  0.2041889E+03  0.7546771E-02  0.1146252E+00
         21   -1    0    0  501  502  0.00000000000E+00  0.00000000000E+00  0.18605718569E+03  0.18605718569E+03  0.00000000000E+00 0.  1.
         21   -1    0    0  502  503 -0.00000000000E+00 -0.00000000000E+00 -0.31364804815E+03  0.31364804815E+03  0.00000000000E+00 0. -1.
          6    1    1    2  501    0 -0.10769376517E+03 -0.12890074928E+02  0.69716731097E+02  0.21576265591E+03  0.17300000000E+03 0.  1.
         -6    1    1    2    0  503  0.10769376517E+03  0.12890074928E+02 -0.19730759356E+03  0.28394257793E+03  0.17300000000E+03 0. -1.
<mgrwt>
<rscale>  2 0.20418889E+03</rscale>
<asrwt>0</asrwt>
<pdfrwt beam="1">  1       21 0.28624182E-01 0.20418889E+03</pdfrwt>
<pdfrwt beam="2">  1       21 0.48253546E-01 0.20418889E+03</pdfrwt>
<totfact> 0.47625950E+04</totfact>
</mgrwt>
</event>
<event>
 4    1  0.4072310E+000  0.1901370E+03  0.7546771E-02  0.1158338E+00
         21   -1    0    0  501  502  0.00000000000E+00  0.00000000000E+00  0.48178275843E+03  0.48178275843E+03  0.00000000000E+00 0.  1.
         21   -1    0    0  502  503 -0.00000000000E+00 -0.00000000000E+00 -0.75579515971E+02  0.75579515971E+02  0.00000000000E+00 0.  1.
          6    1    1    2  501    0  0.78435904195E+02  0.84198214058E+01  0.17951569015E+03  0.26149181147E+03  0.17300000000E+03 0. -1.
         -6    1    1    2    0  503 -0.78435904195E+02 -0.84198214058E+01  0.22668755231E+03  0.29587046293E+03  0.17300000000E+03 0. -1.
<mgrwt>
<rscale>  2 0.19013701E+03</rscale>
<asrwt>0</asrwt>
<pdfrwt beam="1">  1       21 0.74120422E-01 0.19013701E+03</pdfrwt>
<pdfrwt beam="2">  1       21 0.11627618E-01 0.19013701E+03</pdfrwt>
<totfact> 0.10143948E+05</totfact>
</mgrwt>
</event>
<event>
 4    1  0.4072310E+000  0.1816569E+03  0.7546771E-02  0.1166209E+00
         21   -1    0    0  501  502  0.00000000000E+00  0.00000000000E+00  0.38568628546E+03  0.38568628546E+03  0.00000000000E+00 0. -1.
         21   -1    0    0  502  503 -0.00000000000E+00 -0.00000000000E+00 -0.11428743017E+03  0.11428743017E+03  0.00000000000E+00 0. -1.
          6    1    1    2  501    0 -0.20733186375E+02  0.51384444912E+02  0.26103320926E+03  0.31802132402E+03  0.17300000000E+03 0. -1.
         -6    1    1    2    0  503  0.20733186375E+02 -0.51384444912E+02  0.10365646029E+02  0.18195239161E+03  0.17300000000E+03 0. -1.
<mgrwt>
<rscale>  2 0.18165689E+03</rscale>
<asrwt>0</asrwt>
<pdfrwt beam="1">  1       21 0.59336351E-01 0.18165689E+03</pdfrwt>
<pdfrwt beam="2">  1       21 0.17582682E-01 0.18165689E+03</pdfrwt>
<totfact> 0.78160273E+04</totfact>
</mgrwt>
</event>
<event>
 4    1  0.4072310E+000  0.2057955E+03  0.7546771E-02  0.1144939E+00
         21   -1    0    0  503  502  0.00000000000E+00  0.00000000000E+00  0.30578688805E+03  0.30578688805E+03  0.00000000000E+00 0. -1.
         21   -1    0    0  501  503 -0.00000000000E+00 -0.00000000000E+00 -0.15924874869E+03  0.15924874869E+03  0.00000000000E+00 0. -1.
          6    1    1    2  501    0 -0.40952596875E+02 -0.10366139174E+03 -0.10658256613E+02  0.20607134144E+03  0.17300000000E+03 0. -1.
         -6    1    1    2    0  502  0.40952596875E+02  0.10366139174E+03  0.15719639597E+03  0.25896429529E+03  0.17300000000E+03 0. -1.
<mgrwt>
<rscale>  2 0.20579553E+03</rscale>
<asrwt>0</asrwt>
<pdfrwt beam="1">  1       21 0.47044136E-01 0.20579553E+03</pdfrwt>
<pdfrwt beam="2">  1       21 0.24499808E-01 0.20579553E+03</pdfrwt>
<totfact> 0.67670202E+04</totfact>
</mgrwt>
</event>
<event>
 4    1  0.4072310E+000  0.2647065E+03  0.7546771E-02  0.1104348E+00
         21   -1    0    0  503  502  0.00000000000E+00  0.00000000000E+00  0.26146244082E+04  0.26146244082E+04  0.00000000000E+00 0.  1.
         21   -1    0    0  501  503 -0.00000000000E+00 -0.00000000000E+00 -0.27299994849E+02  0.27299994849E+02  0.00000000000E+00 0.  1.
          6    1    1    2  501    0 -0.16833029461E+03 -0.10865288457E+03  0.14725948653E+04  0.14961969037E+04  0.17300000000E+03 0.  1.
         -6    1    1    2    0  502  0.16833029461E+03  0.10865288457E+03  0.11147295481E+04  0.11457274993E+04  0.17300000000E+03 0.  1.
<mgrwt>
<rscale>  2 0.26470651E+03</rscale>
<asrwt>0</asrwt>
<pdfrwt beam="1">  1       21 0.40224971E+00 0.26470651E+03</pdfrwt>
<pdfrwt beam="2">  1       21 0.42000013E-02 0.26470651E+03</pdfrwt>
<totfact> 0.27914389E+03</totfact>
</mgrwt>
</event>
<event>
 4    1  0.4072310E+000  0.1813728E+03  0.7546771E-02  0.1166481E+00
         21   -1    0    0  503  502  0.00000000000E+00  0.00000000000E+00  0.14485396966E+03  0.14485396966E+03  0.00000000000E+00 0. -1.
         21   -1    0    0  501  503 -0.00000000000E+00 -0.00000000000E+00 -0.30280827735E+03  0.30280827735E+03  0.00000000000E+00 0. -1.
          6    1    1    2  501    0  0.40631477273E+02  0.36279223616E+02 -0.19089851626E+03  0.26332174715E+03  0.17300000000E+03 0. -1.
         -6    1    1    2    0  502 -0.40631477273E+02 -0.36279223616E+02  0.32944208563E+02  0.18434049986E+03  0.17300000000E+03 0. -1.
<mgrwt>
<rscale>  2 0.18137282E+03</rscale>
<asrwt>0</asrwt>
<pdfrwt beam="1">  1       21 0.22285226E-01 0.18137282E+03</pdfrwt>
<pdfrwt beam="2">  1       21 0.46585889E-01 0.18137282E+03</pdfrwt>
<totfact> 0.83508169E+04</totfact>
</mgrwt>
</event>
<event>
 4    1  0.4072310E+000  0.2544559E+03  0.7546771E-02  0.1110521E+00
         21   -1    0    0  501  502  0.00000000000E+00  0.00000000000E+00  0.87341992986E+03  0.87341992986E+03  0.00000000000E+00 0.  1.
         21   -1    0    0  502  503 -0.00000000000E+00 -0.00000000000E+00 -0.82558344355E+02  0.82558344355E+02  0.00000000000E+00 0.  1.
          6    1    1    2  501    0  0.16062143766E+01 -0.18659105084E+03  0.54814303079E+03  0.60432489804E+03  0.17300000000E+03 0.  1.
         -6    1    1    2    0  503 -0.16062143766E+01  0.18659105084E+03  0.24271855471E+03  0.35165337618E+03  0.17300000000E+03 0.  1.
<mgrwt>
<rscale>  2 0.25445589E+03</rscale>
<asrwt>0</asrwt>
<pdfrwt beam="1">  1       21 0.13437229E+00 0.25445589E+03</pdfrwt>
<pdfrwt beam="2">  1       21 0.12701284E-01 0.25445589E+03</pdfrwt>
<totfact> 0.20319884E+04</totfact>
</mgrwt>
</event>
<event>
 4    1  0.4072310E+000  0.2108985E+03  0.7546771E-02  0.1140856E+00
         21   -1    0    0  503  502  0.00000000000E+00  0.00000000000E+00  0.11877208480E+04  0.11877208480E+04  0.00000000000E+00 0. -1.
         21   -1    0    0  501  503 -0.00000000000E+00 -0.00000000000E+00 -0.38294323304E+02  0.38294323304E+02  0.00000000000E+00 0. -1.
          6    1    1    2  501    0 -0.47667143971E+02  0.11080174471E+03  0.48360084324E+03  0.52758692063E+03  0.17300000000E+03 0. -1.
         -6    1    1    2    0  502  0.47667143971E+02 -0.11080174471E+03  0.66582568147E+03  0.69842825068E+03  0.17300000000E+03 0. -1.
<mgrwt>
<rscale>  2 0.21089851E+03</rscale>
<asrwt>0</asrwt>
<pdfrwt beam="1">  1       21 0.18272626E+00 0.21089851E+03</pdfrwt>
<pdfrwt beam="2">  1       21 0.58914353E-02 0.21089851E+03</pdfrwt>
<totfact> 0.35056239E+04</totfact>
</mgrwt>
</event>
<event>
 4    1  0.4072310E+000  0.2003883E+03  0.7546771E-02  0.1149412E+00
         21   -1    0    0  503  502  0.00000000000E+00  0.00000000000E+00  0.99169611028E+03  0.99169611028E+03  0.00000000000E+00 0.  1.
         21   -1    0    0  501  503 -0.00000000000E+00 -0.00000000000E+00 -0.40634906683E+02  0.40634906683E+02  0.00000000000E+00 0.  1.
          6    1    1    2  501    0  0.10101077256E+03 -0.48280355558E+01  0.50617020964E+03  0.54439302643E+03  0.17300000000E+03 0.  1.
         -6    1    1    2    0  502 -0.10101077256E+03  0.48280355558E+01  0.44489099396E+03  0.48793799053E+03  0.17300000000E+03 0.  1.
<mgrwt>
<rscale>  2 0.20038834E+03</rscale>
<asrwt>0</asrwt>
<pdfrwt beam="1">  1       21 0.15256861E+00 0.20038834E+03</pdfrwt>
<pdfrwt beam="2">  1       21 0.62515248E-02 0.20038834E+03</pdfrwt>
<totfact> 0.52294779E+04</totfact>
</mgrwt>
</event>
<event>
 4    1  0.4072310E+000  0.2073935E+03  0.7546771E-02  0.1143647E+00
         21   -1    0    0  503  502  0.00000000000E+00  0.00000000000E+00  0.15681685043E+03  0.15681685043E+03  0.00000000000E+00 0.  1.
         21   -1    0    0  501  503 -0.00000000000E+00 -0.00000000000E+00 -0.30450535813E+03  0.30450535813E+03  0.00000000000E+00 0.  1.
          6    1    1    2  501    0 -0.10797009910E+03 -0.37756054645E+02 -0.14651292540E+03  0.25392538131E+03  0.17300000000E+03 0.  1.
         -6    1    1    2    0  502  0.10797009910E+03  0.37756054645E+02 -0.11755823064E+01  0.20739682726E+03  0.17300000000E+03 0.  1.
<mgrwt>
<rscale>  2 0.20739350E+03</rscale>
<asrwt>0</asrwt>
<pdfrwt beam="1">  1       21 0.24125669E-01 0.20739350E+03</pdfrwt>
<pdfrwt beam="2">  1       21 0.46846978E-01 0.20739350E+03</pdfrwt>
<totfact> 0.70244341E+04</totfact>
</mgrwt>
</event>
<event>
 4    1  0.4072310E+000  0.4031492E+03  0.7546771E-02  0.1042695E+00
         21   -1    0    0  501  502  0.00000000000E+00  0.00000000000E+00  0.12018682353E+03  0.12018682353E+03  0.00000000000E+00 0. -1.
         21   -1    0    0  502  503 -0.00000000000E+00 -0.00000000000E+00 -0.22841685019E+04  0.22841685019E+04  0.00000000000E+00 0.  1.
          6    1    1    2  501    0 -0.17650680795E+03 -0.31850534155E+03 -0.31413337019E+03  0.51108617680E+03  0.17300000000E+03 0. -1.
         -6    1    1    2    0  503  0.17650680795E+03  0.31850534155E+03 -0.18498483082E+04  0.18932691486E+04  0.17300000000E+03 0. -1.
<mgrwt>
<rscale>  2 0.40314924E+03</rscale>
<asrwt>0</asrwt>
<pdfrwt beam="1">  1       21 0.18490279E-01 0.40314924E+03</pdfrwt>
<pdfrwt beam="2">  1       21 0.35141056E+00 0.40314924E+03</pdfrwt>
<totfact> 0.36847191E+02</totfact>
</mgrwt>
</event>
<event>
 4    1  0.4072310E+000  0.2115740E+03  0.7546771E-02  0.1140326E+00
         21   -1    0    0  501  502  0.00000000000E+00  0.00000000000E+00  0.54435880209E+02  0.54435880209E+02  0.00000000000E+00 0.  1.
         21   -1    0    0  502  503 -0.00000000000E+00 -0.00000000000E+00 -0.96253232969E+03  0.96253232969E+03  0.00000000000E+00 0.  1.
          6    1    1    2  501    0 -0.10371254608E+03 -0.63861157161E+02 -0.25997404701E+03  0.33518658197E+03  0.17300000000E+03 0.  1.
         -6    1    1    2    0  503  0.10371254608E+03  0.63861157161E+02 -0.64812240246E+03  0.68178162793E+03  0.17300000000E+03 0.  1.
<mgrwt>
<rscale>  2 0.21157396E+03</rscale>
<asrwt>0</asrwt>
<pdfrwt beam="1">  1       21 0.83747515E-02 0.21157396E+03</pdfrwt>
<pdfrwt beam="2">  1       21 0.14808189E+00 0.21157396E+03</pdfrwt>
<totfact> 0.33868905E+04</totfact>
</mgrwt>
</event>
<event>
 4    1  0.4072310E+000  0.1738769E+03  0.7546771E-02  0.1173864E+00
         21   -1    0    0  503  502  0.00000000000E+00  0.00000000000E+00  0.39571420977E+03  0.39571420977E+03  0.00000000000E+00 0.  1.
         21   -1    0    0  501  503 -0.00000000000E+00 -0.00000000000E+00 -0.10550918621E+03  0.10550918621E+03  0.00000000000E+00 0.  1.
          6    1    1    2  501    0  0.17207585280E+02 -0.28414581355E+01  0.13471036426E+02  0.17439794637E+03  0.17300000000E+03 0.  1.
         -6    1    1    2    0  502 -0.17207585280E+02  0.28414581355E+01  0.27673398713E+03  0.32682544961E+03  0.17300000000E+03 0.  1.
<mgrwt>
<rscale>  2 0.17387690E+03</rscale>
<asrwt>0</asrwt>
<pdfrwt beam="1">  1       21 0.60879108E-01 0.17387690E+03</pdfrwt>
<pdfrwt beam="2">  1       21 0.16232183E-01 0.17387690E+03</pdfrwt>
<totfact> 0.85944446E+04</totfact>
</mgrwt>
</event>
<event>
 4    1  0.4072310E+000  0.2582491E+03  0.7546771E-02  0.1108200E+00
         21   -1    0    0  501  502  0.00000000000E+00  0.00000000000E+00  0.79374295728E+02  0.79374295728E+02  0.00000000000E+00 0. -1.
         21   -1    0    0  502  503 -0.00000000000E+00 -0.00000000000E+00 -0.84086763604E+03  0.84086763604E+03  0.00000000000E+00 0.  1.
          6    1    1    2  501    0  0.10627209940E+03  0.15959266619E+03 -0.39342799211E+03  0.47061466529E+03  0.17300000000E+03 0. -1.
         -6    1    1    2    0  503 -0.10627209940E+03 -0.15959266619E+03 -0.36806534820E+03  0.44962726647E+03  0.17300000000E+03 0. -1.
<mgrwt>
<rscale>  2 0.25824906E+03</rscale>
<asrwt>0</asrwt>
<pdfrwt beam="1">  1       21 0.12211430E-01 0.25824906E+03</pdfrwt>
<pdfrwt beam="2">  1       21 0.12936425E+00 0.25824906E+03</pdfrwt>
<totfact> 0.23994003E+04</totfact>
</mgrwt>
</event>
<event>
 4    1  0.4072310E+000  0.1898102E+03  0.7546771E-02  0.1158633E+00
         21   -1    0    0  501  502  0.00000000000E+00  0.00000000000E+00  0.11126151209E+03  0.11126151209E+03  0.00000000000E+00 0. -1.
         21   -1    0    0  502  503 -0.00000000000E+00 -0.00000000000E+00 -0.51141859876E+03  0.51141859876E+03  0.00000000000E+00 0. -1.
          6    1    1    2  501    0  0.75631859878E+02  0.19461400792E+02 -0.11509831867E+02  0.19015888246E+03  0.17300000000E+03 0. -1.
         -6    1    1    2    0  503 -0.75631859878E+02 -0.19461400792E+02 -0.38864725480E+03  0.43252122840E+03  0.17300000000E+03 0. -1.
<mgrwt>
<rscale>  2 0.18981023E+03</rscale>
<asrwt>0</asrwt>
<pdfrwt beam="1">  1       21 0.17117155E-01 0.18981023E+03</pdfrwt>
<pdfrwt beam="2">  1       21 0.78679787E-01 0.18981023E+03</pdfrwt>
<totfact> 0.44052282E+04</totfact>
</mgrwt>
</event>
<event>
 4    1  0.4072310E+000  0.1922250E+03  0.7546771E-02  0.1156470E+00
         21   -1    0    0  501  502  0.00000000000E+00  0.00000000000E+00  0.33166047488E+03  0.33166047488E+03  0.00000000000E+00 0.  1.
         21   -1    0    0  502  503 -0.00000000000E+00 -0.00000000000E+00 -0.11201959545E+03  0.11201959545E+03  0.00000000000E+00 0.  1.
          6    1    1    2  501    0 -0.26386745419E+02  0.79530997656E+02  0.12617942917E+03  0.22993844452E+03  0.17300000000E+03 0.  1.
         -6    1    1    2    0  503  0.26386745419E+02 -0.79530997656E+02  0.93461450264E+02  0.21374162582E+03  0.17300000000E+03 0.  1.
<mgrwt>
<rscale>  2 0.19222497E+03</rscale>
<asrwt>0</asrwt>
<pdfrwt beam="1">  1       21 0.51024688E-01 0.19222497E+03</pdfrwt>
<pdfrwt beam="2">  1       21 0.17233784E-01 0.19222497E+03</pdfrwt>
<totfact> 0.11113742E+05</totfact>
</mgrwt>
</event>
<event>
 4    1  0.4072310E+000  0.1748143E+03  0.7546771E-02  0.1172918E+00
         21   -1    0    0  501  502  0.00000000000E+00  0.00000000000E+00  0.44007679818E+02  0.44007679818E+02  0.00000000000E+00 0. -1.
         21   -1    0    0  502  503 -0.00000000000E+00 -0.00000000000E+00 -0.10081952820E+04  0.10081952820E+04  0.00000000000E+00 0. -1.
          6    1    1    2  501    0  0.38856194563E+01 -0.24818463930E+02 -0.18859740989E+03  0.25715566727E+03  0.17300000000E+03 0. -1.
         -6    1    1    2    0  503 -0.38856194563E+01  0.24818463930E+02 -0.77559019229E+03  0.79504729454E+03  0.17300000000E+03 0. -1.
<mgrwt>
<rscale>  2 0.17481434E+03</rscale>
<asrwt>0</asrwt>
<pdfrwt beam="1">  1       21 0.67704125E-02 0.17481434E+03</pdfrwt>
<pdfrwt beam="2">  1       21 0.15510696E+00 0.17481434E+03</pdfrwt>
<totfact> 0.44298863E+04</totfact>
</mgrwt>
</event>
<event>
 4    1  0.4072310E+000  0.1796716E+03  0.7546771E-02  0.1168121E+00
         21   -1    0    0  501  502  0.00000000000E+00  0.00000000000E+00  0.14143083443E+03  0.14143083443E+03  0.00000000000E+00 0.  1.
         21   -1    0    0  502  503 -0.00000000000E+00 -0.00000000000E+00 -0.36540900962E+03  0.36540900962E+03  0.00000000000E+00 0.  1.
          6    1    1    2  501    0 -0.34095706022E+02 -0.34501946612E+02  0.43270986080E+02  0.18480876528E+03  0.17300000000E+03 0.  1.
         -6    1    1    2    0  503  0.34095706022E+02  0.34501946612E+02 -0.26724916127E+03  0.32203107876E+03  0.17300000000E+03 0.  1.
<mgrwt>
<rscale>  2 0.17967165E+03</rscale>
<asrwt>0</asrwt>
<pdfrwt beam="1">  1       21 0.21758590E-01 0.17967165E+03</pdfrwt>
<pdfrwt beam="2">  1       21 0.56216770E-01 0.17967165E+03</pdfrwt>
<totfact> 0.59033565E+04</totfact>
</mgrwt>
</event>
<event>
 4    1  0.4072310E+000  0.2379246E+03  0.7546771E-02  0.1121183E+00
         21   -1    0    0  501  502  0.00000000000E+00  0.00000000000E+00  0.82044006761E+03  0.82044006761E+03  0.00000000000E+00 0. -1.
         21   -1    0    0  502  503 -0.00000000000E+00 -0.00000000000E+00 -0.76495950576E+02  0.76495950576E+02  0.00000000000E+00 0. -1.
          6    1    1    2  501    0  0.15370851508E+03 -0.55252120979E+02  0.51238443576E+03  0.56493000849E+03  0.17300000000E+03 0. -1.
         -6    1    1    2    0  503 -0.15370851508E+03  0.55252120979E+02  0.23155968127E+03  0.33200600969E+03  0.17300000000E+03 0. -1.
<mgrwt>
<rscale>  2 0.23792458E+03</rscale>
<asrwt>0</asrwt>
<pdfrwt beam="1">  1       21 0.12622154E+00 0.23792458E+03</pdfrwt>
<pdfrwt beam="2">  1       21 0.11768608E-01 0.23792458E+03</pdfrwt>
<totfact> 0.27570042E+04</totfact>
</mgrwt>
</event>
<event>
 4    1  0.4072310E+000  0.2839065E+03  0.7546771E-02  0.1093574E+00
         21   -1    0    0  501  502  0.00000000000E+00  0.00000000000E+00  0.15785665750E+04  0.15785665750E+04  0.00000000000E+00 0. -1.
         21   -1    0    0  502  503 -0.00000000000E+00 -0.00000000000E+00 -0.52576392787E+02  0.52576392787E+02  0.00000000000E+00 0.  1.
          6    1    1    2  501    0 -0.51871194352E+02  0.21905081011E+03  0.90146562161E+03  0.94511541367E+03  0.17300000000E+03 0.  1.
         -6    1    1    2    0  503  0.51871194352E+02 -0.21905081011E+03  0.62452456065E+03  0.68602755416E+03  0.17300000000E+03 0. -1.
<mgrwt>
<rscale>  2 0.28390646E+03</rscale>
<asrwt>0</asrwt>
<pdfrwt beam="1">  1       21 0.24285636E+00 0.28390646E+03</pdfrwt>
<pdfrwt beam="2">  1       21 0.80886770E-02 0.28390646E+03</pdfrwt>
<totfact> 0.80174010E+03</totfact>
</mgrwt>
</event>
<event>
 4    1  0.4072310E+000  0.2137135E+03  0.7546771E-02  0.1138659E+00
         21   -1    0    0  501  502  0.00000000000E+00  0.00000000000E+00  0.57300672382E+02  0.57300672382E+02  0.00000000000E+00 0. -1.
         21   -1    0    0  502  503 -0.00000000000E+00 -0.00000000000E+00 -0.10684578761E+04  0.10684578761E+04  0.00000000000E+00 0. -1.
          6    1    1    2  501    0 -0.56820257320E+02  0.11187450719E+03 -0.22190390184E+03  0.30808243808E+03  0.17300000000E+03 0. -1.
         -6    1    1    2    0  503  0.56820257320E+02 -0.11187450719E+03 -0.78925330184E+03  0.81767611037E+03  0.17300000000E+03 0. -1.
<mgrwt>
<rscale>  2 0.21371347E+03</rscale>
<asrwt>0</asrwt>
<pdfrwt beam="1">  1       21 0.88154890E-02 0.21371347E+03</pdfrwt>
<pdfrwt beam="2">  1       21 0.16437812E+00 0.21371347E+03</pdfrwt>
<totfact> 0.23368156E+04</totfact>
</mgrwt>
</event>
<event>
 4    1  0.4072310E+000  0.2012055E+03  0.7546771E-02  0.1148726E+00
         21   -1    0    0  501  502  0.00000000000E+00  0.00000000000E+00  0.28217355675E+02  0.28217355675E+02  0.00000000000E+00 0.  1.
         21   -1    0    0  502  503 -0.00000000000E+00 -0.00000000000E+00 -0.14971504400E+04  0.14971504400E+04  0.00000000000E+00 0.  1.
          6    1    1    2  501    0  0.86677299186E+02  0.55151524877E+02 -0.57870710063E+03  0.61268715770E+03  0.17300000000E+03 0.  1.
         -6    1    1    2    0  503 -0.86677299186E+02 -0.55151524877E+02 -0.89022598369E+03  0.91268063797E+03  0.17300000000E+03 0.  1.
<mgrwt>
<rscale>  2 0.20120548E+03</rscale>
<asrwt>0</asrwt>
<pdfrwt beam="1">  1       21 0.43411328E-02 0.20120548E+03</pdfrwt>
<pdfrwt beam="2">  1       21 0.23033077E+00 0.20120548E+03</pdfrwt>
<totfact> 0.29533153E+04</totfact>
</mgrwt>
</event>
<event>
 4    1  0.4072310E+000  0.3754557E+03  0.7546771E-02  0.1052626E+00
         21   -1    0    0  501  502  0.00000000000E+00  0.00000000000E+00  0.65388694497E+03  0.65388694497E+03  0.00000000000E+00 0.  1.
         21   -1    0    0  502  503 -0.00000000000E+00 -0.00000000000E+00 -0.23033325183E+03  0.23033325183E+03  0.00000000000E+00 0. -1.
          6    1    1    2  501    0 -0.32711048883E+03 -0.63535293607E+02  0.99897565351E+02  0.38851837666E+03  0.17300000000E+03 0. -1.
         -6    1    1    2    0  503  0.32711048883E+03  0.63535293607E+02  0.32365612779E+03  0.49570182014E+03  0.17300000000E+03 0.  1.
<mgrwt>
<rscale>  2 0.37545573E+03</rscale>
<asrwt>0</asrwt>
<pdfrwt beam="1">  1       21 0.10059799E+00 0.37545573E+03</pdfrwt>
<pdfrwt beam="2">  1       21 0.35435885E-01 0.37545573E+03</pdfrwt>
<totfact> 0.56163247E+03</totfact>
</mgrwt>
</event>
<event>
 4    1  0.4072310E+000  0.1810350E+03  0.7546771E-02  0.1166805E+00
         21   -1    0    0  501  502  0.00000000000E+00  0.00000000000E+00  0.24525505447E+03  0.24525505447E+03  0.00000000000E+00 0. -1.
         21   -1    0    0  502  503 -0.00000000000E+00 -0.00000000000E+00 -0.19246948885E+03  0.19246948885E+03  0.00000000000E+00 0. -1.
          6    1    1    2  501    0 -0.41424736119E+02  0.33595344125E+02  0.14740272304E+03  0.23345496069E+03  0.17300000000E+03 0. -1.
         -6    1    1    2    0  503  0.41424736119E+02 -0.33595344125E+02 -0.94617157427E+02  0.20426958263E+03  0.17300000000E+03 0. -1.
<mgrwt>
<rscale>  2 0.18103496E+03</rscale>
<asrwt>0</asrwt>
<pdfrwt beam="1">  1       21 0.37731547E-01 0.18103496E+03</pdfrwt>
<pdfrwt beam="2">  1       21 0.29610691E-01 0.18103496E+03</pdfrwt>
<totfact> 0.74404759E+04</totfact>
</mgrwt>
</event>
<event>
 4    1  0.4072310E+000  0.1842418E+03  0.7546771E-02  0.1163760E+00
         21   -1    0    0  503  502  0.00000000000E+00  0.00000000000E+00  0.42392229443E+02  0.42392229443E+02  0.00000000000E+00 0. -1.
         21   -1    0    0  501  503 -0.00000000000E+00 -0.00000000000E+00 -0.13908722194E+04  0.13908722194E+04  0.00000000000E+00 0. -1.
          6    1    1    2  501    0  0.34174702625E+02  0.53367786513E+02 -0.11410374141E+04  0.11558163398E+04  0.17300000000E+03 0. -1.
         -6    1    1    2    0  502 -0.34174702625E+02 -0.53367786513E+02 -0.20744257582E+03  0.27744810902E+03  0.17300000000E+03 0. -1.
<mgrwt>
<rscale>  2 0.18424177E+03</rscale>
<asrwt>0</asrwt>
<pdfrwt beam="1">  1       21 0.65218823E-02 0.18424177E+03</pdfrwt>
<pdfrwt beam="2">  1       21 0.21398031E+00 0.18424177E+03</pdfrwt>
<totfact> 0.18854101E+04</totfact>
</mgrwt>
</event>
<event>
 4    1  0.4072310E+000  0.2652653E+03  0.7546771E-02  0.1104020E+00
         21   -1    0    0  503  502  0.00000000000E+00  0.00000000000E+00  0.15286715211E+03  0.15286715211E+03  0.00000000000E+00 0.  1.
         21   -1    0    0  501  503 -0.00000000000E+00 -0.00000000000E+00 -0.48312453955E+03  0.48312453955E+03  0.00000000000E+00 0.  1.
          6    1    1    2  501    0 -0.16601382561E+03  0.11347280168E+03 -0.23423788954E+03  0.35388282794E+03  0.17300000000E+03 0.  1.
         -6    1    1    2    0  502  0.16601382561E+03 -0.11347280168E+03 -0.96019497896E+02  0.28210886372E+03  0.17300000000E+03 0.  1.
<mgrwt>
<rscale>  2 0.26526528E+03</rscale>
<asrwt>0</asrwt>
<pdfrwt beam="1">  1       21 0.23518024E-01 0.26526528E+03</pdfrwt>
<pdfrwt beam="2">  1       21 0.74326851E-01 0.26526528E+03</pdfrwt>
<totfact> 0.26611191E+04</totfact>
</mgrwt>
</event>
<event>
 4    1  0.4072310E+000  0.2258145E+03  0.7546771E-02  0.1129621E+00
         21   -1    0    0  501  502  0.00000000000E+00  0.00000000000E+00  0.25087966939E+03  0.25087966939E+03  0.00000000000E+00 0. -1.
         21   -1    0    0  502  503 -0.00000000000E+00 -0.00000000000E+00 -0.20841793241E+03  0.20841793241E+03  0.00000000000E+00 0.  1.
          6    1    1    2  501    0 -0.51679935048E+02 -0.13561853349E+03 -0.14918662891E+02  0.22630680241E+03  0.17300000000E+03 0.  1.
         -6    1    1    2    0  503  0.51679935048E+02  0.13561853349E+03  0.57380399868E+02  0.23299079939E+03  0.17300000000E+03 0. -1.
<mgrwt>
<rscale>  2 0.22581453E+03</rscale>
<asrwt>0</asrwt>
<pdfrwt beam="1">  1       21 0.38596872E-01 0.22581453E+03</pdfrwt>
<pdfrwt beam="2">  1       21 0.32064297E-01 0.22581453E+03</pdfrwt>
<totfact> 0.59665418E+04</totfact>
</mgrwt>
</event>
<event>
 4    1  0.4072310E+000  0.2298870E+03  0.7546771E-02  0.1126719E+00
         21   -1    0    0  501  502  0.00000000000E+00  0.00000000000E+00  0.62239042452E+03  0.62239042452E+03  0.00000000000E+00 0.  1.
         21   -1    0    0  502  503 -0.00000000000E+00 -0.00000000000E+00 -0.85809773376E+02  0.85809773376E+02  0.00000000000E+00 0. -1.
          6    1    1    2  501    0  0.14058885793E+03 -0.56158831576E+02  0.23205881195E+03  0.32664863928E+03  0.17300000000E+03 0. -1.
         -6    1    1    2    0  503 -0.14058885793E+03  0.56158831576E+02  0.30452183919E+03  0.38155155861E+03  0.17300000000E+03 0. -1.
<mgrwt>
<rscale>  2 0.22988702E+03</rscale>
<asrwt>0</asrwt>
<pdfrwt beam="1">  1       21 0.95752370E-01 0.22988702E+03</pdfrwt>
<pdfrwt beam="2">  1       21 0.13201504E-01 0.22988702E+03</pdfrwt>
<totfact> 0.44133156E+04</totfact>
</mgrwt>
</event>
<event>
 4    1  0.4072310E+000  0.2139944E+03  0.7546771E-02  0.1138441E+00
         21   -1    0    0  501  502  0.00000000000E+00  0.00000000000E+00  0.36196048639E+03  0.36196048639E+03  0.00000000000E+00 0. -1.
         21   -1    0    0  502  503 -0.00000000000E+00 -0.00000000000E+00 -0.13361541776E+03  0.13361541776E+03  0.00000000000E+00 0.  1.
          6    1    1    2  501    0 -0.12037372168E+03 -0.37077875202E+02  0.17129137996E+03  0.27410643653E+03  0.17300000000E+03 0.  1.
         -6    1    1    2    0  503  0.12037372168E+03  0.37077875202E+02  0.57053688673E+02  0.22146946763E+03  0.17300000000E+03 0. -1.
<mgrwt>
<rscale>  2 0.21399440E+03</rscale>
<asrwt>0</asrwt>
<pdfrwt beam="1">  1       21 0.55686228E-01 0.21399440E+03</pdfrwt>
<pdfrwt beam="2">  1       21 0.20556218E-01 0.21399440E+03</pdfrwt>
<totfact> 0.65991275E+04</totfact>
</mgrwt>
</event>
<event>
 4    1  0.4072310E+000  0.1742332E+03  0.7546771E-02  0.1173504E+00
         21   -1    0    0  503  502  0.00000000000E+00  0.00000000000E+00  0.15267932977E+03  0.15267932977E+03  0.00000000000E+00 0. -1.
         21   -1    0    0  501  503 -0.00000000000E+00 -0.00000000000E+00 -0.20813752930E+03  0.20813752930E+03  0.00000000000E+00 0. -1.
          6    1    1    2  501    0  0.20687307638E+02 -0.48921672227E+00 -0.65879840678E+02  0.18627226696E+03  0.17300000000E+03 0. -1.
         -6    1    1    2    0  502 -0.20687307638E+02  0.48921672227E+00  0.10421641148E+02  0.17454459211E+03  0.17300000000E+03 0. -1.
<mgrwt>
<rscale>  2 0.17423319E+03</rscale>
<asrwt>0</asrwt>
<pdfrwt beam="1">  1       21 0.23489128E-01 0.17423319E+03</pdfrwt>
<pdfrwt beam="2">  1       21 0.32021158E-01 0.17423319E+03</pdfrwt>
<totfact> 0.16090406E+05</totfact>
</mgrwt>
</event>
<event>
 4    1  0.4072310E+000  0.1840666E+03  0.7546771E-02  0.1163924E+00
         21   -1    0    0  503  502  0.00000000000E+00  0.00000000000E+00  0.11530801513E+03  0.11530801513E+03  0.00000000000E+00 0. -1.
         21   -1    0    0  501  503 -0.00000000000E+00 -0.00000000000E+00 -0.33153403851E+03  0.33153403851E+03  0.00000000000E+00 0. -1.
          6    1    1    2  501    0 -0.12377801668E+01  0.62848901636E+02 -0.18346171271E+03  0.25988212052E+03  0.17300000000E+03 0. -1.
         -6    1    1    2    0  502  0.12377801668E+01 -0.62848901636E+02 -0.32764310675E+02  0.18695993312E+03  0.17300000000E+03 0. -1.
<mgrwt>
<rscale>  2 0.18406661E+03</rscale>
<asrwt>0</asrwt>
<pdfrwt beam="1">  1       21 0.17739695E-01 0.18406661E+03</pdfrwt>
<pdfrwt beam="2">  1       21 0.51005235E-01 0.18406661E+03</pdfrwt>
<totfact> 0.10575997E+05</totfact>
</mgrwt>
</event>
<event>
 4    1  0.4072310E+000  0.1794074E+03  0.7546771E-02  0.1168378E+00
         21   -1    0    0  501  502  0.00000000000E+00  0.00000000000E+00  0.10894052352E+04  0.10894052352E+04  0.00000000000E+00 0. -1.
         21   -1    0    0  502  503 -0.00000000000E+00 -0.00000000000E+00 -0.41821753991E+02  0.41821753991E+02  0.00000000000E+00 0.  1.
          6    1    1    2  501    0 -0.34853698526E+01  0.47390622034E+02  0.83023609913E+03  0.84939919894E+03  0.17300000000E+03 0. -1.
         -6    1    1    2    0  503  0.34853698526E+01 -0.47390622034E+02  0.21734738206E+03  0.28182779024E+03  0.17300000000E+03 0.  1.
<mgrwt>
<rscale>  2 0.17940741E+03</rscale>
<asrwt>0</asrwt>
<pdfrwt beam="1">  1       21 0.16760078E+00 0.17940741E+03</pdfrwt>
<pdfrwt beam="2">  1       21 0.64341168E-02 0.17940741E+03</pdfrwt>
<totfact> 0.39129813E+04</totfact>
</mgrwt>
</event>
<event>
 4    1  0.4072310E+000  0.1768199E+03  0.7546771E-02  0.1170917E+00
         21   -1    0    0  501  502  0.00000000000E+00  0.00000000000E+00  0.95704550761E+02  0.95704550761E+02  0.00000000000E+00 0. -1.
         21   -1    0    0  502  503 -0.00000000000E+00 -0.00000000000E+00 -0.34219292383E+03  0.34219292383E+03  0.00000000000E+00 0. -1.
          6    1    1    2  501    0 -0.27521834708E+02  0.24058525807E+02 -0.76634045820E+02  0.19271232713E+03  0.17300000000E+03 0. -1.
         -6    1    1    2    0  503  0.27521834708E+02 -0.24058525807E+02 -0.16985432725E+03  0.24518514746E+03  0.17300000000E+03 0. -1.
<mgrwt>
<rscale>  2 0.17681986E+03</rscale>
<asrwt>0</asrwt>
<pdfrwt beam="1">  1       21 0.14723777E-01 0.17681986E+03</pdfrwt>
<pdfrwt beam="2">  1       21 0.52645065E-01 0.17681986E+03</pdfrwt>
<totfact> 0.13954768E+05</totfact>
</mgrwt>
</event>
<event>
 4    1  0.4072310E+000  0.2849822E+03  0.7546771E-02  0.1092998E+00
         21   -1    0    0  501  502  0.00000000000E+00  0.00000000000E+00  0.28253868013E+03  0.28253868013E+03  0.00000000000E+00 0.  1.
         21   -1    0    0  502  503 -0.00000000000E+00 -0.00000000000E+00 -0.53173350152E+03  0.53173350152E+03  0.00000000000E+00 0.  1.
          6    1    1    2  501    0  0.22406307944E+03  0.32887483164E+02  0.15136025959E+03  0.32268371248E+03  0.17300000000E+03 0.  1.
         -6    1    1    2    0  503 -0.22406307944E+03 -0.32887483164E+02 -0.40055508099E+03  0.49158846917E+03  0.17300000000E+03 0.  1.
<mgrwt>
<rscale>  2 0.28498219E+03</rscale>
<asrwt>0</asrwt>
<pdfrwt beam="1">  1       21 0.43467490E-01 0.28498219E+03</pdfrwt>
<pdfrwt beam="2">  1       21 0.81805153E-01 0.28498219E+03</pdfrwt>
<totfact> 0.62749487E+03</totfact>
</mgrwt>
</event>
<event>
 4    1  0.4072310E+000  0.1811659E+03  0.7546771E-02  0.1166679E+00
         21   -1    0    0  503  502  0.00000000000E+00  0.00000000000E+00  0.13389721367E+04  0.13389721367E+04  0.00000000000E+00 0. -1.
         21   -1    0    0  501  503 -0.00000000000E+00 -0.00000000000E+00 -0.26043305662E+02  0.26043305662E+02  0.00000000000E+00 0. -1.
          6    1    1    2  501    0 -0.16596530899E+02  0.51153077318E+02  0.49097524489E+03  0.52333332901E+03  0.17300000000E+03 0. -1.
         -6    1    1    2    0  502  0.16596530899E+02 -0.51153077318E+02  0.82195358614E+03  0.84168211334E+03  0.17300000000E+03 0. -1.
<mgrwt>
<rscale>  2 0.18116590E+03</rscale>
<asrwt>0</asrwt>
<pdfrwt beam="1">  1       21 0.20599566E+00 0.18116590E+03</pdfrwt>
<pdfrwt beam="2">  1       21 0.40066635E-02 0.18116590E+03</pdfrwt>
<totfact> 0.48425670E+04</totfact>
</mgrwt>
</event>
<event>
 4    1  0.4072310E+000  0.1898994E+03  0.7546771E-02  0.1158552E+00
         21   -1    0    0  503  502  0.00000000000E+00  0.00000000000E+00  0.24963623097E+03  0.24963623097E+03  0.00000000000E+00 0. -1.
         21   -1    0    0  501  503 -0.00000000000E+00 -0.00000000000E+00 -0.14722939809E+03  0.14722939809E+03  0.00000000000E+00 0. -1.
          6    1    1    2  501    0 -0.53265978199E+02  0.57406552396E+02  0.23975132254E+02  0.19140685374E+03  0.17300000000E+03 0. -1.
         -6    1    1    2    0  502  0.53265978199E+02 -0.57406552396E+02  0.78431700632E+02  0.20545877532E+03  0.17300000000E+03 0. -1.
<mgrwt>
<rscale>  2 0.18989939E+03</rscale>
<asrwt>0</asrwt>
<pdfrwt beam="1">  1       21 0.38405574E-01 0.18989939E+03</pdfrwt>
<pdfrwt beam="2">  1       21 0.22650677E-01 0.18989939E+03</pdfrwt>
<totfact> 0.11956335E+05</totfact>
</mgrwt>
</event>
<event>
 4    1  0.4072310E+000  0.2399698E+03  0.7546771E-02  0.1119813E+00
         21   -1    0    0  503  502  0.00000000000E+00  0.00000000000E+00  0.29819480058E+03  0.29819480058E+03  0.00000000000E+00 0.  1.
         21   -1    0    0  501  503 -0.00000000000E+00 -0.00000000000E+00 -0.19368993737E+03  0.19368993737E+03  0.00000000000E+00 0. -1.
          6    1    1    2  501    0  0.55957019060E+02 -0.15660564179E+03  0.65666581084E+02  0.24879231277E+03  0.17300000000E+03 0. -1.
         -6    1    1    2    0  502 -0.55957019060E+02  0.15660564179E+03  0.38838282130E+02  0.24309242518E+03  0.17300000000E+03 0. -1.
<mgrwt>
<rscale>  2 0.23996982E+03</rscale>
<asrwt>0</asrwt>
<pdfrwt beam="1">  1       21 0.45876123E-01 0.23996982E+03</pdfrwt>
<pdfrwt beam="2">  1       21 0.29798452E-01 0.23996982E+03</pdfrwt>
<totfact> 0.48119821E+04</totfact>
</mgrwt>
</event>
<event>
 4    1  0.4072310E+000  0.2221577E+03  0.7546771E-02  0.1132285E+00
         21   -1    0    0  503  502  0.00000000000E+00  0.00000000000E+00  0.92452495135E+02  0.92452495135E+02  0.00000000000E+00 0.  1.
         21   -1    0    0  501  503 -0.00000000000E+00 -0.00000000000E+00 -0.68885839781E+03  0.68885839781E+03  0.00000000000E+00 0.  1.
          6    1    1    2  501    0 -0.10891940290E+03 -0.86957621772E+02 -0.48352721335E+03  0.53212087947E+03  0.17300000000E+03 0.  1.
         -6    1    1    2    0  502  0.10891940290E+03  0.86957621772E+02 -0.11287868932E+03  0.24919001347E+03  0.17300000000E+03 0.  1.
<mgrwt>
<rscale>  2 0.22215775E+03</rscale>
<asrwt>0</asrwt>
<pdfrwt beam="1">  1       21 0.14223461E-01 0.22215775E+03</pdfrwt>
<pdfrwt beam="2">  1       21 0.10597822E+00 0.22215775E+03</pdfrwt>
<totfact> 0.30368188E+04</totfact>
</mgrwt>
</event>
<event>
 4    1  0.4072310E+000  0.2412099E+03  0.7546771E-02  0.1118989E+00
         21   -1    0    0  503  502  0.00000000000E+00  0.00000000000E+00  0.74179678878E+02  0.74179678878E+02  0.00000000000E+00 0.  1.
         21   -1    0    0  501  503 -0.00000000000E+00 -0.00000000000E+00 -0.12007684954E+04  0.12007684954E+04  0.00000000000E+00 0. -1.
          6    1    1    2  501    0 -0.14041719215E+03 -0.92391722638E+02 -0.93870127041E+03  0.96919672582E+03  0.17300000000E+03 0. -1.
         -6    1    1    2    0  502  0.14041719215E+03  0.92391722638E+02 -0.18788754616E+03  0.30575144851E+03  0.17300000000E+03 0.  1.
<mgrwt>
<rscale>  2 0.24120990E+03</rscale>
<asrwt>0</asrwt>
<pdfrwt beam="1">  1       21 0.11412260E-01 0.24120990E+03</pdfrwt>
<pdfrwt beam="2">  1       21 0.18473359E+00 0.24120990E+03</pdfrwt>
<totfact> 0.10466959E+04</totfact>
</mgrwt>
</event>
<event>
 4    1  0.4072310E+000  0.2209966E+03  0.7546771E-02  0.1133142E+00
         21   -1    0    0  501  502  0.00000000000E+00  0.00000000000E+00  0.17478696746E+03  0.17478696746E+03  0.00000000000E+00 0. -1.
         21   -1    0    0  502  503 -0.00000000000E+00 -0.00000000000E+00 -0.33867195810E+03  0.33867195810E+03  0.00000000000E+00 0.  1.
          6    1    1    2  501    0 -0.12794504460E+03  0.50404100909E+02  0.25438212504E+02  0.22245586187E+03  0.17300000000E+03 0.  1.
         -6    1    1    2    0  503  0.12794504460E+03 -0.50404100909E+02 -0.18932320315E+03  0.29100306369E+03  0.17300000000E+03 0.  1.
<mgrwt>
<rscale>  2 0.22099662E+03</rscale>
<asrwt>0</asrwt>
<pdfrwt beam="1">  1       21 0.26890303E-01 0.22099662E+03</pdfrwt>
<pdfrwt beam="2">  1       21 0.52103377E-01 0.22099662E+03</pdfrwt>
<totfact> 0.45417799E+04</totfact>
</mgrwt>
</event>
<event>
 4    1  0.4072310E+000  0.2002708E+03  0.7546771E-02  0.1149511E+00
         21   -1    0    0  503  502  0.00000000000E+00  0.00000000000E+00  0.54263770576E+02  0.54263770576E+02  0.00000000000E+00 0. -1.
         21   -1    0    0  501  503 -0.00000000000E+00 -0.00000000000E+00 -0.76213944137E+03  0.76213944137E+03  0.00000000000E+00 0. -1.
          6    1    1    2  501    0  0.16696807803E+02  0.99501888289E+02 -0.42485249236E+03  0.46968931159E+03  0.17300000000E+03 0. -1.
         -6    1    1    2    0  502 -0.16696807803E+02 -0.99501888289E+02 -0.28302317843E+03  0.34671390035E+03  0.17300000000E+03 0. -1.
<mgrwt>
<rscale>  2 0.20027084E+03</rscale>
<asrwt>0</asrwt>
<pdfrwt beam="1">  1       21 0.83482717E-02 0.20027084E+03</pdfrwt>
<pdfrwt beam="2">  1       21 0.11725223E+00 0.20027084E+03</pdfrwt>
<totfact> 0.62055496E+04</totfact>
</mgrwt>
</event>
<event>
 4    1  0.4072310E+000  0.2471694E+03  0.7546771E-02  0.1115107E+00
         21   -1    0    0  503  502  0.00000000000E+00  0.00000000000E+00  0.68711783468E+03  0.68711783468E+03  0.00000000000E+00 0. -1.
         21   -1    0    0  501  503 -0.00000000000E+00 -0.00000000000E+00 -0.91443771202E+02  0.91443771202E+02  0.00000000000E+00 0. -1.
          6    1    1    2  501    0  0.16115395962E+02  0.17579535533E+03  0.23305768112E+03  0.33971840644E+03  0.17300000000E+03 0. -1.
         -6    1    1    2    0  502 -0.16115395962E+02 -0.17579535533E+03  0.36261638235E+03  0.43884319944E+03  0.17300000000E+03 0. -1.
<mgrwt>
<rscale>  2 0.24716940E+03</rscale>
<asrwt>0</asrwt>
<pdfrwt beam="1">  1       21 0.10571043E+00 0.24716940E+03</pdfrwt>
<pdfrwt beam="2">  1       21 0.14068273E-01 0.24716940E+03</pdfrwt>
<totfact> 0.30788290E+04</totfact>
</mgrwt>
</event>
<event>
 4    1  0.4072310E+000  0.2078683E+03  0.7546771E-02  0.1143265E+00
         21   -1    0    0  501  502  0.00000000000E+00  0.00000000000E+00  0.49384302068E+03  0.49384302068E+03  0.00000000000E+00 0.  1.
         21   -1    0    0  502  503 -0.00000000000E+00 -0.00000000000E+00 -0.10624332350E+03  0.10624332350E+03  0.00000000000E+00 0.  1.
          6    1    1    2  501    0 -0.10966674558E+03 -0.35403962543E+02  0.31983851835E+03  0.38145237379E+03  0.17300000000E+03 0. -1.
         -6    1    1    2    0  503  0.10966674558E+03  0.35403962543E+02  0.67761178830E+02  0.21863397039E+03  0.17300000000E+03 0. -1.
<mgrwt>
<rscale>  2 0.20786831E+03</rscale>
<asrwt>0</asrwt>
<pdfrwt beam="1">  1       21 0.75975848E-01 0.20786831E+03</pdfrwt>
<pdfrwt beam="2">  1       21 0.16345127E-01 0.20786831E+03</pdfrwt>
<totfact> 0.51407628E+04</totfact>
</mgrwt>
</event>
<event>
 4    1  0.4072310E+000  0.1928336E+03  0.7546771E-02  0.1155930E+00
         21   -1    0    0  503  502  0.00000000000E+00  0.00000000000E+00  0.58081459920E+02  0.58081459920E+02  0.00000000000E+00 0. -1.
         21   -1    0    0  501  503 -0.00000000000E+00 -0.00000000000E+00 -0.64022013113E+03  0.64022013113E+03  0.00000000000E+00 0. -1.
          6    1    1    2  501    0  0.72993291528E+02 -0.43906440025E+02 -0.29043225614E+03  0.34861969464E+03  0.17300000000E+03 0. -1.
         -6    1    1    2    0  502 -0.72993291528E+02  0.43906440025E+02 -0.29170641507E+03  0.34968189641E+03  0.17300000000E+03 0. -1.
<mgrwt>
<rscale>  2 0.19283360E+03</rscale>
<asrwt>0</asrwt>
<pdfrwt beam="1">  1       21 0.89356094E-02 0.19283360E+03</pdfrwt>
<pdfrwt beam="2">  1       21 0.98495402E-01 0.19283360E+03</pdfrwt>
<totfact> 0.84172284E+04</totfact>
</mgrwt>
</event>
<event>
 4    1  0.4072310E+000  0.1844493E+03  0.7546771E-02  0.1163565E+00
         21   -1    0    0  501  502  0.00000000000E+00  0.00000000000E+00  0.12918861504E+03  0.12918861504E+03  0.00000000000E+00 0. -1.
         21   -1    0    0  502  503 -0.00000000000E+00 -0.00000000000E+00 -0.39283900336E+03  0.39283900336E+03  0.00000000000E+00 0. -1.
          6    1    1    2  501    0  0.51288062778E+01 -0.63766934713E+02  0.18031607657E+02  0.18532853394E+03  0.17300000000E+03 0. -1.
         -6    1    1    2    0  503 -0.51288062778E+01  0.63766934713E+02 -0.28168199597E+03  0.33669908446E+03  0.17300000000E+03 0. -1.
<mgrwt>
<rscale>  2 0.18444925E+03</rscale>
<asrwt>0</asrwt>
<pdfrwt beam="1">  1       21 0.19875172E-01 0.18444925E+03</pdfrwt>
<pdfrwt beam="2">  1       21 0.60436770E-01 0.18444925E+03</pdfrwt>
<totfact> 0.59799942E+04</totfact>
</mgrwt>
</event>
<event>
 4    1  0.4072310E+000  0.2119967E+03  0.7546771E-02  0.1139994E+00
         21   -1    0    0  501  502  0.00000000000E+00  0.00000000000E+00  0.57884191034E+03  0.57884191034E+03  0.00000000000E+00 0.  1.
         21   -1    0    0  502  503 -0.00000000000E+00 -0.00000000000E+00 -0.13203596511E+03  0.13203596511E+03  0.00000000000E+00 0.  1.
          6    1    1    2  501    0 -0.56448860287E+01  0.12239991373E+03  0.45153861180E+03  0.49882834880E+03  0.17300000000E+03 0.  1.
         -6    1    1    2    0  503  0.56448860287E+01 -0.12239991373E+03 -0.47326665647E+01  0.21204952665E+03  0.17300000000E+03 0.  1.
<mgrwt>
<rscale>  2 0.21199671E+03</rscale>
<asrwt>0</asrwt>
<pdfrwt beam="1">  1       21 0.89052600E-01 0.21199671E+03</pdfrwt>
<pdfrwt beam="2">  1       21 0.20313226E-01 0.21199671E+03</pdfrwt>
<totfact> 0.23868581E+04</totfact>
</mgrwt>
</event>
<event>
 4    1  0.4072310E+000  0.1764927E+03  0.7546771E-02  0.1171241E+00
         21   -1    0    0  501  502  0.00000000000E+00  0.00000000000E+00  0.12464265706E+03  0.12464265706E+03  0.00000000000E+00 0.  1.
         21   -1    0    0  502  503 -0.00000000000E+00 -0.00000000000E+00 -0.50561263223E+03  0.50561263223E+03  0.00000000000E+00 0.  1.
          6    1    1    2  501    0 -0.25014763738E+02 -0.24391136876E+02  0.33615937400E+02  0.17966551481E+03  0.17300000000E+03 0.  1.
         -6    1    1    2    0  503  0.25014763738E+02  0.24391136876E+02 -0.41458591257E+03  0.45058977448E+03  0.17300000000E+03 0.  1.
<mgrwt>
<rscale>  2 0.17649268E+03</rscale>
<asrwt>0</asrwt>
<pdfrwt beam="1">  1       21 0.19175794E-01 0.17649268E+03</pdfrwt>
<pdfrwt beam="2">  1       21 0.77786558E-01 0.17649268E+03</pdfrwt>
<totfact> 0.36892950E+04</totfact>
</mgrwt>
</event>
<event>
 4    1  0.4072310E+000  0.3042300E+03  0.7546771E-02  0.1083145E+00
         21   -1    0    0  503  502  0.00000000000E+00  0.00000000000E+00  0.65231906777E+03  0.65231906777E+03  0.00000000000E+00 0.  1.
         21   -1    0    0  501  503 -0.00000000000E+00 -0.00000000000E+00 -0.15014145183E+03  0.15014145183E+03  0.00000000000E+00 0. -1.
          6    1    1    2  501    0  0.24726753711E+03  0.38544343686E+02  0.15701360567E+03  0.34235825345E+03  0.17300000000E+03 0. -1.
         -6    1    1    2    0  502 -0.24726753711E+03 -0.38544343686E+02  0.34516401027E+03  0.46010226616E+03  0.17300000000E+03 0.  1.
<mgrwt>
<rscale>  2 0.30423001E+03</rscale>
<asrwt>0</asrwt>
<pdfrwt beam="1">  1       21 0.10035678E+00 0.30423001E+03</pdfrwt>
<pdfrwt beam="2">  1       21 0.23098685E-01 0.30423001E+03</pdfrwt>
<totfact> 0.13488591E+04</totfact>
</mgrwt>
</event>
<event>
 4    1  0.4072310E+000  0.2042521E+03  0.7546771E-02  0.1146200E+00
         21   -1    0    0  501  502  0.00000000000E+00  0.00000000000E+00  0.34377854854E+03  0.34377854854E+03  0.00000000000E+00 0.  1.
         21   -1    0    0  502  503 -0.00000000000E+00 -0.00000000000E+00 -0.35821846653E+03  0.35821846653E+03  0.00000000000E+00 0.  1.
          6    1    1    2  501    0 -0.10756952505E+03 -0.14788658276E+02  0.27819795525E+03  0.34512752634E+03  0.17300000000E+03 0.  1.
         -6    1    1    2    0  503  0.10756952505E+03  0.14788658276E+02 -0.29263787324E+03  0.35686948873E+03  0.17300000000E+03 0.  1.
<mgrwt>
<rscale>  2 0.20425207E+03</rscale>
<asrwt>0</asrwt>
<pdfrwt beam="1">  1       21 0.52889007E-01 0.20425207E+03</pdfrwt>
<pdfrwt beam="2">  1       21 0.55110534E-01 0.20425207E+03</pdfrwt>
<totfact> 0.10438843E+04</totfact>
</mgrwt>
</event>
<event>
 4    1  0.4072310E+000  0.1740179E+03  0.7546771E-02  0.1173721E+00
         21   -1    0    0  501  502  0.00000000000E+00  0.00000000000E+00  0.14413069471E+03  0.14413069471E+03  0.00000000000E+00 0. -1.
         21   -1    0    0  502  503 -0.00000000000E+00 -0.00000000000E+00 -0.21067891556E+03  0.21067891556E+03  0.00000000000E+00 0. -1.
          6    1    1    2  501    0 -0.18620506421E+02  0.25490166861E+01 -0.23994732313E+02  0.17566436157E+03  0.17300000000E+03 0. -1.
         -6    1    1    2    0  503  0.18620506421E+02 -0.25490166861E+01 -0.42553488541E+02  0.17914524870E+03  0.17300000000E+03 0. -1.
<mgrwt>
<rscale>  2 0.17401787E+03</rscale>
<asrwt>0</asrwt>
<pdfrwt beam="1">  1       21 0.22173953E-01 0.17401787E+03</pdfrwt>
<pdfrwt beam="2">  1       21 0.32412141E-01 0.17401787E+03</pdfrwt>
<totfact> 0.17517967E+05</totfact>
</mgrwt>
</event>
<event>
 4    1  0.4072310E+000  0.2546154E+03  0.7546771E-02  0.1110422E+00
         21   -1    0    0  501  502  0.00000000000E+00  0.00000000000E+00  0.14242346248E+04  0.14242346248E+04  0.00000000000E+00 0.  1.
         21   -1    0    0  502  503 -0.00000000000E+00 -0.00000000000E+00 -0.45530743709E+02  0.45530743709E+02  0.00000000000E+00 0.  1.
          6    1    1    2  501    0 -0.17544769862E+03 -0.64172675275E+02  0.67730215334E+03  0.72357945944E+03  0.17300000000E+03 0.  1.
         -6    1    1    2    0  503  0.17544769862E+03  0.64172675275E+02  0.70140172773E+03  0.74618590905E+03  0.17300000000E+03 0.  1.
<mgrwt>
<rscale>  2 0.25461545E+03</rscale>
<asrwt>0</asrwt>
<pdfrwt beam="1">  1       21 0.21911299E+00 0.25461545E+03</pdfrwt>
<pdfrwt beam="2">  1       21 0.70047309E-02 0.25461545E+03</pdfrwt>
<totfact> 0.14697746E+04</totfact>
</mgrwt>
</event>
<event>
 4    1  0.4072310E+000  0.1913738E+03  0.7546771E-02  0.1157228E+00
         21   -1    0    0  503  502  0.00000000000E+00  0.00000000000E+00  0.21385850802E+03  0.21385850802E+03  0.00000000000E+00 0.  1.
         21   -1    0    0  501  503 -0.00000000000E+00 -0.00000000000E+00 -0.19002597397E+03  0.19002597397E+03  0.00000000000E+00 0.  1.
          6    1    1    2  501    0 -0.56207310131E+02  0.59461496211E+02 -0.51556310668E+02  0.19819683250E+03  0.17300000000E+03 0. -1.
         -6    1    1    2    0  502  0.56207310131E+02 -0.59461496211E+02  0.75388844723E+02  0.20568764949E+03  0.17300000000E+03 0. -1.
<mgrwt>
<rscale>  2 0.19137380E+03</rscale>
<asrwt>0</asrwt>
<pdfrwt beam="1">  1       21 0.32901309E-01 0.19137380E+03</pdfrwt>
<pdfrwt beam="2">  1       21 0.29234765E-01 0.19137380E+03</pdfrwt>
<totfact> 0.99704200E+04</totfact>
</mgrwt>
</event>
<event>
 4    1  0.4072310E+000  0.2525711E+03  0.7546771E-02  0.1111691E+00
         21   -1    0    0  503  502  0.00000000000E+00  0.00000000000E+00  0.22372658210E+03  0.22372658210E+03  0.00000000000E+00 0.  1.
         21   -1    0    0  501  503 -0.00000000000E+00 -0.00000000000E+00 -0.30190801221E+03  0.30190801221E+03  0.00000000000E+00 0.  1.
          6    1    1    2  501    0  0.17503906775E+03 -0.56784543426E+02 -0.10103896821E+03  0.27203130832E+03  0.17300000000E+03 0.  1.
         -6    1    1    2    0  502 -0.17503906775E+03  0.56784543426E+02  0.22857538099E+02  0.25360328598E+03  0.17300000000E+03 0.  1.
<mgrwt>
<rscale>  2 0.25257110E+03</rscale>
<asrwt>0</asrwt>
<pdfrwt beam="1">  1       21 0.34419474E-01 0.25257110E+03</pdfrwt>
<pdfrwt beam="2">  1       21 0.46447386E-01 0.25257110E+03</pdfrwt>
<totfact> 0.35091687E+04</totfact>
</mgrwt>
</event>
<event>
 4    1  0.4072310E+000  0.2864859E+03  0.7546771E-02  0.1092198E+00
         21   -1    0    0  503  502  0.00000000000E+00  0.00000000000E+00  0.68212693167E+03  0.68212693167E+03  0.00000000000E+00 0.  1.
         21   -1    0    0  501  503 -0.00000000000E+00 -0.00000000000E+00 -0.12079309504E+03  0.12079309504E+03  0.00000000000E+00 0. -1.
          6    1    1    2  501    0 -0.13598932862E+03  0.18344507304E+03  0.25556901410E+03  0.38391367948E+03  0.17300000000E+03 0. -1.
         -6    1    1    2    0  502  0.13598932862E+03 -0.18344507304E+03  0.30576482254E+03  0.41900634724E+03  0.17300000000E+03 0.  1.
<mgrwt>
<rscale>  2 0.28648594E+03</rscale>
<asrwt>0</asrwt>
<pdfrwt beam="1">  1       21 0.10494260E+00 0.28648594E+03</pdfrwt>
<pdfrwt beam="2">  1       21 0.18583553E-01 0.28648594E+03</pdfrwt>
<totfact> 0.18413365E+04</totfact>
</mgrwt>
</event>
<event>
 4    1  0.4072310E+000  0.1785503E+03  0.7546771E-02  0.1169214E+00
         21   -1    0    0  501  502  0.00000000000E+00  0.00000000000E+00  0.37558109197E+03  0.37558109197E+03  0.00000000000E+00 0. -1.
         21   -1    0    0  502  503 -0.00000000000E+00 -0.00000000000E+00 -0.95532118065E+02  0.95532118065E+02  0.00000000000E+00 0. -1.
          6    1    1    2  501    0 -0.44092814028E+02  0.26508610645E+01  0.21867304915E+03  0.28230852934E+03  0.17300000000E+03 0.  1.
         -6    1    1    2    0  503  0.44092814028E+02 -0.26508610645E+01  0.61375924755E+02  0.18880468070E+03  0.17300000000E+03 0.  1.
<mgrwt>
<rscale>  2 0.17855028E+03</rscale>
<asrwt>0</asrwt>
<pdfrwt beam="1">  1       21 0.57781706E-01 0.17855028E+03</pdfrwt>
<pdfrwt beam="2">  1       21 0.14697249E-01 0.17855028E+03</pdfrwt>
<totfact> 0.11493872E+05</totfact>
</mgrwt>
</event>
<event>
 4    1  0.4072310E+000  0.2186013E+03  0.7546771E-02  0.1134930E+00
         21   -1    0    0  503  502  0.00000000000E+00  0.00000000000E+00  0.45522820763E+03  0.45522820763E+03  0.00000000000E+00 0.  1.
         21   -1    0    0  501  503 -0.00000000000E+00 -0.00000000000E+00 -0.29838857725E+03  0.29838857725E+03  0.00000000000E+00 0.  1.
          6    1    1    2  501    0 -0.11011476426E+03 -0.75711680054E+02 -0.22495223482E+03  0.31367184725E+03  0.17300000000E+03 0.  1.
         -6    1    1    2    0  502  0.11011476426E+03  0.75711680054E+02  0.38179186520E+03  0.43994493762E+03  0.17300000000E+03 0.  1.
<mgrwt>
<rscale>  2 0.21860128E+03</rscale>
<asrwt>0</asrwt>
<pdfrwt beam="1">  1       21 0.70035109E-01 0.21860128E+03</pdfrwt>
<pdfrwt beam="2">  1       21 0.45905935E-01 0.21860128E+03</pdfrwt>
<totfact> 0.82682884E+03</totfact>
</mgrwt>
</event>
<event>
 4    1  0.4072310E+000  0.1823969E+03  0.7546771E-02  0.1165503E+00
         21   -1    0    0  503  502  0.00000000000E+00  0.00000000000E+00  0.53380786619E+03  0.53380786619E+03  0.00000000000E+00 0. -1.
         21   -1    0    0  501  503 -0.00000000000E+00 -0.00000000000E+00 -0.11129918802E+03  0.11129918802E+03  0.00000000000E+00 0. -1.
          6    1    1    2  501    0 -0.45578225419E+02  0.35528098543E+02 -0.27129332559E+01  0.18241705081E+03  0.17300000000E+03 0. -1.
         -6    1    1    2    0  502  0.45578225419E+02 -0.35528098543E+02  0.42522161143E+03  0.46269000340E+03  0.17300000000E+03 0. -1.
<mgrwt>
<rscale>  2 0.18239688E+03</rscale>
<asrwt>0</asrwt>
<pdfrwt beam="1">  1       21 0.82124285E-01 0.18239688E+03</pdfrwt>
<pdfrwt beam="2">  1       21 0.17122952E-01 0.18239688E+03</pdfrwt>
<totfact> 0.40110612E+04</totfact>
</mgrwt>
</event>
<event>
 4    1  0.4072310E+000  0.2724393E+03  0.7546771E-02  0.1099892E+00
         21   -1    0    0  501  502  0.00000000000E+00  0.00000000000E+00  0.61107083082E+03  0.61107083082E+03  0.00000000000E+00 0.  1.
         21   -1    0    0  502  503 -0.00000000000E+00 -0.00000000000E+00 -0.18490042424E+03  0.18490042424E+03  0.00000000000E+00 0.  1.
          6    1    1    2  501    0  0.91996073475E+00  0.21045980655E+03  0.44619868729E+03  0.52279675309E+03  0.17300000000E+03 0.  1.
         -6    1    1    2    0  503 -0.91996073475E+00 -0.21045980655E+03 -0.20028280709E+02  0.27317450198E+03  0.17300000000E+03 0.  1.
<mgrwt>
<rscale>  2 0.27243931E+03</rscale>
<asrwt>0</asrwt>
<pdfrwt beam="1">  1       21 0.94010896E-01 0.27243931E+03</pdfrwt>
<pdfrwt beam="2">  1       21 0.28446219E-01 0.27243931E+03</pdfrwt>
<totfact> 0.10694327E+04</totfact>
</mgrwt>
</event>
<event>
 4    1  0.4072310E+000  0.1838847E+03  0.7546771E-02  0.1164095E+00
         21   -1    0    0  501  502  0.00000000000E+00  0.00000000000E+00  0.30200963557E+02  0.30200963557E+02  0.00000000000E+00 0. -1.
         21   -1    0    0  502  503 -0.00000000000E+00 -0.00000000000E+00 -0.11864065899E+04  0.11864065899E+04  0.00000000000E+00 0. -1.
          6    1    1    2  501    0  0.12151769224E+02  0.61130334601E+02 -0.43377485322E+03  0.47114138705E+03  0.17300000000E+03 0. -1.
         -6    1    1    2    0  503 -0.12151769224E+02 -0.61130334601E+02 -0.72243077310E+03  0.74546616639E+03  0.17300000000E+03 0. -1.
<mgrwt>
<rscale>  2 0.18388470E+03</rscale>
<asrwt>0</asrwt>
<pdfrwt beam="1">  1       21 0.46463009E-02 0.18388470E+03</pdfrwt>
<pdfrwt beam="2">  1       21 0.18252414E+00 0.18388470E+03</pdfrwt>
<totfact> 0.53561408E+04</totfact>
</mgrwt>
</event>
<event>
 4    1  0.4072310E+000  0.1860295E+03  0.7546771E-02  0.1162092E+00
         21   -1    0    0  503  502  0.00000000000E+00  0.00000000000E+00  0.56042104709E+03  0.56042104709E+03  0.00000000000E+00 0. -1.
         21   -1    0    0  501  503 -0.00000000000E+00 -0.00000000000E+00 -0.73244191445E+02  0.73244191445E+02  0.00000000000E+00 0. -1.
          6    1    1    2  501    0 -0.67070215409E+02 -0.13399746825E+02  0.11808664530E+03  0.22034387400E+03  0.17300000000E+03 0. -1.
         -6    1    1    2    0  502  0.67070215409E+02  0.13399746825E+02  0.36909021035E+03  0.41332136454E+03  0.17300000000E+03 0. -1.
<mgrwt>
<rscale>  2 0.18602948E+03</rscale>
<asrwt>0</asrwt>
<pdfrwt beam="1">  1       21 0.86218620E-01 0.18602948E+03</pdfrwt>
<pdfrwt beam="2">  1       21 0.11268338E-01 0.18602948E+03</pdfrwt>
<totfact> 0.76366075E+04</totfact>
</mgrwt>
</event>
<event>
 4    1  0.4072310E+000  0.1756499E+03  0.7546771E-02  0.1172081E+00
         21   -1    0    0  503  502  0.00000000000E+00  0.00000000000E+00  0.67526469937E+02  0.67526469937E+02  0.00000000000E+00 0.  1.
         21   -1    0    0  501  503 -0.00000000000E+00 -0.00000000000E+00 -0.12470623417E+04  0.12470623417E+04  0.00000000000E+00 0.  1.
          6    1    1    2  501    0 -0.10157983100E+02  0.28647905114E+02 -0.11129752936E+04  0.11267505896E+04  0.17300000000E+03 0.  1.
         -6    1    1    2    0  502  0.10157983100E+02 -0.28647905114E+02 -0.66560578204E+02  0.18783822204E+03  0.17300000000E+03 0.  1.
<mgrwt>
<rscale>  2 0.17564990E+03</rscale>
<asrwt>0</asrwt>
<pdfrwt beam="1">  1       21 0.10388688E-01 0.17564990E+03</pdfrwt>
<pdfrwt beam="2">  1       21 0.19185575E+00 0.17564990E+03</pdfrwt>
<totfact> 0.11666880E+04</totfact>
</mgrwt>
</event>
<event>
 4    1  0.4072310E+000  0.2482784E+03  0.7546771E-02  0.1114398E+00
         21   -1    0    0  501  502  0.00000000000E+00  0.00000000000E+00  0.40090811243E+02  0.40090811243E+02  0.00000000000E+00 0. -1.
         21   -1    0    0  502  503 -0.00000000000E+00 -0.00000000000E+00 -0.15380493293E+04  0.15380493293E+04  0.00000000000E+00 0. -1.
          6    1    1    2  501    0 -0.16853946672E+03  0.57511840565E+02 -0.76300485818E+03  0.80238306142E+03  0.17300000000E+03 0. -1.
         -6    1    1    2    0  503  0.16853946672E+03 -0.57511840565E+02 -0.73495365991E+03  0.77575707915E+03  0.17300000000E+03 0. -1.
<mgrwt>
<rscale>  2 0.24827840E+03</rscale>
<asrwt>0</asrwt>
<pdfrwt beam="1">  1       21 0.61678159E-02 0.24827840E+03</pdfrwt>
<pdfrwt beam="2">  1       21 0.23662302E+00 0.24827840E+03</pdfrwt>
<totfact> 0.14362860E+04</totfact>
</mgrwt>
</event>
<event>
 4    1  0.4072310E+000  0.1759572E+03  0.7546771E-02  0.1171774E+00
         21   -1    0    0  503  502  0.00000000000E+00  0.00000000000E+00  0.94452765198E+03  0.94452765198E+03  0.00000000000E+00 0. -1.
         21   -1    0    0  501  503 -0.00000000000E+00 -0.00000000000E+00 -0.43775007219E+02  0.43775007219E+02  0.00000000000E+00 0. -1.
          6    1    1    2  501    0  0.28974398639E+02  0.13871244344E+02  0.20271452206E+03  0.26842895643E+03  0.17300000000E+03 0.  1.
         -6    1    1    2    0  502 -0.28974398639E+02 -0.13871244344E+02  0.69803812270E+03  0.71987370277E+03  0.17300000000E+03 0.  1.
<mgrwt>
<rscale>  2 0.17595717E+03</rscale>
<asrwt>0</asrwt>
<pdfrwt beam="1">  1       21 0.14531193E+00 0.17595717E+03</pdfrwt>
<pdfrwt beam="2">  1       21 0.67346172E-02 0.17595717E+03</pdfrwt>
<totfact> 0.53011670E+04</totfact>
</mgrwt>
</event>
<event>
 4    1  0.4072310E+000  0.2489789E+03  0.7546771E-02  0.1113952E+00
         21   -1    0    0  501  502  0.00000000000E+00  0.00000000000E+00  0.55788554912E+03  0.55788554912E+03  0.00000000000E+00 0. -1.
         21   -1    0    0  502  503 -0.00000000000E+00 -0.00000000000E+00 -0.11422282582E+03  0.11422282582E+03  0.00000000000E+00 0.  1.
          6    1    1    2  501    0  0.14789092079E+03  0.10094440189E+03  0.27724675389E+03  0.37263421645E+03  0.17300000000E+03 0. -1.
         -6    1    1    2    0  503 -0.14789092079E+03 -0.10094440189E+03  0.16641596941E+03  0.29947415848E+03  0.17300000000E+03 0.  1.
<mgrwt>
<rscale>  2 0.24897891E+03</rscale>
<asrwt>0</asrwt>
<pdfrwt beam="1">  1       21 0.85828544E-01 0.24897891E+03</pdfrwt>
<pdfrwt beam="2">  1       21 0.17572743E-01 0.24897891E+03</pdfrwt>
<totfact> 0.33436980E+04</totfact>
</mgrwt>
</event>
<event>
 4    1  0.4072310E+000  0.2201558E+03  0.7546771E-02  0.1133767E+00
         21   -1    0    0  501  502  0.00000000000E+00  0.00000000000E+00  0.71844561824E+03  0.71844561824E+03  0.00000000000E+00 0. -1.
         21   -1    0    0  502  503 -0.00000000000E+00 -0.00000000000E+00 -0.78462669174E+02  0.78462669174E+02  0.00000000000E+00 0. -1.
          6    1    1    2  501    0 -0.53624533488E+01 -0.13605450455E+03  0.46917958710E+03  0.51826447791E+03  0.17300000000E+03 0. -1.
         -6    1    1    2    0  503  0.53624533488E+01  0.13605450455E+03  0.17080336197E+03  0.27864380950E+03  0.17300000000E+03 0. -1.
<mgrwt>
<rscale>  2 0.22015582E+03</rscale>
<asrwt>0</asrwt>
<pdfrwt beam="1">  1       21 0.11053009E+00 0.22015582E+03</pdfrwt>
<pdfrwt beam="2">  1       21 0.12071180E-01 0.22015582E+03</pdfrwt>
<totfact> 0.36929505E+04</totfact>
</mgrwt>
</event>
<event>
 4    1  0.4072310E+000  0.2569522E+03  0.7546771E-02  0.1108988E+00
         21   -1    0    0  503  502  0.00000000000E+00  0.00000000000E+00  0.39530525002E+02  0.39530525002E+02  0.00000000000E+00 0.  1.
         21   -1    0    0  501  503 -0.00000000000E+00 -0.00000000000E+00 -0.25630994993E+04  0.25630994993E+04  0.00000000000E+00 0.  1.
          6    1    1    2  501    0 -0.98983961573E+02  0.16216542865E+03 -0.20298486505E+04  0.20460474078E+04  0.17300000000E+03 0.  1.
         -6    1    1    2    0  502  0.98983961573E+02 -0.16216542865E+03 -0.49372032380E+03  0.55658261653E+03  0.17300000000E+03 0.  1.
<mgrwt>
<rscale>  2 0.25695223E+03</rscale>
<asrwt>0</asrwt>
<pdfrwt beam="1">  1       21 0.60816192E-02 0.25695223E+03</pdfrwt>
<pdfrwt beam="2">  1       21 0.39432300E+00 0.25695223E+03</pdfrwt>
<totfact> 0.16775653E+03</totfact>
</mgrwt>
</event>
<event>
 4    1  0.4072310E+000  0.1781438E+03  0.7546771E-02  0.1169612E+00
         21   -1    0    0  503  502  0.00000000000E+00  0.00000000000E+00  0.67222319709E+02  0.67222319709E+02  0.00000000000E+00 0. -1.
         21   -1    0    0  501  503 -0.00000000000E+00 -0.00000000000E+00 -0.47320342490E+03  0.47320342490E+03  0.00000000000E+00 0. -1.
          6    1    1    2  501    0 -0.41973123348E+01  0.42291736353E+02 -0.21607824914E+03  0.28004467170E+03  0.17300000000E+03 0. -1.
         -6    1    1    2    0  502  0.41973123348E+01 -0.42291736353E+02 -0.18990285605E+03  0.26038107292E+03  0.17300000000E+03 0. -1.
<mgrwt>
<rscale>  2 0.17814379E+03</rscale>
<asrwt>0</asrwt>
<pdfrwt beam="1">  1       21 0.10341896E-01 0.17814379E+03</pdfrwt>
<pdfrwt beam="2">  1       21 0.72800525E-01 0.17814379E+03</pdfrwt>
<totfact> 0.13057042E+05</totfact>
</mgrwt>
</event>
<event>
 4    1  0.4072310E+000  0.1801690E+03  0.7546771E-02  0.1167640E+00
         21   -1    0    0  501  502  0.00000000000E+00  0.00000000000E+00  0.26393619282E+03  0.26393619282E+03  0.00000000000E+00 0.  1.
         21   -1    0    0  502  503 -0.00000000000E+00 -0.00000000000E+00 -0.12321530817E+03  0.12321530817E+03  0.00000000000E+00 0.  1.
          6    1    1    2  501    0 -0.31922188991E+02  0.38895453285E+02  0.78681818874E+02  0.19660038417E+03  0.17300000000E+03 0.  1.
         -6    1    1    2    0  503  0.31922188991E+02 -0.38895453285E+02  0.62039065777E+02  0.19055111681E+03  0.17300000000E+03 0.  1.
<mgrwt>
<rscale>  2 0.18016904E+03</rscale>
<asrwt>0</asrwt>
<pdfrwt beam="1">  1       21 0.40605568E-01 0.18016904E+03</pdfrwt>
<pdfrwt beam="2">  1       21 0.18956201E-01 0.18016904E+03</pdfrwt>
<totfact> 0.14964699E+05</totfact>
</mgrwt>
</event>
<event>
 4    1  0.4072310E+000  0.2115156E+03  0.7546771E-02  0.1140371E+00
         21   -1    0    0  503  502  0.00000000000E+00  0.00000000000E+00  0.12392588565E+03  0.12392588565E+03  0.00000000000E+00 0. -1.
         21   -1    0    0  501  503 -0.00000000000E+00 -0.00000000000E+00 -0.90879516886E+03  0.90879516886E+03  0.00000000000E+00 0.  1.
          6    1    1    2  501    0 -0.67770493718E+02  0.10107915359E+03 -0.79332355169E+03  0.82103659649E+03  0.17300000000E+03 0.  1.
         -6    1    1    2    0  502  0.67770493718E+02 -0.10107915359E+03  0.84542684876E+01  0.21168445801E+03  0.17300000000E+03 0. -1.
<mgrwt>
<rscale>  2 0.21151557E+03</rscale>
<asrwt>0</asrwt>
<pdfrwt beam="1">  1       21 0.19065522E-01 0.21151557E+03</pdfrwt>
<pdfrwt beam="2">  1       21 0.13981464E+00 0.21151557E+03</pdfrwt>
<totfact> 0.89349984E+03</totfact>
</mgrwt>
</event>
<event>
 4    1  0.4072310E+000  0.1887158E+03  0.7546771E-02  0.1159625E+00
         21   -1    0    0  503  502  0.00000000000E+00  0.00000000000E+00  0.96319398721E+02  0.96319398721E+02  0.00000000000E+00 0.  1.
         21   -1    0    0  501  503 -0.00000000000E+00 -0.00000000000E+00 -0.79016857850E+03  0.79016857850E+03  0.00000000000E+00 0.  1.
          6    1    1    2  501    0  0.38842153818E+02 -0.64621583482E+02 -0.67023989416E+03  0.69630106828E+03  0.17300000000E+03 0.  1.
         -6    1    1    2    0  502 -0.38842153818E+02  0.64621583482E+02 -0.23609285619E+02  0.19018690894E+03  0.17300000000E+03 0.  1.
<mgrwt>
<rscale>  2 0.18871582E+03</rscale>
<asrwt>0</asrwt>
<pdfrwt beam="1">  1       21 0.14818369E-01 0.18871582E+03</pdfrwt>
<pdfrwt beam="2">  1       21 0.12156439E+00 0.18871582E+03</pdfrwt>
<totfact> 0.20561363E+04</totfact>
</mgrwt>
</event>
<event>
 4    1  0.4072310E+000  0.1929170E+03  0.7546771E-02  0.1155856E+00
         21   -1    0    0  503  502  0.00000000000E+00  0.00000000000E+00  0.79665636957E+03  0.79665636957E+03  0.00000000000E+00 0. -1.
         21   -1    0    0  501  503 -0.00000000000E+00 -0.00000000000E+00 -0.49890029048E+02  0.49890029048E+02  0.00000000000E+00 0. -1.
          6    1    1    2  501    0  0.69845432408E+02 -0.49087694687E+02  0.26662869652E+03  0.32910157704E+03  0.17300000000E+03 0. -1.
         -6    1    1    2    0  502 -0.69845432408E+02  0.49087694687E+02  0.48013764400E+03  0.51744482158E+03  0.17300000000E+03 0. -1.
<mgrwt>
<rscale>  2 0.19291704E+03</rscale>
<asrwt>0</asrwt>
<pdfrwt beam="1">  1       21 0.12256251E+00 0.19291704E+03</pdfrwt>
<pdfrwt beam="2">  1       21 0.76753897E-02 0.19291704E+03</pdfrwt>
<totfact> 0.64615013E+04</totfact>
</mgrwt>
</event>
<event>
 4    1  0.4072310E+000  0.2780503E+03  0.7546771E-02  0.1096759E+00
         21   -1    0    0  503  502  0.00000000000E+00  0.00000000000E+00  0.35966486155E+03  0.35966486155E+03  0.00000000000E+00 0.  1.
         21   -1    0    0  501  503 -0.00000000000E+00 -0.00000000000E+00 -0.45392064252E+03  0.45392064252E+03  0.00000000000E+00 0. -1.
          6    1    1    2  501    0 -0.18230795497E+03 -0.11894012812E+03 -0.34228313641E+03  0.44098717668E+03  0.17300000000E+03 0. -1.
         -6    1    1    2    0  502  0.18230795497E+03  0.11894012812E+03  0.24802735544E+03  0.37259832739E+03  0.17300000000E+03 0.  1.
<mgrwt>
<rscale>  2 0.27805026E+03</rscale>
<asrwt>0</asrwt>
<pdfrwt beam="1">  1       21 0.55333056E-01 0.27805026E+03</pdfrwt>
<pdfrwt beam="2">  1       21 0.69833945E-01 0.27805026E+03</pdfrwt>
<totfact> 0.54248416E+03</totfact>
</mgrwt>
</event>
<event>
 4    1  0.4072310E+000  0.3246634E+03  0.7546771E-02  0.1073523E+00
         21   -1    0    0  503  502  0.00000000000E+00  0.00000000000E+00  0.50671107297E+03  0.50671107297E+03  0.00000000000E+00 0.  1.
         21   -1    0    0  501  503 -0.00000000000E+00 -0.00000000000E+00 -0.20859431619E+03  0.20859431619E+03  0.00000000000E+00 0. -1.
          6    1    1    2  501    0 -0.27263263864E+03  0.33893001649E+02  0.13029995545E+03  0.34983477472E+03  0.17300000000E+03 0. -1.
         -6    1    1    2    0  502  0.27263263864E+03 -0.33893001649E+02  0.16781680132E+03  0.36547061444E+03  0.17300000000E+03 0.  1.
<mgrwt>
<rscale>  2 0.32466335E+03</rscale>
<asrwt>0</asrwt>
<pdfrwt beam="1">  1       21 0.77955549E-01 0.32466335E+03</pdfrwt>
<pdfrwt beam="2">  1       21 0.32091434E-01 0.32466335E+03</pdfrwt>
<totfact> 0.12716433E+04</totfact>
</mgrwt>
</event>
<event>
 4    1  0.4072310E+000  0.1762955E+03  0.7546771E-02  0.1171437E+00
         21   -1    0    0  501  502  0.00000000000E+00  0.00000000000E+00  0.98227179015E+03  0.98227179015E+03  0.00000000000E+00 0.  1.
         21   -1    0    0  502  503 -0.00000000000E+00 -0.00000000000E+00 -0.72449270938E+02  0.72449270938E+02  0.00000000000E+00 0.  1.
          6    1    1    2  501    0 -0.32537573249E+02  0.96122726943E+01  0.85070102480E+03  0.86877633661E+03  0.17300000000E+03 0.  1.
         -6    1    1    2    0  503  0.32537573249E+02 -0.96122726943E+01  0.59121494410E+02  0.18594472448E+03  0.17300000000E+03 0.  1.
<mgrwt>
<rscale>  2 0.17629546E+03</rscale>
<asrwt>0</asrwt>
<pdfrwt beam="1">  1       21 0.15111873E+00 0.17629546E+03</pdfrwt>
<pdfrwt beam="2">  1       21 0.11146042E-01 0.17629546E+03</pdfrwt>
<totfact> 0.19843242E+04</totfact>
</mgrwt>
</event>
<event>
 4    1  0.4072310E+000  0.1978384E+03  0.7546771E-02  0.1151576E+00
         21   -1    0    0  501  502  0.00000000000E+00  0.00000000000E+00  0.10133931956E+04  0.10133931956E+04  0.00000000000E+00 0. -1.
         21   -1    0    0  502  503 -0.00000000000E+00 -0.00000000000E+00 -0.53121432226E+02  0.53121432226E+02  0.00000000000E+00 0. -1.
          6    1    1    2  501    0 -0.93685730373E+02  0.20833178717E+02  0.75872626394E+03  0.78409539024E+03  0.17300000000E+03 0. -1.
         -6    1    1    2    0  503  0.93685730373E+02 -0.20833178717E+02  0.20154549942E+03  0.28241923756E+03  0.17300000000E+03 0. -1.
<mgrwt>
<rscale>  2 0.19783841E+03</rscale>
<asrwt>0</asrwt>
<pdfrwt beam="1">  1       21 0.15590663E+00 0.19783841E+03</pdfrwt>
<pdfrwt beam="2">  1       21 0.81725288E-02 0.19783841E+03</pdfrwt>
<totfact> 0.31097804E+04</totfact>
</mgrwt>
</event>
<event>
 4    1  0.4072310E+000  0.2139655E+03  0.7546771E-02  0.1138464E+00
         21   -1    0    0  503  502  0.00000000000E+00  0.00000000000E+00  0.63163374870E+02  0.63163374870E+02  0.00000000000E+00 0. -1.
         21   -1    0    0  501  503 -0.00000000000E+00 -0.00000000000E+00 -0.86000021557E+03  0.86000021557E+03  0.00000000000E+00 0. -1.
          6    1    1    2  501    0  0.93894189653E+02 -0.83881673224E+02 -0.58142929608E+03  0.61954925574E+03  0.17300000000E+03 0. -1.
         -6    1    1    2    0  502 -0.93894189653E+02  0.83881673224E+02 -0.21540754462E+03  0.30361433470E+03  0.17300000000E+03 0. -1.
<mgrwt>
<rscale>  2 0.21396554E+03</rscale>
<asrwt>0</asrwt>
<pdfrwt beam="1">  1       21 0.97174436E-02 0.21396554E+03</pdfrwt>
<pdfrwt beam="2">  1       21 0.13230771E+00 0.21396554E+03</pdfrwt>
<totfact> 0.34859419E+04</totfact>
</mgrwt>
</event>
<event>
 4    1  0.4072310E+000  0.1964653E+03  0.7546771E-02  0.1152756E+00
         21   -1    0    0  503  502  0.00000000000E+00  0.00000000000E+00  0.93919631908E+02  0.93919631908E+02  0.00000000000E+00 0.  1.
         21   -1    0    0  501  503 -0.00000000000E+00 -0.00000000000E+00 -0.64458843796E+03  0.64458843796E+03  0.00000000000E+00 0.  1.
          6    1    1    2  501    0  0.86869939791E+02  0.33514622439E+02 -0.49763106820E+03  0.53500962272E+03  0.17300000000E+03 0.  1.
         -6    1    1    2    0  502 -0.86869939791E+02 -0.33514622439E+02 -0.53037737846E+02  0.20349844715E+03  0.17300000000E+03 0.  1.
<mgrwt>
<rscale>  2 0.19646531E+03</rscale>
<asrwt>0</asrwt>
<pdfrwt beam="1">  1       21 0.14449175E-01 0.19646531E+03</pdfrwt>
<pdfrwt beam="2">  1       21 0.99167448E-01 0.19646531E+03</pdfrwt>
<totfact> 0.35087171E+04</totfact>
</mgrwt>
</event>
<event>
 4    1  0.4072310E+000  0.1951984E+03  0.7546771E-02  0.1153855E+00
         21   -1    0    0  501  502  0.00000000000E+00  0.00000000000E+00  0.26389037982E+03  0.26389037982E+03  0.00000000000E+00 0. -1.
         21   -1    0    0  502  503 -0.00000000000E+00 -0.00000000000E+00 -0.30777316000E+03  0.30777316000E+03  0.00000000000E+00 0. -1.
          6    1    1    2  501    0 -0.21706160696E+02  0.87762592097E+02  0.18631690458E+03  0.26984517582E+03  0.17300000000E+03 0. -1.
         -6    1    1    2    0  503  0.21706160696E+02 -0.87762592097E+02 -0.23019968476E+03  0.30181836400E+03  0.17300000000E+03 0. -1.
<mgrwt>
<rscale>  2 0.19519844E+03</rscale>
<asrwt>0</asrwt>
<pdfrwt beam="1">  1       21 0.40598520E-01 0.19519844E+03</pdfrwt>
<pdfrwt beam="2">  1       21 0.47349717E-01 0.19519844E+03</pdfrwt>
<totfact> 0.24904691E+04</totfact>
</mgrwt>
</event>
<event>
 4    1  0.4072310E+000  0.1907113E+03  0.7546771E-02  0.1157821E+00
         21   -1    0    0  501  502  0.00000000000E+00  0.00000000000E+00  0.16683560174E+03  0.16683560174E+03  0.00000000000E+00 0.  1.
         21   -1    0    0  502  503 -0.00000000000E+00 -0.00000000000E+00 -0.23011842569E+03  0.23011842569E+03  0.00000000000E+00 0.  1.
          6    1    1    2  501    0  0.41740008241E+02 -0.68553328491E+02  0.13898310692E+02  0.19121702376E+03  0.17300000000E+03 0.  1.
         -6    1    1    2    0  503 -0.41740008241E+02  0.68553328491E+02 -0.77181134647E+02  0.20573700367E+03  0.17300000000E+03 0.  1.
<mgrwt>
<rscale>  2 0.19071127E+03</rscale>
<asrwt>0</asrwt>
<pdfrwt beam="1">  1       21 0.25667016E-01 0.19071127E+03</pdfrwt>
<pdfrwt beam="2">  1       21 0.35402835E-01 0.19071127E+03</pdfrwt>
<totfact> 0.11087856E+05</totfact>
</mgrwt>
</event>
<event>
 4    1  0.4072310E+000  0.3078588E+03  0.7546771E-02  0.1081377E+00
         21   -1    0    0  501  502  0.00000000000E+00  0.00000000000E+00  0.34772506978E+03  0.34772506978E+03  0.00000000000E+00 0.  1.
         21   -1    0    0  502  503 -0.00000000000E+00 -0.00000000000E+00 -0.27263043972E+03  0.27263043972E+03  0.00000000000E+00 0.  1.
          6    1    1    2  501    0  0.24628563773E+02  0.25345897544E+03  0.32672012135E+02  0.30958759465E+03  0.17300000000E+03 0.  1.
         -6    1    1    2    0  503 -0.24628563773E+02 -0.25345897544E+03  0.42422617926E+02  0.31076791485E+03  0.17300000000E+03 0.  1.
<mgrwt>
<rscale>  2 0.30785876E+03</rscale>
<asrwt>0</asrwt>
<pdfrwt beam="1">  1       21 0.53496165E-01 0.30785876E+03</pdfrwt>
<pdfrwt beam="2">  1       21 0.41943145E-01 0.30785876E+03</pdfrwt>
<totfact> 0.17079807E+04</totfact>
</mgrwt>
</event>
<event>
 4    1  0.4072310E+000  0.1879896E+03  0.7546771E-02  0.1160287E+00
         21   -1    0    0  501  502  0.00000000000E+00  0.00000000000E+00  0.12205944630E+03  0.12205944630E+03  0.00000000000E+00 0.  1.
         21   -1    0    0  502  503 -0.00000000000E+00 -0.00000000000E+00 -0.33947717395E+03  0.33947717395E+03  0.00000000000E+00 0.  1.
          6    1    1    2  501    0  0.33261092422E+02  0.65611005664E+02 -0.20193624639E+02  0.18907111575E+03  0.17300000000E+03 0.  1.
         -6    1    1    2    0  503 -0.33261092422E+02 -0.65611005664E+02 -0.19722410302E+03  0.27246550450E+03  0.17300000000E+03 0.  1.
<mgrwt>
<rscale>  2 0.18798964E+03</rscale>
<asrwt>0</asrwt>
<pdfrwt beam="1">  1       21 0.18778376E-01 0.18798964E+03</pdfrwt>
<pdfrwt beam="2">  1       21 0.52227257E-01 0.18798964E+03</pdfrwt>
<totfact> 0.90458194E+04</totfact>
</mgrwt>
</event>
<event>
 4    1  0.4072310E+000  0.1737490E+03  0.7546771E-02  0.1173994E+00
         21   -1    0    0  503  502  0.00000000000E+00  0.00000000000E+00  0.41283201733E+03  0.41283201733E+03  0.00000000000E+00 0.  1.
         21   -1    0    0  501  503 -0.00000000000E+00 -0.00000000000E+00 -0.85303054997E+02  0.85303054997E+02  0.00000000000E+00 0.  1.
          6    1    1    2  501    0  0.11670301130E+02  0.11113850111E+02  0.69660561005E+02  0.18719323533E+03  0.17300000000E+03 0.  1.
         -6    1    1    2    0  502 -0.11670301130E+02 -0.11113850111E+02  0.25786840133E+03  0.31094183700E+03  0.17300000000E+03 0.  1.
<mgrwt>
<rscale>  2 0.17374900E+03</rscale>
<asrwt>0</asrwt>
<pdfrwt beam="1">  1       21 0.63512617E-01 0.17374900E+03</pdfrwt>
<pdfrwt beam="2">  1       21 0.13123547E-01 0.17374900E+03</pdfrwt>
<totfact> 0.11533545E+05</totfact>
</mgrwt>
</event>
<event>
 4    1  0.4072310E+000  0.1778800E+03  0.7546771E-02  0.1169871E+00
         21   -1    0    0  503  502  0.00000000000E+00  0.00000000000E+00  0.54839851602E+02  0.54839851602E+02  0.00000000000E+00 0.  1.
         21   -1    0    0  501  503 -0.00000000000E+00 -0.00000000000E+00 -0.85208468048E+03  0.85208468048E+03  0.00000000000E+00 0.  1.
          6    1    1    2  501    0  0.61335223262E+01  0.40922947401E+02 -0.65628508137E+03  0.67996427535E+03  0.17300000000E+03 0.  1.
         -6    1    1    2    0  502 -0.61335223262E+01 -0.40922947401E+02 -0.14095974751E+03  0.22696025674E+03  0.17300000000E+03 0.  1.
<mgrwt>
<rscale>  2 0.17788004E+03</rscale>
<asrwt>0</asrwt>
<pdfrwt beam="1">  1       21 0.84369012E-02 0.17788004E+03</pdfrwt>
<pdfrwt beam="2">  1       21 0.13108994E+00 0.17788004E+03</pdfrwt>
<totfact> 0.46666040E+04</totfact>
</mgrwt>
</event>
<event>
 4    1  0.4072310E+000  0.1941585E+03  0.7546771E-02  0.1154763E+00
         21   -1    0    0  503  502  0.00000000000E+00  0.00000000000E+00  0.92587788860E+02  0.92587788860E+02  0.00000000000E+00 0.  1.
         21   -1    0    0  501  503 -0.00000000000E+00 -0.00000000000E+00 -0.41113919892E+03  0.41113919892E+03  0.00000000000E+00 0. -1.
          6    1    1    2  501    0 -0.49500001924E+02 -0.72926392113E+02 -0.13447957799E+03  0.23618269571E+03  0.17300000000E+03 0.  1.
         -6    1    1    2    0  502  0.49500001924E+02  0.72926392113E+02 -0.18407183208E+03  0.26754429207E+03  0.17300000000E+03 0. -1.
<mgrwt>
<rscale>  2 0.19415846E+03</rscale>
<asrwt>0</asrwt>
<pdfrwt beam="1">  1       21 0.14244275E-01 0.19415846E+03</pdfrwt>
<pdfrwt beam="2">  1       21 0.63252186E-01 0.19415846E+03</pdfrwt>
<totfact> 0.99589456E+04</totfact>
</mgrwt>
</event>
<event>
 4    1  0.4072310E+000  0.2558677E+03  0.7546771E-02  0.1109652E+00
         21   -1    0    0  501  502  0.00000000000E+00  0.00000000000E+00  0.60482807997E+02  0.60482807997E+02  0.00000000000E+00 0.  1.
         21   -1    0    0  502  503 -0.00000000000E+00 -0.00000000000E+00 -0.12595091236E+04  0.12595091236E+04  0.00000000000E+00 0.  1.
          6    1    1    2  501    0 -0.16238037117E+03 -0.95769953188E+02 -0.35204058049E+03  0.43520206708E+03  0.17300000000E+03 0.  1.
         -6    1    1    2    0  503  0.16238037117E+03  0.95769953188E+02 -0.84698573508E+03  0.88478986449E+03  0.17300000000E+03 0.  1.
<mgrwt>
<rscale>  2 0.25586768E+03</rscale>
<asrwt>0</asrwt>
<pdfrwt beam="1">  1       21 0.93050481E-02 0.25586768E+03</pdfrwt>
<pdfrwt beam="2">  1       21 0.19377062E+00 0.25586768E+03</pdfrwt>
<totfact> 0.12977948E+04</totfact>
</mgrwt>
</event>
<event>
 4    1  0.4072310E+000  0.1849467E+03  0.7546771E-02  0.1163100E+00
         21   -1    0    0  501  502  0.00000000000E+00  0.00000000000E+00  0.76567037209E+03  0.76567037209E+03  0.00000000000E+00 0. -1.
         21   -1    0    0  502  503 -0.00000000000E+00 -0.00000000000E+00 -0.74397565505E+02  0.74397565505E+02  0.00000000000E+00 0. -1.
          6    1    1    2  501    0 -0.58866128961E+02 -0.28479390024E+02  0.61113241284E+03  0.63850459890E+03  0.17300000000E+03 0. -1.
         -6    1    1    2    0  503  0.58866128961E+02  0.28479390024E+02  0.80140393744E+02  0.20156333869E+03  0.17300000000E+03 0. -1.
<mgrwt>
<rscale>  2 0.18494674E+03</rscale>
<asrwt>0</asrwt>
<pdfrwt beam="1">  1       21 0.11779544E+00 0.18494674E+03</pdfrwt>
<pdfrwt beam="2">  1       21 0.11445780E-01 0.18494674E+03</pdfrwt>
<totfact> 0.35452824E+04</totfact>
</mgrwt>
</event>
<event>
 4    1  0.4072310E+000  0.2059565E+03  0.7546771E-02  0.1144809E+00
         21   -1    0    0  501  502  0.00000000000E+00  0.00000000000E+00  0.20458470636E+03  0.20458470636E+03  0.00000000000E+00 0.  1.
         21   -1    0    0  502  503 -0.00000000000E+00 -0.00000000000E+00 -0.30801347004E+03  0.30801347004E+03  0.00000000000E+00 0.  1.
          6    1    1    2  501    0 -0.65022474655E+02  0.90890945493E+02  0.94815118626E+02  0.22673330788E+03  0.17300000000E+03 0.  1.
         -6    1    1    2    0  503  0.65022474655E+02 -0.90890945493E+02 -0.19824388231E+03  0.28586486852E+03  0.17300000000E+03 0.  1.
<mgrwt>
<rscale>  2 0.20595652E+03</rscale>
<asrwt>0</asrwt>
<pdfrwt beam="1">  1       21 0.31474570E-01 0.20595652E+03</pdfrwt>
<pdfrwt beam="2">  1       21 0.47386688E-01 0.20595652E+03</pdfrwt>
<totfact> 0.41050646E+04</totfact>
</mgrwt>
</event>
<event>
 4    1  0.4072310E+000  0.1798601E+03  0.7546771E-02  0.1167938E+00
         21   -1    0    0  501  502  0.00000000000E+00  0.00000000000E+00  0.82256397680E+03  0.82256397680E+03  0.00000000000E+00 0. -1.
         21   -1    0    0  502  503 -0.00000000000E+00 -0.00000000000E+00 -0.41870050033E+02  0.41870050033E+02  0.00000000000E+00 0. -1.
          6    1    1    2  501    0  0.46426971360E+02  0.16285111429E+02  0.49684838657E+03  0.52840135102E+03  0.17300000000E+03 0. -1.
         -6    1    1    2    0  503 -0.46426971360E+02 -0.16285111429E+02  0.28384554020E+03  0.33603267581E+03  0.17300000000E+03 0. -1.
<mgrwt>
<rscale>  2 0.17986014E+03</rscale>
<asrwt>0</asrwt>
<pdfrwt beam="1">  1       21 0.12654829E+00 0.17986014E+03</pdfrwt>
<pdfrwt beam="2">  1       21 0.64415468E-02 0.17986014E+03</pdfrwt>
<totfact> 0.81226719E+04</totfact>
</mgrwt>
</event>
<event>
 4    1  0.4072310E+000  0.3198089E+03  0.7546771E-02  0.1075737E+00
         21   -1    0    0  503  502  0.00000000000E+00  0.00000000000E+00  0.32509554131E+03  0.32509554131E+03  0.00000000000E+00 0.  1.
         21   -1    0    0  501  503 -0.00000000000E+00 -0.00000000000E+00 -0.31511372613E+03  0.31511372613E+03  0.00000000000E+00 0. -1.
          6    1    1    2  501    0  0.11428001938E+03 -0.24349297702E+03 -0.78291795562E+01  0.31990474948E+03  0.17300000000E+03 0. -1.
         -6    1    1    2    0  502 -0.11428001938E+03  0.24349297702E+03  0.17810994740E+02  0.32030451796E+03  0.17300000000E+03 0.  1.
<mgrwt>
<rscale>  2 0.31980893E+03</rscale>
<asrwt>0</asrwt>
<pdfrwt beam="1">  1       21 0.50014699E-01 0.31980893E+03</pdfrwt>
<pdfrwt beam="2">  1       21 0.48479034E-01 0.31980893E+03</pdfrwt>
<totfact> 0.14509997E+04</totfact>
</mgrwt>
</event>
<event>
 4    1  0.4072310E+000  0.2170128E+03  0.7546771E-02  0.1136130E+00
         21   -1    0    0  501  502  0.00000000000E+00  0.00000000000E+00  0.21628131372E+04  0.21628131372E+04  0.00000000000E+00 0.  1.
         21   -1    0    0  502  503 -0.00000000000E+00 -0.00000000000E+00 -0.22999419103E+02  0.22999419103E+02  0.00000000000E+00 0.  1.
          6    1    1    2  501    0  0.68660124587E+02  0.11158555386E+03  0.13221082883E+04  0.13398003115E+04  0.17300000000E+03 0.  1.
         -6    1    1    2    0  503 -0.68660124587E+02 -0.11158555386E+03  0.81770542976E+03  0.84601224483E+03  0.17300000000E+03 0.  1.
<mgrwt>
<rscale>  2 0.21701278E+03</rscale>
<asrwt>0</asrwt>
<pdfrwt beam="1">  1       21 0.33274032E+00 0.21701278E+03</pdfrwt>
<pdfrwt beam="2">  1       21 0.35383739E-02 0.21701278E+03</pdfrwt>
<totfact> 0.10338959E+04</totfact>
</mgrwt>
</event>
<event>
 4    1  0.4072310E+000  0.1811559E+03  0.7546771E-02  0.1166689E+00
         21   -1    0    0  501  502  0.00000000000E+00  0.00000000000E+00  0.55055005825E+03  0.55055005825E+03  0.00000000000E+00 0.  1.
         21   -1    0    0  502  503 -0.00000000000E+00 -0.00000000000E+00 -0.62738984226E+02  0.62738984226E+02  0.00000000000E+00 0.  1.
          6    1    1    2  501    0 -0.50912242374E+02  0.17216590930E+02  0.31240255877E+03  0.36112716065E+03  0.17300000000E+03 0.  1.
         -6    1    1    2    0  503  0.50912242374E+02 -0.17216590930E+02  0.17540851525E+03  0.25216188183E+03  0.17300000000E+03 0.  1.
<mgrwt>
<rscale>  2 0.18115592E+03</rscale>
<asrwt>0</asrwt>
<pdfrwt beam="1">  1       21 0.84700006E-01 0.18115592E+03</pdfrwt>
<pdfrwt beam="2">  1       21 0.96521518E-02 0.18115592E+03</pdfrwt>
<totfact> 0.10481075E+05</totfact>
</mgrwt>
</event>
<event>
 4    1  0.4072310E+000  0.1851064E+03  0.7546771E-02  0.1162951E+00
         21   -1    0    0  501  502  0.00000000000E+00  0.00000000000E+00  0.23419695073E+03  0.23419695073E+03  0.00000000000E+00 0. -1.
         21   -1    0    0  502  503 -0.00000000000E+00 -0.00000000000E+00 -0.16196230415E+03  0.16196230415E+03  0.00000000000E+00 0.  1.
          6    1    1    2  501    0 -0.25713276703E+02 -0.60615380256E+02  0.97702866137E+02  0.20930897490E+03  0.17300000000E+03 0. -1.
         -6    1    1    2    0  503  0.25713276703E+02  0.60615380256E+02 -0.25468219556E+02  0.18685027998E+03  0.17300000000E+03 0.  1.
<mgrwt>
<rscale>  2 0.18510645E+03</rscale>
<asrwt>0</asrwt>
<pdfrwt beam="1">  1       21 0.36030300E-01 0.18510645E+03</pdfrwt>
<pdfrwt beam="2">  1       21 0.24917278E-01 0.18510645E+03</pdfrwt>
<totfact> 0.11353361E+05</totfact>
</mgrwt>
</event>
<event>
 4    1  0.4072310E+000  0.2122759E+03  0.7546771E-02  0.1139776E+00
         21   -1    0    0  501  502  0.00000000000E+00  0.00000000000E+00  0.10143649280E+04  0.10143649280E+04  0.00000000000E+00 0. -1.
         21   -1    0    0  502  503 -0.00000000000E+00 -0.00000000000E+00 -0.48285957435E+02  0.48285957435E+02  0.00000000000E+00 0. -1.
          6    1    1    2  501    0 -0.46137265545E+02  0.11403258964E+03  0.63332363086E+03  0.66795201937E+03  0.17300000000E+03 0.  1.
         -6    1    1    2    0  503  0.46137265545E+02 -0.11403258964E+03  0.33275533970E+03  0.39469886606E+03  0.17300000000E+03 0.  1.
<mgrwt>
<rscale>  2 0.21227595E+03</rscale>
<asrwt>0</asrwt>
<pdfrwt beam="1">  1       21 0.15605613E+00 0.21227595E+03</pdfrwt>
<pdfrwt beam="2">  1       21 0.74286096E-02 0.21227595E+03</pdfrwt>
<totfact> 0.36302009E+04</totfact>
</mgrwt>
</event>
<event>
 4    1  0.4072310E+000  0.3194374E+03  0.7546771E-02  0.1075909E+00
         21   -1    0    0  503  502  0.00000000000E+00  0.00000000000E+00  0.39718669591E+03  0.39718669591E+03  0.00000000000E+00 0. -1.
         21   -1    0    0  501  503 -0.00000000000E+00 -0.00000000000E+00 -0.37361378659E+03  0.37361378659E+03  0.00000000000E+00 0.  1.
          6    1    1    2  501    0 -0.22121895075E+03  0.15222822580E+03 -0.20361448158E+03  0.37881276907E+03  0.17300000000E+03 0.  1.
         -6    1    1    2    0  502  0.22121895075E+03 -0.15222822580E+03  0.22718739090E+03  0.39198771343E+03  0.17300000000E+03 0. -1.
<mgrwt>
<rscale>  2 0.31943741E+03</rscale>
<asrwt>0</asrwt>
<pdfrwt beam="1">  1       21 0.61105645E-01 0.31943741E+03</pdfrwt>
<pdfrwt beam="2">  1       21 0.57479044E-01 0.31943741E+03</pdfrwt>
<totfact> 0.65727060E+03</totfact>
</mgrwt>
</event>
<event>
 4    1  0.4072310E+000  0.1837139E+03  0.7546771E-02  0.1164256E+00
         21   -1    0    0  501  502  0.00000000000E+00  0.00000000000E+00  0.30648307074E+03  0.30648307074E+03  0.00000000000E+00 0.  1.
         21   -1    0    0  502  503 -0.00000000000E+00 -0.00000000000E+00 -0.11192999765E+03  0.11192999765E+03  0.00000000000E+00 0.  1.
          6    1    1    2  501    0  0.61591347324E+02 -0.53206582565E+01  0.70694195138E+02  0.19684631746E+03  0.17300000000E+03 0.  1.
         -6    1    1    2    0  503 -0.61591347324E+02  0.53206582565E+01  0.12385887796E+03  0.22156675093E+03  0.17300000000E+03 0.  1.
<mgrwt>
<rscale>  2 0.18371392E+03</rscale>
<asrwt>0</asrwt>
<pdfrwt beam="1">  1       21 0.47151241E-01 0.18371392E+03</pdfrwt>
<pdfrwt beam="2">  1       21 0.17220000E-01 0.18371392E+03</pdfrwt>
<totfact> 0.13152943E+05</totfact>
</mgrwt>
</event>
<event>
 4    1  0.4072310E+000  0.1975754E+03  0.7546771E-02  0.1151801E+00
         21   -1    0    0  503  502  0.00000000000E+00  0.00000000000E+00  0.40998859566E+03  0.40998859566E+03  0.00000000000E+00 0.  1.
         21   -1    0    0  501  503 -0.00000000000E+00 -0.00000000000E+00 -0.25436952455E+03  0.25436952455E+03  0.00000000000E+00 0. -1.
          6    1    1    2  501    0  0.93158856450E+02  0.20699498167E+02 -0.18494644508E+03  0.27063116840E+03  0.17300000000E+03 0. -1.
         -6    1    1    2    0  502 -0.93158856450E+02 -0.20699498167E+02  0.34056551620E+03  0.39372695181E+03  0.17300000000E+03 0.  1.
<mgrwt>
<rscale>  2 0.19757541E+03</rscale>
<asrwt>0</asrwt>
<pdfrwt beam="1">  1       21 0.63075169E-01 0.19757541E+03</pdfrwt>
<pdfrwt beam="2">  1       21 0.39133773E-01 0.19757541E+03</pdfrwt>
<totfact> 0.14600051E+04</totfact>
</mgrwt>
</event>
<event>
 4    1  0.4072310E+000  0.1761427E+03  0.7546771E-02  0.1171589E+00
         21   -1    0    0  503  502  0.00000000000E+00  0.00000000000E+00  0.11052202943E+04  0.11052202943E+04  0.00000000000E+00 0. -1.
         21   -1    0    0  501  503 -0.00000000000E+00 -0.00000000000E+00 -0.44589927357E+02  0.44589927357E+02  0.00000000000E+00 0. -1.
          6    1    1    2  501    0 -0.23534237272E+02  0.23310514589E+02  0.18041057742E+03  0.25213928068E+03  0.17300000000E+03 0. -1.
         -6    1    1    2    0  502  0.23534237272E+02 -0.23310514589E+02  0.88021978954E+03  0.89767094100E+03  0.17300000000E+03 0. -1.
<mgrwt>
<rscale>  2 0.17614267E+03</rscale>
<asrwt>0</asrwt>
<pdfrwt beam="1">  1       21 0.17003387E+00 0.17614267E+03</pdfrwt>
<pdfrwt beam="2">  1       21 0.68599897E-02 0.17614267E+03</pdfrwt>
<totfact> 0.33765571E+04</totfact>
</mgrwt>
</event>
<event>
 4    1  0.4072310E+000  0.3012327E+03  0.7546771E-02  0.1084626E+00
         21   -1    0    0  501  502  0.00000000000E+00  0.00000000000E+00  0.16659908454E+04  0.16659908454E+04  0.00000000000E+00 0.  1.
         21   -1    0    0  502  503 -0.00000000000E+00 -0.00000000000E+00 -0.65260514482E+02  0.65260514482E+02  0.00000000000E+00 0.  1.
          6    1    1    2  501    0 -0.16033468648E+03 -0.18736316471E+03  0.11524040417E+04  0.11911239409E+04  0.17300000000E+03 0.  1.
         -6    1    1    2    0  503  0.16033468648E+03  0.18736316471E+03  0.44832628927E+03  0.54012741907E+03  0.17300000000E+03 0.  1.
<mgrwt>
<rscale>  2 0.30123275E+03</rscale>
<asrwt>0</asrwt>
<pdfrwt beam="1">  1       21 0.25630625E+00 0.30123275E+03</pdfrwt>
<pdfrwt beam="2">  1       21 0.10040080E-01 0.30123275E+03</pdfrwt>
<totfact> 0.44869690E+03</totfact>
</mgrwt>
</event>
<event>
 4    1  0.4072310E+000  0.1829284E+03  0.7546771E-02  0.1164999E+00
         21   -1    0    0  501  502  0.00000000000E+00  0.00000000000E+00  0.95379801487E+03  0.95379801487E+03  0.00000000000E+00 0. -1.
         21   -1    0    0  502  503 -0.00000000000E+00 -0.00000000000E+00 -0.70569433435E+02  0.70569433435E+02  0.00000000000E+00 0. -1.
          6    1    1    2  501    0 -0.51906484787E+02 -0.28974406245E+02  0.80481285278E+03  0.82534024946E+03  0.17300000000E+03 0. -1.
         -6    1    1    2    0  503  0.51906484787E+02  0.28974406245E+02  0.78415728658E+02  0.19902719885E+03  0.17300000000E+03 0. -1.
<mgrwt>
<rscale>  2 0.18292840E+03</rscale>
<asrwt>0</asrwt>
<pdfrwt beam="1">  1       21 0.14673815E+00 0.18292840E+03</pdfrwt>
<pdfrwt beam="2">  1       21 0.10856837E-01 0.18292840E+03</pdfrwt>
<totfact> 0.22354542E+04</totfact>
</mgrwt>
</event>
<event>
 4    1  0.4072310E+000  0.1835739E+03  0.7546771E-02  0.1164388E+00
         21   -1    0    0  503  502  0.00000000000E+00  0.00000000000E+00  0.44658712590E+02  0.44658712590E+02  0.00000000000E+00 0. -1.
         21   -1    0    0  501  503 -0.00000000000E+00 -0.00000000000E+00 -0.95726133947E+03  0.95726133947E+03  0.00000000000E+00 0. -1.
          6    1    1    2  501    0 -0.15568874628E+02  0.59396815747E+02 -0.68680373769E+03  0.71091402131E+03  0.17300000000E+03 0. -1.
         -6    1    1    2    0  502  0.15568874628E+02 -0.59396815747E+02 -0.22579888919E+03  0.29100603076E+03  0.17300000000E+03 0. -1.
<mgrwt>
<rscale>  2 0.18357389E+03</rscale>
<asrwt>0</asrwt>
<pdfrwt beam="1">  1       21 0.68705714E-02 0.18357389E+03</pdfrwt>
<pdfrwt beam="2">  1       21 0.14727097E+00 0.18357389E+03</pdfrwt>
<totfact> 0.49248345E+04</totfact>
</mgrwt>
</event>
<event>
 4    1  0.4072310E+000  0.1750440E+03  0.7546771E-02  0.1172688E+00
         21   -1    0    0  503  502  0.00000000000E+00  0.00000000000E+00  0.35246833927E+02  0.35246833927E+02  0.00000000000E+00 0.  1.
         21   -1    0    0  501  503 -0.00000000000E+00 -0.00000000000E+00 -0.11923937362E+04  0.11923937362E+04  0.00000000000E+00 0.  1.
          6    1    1    2  501    0  0.83607710252E+01 -0.25327715997E+02 -0.89808716595E+03  0.91498685965E+03  0.17300000000E+03 0.  1.
         -6    1    1    2    0  502 -0.83607710252E+01  0.25327715997E+02 -0.25905973632E+03  0.31265371047E+03  0.17300000000E+03 0.  1.
<mgrwt>
<rscale>  2 0.17504398E+03</rscale>
<asrwt>0</asrwt>
<pdfrwt beam="1">  1       21 0.54225899E-02 0.17504398E+03</pdfrwt>
<pdfrwt beam="2">  1       21 0.18344519E+00 0.17504398E+03</pdfrwt>
<totfact> 0.40883739E+04</totfact>
</mgrwt>
</event>
<event>
 4    1  0.4072310E+000  0.1946453E+03  0.7546771E-02  0.1154337E+00
         21   -1    0    0  501  502  0.00000000000E+00  0.00000000000E+00  0.96074833916E+03  0.96074833916E+03  0.00000000000E+00 0.  1.
         21   -1    0    0  502  503 -0.00000000000E+00 -0.00000000000E+00 -0.70950815642E+02  0.70950815642E+02  0.00000000000E+00 0.  1.
          6    1    1    2  501    0  0.19842798503E+02  0.86971480380E+02  0.78870287327E+03  0.81236629507E+03  0.17300000000E+03 0.  1.
         -6    1    1    2    0  503 -0.19842798503E+02 -0.86971480380E+02  0.10109465025E+03  0.21933285974E+03  0.17300000000E+03 0.  1.
<mgrwt>
<rscale>  2 0.19464525E+03</rscale>
<asrwt>0</asrwt>
<pdfrwt beam="1">  1       21 0.14780743E+00 0.19464525E+03</pdfrwt>
<pdfrwt beam="2">  1       21 0.10915511E-01 0.19464525E+03</pdfrwt>
<totfact> 0.21558542E+04</totfact>
</mgrwt>
</event>
<event>
 4    1  0.4072310E+000  0.2453244E+03  0.7546771E-02  0.1116296E+00
         21   -1    0    0  503  502  0.00000000000E+00  0.00000000000E+00  0.76902893986E+03  0.76902893986E+03  0.00000000000E+00 0.  1.
         21   -1    0    0  501  503 -0.00000000000E+00 -0.00000000000E+00 -0.11183945012E+03  0.11183945012E+03  0.00000000000E+00 0.  1.
          6    1    1    2  501    0  0.40497760026E+02 -0.16915963587E+03  0.87259027228E+02  0.26038085338E+03  0.17300000000E+03 0.  1.
         -6    1    1    2    0  502 -0.40497760026E+02  0.16915963587E+03  0.56993046251E+03  0.62048753659E+03  0.17300000000E+03 0.  1.
<mgrwt>
<rscale>  2 0.24532438E+03</rscale>
<asrwt>0</asrwt>
<pdfrwt beam="1">  1       21 0.11831214E+00 0.24532438E+03</pdfrwt>
<pdfrwt beam="2">  1       21 0.17206070E-01 0.24532438E+03</pdfrwt>
<totfact> 0.16164360E+04</totfact>
</mgrwt>
</event>
<event>
 4    1  0.4072310E+000  0.2147381E+03  0.7546771E-02  0.1137868E+00
         21   -1    0    0  501  502  0.00000000000E+00  0.00000000000E+00  0.11542413255E+03  0.11542413255E+03  0.00000000000E+00 0.  1.
         21   -1    0    0  502  503 -0.00000000000E+00 -0.00000000000E+00 -0.40356752607E+03  0.40356752607E+03  0.00000000000E+00 0.  1.
          6    1    1    2  501    0  0.12701612359E+03 -0.70949650594E+01 -0.11803360198E+03  0.24503951799E+03  0.17300000000E+03 0.  1.
         -6    1    1    2    0  503 -0.12701612359E+03  0.70949650594E+01 -0.17010979154E+03  0.27395214063E+03  0.17300000000E+03 0.  1.
<mgrwt>
<rscale>  2 0.21473806E+03</rscale>
<asrwt>0</asrwt>
<pdfrwt beam="1">  1       21 0.17757559E-01 0.21473806E+03</pdfrwt>
<pdfrwt beam="2">  1       21 0.62087313E-01 0.21473806E+03</pdfrwt>
<totfact> 0.68620654E+04</totfact>
</mgrwt>
</event>
<event>
 4    1  0.4072310E+000  0.1884380E+03  0.7546771E-02  0.1159878E+00
         21   -1    0    0  501  502  0.00000000000E+00  0.00000000000E+00  0.77363228996E+02  0.77363228996E+02  0.00000000000E+00 0. -1.
         21   -1    0    0  502  503 -0.00000000000E+00 -0.00000000000E+00 -0.55286205669E+03  0.55286205669E+03  0.00000000000E+00 0. -1.
          6    1    1    2  501    0  0.55668656724E+02  0.49808504711E+02 -0.10790374857E+03  0.21714535555E+03  0.17300000000E+03 0. -1.
         -6    1    1    2    0  503 -0.55668656724E+02 -0.49808504711E+02 -0.36759507912E+03  0.41307993013E+03  0.17300000000E+03 0. -1.
<mgrwt>
<rscale>  2 0.18843802E+03</rscale>
<asrwt>0</asrwt>
<pdfrwt beam="1">  1       21 0.11902036E-01 0.18843802E+03</pdfrwt>
<pdfrwt beam="2">  1       21 0.85055699E-01 0.18843802E+03</pdfrwt>
<totfact> 0.71380177E+04</totfact>
</mgrwt>
</event>
<event>
 4    1  0.4072310E+000  0.2017712E+03  0.7546771E-02  0.1148253E+00
         21   -1    0    0  503  502  0.00000000000E+00  0.00000000000E+00  0.96098446714E+03  0.96098446714E+03  0.00000000000E+00 0. -1.
         21   -1    0    0  501  503 -0.00000000000E+00 -0.00000000000E+00 -0.10719713460E+03  0.10719713460E+03  0.00000000000E+00 0.  1.
          6    1    1    2  501    0  0.18145967943E+01  0.10382360686E+03  0.11537829305E+02  0.20210085504E+03  0.17300000000E+03 0.  1.
         -6    1    1    2    0  502 -0.18145967943E+01 -0.10382360686E+03  0.84224950323E+03  0.86608074670E+03  0.17300000000E+03 0. -1.
<mgrwt>
<rscale>  2 0.20177124E+03</rscale>
<asrwt>0</asrwt>
<pdfrwt beam="1">  1       21 0.14784376E+00 0.20177124E+03</pdfrwt>
<pdfrwt beam="2">  1       21 0.16491867E-01 0.20177124E+03</pdfrwt>
<totfact> 0.10171829E+04</totfact>
</mgrwt>
</event>
<event>
 4    1  0.4072310E+000  0.1850928E+03  0.7546771E-02  0.1162963E+00
         21   -1    0    0  503  502  0.00000000000E+00  0.00000000000E+00  0.63756083838E+03  0.63756083838E+03  0.00000000000E+00 0.  1.
         21   -1    0    0  501  503 -0.00000000000E+00 -0.00000000000E+00 -0.58847350851E+02  0.58847350851E+02  0.00000000000E+00 0.  1.
          6    1    1    2  501    0  0.25895271000E+02  0.60496022531E+02  0.18672526240E+03  0.26291758675E+03  0.17300000000E+03 0.  1.
         -6    1    1    2    0  502 -0.25895271000E+02 -0.60496022531E+02  0.39198822512E+03  0.43349060248E+03  0.17300000000E+03 0.  1.
<mgrwt>
<rscale>  2 0.18509277E+03</rscale>
<asrwt>0</asrwt>
<pdfrwt beam="1">  1       21 0.98086278E-01 0.18509277E+03</pdfrwt>
<pdfrwt beam="2">  1       21 0.90534390E-02 0.18509277E+03</pdfrwt>
<totfact> 0.83343509E+04</totfact>
</mgrwt>
</event>
<event>
 4    1  0.4072310E+000  0.1864021E+03  0.7546771E-02  0.1161747E+00
         21   -1    0    0  501  502  0.00000000000E+00  0.00000000000E+00  0.54657945460E+02  0.54657945460E+02  0.00000000000E+00 0.  1.
         21   -1    0    0  502  503 -0.00000000000E+00 -0.00000000000E+00 -0.96361155401E+03  0.96361155401E+03  0.00000000000E+00 0.  1.
          6    1    1    2  501    0 -0.24672683669E+02  0.64869148421E+02 -0.15747175409E+03  0.24401455095E+03  0.17300000000E+03 0. -1.
         -6    1    1    2    0  503  0.24672683669E+02 -0.64869148421E+02 -0.75148185446E+03  0.77425494853E+03  0.17300000000E+03 0. -1.
<mgrwt>
<rscale>  2 0.18640211E+03</rscale>
<asrwt>0</asrwt>
<pdfrwt beam="1">  1       21 0.84089143E-02 0.18640211E+03</pdfrwt>
<pdfrwt beam="2">  1       21 0.14824794E+00 0.18640211E+03</pdfrwt>
<totfact> 0.34042086E+04</totfact>
</mgrwt>
</event>
<event>
 4    1  0.4072310E+000  0.1831993E+03  0.7546771E-02  0.1164742E+00
         21   -1    0    0  501  502  0.00000000000E+00  0.00000000000E+00  0.46411224263E+02  0.46411224263E+02  0.00000000000E+00 0. -1.
         21   -1    0    0  502  503 -0.00000000000E+00 -0.00000000000E+00 -0.89309943614E+03  0.89309943614E+03  0.00000000000E+00 0. -1.
          6    1    1    2  501    0 -0.39025572819E+02  0.45934767762E+02 -0.21842174871E+03  0.28507903910E+03  0.17300000000E+03 0. -1.
         -6    1    1    2    0  503  0.39025572819E+02 -0.45934767762E+02 -0.62826646316E+03  0.65443162130E+03  0.17300000000E+03 0. -1.
<mgrwt>
<rscale>  2 0.18319934E+03</rscale>
<asrwt>0</asrwt>
<pdfrwt beam="1">  1       21 0.71401881E-02 0.18319934E+03</pdfrwt>
<pdfrwt beam="2">  1       21 0.13739992E+00 0.18319934E+03</pdfrwt>
<totfact> 0.55168488E+04</totfact>
</mgrwt>
</event>
<event>
 4    1  0.4072310E+000  0.2165427E+03  0.7546771E-02  0.1136487E+00
         21   -1    0    0  503  502  0.00000000000E+00  0.00000000000E+00  0.12383334097E+03  0.12383334097E+03  0.00000000000E+00 0. -1.
         21   -1    0    0  501  503 -0.00000000000E+00 -0.00000000000E+00 -0.40466042186E+03  0.40466042186E+03  0.00000000000E+00 0. -1.
          6    1    1    2  501    0 -0.85571357874E+02 -0.98179820983E+02 -0.20739499772E+03  0.29983898949E+03  0.17300000000E+03 0. -1.
         -6    1    1    2    0  502  0.85571357874E+02  0.98179820983E+02 -0.73432083164E+02  0.22865477335E+03  0.17300000000E+03 0. -1.
<mgrwt>
<rscale>  2 0.21654269E+03</rscale>
<asrwt>0</asrwt>
<pdfrwt beam="1">  1       21 0.19051283E-01 0.21654269E+03</pdfrwt>
<pdfrwt beam="2">  1       21 0.62255450E-01 0.21654269E+03</pdfrwt>
<totfact> 0.59818550E+04</totfact>
</mgrwt>
</event>
<event>
 4    1  0.4072310E+000  0.2267365E+03  0.7546771E-02  0.1128958E+00
         21   -1    0    0  503  502  0.00000000000E+00  0.00000000000E+00  0.39656267379E+03  0.39656267379E+03  0.00000000000E+00 0. -1.
         21   -1    0    0  501  503 -0.00000000000E+00 -0.00000000000E+00 -0.12975584971E+03  0.12975584971E+03  0.00000000000E+00 0.  1.
          6    1    1    2  501    0 -0.12848638018E+03  0.70510290427E+02  0.12546061639E+03  0.25913281771E+03  0.17300000000E+03 0. -1.
         -6    1    1    2    0  502  0.12848638018E+03 -0.70510290427E+02  0.14134620769E+03  0.26718570579E+03  0.17300000000E+03 0.  1.
<mgrwt>
<rscale>  2 0.22673652E+03</rscale>
<asrwt>0</asrwt>
<pdfrwt beam="1">  1       21 0.61009642E-01 0.22673652E+03</pdfrwt>
<pdfrwt beam="2">  1       21 0.19962439E-01 0.22673652E+03</pdfrwt>
<totfact> 0.57015054E+04</totfact>
</mgrwt>
</event>
<event>
 4    1  0.4072310E+000  0.1900542E+03  0.7546771E-02  0.1158412E+00
         21   -1    0    0  501  502  0.00000000000E+00  0.00000000000E+00  0.10230076466E+03  0.10230076466E+03  0.00000000000E+00 0. -1.
         21   -1    0    0  502  503 -0.00000000000E+00 -0.00000000000E+00 -0.38141743531E+03  0.38141743531E+03  0.00000000000E+00 0. -1.
          6    1    1    2  501    0  0.47019439704E+02  0.63093471979E+02 -0.73637460622E+02  0.20382121951E+03  0.17300000000E+03 0. -1.
         -6    1    1    2    0  503 -0.47019439704E+02 -0.63093471979E+02 -0.20547921003E+03  0.27989698046E+03  0.17300000000E+03 0. -1.
<mgrwt>
<rscale>  2 0.19005424E+03</rscale>
<asrwt>0</asrwt>
<pdfrwt beam="1">  1       21 0.15738579E-01 0.19005424E+03</pdfrwt>
<pdfrwt beam="2">  1       21 0.58679605E-01 0.19005424E+03</pdfrwt>
<totfact> 0.97763141E+04</totfact>
</mgrwt>
</event>
<event>
 4    1  0.4072310E+000  0.2006394E+03  0.7546771E-02  0.1149201E+00
         21   -1    0    0  503  502  0.00000000000E+00  0.00000000000E+00  0.66175057678E+03  0.66175057678E+03  0.00000000000E+00 0.  1.
         21   -1    0    0  501  503 -0.00000000000E+00 -0.00000000000E+00 -0.66132555770E+02  0.66132555770E+02  0.00000000000E+00 0. -1.
          6    1    1    2  501    0  0.40439613071E+02 -0.93229810927E+02  0.19478208750E+03  0.27963587316E+03  0.17300000000E+03 0. -1.
         -6    1    1    2    0  502 -0.40439613071E+02  0.93229810927E+02  0.40083593351E+03  0.44824725938E+03  0.17300000000E+03 0.  1.
<mgrwt>
<rscale>  2 0.20063938E+03</rscale>
<asrwt>0</asrwt>
<pdfrwt beam="1">  1       21 0.10180778E+00 0.20063938E+03</pdfrwt>
<pdfrwt beam="2">  1       21 0.10174240E-01 0.20063938E+03</pdfrwt>
<totfact> 0.61671801E+04</totfact>
</mgrwt>
</event>
<event>
 4    1  0.4072310E+000  0.4011941E+03  0.7546771E-02  0.1043367E+00
         21   -1    0    0  503  502  0.00000000000E+00  0.00000000000E+00  0.25031958052E+03  0.25031958052E+03  0.00000000000E+00 0. -1.
         21   -1    0    0  501  503 -0.00000000000E+00 -0.00000000000E+00 -0.86147349516E+03  0.86147349516E+03  0.00000000000E+00 0.  1.
          6    1    1    2  501    0 -0.32010312202E+03  0.16900195059E+03 -0.58551873170E+03  0.70978084871E+03  0.17300000000E+03 0.  1.
         -6    1    1    2    0  502  0.32010312202E+03 -0.16900195059E+03 -0.25635182946E+02  0.40201222697E+03  0.17300000000E+03 0. -1.
<mgrwt>
<rscale>  2 0.40119405E+03</rscale>
<asrwt>0</asrwt>
<pdfrwt beam="1">  1       21 0.38510704E-01 0.40119405E+03</pdfrwt>
<pdfrwt beam="2">  1       21 0.13253439E+00 0.40119405E+03</pdfrwt>
<totfact> 0.23513203E+03</totfact>
</mgrwt>
</event>
<event>
 4    1  0.4072310E+000  0.2697207E+03  0.7546771E-02  0.1101440E+00
         21   -1    0    0  503  502  0.00000000000E+00  0.00000000000E+00  0.21367137586E+03  0.21367137586E+03  0.00000000000E+00 0. -1.
         21   -1    0    0  501  503 -0.00000000000E+00 -0.00000000000E+00 -0.35765622310E+03  0.35765622310E+03  0.00000000000E+00 0. -1.
          6    1    1    2  501    0  0.18693290929E+03 -0.88748823452E+02 -0.93773842356E+01  0.26988368157E+03  0.17300000000E+03 0. -1.
         -6    1    1    2    0  502 -0.18693290929E+03  0.88748823452E+02 -0.13460746300E+03  0.30144391740E+03  0.17300000000E+03 0. -1.
<mgrwt>
<rscale>  2 0.26972072E+03</rscale>
<asrwt>0</asrwt>
<pdfrwt beam="1">  1       21 0.32872520E-01 0.26972072E+03</pdfrwt>
<pdfrwt beam="2">  1       21 0.55024034E-01 0.26972072E+03</pdfrwt>
<totfact> 0.26725547E+04</totfact>
</mgrwt>
</event>
<event>
 4    1  0.4072310E+000  0.2206089E+03  0.7546771E-02  0.1133430E+00
         21   -1    0    0  501  502  0.00000000000E+00  0.00000000000E+00  0.19027279148E+03  0.19027279148E+03  0.00000000000E+00 0.  1.
         21   -1    0    0  502  503 -0.00000000000E+00 -0.00000000000E+00 -0.25973070672E+03  0.25973070672E+03  0.00000000000E+00 0.  1.
          6    1    1    2  501    0 -0.10598953856E+03 -0.86634251632E+02 -0.69846043225E+01  0.22071941586E+03  0.17300000000E+03 0. -1.
         -6    1    1    2    0  503  0.10598953856E+03  0.86634251632E+02 -0.62473310914E+02  0.22928408234E+03  0.17300000000E+03 0. -1.
<mgrwt>
<rscale>  2 0.22060888E+03</rscale>
<asrwt>0</asrwt>
<pdfrwt beam="1">  1       21 0.29272737E-01 0.22060888E+03</pdfrwt>
<pdfrwt beam="2">  1       21 0.39958570E-01 0.22060888E+03</pdfrwt>
<totfact> 0.66646663E+04</totfact>
</mgrwt>
</event>
<event>
 4    1  0.4072310E+000  0.1913960E+03  0.7546771E-02  0.1157208E+00
         21   -1    0    0  503  502  0.00000000000E+00  0.00000000000E+00  0.71840446519E+03  0.71840446519E+03  0.00000000000E+00 0. -1.
         21   -1    0    0  501  503 -0.00000000000E+00 -0.00000000000E+00 -0.61230430318E+02  0.61230430318E+02  0.00000000000E+00 0. -1.
          6    1    1    2  501    0  0.79477171889E+02  0.19667111368E+02  0.16917978707E+03  0.25544904868E+03  0.17300000000E+03 0. -1.
         -6    1    1    2    0  502 -0.79477171889E+02 -0.19667111368E+02  0.48799424781E+03  0.52418584683E+03  0.17300000000E+03 0. -1.
<mgrwt>
<rscale>  2 0.19139597E+03</rscale>
<asrwt>0</asrwt>
<pdfrwt beam="1">  1       21 0.11052376E+00 0.19139597E+03</pdfrwt>
<pdfrwt beam="2">  1       21 0.94200667E-02 0.19139597E+03</pdfrwt>
<totfact> 0.58247472E+04</totfact>
</mgrwt>
</event>
<event>
 4    1  0.4072310E+000  0.1985555E+03  0.7546771E-02  0.1150963E+00
         21   -1    0    0  503  502  0.00000000000E+00  0.00000000000E+00  0.14406121036E+04  0.14406121036E+04  0.00000000000E+00 0. -1.
         21   -1    0    0  501  503 -0.00000000000E+00 -0.00000000000E+00 -0.29429532547E+02  0.29429532547E+02  0.00000000000E+00 0.  1.
          6    1    1    2  501    0 -0.45486781681E+02 -0.86175723546E+02  0.51097632132E+03  0.54819805142E+03  0.17300000000E+03 0.  1.
         -6    1    1    2    0  502  0.45486781681E+02  0.86175723546E+02  0.90020624979E+03  0.92184358478E+03  0.17300000000E+03 0. -1.
<mgrwt>
<rscale>  2 0.19855554E+03</rscale>
<asrwt>0</asrwt>
<pdfrwt beam="1">  1       21 0.22163258E+00 0.19855554E+03</pdfrwt>
<pdfrwt beam="2">  1       21 0.45276215E-02 0.19855554E+03</pdfrwt>
<totfact> 0.31136793E+04</totfact>
</mgrwt>
</event>
<event>
 4    1  0.4072310E+000  0.2012946E+03  0.7546771E-02  0.1148651E+00
         21   -1    0    0  503  502  0.00000000000E+00  0.00000000000E+00  0.67379025301E+02  0.67379025301E+02  0.00000000000E+00 0. -1.
         21   -1    0    0  501  503 -0.00000000000E+00 -0.00000000000E+00 -0.61635665008E+03  0.61635665008E+03  0.00000000000E+00 0. -1.
          6    1    1    2  501    0  0.59185406486E+02  0.84187959209E+02 -0.32780233883E+03  0.38467375549E+03  0.17300000000E+03 0. -1.
         -6    1    1    2    0  502 -0.59185406486E+02 -0.84187959209E+02 -0.22117528595E+03  0.29906191989E+03  0.17300000000E+03 0. -1.
<mgrwt>
<rscale>  2 0.20129462E+03</rscale>
<asrwt>0</asrwt>
<pdfrwt beam="1">  1       21 0.10366004E-01 0.20129462E+03</pdfrwt>
<pdfrwt beam="2">  1       21 0.94824096E-01 0.20129462E+03</pdfrwt>
<totfact> 0.70557689E+04</totfact>
</mgrwt>
</event>
<event>
 4    1  0.4072310E+000  0.1818219E+03  0.7546771E-02  0.1166051E+00
         21   -1    0    0  501  502  0.00000000000E+00  0.00000000000E+00  0.40245645680E+03  0.40245645680E+03  0.00000000000E+00 0. -1.
         21   -1    0    0  502  503 -0.00000000000E+00 -0.00000000000E+00 -0.82378307763E+02  0.82378307763E+02  0.00000000000E+00 0. -1.
          6    1    1    2  501    0 -0.53677906702E+02 -0.15776557641E+02  0.17297900693E+03  0.25096006510E+03  0.17300000000E+03 0. -1.
         -6    1    1    2    0  503  0.53677906702E+02  0.15776557641E+02  0.14709914211E+03  0.23387469946E+03  0.17300000000E+03 0. -1.
<mgrwt>
<rscale>  2 0.18182194E+03</rscale>
<asrwt>0</asrwt>
<pdfrwt beam="1">  1       21 0.61916377E-01 0.18182194E+03</pdfrwt>
<pdfrwt beam="2">  1       21 0.12673586E-01 0.18182194E+03</pdfrwt>
<totfact> 0.12934086E+05</totfact>
</mgrwt>
</event>
<event>
 4    1  0.4072310E+000  0.1887682E+03  0.7546771E-02  0.1159577E+00
         21   -1    0    0  501  502  0.00000000000E+00  0.00000000000E+00  0.70967569631E+03  0.70967569631E+03  0.00000000000E+00 0. -1.
         21   -1    0    0  502  503 -0.00000000000E+00 -0.00000000000E+00 -0.69627502648E+02  0.69627502648E+02  0.00000000000E+00 0.  1.
          6    1    1    2  501    0 -0.11632335214E+02  0.74626530485E+02  0.52578983941E+03  0.55864871387E+03  0.17300000000E+03 0. -1.
         -6    1    1    2    0  503  0.11632335214E+02 -0.74626530485E+02  0.11425835424E+03  0.22065448509E+03  0.17300000000E+03 0.  1.
<mgrwt>
<rscale>  2 0.18876819E+03</rscale>
<asrwt>0</asrwt>
<pdfrwt beam="1">  1       21 0.10918087E+00 0.18876819E+03</pdfrwt>
<pdfrwt beam="2">  1       21 0.10711924E-01 0.18876819E+03</pdfrwt>
<totfact> 0.47871223E+04</totfact>
</mgrwt>
</event>
<event>
 4    1  0.4072310E+000  0.2761040E+03  0.7546771E-02  0.1097836E+00
         21   -1    0    0  503  502  0.00000000000E+00  0.00000000000E+00  0.59536498299E+02  0.59536498299E+02  0.00000000000E+00 0.  1.
         21   -1    0    0  501  503 -0.00000000000E+00 -0.00000000000E+00 -0.12804547765E+04  0.12804547765E+04  0.00000000000E+00 0. -1.
          6    1    1    2  501    0 -0.82778917569E+02 -0.19862543241E+03 -0.61195898032E+03  0.67136220119E+03  0.17300000000E+03 0. -1.
         -6    1    1    2    0  502  0.82778917569E+02  0.19862543241E+03 -0.60895929784E+03  0.66862907357E+03  0.17300000000E+03 0.  1.
<mgrwt>
<rscale>  2 0.27610399E+03</rscale>
<asrwt>0</asrwt>
<pdfrwt beam="1">  1       21 0.91594619E-02 0.27610399E+03</pdfrwt>
<pdfrwt beam="2">  1       21 0.19699303E+00 0.27610399E+03</pdfrwt>
<totfact> 0.12553662E+04</totfact>
</mgrwt>
</event>
<event>
 4    1  0.4072310E+000  0.2563821E+03  0.7546771E-02  0.1109337E+00
         21   -1    0    0  503  502  0.00000000000E+00  0.00000000000E+00  0.56200606439E+03  0.56200606439E+03  0.00000000000E+00 0.  1.
         21   -1    0    0  501  503 -0.00000000000E+00 -0.00000000000E+00 -0.17400236705E+03  0.17400236705E+03  0.00000000000E+00 0. -1.
          6    1    1    2  501    0  0.11749861064E+03  0.14831344958E+03 -0.16704137315E+02  0.25692573058E+03  0.17300000000E+03 0.  1.
         -6    1    1    2    0  502 -0.11749861064E+03 -0.14831344958E+03  0.40470783465E+03  0.47908270085E+03  0.17300000000E+03 0. -1.
<mgrwt>
<rscale>  2 0.25638214E+03</rscale>
<asrwt>0</asrwt>
<pdfrwt beam="1">  1       21 0.86462470E-01 0.25638214E+03</pdfrwt>
<pdfrwt beam="2">  1       21 0.26769595E-01 0.25638214E+03</pdfrwt>
<totfact> 0.14754507E+04</totfact>
</mgrwt>
</event>
<event>
 4    1  0.4072310E+000  0.1746503E+03  0.7546771E-02  0.1173083E+00
         21   -1    0    0  501  502  0.00000000000E+00  0.00000000000E+00  0.73387205861E+03  0.73387205861E+03  0.00000000000E+00 0.  1.
         21   -1    0    0  502  503 -0.00000000000E+00 -0.00000000000E+00 -0.42406051524E+02  0.42406051524E+02  0.00000000000E+00 0.  1.
          6    1    1    2  501    0  0.91758638867E+00 -0.23935354496E+02  0.40042363251E+03  0.43685447077E+03  0.17300000000E+03 0. -1.
         -6    1    1    2    0  503 -0.91758638867E+00  0.23935354496E+02  0.29104237457E+03  0.33942363936E+03  0.17300000000E+03 0. -1.
<mgrwt>
<rscale>  2 0.17465035E+03</rscale>
<asrwt>0</asrwt>
<pdfrwt beam="1">  1       21 0.11290338E+00 0.17465035E+03</pdfrwt>
<pdfrwt beam="2">  1       21 0.65240085E-02 0.17465035E+03</pdfrwt>
<totfact> 0.10551240E+05</totfact>
</mgrwt>
</event>
<event>
 4    1  0.4072310E+000  0.2083617E+03  0.7546771E-02  0.1142870E+00
         21   -1    0    0  503  502  0.00000000000E+00  0.00000000000E+00  0.56434070710E+03  0.56434070710E+03  0.00000000000E+00 0. -1.
         21   -1    0    0  501  503 -0.00000000000E+00 -0.00000000000E+00 -0.94157107501E+02  0.94157107501E+02  0.00000000000E+00 0. -1.
          6    1    1    2  501    0  0.87329928247E+02 -0.76544712739E+02  0.94258071479E+02  0.22869016913E+03  0.17300000000E+03 0. -1.
         -6    1    1    2    0  502 -0.87329928247E+02  0.76544712739E+02  0.37592552812E+03  0.42980764547E+03  0.17300000000E+03 0. -1.
<mgrwt>
<rscale>  2 0.20836173E+03</rscale>
<asrwt>0</asrwt>
<pdfrwt beam="1">  1       21 0.86821645E-01 0.20836173E+03</pdfrwt>
<pdfrwt beam="2">  1       21 0.14485709E-01 0.20836173E+03</pdfrwt>
<totfact> 0.47329379E+04</totfact>
</mgrwt>
</event>
<event>
 4    1  0.4072310E+000  0.1814361E+03  0.7546771E-02  0.1166420E+00
         21   -1    0    0  501  502  0.00000000000E+00  0.00000000000E+00  0.14404577693E+03  0.14404577693E+03  0.00000000000E+00 0. -1.
         21   -1    0    0  502  503 -0.00000000000E+00 -0.00000000000E+00 -0.25654881667E+03  0.25654881667E+03  0.00000000000E+00 0. -1.
          6    1    1    2  501    0 -0.53930849853E+02 -0.90296468213E+01  0.99395481414E+01  0.18170818833E+03  0.17300000000E+03 0. -1.
         -6    1    1    2    0  503  0.53930849853E+02  0.90296468213E+01 -0.12244258788E+03  0.21888640527E+03  0.17300000000E+03 0. -1.
<mgrwt>
<rscale>  2 0.18143614E+03</rscale>
<asrwt>0</asrwt>
<pdfrwt beam="1">  1       21 0.22160889E-01 0.18143614E+03</pdfrwt>
<pdfrwt beam="2">  1       21 0.39469048E-01 0.18143614E+03</pdfrwt>
<totfact> 0.11828958E+05</totfact>
</mgrwt>
</event>
<event>
 4    1  0.4072310E+000  0.2044946E+03  0.7546771E-02  0.1146001E+00
         21   -1    0    0  501  502  0.00000000000E+00  0.00000000000E+00  0.48380156095E+03  0.48380156095E+03  0.00000000000E+00 0. -1.
         21   -1    0    0  502  503 -0.00000000000E+00 -0.00000000000E+00 -0.95610181444E+02  0.95610181444E+02  0.00000000000E+00 0. -1.
          6    1    1    2  501    0 -0.72836014996E+02  0.81141571426E+02  0.28383457496E+03  0.34982868041E+03  0.17300000000E+03 0. -1.
         -6    1    1    2    0  503  0.72836014996E+02 -0.81141571426E+02  0.10435680454E+03  0.22958306198E+03  0.17300000000E+03 0. -1.
<mgrwt>
<rscale>  2 0.20449460E+03</rscale>
<asrwt>0</asrwt>
<pdfrwt beam="1">  1       21 0.74431008E-01 0.20449460E+03</pdfrwt>
<pdfrwt beam="2">  1       21 0.14709259E-01 0.20449460E+03</pdfrwt>
<totfact> 0.65377927E+04</totfact>
</mgrwt>
</event>
<event>
 4    1  0.4072310E+000  0.2448008E+03  0.7546771E-02  0.1116635E+00
         21   -1    0    0  503  502  0.00000000000E+00  0.00000000000E+00  0.51360745502E+03  0.51360745502E+03  0.00000000000E+00 0.  1.
         21   -1    0    0  501  503 -0.00000000000E+00 -0.00000000000E+00 -0.11696165905E+03  0.11696165905E+03  0.00000000000E+00 0.  1.
          6    1    1    2  501    0 -0.12819140185E+03  0.11647064702E+03  0.18283655796E+03  0.30554321143E+03  0.17300000000E+03 0.  1.
         -6    1    1    2    0  502  0.12819140185E+03 -0.11647064702E+03  0.21380923802E+03  0.32502590264E+03  0.17300000000E+03 0.  1.
<mgrwt>
<rscale>  2 0.24480083E+03</rscale>
<asrwt>0</asrwt>
<pdfrwt beam="1">  1       21 0.79016530E-01 0.24480083E+03</pdfrwt>
<pdfrwt beam="2">  1       21 0.17994102E-01 0.24480083E+03</pdfrwt>
<totfact> 0.38735054E+04</totfact>
</mgrwt>
</event>
<event>
 4    1  0.4072310E+000  0.2214983E+03  0.7546771E-02  0.1132771E+00
         21   -1    0    0  501  502  0.00000000000E+00  0.00000000000E+00  0.24747838319E+02  0.24747838319E+02  0.00000000000E+00 0. -1.
         21   -1    0    0  502  503 -0.00000000000E+00 -0.00000000000E+00 -0.21329464104E+04  0.21329464104E+04  0.00000000000E+00 0. -1.
          6    1    1    2  501    0 -0.37919643911E+02  0.13302107102E+03 -0.76753365234E+03  0.79885506333E+03  0.17300000000E+03 0. -1.
         -6    1    1    2    0  503  0.37919643911E+02 -0.13302107102E+03 -0.13406649197E+04  0.13588391853E+04  0.17300000000E+03 0. -1.
<mgrwt>
<rscale>  2 0.22149832E+03</rscale>
<asrwt>0</asrwt>
<pdfrwt beam="1">  1       21 0.38073598E-02 0.22149832E+03</pdfrwt>
<pdfrwt beam="2">  1       21 0.32814559E+00 0.22149832E+03</pdfrwt>
<totfact> 0.96845844E+03</totfact>
</mgrwt>
</event>
<event>
 4    1  0.4072310E+000  0.1746544E+03  0.7546771E-02  0.1173079E+00
         21   -1    0    0  503  502  0.00000000000E+00  0.00000000000E+00  0.54235419996E+03  0.54235419996E+03  0.00000000000E+00 0.  1.
         21   -1    0    0  501  503 -0.00000000000E+00 -0.00000000000E+00 -0.56244589203E+02  0.56244589203E+02  0.00000000000E+00 0.  1.
          6    1    1    2  501    0  0.23892367263E+02  0.20788699738E+01  0.24402762135E+03  0.30008939818E+03  0.17300000000E+03 0. -1.
         -6    1    1    2    0  502 -0.23892367263E+02 -0.20788699738E+01  0.24208198940E+03  0.29850939098E+03  0.17300000000E+03 0. -1.
<mgrwt>
<rscale>  2 0.17465442E+03</rscale>
<asrwt>0</asrwt>
<pdfrwt beam="1">  1       21 0.83439104E-01 0.17465442E+03</pdfrwt>
<pdfrwt beam="2">  1       21 0.86530141E-02 0.17465442E+03</pdfrwt>
<totfact> 0.13167708E+05</totfact>
</mgrwt>
</event>
<event>
 4    1  0.4072310E+000  0.2179549E+03  0.7546771E-02  0.1135417E+00
         21   -1    0    0  503  502  0.00000000000E+00  0.00000000000E+00  0.69014730944E+02  0.69014730944E+02  0.00000000000E+00 0.  1.
         21   -1    0    0  501  503 -0.00000000000E+00 -0.00000000000E+00 -0.72999432983E+03  0.72999432983E+03  0.00000000000E+00 0.  1.
          6    1    1    2  501    0 -0.11529898272E+03 -0.65433173426E+02 -0.42594201417E+03  0.47846729777E+03  0.17300000000E+03 0.  1.
         -6    1    1    2    0  502  0.11529898272E+03  0.65433173426E+02 -0.23503758471E+03  0.32054176300E+03  0.17300000000E+03 0.  1.
<mgrwt>
<rscale>  2 0.21795494E+03</rscale>
<asrwt>0</asrwt>
<pdfrwt beam="1">  1       21 0.10617651E-01 0.21795494E+03</pdfrwt>
<pdfrwt beam="2">  1       21 0.11230682E+00 0.21795494E+03</pdfrwt>
<totfact> 0.44726663E+04</totfact>
</mgrwt>
</event>
<event>
 4    1  0.4072310E+000  0.2604505E+03  0.7546771E-02  0.1106873E+00
         21   -1    0    0  501  502  0.00000000000E+00  0.00000000000E+00  0.49708708522E+03  0.49708708522E+03  0.00000000000E+00 0.  1.
         21   -1    0    0  502  503 -0.00000000000E+00 -0.00000000000E+00 -0.15011004433E+03  0.15011004433E+03  0.00000000000E+00 0. -1.
          6    1    1    2  501    0  0.10698096193E+03 -0.16266699846E+03  0.27105609925E+03  0.37590675379E+03  0.17300000000E+03 0. -1.
         -6    1    1    2    0  503 -0.10698096193E+03  0.16266699846E+03  0.75920941637E+02  0.27129037576E+03  0.17300000000E+03 0.  1.
<mgrwt>
<rscale>  2 0.26045053E+03</rscale>
<asrwt>0</asrwt>
<pdfrwt beam="1">  1       21 0.76474935E-01 0.26045053E+03</pdfrwt>
<pdfrwt beam="2">  1       21 0.23093853E-01 0.26045053E+03</pdfrwt>
<totfact> 0.25893627E+04</totfact>
</mgrwt>
</event>
<event>
 4    1  0.4072310E+000  0.1877123E+03  0.7546771E-02  0.1160541E+00
         21   -1    0    0  503  502  0.00000000000E+00  0.00000000000E+00  0.17924425331E+03  0.17924425331E+03  0.00000000000E+00 0. -1.
         21   -1    0    0  501  503 -0.00000000000E+00 -0.00000000000E+00 -0.25094706595E+03  0.25094706595E+03  0.00000000000E+00 0. -1.
          6    1    1    2  501    0 -0.51437273829E+02 -0.51585972350E+02 -0.13596820766E+03  0.23178278447E+03  0.17300000000E+03 0. -1.
         -6    1    1    2    0  502  0.51437273829E+02  0.51585972350E+02  0.64265395018E+02  0.19840853479E+03  0.17300000000E+03 0. -1.
<mgrwt>
<rscale>  2 0.18771229E+03</rscale>
<asrwt>0</asrwt>
<pdfrwt beam="1">  1       21 0.27576039E-01 0.18771229E+03</pdfrwt>
<pdfrwt beam="2">  1       21 0.38607241E-01 0.18771229E+03</pdfrwt>
<totfact> 0.81340053E+04</totfact>
</mgrwt>
</event>
<event>
 4    1  0.4072310E+000  0.1887126E+03  0.7546771E-02  0.1159628E+00
         21   -1    0    0  501  502  0.00000000000E+00  0.00000000000E+00  0.32373556258E+03  0.32373556258E+03  0.00000000000E+00 0.  1.
         21   -1    0    0  502  503 -0.00000000000E+00 -0.00000000000E+00 -0.14056725643E+03  0.14056725643E+03  0.00000000000E+00 0. -1.
          6    1    1    2  501    0 -0.29395206451E+02  0.69421649683E+02  0.19983314401E+03  0.27485583321E+03  0.17300000000E+03 0.  1.
         -6    1    1    2    0  503  0.29395206451E+02 -0.69421649683E+02 -0.16664837855E+02  0.18944698580E+03  0.17300000000E+03 0. -1.
<mgrwt>
<rscale>  2 0.18871260E+03</rscale>
<asrwt>0</asrwt>
<pdfrwt beam="1">  1       21 0.49805471E-01 0.18871260E+03</pdfrwt>
<pdfrwt beam="2">  1       21 0.21625732E-01 0.18871260E+03</pdfrwt>
<totfact> 0.76714164E+04</totfact>
</mgrwt>
</event>
<event>
 4    1  0.4072310E+000  0.1881751E+03  0.7546771E-02  0.1160118E+00
         21   -1    0    0  503  502  0.00000000000E+00  0.00000000000E+00  0.52906627553E+03  0.52906627553E+03  0.00000000000E+00 0.  1.
         21   -1    0    0  501  503 -0.00000000000E+00 -0.00000000000E+00 -0.76990451184E+02  0.76990451184E+02  0.00000000000E+00 0.  1.
          6    1    1    2  501    0  0.20907791291E+02 -0.71019259785E+02  0.11649219701E+03  0.22131494067E+03  0.17300000000E+03 0.  1.
         -6    1    1    2    0  502 -0.20907791291E+02  0.71019259785E+02  0.33558362733E+03  0.38474178604E+03  0.17300000000E+03 0.  1.
<mgrwt>
<rscale>  2 0.18817511E+03</rscale>
<asrwt>0</asrwt>
<pdfrwt beam="1">  1       21 0.81394809E-01 0.18817511E+03</pdfrwt>
<pdfrwt beam="2">  1       21 0.11844685E-01 0.18817511E+03</pdfrwt>
<totfact> 0.79591555E+04</totfact>
</mgrwt>
</event>
<event>
 4    1  0.4072310E+000  0.1848825E+03  0.7546771E-02  0.1163160E+00
         21   -1    0    0  501  502  0.00000000000E+00  0.00000000000E+00  0.39020906500E+03  0.39020906500E+03  0.00000000000E+00 0.  1.
         21   -1    0    0  502  503 -0.00000000000E+00 -0.00000000000E+00 -0.10872994345E+03  0.10872994345E+03  0.00000000000E+00 0.  1.
          6    1    1    2  501    0 -0.59590377378E+02 -0.26486249242E+02  0.30759847836E+02  0.18742385844E+03  0.17300000000E+03 0.  1.
         -6    1    1    2    0  503  0.59590377378E+02  0.26486249242E+02  0.25071927371E+03  0.31151515001E+03  0.17300000000E+03 0.  1.
<mgrwt>
<rscale>  2 0.18488249E+03</rscale>
<asrwt>0</asrwt>
<pdfrwt beam="1">  1       21 0.60032163E-01 0.18488249E+03</pdfrwt>
<pdfrwt beam="2">  1       21 0.16727684E-01 0.18488249E+03</pdfrwt>
<totfact> 0.83439698E+04</totfact>
</mgrwt>
</event>
<event>
 4    1  0.4072310E+000  0.1793530E+03  0.7546771E-02  0.1168431E+00
         21   -1    0    0  503  502  0.00000000000E+00  0.00000000000E+00  0.77954139679E+03  0.77954139679E+03  0.00000000000E+00 0. -1.
         21   -1    0    0  501  503 -0.00000000000E+00 -0.00000000000E+00 -0.85996198744E+02  0.85996198744E+02  0.00000000000E+00 0. -1.
          6    1    1    2  501    0 -0.47108205005E+02  0.43954775029E+01  0.34651390892E+02  0.18266970765E+03  0.17300000000E+03 0. -1.
         -6    1    1    2    0  502  0.47108205005E+02 -0.43954775029E+01  0.65889380715E+03  0.68286788788E+03  0.17300000000E+03 0. -1.
<mgrwt>
<rscale>  2 0.17935301E+03</rscale>
<asrwt>0</asrwt>
<pdfrwt beam="1">  1       21 0.11992944E+00 0.17935301E+03</pdfrwt>
<pdfrwt beam="2">  1       21 0.13230185E-01 0.17935301E+03</pdfrwt>
<totfact> 0.26255940E+04</totfact>
</mgrwt>
</event>
<event>
 4    1  0.4072310E+000  0.2027561E+03  0.7546771E-02  0.1147434E+00
         21   -1    0    0  503  502  0.00000000000E+00  0.00000000000E+00  0.34936709921E+02  0.34936709921E+02  0.00000000000E+00 0.  1.
         21   -1    0    0  501  503 -0.00000000000E+00 -0.00000000000E+00 -0.11841567779E+04  0.11841567779E+04  0.00000000000E+00 0.  1.
          6    1    1    2  501    0  0.49346218806E+02  0.93520016241E+02 -0.62297874657E+03  0.65514316101E+03  0.17300000000E+03 0.  1.
         -6    1    1    2    0  502 -0.49346218806E+02 -0.93520016241E+02 -0.52624132144E+03  0.56395032684E+03  0.17300000000E+03 0.  1.
<mgrwt>
<rscale>  2 0.20275612E+03</rscale>
<asrwt>0</asrwt>
<pdfrwt beam="1">  1       21 0.53748794E-02 0.20275612E+03</pdfrwt>
<pdfrwt beam="2">  1       21 0.18217793E+00 0.20275612E+03</pdfrwt>
<totfact> 0.41571906E+04</totfact>
</mgrwt>
</event>
<event>
 4    1  0.4072310E+000  0.3107490E+03  0.7546771E-02  0.1079987E+00
         21   -1    0    0  501  502  0.00000000000E+00  0.00000000000E+00  0.12707190974E+03  0.12707190974E+03  0.00000000000E+00 0.  1.
         21   -1    0    0  502  503 -0.00000000000E+00 -0.00000000000E+00 -0.77284240092E+03  0.77284240092E+03  0.00000000000E+00 0. -1.
          6    1    1    2  501    0  0.66543273580E+02  0.24941519436E+03 -0.38106024058E+03  0.49170301340E+03  0.17300000000E+03 0.  1.
         -6    1    1    2    0  503 -0.66543273580E+02 -0.24941519436E+03 -0.26471025060E+03  0.40821129726E+03  0.17300000000E+03 0. -1.
<mgrwt>
<rscale>  2 0.31074901E+03</rscale>
<asrwt>0</asrwt>
<pdfrwt beam="1">  1       21 0.19549525E-01 0.31074901E+03</pdfrwt>
<pdfrwt beam="2">  1       21 0.11889883E+00 0.31074901E+03</pdfrwt>
<totfact> 0.12183290E+04</totfact>
</mgrwt>
</event>
<event>
 4    1  0.4072310E+000  0.1742869E+03  0.7546771E-02  0.1173450E+00
         21   -1    0    0  501  502  0.00000000000E+00  0.00000000000E+00  0.71848213956E+02  0.71848213956E+02  0.00000000000E+00 0. -1.
         21   -1    0    0  502  503 -0.00000000000E+00 -0.00000000000E+00 -0.56103508286E+03  0.56103508286E+03  0.00000000000E+00 0. -1.
          6    1    1    2  501    0  0.20327046380E+02  0.58080663191E+01 -0.87506301799E+02  0.19502121757E+03  0.17300000000E+03 0.  1.
         -6    1    1    2    0  503 -0.20327046380E+02 -0.58080663191E+01 -0.40168056710E+03  0.43786207924E+03  0.17300000000E+03 0.  1.
<mgrwt>
<rscale>  2 0.17428690E+03</rscale>
<asrwt>0</asrwt>
<pdfrwt beam="1">  1       21 0.11053571E-01 0.17428690E+03</pdfrwt>
<pdfrwt beam="2">  1       21 0.86313091E-01 0.17428690E+03</pdfrwt>
<totfact> 0.79232552E+04</totfact>
</mgrwt>
</event>
<event>
 4    1  0.4072310E+000  0.4280658E+03  0.7546771E-02  0.1034473E+00
         21   -1    0    0  503  502  0.00000000000E+00  0.00000000000E+00  0.30638478248E+03  0.30638478248E+03  0.00000000000E+00 0. -1.
         21   -1    0    0  501  503 -0.00000000000E+00 -0.00000000000E+00 -0.60623838583E+03  0.60623838583E+03  0.00000000000E+00 0.  1.
          6    1    1    2  501    0  0.35151413022E+03  0.17247941672E+03 -0.20288579048E+03  0.47371191342E+03  0.17300000000E+03 0.  1.
         -6    1    1    2    0  502 -0.35151413022E+03 -0.17247941672E+03 -0.96967812869E+02  0.43891125489E+03  0.17300000000E+03 0. -1.
<mgrwt>
<rscale>  2 0.42806580E+03</rscale>
<asrwt>0</asrwt>
<pdfrwt beam="1">  1       21 0.47136120E-01 0.42806580E+03</pdfrwt>
<pdfrwt beam="2">  1       21 0.93267444E-01 0.42806580E+03</pdfrwt>
<totfact> 0.36657719E+03</totfact>
</mgrwt>
</event>
<event>
 4    1  0.4072310E+000  0.2181993E+03  0.7546771E-02  0.1135233E+00
         21   -1    0    0  501  502  0.00000000000E+00  0.00000000000E+00  0.81108059805E+02  0.81108059805E+02  0.00000000000E+00 0. -1.
         21   -1    0    0  502  503 -0.00000000000E+00 -0.00000000000E+00 -0.59988946469E+03  0.59988946469E+03  0.00000000000E+00 0. -1.
          6    1    1    2  501    0 -0.83326084833E+02  0.10362759875E+03 -0.20949114480E+03  0.30248546310E+03  0.17300000000E+03 0. -1.
         -6    1    1    2    0  503  0.83326084833E+02 -0.10362759875E+03 -0.30929026008E+03  0.37851206139E+03  0.17300000000E+03 0. -1.
<mgrwt>
<rscale>  2 0.21819926E+03</rscale>
<asrwt>0</asrwt>
<pdfrwt beam="1">  1       21 0.12478163E-01 0.21819926E+03</pdfrwt>
<pdfrwt beam="2">  1       21 0.92290689E-01 0.21819926E+03</pdfrwt>
<totfact> 0.53555159E+04</totfact>
</mgrwt>
</event>
<event>
 4    1  0.4072310E+000  0.1767902E+03  0.7546771E-02  0.1170946E+00
         21   -1    0    0  503  502  0.00000000000E+00  0.00000000000E+00  0.49176636796E+02  0.49176636796E+02  0.00000000000E+00 0.  1.
         21   -1    0    0  501  503 -0.00000000000E+00 -0.00000000000E+00 -0.64568221633E+03  0.64568221633E+03  0.00000000000E+00 0.  1.
          6    1    1    2  501    0  0.16209211821E+01  0.36374952291E+02 -0.34175068772E+03  0.38477044728E+03  0.17300000000E+03 0.  1.
         -6    1    1    2    0  502 -0.16209211821E+01 -0.36374952291E+02 -0.25475489181E+03  0.31008840585E+03  0.17300000000E+03 0.  1.
<mgrwt>
<rscale>  2 0.17679017E+03</rscale>
<asrwt>0</asrwt>
<pdfrwt beam="1">  1       21 0.75656370E-02 0.17679017E+03</pdfrwt>
<pdfrwt beam="2">  1       21 0.99335718E-01 0.17679017E+03</pdfrwt>
<totfact> 0.11098231E+05</totfact>
</mgrwt>
</event>
<event>
 4    1  0.4072310E+000  0.1765150E+03  0.7546771E-02  0.1171219E+00
         21   -1    0    0  503  502  0.00000000000E+00  0.00000000000E+00  0.23077204352E+03  0.23077204352E+03  0.00000000000E+00 0. -1.
         21   -1    0    0  501  503 -0.00000000000E+00 -0.00000000000E+00 -0.21696049353E+03  0.21696049353E+03  0.00000000000E+00 0. -1.
          6    1    1    2  501    0 -0.58559044390E+01 -0.34557807200E+02 -0.13067654672E+03  0.21962216081E+03  0.17300000000E+03 0. -1.
         -6    1    1    2    0  502  0.58559044390E+01  0.34557807200E+02  0.14448809671E+03  0.22811037624E+03  0.17300000000E+03 0. -1.
<mgrwt>
<rscale>  2 0.17651497E+03</rscale>
<asrwt>0</asrwt>
<pdfrwt beam="1">  1       21 0.35503391E-01 0.17651497E+03</pdfrwt>
<pdfrwt beam="2">  1       21 0.33378537E-01 0.17651497E+03</pdfrwt>
<totfact> 0.66584349E+04</totfact>
</mgrwt>
</event>
<event>
 4    1  0.4072310E+000  0.2107158E+03  0.7546771E-02  0.1141000E+00
         21   -1    0    0  501  502  0.00000000000E+00  0.00000000000E+00  0.15117059070E+04  0.15117059070E+04  0.00000000000E+00 0.  1.
         21   -1    0    0  502  503 -0.00000000000E+00 -0.00000000000E+00 -0.38130006925E+02  0.38130006925E+02  0.00000000000E+00 0.  1.
          6    1    1    2  501    0  0.12027376561E+03  0.25258309948E+01  0.11081827944E+04  0.11280382371E+04  0.17300000000E+03 0.  1.
         -6    1    1    2    0  503 -0.12027376561E+03 -0.25258309948E+01  0.36539310570E+03  0.42179767687E+03  0.17300000000E+03 0.  1.
<mgrwt>
<rscale>  2 0.21071582E+03</rscale>
<asrwt>0</asrwt>
<pdfrwt beam="1">  1       21 0.23257009E+00 0.21071582E+03</pdfrwt>
<pdfrwt beam="2">  1       21 0.58661561E-02 0.21071582E+03</pdfrwt>
<totfact> 0.17037549E+04</totfact>
</mgrwt>
</event>
<event>
 4    1  0.4072310E+000  0.1755171E+03  0.7546771E-02  0.1172213E+00
         21   -1    0    0  501  502  0.00000000000E+00  0.00000000000E+00  0.80109883522E+03  0.80109883522E+03  0.00000000000E+00 0.  1.
         21   -1    0    0  502  503 -0.00000000000E+00 -0.00000000000E+00 -0.15191751748E+03  0.15191751748E+03  0.00000000000E+00 0.  1.
          6    1    1    2  501    0 -0.28115933756E+02 -0.93145089943E+01  0.73639660499E+03  0.75702458721E+03  0.17300000000E+03 0.  1.
         -6    1    1    2    0  503  0.28115933756E+02  0.93145089943E+01 -0.87215287246E+02  0.19599176549E+03  0.17300000000E+03 0.  1.
<mgrwt>
<rscale>  2 0.17551714E+03</rscale>
<asrwt>0</asrwt>
<pdfrwt beam="1">  1       21 0.12324597E+00 0.17551714E+03</pdfrwt>
<pdfrwt beam="2">  1       21 0.23371926E-01 0.17551714E+03</pdfrwt>
<totfact> 0.86198555E+03</totfact>
</mgrwt>
</event>
<event>
 4    1  0.4072310E+000  0.1931130E+03  0.7546771E-02  0.1155683E+00
         21   -1    0    0  501  502  0.00000000000E+00  0.00000000000E+00  0.41683863637E+02  0.41683863637E+02  0.00000000000E+00 0.  1.
         21   -1    0    0  502  503 -0.00000000000E+00 -0.00000000000E+00 -0.10545518535E+04  0.10545518535E+04  0.00000000000E+00 0.  1.
          6    1    1    2  501    0  0.77806125584E+02  0.36191608332E+02 -0.29300097286E+03  0.35091622332E+03  0.17300000000E+03 0.  1.
         -6    1    1    2    0  503 -0.77806125584E+02 -0.36191608332E+02 -0.71986701695E+03  0.74531949376E+03  0.17300000000E+03 0.  1.
<mgrwt>
<rscale>  2 0.19311299E+03</rscale>
<asrwt>0</asrwt>
<pdfrwt beam="1">  1       21 0.64129027E-02 0.19311299E+03</pdfrwt>
<pdfrwt beam="2">  1       21 0.16223873E+00 0.19311299E+03</pdfrwt>
<totfact> 0.42633052E+04</totfact>
</mgrwt>
</event>
<event>
 4    1  0.4072310E+000  0.2013521E+03  0.7546771E-02  0.1148603E+00
         21   -1    0    0  503  502  0.00000000000E+00  0.00000000000E+00  0.88499312697E+02  0.88499312697E+02  0.00000000000E+00 0. -1.
         21   -1    0    0  501  503 -0.00000000000E+00 -0.00000000000E+00 -0.47534935124E+03  0.47534935124E+03  0.00000000000E+00 0. -1.
          6    1    1    2  501    0  0.51774670089E+02  0.89067670100E+02 -0.24710984220E+03  0.31875686727E+03  0.17300000000E+03 0. -1.
         -6    1    1    2    0  502 -0.51774670089E+02 -0.89067670100E+02 -0.13974019635E+03  0.24509179667E+03  0.17300000000E+03 0. -1.
<mgrwt>
<rscale>  2 0.20135210E+03</rscale>
<asrwt>0</asrwt>
<pdfrwt beam="1">  1       21 0.13615279E-01 0.20135210E+03</pdfrwt>
<pdfrwt beam="2">  1       21 0.73130671E-01 0.20135210E+03</pdfrwt>
<totfact> 0.78346377E+04</totfact>
</mgrwt>
</event>
<event>
 4    1  0.4072310E+000  0.3864650E+03  0.7546771E-02  0.1048570E+00
         21   -1    0    0  501  502  0.00000000000E+00  0.00000000000E+00  0.38170223633E+03  0.38170223633E+03  0.00000000000E+00 0. -1.
         21   -1    0    0  502  503 -0.00000000000E+00 -0.00000000000E+00 -0.39437850090E+03  0.39437850090E+03  0.00000000000E+00 0. -1.
          6    1    1    2  501    0 -0.23282764673E+03  0.25537711956E+03  0.28017134640E+02  0.38747922023E+03  0.17300000000E+03 0. -1.
         -6    1    1    2    0  503  0.23282764673E+03 -0.25537711956E+03 -0.40693399216E+02  0.38860151700E+03  0.17300000000E+03 0. -1.
<mgrwt>
<rscale>  2 0.38646499E+03</rscale>
<asrwt>0</asrwt>
<pdfrwt beam="1">  1       21 0.58723421E-01 0.38646499E+03</pdfrwt>
<pdfrwt beam="2">  1       21 0.60673616E-01 0.38646499E+03</pdfrwt>
<totfact> 0.61995437E+03</totfact>
</mgrwt>
</event>
<event>
 4    1  0.4072310E+000  0.1771623E+03  0.7546771E-02  0.1170578E+00
         21   -1    0    0  503  502  0.00000000000E+00  0.00000000000E+00  0.36217615429E+03  0.36217615429E+03  0.00000000000E+00 0.  1.
         21   -1    0    0  501  503 -0.00000000000E+00 -0.00000000000E+00 -0.90923256199E+02  0.90923256199E+02  0.00000000000E+00 0.  1.
          6    1    1    2  501    0  0.47238549717E+01 -0.37883524059E+02  0.86574547820E+02  0.19718425021E+03  0.17300000000E+03 0.  1.
         -6    1    1    2    0  502 -0.47238549717E+01  0.37883524059E+02  0.18467835027E+03  0.25591516028E+03  0.17300000000E+03 0.  1.
<mgrwt>
<rscale>  2 0.17716229E+03</rscale>
<asrwt>0</asrwt>
<pdfrwt beam="1">  1       21 0.55719407E-01 0.17716229E+03</pdfrwt>
<pdfrwt beam="2">  1       21 0.13988194E-01 0.17716229E+03</pdfrwt>
<totfact> 0.13585205E+05</totfact>
</mgrwt>
</event>
<event>
 4    1  0.4072310E+000  0.1879084E+03  0.7546771E-02  0.1160361E+00
         21   -1    0    0  503  502  0.00000000000E+00  0.00000000000E+00  0.49095718587E+03  0.49095718587E+03  0.00000000000E+00 0. -1.
         21   -1    0    0  501  503 -0.00000000000E+00 -0.00000000000E+00 -0.73432176538E+02  0.73432176538E+02  0.00000000000E+00 0. -1.
          6    1    1    2  501    0  0.39933827165E+02 -0.61529402161E+02  0.16826527869E+03  0.25223556826E+03  0.17300000000E+03 0. -1.
         -6    1    1    2    0  502 -0.39933827165E+02  0.61529402161E+02  0.24925973064E+03  0.31215379415E+03  0.17300000000E+03 0. -1.
<mgrwt>
<rscale>  2 0.18790843E+03</rscale>
<asrwt>0</asrwt>
<pdfrwt beam="1">  1       21 0.75531873E-01 0.18790843E+03</pdfrwt>
<pdfrwt beam="2">  1       21 0.11297258E-01 0.18790843E+03</pdfrwt>
<totfact> 0.10247332E+05</totfact>
</mgrwt>
</event>
<event>
 4    1  0.4072310E+000  0.2062523E+03  0.7546771E-02  0.1144569E+00
         21   -1    0    0  503  502  0.00000000000E+00  0.00000000000E+00  0.12651460192E+03  0.12651460192E+03  0.00000000000E+00 0.  1.
         21   -1    0    0  501  503 -0.00000000000E+00 -0.00000000000E+00 -0.58581718444E+03  0.58581718444E+03  0.00000000000E+00 0.  1.
          6    1    1    2  501    0  0.35929780487E+01  0.11224131433E+03 -0.46212216141E+03  0.50606018831E+03  0.17300000000E+03 0.  1.
         -6    1    1    2    0  502 -0.35929780487E+01 -0.11224131433E+03  0.28195788859E+01  0.20627159804E+03  0.17300000000E+03 0.  1.
<mgrwt>
<rscale>  2 0.20625233E+03</rscale>
<asrwt>0</asrwt>
<pdfrwt beam="1">  1       21 0.19463785E-01 0.20625233E+03</pdfrwt>
<pdfrwt beam="2">  1       21 0.90125719E-01 0.20625233E+03</pdfrwt>
<totfact> 0.25228287E+04</totfact>
</mgrwt>
</event>
<event>
 4    1  0.4072310E+000  0.1888550E+03  0.7546771E-02  0.1159498E+00
         21   -1    0    0  501  502  0.00000000000E+00  0.00000000000E+00  0.39660426401E+03  0.39660426401E+03  0.00000000000E+00 0. -1.
         21   -1    0    0  502  503 -0.00000000000E+00 -0.00000000000E+00 -0.94701309428E+02  0.94701309428E+02  0.00000000000E+00 0. -1.
          6    1    1    2  501    0  0.18142732631E+02 -0.73539570910E+02  0.20609667875E+03  0.27953902810E+03  0.17300000000E+03 0. -1.
         -6    1    1    2    0  503 -0.18142732631E+02  0.73539570910E+02  0.95806275828E+02  0.21176654534E+03  0.17300000000E+03 0. -1.
<mgrwt>
<rscale>  2 0.18885504E+03</rscale>
<asrwt>0</asrwt>
<pdfrwt beam="1">  1       21 0.61016040E-01 0.18885504E+03</pdfrwt>
<pdfrwt beam="2">  1       21 0.14569432E-01 0.18885504E+03</pdfrwt>
<totfact> 0.10352697E+05</totfact>
</mgrwt>
</event>
<event>
 4    1  0.4072310E+000  0.1961024E+03  0.7546771E-02  0.1153070E+00
         21   -1    0    0  503  502  0.00000000000E+00  0.00000000000E+00  0.20550592587E+03  0.20550592587E+03  0.00000000000E+00 0. -1.
         21   -1    0    0  501  503 -0.00000000000E+00 -0.00000000000E+00 -0.19338206246E+03  0.19338206246E+03  0.00000000000E+00 0. -1.
          6    1    1    2  501    0  0.84754834994E+02  0.36657407723E+02 -0.29801704377E+02  0.19835394924E+03  0.17300000000E+03 0. -1.
         -6    1    1    2    0  502 -0.84754834994E+02 -0.36657407723E+02  0.41925567789E+02  0.20053403908E+03  0.17300000000E+03 0. -1.
<mgrwt>
<rscale>  2 0.19610239E+03</rscale>
<asrwt>0</asrwt>
<pdfrwt beam="1">  1       21 0.31616297E-01 0.19610239E+03</pdfrwt>
<pdfrwt beam="2">  1       21 0.29751086E-01 0.19610239E+03</pdfrwt>
<totfact> 0.10402134E+05</totfact>
</mgrwt>
</event>
<event>
 4    1  0.4072310E+000  0.1939741E+03  0.7546771E-02  0.1154925E+00
         21   -1    0    0  503  502  0.00000000000E+00  0.00000000000E+00  0.47263872432E+03  0.47263872432E+03  0.00000000000E+00 0.  1.
         21   -1    0    0  501  503 -0.00000000000E+00 -0.00000000000E+00 -0.83727226005E+02  0.83727226005E+02  0.00000000000E+00 0.  1.
          6    1    1    2  501    0 -0.13910345178E+02  0.86622496274E+02  0.13275500596E+03  0.23505285825E+03  0.17300000000E+03 0.  1.
         -6    1    1    2    0  502  0.13910345178E+02 -0.86622496274E+02  0.25615649235E+03  0.32131309207E+03  0.17300000000E+03 0.  1.
<mgrwt>
<rscale>  2 0.19397411E+03</rscale>
<asrwt>0</asrwt>
<pdfrwt beam="1">  1       21 0.72713649E-01 0.19397411E+03</pdfrwt>
<pdfrwt beam="2">  1       21 0.12881112E-01 0.19397411E+03</pdfrwt>
<totfact> 0.87983148E+04</totfact>
</mgrwt>
</event>
<event>
 4    1  0.4072310E+000  0.1833578E+03  0.7546771E-02  0.1164592E+00
         21   -1    0    0  501  502  0.00000000000E+00  0.00000000000E+00  0.16821280017E+03  0.16821280017E+03  0.00000000000E+00 0. -1.
         21   -1    0    0  502  503 -0.00000000000E+00 -0.00000000000E+00 -0.14074611448E+04  0.14074611448E+04  0.00000000000E+00 0. -1.
          6    1    1    2  501    0 -0.55747889960E+02 -0.24150361196E+02  0.11013368380E+03  0.21389131700E+03  0.17300000000E+03 0. -1.
         -6    1    1    2    0  503  0.55747889960E+02  0.24150361196E+02 -0.13493820285E+04  0.13617826280E+04  0.17300000000E+03 0. -1.
<mgrwt>
<rscale>  2 0.18335776E+03</rscale>
<asrwt>0</asrwt>
<pdfrwt beam="1">  1       21 0.25878892E-01 0.18335776E+03</pdfrwt>
<pdfrwt beam="2">  1       21 0.21653248E+00 0.18335776E+03</pdfrwt>
<totfact> 0.15140815E+03</totfact>
</mgrwt>
</event>
<event>
 4    1  0.4072310E+000  0.2074556E+03  0.7546771E-02  0.1143597E+00
         21   -1    0    0  501  502  0.00000000000E+00  0.00000000000E+00  0.11654556373E+03  0.11654556373E+03  0.00000000000E+00 0.  1.
         21   -1    0    0  502  503 -0.00000000000E+00 -0.00000000000E+00 -0.42430818466E+03  0.42430818466E+03  0.00000000000E+00 0.  1.
          6    1    1    2  501    0 -0.11431998351E+03 -0.63069343422E+01 -0.56493309405E+02  0.21501006967E+03  0.17300000000E+03 0.  1.
         -6    1    1    2    0  503  0.11431998351E+03  0.63069343422E+01 -0.25126931152E+03  0.32584367872E+03  0.17300000000E+03 0.  1.
<mgrwt>
<rscale>  2 0.20745562E+03</rscale>
<asrwt>0</asrwt>
<pdfrwt beam="1">  1       21 0.17930086E-01 0.20745562E+03</pdfrwt>
<pdfrwt beam="2">  1       21 0.65278184E-01 0.20745562E+03</pdfrwt>
<totfact> 0.60640964E+04</totfact>
</mgrwt>
</event>
<event>
 4    1  0.4072310E+000  0.2098319E+03  0.7546771E-02  0.1141699E+00
         21   -1    0    0  501  502  0.00000000000E+00  0.00000000000E+00  0.37260155966E+03  0.37260155966E+03  0.00000000000E+00 0. -1.
         21   -1    0    0  502  503 -0.00000000000E+00 -0.00000000000E+00 -0.25361518714E+03  0.25361518714E+03  0.00000000000E+00 0. -1.
          6    1    1    2  501    0  0.60898338168E+01 -0.11858892958E+03  0.28831253267E+03  0.35658594587E+03  0.17300000000E+03 0. -1.
         -6    1    1    2    0  503 -0.60898338168E+01  0.11858892958E+03 -0.16932616016E+03  0.26963080093E+03  0.17300000000E+03 0. -1.
<mgrwt>
<rscale>  2 0.20983189E+03</rscale>
<asrwt>0</asrwt>
<pdfrwt beam="1">  1       21 0.57323317E-01 0.20983189E+03</pdfrwt>
<pdfrwt beam="2">  1       21 0.39017721E-01 0.20983189E+03</pdfrwt>
<totfact> 0.17905435E+04</totfact>
</mgrwt>
</event>
<event>
 4    1  0.4072310E+000  0.4125355E+03  0.7546771E-02  0.1039524E+00
         21   -1    0    0  503  502  0.00000000000E+00  0.00000000000E+00  0.45538144063E+03  0.45538144063E+03  0.00000000000E+00 0. -1.
         21   -1    0    0  501  503 -0.00000000000E+00 -0.00000000000E+00 -0.41275950308E+03  0.41275950308E+03  0.00000000000E+00 0.  1.
          6    1    1    2  501    0 -0.19736725851E+03 -0.31828080154E+03 -0.11218235660E+03  0.42751653126E+03  0.17300000000E+03 0. -1.
         -6    1    1    2    0  502  0.19736725851E+03  0.31828080154E+03  0.15480429415E+03  0.44062441246E+03  0.17300000000E+03 0.  1.
<mgrwt>
<rscale>  2 0.41253546E+03</rscale>
<asrwt>0</asrwt>
<pdfrwt beam="1">  1       21 0.70058683E-01 0.41253546E+03</pdfrwt>
<pdfrwt beam="2">  1       21 0.63501462E-01 0.41253546E+03</pdfrwt>
<totfact> 0.37591931E+03</totfact>
</mgrwt>
</event>
<event>
 4    1  0.4072310E+000  0.1955615E+03  0.7546771E-02  0.1153539E+00
         21   -1    0    0  503  502  0.00000000000E+00  0.00000000000E+00  0.96329080744E+02  0.96329080744E+02  0.00000000000E+00 0.  1.
         21   -1    0    0  501  503 -0.00000000000E+00 -0.00000000000E+00 -0.45505489456E+03  0.45505489456E+03  0.00000000000E+00 0. -1.
          6    1    1    2  501    0 -0.76414528207E+02 -0.49760458136E+02 -0.27782023555E+03  0.33974750418E+03  0.17300000000E+03 0. -1.
         -6    1    1    2    0  502  0.76414528207E+02  0.49760458136E+02 -0.80905578263E+02  0.21163647112E+03  0.17300000000E+03 0.  1.
<mgrwt>
<rscale>  2 0.19556146E+03</rscale>
<asrwt>0</asrwt>
<pdfrwt beam="1">  1       21 0.14819858E-01 0.19556146E+03</pdfrwt>
<pdfrwt beam="2">  1       21 0.70008446E-01 0.19556146E+03</pdfrwt>
<totfact> 0.74188780E+04</totfact>
</mgrwt>
</event>
<event>
 4    1  0.4072310E+000  0.1790539E+03  0.7546771E-02  0.1168722E+00
         21   -1    0    0  503  502  0.00000000000E+00  0.00000000000E+00  0.89414477168E+02  0.89414477168E+02  0.00000000000E+00 0. -1.
         21   -1    0    0  501  503 -0.00000000000E+00 -0.00000000000E+00 -0.12234404383E+04  0.12234404383E+04  0.00000000000E+00 0. -1.
          6    1    1    2  501    0 -0.18413858487E+02  0.42334726451E+02 -0.11189300141E+04  0.11331657760E+04  0.17300000000E+03 0. -1.
         -6    1    1    2    0  502  0.18413858487E+02 -0.42334726451E+02 -0.15095947004E+02  0.17968913953E+03  0.17300000000E+03 0. -1.
<mgrwt>
<rscale>  2 0.17905390E+03</rscale>
<asrwt>0</asrwt>
<pdfrwt beam="1">  1       21 0.13756075E-01 0.17905390E+03</pdfrwt>
<pdfrwt beam="2">  1       21 0.18822159E+00 0.17905390E+03</pdfrwt>
<totfact> 0.74435979E+03</totfact>
</mgrwt>
</event>
<event>
 4    1  0.4072310E+000  0.2828320E+03  0.7546771E-02  0.1094152E+00
         21   -1    0    0  501  502  0.00000000000E+00  0.00000000000E+00  0.74741287362E+02  0.74741287362E+02  0.00000000000E+00 0. -1.
         21   -1    0    0  502  503 -0.00000000000E+00 -0.00000000000E+00 -0.15942589569E+04  0.15942589569E+04  0.00000000000E+00 0. -1.
          6    1    1    2  501    0 -0.95885000440E+02 -0.20216582524E+03 -0.28134389731E+03  0.39893400802E+03  0.17300000000E+03 0. -1.
         -6    1    1    2    0  503  0.95885000440E+02  0.20216582524E+03 -0.12381737722E+04  0.12700662362E+04  0.17300000000E+03 0. -1.
<mgrwt>
<rscale>  2 0.28283202E+03</rscale>
<asrwt>0</asrwt>
<pdfrwt beam="1">  1       21 0.11498660E-01 0.28283202E+03</pdfrwt>
<pdfrwt beam="2">  1       21 0.24527060E+00 0.28283202E+03</pdfrwt>
<totfact> 0.41513697E+03</totfact>
</mgrwt>
</event>
<event>
 4    1  0.4072310E+000  0.2335216E+03  0.7546771E-02  0.1124185E+00
         21   -1    0    0  503  502  0.00000000000E+00  0.00000000000E+00  0.51778379202E+03  0.51778379202E+03  0.00000000000E+00 0. -1.
         21   -1    0    0  501  503 -0.00000000000E+00 -0.00000000000E+00 -0.14295982091E+03  0.14295982091E+03  0.00000000000E+00 0. -1.
          6    1    1    2  501    0  0.15564803593E+03 -0.19417485002E+02  0.17889669999E+02  0.23420587120E+03  0.17300000000E+03 0.  1.
         -6    1    1    2    0  502 -0.15564803593E+03  0.19417485002E+02  0.35693430111E+03  0.42653774173E+03  0.17300000000E+03 0.  1.
<mgrwt>
<rscale>  2 0.23352163E+03</rscale>
<asrwt>0</asrwt>
<pdfrwt beam="1">  1       21 0.79659043E-01 0.23352163E+03</pdfrwt>
<pdfrwt beam="2">  1       21 0.21993819E-01 0.23352163E+03</pdfrwt>
<totfact> 0.26231226E+04</totfact>
</mgrwt>
</event>
<event>
 4    1  0.4072310E+000  0.2330643E+03  0.7546771E-02  0.1124501E+00
         21   -1    0    0  501  502  0.00000000000E+00  0.00000000000E+00  0.28041657474E+03  0.28041657474E+03  0.00000000000E+00 0.  1.
         21   -1    0    0  502  503 -0.00000000000E+00 -0.00000000000E+00 -0.25882455793E+03  0.25882455793E+03  0.00000000000E+00 0.  1.
          6    1    1    2  501    0 -0.14124844721E+03 -0.66624800760E+02  0.14603295328E+03  0.27503565471E+03  0.17300000000E+03 0.  1.
         -6    1    1    2    0  503  0.14124844721E+03  0.66624800760E+02 -0.12444093648E+03  0.26420547797E+03  0.17300000000E+03 0.  1.
<mgrwt>
<rscale>  2 0.23306434E+03</rscale>
<asrwt>0</asrwt>
<pdfrwt beam="1">  1       21 0.43141012E-01 0.23306434E+03</pdfrwt>
<pdfrwt beam="2">  1       21 0.39819163E-01 0.23306434E+03</pdfrwt>
<totfact> 0.30756546E+04</totfact>
</mgrwt>
</event>
<event>
 4    1  0.4072310E+000  0.1934903E+03  0.7546771E-02  0.1155350E+00
         21   -1    0    0  503  502  0.00000000000E+00  0.00000000000E+00  0.47352192268E+03  0.47352192268E+03  0.00000000000E+00 0.  1.
         21   -1    0    0  501  503 -0.00000000000E+00 -0.00000000000E+00 -0.98180960450E+02  0.98180960450E+02  0.00000000000E+00 0. -1.
          6    1    1    2  501    0 -0.86485833149E+02  0.54492505236E+01  0.61535015122E+02  0.20303953249E+03  0.17300000000E+03 0. -1.
         -6    1    1    2    0  502  0.86485833149E+02 -0.54492505236E+01  0.31380594711E+03  0.36866335065E+03  0.17300000000E+03 0.  1.
<mgrwt>
<rscale>  2 0.19349029E+03</rscale>
<asrwt>0</asrwt>
<pdfrwt beam="1">  1       21 0.72849525E-01 0.19349029E+03</pdfrwt>
<pdfrwt beam="2">  1       21 0.15104763E-01 0.19349029E+03</pdfrwt>
<totfact> 0.65684841E+04</totfact>
</mgrwt>
</event>
<event>
 4    1  0.4072310E+000  0.2782215E+03  0.7546771E-02  0.1096664E+00
         21   -1    0    0  501  502  0.00000000000E+00  0.00000000000E+00  0.55501159795E+03  0.55501159795E+03  0.00000000000E+00 0.  1.
         21   -1    0    0  502  503 -0.00000000000E+00 -0.00000000000E+00 -0.19888895211E+03  0.19888895211E+03  0.00000000000E+00 0. -1.
          6    1    1    2  501    0 -0.19849418453E+03 -0.89879092918E+02  0.38409728943E+03  0.47427620685E+03  0.17300000000E+03 0.  1.
         -6    1    1    2    0  503  0.19849418453E+03  0.89879092918E+02 -0.27974643581E+02  0.27962434322E+03  0.17300000000E+03 0. -1.
<mgrwt>
<rscale>  2 0.27822148E+03</rscale>
<asrwt>0</asrwt>
<pdfrwt beam="1">  1       21 0.85386399E-01 0.27822148E+03</pdfrwt>
<pdfrwt beam="2">  1       21 0.30598301E-01 0.27822148E+03</pdfrwt>
<totfact> 0.11571308E+04</totfact>
</mgrwt>
</event>
<event>
 4    1  0.4072310E+000  0.2207604E+03  0.7546771E-02  0.1133317E+00
         21   -1    0    0  503  502  0.00000000000E+00  0.00000000000E+00  0.73206214026E+03  0.73206214026E+03  0.00000000000E+00 0. -1.
         21   -1    0    0  501  503 -0.00000000000E+00 -0.00000000000E+00 -0.84016801103E+02  0.84016801103E+02  0.00000000000E+00 0. -1.
          6    1    1    2  501    0  0.13622043951E+03 -0.15815385829E+02  0.13809367515E+03  0.26039392790E+03  0.17300000000E+03 0. -1.
         -6    1    1    2    0  502 -0.13622043951E+03  0.15815385829E+02  0.50995166400E+03  0.55568501346E+03  0.17300000000E+03 0. -1.
<mgrwt>
<rscale>  2 0.22076036E+03</rscale>
<asrwt>0</asrwt>
<pdfrwt beam="1">  1       21 0.11262494E+00 0.22076036E+03</pdfrwt>
<pdfrwt beam="2">  1       21 0.12925662E-01 0.22076036E+03</pdfrwt>
<totfact> 0.31182475E+04</totfact>
</mgrwt>
</event>
<event>
 4    1  0.4072310E+000  0.1761311E+03  0.7546771E-02  0.1171601E+00
         21   -1    0    0  503  502  0.00000000000E+00  0.00000000000E+00  0.72182509836E+03  0.72182509836E+03  0.00000000000E+00 0.  1.
         21   -1    0    0  501  503 -0.00000000000E+00 -0.00000000000E+00 -0.99487041803E+02  0.99487041803E+02  0.00000000000E+00 0.  1.
          6    1    1    2  501    0 -0.23570325647E+02 -0.23185955086E+02  0.16720901896E+01  0.17613899242E+03  0.17300000000E+03 0.  1.
         -6    1    1    2    0  502  0.23570325647E+02  0.23185955086E+02  0.62066596637E+03  0.64517314775E+03  0.17300000000E+03 0.  1.
<mgrwt>
<rscale>  2 0.17613106E+03</rscale>
<asrwt>0</asrwt>
<pdfrwt beam="1">  1       21 0.11105001E+00 0.17613106E+03</pdfrwt>
<pdfrwt beam="2">  1       21 0.15305699E-01 0.17613106E+03</pdfrwt>
<totfact> 0.24377372E+04</totfact>
</mgrwt>
</event>
<event>
 4    1  0.4072310E+000  0.1831317E+03  0.7546771E-02  0.1164806E+00
         21   -1    0    0  501  502  0.00000000000E+00  0.00000000000E+00  0.36005819609E+03  0.36005819609E+03  0.00000000000E+00 0. -1.
         21   -1    0    0  502  503 -0.00000000000E+00 -0.00000000000E+00 -0.98991915467E+02  0.98991915467E+02  0.00000000000E+00 0. -1.
          6    1    1    2  501    0  0.30740767056E+02 -0.51606385160E+02  0.18632047516E+03  0.26125185781E+03  0.17300000000E+03 0.  1.
         -6    1    1    2    0  503 -0.30740767056E+02  0.51606385160E+02  0.74745805462E+02  0.19779825374E+03  0.17300000000E+03 0.  1.
<mgrwt>
<rscale>  2 0.18313168E+03</rscale>
<asrwt>0</asrwt>
<pdfrwt beam="1">  1       21 0.55393568E-01 0.18313168E+03</pdfrwt>
<pdfrwt beam="2">  1       21 0.15229526E-01 0.18313168E+03</pdfrwt>
<totfact> 0.11763860E+05</totfact>
</mgrwt>
</event>
<event>
 4    1  0.4072310E+000  0.1832743E+03  0.7546771E-02  0.1164671E+00
         21   -1    0    0  503  502  0.00000000000E+00  0.00000000000E+00  0.21055248083E+03  0.21055248083E+03  0.00000000000E+00 0.  1.
         21   -1    0    0  501  503 -0.00000000000E+00 -0.00000000000E+00 -0.21079011754E+03  0.21079011754E+03  0.00000000000E+00 0.  1.
          6    1    1    2  501    0 -0.43634402824E+02 -0.41910767277E+02 -0.10400775949E+03  0.21072989242E+03  0.17300000000E+03 0.  1.
         -6    1    1    2    0  502  0.43634402824E+02  0.41910767277E+02  0.10377012278E+03  0.21061270595E+03  0.17300000000E+03 0.  1.
<mgrwt>
<rscale>  2 0.18327431E+03</rscale>
<asrwt>0</asrwt>
<pdfrwt beam="1">  1       21 0.32392689E-01 0.18327431E+03</pdfrwt>
<pdfrwt beam="2">  1       21 0.32429249E-01 0.18327431E+03</pdfrwt>
<totfact> 0.84212652E+04</totfact>
</mgrwt>
</event>
<event>
 4    1  0.4072310E+000  0.2627647E+03  0.7546771E-02  0.1105493E+00
         21   -1    0    0  501  502  0.00000000000E+00  0.00000000000E+00  0.14845729677E+03  0.14845729677E+03  0.00000000000E+00 0. -1.
         21   -1    0    0  502  503 -0.00000000000E+00 -0.00000000000E+00 -0.47038654254E+03  0.47038654254E+03  0.00000000000E+00 0.  1.
          6    1    1    2  501    0 -0.15324989352E+03  0.12502311235E+03 -0.19381284697E+03  0.32650992042E+03  0.17300000000E+03 0.  1.
         -6    1    1    2    0  503  0.15324989352E+03 -0.12502311235E+03 -0.12811639881E+03  0.29233391888E+03  0.17300000000E+03 0. -1.
<mgrwt>
<rscale>  2 0.26276474E+03</rscale>
<asrwt>0</asrwt>
<pdfrwt beam="1">  1       21 0.22839584E-01 0.26276474E+03</pdfrwt>
<pdfrwt beam="2">  1       21 0.72367162E-01 0.26276474E+03</pdfrwt>
<totfact> 0.29909637E+04</totfact>
</mgrwt>
</event>
<event>
 4    1  0.4072310E+000  0.1875048E+03  0.7546771E-02  0.1160731E+00
         21   -1    0    0  503  502  0.00000000000E+00  0.00000000000E+00  0.48898548631E+02  0.48898548631E+02  0.00000000000E+00 0.  1.
         21   -1    0    0  501  503 -0.00000000000E+00 -0.00000000000E+00 -0.79465305181E+03  0.79465305181E+03  0.00000000000E+00 0.  1.
          6    1    1    2  501    0 -0.71211271112E+02 -0.12569969306E+02 -0.50301597108E+03  0.53682689614E+03  0.17300000000E+03 0.  1.
         -6    1    1    2    0  502  0.71211271112E+02  0.12569969306E+02 -0.24273853211E+03  0.30672470431E+03  0.17300000000E+03 0.  1.
<mgrwt>
<rscale>  2 0.18750480E+03</rscale>
<asrwt>0</asrwt>
<pdfrwt beam="1">  1       21 0.75228538E-02 0.18750480E+03</pdfrwt>
<pdfrwt beam="2">  1       21 0.12225431E+00 0.18750480E+03</pdfrwt>
<totfact> 0.67498990E+04</totfact>
</mgrwt>
</event>
<event>
 4    1  0.4072310E+000  0.1927997E+03  0.7546771E-02  0.1155960E+00
         21   -1    0    0  501  502  0.00000000000E+00  0.00000000000E+00  0.17491936649E+03  0.17491936649E+03  0.00000000000E+00 0.  1.
         21   -1    0    0  502  503 -0.00000000000E+00 -0.00000000000E+00 -0.25490582686E+03  0.25490582686E+03  0.00000000000E+00 0.  1.
          6    1    1    2  501    0  0.22715524650E+02 -0.82016639258E+02  0.47655368303E+02  0.19860200982E+03  0.17300000000E+03 0.  1.
         -6    1    1    2    0  503 -0.22715524650E+02  0.82016639258E+02 -0.12764182867E+03  0.23122318353E+03  0.17300000000E+03 0.  1.
<mgrwt>
<rscale>  2 0.19279970E+03</rscale>
<asrwt>0</asrwt>
<pdfrwt beam="1">  1       21 0.26910672E-01 0.19279970E+03</pdfrwt>
<pdfrwt beam="2">  1       21 0.39216281E-01 0.19279970E+03</pdfrwt>
<totfact> 0.82454285E+04</totfact>
</mgrwt>
</event>
<event>
 4    1  0.4072310E+000  0.1931401E+03  0.7546771E-02  0.1155659E+00
         21   -1    0    0  501  502  0.00000000000E+00  0.00000000000E+00  0.93096990445E+03  0.93096990445E+03  0.00000000000E+00 0. -1.
         21   -1    0    0  502  503 -0.00000000000E+00 -0.00000000000E+00 -0.40317128016E+02  0.40317128016E+02  0.00000000000E+00 0. -1.
          6    1    1    2  501    0  0.78042347768E+02 -0.35825828786E+02  0.40723299703E+03  0.45071256020E+03  0.17300000000E+03 0. -1.
         -6    1    1    2    0  503 -0.78042347768E+02  0.35825828786E+02  0.48341977940E+03  0.52057447226E+03  0.17300000000E+03 0. -1.
<mgrwt>
<rscale>  2 0.19314010E+03</rscale>
<asrwt>0</asrwt>
<pdfrwt beam="1">  1       21 0.14322612E+00 0.19314010E+03</pdfrwt>
<pdfrwt beam="2">  1       21 0.62026358E-02 0.19314010E+03</pdfrwt>
<totfact> 0.62817895E+04</totfact>
</mgrwt>
</event>
<event>
 4    1  0.4072310E+000  0.1765257E+03  0.7546771E-02  0.1171209E+00
         21   -1    0    0  501  502  0.00000000000E+00  0.00000000000E+00  0.19425762299E+03  0.19425762299E+03  0.00000000000E+00 0. -1.
         21   -1    0    0  502  503 -0.00000000000E+00 -0.00000000000E+00 -0.18054480514E+03  0.18054480514E+03  0.00000000000E+00 0. -1.
          6    1    1    2  501    0  0.76477543682E+01  0.34261015359E+02  0.69435490802E+02  0.18969078181E+03  0.17300000000E+03 0. -1.
         -6    1    1    2    0  503 -0.76477543682E+01 -0.34261015359E+02 -0.55722672952E+02  0.18511164631E+03  0.17300000000E+03 0. -1.
<mgrwt>
<rscale>  2 0.17652565E+03</rscale>
<asrwt>0</asrwt>
<pdfrwt beam="1">  1       21 0.29885788E-01 0.17652565E+03</pdfrwt>
<pdfrwt beam="2">  1       21 0.27776124E-01 0.17652565E+03</pdfrwt>
<totfact> 0.13357068E+05</totfact>
</mgrwt>
</event>
<event>
 4    1  0.4072310E+000  0.4047506E+03  0.7546771E-02  0.1042147E+00
         21   -1    0    0  503  502  0.00000000000E+00  0.00000000000E+00  0.33455583169E+03  0.33455583169E+03  0.00000000000E+00 0.  1.
         21   -1    0    0  501  503 -0.00000000000E+00 -0.00000000000E+00 -0.61119850251E+03  0.61119850251E+03  0.00000000000E+00 0.  1.
          6    1    1    2  501    0  0.35558469646E+03 -0.86334039771E+02 -0.34917951976E+03  0.53455531033E+03  0.17300000000E+03 0.  1.
         -6    1    1    2    0  502 -0.35558469646E+03  0.86334039771E+02  0.72536848943E+02  0.41119902387E+03  0.17300000000E+03 0.  1.
<mgrwt>
<rscale>  2 0.40475059E+03</rscale>
<asrwt>0</asrwt>
<pdfrwt beam="1">  1       21 0.51470128E-01 0.40475059E+03</pdfrwt>
<pdfrwt beam="2">  1       21 0.94030538E-01 0.40475059E+03</pdfrwt>
<totfact> 0.30104554E+03</totfact>
</mgrwt>
</event>
<event>
 4    1  0.4072310E+000  0.2271905E+03  0.7546771E-02  0.1128633E+00
         21   -1    0    0  503  502  0.00000000000E+00  0.00000000000E+00  0.80680250083E+03  0.80680250083E+03  0.00000000000E+00 0.  1.
         21   -1    0    0  501  503 -0.00000000000E+00 -0.00000000000E+00 -0.93267338280E+02  0.93267338280E+02  0.00000000000E+00 0.  1.
          6    1    1    2  501    0  0.14698231062E+03  0.90945235659E+01  0.10456153029E+03  0.25009722831E+03  0.17300000000E+03 0.  1.
         -6    1    1    2    0  502 -0.14698231062E+03 -0.90945235659E+01  0.60897363227E+03  0.64997261080E+03  0.17300000000E+03 0.  1.
<mgrwt>
<rscale>  2 0.22719047E+03</rscale>
<asrwt>0</asrwt>
<pdfrwt beam="1">  1       21 0.12412346E+00 0.22719047E+03</pdfrwt>
<pdfrwt beam="2">  1       21 0.14348822E-01 0.22719047E+03</pdfrwt>
<totfact> 0.20212990E+04</totfact>
</mgrwt>
</event>
<event>
 4    1  0.4072310E+000  0.1827336E+03  0.7546771E-02  0.1165183E+00
         21   -1    0    0  501  502  0.00000000000E+00  0.00000000000E+00  0.15094115191E+04  0.15094115191E+04  0.00000000000E+00 0.  1.
         21   -1    0    0  502  503 -0.00000000000E+00 -0.00000000000E+00 -0.30698499317E+02  0.30698499317E+02  0.00000000000E+00 0.  1.
          6    1    1    2  501    0 -0.23087673685E+02  0.54125190636E+02  0.11463729116E+04  0.11608455666E+04  0.17300000000E+03 0.  1.
         -6    1    1    2    0  503  0.23087673685E+02 -0.54125190636E+02  0.33234010815E+03  0.37926445183E+03  0.17300000000E+03 0.  1.
<mgrwt>
<rscale>  2 0.18273362E+03</rscale>
<asrwt>0</asrwt>
<pdfrwt beam="1">  1       21 0.23221710E+00 0.18273362E+03</pdfrwt>
<pdfrwt beam="2">  1       21 0.47228472E-02 0.18273362E+03</pdfrwt>
<totfact> 0.25328006E+04</totfact>
</mgrwt>
</event>
<event>
 4    1  0.4072310E+000  0.1830031E+03  0.7546771E-02  0.1164928E+00
         21   -1    0    0  501  502  0.00000000000E+00  0.00000000000E+00  0.10263376458E+04  0.10263376458E+04  0.00000000000E+00 0.  1.
         21   -1    0    0  502  503 -0.00000000000E+00 -0.00000000000E+00 -0.32829163573E+02  0.32829163573E+02  0.00000000000E+00 0.  1.
          6    1    1    2  501    0  0.37179478413E+02 -0.46678005734E+02  0.45558161240E+03  0.49096308964E+03  0.17300000000E+03 0. -1.
         -6    1    1    2    0  503 -0.37179478413E+02  0.46678005734E+02  0.53792686983E+03  0.56820371974E+03  0.17300000000E+03 0. -1.
<mgrwt>
<rscale>  2 0.18300314E+03</rscale>
<asrwt>0</asrwt>
<pdfrwt beam="1">  1       21 0.15789807E+00 0.18300314E+03</pdfrwt>
<pdfrwt beam="2">  1       21 0.50506413E-02 0.18300314E+03</pdfrwt>
<totfact> 0.69323240E+04</totfact>
</mgrwt>
</event>
<event>
 4    1  0.4072310E+000  0.2068306E+03  0.7546771E-02  0.1144101E+00
         21   -1    0    0  503  502  0.00000000000E+00  0.00000000000E+00  0.24767627829E+02  0.24767627829E+02  0.00000000000E+00 0.  1.
         21   -1    0    0  501  503 -0.00000000000E+00 -0.00000000000E+00 -0.17816947788E+04  0.17816947788E+04  0.00000000000E+00 0.  1.
          6    1    1    2  501    0  0.85479939993E+02  0.74451880152E+02 -0.72051396276E+03  0.74961274878E+03  0.17300000000E+03 0.  1.
         -6    1    1    2    0  502 -0.85479939993E+02 -0.74451880152E+02 -0.10364131882E+04  0.10568496578E+04  0.17300000000E+03 0.  1.
<mgrwt>
<rscale>  2 0.20683061E+03</rscale>
<asrwt>0</asrwt>
<pdfrwt beam="1">  1       21 0.38104048E-02 0.20683061E+03</pdfrwt>
<pdfrwt beam="2">  1       21 0.27410685E+00 0.20683061E+03</pdfrwt>
<totfact> 0.20193863E+04</totfact>
</mgrwt>
</event>
<event>
 4    1  0.4072310E+000  0.1979252E+03  0.7546771E-02  0.1151501E+00
         21   -1    0    0  503  502  0.00000000000E+00  0.00000000000E+00  0.16238346680E+04  0.16238346680E+04  0.00000000000E+00 0.  1.
         21   -1    0    0  501  503 -0.00000000000E+00 -0.00000000000E+00 -0.26038685467E+02  0.26038685467E+02  0.00000000000E+00 0.  1.
          6    1    1    2  501    0 -0.54844785291E+02 -0.78977404570E+02  0.57523691252E+03  0.60833534044E+03  0.17300000000E+03 0.  1.
         -6    1    1    2    0  502  0.54844785291E+02  0.78977404570E+02  0.10225590700E+04  0.10415380130E+04  0.17300000000E+03 0.  1.
<mgrwt>
<rscale>  2 0.19792519E+03</rscale>
<asrwt>0</asrwt>
<pdfrwt beam="1">  1       21 0.24982064E+00 0.19792519E+03</pdfrwt>
<pdfrwt beam="2">  1       21 0.40059529E-02 0.19792519E+03</pdfrwt>
<totfact> 0.25938625E+04</totfact>
</mgrwt>
</event>
<event>
 4    1  0.4072310E+000  0.2151469E+03  0.7546771E-02  0.1137554E+00
         21   -1    0    0  503  502  0.00000000000E+00  0.00000000000E+00  0.10355154576E+04  0.10355154576E+04  0.00000000000E+00 0.  1.
         21   -1    0    0  501  503 -0.00000000000E+00 -0.00000000000E+00 -0.15201614654E+03  0.15201614654E+03  0.00000000000E+00 0.  1.
          6    1    1    2  501    0  0.61931512080E+02  0.11190916710E+03 -0.57136692028E+02  0.22260452701E+03  0.17300000000E+03 0.  1.
         -6    1    1    2    0  502 -0.61931512080E+02 -0.11190916710E+03  0.94063600306E+03  0.96492707711E+03  0.17300000000E+03 0.  1.
<mgrwt>
<rscale>  2 0.21514687E+03</rscale>
<asrwt>0</asrwt>
<pdfrwt beam="1">  1       21 0.15931007E+00 0.21514687E+03</pdfrwt>
<pdfrwt beam="2">  1       21 0.23387100E-01 0.21514687E+03</pdfrwt>
<totfact> 0.42960477E+03</totfact>
</mgrwt>
</event>
<event>
 4    1  0.4072310E+000  0.2131064E+03  0.7546771E-02  0.1139129E+00
         21   -1    0    0  503  502  0.00000000000E+00  0.00000000000E+00  0.18857100203E+03  0.18857100203E+03  0.00000000000E+00 0.  1.
         21   -1    0    0  501  503 -0.00000000000E+00 -0.00000000000E+00 -0.28876012616E+03  0.28876012616E+03  0.00000000000E+00 0.  1.
          6    1    1    2  501    0  0.10622339448E+03 -0.64822118358E+02 -0.14732609309E+03  0.25907391661E+03  0.17300000000E+03 0. -1.
         -6    1    1    2    0  502 -0.10622339448E+03  0.64822118358E+02  0.47136968963E+02  0.21825721158E+03  0.17300000000E+03 0. -1.
<mgrwt>
<rscale>  2 0.21310635E+03</rscale>
<asrwt>0</asrwt>
<pdfrwt beam="1">  1       21 0.29010924E-01 0.21310635E+03</pdfrwt>
<pdfrwt beam="2">  1       21 0.44424634E-01 0.21310635E+03</pdfrwt>
<totfact> 0.54812282E+04</totfact>
</mgrwt>
</event>
<event>
 4    1  0.4072310E+000  0.1792557E+03  0.7546771E-02  0.1168525E+00
         21   -1    0    0  501  502  0.00000000000E+00  0.00000000000E+00  0.10913003955E+04  0.10913003955E+04  0.00000000000E+00 0.  1.
         21   -1    0    0  502  503 -0.00000000000E+00 -0.00000000000E+00 -0.88574375442E+02  0.88574375442E+02  0.00000000000E+00 0.  1.
          6    1    1    2  501    0 -0.46275929230E+02  0.78842050152E+01  0.98337288000E+03  0.99957733240E+03  0.17300000000E+03 0.  1.
         -6    1    1    2    0  503  0.46275929230E+02 -0.78842050152E+01  0.19353140051E+02  0.18029743854E+03  0.17300000000E+03 0.  1.
<mgrwt>
<rscale>  2 0.17925575E+03</rscale>
<asrwt>0</asrwt>
<pdfrwt beam="1">  1       21 0.16789236E+00 0.17925575E+03</pdfrwt>
<pdfrwt beam="2">  1       21 0.13626828E-01 0.17925575E+03</pdfrwt>
<totfact> 0.10420340E+04</totfact>
</mgrwt>
</event>
<event>
 4    1  0.4072310E+000  0.2127112E+03  0.7546771E-02  0.1139437E+00
         21   -1    0    0  501  502  0.00000000000E+00  0.00000000000E+00  0.34308835852E+03  0.34308835852E+03  0.00000000000E+00 0. -1.
         21   -1    0    0  502  503 -0.00000000000E+00 -0.00000000000E+00 -0.17545512296E+03  0.17545512296E+03  0.00000000000E+00 0. -1.
          6    1    1    2  501    0 -0.10546178848E+02 -0.12331198212E+03  0.21302707210E+03  0.30104252236E+03  0.17300000000E+03 0. -1.
         -6    1    1    2    0  503  0.10546178848E+02  0.12331198212E+03 -0.45393836535E+02  0.21750095912E+03  0.17300000000E+03 0. -1.
<mgrwt>
<rscale>  2 0.21271123E+03</rscale>
<asrwt>0</asrwt>
<pdfrwt beam="1">  1       21 0.52782824E-01 0.21271123E+03</pdfrwt>
<pdfrwt beam="2">  1       21 0.26993096E-01 0.21271123E+03</pdfrwt>
<totfact> 0.44041434E+04</totfact>
</mgrwt>
</event>
<event>
 4    1  0.4072310E+000  0.2080376E+03  0.7546771E-02  0.1143129E+00
         21   -1    0    0  501  502  0.00000000000E+00  0.00000000000E+00  0.20045808822E+02  0.20045808822E+02  0.00000000000E+00 0.  1.
         21   -1    0    0  502  503 -0.00000000000E+00 -0.00000000000E+00 -0.23819454937E+04  0.23819454937E+04  0.00000000000E+00 0. -1.
          6    1    1    2  501    0 -0.77051328587E+02 -0.86103123899E+02 -0.81355061485E+03  0.83972868125E+03  0.17300000000E+03 0.  1.
         -6    1    1    2    0  503  0.77051328587E+02  0.86103123899E+02 -0.15483490700E+04  0.15622626213E+04  0.17300000000E+03 0. -1.
<mgrwt>
<rscale>  2 0.20803763E+03</rscale>
<asrwt>0</asrwt>
<pdfrwt beam="1">  1       21 0.30839720E-02 0.20803763E+03</pdfrwt>
<pdfrwt beam="2">  1       21 0.36645299E+00 0.20803763E+03</pdfrwt>
<totfact> 0.82837289E+03</totfact>
</mgrwt>
</event>
<event>
 4    1  0.4072310E+000  0.2019487E+03  0.7546771E-02  0.1148105E+00
         21   -1    0    0  503  502  0.00000000000E+00  0.00000000000E+00  0.64754664520E+03  0.64754664520E+03  0.00000000000E+00 0. -1.
         21   -1    0    0  501  503 -0.00000000000E+00 -0.00000000000E+00 -0.10559612018E+03  0.10559612018E+03  0.00000000000E+00 0.  1.
          6    1    1    2  501    0  0.63140334422E+02 -0.82870867374E+02  0.31751656577E+02  0.20442957268E+03  0.17300000000E+03 0.  1.
         -6    1    1    2    0  502 -0.63140334422E+02  0.82870867374E+02  0.51019886844E+03  0.54871319270E+03  0.17300000000E+03 0. -1.
<mgrwt>
<rscale>  2 0.20194871E+03</rscale>
<asrwt>0</asrwt>
<pdfrwt beam="1">  1       21 0.99622559E-01 0.20194871E+03</pdfrwt>
<pdfrwt beam="2">  1       21 0.16245557E-01 0.20194871E+03</pdfrwt>
<totfact> 0.27936925E+04</totfact>
</mgrwt>
</event>
<event>
 4    1  0.4072310E+000  0.1963088E+03  0.7546771E-02  0.1152891E+00
         21   -1    0    0  501  502  0.00000000000E+00  0.00000000000E+00  0.98219762623E+02  0.98219762623E+02  0.00000000000E+00 0. -1.
         21   -1    0    0  502  503 -0.00000000000E+00 -0.00000000000E+00 -0.39528833906E+03  0.39528833906E+03  0.00000000000E+00 0. -1.
          6    1    1    2  501    0  0.83666391207E+02 -0.40100794441E+02 -0.16978605883E+03  0.25954661336E+03  0.17300000000E+03 0. -1.
         -6    1    1    2    0  503 -0.83666391207E+02  0.40100794441E+02 -0.12728251761E+03  0.23396148833E+03  0.17300000000E+03 0. -1.
<mgrwt>
<rscale>  2 0.19630878E+03</rscale>
<asrwt>0</asrwt>
<pdfrwt beam="1">  1       21 0.15110733E-01 0.19630878E+03</pdfrwt>
<pdfrwt beam="2">  1       21 0.60813591E-01 0.19630878E+03</pdfrwt>
<totfact> 0.97289746E+04</totfact>
</mgrwt>
</event>
<event>
 4    1  0.4072310E+000  0.2630497E+03  0.7546771E-02  0.1105325E+00
         21   -1    0    0  503  502  0.00000000000E+00  0.00000000000E+00  0.16998956861E+04  0.16998956861E+04  0.00000000000E+00 0.  1.
         21   -1    0    0  501  503 -0.00000000000E+00 -0.00000000000E+00 -0.78814344710E+02  0.78814344710E+02  0.00000000000E+00 0. -1.
          6    1    1    2  501    0  0.64458519739E+02  0.18737989086E+03  0.19211807803E+03  0.32573682655E+03  0.17300000000E+03 0. -1.
         -6    1    1    2    0  502 -0.64458519739E+02 -0.18737989086E+03  0.14289632633E+04  0.14529732042E+04  0.17300000000E+03 0.  1.
<mgrwt>
<rscale>  2 0.26304966E+03</rscale>
<asrwt>0</asrwt>
<pdfrwt beam="1">  1       21 0.26152238E+00 0.26304966E+03</pdfrwt>
<pdfrwt beam="2">  1       21 0.12125285E-01 0.26304966E+03</pdfrwt>
<totfact> 0.30637628E+03</totfact>
</mgrwt>
</event>
<event>
 4    1  0.4072310E+000  0.1804385E+03  0.7546771E-02  0.1167379E+00
         21   -1    0    0  501  502  0.00000000000E+00  0.00000000000E+00  0.62843253695E+03  0.62843253695E+03  0.00000000000E+00 0.  1.
         21   -1    0    0  502  503 -0.00000000000E+00 -0.00000000000E+00 -0.30671191775E+03  0.30671191775E+03  0.00000000000E+00 0.  1.
          6    1    1    2  501    0 -0.44294694558E+02  0.25826967308E+02  0.58711712835E+03  0.61421867002E+03  0.17300000000E+03 0.  1.
         -6    1    1    2    0  503  0.44294694558E+02 -0.25826967308E+02 -0.26539650914E+03  0.32092578468E+03  0.17300000000E+03 0.  1.
<mgrwt>
<rscale>  2 0.18043850E+03</rscale>
<asrwt>0</asrwt>
<pdfrwt beam="1">  1       21 0.96681929E-01 0.18043850E+03</pdfrwt>
<pdfrwt beam="2">  1       21 0.47186449E-01 0.18043850E+03</pdfrwt>
<totfact> 0.38596271E+03</totfact>
</mgrwt>
</event>
<event>
 4    1  0.4072310E+000  0.1808112E+03  0.7546771E-02  0.1167020E+00
         21   -1    0    0  503  502  0.00000000000E+00  0.00000000000E+00  0.35729689491E+02  0.35729689491E+02  0.00000000000E+00 0.  1.
         21   -1    0    0  501  503 -0.00000000000E+00 -0.00000000000E+00 -0.92189001141E+03  0.92189001141E+03  0.00000000000E+00 0.  1.
          6    1    1    2  501    0  0.17385009528E+02  0.49613176758E+02 -0.48447042763E+03  0.51711149775E+03  0.17300000000E+03 0. -1.
         -6    1    1    2    0  502 -0.17385009528E+02 -0.49613176758E+02 -0.40168989430E+03  0.44050820315E+03  0.17300000000E+03 0. -1.
<mgrwt>
<rscale>  2 0.18081124E+03</rscale>
<asrwt>0</asrwt>
<pdfrwt beam="1">  1       21 0.54968756E-02 0.18081124E+03</pdfrwt>
<pdfrwt beam="2">  1       21 0.14182922E+00 0.18081124E+03</pdfrwt>
<totfact> 0.79691685E+04</totfact>
</mgrwt>
</event>
<event>
 4    1  0.4072310E+000  0.1883980E+03  0.7546771E-02  0.1159914E+00
         21   -1    0    0  501  502  0.00000000000E+00  0.00000000000E+00  0.24066210621E+03  0.24066210621E+03  0.00000000000E+00 0. -1.
         21   -1    0    0  502  503 -0.00000000000E+00 -0.00000000000E+00 -0.17901086899E+03  0.17901086899E+03  0.00000000000E+00 0. -1.
          6    1    1    2  501    0 -0.73742252162E+02 -0.11264855228E+02  0.11888619800E+03  0.22277285470E+03  0.17300000000E+03 0. -1.
         -6    1    1    2    0  503  0.73742252162E+02  0.11264855228E+02 -0.57234960783E+02  0.19690012050E+03  0.17300000000E+03 0. -1.
<mgrwt>
<rscale>  2 0.18839803E+03</rscale>
<asrwt>0</asrwt>
<pdfrwt beam="1">  1       21 0.37024939E-01 0.18839803E+03</pdfrwt>
<pdfrwt beam="2">  1       21 0.27540134E-01 0.18839803E+03</pdfrwt>
<totfact> 0.88650927E+04</totfact>
</mgrwt>
</event>
<event>
 4    1  0.4072310E+000  0.2258518E+03  0.7546771E-02  0.1129594E+00
         21   -1    0    0  503  502  0.00000000000E+00  0.00000000000E+00  0.37899139277E+03  0.37899139277E+03  0.00000000000E+00 0.  1.
         21   -1    0    0  501  503 -0.00000000000E+00 -0.00000000000E+00 -0.21818598133E+03  0.21818598133E+03  0.00000000000E+00 0. -1.
          6    1    1    2  501    0  0.13522991989E+03 -0.52848086812E+02 -0.10441710261E+03  0.24882118646E+03  0.17300000000E+03 0. -1.
         -6    1    1    2    0  502 -0.13522991989E+03  0.52848086812E+02  0.26522251405E+03  0.34835618765E+03  0.17300000000E+03 0.  1.
<mgrwt>
<rscale>  2 0.22585184E+03</rscale>
<asrwt>0</asrwt>
<pdfrwt beam="1">  1       21 0.58306368E-01 0.22585184E+03</pdfrwt>
<pdfrwt beam="2">  1       21 0.33567074E-01 0.22585184E+03</pdfrwt>
<totfact> 0.23118426E+04</totfact>
</mgrwt>
</event>
<event>
 4    1  0.4072310E+000  0.2185210E+03  0.7546771E-02  0.1134991E+00
         21   -1    0    0  501  502  0.00000000000E+00  0.00000000000E+00  0.24187139858E+03  0.24187139858E+03  0.00000000000E+00 0.  1.
         21   -1    0    0  502  503 -0.00000000000E+00 -0.00000000000E+00 -0.25190420928E+03  0.25190420928E+03  0.00000000000E+00 0. -1.
          6    1    1    2  501    0 -0.13304749271E+03 -0.10989868684E+02  0.10979845943E+03  0.24455493089E+03  0.17300000000E+03 0. -1.
         -6    1    1    2    0  503  0.13304749271E+03  0.10989868684E+02 -0.11983127013E+03  0.24922067697E+03  0.17300000000E+03 0.  1.
<mgrwt>
<rscale>  2 0.21852097E+03</rscale>
<asrwt>0</asrwt>
<pdfrwt beam="1">  1       21 0.37210984E-01 0.21852097E+03</pdfrwt>
<pdfrwt beam="2">  1       21 0.38754494E-01 0.21852097E+03</pdfrwt>
<totfact> 0.44155065E+04</totfact>
</mgrwt>
</event>
<event>
 4    1  0.4072310E+000  0.1913355E+03  0.7546771E-02  0.1157262E+00
         21   -1    0    0  503  502  0.00000000000E+00  0.00000000000E+00  0.71606449087E+02  0.71606449087E+02  0.00000000000E+00 0.  1.
         21   -1    0    0  501  503 -0.00000000000E+00 -0.00000000000E+00 -0.77906330917E+03  0.77906330917E+03  0.00000000000E+00 0.  1.
          6    1    1    2  501    0  0.54406003297E+02  0.60993849038E+02 -0.60310487345E+03  0.63272802309E+03  0.17300000000E+03 0.  1.
         -6    1    1    2    0  502 -0.54406003297E+02 -0.60993849038E+02 -0.10435198663E+03  0.21794173517E+03  0.17300000000E+03 0.  1.
<mgrwt>
<rscale>  2 0.19133547E+03</rscale>
<asrwt>0</asrwt>
<pdfrwt beam="1">  1       21 0.11016377E-01 0.19133547E+03</pdfrwt>
<pdfrwt beam="2">  1       21 0.11985589E+00 0.19133547E+03</pdfrwt>
<totfact> 0.36232253E+04</totfact>
</mgrwt>
</event>
<event>
 4    1  0.4072310E+000  0.2324044E+03  0.7546771E-02  0.1124959E+00
         21   -1    0    0  503  502  0.00000000000E+00  0.00000000000E+00  0.10956730072E+04  0.10956730072E+04  0.00000000000E+00 0. -1.
         21   -1    0    0  501  503 -0.00000000000E+00 -0.00000000000E+00 -0.68540812400E+02  0.68540812400E+02  0.00000000000E+00 0.  1.
          6    1    1    2  501    0 -0.67920067091E+02 -0.13953372507E+03  0.20511229592E+03  0.30997233729E+03  0.17300000000E+03 0.  1.
         -6    1    1    2    0  502  0.67920067091E+02  0.13953372507E+03  0.82201989890E+03  0.85424148233E+03  0.17300000000E+03 0. -1.
<mgrwt>
<rscale>  2 0.23240438E+03</rscale>
<asrwt>0</asrwt>
<pdfrwt beam="1">  1       21 0.16856506E+00 0.23240438E+03</pdfrwt>
<pdfrwt beam="2">  1       21 0.10544741E-01 0.23240438E+03</pdfrwt>
<totfact> 0.15698387E+04</totfact>
</mgrwt>
</event>
<event>
 4    1  0.4072310E+000  0.1997037E+03  0.7546771E-02  0.1149989E+00
         21   -1    0    0  503  502  0.00000000000E+00  0.00000000000E+00  0.68956257413E+03  0.68956257413E+03  0.00000000000E+00 0.  1.
         21   -1    0    0  501  503 -0.00000000000E+00 -0.00000000000E+00 -0.10192319396E+03  0.10192319396E+03  0.00000000000E+00 0.  1.
          6    1    1    2  501    0 -0.89821894581E+02  0.43411835477E+02  0.33544546834E+02  0.20250135019E+03  0.17300000000E+03 0.  1.
         -6    1    1    2    0  502  0.89821894581E+02 -0.43411835477E+02  0.55409483333E+03  0.58898441790E+03  0.17300000000E+03 0.  1.
<mgrwt>
<rscale>  2 0.19970368E+03</rscale>
<asrwt>0</asrwt>
<pdfrwt beam="1">  1       21 0.10608655E+00 0.19970368E+03</pdfrwt>
<pdfrwt beam="2">  1       21 0.15680492E-01 0.19970368E+03</pdfrwt>
<totfact> 0.25678056E+04</totfact>
</mgrwt>
</event>
<event>
 4    1  0.4072310E+000  0.2280993E+03  0.7546771E-02  0.1127985E+00
         21   -1    0    0  501  502  0.00000000000E+00  0.00000000000E+00  0.15711496430E+03  0.15711496430E+03  0.00000000000E+00 0. -1.
         21   -1    0    0  502  503 -0.00000000000E+00 -0.00000000000E+00 -0.52904152687E+03  0.52904152687E+03  0.00000000000E+00 0. -1.
          6    1    1    2  501    0 -0.10995845386E+03 -0.10004716813E+03  0.23861689067E+02  0.22934401590E+03  0.17300000000E+03 0. -1.
         -6    1    1    2    0  503  0.10995845386E+03  0.10004716813E+03 -0.39578825164E+03  0.45681247527E+03  0.17300000000E+03 0. -1.
<mgrwt>
<rscale>  2 0.22809931E+03</rscale>
<asrwt>0</asrwt>
<pdfrwt beam="1">  1       21 0.24171533E-01 0.22809931E+03</pdfrwt>
<pdfrwt beam="2">  1       21 0.81391005E-01 0.22809931E+03</pdfrwt>
<totfact> 0.20932048E+04</totfact>
</mgrwt>
</event>
<event>
 4    1  0.4072310E+000  0.2102353E+03  0.7546771E-02  0.1141380E+00
         21   -1    0    0  501  502  0.00000000000E+00  0.00000000000E+00  0.50494615109E+03  0.50494615109E+03  0.00000000000E+00 0.  1.
         21   -1    0    0  502  503 -0.00000000000E+00 -0.00000000000E+00 -0.14141308711E+03  0.14141308711E+03  0.00000000000E+00 0. -1.
          6    1    1    2  501    0  0.10628003881E+03 -0.54538465382E+02  0.38125499395E+03  0.43537829674E+03  0.17300000000E+03 0.  1.
         -6    1    1    2    0  503 -0.10628003881E+03  0.54538465382E+02 -0.17721929972E+02  0.21098094146E+03  0.17300000000E+03 0. -1.
<mgrwt>
<rscale>  2 0.21023532E+03</rscale>
<asrwt>0</asrwt>
<pdfrwt beam="1">  1       21 0.77684023E-01 0.21023532E+03</pdfrwt>
<pdfrwt beam="2">  1       21 0.21755860E-01 0.21023532E+03</pdfrwt>
<totfact> 0.28685481E+04</totfact>
</mgrwt>
</event>
<event>
 4    1  0.4072310E+000  0.3062596E+03  0.7546771E-02  0.1082153E+00
         21   -1    0    0  501  502  0.00000000000E+00  0.00000000000E+00  0.38547903080E+03  0.38547903080E+03  0.00000000000E+00 0. -1.
         21   -1    0    0  502  503 -0.00000000000E+00 -0.00000000000E+00 -0.24484377848E+03  0.24484377848E+03  0.00000000000E+00 0.  1.
          6    1    1    2  501    0  0.21080364097E+03  0.13938350369E+03  0.95176614876E+02  0.32070784862E+03  0.17300000000E+03 0. -1.
         -6    1    1    2    0  503 -0.21080364097E+03 -0.13938350369E+03  0.45458637446E+02  0.30961496066E+03  0.17300000000E+03 0. -1.
<mgrwt>
<rscale>  2 0.30625959E+03</rscale>
<asrwt>0</asrwt>
<pdfrwt beam="1">  1       21 0.59304466E-01 0.30625959E+03</pdfrwt>
<pdfrwt beam="2">  1       21 0.37668274E-01 0.30625959E+03</pdfrwt>
<totfact> 0.17054954E+04</totfact>
</mgrwt>
</event>
<event>
 4    1  0.4072310E+000  0.1852095E+03  0.7546771E-02  0.1162854E+00
         21   -1    0    0  501  502  0.00000000000E+00  0.00000000000E+00  0.40834577482E+03  0.40834577482E+03  0.00000000000E+00 0.  1.
         21   -1    0    0  502  503 -0.00000000000E+00 -0.00000000000E+00 -0.88901460178E+02  0.88901460178E+02  0.00000000000E+00 0.  1.
          6    1    1    2  501    0  0.60856318637E+02  0.25885636022E+02  0.21807829050E+03  0.28611308683E+03  0.17300000000E+03 0.  1.
         -6    1    1    2    0  503 -0.60856318637E+02 -0.25885636022E+02  0.10136602414E+03  0.21113414816E+03  0.17300000000E+03 0.  1.
<mgrwt>
<rscale>  2 0.18520950E+03</rscale>
<asrwt>0</asrwt>
<pdfrwt beam="1">  1       21 0.62822426E-01 0.18520950E+03</pdfrwt>
<pdfrwt beam="2">  1       21 0.13677148E-01 0.18520950E+03</pdfrwt>
<totfact> 0.10914713E+05</totfact>
</mgrwt>
</event>
<event>
 4    1  0.4072310E+000  0.2396388E+03  0.7546771E-02  0.1120034E+00
         21   -1    0    0  501  502  0.00000000000E+00  0.00000000000E+00  0.17052590866E+03  0.17052590866E+03  0.00000000000E+00 0.  1.
         21   -1    0    0  502  503 -0.00000000000E+00 -0.00000000000E+00 -0.36826421514E+03  0.36826421514E+03  0.00000000000E+00 0.  1.
          6    1    1    2  501    0  0.33623551888E+01 -0.16579036693E+03 -0.20078234070E+02  0.24047845368E+03  0.17300000000E+03 0.  1.
         -6    1    1    2    0  503 -0.33623551888E+01  0.16579036693E+03 -0.17766007241E+03  0.29831167012E+03  0.17300000000E+03 0.  1.
<mgrwt>
<rscale>  2 0.23963879E+03</rscale>
<asrwt>0</asrwt>
<pdfrwt beam="1">  1       21 0.26234755E-01 0.23963879E+03</pdfrwt>
<pdfrwt beam="2">  1       21 0.56656033E-01 0.23963879E+03</pdfrwt>
<totfact> 0.39548163E+04</totfact>
</mgrwt>
</event>
<event>
 4    1  0.4072310E+000  0.2914669E+03  0.7546771E-02  0.1089586E+00
         21   -1    0    0  503  502  0.00000000000E+00  0.00000000000E+00  0.70137335013E+03  0.70137335013E+03  0.00000000000E+00 0. -1.
         21   -1    0    0  501  503 -0.00000000000E+00 -0.00000000000E+00 -0.13396456633E+03  0.13396456633E+03  0.00000000000E+00 0.  1.
          6    1    1    2  501    0  0.20278398047E+03 -0.11790940343E+03  0.15439396401E+03  0.32983399806E+03  0.17300000000E+03 0.  1.
         -6    1    1    2    0  502 -0.20278398047E+03  0.11790940343E+03  0.41301481978E+03  0.50550391840E+03  0.17300000000E+03 0. -1.
<mgrwt>
<rscale>  2 0.29146693E+03</rscale>
<asrwt>0</asrwt>
<pdfrwt beam="1">  1       21 0.10790359E+00 0.29146693E+03</pdfrwt>
<pdfrwt beam="2">  1       21 0.20609934E-01 0.29146693E+03</pdfrwt>
<totfact> 0.14130323E+04</totfact>
</mgrwt>
</event>
<event>
 4    1  0.4072310E+000  0.2399457E+03  0.7546771E-02  0.1119829E+00
         21   -1    0    0  503  502  0.00000000000E+00  0.00000000000E+00  0.77715124610E+03  0.77715124610E+03  0.00000000000E+00 0.  1.
         21   -1    0    0  501  503 -0.00000000000E+00 -0.00000000000E+00 -0.13840933078E+03  0.13840933078E+03  0.00000000000E+00 0. -1.
          6    1    1    2  501    0  0.16333594852E+03  0.31085312964E+02  0.72896322151E+01  0.24005638400E+03  0.17300000000E+03 0. -1.
         -6    1    1    2    0  502 -0.16333594852E+03 -0.31085312964E+02  0.63145228311E+03  0.67550419288E+03  0.17300000000E+03 0.  1.
<mgrwt>
<rscale>  2 0.23994568E+03</rscale>
<asrwt>0</asrwt>
<pdfrwt beam="1">  1       21 0.11956173E+00 0.23994568E+03</pdfrwt>
<pdfrwt beam="2">  1       21 0.21293744E-01 0.23994568E+03</pdfrwt>
<totfact> 0.10601699E+04</totfact>
</mgrwt>
</event>
<event>
 4    1  0.4072310E+000  0.1926353E+03  0.7546771E-02  0.1156106E+00
         21   -1    0    0  501  502  0.00000000000E+00  0.00000000000E+00  0.10432543234E+04  0.10432543234E+04  0.00000000000E+00 0.  1.
         21   -1    0    0  502  503 -0.00000000000E+00 -0.00000000000E+00 -0.36242992579E+02  0.36242992579E+02  0.00000000000E+00 0.  1.
          6    1    1    2  501    0  0.47486154221E+02  0.70174348515E+02  0.57706555078E+03  0.60836915104E+03  0.17300000000E+03 0. -1.
         -6    1    1    2    0  503 -0.47486154221E+02 -0.70174348515E+02  0.42994578007E+03  0.47112816497E+03  0.17300000000E+03 0. -1.
<mgrwt>
<rscale>  2 0.19263534E+03</rscale>
<asrwt>0</asrwt>
<pdfrwt beam="1">  1       21 0.16050064E+00 0.19263534E+03</pdfrwt>
<pdfrwt beam="2">  1       21 0.55758458E-02 0.19263534E+03</pdfrwt>
<totfact> 0.55780823E+04</totfact>
</mgrwt>
</event>
<event>
 4    1  0.4072310E+000  0.1747573E+03  0.7546771E-02  0.1172976E+00
         21   -1    0    0  501  502  0.00000000000E+00  0.00000000000E+00  0.89560339515E+02  0.89560339515E+02  0.00000000000E+00 0. -1.
         21   -1    0    0  502  503 -0.00000000000E+00 -0.00000000000E+00 -0.66519420322E+03  0.66519420322E+03  0.00000000000E+00 0. -1.
          6    1    1    2  501    0 -0.22649677015E+02 -0.99039964996E+01 -0.24363429947E+02  0.17644736817E+03  0.17300000000E+03 0. -1.
         -6    1    1    2    0  503  0.22649677015E+02  0.99039964996E+01 -0.55127043376E+03  0.57830717456E+03  0.17300000000E+03 0. -1.
<mgrwt>
<rscale>  2 0.17475725E+03</rscale>
<asrwt>0</asrwt>
<pdfrwt beam="1">  1       21 0.13778514E-01 0.17475725E+03</pdfrwt>
<pdfrwt beam="2">  1       21 0.10233757E+00 0.17475725E+03</pdfrwt>
<totfact> 0.35911128E+04</totfact>
</mgrwt>
</event>
<event>
 4    1  0.4072310E+000  0.1997279E+03  0.7546771E-02  0.1149969E+00
         21   -1    0    0  503  502  0.00000000000E+00  0.00000000000E+00  0.97045032087E+03  0.97045032087E+03  0.00000000000E+00 0. -1.
         21   -1    0    0  501  503 -0.00000000000E+00 -0.00000000000E+00 -0.29781450923E+03  0.29781450923E+03  0.00000000000E+00 0. -1.
          6    1    1    2  501    0  0.43430872935E+02  0.89866505746E+02 -0.25242711625E+03  0.32188612676E+03  0.17300000000E+03 0. -1.
         -6    1    1    2    0  502 -0.43430872935E+02 -0.89866505746E+02  0.92506292789E+03  0.94637870334E+03  0.17300000000E+03 0. -1.
<mgrwt>
<rscale>  2 0.19972789E+03</rscale>
<asrwt>0</asrwt>
<pdfrwt beam="1">  1       21 0.14930005E+00 0.19972789E+03</pdfrwt>
<pdfrwt beam="2">  1       21 0.45817617E-01 0.19972789E+03</pdfrwt>
<totfact> 0.13720584E+03</totfact>
</mgrwt>
</event>
<event>
 4    1  0.4072310E+000  0.2825910E+03  0.7546771E-02  0.1094282E+00
         21   -1    0    0  503  502  0.00000000000E+00  0.00000000000E+00  0.49180241534E+03  0.49180241534E+03  0.00000000000E+00 0. -1.
         21   -1    0    0  501  503 -0.00000000000E+00 -0.00000000000E+00 -0.38921541895E+03  0.38921541895E+03  0.00000000000E+00 0.  1.
          6    1    1    2  501    0 -0.20327940930E+03  0.92769340452E+02 -0.28499922500E+03  0.40135050395E+03  0.17300000000E+03 0.  1.
         -6    1    1    2    0  502  0.20327940930E+03 -0.92769340452E+02  0.38758622139E+03  0.47966733033E+03  0.17300000000E+03 0.  1.
<mgrwt>
<rscale>  2 0.28259099E+03</rscale>
<asrwt>0</asrwt>
<pdfrwt beam="1">  1       21 0.75661910E-01 0.28259099E+03</pdfrwt>
<pdfrwt beam="2">  1       21 0.59879295E-01 0.28259099E+03</pdfrwt>
<totfact> 0.38145821E+03</totfact>
</mgrwt>
</event>
<event>
 4    1  0.4072310E+000  0.3646708E+03  0.7546771E-02  0.1056750E+00
         21   -1    0    0  501  502  0.00000000000E+00  0.00000000000E+00  0.84595422433E+03  0.84595422433E+03  0.00000000000E+00 0.  1.
         21   -1    0    0  502  503 -0.00000000000E+00 -0.00000000000E+00 -0.21446918447E+03  0.21446918447E+03  0.00000000000E+00 0.  1.
          6    1    1    2  501    0  0.30622753017E+03 -0.96335396184E+02  0.58972560576E+03  0.69336938127E+03  0.17300000000E+03 0.  1.
         -6    1    1    2    0  503 -0.30622753017E+03  0.96335396184E+02  0.41759434093E+02  0.36705402753E+03  0.17300000000E+03 0.  1.
<mgrwt>
<rscale>  2 0.36467082E+03</rscale>
<asrwt>0</asrwt>
<pdfrwt beam="1">  1       21 0.13014680E+00 0.36467082E+03</pdfrwt>
<pdfrwt beam="2">  1       21 0.32995259E-01 0.36467082E+03</pdfrwt>
<totfact> 0.34236208E+03</totfact>
</mgrwt>
</event>
<event>
 4    1  0.4072310E+000  0.3442445E+03  0.7546771E-02  0.1065002E+00
         21   -1    0    0  503  502  0.00000000000E+00  0.00000000000E+00  0.10922241976E+03  0.10922241976E+03  0.00000000000E+00 0. -1.
         21   -1    0    0  501  503 -0.00000000000E+00 -0.00000000000E+00 -0.12232396731E+04  0.12232396731E+04  0.00000000000E+00 0.  1.
          6    1    1    2  501    0  0.22402082058E+03 -0.19593356126E+03 -0.78099145784E+03  0.85349396348E+03  0.17300000000E+03 0.  1.
         -6    1    1    2    0  502 -0.22402082058E+03  0.19593356126E+03 -0.33302579547E+03  0.47896812934E+03  0.17300000000E+03 0. -1.
<mgrwt>
<rscale>  2 0.34424452E+03</rscale>
<asrwt>0</asrwt>
<pdfrwt beam="1">  1       21 0.16803450E-01 0.34424452E+03</pdfrwt>
<pdfrwt beam="2">  1       21 0.18819071E+00 0.34424452E+03</pdfrwt>
<totfact> 0.46085364E+03</totfact>
</mgrwt>
</event>
<event>
 4    1  0.4072310E+000  0.2933575E+03  0.7546771E-02  0.1088609E+00
         21   -1    0    0  503  502  0.00000000000E+00  0.00000000000E+00  0.39066707343E+03  0.39066707343E+03  0.00000000000E+00 0. -1.
         21   -1    0    0  501  503 -0.00000000000E+00 -0.00000000000E+00 -0.22186186692E+03  0.22186186692E+03  0.00000000000E+00 0.  1.
          6    1    1    2  501    0  0.46119289045E+02 -0.23238468417E+03  0.58594000259E+02  0.29915194655E+03  0.17300000000E+03 0. -1.
         -6    1    1    2    0  502 -0.46119289045E+02  0.23238468417E+03  0.11021120626E+03  0.31337699380E+03  0.17300000000E+03 0. -1.
<mgrwt>
<rscale>  2 0.29335751E+03</rscale>
<asrwt>0</asrwt>
<pdfrwt beam="1">  1       21 0.60102627E-01 0.29335751E+03</pdfrwt>
<pdfrwt beam="2">  1       21 0.34132595E-01 0.29335751E+03</pdfrwt>
<totfact> 0.20306452E+04</totfact>
</mgrwt>
</event>
<event>
 4    1  0.4072310E+000  0.2334867E+03  0.7546771E-02  0.1124209E+00
         21   -1    0    0  501  502  0.00000000000E+00  0.00000000000E+00  0.71944300076E+03  0.71944300076E+03  0.00000000000E+00 0.  1.
         21   -1    0    0  502  503 -0.00000000000E+00 -0.00000000000E+00 -0.80565381266E+02  0.80565381266E+02  0.00000000000E+00 0. -1.
          6    1    1    2  501    0 -0.15620701027E+03 -0.13652632401E+02  0.41697387758E+03  0.47789458986E+03  0.17300000000E+03 0.  1.
         -6    1    1    2    0  503  0.15620701027E+03  0.13652632401E+02  0.22190374192E+03  0.32211379217E+03  0.17300000000E+03 0. -1.
<mgrwt>
<rscale>  2 0.23348667E+03</rscale>
<asrwt>0</asrwt>
<pdfrwt beam="1">  1       21 0.11068353E+00 0.23348667E+03</pdfrwt>
<pdfrwt beam="2">  1       21 0.12394674E-01 0.23348667E+03</pdfrwt>
<totfact> 0.34861491E+04</totfact>
</mgrwt>
</event>
<event>
 4    1  0.4072310E+000  0.2017600E+03  0.7546771E-02  0.1148262E+00
         21   -1    0    0  503  502  0.00000000000E+00  0.00000000000E+00  0.52417829237E+03  0.52417829237E+03  0.00000000000E+00 0. -1.
         21   -1    0    0  501  503 -0.00000000000E+00 -0.00000000000E+00 -0.77887164774E+02  0.77887164774E+02  0.00000000000E+00 0. -1.
          6    1    1    2  501    0  0.90579429467E+02 -0.50729521254E+02  0.23944175440E+03  0.31311255344E+03  0.17300000000E+03 0. -1.
         -6    1    1    2    0  502 -0.90579429467E+02  0.50729521254E+02  0.20684937319E+03  0.28895290370E+03  0.17300000000E+03 0. -1.
<mgrwt>
<rscale>  2 0.20176005E+03</rscale>
<asrwt>0</asrwt>
<pdfrwt beam="1">  1       21 0.80642812E-01 0.20176005E+03</pdfrwt>
<pdfrwt beam="2">  1       21 0.11982641E-01 0.20176005E+03</pdfrwt>
<totfact> 0.79143758E+04</totfact>
</mgrwt>
</event>
<event>
 4    1  0.4072310E+000  0.1828005E+03  0.7546771E-02  0.1165120E+00
         21   -1    0    0  503  502  0.00000000000E+00  0.00000000000E+00  0.78262281568E+02  0.78262281568E+02  0.00000000000E+00 0.  1.
         21   -1    0    0  501  503 -0.00000000000E+00 -0.00000000000E+00 -0.53303406053E+03  0.53303406053E+03  0.00000000000E+00 0.  1.
          6    1    1    2  501    0 -0.16739243430E+01  0.59027238986E+02 -0.36372446449E+03  0.40707677781E+03  0.17300000000E+03 0.  1.
         -6    1    1    2    0  502  0.16739243430E+01 -0.59027238986E+02 -0.91047314474E+02  0.20421956429E+03  0.17300000000E+03 0.  1.
<mgrwt>
<rscale>  2 0.18280048E+03</rscale>
<asrwt>0</asrwt>
<pdfrwt beam="1">  1       21 0.12040351E-01 0.18280048E+03</pdfrwt>
<pdfrwt beam="2">  1       21 0.82005238E-01 0.18280048E+03</pdfrwt>
<totfact> 0.76170541E+04</totfact>
</mgrwt>
</event>
<event>
 4    1  0.4072310E+000  0.1781706E+03  0.7546771E-02  0.1169585E+00
         21   -1    0    0  501  502  0.00000000000E+00  0.00000000000E+00  0.17070567102E+03  0.17070567102E+03  0.00000000000E+00 0.  1.
         21   -1    0    0  502  503 -0.00000000000E+00 -0.00000000000E+00 -0.24226722512E+03  0.24226722512E+03  0.00000000000E+00 0.  1.
          6    1    1    2  501    0 -0.11284650868E+02  0.41090339235E+02  0.63764066120E+02  0.18923692941E+03  0.17300000000E+03 0.  1.
         -6    1    1    2    0  503  0.11284650868E+02 -0.41090339235E+02 -0.13532562022E+03  0.22373596673E+03  0.17300000000E+03 0.  1.
<mgrwt>
<rscale>  2 0.17817059E+03</rscale>
<asrwt>0</asrwt>
<pdfrwt beam="1">  1       21 0.26262411E-01 0.17817059E+03</pdfrwt>
<pdfrwt beam="2">  1       21 0.37271881E-01 0.17817059E+03</pdfrwt>
<totfact> 0.96225053E+04</totfact>
</mgrwt>
</event>
<event>
 4    1  0.4072310E+000  0.2468501E+03  0.7546771E-02  0.1115312E+00
         21   -1    0    0  503  502  0.00000000000E+00  0.00000000000E+00  0.35357772714E+03  0.35357772714E+03  0.00000000000E+00 0.  1.
         21   -1    0    0  501  503 -0.00000000000E+00 -0.00000000000E+00 -0.26394638755E+03  0.26394638755E+03  0.00000000000E+00 0.  1.
          6    1    1    2  501    0  0.17555761046E+03 -0.13620229030E+02 -0.13708444272E+03  0.28235992929E+03  0.17300000000E+03 0.  1.
         -6    1    1    2    0  502 -0.17555761046E+03  0.13620229030E+02  0.22671578231E+03  0.33516418541E+03  0.17300000000E+03 0.  1.
<mgrwt>
<rscale>  2 0.24685013E+03</rscale>
<asrwt>0</asrwt>
<pdfrwt beam="1">  1       21 0.54396573E-01 0.24685013E+03</pdfrwt>
<pdfrwt beam="2">  1       21 0.40607137E-01 0.24685013E+03</pdfrwt>
<totfact> 0.18096780E+04</totfact>
</mgrwt>
</event>
<event>
 4    1  0.4072310E+000  0.2059779E+03  0.7546771E-02  0.1144791E+00
         21   -1    0    0  503  502  0.00000000000E+00  0.00000000000E+00  0.71654663738E+03  0.71654663738E+03  0.00000000000E+00 0.  1.
         21   -1    0    0  501  503 -0.00000000000E+00 -0.00000000000E+00 -0.59695029623E+02  0.59695029623E+02  0.00000000000E+00 0. -1.
          6    1    1    2  501    0  0.10995450964E+03 -0.20197009871E+02  0.36340140062E+03  0.41771699914E+03  0.17300000000E+03 0.  1.
         -6    1    1    2    0  502 -0.10995450964E+03  0.20197009871E+02  0.29345020714E+03  0.35852466786E+03  0.17300000000E+03 0.  1.
<mgrwt>
<rscale>  2 0.20597794E+03</rscale>
<asrwt>0</asrwt>
<pdfrwt beam="1">  1       21 0.11023794E+00 0.20597794E+03</pdfrwt>
<pdfrwt beam="2">  1       21 0.91838512E-02 0.20597794E+03</pdfrwt>
<totfact> 0.60845629E+04</totfact>
</mgrwt>
</event>
<event>
 4    1  0.4072310E+000  0.2000313E+03  0.7546771E-02  0.1149713E+00
         21   -1    0    0  503  502  0.00000000000E+00  0.00000000000E+00  0.15787435650E+04  0.15787435650E+04  0.00000000000E+00 0.  1.
         21   -1    0    0  501  503 -0.00000000000E+00 -0.00000000000E+00 -0.42123738373E+02  0.42123738373E+02  0.00000000000E+00 0. -1.
          6    1    1    2  501    0  0.10036091420E+03 -0.33487228959E+01  0.25681698177E+03  0.32552647998E+03  0.17300000000E+03 0. -1.
         -6    1    1    2    0  502 -0.10036091420E+03  0.33487228959E+01  0.12798028449E+04  0.12953408234E+04  0.17300000000E+03 0.  1.
<mgrwt>
<rscale>  2 0.20003132E+03</rscale>
<asrwt>0</asrwt>
<pdfrwt beam="1">  1       21 0.24288358E+00 0.20003132E+03</pdfrwt>
<pdfrwt beam="2">  1       21 0.64805764E-02 0.20003132E+03</pdfrwt>
<totfact> 0.12569688E+04</totfact>
</mgrwt>
</event>
<event>
 4    1  0.4072310E+000  0.2012496E+03  0.7546771E-02  0.1148689E+00
         21   -1    0    0  501  502  0.00000000000E+00  0.00000000000E+00  0.40006520655E+03  0.40006520655E+03  0.00000000000E+00 0.  1.
         21   -1    0    0  502  503 -0.00000000000E+00 -0.00000000000E+00 -0.12065438771E+03  0.12065438771E+03  0.00000000000E+00 0.  1.
          6    1    1    2  501    0  0.10223278821E+03  0.10994429681E+02  0.24415271240E+03  0.31640475256E+03  0.17300000000E+03 0.  1.
         -6    1    1    2    0  503 -0.10223278821E+03 -0.10994429681E+02  0.35258106438E+02  0.20431484170E+03  0.17300000000E+03 0.  1.
<mgrwt>
<rscale>  2 0.20124965E+03</rscale>
<asrwt>0</asrwt>
<pdfrwt beam="1">  1       21 0.61548493E-01 0.20124965E+03</pdfrwt>
<pdfrwt beam="2">  1       21 0.18562214E-01 0.20124965E+03</pdfrwt>
<totfact> 0.64798988E+04</totfact>
</mgrwt>
</event>
<event>
 4    1  0.4072310E+000  0.2100069E+03  0.7546771E-02  0.1141561E+00
         21   -1    0    0  503  502  0.00000000000E+00  0.00000000000E+00  0.59488105346E+02  0.59488105346E+02  0.00000000000E+00 0.  1.
         21   -1    0    0  501  503 -0.00000000000E+00 -0.00000000000E+00 -0.12835836480E+04  0.12835836480E+04  0.00000000000E+00 0. -1.
          6    1    1    2  501    0  0.25294331445E+01  0.11902724332E+03 -0.10485044083E+04  0.10693289376E+04  0.17300000000E+03 0. -1.
         -6    1    1    2    0  502 -0.25294331445E+01 -0.11902724332E+03 -0.17559113438E+03  0.27374281572E+03  0.17300000000E+03 0.  1.
<mgrwt>
<rscale>  2 0.21000686E+03</rscale>
<asrwt>0</asrwt>
<pdfrwt beam="1">  1       21 0.91520166E-02 0.21000686E+03</pdfrwt>
<pdfrwt beam="2">  1       21 0.19747440E+00 0.21000686E+03</pdfrwt>
<totfact> 0.13041673E+04</totfact>
</mgrwt>
</event>
<event>
 4    1  0.4072310E+000  0.2351956E+03  0.7546771E-02  0.1123035E+00
         21   -1    0    0  501  502  0.00000000000E+00  0.00000000000E+00  0.60722036077E+02  0.60722036077E+02  0.00000000000E+00 0.  1.
         21   -1    0    0  502  503 -0.00000000000E+00 -0.00000000000E+00 -0.92165608378E+03  0.92165608378E+03  0.00000000000E+00 0. -1.
          6    1    1    2  501    0  0.15867870518E+03  0.14458699928E+02 -0.37761911585E+03  0.44487434421E+03  0.17300000000E+03 0.  1.
         -6    1    1    2    0  503 -0.15867870518E+03 -0.14458699928E+02 -0.48331493186E+03  0.53750377565E+03  0.17300000000E+03 0. -1.
<mgrwt>
<rscale>  2 0.23519563E+03</rscale>
<asrwt>0</asrwt>
<pdfrwt beam="1">  1       21 0.93418518E-02 0.23519563E+03</pdfrwt>
<pdfrwt beam="2">  1       21 0.14179324E+00 0.23519563E+03</pdfrwt>
<totfact> 0.30910351E+04</totfact>
</mgrwt>
</event>
<event>
 4    1  0.4072310E+000  0.2516728E+03  0.7546771E-02  0.1112252E+00
         21   -1    0    0  503  502  0.00000000000E+00  0.00000000000E+00  0.10584856962E+03  0.10584856962E+03  0.00000000000E+00 0.  1.
         21   -1    0    0  501  503 -0.00000000000E+00 -0.00000000000E+00 -0.71383930188E+03  0.71383930188E+03  0.00000000000E+00 0.  1.
          6    1    1    2  501    0  0.11358627265E+03  0.14320740985E+03 -0.46881367259E+03  0.53209535159E+03  0.17300000000E+03 0.  1.
         -6    1    1    2    0  502 -0.11358627265E+03 -0.14320740985E+03 -0.13917705966E+03  0.28759251991E+03  0.17300000000E+03 0.  1.
<mgrwt>
<rscale>  2 0.25167281E+03</rscale>
<asrwt>0</asrwt>
<pdfrwt beam="1">  1       21 0.16284395E-01 0.25167281E+03</pdfrwt>
<pdfrwt beam="2">  1       21 0.10982143E+00 0.25167281E+03</pdfrwt>
<totfact> 0.21414296E+04</totfact>
</mgrwt>
</event>
<event>
 4    1  0.4072310E+000  0.2192219E+03  0.7546771E-02  0.1134465E+00
         21   -1    0    0  501  502  0.00000000000E+00  0.00000000000E+00  0.24724223569E+03  0.24724223569E+03  0.00000000000E+00 0.  1.
         21   -1    0    0  502  503 -0.00000000000E+00 -0.00000000000E+00 -0.20112583739E+03  0.20112583739E+03  0.00000000000E+00 0. -1.
          6    1    1    2  501    0 -0.93108393934E+02  0.97262815437E+02  0.64124168551E+02  0.22840783104E+03  0.17300000000E+03 0.  1.
         -6    1    1    2    0  503  0.93108393934E+02 -0.97262815437E+02 -0.18007770252E+02  0.21996024204E+03  0.17300000000E+03 0. -1.
<mgrwt>
<rscale>  2 0.21922187E+03</rscale>
<asrwt>0</asrwt>
<pdfrwt beam="1">  1       21 0.38037267E-01 0.21922187E+03</pdfrwt>
<pdfrwt beam="2">  1       21 0.30942436E-01 0.21922187E+03</pdfrwt>
<totfact> 0.66087432E+04</totfact>
</mgrwt>
</event>
<event>
 4    1  0.4072310E+000  0.2076112E+03  0.7546771E-02  0.1143472E+00
         21   -1    0    0  503  502  0.00000000000E+00  0.00000000000E+00  0.16017678735E+03  0.16017678735E+03  0.00000000000E+00 0.  1.
         21   -1    0    0  501  503 -0.00000000000E+00 -0.00000000000E+00 -0.46022154673E+03  0.46022154673E+03  0.00000000000E+00 0. -1.
          6    1    1    2  501    0  0.10238627453E+03  0.51869803592E+02 -0.34992575183E+03  0.40687892245E+03  0.17300000000E+03 0. -1.
         -6    1    1    2    0  502 -0.10238627453E+03 -0.51869803592E+02  0.49880992459E+02  0.21351941163E+03  0.17300000000E+03 0.  1.
<mgrwt>
<rscale>  2 0.20761124E+03</rscale>
<asrwt>0</asrwt>
<pdfrwt beam="1">  1       21 0.24642583E-01 0.20761124E+03</pdfrwt>
<pdfrwt beam="2">  1       21 0.70803313E-01 0.20761124E+03</pdfrwt>
<totfact> 0.27894485E+04</totfact>
</mgrwt>
</event>
<event>
 4    1  0.4072310E+000  0.3269559E+03  0.7546771E-02  0.1072492E+00
         21   -1    0    0  501  502  0.00000000000E+00  0.00000000000E+00  0.32523571723E+04  0.32523571723E+04  0.00000000000E+00 0.  1.
         21   -1    0    0  502  503 -0.00000000000E+00 -0.00000000000E+00 -0.38536160339E+02  0.38536160339E+02  0.00000000000E+00 0. -1.
          6    1    1    2  501    0  0.22122405126E+03 -0.16742475606E+03  0.22379421917E+04  0.22616996669E+04  0.17300000000E+03 0.  1.
         -6    1    1    2    0  503 -0.22122405126E+03  0.16742475606E+03  0.97587882030E+03  0.10291936658E+04  0.17300000000E+03 0. -1.
<mgrwt>
<rscale>  2 0.32695585E+03</rscale>
<asrwt>0</asrwt>
<pdfrwt beam="1">  1       21 0.50036243E+00 0.32695585E+03</pdfrwt>
<pdfrwt beam="2">  1       21 0.59286426E-02 0.32695585E+03</pdfrwt>
<totfact> 0.31919757E+02</totfact>
</mgrwt>
</event>
<event>
 4    1  0.4072310E+000  0.1891485E+03  0.7546771E-02  0.1159232E+00
         21   -1    0    0  501  502  0.00000000000E+00  0.00000000000E+00  0.21746640408E+04  0.21746640408E+04  0.00000000000E+00 0. -1.
         21   -1    0    0  502  503 -0.00000000000E+00 -0.00000000000E+00 -0.41724490093E+02  0.41724490093E+02  0.00000000000E+00 0. -1.
          6    1    1    2  501    0 -0.89732274971E+01 -0.75944853392E+02  0.19289439679E+04  0.19381955451E+04  0.17300000000E+03 0. -1.
         -6    1    1    2    0  503  0.89732274971E+01  0.75944853392E+02  0.20399558283E+03  0.27819298586E+03  0.17300000000E+03 0. -1.
<mgrwt>
<rscale>  2 0.18914846E+03</rscale>
<asrwt>0</asrwt>
<pdfrwt beam="1">  1       21 0.33456361E+00 0.18914846E+03</pdfrwt>
<pdfrwt beam="2">  1       21 0.64191540E-02 0.18914846E+03</pdfrwt>
<totfact> 0.37999307E+03</totfact>
</mgrwt>
</event>
<event>
 4    1  0.4072310E+000  0.1858640E+03  0.7546771E-02  0.1162246E+00
         21   -1    0    0  501  502  0.00000000000E+00  0.00000000000E+00  0.45692509398E+03  0.45692509398E+03  0.00000000000E+00 0.  1.
         21   -1    0    0  502  503 -0.00000000000E+00 -0.00000000000E+00 -0.60479474265E+03  0.60479474265E+03  0.00000000000E+00 0.  1.
          6    1    1    2  501    0 -0.37065839002E+01  0.67843052489E+02  0.42263691912E+03  0.46170053491E+03  0.17300000000E+03 0.  1.
         -6    1    1    2    0  503  0.37065839002E+01 -0.67843052489E+02 -0.57050656779E+03  0.60001930171E+03  0.17300000000E+03 0.  1.
<mgrwt>
<rscale>  2 0.18586398E+03</rscale>
<asrwt>0</asrwt>
<pdfrwt beam="1">  1       21 0.70296168E-01 0.18586398E+03</pdfrwt>
<pdfrwt beam="2">  1       21 0.93045345E-01 0.18586398E+03</pdfrwt>
<totfact> 0.17965448E+03</totfact>
</mgrwt>
</event>
<event>
 4    1  0.4072310E+000  0.2259553E+03  0.7546771E-02  0.1129519E+00
         21   -1    0    0  503  502  0.00000000000E+00  0.00000000000E+00  0.11066635958E+03  0.11066635958E+03  0.00000000000E+00 0.  1.
         21   -1    0    0  501  503 -0.00000000000E+00 -0.00000000000E+00 -0.53473497899E+03  0.53473497899E+03  0.00000000000E+00 0.  1.
          6    1    1    2  501    0 -0.72816772018E+02  0.12579547023E+03 -0.33158111180E+03  0.40125031629E+03  0.17300000000E+03 0.  1.
         -6    1    1    2    0  502  0.72816772018E+02 -0.12579547023E+03 -0.92487507610E+02  0.24415102228E+03  0.17300000000E+03 0.  1.
<mgrwt>
<rscale>  2 0.22595527E+03</rscale>
<asrwt>0</asrwt>
<pdfrwt beam="1">  1       21 0.17025594E-01 0.22595527E+03</pdfrwt>
<pdfrwt beam="2">  1       21 0.82266921E-01 0.22595527E+03</pdfrwt>
<totfact> 0.39490195E+04</totfact>
</mgrwt>
</event>
<event>
 4    1  0.4072310E+000  0.2599292E+03  0.7546771E-02  0.1107186E+00
         21   -1    0    0  501  502  0.00000000000E+00  0.00000000000E+00  0.72819155563E+03  0.72819155563E+03  0.00000000000E+00 0. -1.
         21   -1    0    0  502  503 -0.00000000000E+00 -0.00000000000E+00 -0.15606045654E+03  0.15606045654E+03  0.00000000000E+00 0.  1.
          6    1    1    2  501    0 -0.46994921303E+02 -0.18821707226E+03  0.56759705183E+03  0.62428327077E+03  0.17300000000E+03 0. -1.
         -6    1    1    2    0  503  0.46994921303E+02  0.18821707226E+03  0.45340472630E+01  0.25996874140E+03  0.17300000000E+03 0.  1.
<mgrwt>
<rscale>  2 0.25992920E+03</rscale>
<asrwt>0</asrwt>
<pdfrwt beam="1">  1       21 0.11202947E+00 0.25992920E+03</pdfrwt>
<pdfrwt beam="2">  1       21 0.24009301E-01 0.25992920E+03</pdfrwt>
<totfact> 0.97941887E+03</totfact>
</mgrwt>
</event>
<event>
 4    1  0.4072310E+000  0.1935455E+03  0.7546771E-02  0.1155302E+00
         21   -1    0    0  503  502  0.00000000000E+00  0.00000000000E+00  0.15414935714E+03  0.15414935714E+03  0.00000000000E+00 0. -1.
         21   -1    0    0  501  503 -0.00000000000E+00 -0.00000000000E+00 -0.25404940974E+03  0.25404940974E+03  0.00000000000E+00 0. -1.
          6    1    1    2  501    0 -0.86676358131E+02 -0.42485483172E+01 -0.92495637377E+02  0.21451173431E+03  0.17300000000E+03 0. -1.
         -6    1    1    2    0  502  0.86676358131E+02  0.42485483172E+01 -0.74044152156E+01  0.19368703257E+03  0.17300000000E+03 0. -1.
<mgrwt>
<rscale>  2 0.19354545E+03</rscale>
<asrwt>0</asrwt>
<pdfrwt beam="1">  1       21 0.23715286E-01 0.19354545E+03</pdfrwt>
<pdfrwt beam="2">  1       21 0.39084524E-01 0.19354545E+03</pdfrwt>
<totfact> 0.10567026E+05</totfact>
</mgrwt>
</event>
<event>
 4    1  0.4072310E+000  0.2279475E+03  0.7546771E-02  0.1128093E+00
         21   -1    0    0  501  502  0.00000000000E+00  0.00000000000E+00  0.15218011457E+04  0.15218011457E+04  0.00000000000E+00 0.  1.
         21   -1    0    0  502  503 -0.00000000000E+00 -0.00000000000E+00 -0.42514495464E+02  0.42514495464E+02  0.00000000000E+00 0. -1.
          6    1    1    2  501    0 -0.13364312233E+03  0.64579934650E+02  0.10867052897E+04  0.11103550958E+04  0.17300000000E+03 0.  1.
         -6    1    1    2    0  503  0.13364312233E+03 -0.64579934650E+02  0.39258136052E+03  0.45396054535E+03  0.17300000000E+03 0. -1.
<mgrwt>
<rscale>  2 0.22794748E+03</rscale>
<asrwt>0</asrwt>
<pdfrwt beam="1">  1       21 0.23412321E+00 0.22794748E+03</pdfrwt>
<pdfrwt beam="2">  1       21 0.65406928E-02 0.22794748E+03</pdfrwt>
<totfact> 0.13639169E+04</totfact>
</mgrwt>
</event>
<event>
 4    1  0.4072310E+000  0.2022113E+03  0.7546771E-02  0.1147887E+00
         21   -1    0    0  503  502  0.00000000000E+00  0.00000000000E+00  0.24473833210E+03  0.24473833210E+03  0.00000000000E+00 0. -1.
         21   -1    0    0  501  503 -0.00000000000E+00 -0.00000000000E+00 -0.17520380099E+03  0.17520380099E+03  0.00000000000E+00 0.  1.
          6    1    1    2  501    0 -0.53040025743E+02  0.90261695959E+02  0.79997308058E+02  0.21746031221E+03  0.17300000000E+03 0. -1.
         -6    1    1    2    0  502  0.53040025743E+02 -0.90261695959E+02 -0.10462776951E+02  0.20248182089E+03  0.17300000000E+03 0.  1.
<mgrwt>
<rscale>  2 0.20221132E+03</rscale>
<asrwt>0</asrwt>
<pdfrwt beam="1">  1       21 0.37652051E-01 0.20221132E+03</pdfrwt>
<pdfrwt beam="2">  1       21 0.26954431E-01 0.20221132E+03</pdfrwt>
<totfact> 0.88843071E+04</totfact>
</mgrwt>
</event>
<event>
 4    1  0.4072310E+000  0.1864297E+03  0.7546771E-02  0.1161722E+00
         21   -1    0    0  503  502  0.00000000000E+00  0.00000000000E+00  0.15950935678E+03  0.15950935678E+03  0.00000000000E+00 0. -1.
         21   -1    0    0  501  503 -0.00000000000E+00 -0.00000000000E+00 -0.43521595252E+03  0.43521595252E+03  0.00000000000E+00 0. -1.
          6    1    1    2  501    0  0.29940957244E+02  0.62694134538E+02 -0.34798256719E+03  0.39477573696E+03  0.17300000000E+03 0. -1.
         -6    1    1    2    0  502 -0.29940957244E+02 -0.62694134538E+02  0.72275971455E+02  0.19994957233E+03  0.17300000000E+03 0. -1.
<mgrwt>
<rscale>  2 0.18642965E+03</rscale>
<asrwt>0</asrwt>
<pdfrwt beam="1">  1       21 0.24539901E-01 0.18642965E+03</pdfrwt>
<pdfrwt beam="2">  1       21 0.66956300E-01 0.18642965E+03</pdfrwt>
<totfact> 0.32166195E+04</totfact>
</mgrwt>
</event>
<event>
 4    1  0.4072310E+000  0.1776643E+03  0.7546771E-02  0.1170083E+00
         21   -1    0    0  501  502  0.00000000000E+00  0.00000000000E+00  0.20506924360E+03  0.20506924360E+03  0.00000000000E+00 0.  1.
         21   -1    0    0  502  503 -0.00000000000E+00 -0.00000000000E+00 -0.16276759847E+03  0.16276759847E+03  0.00000000000E+00 0.  1.
          6    1    1    2  501    0  0.25086780381E+02  0.31721781627E+02  0.64026487076E+02  0.18884917005E+03  0.17300000000E+03 0. -1.
         -6    1    1    2    0  503 -0.25086780381E+02 -0.31721781627E+02 -0.21724841943E+02  0.17898767202E+03  0.17300000000E+03 0. -1.
<mgrwt>
<rscale>  2 0.17766434E+03</rscale>
<asrwt>0</asrwt>
<pdfrwt beam="1">  1       21 0.31549114E-01 0.17766434E+03</pdfrwt>
<pdfrwt beam="2">  1       21 0.25041169E-01 0.17766434E+03</pdfrwt>
<totfact> 0.14653245E+05</totfact>
</mgrwt>
</event>
<event>
 4    1  0.4072310E+000  0.2895108E+03  0.7546771E-02  0.1090605E+00
         21   -1    0    0  501  502  0.00000000000E+00  0.00000000000E+00  0.76937408276E+02  0.76937408276E+02  0.00000000000E+00 0.  1.
         21   -1    0    0  502  503 -0.00000000000E+00 -0.00000000000E+00 -0.11241843962E+04  0.11241843962E+04  0.00000000000E+00 0. -1.
          6    1    1    2  501    0 -0.42110263289E+02 -0.22828541743E+03 -0.41800061455E+03  0.50846929096E+03  0.17300000000E+03 0.  1.
         -6    1    1    2    0  503  0.42110263289E+02  0.22828541743E+03 -0.62924637340E+03  0.69265251355E+03  0.17300000000E+03 0.  1.
<mgrwt>
<rscale>  2 0.28951080E+03</rscale>
<asrwt>0</asrwt>
<pdfrwt beam="1">  1       21 0.11836523E-01 0.28951080E+03</pdfrwt>
<pdfrwt beam="2">  1       21 0.17295146E+00 0.28951080E+03</pdfrwt>
<totfact> 0.11495842E+04</totfact>
</mgrwt>
</event>
<event>
 4    1  0.4072310E+000  0.1964669E+03  0.7546771E-02  0.1152755E+00
         21   -1    0    0  501  502  0.00000000000E+00  0.00000000000E+00  0.49170124574E+03  0.49170124574E+03  0.00000000000E+00 0.  1.
         21   -1    0    0  502  503 -0.00000000000E+00 -0.00000000000E+00 -0.79295047951E+02  0.79295047951E+02  0.00000000000E+00 0.  1.
          6    1    1    2  501    0  0.91464882735E+02 -0.17447244198E+02  0.23476565237E+03  0.30612765742E+03  0.17300000000E+03 0.  1.
         -6    1    1    2    0  503 -0.91464882735E+02  0.17447244198E+02  0.17764054542E+03  0.26486863627E+03  0.17300000000E+03 0.  1.
<mgrwt>
<rscale>  2 0.19646687E+03</rscale>
<asrwt>0</asrwt>
<pdfrwt beam="1">  1       21 0.75646344E-01 0.19646687E+03</pdfrwt>
<pdfrwt beam="2">  1       21 0.12199238E-01 0.19646687E+03</pdfrwt>
<totfact> 0.88725986E+04</totfact>
</mgrwt>
</event>
<event>
 4    1  0.4072310E+000  0.2077926E+03  0.7546771E-02  0.1143326E+00
         21   -1    0    0  503  502  0.00000000000E+00  0.00000000000E+00  0.74085973708E+03  0.74085973708E+03  0.00000000000E+00 0. -1.
         21   -1    0    0  501  503 -0.00000000000E+00 -0.00000000000E+00 -0.68516392206E+02  0.68516392206E+02  0.00000000000E+00 0. -1.
          6    1    1    2  501    0  0.78910414344E+02 -0.83796919556E+02  0.17975497807E+03  0.27475376132E+03  0.17300000000E+03 0. -1.
         -6    1    1    2    0  502 -0.78910414344E+02  0.83796919556E+02  0.49258836681E+03  0.53462236797E+03  0.17300000000E+03 0. -1.
<mgrwt>
<rscale>  2 0.20779263E+03</rscale>
<asrwt>0</asrwt>
<pdfrwt beam="1">  1       21 0.11397842E+00 0.20779263E+03</pdfrwt>
<pdfrwt beam="2">  1       21 0.10540984E-01 0.20779263E+03</pdfrwt>
<totfact> 0.43930760E+04</totfact>
</mgrwt>
</event>
<event>
 4    1  0.4072310E+000  0.1898900E+03  0.7546771E-02  0.1158561E+00
         21   -1    0    0  501  502  0.00000000000E+00  0.00000000000E+00  0.37037163397E+02  0.37037163397E+02  0.00000000000E+00 0. -1.
         21   -1    0    0  502  503 -0.00000000000E+00 -0.00000000000E+00 -0.98381571369E+03  0.98381571369E+03  0.00000000000E+00 0. -1.
          6    1    1    2  501    0 -0.46911317311E+01 -0.78148610703E+02 -0.52548249555E+03  0.55873971149E+03  0.17300000000E+03 0. -1.
         -6    1    1    2    0  503  0.46911317311E+01  0.78148610703E+02 -0.42129605475E+03  0.46211316560E+03  0.17300000000E+03 0. -1.
<mgrwt>
<rscale>  2 0.18989000E+03</rscale>
<asrwt>0</asrwt>
<pdfrwt beam="1">  1       21 0.56980250E-02 0.18989000E+03</pdfrwt>
<pdfrwt beam="2">  1       21 0.15135627E+00 0.18989000E+03</pdfrwt>
<totfact> 0.62959545E+04</totfact>
</mgrwt>
</event>
<event>
 4    1  0.4072310E+000  0.1917565E+03  0.7546771E-02  0.1156887E+00
         21   -1    0    0  503  502  0.00000000000E+00  0.00000000000E+00  0.66013115199E+03  0.66013115199E+03  0.00000000000E+00 0.  1.
         21   -1    0    0  501  503 -0.00000000000E+00 -0.00000000000E+00 -0.80336277489E+02  0.80336277489E+02  0.00000000000E+00 0. -1.
          6    1    1    2  501    0  0.82434701401E+02 -0.67884246333E+01  0.84879969713E+02  0.20970257977E+03  0.17300000000E+03 0.  1.
         -6    1    1    2    0  502 -0.82434701401E+02  0.67884246333E+01  0.49491490479E+03  0.53076484971E+03  0.17300000000E+03 0.  1.
<mgrwt>
<rscale>  2 0.19175652E+03</rscale>
<asrwt>0</asrwt>
<pdfrwt beam="1">  1       21 0.10155864E+00 0.19175652E+03</pdfrwt>
<pdfrwt beam="2">  1       21 0.12359428E-01 0.19175652E+03</pdfrwt>
<totfact> 0.44065266E+04</totfact>
</mgrwt>
</event>
<event>
 4    1  0.4072310E+000  0.1932987E+03  0.7546771E-02  0.1155519E+00
         21   -1    0    0  501  502  0.00000000000E+00  0.00000000000E+00  0.54994602421E+02  0.54994602421E+02  0.00000000000E+00 0.  1.
         21   -1    0    0  502  503 -0.00000000000E+00 -0.00000000000E+00 -0.87150971688E+03  0.87150971688E+03  0.00000000000E+00 0. -1.
          6    1    1    2  501    0  0.40750031254E+02 -0.75992295992E+02 -0.19077011331E+03  0.27158356031E+03  0.17300000000E+03 0.  1.
         -6    1    1    2    0  503 -0.40750031254E+02  0.75992295992E+02 -0.62574500115E+03  0.65492075899E+03  0.17300000000E+03 0. -1.
<mgrwt>
<rscale>  2 0.19329872E+03</rscale>
<asrwt>0</asrwt>
<pdfrwt beam="1">  1       21 0.84607079E-02 0.19329872E+03</pdfrwt>
<pdfrwt beam="2">  1       21 0.13407842E+00 0.19329872E+03</pdfrwt>
<totfact> 0.43493880E+04</totfact>
</mgrwt>
</event>
<event>
 4    1  0.4072310E+000  0.1869457E+03  0.7546771E-02  0.1161245E+00
         21   -1    0    0  503  502  0.00000000000E+00  0.00000000000E+00  0.27014811313E+03  0.27014811313E+03  0.00000000000E+00 0.  1.
         21   -1    0    0  501  503 -0.00000000000E+00 -0.00000000000E+00 -0.23797733578E+03  0.23797733578E+03  0.00000000000E+00 0.  1.
          6    1    1    2  501    0 -0.45058826224E+02 -0.54675293566E+02 -0.15554947667E+03  0.24319606337E+03  0.17300000000E+03 0.  1.
         -6    1    1    2    0  502  0.45058826224E+02  0.54675293566E+02  0.18772025403E+03  0.26492938554E+03  0.17300000000E+03 0.  1.
<mgrwt>
<rscale>  2 0.18694568E+03</rscale>
<asrwt>0</asrwt>
<pdfrwt beam="1">  1       21 0.41561248E-01 0.18694568E+03</pdfrwt>
<pdfrwt beam="2">  1       21 0.36611898E-01 0.18694568E+03</pdfrwt>
<totfact> 0.40217376E+04</totfact>
</mgrwt>
</event>
<event>
 4    1  0.4072310E+000  0.2332437E+03  0.7546771E-02  0.1124377E+00
         21   -1    0    0  503  502  0.00000000000E+00  0.00000000000E+00  0.81217553516E+03  0.81217553516E+03  0.00000000000E+00 0.  1.
         21   -1    0    0  501  503 -0.00000000000E+00 -0.00000000000E+00 -0.75142576006E+02  0.75142576006E+02  0.00000000000E+00 0. -1.
          6    1    1    2  501    0  0.88476116131E+01  0.15619012925E+03  0.22232645765E+03  0.32222925143E+03  0.17300000000E+03 0.  1.
         -6    1    1    2    0  502 -0.88476116131E+01 -0.15619012925E+03  0.51470650150E+03  0.56508885973E+03  0.17300000000E+03 0.  1.
<mgrwt>
<rscale>  2 0.23324373E+03</rscale>
<asrwt>0</asrwt>
<pdfrwt beam="1">  1       21 0.12495008E+00 0.23324373E+03</pdfrwt>
<pdfrwt beam="2">  1       21 0.11560397E-01 0.23324373E+03</pdfrwt>
<totfact> 0.29273067E+04</totfact>
</mgrwt>
</event>
<event>
 4    1  0.4072310E+000  0.2004494E+03  0.7546771E-02  0.1149360E+00
         21   -1    0    0  501  502  0.00000000000E+00  0.00000000000E+00  0.98632855814E+03  0.98632855814E+03  0.00000000000E+00 0. -1.
         21   -1    0    0  502  503 -0.00000000000E+00 -0.00000000000E+00 -0.18668368080E+03  0.18668368080E+03  0.00000000000E+00 0. -1.
          6    1    1    2  501    0  0.27492995401E+02 -0.97442785963E+02  0.91840348547E+03  0.94002389515E+03  0.17300000000E+03 0. -1.
         -6    1    1    2    0  503 -0.27492995401E+02  0.97442785963E+02 -0.11875860814E+03  0.23298834379E+03  0.17300000000E+03 0. -1.
<mgrwt>
<rscale>  2 0.20044940E+03</rscale>
<asrwt>0</asrwt>
<pdfrwt beam="1">  1       21 0.15174285E+00 0.20044940E+03</pdfrwt>
<pdfrwt beam="2">  1       21 0.28720567E-01 0.20044940E+03</pdfrwt>
<totfact> 0.33395081E+03</totfact>
</mgrwt>
</event>
<event>
 4    1  0.4072310E+000  0.2782831E+03  0.7546771E-02  0.1096630E+00
         21   -1    0    0  501  502  0.00000000000E+00  0.00000000000E+00  0.40375865322E+03  0.40375865322E+03  0.00000000000E+00 0. -1.
         21   -1    0    0  502  503 -0.00000000000E+00 -0.00000000000E+00 -0.24879696686E+03  0.24879696686E+03  0.00000000000E+00 0.  1.
          6    1    1    2  501    0  0.27487669125E+02  0.21623351467E+03  0.23364640026E+03  0.36336227814E+03  0.17300000000E+03 0. -1.
         -6    1    1    2    0  503 -0.27487669125E+02 -0.21623351467E+03 -0.78684713909E+02  0.28919334194E+03  0.17300000000E+03 0.  1.
<mgrwt>
<rscale>  2 0.27828314E+03</rscale>
<asrwt>0</asrwt>
<pdfrwt beam="1">  1       21 0.62116716E-01 0.27828314E+03</pdfrwt>
<pdfrwt beam="2">  1       21 0.38276457E-01 0.27828314E+03</pdfrwt>
<totfact> 0.15107435E+04</totfact>
</mgrwt>
</event>
<event>
 4    1  0.4072310E+000  0.2440079E+03  0.7546771E-02  0.1117151E+00
         21   -1    0    0  503  502  0.00000000000E+00  0.00000000000E+00  0.76976398007E+02  0.76976398007E+02  0.00000000000E+00 0. -1.
         21   -1    0    0  501  503 -0.00000000000E+00 -0.00000000000E+00 -0.84990455304E+03  0.84990455304E+03  0.00000000000E+00 0.  1.
          6    1    1    2  501    0 -0.16232924147E+03 -0.57097216890E+02 -0.52543343322E+03  0.57932734060E+03  0.17300000000E+03 0.  1.
         -6    1    1    2    0  502  0.16232924147E+03  0.57097216890E+02 -0.24749472181E+03  0.34755361045E+03  0.17300000000E+03 0.  1.
<mgrwt>
<rscale>  2 0.24400794E+03</rscale>
<asrwt>0</asrwt>
<pdfrwt beam="1">  1       21 0.11842523E-01 0.24400794E+03</pdfrwt>
<pdfrwt beam="2">  1       21 0.13075454E+00 0.24400794E+03</pdfrwt>
<totfact> 0.24850977E+04</totfact>
</mgrwt>
</event>
<event>
 4    1  0.4072310E+000  0.2229421E+03  0.7546771E-02  0.1131708E+00
         21   -1    0    0  501  502  0.00000000000E+00  0.00000000000E+00  0.42267326233E+03  0.42267326233E+03  0.00000000000E+00 0.  1.
         21   -1    0    0  502  503 -0.00000000000E+00 -0.00000000000E+00 -0.12272087398E+03  0.12272087398E+03  0.00000000000E+00 0. -1.
          6    1    1    2  501    0  0.10565806801E+03 -0.92793027752E+02  0.20572227308E+03  0.30335594106E+03  0.17300000000E+03 0.  1.
         -6    1    1    2    0  503 -0.10565806801E+03  0.92793027752E+02  0.94230115275E+02  0.24203819525E+03  0.17300000000E+03 0. -1.
<mgrwt>
<rscale>  2 0.22294209E+03</rscale>
<asrwt>0</asrwt>
<pdfrwt beam="1">  1       21 0.65026655E-01 0.22294209E+03</pdfrwt>
<pdfrwt beam="2">  1       21 0.18880135E-01 0.22294209E+03</pdfrwt>
<totfact> 0.55178561E+04</totfact>
</mgrwt>
</event>
<event>
 4    1  0.4072310E+000  0.2071059E+03  0.7546771E-02  0.1143879E+00
         21   -1    0    0  503  502  0.00000000000E+00  0.00000000000E+00  0.63289591869E+03  0.63289591869E+03  0.00000000000E+00 0. -1.
         21   -1    0    0  501  503 -0.00000000000E+00 -0.00000000000E+00 -0.74203550255E+02  0.74203550255E+02  0.00000000000E+00 0. -1.
          6    1    1    2  501    0  0.11078881404E+03  0.26261994398E+02  0.17526225978E+03  0.27131110071E+03  0.17300000000E+03 0. -1.
         -6    1    1    2    0  502 -0.11078881404E+03 -0.26261994398E+02  0.38343010866E+03  0.43578836824E+03  0.17300000000E+03 0. -1.
<mgrwt>
<rscale>  2 0.20710590E+03</rscale>
<asrwt>0</asrwt>
<pdfrwt beam="1">  1       21 0.97368600E-01 0.20710590E+03</pdfrwt>
<pdfrwt beam="2">  1       21 0.11415931E-01 0.20710590E+03</pdfrwt>
<totfact> 0.55687431E+04</totfact>
</mgrwt>
</event>
<event>
 4    1  0.4072310E+000  0.1988332E+03  0.7546771E-02  0.1150727E+00
         21   -1    0    0  501  502  0.00000000000E+00  0.00000000000E+00  0.90001658701E+03  0.90001658701E+03  0.00000000000E+00 0. -1.
         21   -1    0    0  502  503 -0.00000000000E+00 -0.00000000000E+00 -0.54292216614E+02  0.54292216614E+02  0.00000000000E+00 0. -1.
          6    1    1    2  501    0 -0.65844432780E+02  0.72595905811E+02  0.63135353393E+03  0.66192291067E+03  0.17300000000E+03 0. -1.
         -6    1    1    2    0  503  0.65844432780E+02 -0.72595905811E+02  0.21437083646E+03  0.29238589295E+03  0.17300000000E+03 0. -1.
<mgrwt>
<rscale>  2 0.19883323E+03</rscale>
<asrwt>0</asrwt>
<pdfrwt beam="1">  1       21 0.13846408E+00 0.19883323E+03</pdfrwt>
<pdfrwt beam="2">  1       21 0.83526494E-02 0.19883323E+03</pdfrwt>
<totfact> 0.40834384E+04</totfact>
</mgrwt>
</event>
<event>
 4    1  0.4072310E+000  0.2806213E+03  0.7546771E-02  0.1095350E+00
         21   -1    0    0  501  502  0.00000000000E+00  0.00000000000E+00  0.16799613494E+03  0.16799613494E+03  0.00000000000E+00 0. -1.
         21   -1    0    0  502  503 -0.00000000000E+00 -0.00000000000E+00 -0.48850418749E+03  0.48850418749E+03  0.00000000000E+00 0.  1.
          6    1    1    2  501    0 -0.89629979847E+02  0.20195490250E+03 -0.94246716340E+02  0.29602493049E+03  0.17300000000E+03 0.  1.
         -6    1    1    2    0  503  0.89629979847E+02 -0.20195490250E+03 -0.22626133621E+03  0.36047539194E+03  0.17300000000E+03 0. -1.
<mgrwt>
<rscale>  2 0.28062130E+03</rscale>
<asrwt>0</asrwt>
<pdfrwt beam="1">  1       21 0.25845559E-01 0.28062130E+03</pdfrwt>
<pdfrwt beam="2">  1       21 0.75154490E-01 0.28062130E+03</pdfrwt>
<totfact> 0.21507300E+04</totfact>
</mgrwt>
</event>
<event>
 4    1  0.4072310E+000  0.1756679E+03  0.7546771E-02  0.1172063E+00
         21   -1    0    0  503  502  0.00000000000E+00  0.00000000000E+00  0.27280802257E+02  0.27280802257E+02  0.00000000000E+00 0. -1.
         21   -1    0    0  501  503 -0.00000000000E+00 -0.00000000000E+00 -0.24819008872E+04  0.24819008872E+04  0.00000000000E+00 0. -1.
          6    1    1    2  501    0  0.28838845706E+02  0.99258268858E+01 -0.21528484677E+04  0.21600036403E+04  0.17300000000E+03 0. -1.
         -6    1    1    2    0  502 -0.28838845706E+02 -0.99258268858E+01 -0.30177161718E+03  0.34917804913E+03  0.17300000000E+03 0. -1.
<mgrwt>
<rscale>  2 0.17566787E+03</rscale>
<asrwt>0</asrwt>
<pdfrwt beam="1">  1       21 0.41970450E-02 0.17566787E+03</pdfrwt>
<pdfrwt beam="2">  1       21 0.38183105E+00 0.17566787E+03</pdfrwt>
<totfact> 0.41740278E+03</totfact>
</mgrwt>
</event>
<event>
 4    1  0.4072310E+000  0.2275102E+03  0.7546771E-02  0.1128405E+00
         21   -1    0    0  503  502  0.00000000000E+00  0.00000000000E+00  0.18114795764E+03  0.18114795764E+03  0.00000000000E+00 0. -1.
         21   -1    0    0  501  503 -0.00000000000E+00 -0.00000000000E+00 -0.32298413668E+03  0.32298413668E+03  0.00000000000E+00 0. -1.
          6    1    1    2  501    0  0.92619358423E+02  0.11512403497E+03 -0.15651602322E+03  0.27614879053E+03  0.17300000000E+03 0. -1.
         -6    1    1    2    0  502 -0.92619358423E+02 -0.11512403497E+03  0.14679844177E+02  0.22798330379E+03  0.17300000000E+03 0. -1.
<mgrwt>
<rscale>  2 0.22751020E+03</rscale>
<asrwt>0</asrwt>
<pdfrwt beam="1">  1       21 0.27868917E-01 0.22751020E+03</pdfrwt>
<pdfrwt beam="2">  1       21 0.49689867E-01 0.22751020E+03</pdfrwt>
<totfact> 0.46679836E+04</totfact>
</mgrwt>
</event>
<event>
 4    1  0.4072310E+000  0.2070227E+03  0.7546771E-02  0.1143946E+00
         21   -1    0    0  501  502  0.00000000000E+00  0.00000000000E+00  0.57957418338E+03  0.57957418338E+03  0.00000000000E+00 0.  1.
         21   -1    0    0  502  503 -0.00000000000E+00 -0.00000000000E+00 -0.88946403296E+02  0.88946403296E+02  0.00000000000E+00 0.  1.
          6    1    1    2  501    0 -0.99760922513E+02  0.54563482267E+02  0.38257310812E+03  0.43499494057E+03  0.17300000000E+03 0.  1.
         -6    1    1    2    0  503  0.99760922513E+02 -0.54563482267E+02  0.10805467196E+03  0.23352564611E+03  0.17300000000E+03 0.  1.
<mgrwt>
<rscale>  2 0.20702274E+03</rscale>
<asrwt>0</asrwt>
<pdfrwt beam="1">  1       21 0.89165256E-01 0.20702274E+03</pdfrwt>
<pdfrwt beam="2">  1       21 0.13684062E-01 0.20702274E+03</pdfrwt>
<totfact> 0.49384081E+04</totfact>
</mgrwt>
</event>
<event>
 4    1  0.4072310E+000  0.1769082E+03  0.7546771E-02  0.1170829E+00
         21   -1    0    0  501  502  0.00000000000E+00  0.00000000000E+00  0.41318836611E+03  0.41318836611E+03  0.00000000000E+00 0.  1.
         21   -1    0    0  502  503 -0.00000000000E+00 -0.00000000000E+00 -0.78146060732E+02  0.78146060732E+02  0.00000000000E+00 0.  1.
          6    1    1    2  501    0 -0.34483103370E+02  0.13357436128E+02  0.21059296080E+03  0.27503799857E+03  0.17300000000E+03 0.  1.
         -6    1    1    2    0  503  0.34483103370E+02 -0.13357436128E+02  0.12444934458E+03  0.21629642827E+03  0.17300000000E+03 0.  1.
<mgrwt>
<rscale>  2 0.17690818E+03</rscale>
<asrwt>0</asrwt>
<pdfrwt beam="1">  1       21 0.63567440E-01 0.17690818E+03</pdfrwt>
<pdfrwt beam="2">  1       21 0.12022471E-01 0.17690818E+03</pdfrwt>
<totfact> 0.13452731E+05</totfact>
</mgrwt>
</event>
<event>
 4    1  0.4072310E+000  0.1970670E+03  0.7546771E-02  0.1152237E+00
         21   -1    0    0  503  502  0.00000000000E+00  0.00000000000E+00  0.75342465606E+02  0.75342465606E+02  0.00000000000E+00 0. -1.
         21   -1    0    0  501  503 -0.00000000000E+00 -0.00000000000E+00 -0.51555027861E+03  0.51555027861E+03  0.00000000000E+00 0. -1.
          6    1    1    2  501    0 -0.59094018574E+02 -0.73581995691E+02 -0.22418624009E+03  0.29848766033E+03  0.17300000000E+03 0. -1.
         -6    1    1    2    0  502  0.59094018574E+02  0.73581995691E+02 -0.21602157291E+03  0.29240508389E+03  0.17300000000E+03 0. -1.
<mgrwt>
<rscale>  2 0.19706703E+03</rscale>
<asrwt>0</asrwt>
<pdfrwt beam="1">  1       21 0.11591149E-01 0.19706703E+03</pdfrwt>
<pdfrwt beam="2">  1       21 0.79315426E-01 0.19706703E+03</pdfrwt>
<totfact> 0.87382638E+04</totfact>
</mgrwt>
</event>
<event>
 4    1  0.4072310E+000  0.2344797E+03  0.7546771E-02  0.1123526E+00
         21   -1    0    0  503  502  0.00000000000E+00  0.00000000000E+00  0.78212649881E+03  0.78212649881E+03  0.00000000000E+00 0. -1.
         21   -1    0    0  501  503 -0.00000000000E+00 -0.00000000000E+00 -0.25339210768E+03  0.25339210768E+03  0.00000000000E+00 0.  1.
          6    1    1    2  501    0  0.15255428546E+03  0.42177315887E+02 -0.17575205188E+03  0.29303501451E+03  0.17300000000E+03 0.  1.
         -6    1    1    2    0  502 -0.15255428546E+03 -0.42177315887E+02  0.70448644301E+03  0.74248359198E+03  0.17300000000E+03 0. -1.
<mgrwt>
<rscale>  2 0.23447971E+03</rscale>
<asrwt>0</asrwt>
<pdfrwt beam="1">  1       21 0.12032715E+00 0.23447971E+03</pdfrwt>
<pdfrwt beam="2">  1       21 0.38983401E-01 0.23447971E+03</pdfrwt>
<totfact> 0.32177285E+03</totfact>
</mgrwt>
</event>
<event>
 4    1  0.4072310E+000  0.1815548E+03  0.7546771E-02  0.1166307E+00
         21   -1    0    0  503  502  0.00000000000E+00  0.00000000000E+00  0.53366513187E+03  0.53366513187E+03  0.00000000000E+00 0. -1.
         21   -1    0    0  501  503 -0.00000000000E+00 -0.00000000000E+00 -0.92909853897E+02  0.92909853897E+02  0.00000000000E+00 0. -1.
          6    1    1    2  501    0  0.53430760218E+02  0.13352909671E+02  0.38992733148E+02  0.18569485607E+03  0.17300000000E+03 0. -1.
         -6    1    1    2    0  502 -0.53430760218E+02 -0.13352909671E+02  0.40176254482E+03  0.44088012969E+03  0.17300000000E+03 0. -1.
<mgrwt>
<rscale>  2 0.18155480E+03</rscale>
<asrwt>0</asrwt>
<pdfrwt beam="1">  1       21 0.82102326E-01 0.18155480E+03</pdfrwt>
<pdfrwt beam="2">  1       21 0.14293824E-01 0.18155480E+03</pdfrwt>
<totfact> 0.55823054E+04</totfact>
</mgrwt>
</event>
<event>
 4    1  0.4072310E+000  0.1767890E+03  0.7546771E-02  0.1170947E+00
         21   -1    0    0  501  502  0.00000000000E+00  0.00000000000E+00  0.25339812349E+03  0.25339812349E+03  0.00000000000E+00 0. -1.
         21   -1    0    0  502  503 -0.00000000000E+00 -0.00000000000E+00 -0.23518586487E+03  0.23518586487E+03  0.00000000000E+00 0. -1.
          6    1    1    2  501    0  0.17791772479E+02 -0.31761834076E+02  0.17757194106E+03  0.25057165746E+03  0.17300000000E+03 0. -1.
         -6    1    1    2    0  503 -0.17791772479E+02  0.31761834076E+02 -0.15935968244E+03  0.23801233089E+03  0.17300000000E+03 0. -1.
<mgrwt>
<rscale>  2 0.17678903E+03</rscale>
<asrwt>0</asrwt>
<pdfrwt beam="1">  1       21 0.38984327E-01 0.17678903E+03</pdfrwt>
<pdfrwt beam="2">  1       21 0.36182441E-01 0.17678903E+03</pdfrwt>
<totfact> 0.47090025E+04</totfact>
</mgrwt>
</event>
<event>
 4    1  0.4072310E+000  0.2034133E+03  0.7546771E-02  0.1146891E+00
         21   -1    0    0  503  502  0.00000000000E+00  0.00000000000E+00  0.22335089709E+03  0.22335089709E+03  0.00000000000E+00 0. -1.
         21   -1    0    0  501  503 -0.00000000000E+00 -0.00000000000E+00 -0.18995167298E+03  0.18995167298E+03  0.00000000000E+00 0. -1.
          6    1    1    2  501    0  0.10246018140E+03 -0.30820364054E+02 -0.15793273545E+02  0.20402551581E+03  0.17300000000E+03 0. -1.
         -6    1    1    2    0  502 -0.10246018140E+03  0.30820364054E+02  0.49192497652E+02  0.20927705425E+03  0.17300000000E+03 0. -1.
<mgrwt>
<rscale>  2 0.20341333E+03</rscale>
<asrwt>0</asrwt>
<pdfrwt beam="1">  1       21 0.34361676E-01 0.20341333E+03</pdfrwt>
<pdfrwt beam="2">  1       21 0.29223335E-01 0.20341333E+03</pdfrwt>
<totfact> 0.91122755E+04</totfact>
</mgrwt>
</event>
<event>
 4    1  0.4072310E+000  0.3042891E+03  0.7546771E-02  0.1083116E+00
         21   -1    0    0  503  502  0.00000000000E+00  0.00000000000E+00  0.14905692344E+03  0.14905692344E+03  0.00000000000E+00 0.  1.
         21   -1    0    0  501  503 -0.00000000000E+00 -0.00000000000E+00 -0.80795163723E+03  0.80795163723E+03  0.00000000000E+00 0.  1.
          6    1    1    2  501    0 -0.10620705638E+02  0.25010008737E+03 -0.55950854314E+03  0.63690004156E+03  0.17300000000E+03 0.  1.
         -6    1    1    2    0  502  0.10620705638E+02 -0.25010008737E+03 -0.99386170640E+02  0.32010851911E+03  0.17300000000E+03 0.  1.
<mgrwt>
<rscale>  2 0.30428909E+03</rscale>
<asrwt>0</asrwt>
<pdfrwt beam="1">  1       21 0.22931834E-01 0.30428909E+03</pdfrwt>
<pdfrwt beam="2">  1       21 0.12430026E+00 0.30428909E+03</pdfrwt>
<totfact> 0.80678794E+03</totfact>
</mgrwt>
</event>
<event>
 4    1  0.4072310E+000  0.2012687E+03  0.7546771E-02  0.1148673E+00
         21   -1    0    0  503  502  0.00000000000E+00  0.00000000000E+00  0.83309155946E+03  0.83309155946E+03  0.00000000000E+00 0. -1.
         21   -1    0    0  501  503 -0.00000000000E+00 -0.00000000000E+00 -0.48905954067E+02  0.48905954067E+02  0.00000000000E+00 0. -1.
          6    1    1    2  501    0 -0.93601475426E+02 -0.42647819333E+02  0.35866727865E+03  0.41128006208E+03  0.17300000000E+03 0. -1.
         -6    1    1    2    0  502  0.93601475426E+02  0.42647819333E+02  0.42551832675E+03  0.47071745144E+03  0.17300000000E+03 0. -1.
<mgrwt>
<rscale>  2 0.20126866E+03</rscale>
<asrwt>0</asrwt>
<pdfrwt beam="1">  1       21 0.12816792E+00 0.20126866E+03</pdfrwt>
<pdfrwt beam="2">  1       21 0.75239936E-02 0.20126866E+03</pdfrwt>
<totfact> 0.59538582E+04</totfact>
</mgrwt>
</event>
<event>
 4    1  0.4072310E+000  0.2640223E+03  0.7546771E-02  0.1104750E+00
         21   -1    0    0  501  502  0.00000000000E+00  0.00000000000E+00  0.37951213245E+03  0.37951213245E+03  0.00000000000E+00 0.  1.
         21   -1    0    0  502  503 -0.00000000000E+00 -0.00000000000E+00 -0.22606233672E+03  0.22606233672E+03  0.00000000000E+00 0. -1.
          6    1    1    2  501    0 -0.89870627026E+02  0.17805065582E+03  0.20783305482E+03  0.33600944082E+03  0.17300000000E+03 0.  1.
         -6    1    1    2    0  503  0.89870627026E+02 -0.17805065582E+03 -0.54383259092E+02  0.26956502835E+03  0.17300000000E+03 0.  1.
<mgrwt>
<rscale>  2 0.26402228E+03</rscale>
<asrwt>0</asrwt>
<pdfrwt beam="1">  1       21 0.58386482E-01 0.26402228E+03</pdfrwt>
<pdfrwt beam="2">  1       21 0.34778821E-01 0.26402228E+03</pdfrwt>
<totfact> 0.21087031E+04</totfact>
</mgrwt>
</event>
<event>
 4    1  0.4072310E+000  0.2015560E+03  0.7546771E-02  0.1148433E+00
         21   -1    0    0  503  502  0.00000000000E+00  0.00000000000E+00  0.25466687600E+03  0.25466687600E+03  0.00000000000E+00 0. -1.
         21   -1    0    0  501  503 -0.00000000000E+00 -0.00000000000E+00 -0.98248925395E+03  0.98248925395E+03  0.00000000000E+00 0. -1.
          6    1    1    2  501    0 -0.10181325007E+03  0.18163223153E+02 -0.93004881849E+03  0.95163840051E+03  0.17300000000E+03 0. -1.
         -6    1    1    2    0  502  0.10181325007E+03 -0.18163223153E+02  0.20222644054E+03  0.28551772943E+03  0.17300000000E+03 0. -1.
<mgrwt>
<rscale>  2 0.20155605E+03</rscale>
<asrwt>0</asrwt>
<pdfrwt beam="1">  1       21 0.39179519E-01 0.20155605E+03</pdfrwt>
<pdfrwt beam="2">  1       21 0.15115219E+00 0.20155605E+03</pdfrwt>
<totfact> 0.18241101E+03</totfact>
</mgrwt>
</event>
<event>
 4    1  0.4072310E+000  0.2638539E+03  0.7546771E-02  0.1104850E+00
         21   -1    0    0  501  502  0.00000000000E+00  0.00000000000E+00  0.18616496069E+03  0.18616496069E+03  0.00000000000E+00 0.  1.
         21   -1    0    0  502  503 -0.00000000000E+00 -0.00000000000E+00 -0.37558735869E+03  0.37558735869E+03  0.00000000000E+00 0. -1.
          6    1    1    2  501    0  0.41631785618E+02  0.19482472251E+03 -0.11318045744E+03  0.28710397772E+03  0.17300000000E+03 0. -1.
         -6    1    1    2    0  503 -0.41631785618E+02 -0.19482472251E+03 -0.76241940556E+02  0.27464834166E+03  0.17300000000E+03 0.  1.
<mgrwt>
<rscale>  2 0.26385390E+03</rscale>
<asrwt>0</asrwt>
<pdfrwt beam="1">  1       21 0.28640763E-01 0.26385390E+03</pdfrwt>
<pdfrwt beam="2">  1       21 0.57782670E-01 0.26385390E+03</pdfrwt>
<totfact> 0.31648744E+04</totfact>
</mgrwt>
</event>
<event>
 4    1  0.4072310E+000  0.2368199E+03  0.7546771E-02  0.1121930E+00
         21   -1    0    0  501  502  0.00000000000E+00  0.00000000000E+00  0.25877436759E+03  0.25877436759E+03  0.00000000000E+00 0. -1.
         21   -1    0    0  502  503 -0.00000000000E+00 -0.00000000000E+00 -0.21921191790E+03  0.21921191790E+03  0.00000000000E+00 0.  1.
          6    1    1    2  501    0  0.15374984680E+03 -0.50156307820E+02  0.45221124978E+02  0.24109877799E+03  0.17300000000E+03 0. -1.
         -6    1    1    2    0  503 -0.15374984680E+03  0.50156307820E+02 -0.56586752871E+01  0.23688750750E+03  0.17300000000E+03 0. -1.
<mgrwt>
<rscale>  2 0.23681991E+03</rscale>
<asrwt>0</asrwt>
<pdfrwt beam="1">  1       21 0.39811441E-01 0.23681991E+03</pdfrwt>
<pdfrwt beam="2">  1       21 0.33724910E-01 0.23681991E+03</pdfrwt>
<totfact> 0.50480318E+04</totfact>
</mgrwt>
</event>
<event>
 4    1  0.4072310E+000  0.2048927E+03  0.7546771E-02  0.1145675E+00
         21   -1    0    0  503  502  0.00000000000E+00  0.00000000000E+00  0.42154736733E+03  0.42154736733E+03  0.00000000000E+00 0.  1.
         21   -1    0    0  501  503 -0.00000000000E+00 -0.00000000000E+00 -0.41224182731E+03  0.41224182731E+03  0.00000000000E+00 0.  1.
          6    1    1    2  501    0 -0.96135777846E+02 -0.53008624127E+02 -0.35841041120E+03  0.41284261513E+03  0.17300000000E+03 0.  1.
         -6    1    1    2    0  502  0.96135777846E+02  0.53008624127E+02  0.36771595122E+03  0.42094657950E+03  0.17300000000E+03 0.  1.
<mgrwt>
<rscale>  2 0.20489266E+03</rscale>
<asrwt>0</asrwt>
<pdfrwt beam="1">  1       21 0.64853441E-01 0.20489266E+03</pdfrwt>
<pdfrwt beam="2">  1       21 0.63421820E-01 0.20489266E+03</pdfrwt>
<totfact> 0.49877621E+03</totfact>
</mgrwt>
</event>
<event>
 4    1  0.4072310E+000  0.2368188E+03  0.7546771E-02  0.1121930E+00
         21   -1    0    0  501  502  0.00000000000E+00  0.00000000000E+00  0.87109362015E+02  0.87109362015E+02  0.00000000000E+00 0. -1.
         21   -1    0    0  502  503 -0.00000000000E+00 -0.00000000000E+00 -0.69488925680E+03  0.69488925680E+03  0.00000000000E+00 0. -1.
          6    1    1    2  501    0 -0.34019245834E+02  0.15810389559E+03 -0.19789665937E+03  0.30861989352E+03  0.17300000000E+03 0. -1.
         -6    1    1    2    0  503  0.34019245834E+02 -0.15810389559E+03 -0.40988323542E+03  0.47337872530E+03  0.17300000000E+03 0. -1.
<mgrwt>
<rscale>  2 0.23681881E+03</rscale>
<asrwt>0</asrwt>
<pdfrwt beam="1">  1       21 0.13401440E-01 0.23681881E+03</pdfrwt>
<pdfrwt beam="2">  1       21 0.10690604E+00 0.23681881E+03</pdfrwt>
<totfact> 0.32885865E+04</totfact>
</mgrwt>
</event>
<event>
 4    1  0.4072310E+000  0.1858911E+03  0.7546771E-02  0.1162220E+00
         21   -1    0    0  501  502  0.00000000000E+00  0.00000000000E+00  0.57295084818E+03  0.57295084818E+03  0.00000000000E+00 0.  1.
         21   -1    0    0  502  503 -0.00000000000E+00 -0.00000000000E+00 -0.60360520220E+02  0.60360520220E+02  0.00000000000E+00 0.  1.
          6    1    1    2  501    0 -0.32099099619E+02  0.59967966831E+02  0.26532169434E+03  0.32396158836E+03  0.17300000000E+03 0.  1.
         -6    1    1    2    0  503  0.32099099619E+02 -0.59967966831E+02  0.24726863362E+03  0.30934978005E+03  0.17300000000E+03 0.  1.
<mgrwt>
<rscale>  2 0.18589112E+03</rscale>
<asrwt>0</asrwt>
<pdfrwt beam="1">  1       21 0.88146281E-01 0.18589112E+03</pdfrwt>
<pdfrwt beam="2">  1       21 0.92862343E-02 0.18589112E+03</pdfrwt>
<totfact> 0.10218928E+05</totfact>
</mgrwt>
</event>
<event>
 4    1  0.4072310E+000  0.2474419E+03  0.7546771E-02  0.1114932E+00
         21   -1    0    0  503  502  0.00000000000E+00  0.00000000000E+00  0.18120333710E+03  0.18120333710E+03  0.00000000000E+00 0.  1.
         21   -1    0    0  501  503 -0.00000000000E+00 -0.00000000000E+00 -0.36774308438E+03  0.36774308438E+03  0.00000000000E+00 0.  1.
          6    1    1    2  501    0 -0.25519430204E+02 -0.17506361990E+03 -0.17146749374E+03  0.30104586651E+03  0.17300000000E+03 0.  1.
         -6    1    1    2    0  502  0.25519430204E+02  0.17506361990E+03 -0.15072253543E+02  0.24790055498E+03  0.17300000000E+03 0.  1.
<mgrwt>
<rscale>  2 0.24744194E+03</rscale>
<asrwt>0</asrwt>
<pdfrwt beam="1">  1       21 0.27877437E-01 0.24744194E+03</pdfrwt>
<pdfrwt beam="2">  1       21 0.56575859E-01 0.24744194E+03</pdfrwt>
<totfact> 0.35147784E+04</totfact>
</mgrwt>
</event>
<event>
 4    1  0.4072310E+000  0.2047418E+03  0.7546771E-02  0.1145799E+00
         21   -1    0    0  501  502  0.00000000000E+00  0.00000000000E+00  0.98548913007E+02  0.98548913007E+02  0.00000000000E+00 0.  1.
         21   -1    0    0  502  503 -0.00000000000E+00 -0.00000000000E+00 -0.42753882078E+03  0.42753882078E+03  0.00000000000E+00 0.  1.
          6    1    1    2  501    0  0.73607049592E+02  0.81069095827E+02 -0.14573570503E+03  0.25131273698E+03  0.17300000000E+03 0.  1.
         -6    1    1    2    0  503 -0.73607049592E+02 -0.81069095827E+02 -0.18325420274E+03  0.27477499681E+03  0.17300000000E+03 0.  1.
<mgrwt>
<rscale>  2 0.20474178E+03</rscale>
<asrwt>0</asrwt>
<pdfrwt beam="1">  1       21 0.15161371E-01 0.20474178E+03</pdfrwt>
<pdfrwt beam="2">  1       21 0.65775204E-01 0.20474178E+03</pdfrwt>
<totfact> 0.81280752E+04</totfact>
</mgrwt>
</event>
<event>
 4    1  0.4072310E+000  0.3188077E+03  0.7546771E-02  0.1076199E+00
         21   -1    0    0  503  502  0.00000000000E+00  0.00000000000E+00  0.56286180329E+03  0.56286180329E+03  0.00000000000E+00 0. -1.
         21   -1    0    0  501  503 -0.00000000000E+00 -0.00000000000E+00 -0.26402822489E+03  0.26402822489E+03  0.00000000000E+00 0. -1.
          6    1    1    2  501    0  0.15351404565E+03  0.21941459826E+03 -0.83026057836E+02  0.32944142790E+03  0.17300000000E+03 0. -1.
         -6    1    1    2    0  502 -0.15351404565E+03 -0.21941459826E+03  0.38185963624E+03  0.49744860028E+03  0.17300000000E+03 0. -1.
<mgrwt>
<rscale>  2 0.31880767E+03</rscale>
<asrwt>0</asrwt>
<pdfrwt beam="1">  1       21 0.86594123E-01 0.31880767E+03</pdfrwt>
<pdfrwt beam="2">  1       21 0.40619727E-01 0.31880767E+03</pdfrwt>
<totfact> 0.62207662E+03</totfact>
</mgrwt>
</event>
<event>
 4    1  0.4072310E+000  0.1996358E+03  0.7546771E-02  0.1150047E+00
         21   -1    0    0  501  502  0.00000000000E+00  0.00000000000E+00  0.74612516736E+02  0.74612516736E+02  0.00000000000E+00 0.  1.
         21   -1    0    0  502  503 -0.00000000000E+00 -0.00000000000E+00 -0.53438125548E+03  0.53438125548E+03  0.00000000000E+00 0. -1.
          6    1    1    2  501    0 -0.73090696755E+02  0.67699416346E+02 -0.23618466695E+03  0.30925338774E+03  0.17300000000E+03 0.  1.
         -6    1    1    2    0  503  0.73090696755E+02 -0.67699416346E+02 -0.22358407179E+03  0.29974038447E+03  0.17300000000E+03 0.  1.
<mgrwt>
<rscale>  2 0.19963582E+03</rscale>
<asrwt>0</asrwt>
<pdfrwt beam="1">  1       21 0.11478848E-01 0.19963582E+03</pdfrwt>
<pdfrwt beam="2">  1       21 0.82212505E-01 0.19963582E+03</pdfrwt>
<totfact> 0.81878566E+04</totfact>
</mgrwt>
</event>
<event>
 4    1  0.4072310E+000  0.1795030E+03  0.7546771E-02  0.1168285E+00
         21   -1    0    0  501  502  0.00000000000E+00  0.00000000000E+00  0.66564962478E+02  0.66564962478E+02  0.00000000000E+00 0. -1.
         21   -1    0    0  502  503 -0.00000000000E+00 -0.00000000000E+00 -0.48547631042E+03  0.48547631042E+03  0.00000000000E+00 0. -1.
          6    1    1    2  501    0  0.17309681832E+02  0.44639699878E+02 -0.19453855279E+03  0.26470091879E+03  0.17300000000E+03 0. -1.
         -6    1    1    2    0  503 -0.17309681832E+02 -0.44639699878E+02 -0.22437279515E+03  0.28734035410E+03  0.17300000000E+03 0. -1.
<mgrwt>
<rscale>  2 0.17950300E+03</rscale>
<asrwt>0</asrwt>
<pdfrwt beam="1">  1       21 0.10240763E-01 0.17950300E+03</pdfrwt>
<pdfrwt beam="2">  1       21 0.74688663E-01 0.17950300E+03</pdfrwt>
<totfact> 0.12544961E+05</totfact>
</mgrwt>
</event>
<event>
 4    1  0.4072310E+000  0.2337525E+03  0.7546771E-02  0.1124026E+00
         21   -1    0    0  503  502  0.00000000000E+00  0.00000000000E+00  0.27763065646E+03  0.27763065646E+03  0.00000000000E+00 0. -1.
         21   -1    0    0  501  503 -0.00000000000E+00 -0.00000000000E+00 -0.32182681784E+03  0.32182681784E+03  0.00000000000E+00 0. -1.
          6    1    1    2  501    0  0.15571389550E+03  0.21549977395E+02 -0.20890939768E+03  0.31350176270E+03  0.17300000000E+03 0. -1.
         -6    1    1    2    0  502 -0.15571389550E+03 -0.21549977395E+02  0.16471323631E+03  0.28595571160E+03  0.17300000000E+03 0. -1.
<mgrwt>
<rscale>  2 0.23375247E+03</rscale>
<asrwt>0</asrwt>
<pdfrwt beam="1">  1       21 0.42712409E-01 0.23375247E+03</pdfrwt>
<pdfrwt beam="2">  1       21 0.49511818E-01 0.23375247E+03</pdfrwt>
<totfact> 0.20034529E+04</totfact>
</mgrwt>
</event>
<event>
 4    1  0.4072310E+000  0.1829234E+03  0.7546771E-02  0.1165003E+00
         21   -1    0    0  501  502  0.00000000000E+00  0.00000000000E+00  0.29773818634E+03  0.29773818634E+03  0.00000000000E+00 0. -1.
         21   -1    0    0  502  503 -0.00000000000E+00 -0.00000000000E+00 -0.11425231136E+03  0.11425231136E+03  0.00000000000E+00 0. -1.
          6    1    1    2  501    0 -0.56963815544E+02  0.16943518392E+02  0.11808613893E+03  0.21772757130E+03  0.17300000000E+03 0.  1.
         -6    1    1    2    0  503  0.56963815544E+02 -0.16943518392E+02  0.65399736049E+02  0.19426292640E+03  0.17300000000E+03 0.  1.
<mgrwt>
<rscale>  2 0.18292337E+03</rscale>
<asrwt>0</asrwt>
<pdfrwt beam="1">  1       21 0.45805875E-01 0.18292337E+03</pdfrwt>
<pdfrwt beam="2">  1       21 0.17577279E-01 0.18292337E+03</pdfrwt>
<totfact> 0.13446900E+05</totfact>
</mgrwt>
</event>
<event>
 4    1  0.4072310E+000  0.2051363E+03  0.7546771E-02  0.1145476E+00
         21   -1    0    0  501  502  0.00000000000E+00  0.00000000000E+00  0.33963842788E+03  0.33963842788E+03  0.00000000000E+00 0. -1.
         21   -1    0    0  502  503 -0.00000000000E+00 -0.00000000000E+00 -0.12395764575E+03  0.12395764575E+03  0.00000000000E+00 0. -1.
          6    1    1    2  501    0  0.99493359898E+02  0.47465451307E+02  0.10280310249E+03  0.22945451753E+03  0.17300000000E+03 0. -1.
         -6    1    1    2    0  503 -0.99493359898E+02 -0.47465451307E+02  0.11287767964E+03  0.23414155610E+03  0.17300000000E+03 0. -1.
<mgrwt>
<rscale>  2 0.20513629E+03</rscale>
<asrwt>0</asrwt>
<pdfrwt beam="1">  1       21 0.52252065E-01 0.20513629E+03</pdfrwt>
<pdfrwt beam="2">  1       21 0.19070407E-01 0.20513629E+03</pdfrwt>
<totfact> 0.87192172E+04</totfact>
</mgrwt>
</event>
<event>
 4    1  0.4072310E+000  0.3018323E+03  0.7546771E-02  0.1084328E+00
         21   -1    0    0  501  502  0.00000000000E+00  0.00000000000E+00  0.46241993940E+03  0.46241993940E+03  0.00000000000E+00 0. -1.
         21   -1    0    0  502  503 -0.00000000000E+00 -0.00000000000E+00 -0.54580465342E+03  0.54580465342E+03  0.00000000000E+00 0. -1.
          6    1    1    2  501    0  0.15725678880E+03 -0.19090326053E+03  0.36129525718E+03  0.47078340600E+03  0.17300000000E+03 0. -1.
         -6    1    1    2    0  503 -0.15725678880E+03  0.19090326053E+03 -0.44467997120E+03  0.53744118682E+03  0.17300000000E+03 0. -1.
<mgrwt>
<rscale>  2 0.30183233E+03</rscale>
<asrwt>0</asrwt>
<pdfrwt beam="1">  1       21 0.71141529E-01 0.30183233E+03</pdfrwt>
<pdfrwt beam="2">  1       21 0.83969947E-01 0.30183233E+03</pdfrwt>
<totfact> 0.20351088E+03</totfact>
</mgrwt>
</event>
<event>
 4    1  0.4072310E+000  0.2179555E+03  0.7546771E-02  0.1135417E+00
         21   -1    0    0  503  502  0.00000000000E+00  0.00000000000E+00  0.63213486316E+02  0.63213486316E+02  0.00000000000E+00 0.  1.
         21   -1    0    0  501  503 -0.00000000000E+00 -0.00000000000E+00 -0.97139392864E+03  0.97139392864E+03  0.00000000000E+00 0.  1.
          6    1    1    2  501    0 -0.12192768758E+03 -0.52050427125E+02 -0.70021742971E+03  0.73335465966E+03  0.17300000000E+03 0. -1.
         -6    1    1    2    0  502  0.12192768758E+03  0.52050427125E+02 -0.20796301261E+03  0.30125275530E+03  0.17300000000E+03 0. -1.
<mgrwt>
<rscale>  2 0.21795552E+03</rscale>
<asrwt>0</asrwt>
<pdfrwt beam="1">  1       21 0.97251520E-02 0.21795552E+03</pdfrwt>
<pdfrwt beam="2">  1       21 0.14944522E+00 0.21795552E+03</pdfrwt>
<totfact> 0.25320912E+04</totfact>
</mgrwt>
</event>
<event>
 4    1  0.4072310E+000  0.2284765E+03  0.7546771E-02  0.1127717E+00
         21   -1    0    0  503  502  0.00000000000E+00  0.00000000000E+00  0.54061654319E+03  0.54061654319E+03  0.00000000000E+00 0.  1.
         21   -1    0    0  501  503 -0.00000000000E+00 -0.00000000000E+00 -0.11256235726E+03  0.11256235726E+03  0.00000000000E+00 0.  1.
          6    1    1    2  501    0  0.14810522853E+03  0.18367655765E+02  0.90884673780E+02  0.24588931132E+03  0.17300000000E+03 0.  1.
         -6    1    1    2    0  502 -0.14810522853E+03 -0.18367655765E+02  0.33716951215E+03  0.40728958913E+03  0.17300000000E+03 0.  1.
<mgrwt>
<rscale>  2 0.22847654E+03</rscale>
<asrwt>0</asrwt>
<pdfrwt beam="1">  1       21 0.83171774E-01 0.22847654E+03</pdfrwt>
<pdfrwt beam="2">  1       21 0.17317286E-01 0.22847654E+03</pdfrwt>
<totfact> 0.37279881E+04</totfact>
</mgrwt>
</event>
<event>
 4    1  0.4072310E+000  0.2360111E+03  0.7546771E-02  0.1122479E+00
         21   -1    0    0  503  502  0.00000000000E+00  0.00000000000E+00  0.94188160412E+03  0.94188160412E+03  0.00000000000E+00 0.  1.
         21   -1    0    0  501  503 -0.00000000000E+00 -0.00000000000E+00 -0.53278496880E+03  0.53278496880E+03  0.00000000000E+00 0.  1.
          6    1    1    2  501    0  0.13072917565E+03  0.93177937913E+02 -0.49066025261E+03  0.54447105430E+03  0.17300000000E+03 0.  1.
         -6    1    1    2    0  502 -0.13072917565E+03 -0.93177937913E+02  0.89975688793E+03  0.93019551862E+03  0.17300000000E+03 0.  1.
<mgrwt>
<rscale>  2 0.23601111E+03</rscale>
<asrwt>0</asrwt>
<pdfrwt beam="1">  1       21 0.14490486E+00 0.23601111E+03</pdfrwt>
<pdfrwt beam="2">  1       21 0.81966918E-01 0.23601111E+03</pdfrwt>
<totfact> 0.40663778E+02</totfact>
</mgrwt>
</event>
<event>
 4    1  0.4072310E+000  0.1864871E+03  0.7546771E-02  0.1161668E+00
         21   -1    0    0  503  502  0.00000000000E+00  0.00000000000E+00  0.11531017892E+03  0.11531017892E+03  0.00000000000E+00 0.  1.
         21   -1    0    0  501  503 -0.00000000000E+00 -0.00000000000E+00 -0.30993322289E+03  0.30993322289E+03  0.00000000000E+00 0.  1.
          6    1    1    2  501    0 -0.26612773516E+02  0.64344402200E+02 -0.13217770939E+03  0.22857906437E+03  0.17300000000E+03 0.  1.
         -6    1    1    2    0  502  0.26612773516E+02 -0.64344402200E+02 -0.62445334584E+02  0.19666433744E+03  0.17300000000E+03 0.  1.
<mgrwt>
<rscale>  2 0.18648711E+03</rscale>
<asrwt>0</asrwt>
<pdfrwt beam="1">  1       21 0.17740027E-01 0.18648711E+03</pdfrwt>
<pdfrwt beam="2">  1       21 0.47682034E-01 0.18648711E+03</pdfrwt>
<totfact> 0.12155005E+05</totfact>
</mgrwt>
</event>
<event>
 4    1  0.4072310E+000  0.2774366E+03  0.7546771E-02  0.1097097E+00
         21   -1    0    0  503  502  0.00000000000E+00  0.00000000000E+00  0.51499829927E+03  0.51499829927E+03  0.00000000000E+00 0.  1.
         21   -1    0    0  501  503 -0.00000000000E+00 -0.00000000000E+00 -0.23205418747E+03  0.23205418747E+03  0.00000000000E+00 0.  1.
          6    1    1    2  501    0 -0.10315838867E+03 -0.19078885882E+03 -0.81373635271E+02  0.28912403968E+03  0.17300000000E+03 0.  1.
         -6    1    1    2    0  502  0.10315838867E+03  0.19078885882E+03  0.36431774707E+03  0.45792844707E+03  0.17300000000E+03 0.  1.
<mgrwt>
<rscale>  2 0.27743655E+03</rscale>
<asrwt>0</asrwt>
<pdfrwt beam="1">  1       21 0.79230507E-01 0.27743655E+03</pdfrwt>
<pdfrwt beam="2">  1       21 0.35700644E-01 0.27743655E+03</pdfrwt>
<totfact> 0.10114617E+04</totfact>
</mgrwt>
</event>
<event>
 4    1  0.4072310E+000  0.3320936E+03  0.7546771E-02  0.1070214E+00
         21   -1    0    0  501  502  0.00000000000E+00  0.00000000000E+00  0.34176029696E+03  0.34176029696E+03  0.00000000000E+00 0. -1.
         21   -1    0    0  502  503 -0.00000000000E+00 -0.00000000000E+00 -0.34987860385E+03  0.34987860385E+03  0.00000000000E+00 0. -1.
          6    1    1    2  501    0  0.27978379392E+03  0.45586907787E+02  0.92324236971E+02  0.34468812314E+03  0.17300000000E+03 0. -1.
         -6    1    1    2    0  503 -0.27978379392E+03 -0.45586907787E+02 -0.10044254386E+03  0.34695077766E+03  0.17300000000E+03 0. -1.
<mgrwt>
<rscale>  2 0.33209357E+03</rscale>
<asrwt>0</asrwt>
<pdfrwt beam="1">  1       21 0.52578507E-01 0.33209357E+03</pdfrwt>
<pdfrwt beam="2">  1       21 0.53827478E-01 0.33209357E+03</pdfrwt>
<totfact> 0.10404122E+04</totfact>
</mgrwt>
</event>
<event>
 4    1  0.4072310E+000  0.1772961E+03  0.7546771E-02  0.1170446E+00
         21   -1    0    0  501  502  0.00000000000E+00  0.00000000000E+00  0.21182613580E+03  0.21182613580E+03  0.00000000000E+00 0. -1.
         21   -1    0    0  502  503 -0.00000000000E+00 -0.00000000000E+00 -0.18085461924E+03  0.18085461924E+03  0.00000000000E+00 0. -1.
          6    1    1    2  501    0 -0.80087109871E+01  0.37957521009E+02  0.98665461899E+02  0.20290092712E+03  0.17300000000E+03 0. -1.
         -6    1    1    2    0  503  0.80087109871E+01 -0.37957521009E+02 -0.67693945338E+02  0.18977982793E+03  0.17300000000E+03 0. -1.
<mgrwt>
<rscale>  2 0.17729612E+03</rscale>
<asrwt>0</asrwt>
<pdfrwt beam="1">  1       21 0.32588636E-01 0.17729612E+03</pdfrwt>
<pdfrwt beam="2">  1       21 0.27823788E-01 0.17729612E+03</pdfrwt>
<totfact> 0.11238094E+05</totfact>
</mgrwt>
</event>
<event>
 4    1  0.4072310E+000  0.1735204E+03  0.7546771E-02  0.1174226E+00
         21   -1    0    0  503  502  0.00000000000E+00  0.00000000000E+00  0.76058550710E+03  0.76058550710E+03  0.00000000000E+00 0. -1.
         21   -1    0    0  501  503 -0.00000000000E+00 -0.00000000000E+00 -0.41568644554E+02  0.41568644554E+02  0.00000000000E+00 0. -1.
          6    1    1    2  501    0  0.13408739455E+02  0.73340341016E+00  0.27193891892E+03  0.32258348966E+03  0.17300000000E+03 0.  1.
         -6    1    1    2    0  502 -0.13408739455E+02 -0.73340341016E+00  0.44707794362E+03  0.47957066199E+03  0.17300000000E+03 0.  1.
<mgrwt>
<rscale>  2 0.17352041E+03</rscale>
<asrwt>0</asrwt>
<pdfrwt beam="1">  1       21 0.11701314E+00 0.17352041E+03</pdfrwt>
<pdfrwt beam="2">  1       21 0.63951766E-02 0.17352041E+03</pdfrwt>
<totfact> 0.10014938E+05</totfact>
</mgrwt>
</event>
<event>
 4    1  0.4072310E+000  0.1921936E+03  0.7546771E-02  0.1156498E+00
         21   -1    0    0  503  502  0.00000000000E+00  0.00000000000E+00  0.73626591684E+02  0.73626591684E+02  0.00000000000E+00 0. -1.
         21   -1    0    0  501  503 -0.00000000000E+00 -0.00000000000E+00 -0.53947536607E+03  0.53947536607E+03  0.00000000000E+00 0. -1.
          6    1    1    2  501    0 -0.81733023424E+02  0.18140479659E+02 -0.31404454865E+03  0.36818791758E+03  0.17300000000E+03 0. -1.
         -6    1    1    2    0  502  0.81733023424E+02 -0.18140479659E+02 -0.15180422574E+03  0.24491404017E+03  0.17300000000E+03 0. -1.
<mgrwt>
<rscale>  2 0.19219356E+03</rscale>
<asrwt>0</asrwt>
<pdfrwt beam="1">  1       21 0.11327168E-01 0.19219356E+03</pdfrwt>
<pdfrwt beam="2">  1       21 0.82996211E-01 0.19219356E+03</pdfrwt>
<totfact> 0.82327730E+04</totfact>
</mgrwt>
</event>
<event>
 4    1  0.4072310E+000  0.1844165E+03  0.7546771E-02  0.1163596E+00
         21   -1    0    0  503  502  0.00000000000E+00  0.00000000000E+00  0.24728391158E+03  0.24728391158E+03  0.00000000000E+00 0.  1.
         21   -1    0    0  501  503 -0.00000000000E+00 -0.00000000000E+00 -0.21391477323E+03  0.21391477323E+03  0.00000000000E+00 0.  1.
          6    1    1    2  501    0 -0.62719045644E+02  0.12114778192E+02 -0.12111105832E+03  0.22062940643E+03  0.17300000000E+03 0.  1.
         -6    1    1    2    0  502  0.62719045644E+02 -0.12114778192E+02  0.15448019666E+03  0.24056927838E+03  0.17300000000E+03 0.  1.
<mgrwt>
<rscale>  2 0.18441650E+03</rscale>
<asrwt>0</asrwt>
<pdfrwt beam="1">  1       21 0.38043679E-01 0.18441650E+03</pdfrwt>
<pdfrwt beam="2">  1       21 0.32909965E-01 0.18441650E+03</pdfrwt>
<totfact> 0.59441620E+04</totfact>
</mgrwt>
</event>
<event>
 4    1  0.4072310E+000  0.1904732E+03  0.7546771E-02  0.1158035E+00
         21   -1    0    0  503  502  0.00000000000E+00  0.00000000000E+00  0.19802759770E+03  0.19802759770E+03  0.00000000000E+00 0.  1.
         21   -1    0    0  501  503 -0.00000000000E+00 -0.00000000000E+00 -0.22299585039E+03  0.22299585039E+03  0.00000000000E+00 0.  1.
          6    1    1    2  501    0  0.78669217853E+02 -0.12735757497E+02 -0.10140597910E+03  0.21578511986E+03  0.17300000000E+03 0.  1.
         -6    1    1    2    0  502 -0.78669217853E+02  0.12735757497E+02  0.76437726414E+02  0.20523832823E+03  0.17300000000E+03 0.  1.
<mgrwt>
<rscale>  2 0.19047321E+03</rscale>
<asrwt>0</asrwt>
<pdfrwt beam="1">  1       21 0.30465784E-01 0.19047321E+03</pdfrwt>
<pdfrwt beam="2">  1       21 0.34307054E-01 0.19047321E+03</pdfrwt>
<totfact> 0.84741726E+04</totfact>
</mgrwt>
</event>
<event>
 4    1  0.4072310E+000  0.1765010E+03  0.7546771E-02  0.1171233E+00
         21   -1    0    0  501  502  0.00000000000E+00  0.00000000000E+00  0.12806314143E+04  0.12806314143E+04  0.00000000000E+00 0. -1.
         21   -1    0    0  502  503 -0.00000000000E+00 -0.00000000000E+00 -0.44847870794E+02  0.44847870794E+02  0.00000000000E+00 0. -1.
          6    1    1    2  501    0 -0.31183842727E+02 -0.15847884134E+02  0.10662043678E+04  0.10807147364E+04  0.17300000000E+03 0. -1.
         -6    1    1    2    0  503  0.31183842727E+02  0.15847884134E+02  0.16957917568E+03  0.24476454871E+03  0.17300000000E+03 0. -1.
<mgrwt>
<rscale>  2 0.17650096E+03</rscale>
<asrwt>0</asrwt>
<pdfrwt beam="1">  1       21 0.19702019E+00 0.17650096E+03</pdfrwt>
<pdfrwt beam="2">  1       21 0.68996734E-02 0.17650096E+03</pdfrwt>
<totfact> 0.22032978E+04</totfact>
</mgrwt>
</event>
<event>
 4    1  0.4072310E+000  0.1976171E+03  0.7546771E-02  0.1151765E+00
         21   -1    0    0  503  502  0.00000000000E+00  0.00000000000E+00  0.15255125262E+03  0.15255125262E+03  0.00000000000E+00 0. -1.
         21   -1    0    0  501  503 -0.00000000000E+00 -0.00000000000E+00 -0.26555771841E+03  0.26555771841E+03  0.00000000000E+00 0. -1.
          6    1    1    2  501    0 -0.47841125115E+02  0.82672571500E+02 -0.96171706538E+02  0.21977607802E+03  0.17300000000E+03 0.  1.
         -6    1    1    2    0  502  0.47841125115E+02 -0.82672571500E+02 -0.16834759245E+02  0.19833289301E+03  0.17300000000E+03 0.  1.
<mgrwt>
<rscale>  2 0.19761712E+03</rscale>
<asrwt>0</asrwt>
<pdfrwt beam="1">  1       21 0.23469424E-01 0.19761712E+03</pdfrwt>
<pdfrwt beam="2">  1       21 0.40855034E-01 0.19761712E+03</pdfrwt>
<totfact> 0.98385362E+04</totfact>
</mgrwt>
</event>
<event>
 4    1  0.4072310E+000  0.2300965E+03  0.7546771E-02  0.1126572E+00
         21   -1    0    0  503  502  0.00000000000E+00  0.00000000000E+00  0.23232695517E+03  0.23232695517E+03  0.00000000000E+00 0. -1.
         21   -1    0    0  501  503 -0.00000000000E+00 -0.00000000000E+00 -0.22838131120E+03  0.22838131120E+03  0.00000000000E+00 0. -1.
          6    1    1    2  501    0 -0.35205507494E+02 -0.14756679704E+03 -0.87395875025E+01  0.23026238889E+03  0.17300000000E+03 0. -1.
         -6    1    1    2    0  502  0.35205507494E+02  0.14756679704E+03  0.12685231475E+02  0.23044587748E+03  0.17300000000E+03 0. -1.
<mgrwt>
<rscale>  2 0.23009647E+03</rscale>
<asrwt>0</asrwt>
<pdfrwt beam="1">  1       21 0.35742608E-01 0.23009647E+03</pdfrwt>
<pdfrwt beam="2">  1       21 0.35135586E-01 0.23009647E+03</pdfrwt>
<totfact> 0.57966085E+04</totfact>
</mgrwt>
</event>
<event>
 4    1  0.4072310E+000  0.1764382E+03  0.7546771E-02  0.1171295E+00
         21   -1    0    0  501  502  0.00000000000E+00  0.00000000000E+00  0.22869488432E+02  0.22869488432E+02  0.00000000000E+00 0. -1.
         21   -1    0    0  502  503 -0.00000000000E+00 -0.00000000000E+00 -0.20868267451E+04  0.20868267451E+04  0.00000000000E+00 0. -1.
          6    1    1    2  501    0  0.24205337919E+02  0.24810203360E+02 -0.40996933547E+03  0.44632421019E+03  0.17300000000E+03 0. -1.
         -6    1    1    2    0  503 -0.24205337919E+02 -0.24810203360E+02 -0.16539879212E+04  0.16633720234E+04  0.17300000000E+03 0. -1.
<mgrwt>
<rscale>  2 0.17643822E+03</rscale>
<asrwt>0</asrwt>
<pdfrwt beam="1">  1       21 0.35183833E-02 0.17643822E+03</pdfrwt>
<pdfrwt beam="2">  1       21 0.32105023E+00 0.17643822E+03</pdfrwt>
<totfact> 0.12767546E+04</totfact>
</mgrwt>
</event>
<event>
 4    1  0.4072310E+000  0.1897923E+03  0.7546771E-02  0.1158649E+00
         21   -1    0    0  501  502  0.00000000000E+00  0.00000000000E+00  0.39230470494E+02  0.39230470494E+02  0.00000000000E+00 0.  1.
         21   -1    0    0  502  503 -0.00000000000E+00 -0.00000000000E+00 -0.10481211873E+04  0.10481211873E+04  0.00000000000E+00 0.  1.
          6    1    1    2  501    0  0.43587995133E+02 -0.64747327946E+02 -0.31302569676E+03  0.36606859552E+03  0.17300000000E+03 0.  1.
         -6    1    1    2    0  503 -0.43587995133E+02  0.64747327946E+02 -0.69586502005E+03  0.72128306228E+03  0.17300000000E+03 0.  1.
<mgrwt>
<rscale>  2 0.18979233E+03</rscale>
<asrwt>0</asrwt>
<pdfrwt beam="1">  1       21 0.60354569E-02 0.18979233E+03</pdfrwt>
<pdfrwt beam="2">  1       21 0.16124942E+00 0.18979233E+03</pdfrwt>
<totfact> 0.48189943E+04</totfact>
</mgrwt>
</event>
<event>
 4    1  0.4072310E+000  0.2267657E+03  0.7546771E-02  0.1128937E+00
         21   -1    0    0  501  502  0.00000000000E+00  0.00000000000E+00  0.16466657432E+04  0.16466657432E+04  0.00000000000E+00 0.  1.
         21   -1    0    0  502  503 -0.00000000000E+00 -0.00000000000E+00 -0.51375615250E+02  0.51375615250E+02  0.00000000000E+00 0. -1.
          6    1    1    2  501    0  0.48133919373E+02 -0.13848031343E+03  0.13293218389E+04  0.13485248321E+04  0.17300000000E+03 0.  1.
         -6    1    1    2    0  503 -0.48133919373E+02  0.13848031343E+03  0.26596828896E+03  0.34951652627E+03  0.17300000000E+03 0. -1.
<mgrwt>
<rscale>  2 0.22676568E+03</rscale>
<asrwt>0</asrwt>
<pdfrwt beam="1">  1       21 0.25333315E+00 0.22676568E+03</pdfrwt>
<pdfrwt beam="2">  1       21 0.79039421E-02 0.22676568E+03</pdfrwt>
<totfact> 0.75446253E+03</totfact>
</mgrwt>
</event>
<event>
 4    1  0.4072310E+000  0.3032505E+03  0.7546771E-02  0.1083627E+00
         21   -1    0    0  501  502  0.00000000000E+00  0.00000000000E+00  0.29338124119E+03  0.29338124119E+03  0.00000000000E+00 0.  1.
         21   -1    0    0  502  503 -0.00000000000E+00 -0.00000000000E+00 -0.34461000404E+03  0.34461000404E+03  0.00000000000E+00 0. -1.
          6    1    1    2  501    0  0.19304459868E+03  0.15737107847E+03  0.70305162196E+02  0.31129357406E+03  0.17300000000E+03 0.  1.
         -6    1    1    2    0  503 -0.19304459868E+03 -0.15737107847E+03 -0.12153392505E+03  0.32669767118E+03  0.17300000000E+03 0. -1.
<mgrwt>
<rscale>  2 0.30325051E+03</rscale>
<asrwt>0</asrwt>
<pdfrwt beam="1">  1       21 0.45135576E-01 0.30325051E+03</pdfrwt>
<pdfrwt beam="2">  1       21 0.53016923E-01 0.30325051E+03</pdfrwt>
<totfact> 0.14988888E+04</totfact>
</mgrwt>
</event>
<event>
 4    1  0.4072310E+000  0.1777412E+03  0.7546771E-02  0.1170007E+00
         21   -1    0    0  503  502  0.00000000000E+00  0.00000000000E+00  0.66458921177E+03  0.66458921177E+03  0.00000000000E+00 0.  1.
         21   -1    0    0  501  503 -0.00000000000E+00 -0.00000000000E+00 -0.20439849884E+03  0.20439849884E+03  0.00000000000E+00 0.  1.
          6    1    1    2  501    0 -0.28981028616E+02 -0.28688457138E+02 -0.15053578879E+03  0.23292262943E+03  0.17300000000E+03 0.  1.
         -6    1    1    2    0  502  0.28981028616E+02  0.28688457138E+02  0.61072650172E+03  0.63606508118E+03  0.17300000000E+03 0.  1.
<mgrwt>
<rscale>  2 0.17774118E+03</rscale>
<asrwt>0</asrwt>
<pdfrwt beam="1">  1       21 0.10224449E+00 0.17774118E+03</pdfrwt>
<pdfrwt beam="2">  1       21 0.31445923E-01 0.17774118E+03</pdfrwt>
<totfact> 0.76538659E+03</totfact>
</mgrwt>
</event>
<event>
 4    1  0.4072310E+000  0.1869366E+03  0.7546771E-02  0.1161254E+00
         21   -1    0    0  503  502  0.00000000000E+00  0.00000000000E+00  0.34863916235E+03  0.34863916235E+03  0.00000000000E+00 0.  1.
         21   -1    0    0  501  503 -0.00000000000E+00 -0.00000000000E+00 -0.10326771483E+03  0.10326771483E+03  0.00000000000E+00 0.  1.
          6    1    1    2  501    0  0.41610863198E+02 -0.57313512201E+02  0.83954241520E+02  0.20492344250E+03  0.17300000000E+03 0.  1.
         -6    1    1    2    0  502 -0.41610863198E+02  0.57313512201E+02  0.16141720600E+03  0.24698343469E+03  0.17300000000E+03 0.  1.
<mgrwt>
<rscale>  2 0.18693663E+03</rscale>
<asrwt>0</asrwt>
<pdfrwt beam="1">  1       21 0.53636794E-01 0.18693663E+03</pdfrwt>
<pdfrwt beam="2">  1       21 0.15887341E-01 0.18693663E+03</pdfrwt>
<totfact> 0.11641068E+05</totfact>
</mgrwt>
</event>
<event>
 4    1  0.4072310E+000  0.3013161E+03  0.7546771E-02  0.1084585E+00
         21   -1    0    0  503  502  0.00000000000E+00  0.00000000000E+00  0.60874227942E+03  0.60874227942E+03  0.00000000000E+00 0. -1.
         21   -1    0    0  501  503 -0.00000000000E+00 -0.00000000000E+00 -0.17123900291E+03  0.17123900291E+03  0.00000000000E+00 0.  1.
          6    1    1    2  501    0 -0.22420225850E+03  0.10293561451E+03  0.78669891749E+02  0.31141667476E+03  0.17300000000E+03 0. -1.
         -6    1    1    2    0  502  0.22420225850E+03 -0.10293561451E+03  0.35883338476E+03  0.46856460757E+03  0.17300000000E+03 0. -1.
<mgrwt>
<rscale>  2 0.30131610E+03</rscale>
<asrwt>0</asrwt>
<pdfrwt beam="1">  1       21 0.93652658E-01 0.30131610E+03</pdfrwt>
<pdfrwt beam="2">  1       21 0.26344462E-01 0.30131610E+03</pdfrwt>
<totfact> 0.12360959E+04</totfact>
</mgrwt>
</event>
<event>
 4    1  0.4072310E+000  0.2287574E+03  0.7546771E-02  0.1127517E+00
         21   -1    0    0  501  502  0.00000000000E+00  0.00000000000E+00  0.21164401271E+04  0.21164401271E+04  0.00000000000E+00 0.  1.
         21   -1    0    0  502  503 -0.00000000000E+00 -0.00000000000E+00 -0.53517478708E+02  0.53517478708E+02  0.00000000000E+00 0. -1.
          6    1    1    2  501    0 -0.11326600747E+03  0.97835355479E+02  0.18272715701E+04  0.18415350488E+04  0.17300000000E+03 0.  1.
         -6    1    1    2    0  503  0.11326600747E+03 -0.97835355479E+02  0.23565107833E+03  0.32842255701E+03  0.17300000000E+03 0. -1.
<mgrwt>
<rscale>  2 0.22875739E+03</rscale>
<asrwt>0</asrwt>
<pdfrwt beam="1">  1       21 0.32560611E+00 0.22875739E+03</pdfrwt>
<pdfrwt beam="2">  1       21 0.82334599E-02 0.22875739E+03</pdfrwt>
<totfact> 0.26544523E+03</totfact>
</mgrwt>
</event>
<event>
 4    1  0.4072310E+000  0.1896167E+03  0.7546771E-02  0.1158808E+00
         21   -1    0    0  503  502  0.00000000000E+00  0.00000000000E+00  0.14656870994E+03  0.14656870994E+03  0.00000000000E+00 0. -1.
         21   -1    0    0  501  503 -0.00000000000E+00 -0.00000000000E+00 -0.26728342176E+03  0.26728342176E+03  0.00000000000E+00 0. -1.
          6    1    1    2  501    0  0.65127094129E+02 -0.42236664230E+02 -0.11969058640E+03  0.22423271543E+03  0.17300000000E+03 0. -1.
         -6    1    1    2    0  502 -0.65127094129E+02  0.42236664230E+02 -0.10241254233E+01  0.18961941627E+03  0.17300000000E+03 0. -1.
<mgrwt>
<rscale>  2 0.18961665E+03</rscale>
<asrwt>0</asrwt>
<pdfrwt beam="1">  1       21 0.22549032E-01 0.18961665E+03</pdfrwt>
<pdfrwt beam="2">  1       21 0.41120527E-01 0.18961665E+03</pdfrwt>
<totfact> 0.10507079E+05</totfact>
</mgrwt>
</event>
<event>
 4    1  0.4072310E+000  0.1731076E+03  0.7546771E-02  0.1174645E+00
         21   -1    0    0  503  502  0.00000000000E+00  0.00000000000E+00  0.71296797516E+03  0.71296797516E+03  0.00000000000E+00 0. -1.
         21   -1    0    0  501  503 -0.00000000000E+00 -0.00000000000E+00 -0.43379198645E+02  0.43379198645E+02  0.00000000000E+00 0. -1.
          6    1    1    2  501    0 -0.57653182672E+01 -0.20027442572E+01  0.26810727818E+03  0.31913596239E+03  0.17300000000E+03 0. -1.
         -6    1    1    2    0  502  0.57653182672E+01  0.20027442572E+01  0.40148149834E+03  0.43721121142E+03  0.17300000000E+03 0. -1.
<mgrwt>
<rscale>  2 0.17310763E+03</rscale>
<asrwt>0</asrwt>
<pdfrwt beam="1">  1       21 0.10968737E+00 0.17310763E+03</pdfrwt>
<pdfrwt beam="2">  1       21 0.66737234E-02 0.17310763E+03</pdfrwt>
<totfact> 0.10889380E+05</totfact>
</mgrwt>
</event>
<event>
 4    1  0.4072310E+000  0.1984908E+03  0.7546771E-02  0.1151019E+00
         21   -1    0    0  503  502  0.00000000000E+00  0.00000000000E+00  0.25610914738E+03  0.25610914738E+03  0.00000000000E+00 0.  1.
         21   -1    0    0  501  503 -0.00000000000E+00 -0.00000000000E+00 -0.21031380811E+03  0.21031380811E+03  0.00000000000E+00 0. -1.
          6    1    1    2  501    0  0.58005240785E+02  0.78134450830E+02 -0.97955499403E+02  0.22134561262E+03  0.17300000000E+03 0. -1.
         -6    1    1    2    0  502 -0.58005240785E+02 -0.78134450830E+02  0.14375083868E+03  0.24507734287E+03  0.17300000000E+03 0.  1.
<mgrwt>
<rscale>  2 0.19849081E+03</rscale>
<asrwt>0</asrwt>
<pdfrwt beam="1">  1       21 0.39401407E-01 0.19849081E+03</pdfrwt>
<pdfrwt beam="2">  1       21 0.32355971E-01 0.19849081E+03</pdfrwt>
<totfact> 0.56912415E+04</totfact>
</mgrwt>
</event>
<event>
 4    1  0.4072310E+000  0.1912061E+03  0.7546771E-02  0.1157378E+00
         21   -1    0    0  501  502  0.00000000000E+00  0.00000000000E+00  0.18876824599E+03  0.18876824599E+03  0.00000000000E+00 0. -1.
         21   -1    0    0  502  503 -0.00000000000E+00 -0.00000000000E+00 -0.35010441800E+03  0.35010441800E+03  0.00000000000E+00 0. -1.
          6    1    1    2  501    0  0.73808042051E+02 -0.34397052714E+02  0.99432814161E+02  0.21551489238E+03  0.17300000000E+03 0. -1.
         -6    1    1    2    0  503 -0.73808042051E+02  0.34397052714E+02 -0.26076898617E+03  0.32335777160E+03  0.17300000000E+03 0. -1.
<mgrwt>
<rscale>  2 0.19120613E+03</rscale>
<asrwt>0</asrwt>
<pdfrwt beam="1">  1       21 0.29041269E-01 0.19120613E+03</pdfrwt>
<pdfrwt beam="2">  1       21 0.53862218E-01 0.19120613E+03</pdfrwt>
<totfact> 0.37033666E+04</totfact>
</mgrwt>
</event>
<event>
 4    1  0.4072310E+000  0.1732049E+03  0.7546771E-02  0.1174546E+00
         21   -1    0    0  501  502  0.00000000000E+00  0.00000000000E+00  0.20174841907E+03  0.20174841907E+03  0.00000000000E+00 0.  1.
         21   -1    0    0  502  503 -0.00000000000E+00 -0.00000000000E+00 -0.19464883708E+03  0.19464883708E+03  0.00000000000E+00 0.  1.
          6    1    1    2  501    0  0.70047725253E+01  0.46768655347E+01  0.99846882649E+02  0.19992333502E+03  0.17300000000E+03 0.  1.
         -6    1    1    2    0  503 -0.70047725253E+01 -0.46768655347E+01 -0.92747300660E+02  0.19647392114E+03  0.17300000000E+03 0.  1.
<mgrwt>
<rscale>  2 0.17320491E+03</rscale>
<asrwt>0</asrwt>
<pdfrwt beam="1">  1       21 0.31038218E-01 0.17320491E+03</pdfrwt>
<pdfrwt beam="2">  1       21 0.29945975E-01 0.17320491E+03</pdfrwt>
<totfact> 0.10740105E+05</totfact>
</mgrwt>
</event>
<event>
 4    1  0.4072310E+000  0.2155820E+03  0.7546771E-02  0.1137220E+00
         21   -1    0    0  501  502  0.00000000000E+00  0.00000000000E+00  0.37702427754E+03  0.37702427754E+03  0.00000000000E+00 0.  1.
         21   -1    0    0  502  503 -0.00000000000E+00 -0.00000000000E+00 -0.13493773434E+03  0.13493773434E+03  0.00000000000E+00 0.  1.
          6    1    1    2  501    0  0.58646313106E+01 -0.12849989421E+03  0.19631683810E+03  0.29157489198E+03  0.17300000000E+03 0.  1.
         -6    1    1    2    0  503 -0.58646313106E+01  0.12849989421E+03  0.45769705106E+02  0.22038711990E+03  0.17300000000E+03 0.  1.
<mgrwt>
<rscale>  2 0.21558204E+03</rscale>
<asrwt>0</asrwt>
<pdfrwt beam="1">  1       21 0.58003735E-01 0.21558204E+03</pdfrwt>
<pdfrwt beam="2">  1       21 0.20759652E-01 0.21558204E+03</pdfrwt>
<totfact> 0.59344371E+04</totfact>
</mgrwt>
</event>
<event>
 4    1  0.4072310E+000  0.2685306E+03  0.7546771E-02  0.1102124E+00
         21   -1    0    0  503  502  0.00000000000E+00  0.00000000000E+00  0.49236454941E+03  0.49236454941E+03  0.00000000000E+00 0. -1.
         21   -1    0    0  501  503 -0.00000000000E+00 -0.00000000000E+00 -0.83349870751E+03  0.83349870751E+03  0.00000000000E+00 0. -1.
          6    1    1    2  501    0  0.98300943905E+02 -0.18032358459E+03 -0.77244557831E+03  0.81779021893E+03  0.17300000000E+03 0. -1.
         -6    1    1    2    0  502 -0.98300943905E+02  0.18032358459E+03  0.43131142020E+03  0.50807303799E+03  0.17300000000E+03 0. -1.
<mgrwt>
<rscale>  2 0.26853058E+03</rscale>
<asrwt>0</asrwt>
<pdfrwt beam="1">  1       21 0.75748393E-01 0.26853058E+03</pdfrwt>
<pdfrwt beam="2">  1       21 0.12823057E+00 0.26853058E+03</pdfrwt>
<totfact> 0.64859205E+02</totfact>
</mgrwt>
</event>
<event>
 4    1  0.4072310E+000  0.1854295E+03  0.7546771E-02  0.1162649E+00
         21   -1    0    0  501  502  0.00000000000E+00  0.00000000000E+00  0.37313782921E+03  0.37313782921E+03  0.00000000000E+00 0. -1.
         21   -1    0    0  502  503 -0.00000000000E+00 -0.00000000000E+00 -0.94230347469E+02  0.94230347469E+02  0.00000000000E+00 0.  1.
          6    1    1    2  501    0  0.38539795662E+02 -0.54495738269E+02  0.17418778728E+03  0.25441204094E+03  0.17300000000E+03 0.  1.
         -6    1    1    2    0  503 -0.38539795662E+02  0.54495738269E+02  0.10471969446E+03  0.21295613573E+03  0.17300000000E+03 0.  1.
<mgrwt>
<rscale>  2 0.18542951E+03</rscale>
<asrwt>0</asrwt>
<pdfrwt beam="1">  1       21 0.57405819E-01 0.18542951E+03</pdfrwt>
<pdfrwt beam="2">  1       21 0.14496977E-01 0.18542951E+03</pdfrwt>
<totfact> 0.11918639E+05</totfact>
</mgrwt>
</event>
<event>
 4    1  0.4072310E+000  0.3208131E+03  0.7546771E-02  0.1075276E+00
         21   -1    0    0  501  502  0.00000000000E+00  0.00000000000E+00  0.36931352362E+03  0.36931352362E+03  0.00000000000E+00 0. -1.
         21   -1    0    0  502  503 -0.00000000000E+00 -0.00000000000E+00 -0.33226680789E+03  0.33226680789E+03  0.00000000000E+00 0.  1.
          6    1    1    2  501    0 -0.20999261860E+03 -0.16998572673E+03  0.15939533048E+03  0.35822886335E+03  0.17300000000E+03 0.  1.
         -6    1    1    2    0  503  0.20999261860E+03  0.16998572673E+03 -0.12234861474E+03  0.34335146816E+03  0.17300000000E+03 0. -1.
<mgrwt>
<rscale>  2 0.32081310E+03</rscale>
<asrwt>0</asrwt>
<pdfrwt beam="1">  1       21 0.56817466E-01 0.32081310E+03</pdfrwt>
<pdfrwt beam="2">  1       21 0.51117970E-01 0.32081310E+03</pdfrwt>
<totfact> 0.98822623E+03</totfact>
</mgrwt>
</event>
<event>
 4    1  0.4072310E+000  0.2178318E+03  0.7546771E-02  0.1135510E+00
         21   -1    0    0  503  502  0.00000000000E+00  0.00000000000E+00  0.92525310331E+03  0.92525310331E+03  0.00000000000E+00 0.  1.
         21   -1    0    0  501  503 -0.00000000000E+00 -0.00000000000E+00 -0.77503633276E+02  0.77503633276E+02  0.00000000000E+00 0.  1.
          6    1    1    2  501    0  0.11287775548E+03 -0.69139840513E+02  0.13225450807E+03  0.25483712472E+03  0.17300000000E+03 0.  1.
         -6    1    1    2    0  502 -0.11287775548E+03  0.69139840513E+02  0.71549496196E+03  0.74791961187E+03  0.17300000000E+03 0.  1.
<mgrwt>
<rscale>  2 0.21783183E+03</rscale>
<asrwt>0</asrwt>
<pdfrwt beam="1">  1       21 0.14234662E+00 0.21783183E+03</pdfrwt>
<pdfrwt beam="2">  1       21 0.11923637E-01 0.21783183E+03</pdfrwt>
<totfact> 0.20016104E+04</totfact>
</mgrwt>
</event>
<event>
 4    1  0.4072310E+000  0.1813153E+03  0.7546771E-02  0.1166536E+00
         21   -1    0    0  503  502  0.00000000000E+00  0.00000000000E+00  0.41820952027E+02  0.41820952027E+02  0.00000000000E+00 0. -1.
         21   -1    0    0  501  503 -0.00000000000E+00 -0.00000000000E+00 -0.13299268587E+04  0.13299268587E+04  0.00000000000E+00 0. -1.
          6    1    1    2  501    0  0.48496244569E+02  0.24379548356E+02 -0.10826469262E+04  0.10977247446E+04  0.17300000000E+03 0. -1.
         -6    1    1    2    0  502 -0.48496244569E+02 -0.24379548356E+02 -0.20545898053E+03  0.27402306618E+03  0.17300000000E+03 0. -1.
<mgrwt>
<rscale>  2 0.18131533E+03</rscale>
<asrwt>0</asrwt>
<pdfrwt beam="1">  1       21 0.64339936E-02 0.18131533E+03</pdfrwt>
<pdfrwt beam="2">  1       21 0.20460410E+00 0.18131533E+03</pdfrwt>
<totfact> 0.22142012E+04</totfact>
</mgrwt>
</event>
<event>
 4    1  0.4072310E+000  0.2286147E+03  0.7546771E-02  0.1127619E+00
         21   -1    0    0  501  502  0.00000000000E+00  0.00000000000E+00  0.36101597836E+03  0.36101597836E+03  0.00000000000E+00 0. -1.
         21   -1    0    0  502  503 -0.00000000000E+00 -0.00000000000E+00 -0.18381838654E+03  0.18381838654E+03  0.00000000000E+00 0.  1.
          6    1    1    2  501    0 -0.11005004563E+03  0.10111717369E+03  0.21415414496E+03  0.31325180472E+03  0.17300000000E+03 0. -1.
         -6    1    1    2    0  503  0.11005004563E+03 -0.10111717369E+03 -0.36956553141E+02  0.23158256018E+03  0.17300000000E+03 0.  1.
<mgrwt>
<rscale>  2 0.22861473E+03</rscale>
<asrwt>0</asrwt>
<pdfrwt beam="1">  1       21 0.55540919E-01 0.22861473E+03</pdfrwt>
<pdfrwt beam="2">  1       21 0.28279752E-01 0.22861473E+03</pdfrwt>
<totfact> 0.35856799E+04</totfact>
</mgrwt>
</event>
<event>
 4    1  0.4072310E+000  0.1771767E+03  0.7546771E-02  0.1170564E+00
         21   -1    0    0  501  502  0.00000000000E+00  0.00000000000E+00  0.49125413818E+03  0.49125413818E+03  0.00000000000E+00 0.  1.
         21   -1    0    0  502  503 -0.00000000000E+00 -0.00000000000E+00 -0.64805856985E+02  0.64805856985E+02  0.00000000000E+00 0. -1.
          6    1    1    2  501    0  0.36085603018E+02  0.12665053059E+02  0.24607918312E+03  0.30322687658E+03  0.17300000000E+03 0.  1.
         -6    1    1    2    0  503 -0.36085603018E+02 -0.12665053059E+02  0.18036909807E+03  0.25283311859E+03  0.17300000000E+03 0. -1.
<mgrwt>
<rscale>  2 0.17717668E+03</rscale>
<asrwt>0</asrwt>
<pdfrwt beam="1">  1       21 0.75577557E-01 0.17717668E+03</pdfrwt>
<pdfrwt beam="2">  1       21 0.99701322E-02 0.17717668E+03</pdfrwt>
<totfact> 0.12820851E+05</totfact>
</mgrwt>
</event>
<event>
 4    1  0.4072310E+000  0.1752792E+03  0.7546771E-02  0.1172452E+00
         21   -1    0    0  501  502  0.00000000000E+00  0.00000000000E+00  0.91177212848E+03  0.91177212848E+03  0.00000000000E+00 0.  1.
         21   -1    0    0  502  503 -0.00000000000E+00 -0.00000000000E+00 -0.63219151509E+02  0.63219151509E+02  0.00000000000E+00 0.  1.
          6    1    1    2  501    0  0.86282600557E+01 -0.26821034922E+02  0.75741884258E+03  0.77743560369E+03  0.17300000000E+03 0.  1.
         -6    1    1    2    0  503 -0.86282600557E+01  0.26821034922E+02  0.91134134383E+02  0.19755567629E+03  0.17300000000E+03 0.  1.
<mgrwt>
<rscale>  2 0.17527925E+03</rscale>
<asrwt>0</asrwt>
<pdfrwt beam="1">  1       21 0.14027263E+00 0.17527925E+03</pdfrwt>
<pdfrwt beam="2">  1       21 0.97260239E-02 0.17527925E+03</pdfrwt>
<totfact> 0.30668044E+04</totfact>
</mgrwt>
</event>
<event>
 4    1  0.4072310E+000  0.2116296E+03  0.7546771E-02  0.1140282E+00
         21   -1    0    0  501  502  0.00000000000E+00  0.00000000000E+00  0.76809470966E+03  0.76809470966E+03  0.00000000000E+00 0. -1.
         21   -1    0    0  502  503 -0.00000000000E+00 -0.00000000000E+00 -0.71421355253E+02  0.71421355253E+02  0.00000000000E+00 0. -1.
          6    1    1    2  501    0 -0.32702793144E+02 -0.11742500117E+03  0.52819043757E+03  0.56900987858E+03  0.17300000000E+03 0. -1.
         -6    1    1    2    0  503  0.32702793144E+02  0.11742500117E+03  0.16848291684E+03  0.27050618633E+03  0.17300000000E+03 0. -1.
<mgrwt>
<rscale>  2 0.21162964E+03</rscale>
<asrwt>0</asrwt>
<pdfrwt beam="1">  1       21 0.11816841E+00 0.21162964E+03</pdfrwt>
<pdfrwt beam="2">  1       21 0.10987901E-01 0.21162964E+03</pdfrwt>
<totfact> 0.37274401E+04</totfact>
</mgrwt>
</event>
<event>
 4    1  0.4072310E+000  0.2436186E+03  0.7546771E-02  0.1117405E+00
         21   -1    0    0  501  502  0.00000000000E+00  0.00000000000E+00  0.25866855886E+03  0.25866855886E+03  0.00000000000E+00 0.  1.
         21   -1    0    0  502  503 -0.00000000000E+00 -0.00000000000E+00 -0.29258454838E+03  0.29258454838E+03  0.00000000000E+00 0.  1.
          6    1    1    2  501    0  0.17103883534E+03 -0.12912872255E+02  0.11108284593E+03  0.26774880789E+03  0.17300000000E+03 0.  1.
         -6    1    1    2    0  503 -0.17103883534E+03  0.12912872255E+02 -0.14499883546E+03  0.28350429935E+03  0.17300000000E+03 0.  1.
<mgrwt>
<rscale>  2 0.24361861E+03</rscale>
<asrwt>0</asrwt>
<pdfrwt beam="1">  1       21 0.39795163E-01 0.24361861E+03</pdfrwt>
<pdfrwt beam="2">  1       21 0.45013007E-01 0.24361861E+03</pdfrwt>
<totfact> 0.28078257E+04</totfact>
</mgrwt>
</event>
<event>
 4    1  0.4072310E+000  0.1748899E+03  0.7546771E-02  0.1172842E+00
         21   -1    0    0  503  502  0.00000000000E+00  0.00000000000E+00  0.11435353159E+04  0.11435353159E+04  0.00000000000E+00 0. -1.
         21   -1    0    0  501  503 -0.00000000000E+00 -0.00000000000E+00 -0.29124719178E+02  0.29124719178E+02  0.00000000000E+00 0. -1.
          6    1    1    2  501    0  0.18748827027E+02  0.17491278356E+02  0.38968569364E+03  0.42713159935E+03  0.17300000000E+03 0. -1.
         -6    1    1    2    0  502 -0.18748827027E+02 -0.17491278356E+02  0.72472490304E+03  0.74552843569E+03  0.17300000000E+03 0. -1.
<mgrwt>
<rscale>  2 0.17488986E+03</rscale>
<asrwt>0</asrwt>
<pdfrwt beam="1">  1       21 0.17592848E+00 0.17488986E+03</pdfrwt>
<pdfrwt beam="2">  1       21 0.44807269E-02 0.17488986E+03</pdfrwt>
<totfact> 0.63482159E+04</totfact>
</mgrwt>
</event>
<event>
 4    1  0.4072310E+000  0.1874384E+03  0.7546771E-02  0.1160792E+00
         21   -1    0    0  503  502  0.00000000000E+00  0.00000000000E+00  0.59989190027E+03  0.59989190027E+03  0.00000000000E+00 0.  1.
         21   -1    0    0  501  503 -0.00000000000E+00 -0.00000000000E+00 -0.65627832625E+02  0.65627832625E+02  0.00000000000E+00 0.  1.
          6    1    1    2  501    0  0.47541927344E+02 -0.54258039543E+02  0.15797525499E+03  0.24513129319E+03  0.17300000000E+03 0.  1.
         -6    1    1    2    0  502 -0.47541927344E+02  0.54258039543E+02  0.37628881265E+03  0.42038843971E+03  0.17300000000E+03 0.  1.
<mgrwt>
<rscale>  2 0.18743844E+03</rscale>
<asrwt>0</asrwt>
<pdfrwt beam="1">  1       21 0.92291058E-01 0.18743844E+03</pdfrwt>
<pdfrwt beam="2">  1       21 0.10096590E-01 0.18743844E+03</pdfrwt>
<totfact> 0.79242788E+04</totfact>
</mgrwt>
</event>
<event>
 4    1  0.4072310E+000  0.1738035E+03  0.7546771E-02  0.1173938E+00
         21   -1    0    0  503  502  0.00000000000E+00  0.00000000000E+00  0.18036296093E+03  0.18036296093E+03  0.00000000000E+00 0.  1.
         21   -1    0    0  501  503 -0.00000000000E+00 -0.00000000000E+00 -0.53675706731E+03  0.53675706731E+03  0.00000000000E+00 0.  1.
          6    1    1    2  501    0 -0.44134161130E+01 -0.16098689390E+02 -0.47560163064E+03  0.50636405590E+03  0.17300000000E+03 0.  1.
         -6    1    1    2    0  502  0.44134161130E+01  0.16098689390E+02  0.11920752425E+03  0.21075597235E+03  0.17300000000E+03 0.  1.
<mgrwt>
<rscale>  2 0.17380347E+03</rscale>
<asrwt>0</asrwt>
<pdfrwt beam="1">  1       21 0.27748148E-01 0.17380347E+03</pdfrwt>
<pdfrwt beam="2">  1       21 0.82578010E-01 0.17380347E+03</pdfrwt>
<totfact> 0.16063020E+04</totfact>
</mgrwt>
</event>
<event>
 4    1  0.4072310E+000  0.1845126E+03  0.7546771E-02  0.1163506E+00
         21   -1    0    0  503  502  0.00000000000E+00  0.00000000000E+00  0.33547052811E+02  0.33547052811E+02  0.00000000000E+00 0.  1.
         21   -1    0    0  501  503 -0.00000000000E+00 -0.00000000000E+00 -0.16472436765E+04  0.16472436765E+04  0.00000000000E+00 0.  1.
          6    1    1    2  501    0 -0.47170221399E+02  0.43483968494E+02 -0.13275655750E+04  0.13403265428E+04  0.17300000000E+03 0.  1.
         -6    1    1    2    0  502  0.47170221399E+02 -0.43483968494E+02 -0.28613104872E+03  0.34046418658E+03  0.17300000000E+03 0.  1.
<mgrwt>
<rscale>  2 0.18451256E+03</rscale>
<asrwt>0</asrwt>
<pdfrwt beam="1">  1       21 0.51610851E-02 0.18451256E+03</pdfrwt>
<pdfrwt beam="2">  1       21 0.25342210E+00 0.18451256E+03</pdfrwt>
<totfact> 0.16304466E+04</totfact>
</mgrwt>
</event>
<event>
 4    1  0.4072310E+000  0.1950603E+03  0.7546771E-02  0.1153975E+00
         21   -1    0    0  501  502  0.00000000000E+00  0.00000000000E+00  0.16208806869E+03  0.16208806869E+03  0.00000000000E+00 0. -1.
         21   -1    0    0  502  503 -0.00000000000E+00 -0.00000000000E+00 -0.23620435426E+03  0.23620435426E+03  0.00000000000E+00 0.  1.
          6    1    1    2  501    0 -0.11019492515E+02 -0.89432003322E+02 -0.21376610033E+02  0.19622811187E+03  0.17300000000E+03 0.  1.
         -6    1    1    2    0  503  0.11019492515E+02  0.89432003322E+02 -0.52739675538E+02  0.20206431107E+03  0.17300000000E+03 0.  1.
<mgrwt>
<rscale>  2 0.19506028E+03</rscale>
<asrwt>0</asrwt>
<pdfrwt beam="1">  1       21 0.24936626E-01 0.19506028E+03</pdfrwt>
<pdfrwt beam="2">  1       21 0.36339131E-01 0.19506028E+03</pdfrwt>
<totfact> 0.11105484E+05</totfact>
</mgrwt>
</event>
<event>
 4    1  0.4072310E+000  0.1916558E+03  0.7546771E-02  0.1156976E+00
         21   -1    0    0  503  502  0.00000000000E+00  0.00000000000E+00  0.74540133974E+02  0.74540133974E+02  0.00000000000E+00 0.  1.
         21   -1    0    0  501  503 -0.00000000000E+00 -0.00000000000E+00 -0.70769844058E+03  0.70769844058E+03  0.00000000000E+00 0.  1.
          6    1    1    2  501    0  0.75070930086E+02 -0.34165516562E+02 -0.53211594489E+03  0.56557873534E+03  0.17300000000E+03 0.  1.
         -6    1    1    2    0  502 -0.75070930086E+02  0.34165516562E+02 -0.10104236171E+03  0.21665983921E+03  0.17300000000E+03 0.  1.
<mgrwt>
<rscale>  2 0.19165575E+03</rscale>
<asrwt>0</asrwt>
<pdfrwt beam="1">  1       21 0.11467713E-01 0.19165575E+03</pdfrwt>
<pdfrwt beam="2">  1       21 0.10887668E+00 0.19165575E+03</pdfrwt>
<totfact> 0.42629091E+04</totfact>
</mgrwt>
</event>
<event>
 4    1  0.4072310E+000  0.1733970E+03  0.7546771E-02  0.1174351E+00
         21   -1    0    0  503  502  0.00000000000E+00  0.00000000000E+00  0.65683508152E+03  0.65683508152E+03  0.00000000000E+00 0.  1.
         21   -1    0    0  501  503 -0.00000000000E+00 -0.00000000000E+00 -0.57621920448E+02  0.57621920448E+02  0.00000000000E+00 0.  1.
          6    1    1    2  501    0 -0.92726413347E+01  0.71801858964E+01  0.13762805025E+03  0.22137754439E+03  0.17300000000E+03 0. -1.
         -6    1    1    2    0  502  0.92726413347E+01 -0.71801858964E+01  0.46158511083E+03  0.49307945758E+03  0.17300000000E+03 0. -1.
<mgrwt>
<rscale>  2 0.17339705E+03</rscale>
<asrwt>0</asrwt>
<pdfrwt beam="1">  1       21 0.10105155E+00 0.17339705E+03</pdfrwt>
<pdfrwt beam="2">  1       21 0.88649113E-02 0.17339705E+03</pdfrwt>
<totfact> 0.81014734E+04</totfact>
</mgrwt>
</event>
<event>
 4    1  0.4072310E+000  0.2118380E+03  0.7546771E-02  0.1140119E+00
         21   -1    0    0  503  502  0.00000000000E+00  0.00000000000E+00  0.50825177532E+02  0.50825177532E+02  0.00000000000E+00 0. -1.
         21   -1    0    0  501  503 -0.00000000000E+00 -0.00000000000E+00 -0.26762994610E+04  0.26762994610E+04  0.00000000000E+00 0. -1.
          6    1    1    2  501    0  0.67349755422E+02  0.10203104598E+03 -0.24289369092E+04  0.24381570566E+04  0.17300000000E+03 0. -1.
         -6    1    1    2    0  502 -0.67349755422E+02 -0.10203104598E+03 -0.19653737421E+03  0.28896758185E+03  0.17300000000E+03 0. -1.
<mgrwt>
<rscale>  2 0.21183797E+03</rscale>
<asrwt>0</asrwt>
<pdfrwt beam="1">  1       21 0.78192537E-02 0.21183797E+03</pdfrwt>
<pdfrwt beam="2">  1       21 0.41173861E+00 0.21183797E+03</pdfrwt>
<totfact> 0.89239450E+02</totfact>
</mgrwt>
</event>
<event>
 4    1  0.4072310E+000  0.2015732E+03  0.7546771E-02  0.1148418E+00
         21   -1    0    0  503  502  0.00000000000E+00  0.00000000000E+00  0.57605966509E+02  0.57605966509E+02  0.00000000000E+00 0. -1.
         21   -1    0    0  501  503 -0.00000000000E+00 -0.00000000000E+00 -0.70741002927E+03  0.70741002927E+03  0.00000000000E+00 0. -1.
          6    1    1    2  501    0  0.33007961843E+02 -0.98047151243E+02 -0.30420847920E+03  0.36493090884E+03  0.17300000000E+03 0. -1.
         -6    1    1    2    0  502 -0.33007961843E+02  0.98047151243E+02 -0.34559558356E+03  0.40008508694E+03  0.17300000000E+03 0. -1.
<mgrwt>
<rscale>  2 0.20157324E+03</rscale>
<asrwt>0</asrwt>
<pdfrwt beam="1">  1       21 0.88624570E-02 0.20157324E+03</pdfrwt>
<pdfrwt beam="2">  1       21 0.10883230E+00 0.20157324E+03</pdfrwt>
<totfact> 0.66964401E+04</totfact>
</mgrwt>
</event>
<event>
 4    1  0.4072310E+000  0.1864678E+03  0.7546771E-02  0.1161686E+00
         21   -1    0    0  501  502  0.00000000000E+00  0.00000000000E+00  0.15016461495E+03  0.15016461495E+03  0.00000000000E+00 0.  1.
         21   -1    0    0  502  503 -0.00000000000E+00 -0.00000000000E+00 -0.36305476913E+03  0.36305476913E+03  0.00000000000E+00 0.  1.
          6    1    1    2  501    0  0.26973490299E+02 -0.64137887223E+02  0.47995672115E+02  0.19254563692E+03  0.17300000000E+03 0.  1.
         -6    1    1    2    0  503 -0.26973490299E+02  0.64137887223E+02 -0.26088582629E+03  0.32067374716E+03  0.17300000000E+03 0.  1.
<mgrwt>
<rscale>  2 0.18646779E+03</rscale>
<asrwt>0</asrwt>
<pdfrwt beam="1">  1       21 0.23102248E-01 0.18646779E+03</pdfrwt>
<pdfrwt beam="2">  1       21 0.55854580E-01 0.18646779E+03</pdfrwt>
<totfact> 0.53285643E+04</totfact>
</mgrwt>
</event>
<event>
 4    1  0.4072310E+000  0.2619956E+03  0.7546771E-02  0.1105950E+00
         21   -1    0    0  501  502  0.00000000000E+00  0.00000000000E+00  0.38849401725E+03  0.38849401725E+03  0.00000000000E+00 0. -1.
         21   -1    0    0  502  503 -0.00000000000E+00 -0.00000000000E+00 -0.22523076556E+03  0.22523076556E+03  0.00000000000E+00 0.  1.
          6    1    1    2  501    0  0.18188495943E+03  0.75037004509E+02  0.22409338037E+03  0.34476011028E+03  0.17300000000E+03 0. -1.
         -6    1    1    2    0  503 -0.18188495943E+03 -0.75037004509E+02 -0.60830128683E+02  0.26896467253E+03  0.17300000000E+03 0.  1.
<mgrwt>
<rscale>  2 0.26199559E+03</rscale>
<asrwt>0</asrwt>
<pdfrwt beam="1">  1       21 0.59768310E-01 0.26199559E+03</pdfrwt>
<pdfrwt beam="2">  1       21 0.34650887E-01 0.26199559E+03</pdfrwt>
<totfact> 0.20215483E+04</totfact>
</mgrwt>
</event>
<event>
 4    1  0.4072310E+000  0.1889207E+03  0.7546771E-02  0.1159438E+00
         21   -1    0    0  503  502  0.00000000000E+00  0.00000000000E+00  0.20966478788E+04  0.20966478788E+04  0.00000000000E+00 0.  1.
         21   -1    0    0  501  503 -0.00000000000E+00 -0.00000000000E+00 -0.18290824691E+02  0.18290824691E+02  0.00000000000E+00 0.  1.
          6    1    1    2  501    0  0.66326676470E+02  0.36916244988E+02  0.76076068692E+03  0.78386724636E+03  0.17300000000E+03 0.  1.
         -6    1    1    2    0  502 -0.66326676470E+02 -0.36916244988E+02  0.13175963672E+04  0.13310714571E+04  0.17300000000E+03 0.  1.
<mgrwt>
<rscale>  2 0.18892072E+03</rscale>
<asrwt>0</asrwt>
<pdfrwt beam="1">  1       21 0.32256102E+00 0.18892072E+03</pdfrwt>
<pdfrwt beam="2">  1       21 0.28139747E-02 0.18892072E+03</pdfrwt>
<totfact> 0.17862397E+04</totfact>
</mgrwt>
</event>
<event>
 4    1  0.4072310E+000  0.3089495E+03  0.7546771E-02  0.1080850E+00
         21   -1    0    0  501  502  0.00000000000E+00  0.00000000000E+00  0.49360999159E+03  0.49360999159E+03  0.00000000000E+00 0.  1.
         21   -1    0    0  502  503 -0.00000000000E+00 -0.00000000000E+00 -0.23160360556E+03  0.23160360556E+03  0.00000000000E+00 0. -1.
          6    1    1    2  501    0 -0.23366718328E+03 -0.10450102420E+03  0.27832963663E+03  0.41583314349E+03  0.17300000000E+03 0.  1.
         -6    1    1    2    0  503  0.23366718328E+03  0.10450102420E+03 -0.16323250600E+02  0.30938045367E+03  0.17300000000E+03 0. -1.
<mgrwt>
<rscale>  2 0.30894954E+03</rscale>
<asrwt>0</asrwt>
<pdfrwt beam="1">  1       21 0.75939998E-01 0.30894954E+03</pdfrwt>
<pdfrwt beam="2">  1       21 0.35631324E-01 0.30894954E+03</pdfrwt>
<totfact> 0.11020321E+04</totfact>
</mgrwt>
</event>
<event>
 4    1  0.4072310E+000  0.1849327E+03  0.7546771E-02  0.1163113E+00
         21   -1    0    0  501  502  0.00000000000E+00  0.00000000000E+00  0.13722959509E+04  0.13722959509E+04  0.00000000000E+00 0. -1.
         21   -1    0    0  502  503 -0.00000000000E+00 -0.00000000000E+00 -0.47998016930E+02  0.47998016930E+02  0.00000000000E+00 0. -1.
          6    1    1    2  501    0 -0.43181187724E+02  0.49056160526E+02  0.11545496593E+04  0.11692668805E+04  0.17300000000E+03 0. -1.
         -6    1    1    2    0  503  0.43181187724E+02 -0.49056160526E+02  0.16974827467E+03  0.25102708740E+03  0.17300000000E+03 0. -1.
<mgrwt>
<rscale>  2 0.18493275E+03</rscale>
<asrwt>0</asrwt>
<pdfrwt beam="1">  1       21 0.21112242E+00 0.18493275E+03</pdfrwt>
<pdfrwt beam="2">  1       21 0.73843113E-02 0.18493275E+03</pdfrwt>
<totfact> 0.15845934E+04</totfact>
</mgrwt>
</event>
<event>
 4    1  0.4072310E+000  0.2060439E+03  0.7546771E-02  0.1144738E+00
         21   -1    0    0  503  502  0.00000000000E+00  0.00000000000E+00  0.51032549495E+03  0.51032549495E+03  0.00000000000E+00 0.  1.
         21   -1    0    0  501  503 -0.00000000000E+00 -0.00000000000E+00 -0.18217375679E+03  0.18217375679E+03  0.00000000000E+00 0.  1.
          6    1    1    2  501    0 -0.38061636520E+02  0.10524452031E+03 -0.91151861672E+02  0.22530592339E+03  0.17300000000E+03 0.  1.
         -6    1    1    2    0  502  0.38061636520E+02 -0.10524452031E+03  0.41930359983E+03  0.46719332835E+03  0.17300000000E+03 0.  1.
<mgrwt>
<rscale>  2 0.20604392E+03</rscale>
<asrwt>0</asrwt>
<pdfrwt beam="1">  1       21 0.78511614E-01 0.20604392E+03</pdfrwt>
<pdfrwt beam="2">  1       21 0.28026732E-01 0.20604392E+03</pdfrwt>
<totfact> 0.17304571E+04</totfact>
</mgrwt>
</event>
<event>
 4    1  0.4072310E+000  0.1761871E+03  0.7546771E-02  0.1171545E+00
         21   -1    0    0  501  502  0.00000000000E+00  0.00000000000E+00  0.48962184755E+03  0.48962184755E+03  0.00000000000E+00 0. -1.
         21   -1    0    0  502  503 -0.00000000000E+00 -0.00000000000E+00 -0.14154261256E+03  0.14154261256E+03  0.00000000000E+00 0. -1.
          6    1    1    2  501    0 -0.10581050355E+02  0.31637424063E+02  0.40852387697E+03  0.44489734017E+03  0.17300000000E+03 0. -1.
         -6    1    1    2    0  503  0.10581050355E+02 -0.31637424063E+02 -0.60444641988E+02  0.18626711995E+03  0.17300000000E+03 0. -1.
<mgrwt>
<rscale>  2 0.17618707E+03</rscale>
<asrwt>0</asrwt>
<pdfrwt beam="1">  1       21 0.75326437E-01 0.17618707E+03</pdfrwt>
<pdfrwt beam="2">  1       21 0.21775787E-01 0.17618707E+03</pdfrwt>
<totfact> 0.31267286E+04</totfact>
</mgrwt>
</event>
<event>
 4    1  0.4072310E+000  0.1855951E+03  0.7546771E-02  0.1162495E+00
         21   -1    0    0  503  502  0.00000000000E+00  0.00000000000E+00  0.21559388331E+03  0.21559388331E+03  0.00000000000E+00 0. -1.
         21   -1    0    0  501  503 -0.00000000000E+00 -0.00000000000E+00 -0.17170727588E+03  0.17170727588E+03  0.00000000000E+00 0. -1.
          6    1    1    2  501    0 -0.22747446533E+02  0.63238528324E+02 -0.29115035561E+02  0.18786495970E+03  0.17300000000E+03 0. -1.
         -6    1    1    2    0  502  0.22747446533E+02 -0.63238528324E+02  0.73001642986E+02  0.19943619949E+03  0.17300000000E+03 0. -1.
<mgrwt>
<rscale>  2 0.18559514E+03</rscale>
<asrwt>0</asrwt>
<pdfrwt beam="1">  1       21 0.33168290E-01 0.18559514E+03</pdfrwt>
<pdfrwt beam="2">  1       21 0.26416504E-01 0.18559514E+03</pdfrwt>
<totfact> 0.11958908E+05</totfact>
</mgrwt>
</event>
<event>
 4    1  0.4072310E+000  0.2053465E+03  0.7546771E-02  0.1145305E+00
         21   -1    0    0  503  502  0.00000000000E+00  0.00000000000E+00  0.10094984338E+03  0.10094984338E+03  0.00000000000E+00 0.  1.
         21   -1    0    0  501  503 -0.00000000000E+00 -0.00000000000E+00 -0.42321555400E+03  0.42321555400E+03  0.00000000000E+00 0. -1.
          6    1    1    2  501    0 -0.32808247251E+01 -0.11057767369E+03 -0.19104048183E+03  0.28047041097E+03  0.17300000000E+03 0.  1.
         -6    1    1    2    0  502  0.32808247251E+01  0.11057767369E+03 -0.13122522880E+03  0.24369498641E+03  0.17300000000E+03 0. -1.
<mgrwt>
<rscale>  2 0.20534650E+03</rscale>
<asrwt>0</asrwt>
<pdfrwt beam="1">  1       21 0.15530745E-01 0.20534650E+03</pdfrwt>
<pdfrwt beam="2">  1       21 0.65110085E-01 0.20534650E+03</pdfrwt>
<totfact> 0.79507859E+04</totfact>
</mgrwt>
</event>
<event>
 4    1  0.4072310E+000  0.1949414E+03  0.7546771E-02  0.1154078E+00
         21   -1    0    0  501  502  0.00000000000E+00  0.00000000000E+00  0.36379169482E+03  0.36379169482E+03  0.00000000000E+00 0.  1.
         21   -1    0    0  502  503 -0.00000000000E+00 -0.00000000000E+00 -0.12886138024E+03  0.12886138024E+03  0.00000000000E+00 0.  1.
          6    1    1    2  501    0  0.11483358435E+02 -0.89113964574E+02  0.22465290027E+03  0.29744090472E+03  0.17300000000E+03 0.  1.
         -6    1    1    2    0  503 -0.11483358435E+02  0.89113964574E+02  0.10277414320E+02  0.19521217034E+03  0.17300000000E+03 0.  1.
<mgrwt>
<rscale>  2 0.19494144E+03</rscale>
<asrwt>0</asrwt>
<pdfrwt beam="1">  1       21 0.55967953E-01 0.19494144E+03</pdfrwt>
<pdfrwt beam="2">  1       21 0.19824828E-01 0.19494144E+03</pdfrwt>
<totfact> 0.70467821E+04</totfact>
</mgrwt>
</event>
<event>
 4    1  0.4072310E+000  0.2552831E+03  0.7546771E-02  0.1110011E+00
         21   -1    0    0  501  502  0.00000000000E+00  0.00000000000E+00  0.25325257350E+03  0.25325257350E+03  0.00000000000E+00 0.  1.
         21   -1    0    0  502  503 -0.00000000000E+00 -0.00000000000E+00 -0.26773284484E+03  0.26773284484E+03  0.00000000000E+00 0. -1.
          6    1    1    2  501    0  0.17206643471E+03 -0.75057256705E+02  0.44107883134E+02  0.25906554208E+03  0.17300000000E+03 0.  1.
         -6    1    1    2    0  503 -0.17206643471E+03  0.75057256705E+02 -0.58588154473E+02  0.26191987626E+03  0.17300000000E+03 0. -1.
<mgrwt>
<rscale>  2 0.25528308E+03</rscale>
<asrwt>0</asrwt>
<pdfrwt beam="1">  1       21 0.38961935E-01 0.25528308E+03</pdfrwt>
<pdfrwt beam="2">  1       21 0.41189668E-01 0.25528308E+03</pdfrwt>
<totfact> 0.34992443E+04</totfact>
</mgrwt>
</event>
<event>
 4    1  0.4072310E+000  0.2896697E+03  0.7546771E-02  0.1090522E+00
         21   -1    0    0  501  502  0.00000000000E+00  0.00000000000E+00  0.24778547375E+03  0.24778547375E+03  0.00000000000E+00 0.  1.
         21   -1    0    0  502  503 -0.00000000000E+00 -0.00000000000E+00 -0.90192535342E+03  0.90192535342E+03  0.00000000000E+00 0. -1.
          6    1    1    2  501    0  0.23143602063E+03  0.20417785011E+02  0.12722717322E+03  0.31637836714E+03  0.17300000000E+03 0.  1.
         -6    1    1    2    0  503 -0.23143602063E+03 -0.20417785011E+02 -0.78136705289E+03  0.83333246002E+03  0.17300000000E+03 0. -1.
<mgrwt>
<rscale>  2 0.28966967E+03</rscale>
<asrwt>0</asrwt>
<pdfrwt beam="1">  1       21 0.38120841E-01 0.28966967E+03</pdfrwt>
<pdfrwt beam="2">  1       21 0.13875775E+00 0.28966967E+03</pdfrwt>
<totfact> 0.22562418E+03</totfact>
</mgrwt>
</event>
<event>
 4    1  0.4072310E+000  0.1847828E+03  0.7546771E-02  0.1163253E+00
         21   -1    0    0  501  502  0.00000000000E+00  0.00000000000E+00  0.53541876308E+03  0.53541876308E+03  0.00000000000E+00 0.  1.
         21   -1    0    0  502  503 -0.00000000000E+00 -0.00000000000E+00 -0.72831419653E+02  0.72831419653E+02  0.00000000000E+00 0. -1.
          6    1    1    2  501    0 -0.16954406395E+02 -0.62675546090E+02  0.33855551706E+03  0.38570003125E+03  0.17300000000E+03 0.  1.
         -6    1    1    2    0  503  0.16954406395E+02  0.62675546090E+02  0.12403182637E+03  0.22255015148E+03  0.17300000000E+03 0.  1.
<mgrwt>
<rscale>  2 0.18478278E+03</rscale>
<asrwt>0</asrwt>
<pdfrwt beam="1">  1       21 0.82372115E-01 0.18478278E+03</pdfrwt>
<pdfrwt beam="2">  1       21 0.11204834E-01 0.18478278E+03</pdfrwt>
<totfact> 0.85646531E+04</totfact>
</mgrwt>
</event>
<event>
 4    1  0.4072310E+000  0.2270164E+03  0.7546771E-02  0.1128758E+00
         21   -1    0    0  501  502  0.00000000000E+00  0.00000000000E+00  0.25293628950E+03  0.25293628950E+03  0.00000000000E+00 0.  1.
         21   -1    0    0  502  503 -0.00000000000E+00 -0.00000000000E+00 -0.24294300438E+03  0.24294300438E+03  0.00000000000E+00 0.  1.
          6    1    1    2  501    0 -0.61968633955E+01  0.14686410914E+03  0.10457908011E+03  0.24994649760E+03  0.17300000000E+03 0.  1.
         -6    1    1    2    0  503  0.61968633955E+01 -0.14686410914E+03 -0.94585794985E+02  0.24593279627E+03  0.17300000000E+03 0.  1.
<mgrwt>
<rscale>  2 0.22701645E+03</rscale>
<asrwt>0</asrwt>
<pdfrwt beam="1">  1       21 0.38913275E-01 0.22701645E+03</pdfrwt>
<pdfrwt beam="2">  1       21 0.37375847E-01 0.22701645E+03</pdfrwt>
<totfact> 0.43237062E+04</totfact>
</mgrwt>
</event>
<event>
 4    1  0.4072310E+000  0.2676350E+03  0.7546771E-02  0.1102641E+00
         21   -1    0    0  503  502  0.00000000000E+00  0.00000000000E+00  0.76978517823E+03  0.76978517823E+03  0.00000000000E+00 0. -1.
         21   -1    0    0  501  503 -0.00000000000E+00 -0.00000000000E+00 -0.93367784606E+02  0.93367784606E+02  0.00000000000E+00 0.  1.
          6    1    1    2  501    0 -0.93260391611E+02  0.18166447665E+03  0.36338840119E+03  0.45130877771E+03  0.17300000000E+03 0.  1.
         -6    1    1    2    0  502  0.93260391611E+02 -0.18166447665E+03  0.31302899243E+03  0.41184418512E+03  0.17300000000E+03 0. -1.
<mgrwt>
<rscale>  2 0.26763498E+03</rscale>
<asrwt>0</asrwt>
<pdfrwt beam="1">  1       21 0.11842848E+00 0.26763498E+03</pdfrwt>
<pdfrwt beam="2">  1       21 0.14364275E-01 0.26763498E+03</pdfrwt>
<totfact> 0.22227641E+04</totfact>
</mgrwt>
</event>
<event>
 4    1  0.4072310E+000  0.1752433E+03  0.7546771E-02  0.1172488E+00
         21   -1    0    0  501  502  0.00000000000E+00  0.00000000000E+00  0.10584254358E+02  0.10584254358E+02  0.00000000000E+00 0.  1.
         21   -1    0    0  502  503 -0.00000000000E+00 -0.00000000000E+00 -0.30511570405E+04  0.30511570405E+04  0.00000000000E+00 0.  1.
          6    1    1    2  501    0  0.26473364483E+02  0.89643455222E+01 -0.11812417265E+04  0.11941700946E+04  0.17300000000E+03 0.  1.
         -6    1    1    2    0  503 -0.26473364483E+02 -0.89643455222E+01 -0.18593310597E+04  0.18675712003E+04  0.17300000000E+03 0.  1.
<mgrwt>
<rscale>  2 0.17524326E+03</rscale>
<asrwt>0</asrwt>
<pdfrwt beam="1">  1       21 0.16283461E-02 0.17524326E+03</pdfrwt>
<pdfrwt beam="2">  1       21 0.46940899E+00 0.17524326E+03</pdfrwt>
<totfact> 0.54361307E+03</totfact>
</mgrwt>
</event>
<event>
 4    1  0.4072310E+000  0.1749274E+03  0.7546771E-02  0.1172805E+00
         21   -1    0    0  501  502  0.00000000000E+00  0.00000000000E+00  0.38676261878E+03  0.38676261878E+03  0.00000000000E+00 0. -1.
         21   -1    0    0  502  503 -0.00000000000E+00 -0.00000000000E+00 -0.79118410665E+02  0.79118410665E+02  0.00000000000E+00 0. -1.
          6    1    1    2  501    0  0.17084053984E+02 -0.19460744010E+02  0.15472353537E+03  0.23353577425E+03  0.17300000000E+03 0. -1.
         -6    1    1    2    0  503 -0.17084053984E+02  0.19460744010E+02  0.15292067274E+03  0.23234525519E+03  0.17300000000E+03 0. -1.
<mgrwt>
<rscale>  2 0.17492737E+03</rscale>
<asrwt>0</asrwt>
<pdfrwt beam="1">  1       21 0.59501940E-01 0.17492737E+03</pdfrwt>
<pdfrwt beam="2">  1       21 0.12172063E-01 0.17492737E+03</pdfrwt>
<totfact> 0.15179502E+05</totfact>
</mgrwt>
</event>
<event>
 4    1  0.4072310E+000  0.2185434E+03  0.7546771E-02  0.1134974E+00
         21   -1    0    0  503  502  0.00000000000E+00  0.00000000000E+00  0.41386514399E+03  0.41386514399E+03  0.00000000000E+00 0.  1.
         21   -1    0    0  501  503 -0.00000000000E+00 -0.00000000000E+00 -0.11562642901E+03  0.11562642901E+03  0.00000000000E+00 0. -1.
          6    1    1    2  501    0  0.12655267101E+03  0.42622270471E+02  0.16075982981E+03  0.27130233939E+03  0.17300000000E+03 0.  1.
         -6    1    1    2    0  502 -0.12655267101E+03 -0.42622270471E+02  0.13747888518E+03  0.25818923361E+03  0.17300000000E+03 0. -1.
<mgrwt>
<rscale>  2 0.21854344E+03</rscale>
<asrwt>0</asrwt>
<pdfrwt beam="1">  1       21 0.63671560E-01 0.21854344E+03</pdfrwt>
<pdfrwt beam="2">  1       21 0.17788682E-01 0.21854344E+03</pdfrwt>
<totfact> 0.64652640E+04</totfact>
</mgrwt>
</event>
<event>
 4    1  0.4072310E+000  0.1751171E+03  0.7546771E-02  0.1172614E+00
         21   -1    0    0  503  502  0.00000000000E+00  0.00000000000E+00  0.17373784573E+03  0.17373784573E+03  0.00000000000E+00 0.  1.
         21   -1    0    0  501  503 -0.00000000000E+00 -0.00000000000E+00 -0.23705369829E+03  0.23705369829E+03  0.00000000000E+00 0.  1.
          6    1    1    2  501    0  0.19756413536E+02  0.18619620289E+02 -0.13546145612E+03  0.22139514952E+03  0.17300000000E+03 0.  1.
         -6    1    1    2    0  502 -0.19756413536E+02 -0.18619620289E+02  0.72145603568E+02  0.18939639450E+03  0.17300000000E+03 0.  1.
<mgrwt>
<rscale>  2 0.17511712E+03</rscale>
<asrwt>0</asrwt>
<pdfrwt beam="1">  1       21 0.26728899E-01 0.17511712E+03</pdfrwt>
<pdfrwt beam="2">  1       21 0.36469800E-01 0.17511712E+03</pdfrwt>
<totfact> 0.97272334E+04</totfact>
</mgrwt>
</event>
<event>
 4    1  0.4072310E+000  0.2527357E+03  0.7546771E-02  0.1111588E+00
         21   -1    0    0  503  502  0.00000000000E+00  0.00000000000E+00  0.22990788809E+03  0.22990788809E+03  0.00000000000E+00 0.  1.
         21   -1    0    0  501  503 -0.00000000000E+00 -0.00000000000E+00 -0.33477271987E+03  0.33477271987E+03  0.00000000000E+00 0. -1.
          6    1    1    2  501    0  0.16410534982E+03  0.83760262346E+02 -0.16887619911E+03  0.30396466573E+03  0.17300000000E+03 0. -1.
         -6    1    1    2    0  502 -0.16410534982E+03 -0.83760262346E+02  0.64011367323E+02  0.26071594223E+03  0.17300000000E+03 0.  1.
<mgrwt>
<rscale>  2 0.25273573E+03</rscale>
<asrwt>0</asrwt>
<pdfrwt beam="1">  1       21 0.35370444E-01 0.25273573E+03</pdfrwt>
<pdfrwt beam="2">  1       21 0.51503495E-01 0.25273573E+03</pdfrwt>
<totfact> 0.26769292E+04</totfact>
</mgrwt>
</event>
<event>
 4    1  0.4072310E+000  0.1819723E+03  0.7546771E-02  0.1165908E+00
         21   -1    0    0  503  502  0.00000000000E+00  0.00000000000E+00  0.11431141992E+03  0.11431141992E+03  0.00000000000E+00 0.  1.
         21   -1    0    0  501  503 -0.00000000000E+00 -0.00000000000E+00 -0.45090148269E+03  0.45090148269E+03  0.00000000000E+00 0.  1.
          6    1    1    2  501    0 -0.48096488681E+02 -0.29523493871E+02 -0.33728098713E+03  0.38323931582E+03  0.17300000000E+03 0.  1.
         -6    1    1    2    0  502  0.48096488681E+02  0.29523493871E+02  0.69092435965E+00  0.18197358679E+03  0.17300000000E+03 0.  1.
<mgrwt>
<rscale>  2 0.18197228E+03</rscale>
<asrwt>0</asrwt>
<pdfrwt beam="1">  1       21 0.17586373E-01 0.18197228E+03</pdfrwt>
<pdfrwt beam="2">  1       21 0.69369457E-01 0.18197228E+03</pdfrwt>
<totfact> 0.55671902E+04</totfact>
</mgrwt>
</event>
<event>
 4    1  0.4072310E+000  0.1789016E+03  0.7546771E-02  0.1168870E+00
         21   -1    0    0  501  502  0.00000000000E+00  0.00000000000E+00  0.67479731902E+03  0.67479731902E+03  0.00000000000E+00 0.  1.
         21   -1    0    0  502  503 -0.00000000000E+00 -0.00000000000E+00 -0.13357193438E+03  0.13357193438E+03  0.00000000000E+00 0.  1.
          6    1    1    2  501    0 -0.35030704802E+02 -0.29148146034E+02  0.59519811804E+03  0.62150347096E+03  0.17300000000E+03 0.  1.
         -6    1    1    2    0  503  0.35030704802E+02  0.29148146034E+02 -0.53972733402E+02  0.18686578244E+03  0.17300000000E+03 0.  1.
<mgrwt>
<rscale>  2 0.17890155E+03</rscale>
<asrwt>0</asrwt>
<pdfrwt beam="1">  1       21 0.10381497E+00 0.17890155E+03</pdfrwt>
<pdfrwt beam="2">  1       21 0.20549529E-01 0.17890155E+03</pdfrwt>
<totfact> 0.16621144E+04</totfact>
</mgrwt>
</event>
<event>
 4    1  0.4072310E+000  0.2975323E+03  0.7546771E-02  0.1086481E+00
         21   -1    0    0  503  502  0.00000000000E+00  0.00000000000E+00  0.14845191727E+04  0.14845191727E+04  0.00000000000E+00 0.  1.
         21   -1    0    0  501  503 -0.00000000000E+00 -0.00000000000E+00 -0.10551255683E+03  0.10551255683E+03  0.00000000000E+00 0. -1.
          6    1    1    2  501    0 -0.11214190990E+03 -0.21452423398E+03  0.16525610203E+03  0.34034546299E+03  0.17300000000E+03 0. -1.
         -6    1    1    2    0  502  0.11214190990E+03  0.21452423398E+03  0.12137505139E+04  0.12496862666E+04  0.17300000000E+03 0. -1.
<mgrwt>
<rscale>  2 0.29753228E+03</rscale>
<asrwt>0</asrwt>
<pdfrwt beam="1">  1       21 0.22838755E+00 0.29753228E+03</pdfrwt>
<pdfrwt beam="2">  1       21 0.16232702E-01 0.29753228E+03</pdfrwt>
<totfact> 0.27777325E+03</totfact>
</mgrwt>
</event>
<event>
 4    1  0.4072310E+000  0.2371232E+03  0.7546771E-02  0.1121724E+00
         21   -1    0    0  503  502  0.00000000000E+00  0.00000000000E+00  0.30282823840E+03  0.30282823840E+03  0.00000000000E+00 0.  1.
         21   -1    0    0  501  503 -0.00000000000E+00 -0.00000000000E+00 -0.18671322899E+03  0.18671322899E+03  0.00000000000E+00 0. -1.
          6    1    1    2  501    0 -0.11049996261E+03  0.11869362620E+03  0.76316069374E+02  0.24910150759E+03  0.17300000000E+03 0.  1.
         -6    1    1    2    0  502  0.11049996261E+03 -0.11869362620E+03  0.39798940036E+02  0.24043995979E+03  0.17300000000E+03 0. -1.
<mgrwt>
<rscale>  2 0.23712321E+03</rscale>
<asrwt>0</asrwt>
<pdfrwt beam="1">  1       21 0.46588960E-01 0.23712321E+03</pdfrwt>
<pdfrwt beam="2">  1       21 0.28725112E-01 0.23712321E+03</pdfrwt>
<totfact> 0.50127941E+04</totfact>
</mgrwt>
</event>
<event>
 4    1  0.4072310E+000  0.2344538E+03  0.7546771E-02  0.1123544E+00
         21   -1    0    0  503  502  0.00000000000E+00  0.00000000000E+00  0.18562394887E+04  0.18562394887E+04  0.00000000000E+00 0. -1.
         21   -1    0    0  501  503 -0.00000000000E+00 -0.00000000000E+00 -0.29709371714E+02  0.29709371714E+02  0.00000000000E+00 0. -1.
          6    1    1    2  501    0 -0.90538929561E+02  0.12977791577E+03  0.85952618659E+03  0.89092865630E+03  0.17300000000E+03 0. -1.
         -6    1    1    2    0  502  0.90538929561E+02 -0.12977791577E+03  0.96700393039E+03  0.99502020410E+03  0.17300000000E+03 0. -1.
<mgrwt>
<rscale>  2 0.23445384E+03</rscale>
<asrwt>0</asrwt>
<pdfrwt beam="1">  1       21 0.28557522E+00 0.23445384E+03</pdfrwt>
<pdfrwt beam="2">  1       21 0.45706740E-02 0.23445384E+03</pdfrwt>
<totfact> 0.12441303E+04</totfact>
</mgrwt>
</event>
<event>
 4    1  0.4072310E+000  0.2105699E+03  0.7546771E-02  0.1141116E+00
         21   -1    0    0  501  502  0.00000000000E+00  0.00000000000E+00  0.23456740098E+03  0.23456740098E+03  0.00000000000E+00 0. -1.
         21   -1    0    0  502  503 -0.00000000000E+00 -0.00000000000E+00 -0.22692344682E+03  0.22692344682E+03  0.00000000000E+00 0. -1.
          6    1    1    2  501    0  0.11905105785E+03 -0.15411615887E+02  0.98117312600E+02  0.23230729500E+03  0.17300000000E+03 0.  1.
         -6    1    1    2    0  503 -0.11905105785E+03  0.15411615887E+02 -0.90473358440E+02  0.22918355279E+03  0.17300000000E+03 0.  1.
<mgrwt>
<rscale>  2 0.21056988E+03</rscale>
<asrwt>0</asrwt>
<pdfrwt beam="1">  1       21 0.36087293E-01 0.21056988E+03</pdfrwt>
<pdfrwt beam="2">  1       21 0.34911299E-01 0.21056988E+03</pdfrwt>
<totfact> 0.58081497E+04</totfact>
</mgrwt>
</event>
<event>
 4    1  0.4072310E+000  0.1995962E+03  0.7546771E-02  0.1150080E+00
         21   -1    0    0  503  502  0.00000000000E+00  0.00000000000E+00  0.43213860802E+03  0.43213860802E+03  0.00000000000E+00 0.  1.
         21   -1    0    0  501  503 -0.00000000000E+00 -0.00000000000E+00 -0.10313259472E+03  0.10313259472E+03  0.00000000000E+00 0. -1.
          6    1    1    2  501    0  0.68653471324E+02 -0.72085559824E+02  0.77323042509E+02  0.21405018095E+03  0.17300000000E+03 0. -1.
         -6    1    1    2    0  502 -0.68653471324E+02  0.72085559824E+02  0.25168297079E+03  0.32122102180E+03  0.17300000000E+03 0.  1.
<mgrwt>
<rscale>  2 0.19959616E+03</rscale>
<asrwt>0</asrwt>
<pdfrwt beam="1">  1       21 0.66482862E-01 0.19959616E+03</pdfrwt>
<pdfrwt beam="2">  1       21 0.15866553E-01 0.19959616E+03</pdfrwt>
<totfact> 0.73236359E+04</totfact>
</mgrwt>
</event>
<event>
 4    1  0.4072310E+000  0.2383701E+03  0.7546771E-02  0.1120883E+00
         21   -1    0    0  501  502  0.00000000000E+00  0.00000000000E+00  0.28935315169E+03  0.28935315169E+03  0.00000000000E+00 0. -1.
         21   -1    0    0  502  503 -0.00000000000E+00 -0.00000000000E+00 -0.20448232812E+03  0.20448232812E+03  0.00000000000E+00 0.  1.
          6    1    1    2  501    0 -0.14907726322E+03  0.68317445952E+02  0.91616122901E+02  0.25536996261E+03  0.17300000000E+03 0. -1.
         -6    1    1    2    0  503  0.14907726322E+03 -0.68317445952E+02 -0.67452993328E+01  0.23846551720E+03  0.17300000000E+03 0.  1.
<mgrwt>
<rscale>  2 0.23837010E+03</rscale>
<asrwt>0</asrwt>
<pdfrwt beam="1">  1       21 0.44515869E-01 0.23837010E+03</pdfrwt>
<pdfrwt beam="2">  1       21 0.31458820E-01 0.23837010E+03</pdfrwt>
<totfact> 0.46065282E+04</totfact>
</mgrwt>
</event>
<event>
 4    1  0.4072310E+000  0.2370917E+03  0.7546771E-02  0.1121746E+00
         21   -1    0    0  503  502  0.00000000000E+00  0.00000000000E+00  0.21790786634E+04  0.21790786634E+04  0.00000000000E+00 0. -1.
         21   -1    0    0  501  503 -0.00000000000E+00 -0.00000000000E+00 -0.26506685142E+02  0.26506685142E+02  0.00000000000E+00 0. -1.
          6    1    1    2  501    0  0.82009028836E+02  0.13984989562E+03  0.89576820180E+03  0.92661380600E+03  0.17300000000E+03 0. -1.
         -6    1    1    2    0  502 -0.82009028836E+02 -0.13984989562E+03  0.12568037765E+04  0.12789715425E+04  0.17300000000E+03 0. -1.
<mgrwt>
<rscale>  2 0.23709170E+03</rscale>
<asrwt>0</asrwt>
<pdfrwt beam="1">  1       21 0.33524273E+00 0.23709170E+03</pdfrwt>
<pdfrwt beam="2">  1       21 0.40779533E-02 0.23709170E+03</pdfrwt>
<totfact> 0.77166290E+03</totfact>
</mgrwt>
</event>
<event>
 4    1  0.4072310E+000  0.2005230E+03  0.7546771E-02  0.1149298E+00
         21   -1    0    0  501  502  0.00000000000E+00  0.00000000000E+00  0.11253395634E+03  0.11253395634E+03  0.00000000000E+00 0. -1.
         21   -1    0    0  502  503 -0.00000000000E+00 -0.00000000000E+00 -0.35748444683E+03  0.35748444683E+03  0.00000000000E+00 0. -1.
          6    1    1    2  501    0  0.78478077768E+02  0.64200241520E+02 -0.12767041766E+03  0.23771667011E+03  0.17300000000E+03 0. -1.
         -6    1    1    2    0  503 -0.78478077768E+02 -0.64200241520E+02 -0.11728007283E+03  0.23230173306E+03  0.17300000000E+03 0. -1.
<mgrwt>
<rscale>  2 0.20052302E+03</rscale>
<asrwt>0</asrwt>
<pdfrwt beam="1">  1       21 0.17312917E-01 0.20052302E+03</pdfrwt>
<pdfrwt beam="2">  1       21 0.54997606E-01 0.20052302E+03</pdfrwt>
<totfact> 0.93797562E+04</totfact>
</mgrwt>
</event>
<event>
 4    1  0.4072310E+000  0.2249628E+03  0.7546771E-02  0.1130236E+00
         21   -1    0    0  503  502  0.00000000000E+00  0.00000000000E+00  0.91916705928E+03  0.91916705928E+03  0.00000000000E+00 0.  1.
         21   -1    0    0  501  503 -0.00000000000E+00 -0.00000000000E+00 -0.74448370803E+02  0.74448370803E+02  0.00000000000E+00 0.  1.
          6    1    1    2  501    0  0.14063090620E+03  0.30036888034E+02  0.16882053232E+03  0.28126257937E+03  0.17300000000E+03 0.  1.
         -6    1    1    2    0  502 -0.14063090620E+03 -0.30036888034E+02  0.67589815615E+03  0.71235285071E+03  0.17300000000E+03 0.  1.
<mgrwt>
<rscale>  2 0.22496281E+03</rscale>
<asrwt>0</asrwt>
<pdfrwt beam="1">  1       21 0.14141031E+00 0.22496281E+03</pdfrwt>
<pdfrwt beam="2">  1       21 0.11453596E-01 0.22496281E+03</pdfrwt>
<totfact> 0.21791073E+04</totfact>
</mgrwt>
</event>
<event>
 4    1  0.4072310E+000  0.2290565E+03  0.7546771E-02  0.1127306E+00
         21   -1    0    0  501  502  0.00000000000E+00  0.00000000000E+00  0.28322713589E+03  0.28322713589E+03  0.00000000000E+00 0. -1.
         21   -1    0    0  502  503 -0.00000000000E+00 -0.00000000000E+00 -0.19889800969E+03  0.19889800969E+03  0.00000000000E+00 0. -1.
          6    1    1    2  501    0 -0.14010285175E+03 -0.53935751595E+02  0.10531883518E+03  0.25210896734E+03  0.17300000000E+03 0. -1.
         -6    1    1    2    0  503  0.14010285175E+03  0.53935751595E+02 -0.20989708975E+02  0.23001617824E+03  0.17300000000E+03 0. -1.
<mgrwt>
<rscale>  2 0.22905649E+03</rscale>
<asrwt>0</asrwt>
<pdfrwt beam="1">  1       21 0.43573405E-01 0.22905649E+03</pdfrwt>
<pdfrwt beam="2">  1       21 0.30599694E-01 0.22905649E+03</pdfrwt>
<totfact> 0.51032369E+04</totfact>
</mgrwt>
</event>
<event>
 4    1  0.4072310E+000  0.1925727E+03  0.7546771E-02  0.1156161E+00
         21   -1    0    0  501  502  0.00000000000E+00  0.00000000000E+00  0.64314245335E+02  0.64314245335E+02  0.00000000000E+00 0.  1.
         21   -1    0    0  502  503 -0.00000000000E+00 -0.00000000000E+00 -0.14063015479E+04  0.14063015479E+04  0.00000000000E+00 0. -1.
          6    1    1    2  501    0  0.83676402902E+02 -0.12389743564E+02 -0.10620196104E+03  0.21991612646E+03  0.17300000000E+03 0.  1.
         -6    1    1    2    0  503 -0.83676402902E+02  0.12389743564E+02 -0.12357853415E+04  0.12506996668E+04  0.17300000000E+03 0. -1.
<mgrwt>
<rscale>  2 0.19257270E+03</rscale>
<asrwt>0</asrwt>
<pdfrwt beam="1">  1       21 0.98944999E-02 0.19257270E+03</pdfrwt>
<pdfrwt beam="2">  1       21 0.21635407E+00 0.19257270E+03</pdfrwt>
<totfact> 0.87595958E+03</totfact>
</mgrwt>
</event>
<event>
 4    1  0.4072310E+000  0.1791574E+03  0.7546771E-02  0.1168621E+00
         21   -1    0    0  503  502  0.00000000000E+00  0.00000000000E+00  0.19118554414E+03  0.19118554414E+03  0.00000000000E+00 0. -1.
         21   -1    0    0  501  503 -0.00000000000E+00 -0.00000000000E+00 -0.17625021334E+03  0.17625021334E+03  0.00000000000E+00 0.  1.
          6    1    1    2  501    0 -0.41485319107E+02 -0.21150105519E+02 -0.32554587969E+02  0.18209107574E+03  0.17300000000E+03 0.  1.
         -6    1    1    2    0  502  0.41485319107E+02  0.21150105519E+02  0.47489918776E+02  0.18534468174E+03  0.17300000000E+03 0. -1.
<mgrwt>
<rscale>  2 0.17915736E+03</rscale>
<asrwt>0</asrwt>
<pdfrwt beam="1">  1       21 0.29413161E-01 0.17915736E+03</pdfrwt>
<pdfrwt beam="2">  1       21 0.27115417E-01 0.17915736E+03</pdfrwt>
<totfact> 0.14417889E+05</totfact>
</mgrwt>
</event>
<event>
 4    1  0.4072310E+000  0.2143232E+03  0.7546771E-02  0.1138188E+00
         21   -1    0    0  503  502  0.00000000000E+00  0.00000000000E+00  0.18375243834E+04  0.18375243834E+04  0.00000000000E+00 0.  1.
         21   -1    0    0  501  503 -0.00000000000E+00 -0.00000000000E+00 -0.68473812030E+02  0.68473812030E+02  0.00000000000E+00 0.  1.
          6    1    1    2  501    0 -0.35848663845E+02  0.12132726536E+03  0.12515413407E+03  0.24818942220E+03  0.17300000000E+03 0.  1.
         -6    1    1    2    0  502  0.35848663845E+02 -0.12132726536E+03  0.16438964373E+04  0.16578087732E+04  0.17300000000E+03 0.  1.
<mgrwt>
<rscale>  2 0.21432320E+03</rscale>
<asrwt>0</asrwt>
<pdfrwt beam="1">  1       21 0.28269602E+00 0.21432320E+03</pdfrwt>
<pdfrwt beam="2">  1       21 0.10534434E-01 0.21432320E+03</pdfrwt>
<totfact> 0.31010740E+03</totfact>
</mgrwt>
</event>
<event>
 4    1  0.4072310E+000  0.2240788E+03  0.7546771E-02  0.1130878E+00
         21   -1    0    0  501  502  0.00000000000E+00  0.00000000000E+00  0.95544792966E+02  0.95544792966E+02  0.00000000000E+00 0.  1.
         21   -1    0    0  502  503 -0.00000000000E+00 -0.00000000000E+00 -0.79453789812E+03  0.79453789812E+03  0.00000000000E+00 0.  1.
          6    1    1    2  501    0 -0.10230073120E+03  0.99080015432E+02 -0.90538954003E+02  0.24167869425E+03  0.17300000000E+03 0.  1.
         -6    1    1    2    0  503  0.10230073120E+03 -0.99080015432E+02 -0.60845415115E+03  0.64840399683E+03  0.17300000000E+03 0.  1.
<mgrwt>
<rscale>  2 0.22407876E+03</rscale>
<asrwt>0</asrwt>
<pdfrwt beam="1">  1       21 0.14699199E-01 0.22407876E+03</pdfrwt>
<pdfrwt beam="2">  1       21 0.12223660E+00 0.22407876E+03</pdfrwt>
<totfact> 0.20136953E+04</totfact>
</mgrwt>
</event>
<event>
 4    1  0.4072310E+000  0.3430469E+03  0.7546771E-02  0.1065506E+00
         21   -1    0    0  501  502  0.00000000000E+00  0.00000000000E+00  0.57606410676E+03  0.57606410676E+03  0.00000000000E+00 0.  1.
         21   -1    0    0  502  503 -0.00000000000E+00 -0.00000000000E+00 -0.21200952728E+03  0.21200952728E+03  0.00000000000E+00 0. -1.
          6    1    1    2  501    0 -0.18975263829E+03  0.22747769594E+03  0.25724142538E+03  0.42878236533E+03  0.17300000000E+03 0.  1.
         -6    1    1    2    0  503  0.18975263829E+03 -0.22747769594E+03  0.10681315410E+03  0.35929126872E+03  0.17300000000E+03 0. -1.
<mgrwt>
<rscale>  2 0.34304689E+03</rscale>
<asrwt>0</asrwt>
<pdfrwt beam="1">  1       21 0.88625247E-01 0.34304689E+03</pdfrwt>
<pdfrwt beam="2">  1       21 0.32616851E-01 0.34304689E+03</pdfrwt>
<totfact> 0.90847100E+03</totfact>
</mgrwt>
</event>
<event>
 4    1  0.4072310E+000  0.2124346E+03  0.7546771E-02  0.1139652E+00
         21   -1    0    0  503  502  0.00000000000E+00  0.00000000000E+00  0.49905600554E+03  0.49905600554E+03  0.00000000000E+00 0. -1.
         21   -1    0    0  501  503 -0.00000000000E+00 -0.00000000000E+00 -0.15812822404E+03  0.15812822404E+03  0.00000000000E+00 0. -1.
          6    1    1    2  501    0 -0.99882584906E+02 -0.72269851901E+02 -0.44541135849E+02  0.21705385287E+03  0.17300000000E+03 0. -1.
         -6    1    1    2    0  502  0.99882584906E+02  0.72269851901E+02  0.38546891735E+03  0.44013037671E+03  0.17300000000E+03 0. -1.
<mgrwt>
<rscale>  2 0.21243461E+03</rscale>
<asrwt>0</asrwt>
<pdfrwt beam="1">  1       21 0.76777846E-01 0.21243461E+03</pdfrwt>
<pdfrwt beam="2">  1       21 0.24327419E-01 0.21243461E+03</pdfrwt>
<totfact> 0.23798277E+04</totfact>
</mgrwt>
</event>
<event>
 4    1  0.4072310E+000  0.2068640E+03  0.7546771E-02  0.1144074E+00
         21   -1    0    0  501  502  0.00000000000E+00  0.00000000000E+00  0.72687374668E+02  0.72687374668E+02  0.00000000000E+00 0.  1.
         21   -1    0    0  502  503 -0.00000000000E+00 -0.00000000000E+00 -0.67324871287E+03  0.67324871287E+03  0.00000000000E+00 0.  1.
          6    1    1    2  501    0 -0.10791476295E+03 -0.34901724227E+02 -0.16812725755E+03  0.26656988042E+03  0.17300000000E+03 0.  1.
         -6    1    1    2    0  503  0.10791476295E+03  0.34901724227E+02 -0.43243408065E+03  0.47936620711E+03  0.17300000000E+03 0.  1.
<mgrwt>
<rscale>  2 0.20686403E+03</rscale>
<asrwt>0</asrwt>
<pdfrwt beam="1">  1       21 0.11182673E-01 0.20686403E+03</pdfrwt>
<pdfrwt beam="2">  1       21 0.10357673E+00 0.20686403E+03</pdfrwt>
<totfact> 0.49877301E+04</totfact>
</mgrwt>
</event>
<event>
 4    1  0.4072310E+000  0.1824379E+03  0.7546771E-02  0.1165464E+00
         21   -1    0    0  501  502  0.00000000000E+00  0.00000000000E+00  0.14452559011E+03  0.14452559011E+03  0.00000000000E+00 0.  1.
         21   -1    0    0  502  503 -0.00000000000E+00 -0.00000000000E+00 -0.51698424017E+03  0.51698424017E+03  0.00000000000E+00 0.  1.
          6    1    1    2  501    0  0.47719503073E+02  0.32824265617E+02  0.60075558779E+02  0.19207461089E+03  0.17300000000E+03 0.  1.
         -6    1    1    2    0  503 -0.47719503073E+02 -0.32824265617E+02 -0.43253420884E+03  0.46943521939E+03  0.17300000000E+03 0.  1.
<mgrwt>
<rscale>  2 0.18243789E+03</rscale>
<asrwt>0</asrwt>
<pdfrwt beam="1">  1       21 0.22234706E-01 0.18243789E+03</pdfrwt>
<pdfrwt beam="2">  1       21 0.79536037E-01 0.18243789E+03</pdfrwt>
<totfact> 0.26519423E+04</totfact>
</mgrwt>
</event>
<event>
 4    1  0.4072310E+000  0.2713518E+03  0.7546771E-02  0.1100508E+00
         21   -1    0    0  503  502  0.00000000000E+00  0.00000000000E+00  0.41578855441E+03  0.41578855441E+03  0.00000000000E+00 0.  1.
         21   -1    0    0  501  503 -0.00000000000E+00 -0.00000000000E+00 -0.36454975807E+03  0.36454975807E+03  0.00000000000E+00 0. -1.
          6    1    1    2  501    0  0.20850130902E+03 -0.15165051033E+02 -0.25416865577E+03  0.37179763342E+03  0.17300000000E+03 0. -1.
         -6    1    1    2    0  502 -0.20850130902E+03  0.15165051033E+02  0.30540745212E+03  0.40854067906E+03  0.17300000000E+03 0.  1.
<mgrwt>
<rscale>  2 0.27135175E+03</rscale>
<asrwt>0</asrwt>
<pdfrwt beam="1">  1       21 0.63967470E-01 0.27135175E+03</pdfrwt>
<pdfrwt beam="2">  1       21 0.56084578E-01 0.27135175E+03</pdfrwt>
<totfact> 0.64203032E+03</totfact>
</mgrwt>
</event>
<event>
 4    1  0.4072310E+000  0.1980912E+03  0.7546771E-02  0.1151360E+00
         21   -1    0    0  501  502  0.00000000000E+00  0.00000000000E+00  0.79248092394E+02  0.79248092394E+02  0.00000000000E+00 0.  1.
         21   -1    0    0  502  503 -0.00000000000E+00 -0.00000000000E+00 -0.49544923188E+03  0.49544923188E+03  0.00000000000E+00 0.  1.
          6    1    1    2  501    0 -0.95663352864E+02 -0.12634672655E+02 -0.20110147918E+03  0.28227985575E+03  0.17300000000E+03 0.  1.
         -6    1    1    2    0  503  0.95663352864E+02  0.12634672655E+02 -0.21509966031E+03  0.29241746853E+03  0.17300000000E+03 0.  1.
<mgrwt>
<rscale>  2 0.19809117E+03</rscale>
<asrwt>0</asrwt>
<pdfrwt beam="1">  1       21 0.12192014E-01 0.19809117E+03</pdfrwt>
<pdfrwt beam="2">  1       21 0.76222961E-01 0.19809117E+03</pdfrwt>
<totfact> 0.87260182E+04</totfact>
</mgrwt>
</event>
<event>
 4    1  0.4072310E+000  0.2010294E+03  0.7546771E-02  0.1148873E+00
         21   -1    0    0  501  502  0.00000000000E+00  0.00000000000E+00  0.24911754283E+03  0.24911754283E+03  0.00000000000E+00 0.  1.
         21   -1    0    0  502  503 -0.00000000000E+00 -0.00000000000E+00 -0.21973295018E+03  0.21973295018E+03  0.00000000000E+00 0. -1.
          6    1    1    2  501    0  0.90700116521E+02  0.47511344724E+02  0.13462139990E+03  0.24194164653E+03  0.17300000000E+03 0.  1.
         -6    1    1    2    0  503 -0.90700116521E+02 -0.47511344724E+02 -0.10523680725E+03  0.22690884649E+03  0.17300000000E+03 0. -1.
<mgrwt>
<rscale>  2 0.20102945E+03</rscale>
<asrwt>0</asrwt>
<pdfrwt beam="1">  1       21 0.38325776E-01 0.20102945E+03</pdfrwt>
<pdfrwt beam="2">  1       21 0.33805069E-01 0.20102945E+03</pdfrwt>
<totfact> 0.55123566E+04</totfact>
</mgrwt>
</event>
<event>
 4    1  0.4072310E+000  0.2845055E+03  0.7546771E-02  0.1093253E+00
         21   -1    0    0  503  502  0.00000000000E+00  0.00000000000E+00  0.71786770429E+03  0.71786770429E+03  0.00000000000E+00 0.  1.
         21   -1    0    0  501  503 -0.00000000000E+00 -0.00000000000E+00 -0.16844214116E+03  0.16844214116E+03  0.00000000000E+00 0. -1.
          6    1    1    2  501    0  0.62195696981E+02 -0.21713147102E+03  0.19908608759E+02  0.28520121517E+03  0.17300000000E+03 0. -1.
         -6    1    1    2    0  502 -0.62195696981E+02  0.21713147102E+03  0.52951695437E+03  0.60110863028E+03  0.17300000000E+03 0.  1.
<mgrwt>
<rscale>  2 0.28450550E+03</rscale>
<asrwt>0</asrwt>
<pdfrwt beam="1">  1       21 0.11044118E+00 0.28450550E+03</pdfrwt>
<pdfrwt beam="2">  1       21 0.25914176E-01 0.28450550E+03</pdfrwt>
<totfact> 0.86439220E+03</totfact>
</mgrwt>
</event>
<event>
 4    1  0.4072310E+000  0.1830432E+03  0.7546771E-02  0.1164890E+00
         21   -1    0    0  501  502  0.00000000000E+00  0.00000000000E+00  0.18796499200E+03  0.18796499200E+03  0.00000000000E+00 0. -1.
         21   -1    0    0  502  503 -0.00000000000E+00 -0.00000000000E+00 -0.22546755995E+03  0.22546755995E+03  0.00000000000E+00 0. -1.
          6    1    1    2  501    0  0.53038069653E+02  0.27618496627E+02  0.75846939875E+02  0.19813524794E+03  0.17300000000E+03 0. -1.
         -6    1    1    2    0  503 -0.53038069653E+02 -0.27618496627E+02 -0.11334950783E+03  0.21529730401E+03  0.17300000000E+03 0. -1.
<mgrwt>
<rscale>  2 0.18304321E+03</rscale>
<asrwt>0</asrwt>
<pdfrwt beam="1">  1       21 0.28917691E-01 0.18304321E+03</pdfrwt>
<pdfrwt beam="2">  1       21 0.34687317E-01 0.18304321E+03</pdfrwt>
<totfact> 0.92027597E+04</totfact>
</mgrwt>
</event>
<event>
 4    1  0.4072310E+000  0.1825484E+03  0.7546771E-02  0.1165359E+00
         21   -1    0    0  501  502  0.00000000000E+00  0.00000000000E+00  0.39651059229E+03  0.39651059229E+03  0.00000000000E+00 0. -1.
         21   -1    0    0  502  503 -0.00000000000E+00 -0.00000000000E+00 -0.20033084457E+03  0.20033084457E+03  0.00000000000E+00 0. -1.
          6    1    1    2  501    0  0.75390217145E+01  0.57776282946E+02  0.32545415584E+03  0.37315458362E+03  0.17300000000E+03 0. -1.
         -6    1    1    2    0  503 -0.75390217145E+01 -0.57776282946E+02 -0.12927440811E+03  0.22368685324E+03  0.17300000000E+03 0. -1.
<mgrwt>
<rscale>  2 0.18254845E+03</rscale>
<asrwt>0</asrwt>
<pdfrwt beam="1">  1       21 0.61001629E-01 0.18254845E+03</pdfrwt>
<pdfrwt beam="2">  1       21 0.30820130E-01 0.18254845E+03</pdfrwt>
<totfact> 0.25424309E+04</totfact>
</mgrwt>
</event>
<event>
 4    1  0.4072310E+000  0.2005646E+03  0.7546771E-02  0.1149264E+00
         21   -1    0    0  503  502  0.00000000000E+00  0.00000000000E+00  0.10424459232E+03  0.10424459232E+03  0.00000000000E+00 0.  1.
         21   -1    0    0  501  503 -0.00000000000E+00 -0.00000000000E+00 -0.38590432564E+03  0.38590432564E+03  0.00000000000E+00 0.  1.
          6    1    1    2  501    0  0.89363563612E+02  0.48075903508E+02 -0.13897674022E+03  0.24400957629E+03  0.17300000000E+03 0.  1.
         -6    1    1    2    0  502 -0.89363563612E+02 -0.48075903508E+02 -0.14268299309E+03  0.24613934167E+03  0.17300000000E+03 0.  1.
<mgrwt>
<rscale>  2 0.20056455E+03</rscale>
<asrwt>0</asrwt>
<pdfrwt beam="1">  1       21 0.16037629E-01 0.20056455E+03</pdfrwt>
<pdfrwt beam="2">  1       21 0.59369897E-01 0.20056455E+03</pdfrwt>
<totfact> 0.91719143E+04</totfact>
</mgrwt>
</event>
<event>
 4    1  0.4072310E+000  0.1941490E+03  0.7546771E-02  0.1154772E+00
         21   -1    0    0  503  502  0.00000000000E+00  0.00000000000E+00  0.20047617271E+03  0.20047617271E+03  0.00000000000E+00 0.  1.
         21   -1    0    0  501  503 -0.00000000000E+00 -0.00000000000E+00 -0.18808621466E+03  0.18808621466E+03  0.00000000000E+00 0.  1.
          6    1    1    2  501    0 -0.29595069824E+02 -0.82999741472E+02  0.25904786710E+01  0.19416625820E+03  0.17300000000E+03 0.  1.
         -6    1    1    2    0  502  0.29595069824E+02  0.82999741472E+02  0.97994793706E+01  0.19439612918E+03  0.17300000000E+03 0.  1.
<mgrwt>
<rscale>  2 0.19414898E+03</rscale>
<asrwt>0</asrwt>
<pdfrwt beam="1">  1       21 0.30842488E-01 0.19414898E+03</pdfrwt>
<pdfrwt beam="2">  1       21 0.28936341E-01 0.19414898E+03</pdfrwt>
<totfact> 0.11534422E+05</totfact>
</mgrwt>
</event>
<event>
 4    1  0.4072310E+000  0.2092150E+03  0.7546771E-02  0.1142189E+00
         21   -1    0    0  501  502  0.00000000000E+00  0.00000000000E+00  0.22276618921E+03  0.22276618921E+03  0.00000000000E+00 0.  1.
         21   -1    0    0  502  503 -0.00000000000E+00 -0.00000000000E+00 -0.21957451864E+03  0.21957451864E+03  0.00000000000E+00 0. -1.
          6    1    1    2  501    0 -0.11512287543E+03  0.24261478086E+02  0.73311598997E+02  0.22168781273E+03  0.17300000000E+03 0. -1.
         -6    1    1    2    0  503  0.11512287543E+03 -0.24261478086E+02 -0.70119928422E+02  0.22065289513E+03  0.17300000000E+03 0. -1.
<mgrwt>
<rscale>  2 0.20921495E+03</rscale>
<asrwt>0</asrwt>
<pdfrwt beam="1">  1       21 0.34271722E-01 0.20921495E+03</pdfrwt>
<pdfrwt beam="2">  1       21 0.33780695E-01 0.20921495E+03</pdfrwt>
<totfact> 0.68752115E+04</totfact>
</mgrwt>
</event>
<event>
 4    1  0.4072310E+000  0.2931423E+03  0.7546771E-02  0.1088720E+00
         21   -1    0    0  503  502  0.00000000000E+00  0.00000000000E+00  0.84491350609E+03  0.84491350609E+03  0.00000000000E+00 0. -1.
         21   -1    0    0  501  503 -0.00000000000E+00 -0.00000000000E+00 -0.11589207643E+03  0.11589207643E+03  0.00000000000E+00 0.  1.
          6    1    1    2  501    0  0.18720414188E+03  0.14476886556E+03  0.19643062127E+03  0.35287023698E+03  0.17300000000E+03 0.  1.
         -6    1    1    2    0  502 -0.18720414188E+03 -0.14476886556E+03  0.53259080839E+03  0.60793534554E+03  0.17300000000E+03 0. -1.
<mgrwt>
<rscale>  2 0.29314231E+03</rscale>
<asrwt>0</asrwt>
<pdfrwt beam="1">  1       21 0.12998669E+00 0.29314231E+03</pdfrwt>
<pdfrwt beam="2">  1       21 0.17829551E-01 0.29314231E+03</pdfrwt>
<totfact> 0.11641930E+04</totfact>
</mgrwt>
</event>
<event>
 4    1  0.4072310E+000  0.1778577E+03  0.7546771E-02  0.1169893E+00
         21   -1    0    0  503  502  0.00000000000E+00  0.00000000000E+00  0.10571219142E+03  0.10571219142E+03  0.00000000000E+00 0.  1.
         21   -1    0    0  501  503 -0.00000000000E+00 -0.00000000000E+00 -0.30280744386E+03  0.30280744386E+03  0.00000000000E+00 0.  1.
          6    1    1    2  501    0 -0.26658136557E+02 -0.31523272123E+02 -0.12071659794E+03  0.21495550690E+03  0.17300000000E+03 0. -1.
         -6    1    1    2    0  502  0.26658136557E+02  0.31523272123E+02 -0.76378654503E+02  0.19356412838E+03  0.17300000000E+03 0. -1.
<mgrwt>
<rscale>  2 0.17785773E+03</rscale>
<asrwt>0</asrwt>
<pdfrwt beam="1">  1       21 0.16263414E-01 0.17785773E+03</pdfrwt>
<pdfrwt beam="2">  1       21 0.46585760E-01 0.17785773E+03</pdfrwt>
<totfact> 0.15004493E+05</totfact>
</mgrwt>
</event>
<event>
 4    1  0.4072310E+000  0.1895732E+03  0.7546771E-02  0.1158847E+00
         21   -1    0    0  503  502  0.00000000000E+00  0.00000000000E+00  0.31780672025E+02  0.31780672025E+02  0.00000000000E+00 0.  1.
         21   -1    0    0  501  503 -0.00000000000E+00 -0.00000000000E+00 -0.18607505656E+04  0.18607505656E+04  0.00000000000E+00 0. -1.
          6    1    1    2  501    0 -0.77040919265E+02 -0.85843012917E+01 -0.15071534834E+04  0.15190291690E+04  0.17300000000E+03 0. -1.
         -6    1    1    2    0  502  0.77040919265E+02  0.85843012917E+01 -0.32181641009E+03  0.37350206864E+03  0.17300000000E+03 0.  1.
<mgrwt>
<rscale>  2 0.18957319E+03</rscale>
<asrwt>0</asrwt>
<pdfrwt beam="1">  1       21 0.48893338E-02 0.18957319E+03</pdfrwt>
<pdfrwt beam="2">  1       21 0.28626934E+00 0.18957319E+03</pdfrwt>
<totfact> 0.11477226E+04</totfact>
</mgrwt>
</event>
<event>
 4    1  0.4072310E+000  0.2582110E+03  0.7546771E-02  0.1108223E+00
         21   -1    0    0  503  502  0.00000000000E+00  0.00000000000E+00  0.11158964148E+03  0.11158964148E+03  0.00000000000E+00 0. -1.
         21   -1    0    0  501  503 -0.00000000000E+00 -0.00000000000E+00 -0.20484281348E+04  0.20484281348E+04  0.00000000000E+00 0.  1.
          6    1    1    2  501    0  0.12408212933E+03 -0.14610797777E+03 -0.18773743992E+04  0.18950481658E+04  0.17300000000E+03 0.  1.
         -6    1    1    2    0  502 -0.12408212933E+03  0.14610797777E+03 -0.59464094138E+02  0.26496961048E+03  0.17300000000E+03 0. -1.
<mgrwt>
<rscale>  2 0.25821099E+03</rscale>
<asrwt>0</asrwt>
<pdfrwt beam="1">  1       21 0.17167636E-01 0.25821099E+03</pdfrwt>
<pdfrwt beam="2">  1       21 0.31514280E+00 0.25821099E+03</pdfrwt>
<totfact> 0.78977536E+02</totfact>
</mgrwt>
</event>
<event>
 4    1  0.4072310E+000  0.2293427E+03  0.7546771E-02  0.1127103E+00
         21   -1    0    0  501  502  0.00000000000E+00  0.00000000000E+00  0.20104265783E+03  0.20104265783E+03  0.00000000000E+00 0. -1.
         21   -1    0    0  502  503 -0.00000000000E+00 -0.00000000000E+00 -0.26553145585E+03  0.26553145585E+03  0.00000000000E+00 0. -1.
          6    1    1    2  501    0 -0.68328853931E+02  0.13416494834E+03 -0.60535288627E+02  0.23719735836E+03  0.17300000000E+03 0. -1.
         -6    1    1    2    0  503  0.68328853931E+02 -0.13416494834E+03 -0.39535093943E+01  0.22937675532E+03  0.17300000000E+03 0. -1.
<mgrwt>
<rscale>  2 0.22934268E+03</rscale>
<asrwt>0</asrwt>
<pdfrwt beam="1">  1       21 0.30929640E-01 0.22934268E+03</pdfrwt>
<pdfrwt beam="2">  1       21 0.40850993E-01 0.22934268E+03</pdfrwt>
<totfact> 0.57006494E+04</totfact>
</mgrwt>
</event>
<event>
 4    1  0.4072310E+000  0.1878106E+03  0.7546771E-02  0.1160451E+00
         21   -1    0    0  503  502  0.00000000000E+00  0.00000000000E+00  0.16435089923E+03  0.16435089923E+03  0.00000000000E+00 0. -1.
         21   -1    0    0  501  503 -0.00000000000E+00 -0.00000000000E+00 -0.21523329511E+03  0.21523329511E+03  0.00000000000E+00 0. -1.
          6    1    1    2  501    0 -0.23779410597E+01  0.73062703698E+02 -0.15301184648E+02  0.18843285151E+03  0.17300000000E+03 0. -1.
         -6    1    1    2    0  502  0.23779410597E+01 -0.73062703698E+02 -0.35581211225E+02  0.19115134283E+03  0.17300000000E+03 0. -1.
<mgrwt>
<rscale>  2 0.18781058E+03</rscale>
<asrwt>0</asrwt>
<pdfrwt beam="1">  1       21 0.25284754E-01 0.18781058E+03</pdfrwt>
<pdfrwt beam="2">  1       21 0.33112814E-01 0.18781058E+03</pdfrwt>
<totfact> 0.13037677E+05</totfact>
</mgrwt>
</event>
<event>
 4    1  0.4072310E+000  0.2028920E+03  0.7546771E-02  0.1147322E+00
         21   -1    0    0  501  502  0.00000000000E+00  0.00000000000E+00  0.22959696954E+04  0.22959696954E+04  0.00000000000E+00 0.  1.
         21   -1    0    0  502  503 -0.00000000000E+00 -0.00000000000E+00 -0.18119804372E+02  0.18119804372E+02  0.00000000000E+00 0. -1.
          6    1    1    2  501    0  0.86025731055E+01  0.10565117461E+03  0.12575573373E+04  0.12738193088E+04  0.17300000000E+03 0.  1.
         -6    1    1    2    0  503 -0.86025731055E+01 -0.10565117461E+03  0.10202925537E+04  0.10402701909E+04  0.17300000000E+03 0.  1.
<mgrwt>
<rscale>  2 0.20289203E+03</rscale>
<asrwt>0</asrwt>
<pdfrwt beam="1">  1       21 0.35322588E+00 0.20289203E+03</pdfrwt>
<pdfrwt beam="2">  1       21 0.27876640E-02 0.20289203E+03</pdfrwt>
<totfact> 0.11814999E+04</totfact>
</mgrwt>
</event>
<event>
 4    1  0.4072310E+000  0.2091839E+03  0.7546771E-02  0.1142214E+00
         21   -1    0    0  501  502  0.00000000000E+00  0.00000000000E+00  0.89024622476E+02  0.89024622476E+02  0.00000000000E+00 0.  1.
         21   -1    0    0  502  503 -0.00000000000E+00 -0.00000000000E+00 -0.95528698778E+03  0.95528698778E+03  0.00000000000E+00 0.  1.
          6    1    1    2  501    0 -0.14257871831E+02  0.11672873480E+03 -0.69316304996E+02  0.22036931405E+03  0.17300000000E+03 0.  1.
         -6    1    1    2    0  503  0.14257871831E+02 -0.11672873480E+03 -0.79694606030E+03  0.82394229620E+03  0.17300000000E+03 0.  1.
<mgrwt>
<rscale>  2 0.20918385E+03</rscale>
<asrwt>0</asrwt>
<pdfrwt beam="1">  1       21 0.13696096E-01 0.20918385E+03</pdfrwt>
<pdfrwt beam="2">  1       21 0.14696722E+00 0.20918385E+03</pdfrwt>
<totfact> 0.14422473E+04</totfact>
</mgrwt>
</event>
<event>
 4    1  0.4072310E+000  0.3333688E+03  0.7546771E-02  0.1069656E+00
         21   -1    0    0  503  502  0.00000000000E+00  0.00000000000E+00  0.26777437266E+04  0.26777437266E+04  0.00000000000E+00 0.  1.
         21   -1    0    0  501  503 -0.00000000000E+00 -0.00000000000E+00 -0.49000160250E+02  0.49000160250E+02  0.00000000000E+00 0. -1.
          6    1    1    2  501    0  0.25127143138E+03  0.13441882067E+03  0.78108579435E+03  0.84925247701E+03  0.17300000000E+03 0. -1.
         -6    1    1    2    0  502 -0.25127143138E+03 -0.13441882067E+03  0.18476577720E+04  0.18774914098E+04  0.17300000000E+03 0. -1.
<mgrwt>
<rscale>  2 0.33336879E+03</rscale>
<asrwt>0</asrwt>
<pdfrwt beam="1">  1       21 0.41196046E+00 0.33336879E+03</pdfrwt>
<pdfrwt beam="2">  1       21 0.75384883E-02 0.33336879E+03</pdfrwt>
<totfact> 0.82828257E+02</totfact>
</mgrwt>
</event>
<event>
 4    1  0.4072310E+000  0.2496124E+03  0.7546771E-02  0.1113550E+00
         21   -1    0    0  501  502  0.00000000000E+00  0.00000000000E+00  0.81305413647E+03  0.81305413647E+03  0.00000000000E+00 0.  1.
         21   -1    0    0  502  503 -0.00000000000E+00 -0.00000000000E+00 -0.11537030738E+03  0.11537030738E+03  0.00000000000E+00 0. -1.
          6    1    1    2  501    0  0.87286050996E+02  0.15734830954E+03  0.61783260016E+03  0.66635085881E+03  0.17300000000E+03 0.  1.
         -6    1    1    2    0  503 -0.87286050996E+02 -0.15734830954E+03  0.79851228941E+02  0.26207358504E+03  0.17300000000E+03 0. -1.
<mgrwt>
<rscale>  2 0.24961239E+03</rscale>
<asrwt>0</asrwt>
<pdfrwt beam="1">  1       21 0.12508525E+00 0.24961239E+03</pdfrwt>
<pdfrwt beam="2">  1       21 0.17749279E-01 0.24961239E+03</pdfrwt>
<totfact> 0.13239100E+04</totfact>
</mgrwt>
</event>
<event>
 4    1  0.4072310E+000  0.3000312E+03  0.7546771E-02  0.1085225E+00
         21   -1    0    0  503  502  0.00000000000E+00  0.00000000000E+00  0.25328995729E+03  0.25328995729E+03  0.00000000000E+00 0. -1.
         21   -1    0    0  501  503 -0.00000000000E+00 -0.00000000000E+00 -0.36893945642E+03  0.36893945642E+03  0.00000000000E+00 0. -1.
          6    1    1    2  501    0 -0.63749467783E+02  0.23669751104E+03 -0.11742911585E+03  0.32219296024E+03  0.17300000000E+03 0. -1.
         -6    1    1    2    0  502  0.63749467783E+02 -0.23669751104E+03  0.17796167267E+01  0.30003645347E+03  0.17300000000E+03 0. -1.
<mgrwt>
<rscale>  2 0.30003118E+03</rscale>
<asrwt>0</asrwt>
<pdfrwt beam="1">  1       21 0.38967686E-01 0.30003118E+03</pdfrwt>
<pdfrwt beam="2">  1       21 0.56759917E-01 0.30003118E+03</pdfrwt>
<totfact> 0.17546049E+04</totfact>
</mgrwt>
</event>
<event>
 4    1  0.4072310E+000  0.1887506E+03  0.7546771E-02  0.1159593E+00
         21   -1    0    0  501  502  0.00000000000E+00  0.00000000000E+00  0.41048894257E+03  0.41048894257E+03  0.00000000000E+00 0. -1.
         21   -1    0    0  502  503 -0.00000000000E+00 -0.00000000000E+00 -0.44905425759E+03  0.44905425759E+03  0.00000000000E+00 0. -1.
          6    1    1    2  501    0 -0.21501208146E+01 -0.75453158677E+02  0.36672895143E+03  0.41245233178E+03  0.17300000000E+03 0. -1.
         -6    1    1    2    0  503  0.21501208146E+01  0.75453158677E+02 -0.40529426645E+03  0.44709086839E+03  0.17300000000E+03 0. -1.
<mgrwt>
<rscale>  2 0.18875063E+03</rscale>
<asrwt>0</asrwt>
<pdfrwt beam="1">  1       21 0.63152145E-01 0.18875063E+03</pdfrwt>
<pdfrwt beam="2">  1       21 0.69085270E-01 0.18875063E+03</pdfrwt>
<totfact> 0.44396073E+03</totfact>
</mgrwt>
</event>
<event>
 4    1  0.4072310E+000  0.1783276E+03  0.7546771E-02  0.1169431E+00
         21   -1    0    0  501  502  0.00000000000E+00  0.00000000000E+00  0.30163036177E+03  0.30163036177E+03  0.00000000000E+00 0.  1.
         21   -1    0    0  502  503 -0.00000000000E+00 -0.00000000000E+00 -0.10545439616E+03  0.10545439616E+03  0.00000000000E+00 0.  1.
          6    1    1    2  501    0  0.12182136606E+02 -0.41512908001E+02  0.10121796920E+03  0.20505073341E+03  0.17300000000E+03 0.  1.
         -6    1    1    2    0  503 -0.12182136606E+02  0.41512908001E+02  0.94957996397E+02  0.20203402452E+03  0.17300000000E+03 0.  1.
<mgrwt>
<rscale>  2 0.17832758E+03</rscale>
<asrwt>0</asrwt>
<pdfrwt beam="1">  1       21 0.46404671E-01 0.17832758E+03</pdfrwt>
<pdfrwt beam="2">  1       21 0.16223753E-01 0.17832758E+03</pdfrwt>
<totfact> 0.15190636E+05</totfact>
</mgrwt>
</event>
<event>
 4    1  0.4072310E+000  0.1924212E+03  0.7546771E-02  0.1156295E+00
         21   -1    0    0  501  502  0.00000000000E+00  0.00000000000E+00  0.10235857870E+04  0.10235857870E+04  0.00000000000E+00 0.  1.
         21   -1    0    0  502  503 -0.00000000000E+00 -0.00000000000E+00 -0.50428456448E+02  0.50428456448E+02  0.00000000000E+00 0. -1.
          6    1    1    2  501    0 -0.71695662464E+02  0.44234253487E+02  0.77209845574E+03  0.79571474949E+03  0.17300000000E+03 0. -1.
         -6    1    1    2    0  503  0.71695662464E+02 -0.44234253487E+02  0.20105887482E+03  0.27829949396E+03  0.17300000000E+03 0. -1.
<mgrwt>
<rscale>  2 0.19242125E+03</rscale>
<asrwt>0</asrwt>
<pdfrwt beam="1">  1       21 0.15747472E+00 0.19242125E+03</pdfrwt>
<pdfrwt beam="2">  1       21 0.77582248E-02 0.19242125E+03</pdfrwt>
<totfact> 0.33259053E+04</totfact>
</mgrwt>
</event>
<event>
 4    1  0.4072310E+000  0.3941667E+03  0.7546771E-02  0.1045818E+00
         21   -1    0    0  501  502  0.00000000000E+00  0.00000000000E+00  0.71831156274E+03  0.71831156274E+03  0.00000000000E+00 0. -1.
         21   -1    0    0  502  503 -0.00000000000E+00 -0.00000000000E+00 -0.25467242077E+03  0.25467242077E+03  0.00000000000E+00 0. -1.
          6    1    1    2  501    0  0.33890670320E+03 -0.10286213550E+03  0.42067143123E+03  0.57648228546E+03  0.17300000000E+03 0. -1.
         -6    1    1    2    0  503 -0.33890670320E+03  0.10286213550E+03  0.42967710747E+02  0.39650169806E+03  0.17300000000E+03 0. -1.
<mgrwt>
<rscale>  2 0.39416668E+03</rscale>
<asrwt>0</asrwt>
<pdfrwt beam="1">  1       21 0.11050947E+00 0.39416668E+03</pdfrwt>
<pdfrwt beam="2">  1       21 0.39180373E-01 0.39416668E+03</pdfrwt>
<totfact> 0.36092358E+03</totfact>
</mgrwt>
</event>
<event>
 4    1  0.4072310E+000  0.2034855E+03  0.7546771E-02  0.1146831E+00
         21   -1    0    0  503  502  0.00000000000E+00  0.00000000000E+00  0.10619054354E+04  0.10619054354E+04  0.00000000000E+00 0.  1.
         21   -1    0    0  501  503 -0.00000000000E+00 -0.00000000000E+00 -0.45247541885E+02  0.45247541885E+02  0.00000000000E+00 0.  1.
          6    1    1    2  501    0 -0.18565349232E+02  0.10551152404E+03  0.30250540394E+03  0.36457629285E+03  0.17300000000E+03 0.  1.
         -6    1    1    2    0  502  0.18565349232E+02 -0.10551152404E+03  0.71415248962E+03  0.74257668448E+03  0.17300000000E+03 0.  1.
<mgrwt>
<rscale>  2 0.20348551E+03</rscale>
<asrwt>0</asrwt>
<pdfrwt beam="1">  1       21 0.16337005E+00 0.20348551E+03</pdfrwt>
<pdfrwt beam="2">  1       21 0.69611611E-02 0.20348551E+03</pdfrwt>
<totfact> 0.36086778E+04</totfact>
</mgrwt>
</event>
<event>
 4    1  0.4072310E+000  0.2953450E+03  0.7546771E-02  0.1087591E+00
         21   -1    0    0  501  502  0.00000000000E+00  0.00000000000E+00  0.23010588084E+03  0.23010588084E+03  0.00000000000E+00 0.  1.
         21   -1    0    0  502  503 -0.00000000000E+00 -0.00000000000E+00 -0.49318239545E+03  0.49318239545E+03  0.00000000000E+00 0.  1.
          6    1    1    2  501    0 -0.31784979033E+02 -0.23725384421E+03  0.42411536597E+02  0.29837461340E+03  0.17300000000E+03 0.  1.
         -6    1    1    2    0  503  0.31784979033E+02  0.23725384421E+03 -0.30548805121E+03  0.42491366289E+03  0.17300000000E+03 0.  1.
<mgrwt>
<rscale>  2 0.29534500E+03</rscale>
<asrwt>0</asrwt>
<pdfrwt beam="1">  1       21 0.35400905E-01 0.29534500E+03</pdfrwt>
<pdfrwt beam="2">  1       21 0.75874214E-01 0.29534500E+03</pdfrwt>
<totfact> 0.11254312E+04</totfact>
</mgrwt>
</event>
<event>
 4    1  0.4072310E+000  0.2134107E+03  0.7546771E-02  0.1138893E+00
         21   -1    0    0  501  502  0.00000000000E+00  0.00000000000E+00  0.11393512812E+03  0.11393512812E+03  0.00000000000E+00 0. -1.
         21   -1    0    0  502  503 -0.00000000000E+00 -0.00000000000E+00 -0.97529581950E+03  0.97529581950E+03  0.00000000000E+00 0. -1.
          6    1    1    2  501    0 -0.71597247431E+02 -0.10241558208E+03 -0.12304552084E+02  0.21376510308E+03  0.17300000000E+03 0. -1.
         -6    1    1    2    0  503  0.71597247431E+02  0.10241558208E+03 -0.84905613930E+03  0.87546584455E+03  0.17300000000E+03 0. -1.
<mgrwt>
<rscale>  2 0.21341068E+03</rscale>
<asrwt>0</asrwt>
<pdfrwt beam="1">  1       21 0.17528481E-01 0.21341068E+03</pdfrwt>
<pdfrwt beam="2">  1       21 0.15004551E+00 0.21341068E+03</pdfrwt>
<totfact> 0.86690977E+03</totfact>
</mgrwt>
</event>
<event>
 4    1  0.4072310E+000  0.2390286E+03  0.7546771E-02  0.1120442E+00
         21   -1    0    0  503  502  0.00000000000E+00  0.00000000000E+00  0.61604277723E+03  0.61604277723E+03  0.00000000000E+00 0.  1.
         21   -1    0    0  501  503 -0.00000000000E+00 -0.00000000000E+00 -0.95418921029E+02  0.95418921029E+02  0.00000000000E+00 0.  1.
          6    1    1    2  501    0  0.10324756061E+03 -0.12862977696E+03  0.20075858762E+03  0.31215170798E+03  0.17300000000E+03 0.  1.
         -6    1    1    2    0  502 -0.10324756061E+03  0.12862977696E+03  0.31986526859E+03  0.39930999028E+03  0.17300000000E+03 0.  1.
<mgrwt>
<rscale>  2 0.23902861E+03</rscale>
<asrwt>0</asrwt>
<pdfrwt beam="1">  1       21 0.94775810E-01 0.23902861E+03</pdfrwt>
<pdfrwt beam="2">  1       21 0.14679834E-01 0.23902861E+03</pdfrwt>
<totfact> 0.37119725E+04</totfact>
</mgrwt>
</event>
<event>
 4    1  0.4072310E+000  0.1981027E+03  0.7546771E-02  0.1151350E+00
         21   -1    0    0  503  502  0.00000000000E+00  0.00000000000E+00  0.14211026918E+03  0.14211026918E+03  0.00000000000E+00 0. -1.
         21   -1    0    0  501  503 -0.00000000000E+00 -0.00000000000E+00 -0.27687438243E+03  0.27687438243E+03  0.00000000000E+00 0.  1.
          6    1    1    2  501    0 -0.14135790381E+02 -0.95476943846E+02 -0.78049704351E+02  0.21292351614E+03  0.17300000000E+03 0.  1.
         -6    1    1    2    0  502  0.14135790381E+02  0.95476943846E+02 -0.56714408892E+02  0.20606113547E+03  0.17300000000E+03 0. -1.
<mgrwt>
<rscale>  2 0.19810267E+03</rscale>
<asrwt>0</asrwt>
<pdfrwt beam="1">  1       21 0.21863118E-01 0.19810267E+03</pdfrwt>
<pdfrwt beam="2">  1       21 0.42596059E-01 0.19810267E+03</pdfrwt>
<totfact> 0.10333034E+05</totfact>
</mgrwt>
</event>
<event>
 4    1  0.4072310E+000  0.2654639E+03  0.7546771E-02  0.1103904E+00
         21   -1    0    0  503  502  0.00000000000E+00  0.00000000000E+00  0.50584105367E+03  0.50584105367E+03  0.00000000000E+00 0.  1.
         21   -1    0    0  501  503 -0.00000000000E+00 -0.00000000000E+00 -0.26728491794E+03  0.26728491794E+03  0.00000000000E+00 0. -1.
          6    1    1    2  501    0 -0.62512867411E+02  0.19140061975E+03 -0.14819965996E+03  0.30402992459E+03  0.17300000000E+03 0. -1.
         -6    1    1    2    0  502  0.62512867411E+02 -0.19140061975E+03  0.38675579568E+03  0.46909604702E+03  0.17300000000E+03 0.  1.
<mgrwt>
<rscale>  2 0.26546385E+03</rscale>
<asrwt>0</asrwt>
<pdfrwt beam="1">  1       21 0.77821700E-01 0.26546385E+03</pdfrwt>
<pdfrwt beam="2">  1       21 0.41120757E-01 0.26546385E+03</pdfrwt>
<totfact> 0.79626048E+03</totfact>
</mgrwt>
</event>
<event>
 4    1  0.4072310E+000  0.1760702E+03  0.7546771E-02  0.1171661E+00
         21   -1    0    0  501  502  0.00000000000E+00  0.00000000000E+00  0.29976408358E+03  0.29976408358E+03  0.00000000000E+00 0.  1.
         21   -1    0    0  502  503 -0.00000000000E+00 -0.00000000000E+00 -0.10792400366E+03  0.10792400366E+03  0.00000000000E+00 0.  1.
          6    1    1    2  501    0 -0.30836805522E+02 -0.10991668736E+02  0.13757620066E+03  0.22344560041E+03  0.17300000000E+03 0.  1.
         -6    1    1    2    0  503  0.30836805522E+02  0.10991668736E+02  0.54263879260E+02  0.18424248682E+03  0.17300000000E+03 0.  1.
<mgrwt>
<rscale>  2 0.17607023E+03</rscale>
<asrwt>0</asrwt>
<pdfrwt beam="1">  1       21 0.46117551E-01 0.17607023E+03</pdfrwt>
<pdfrwt beam="2">  1       21 0.16603693E-01 0.17607023E+03</pdfrwt>
<totfact> 0.14758628E+05</totfact>
</mgrwt>
</event>
<event>
 4    1  0.4072310E+000  0.1863155E+03  0.7546771E-02  0.1161827E+00
         21   -1    0    0  503  502  0.00000000000E+00  0.00000000000E+00  0.50049435619E+02  0.50049435619E+02  0.00000000000E+00 0. -1.
         21   -1    0    0  501  503 -0.00000000000E+00 -0.00000000000E+00 -0.72548645098E+03  0.72548645098E+03  0.00000000000E+00 0. -1.
          6    1    1    2  501    0 -0.68743926887E+02 -0.76641533500E+01 -0.41903378255E+03  0.45858780800E+03  0.17300000000E+03 0. -1.
         -6    1    1    2    0  502  0.68743926887E+02  0.76641533500E+01 -0.25640323281E+03  0.31694807860E+03  0.17300000000E+03 0. -1.
<mgrwt>
<rscale>  2 0.18631550E+03</rscale>
<asrwt>0</asrwt>
<pdfrwt beam="1">  1       21 0.76999138E-02 0.18631550E+03</pdfrwt>
<pdfrwt beam="2">  1       21 0.11161329E+00 0.18631550E+03</pdfrwt>
<totfact> 0.81087181E+04</totfact>
</mgrwt>
</event>
<event>
 4    1  0.4072310E+000  0.3546854E+03  0.7546771E-02  0.1060708E+00
         21   -1    0    0  503  502  0.00000000000E+00  0.00000000000E+00  0.10196680878E+04  0.10196680878E+04  0.00000000000E+00 0. -1.
         21   -1    0    0  501  503 -0.00000000000E+00 -0.00000000000E+00 -0.13400148619E+03  0.13400148619E+03  0.00000000000E+00 0.  1.
          6    1    1    2  501    0 -0.30102687371E+03  0.72495146759E+02  0.28039517253E+03  0.45213181461E+03  0.17300000000E+03 0. -1.
         -6    1    1    2    0  502  0.30102687371E+03 -0.72495146759E+02  0.60527142911E+03  0.70153775943E+03  0.17300000000E+03 0.  1.
<mgrwt>
<rscale>  2 0.35468539E+03</rscale>
<asrwt>0</asrwt>
<pdfrwt beam="1">  1       21 0.15687201E+00 0.35468539E+03</pdfrwt>
<pdfrwt beam="2">  1       21 0.20615614E-01 0.35468539E+03</pdfrwt>
<totfact> 0.52339951E+03</totfact>
</mgrwt>
</event>
<event>
 4    1  0.4072310E+000  0.1740599E+03  0.7546771E-02  0.1173679E+00
         21   -1    0    0  501  502  0.00000000000E+00  0.00000000000E+00  0.17438065656E+02  0.17438065656E+02  0.00000000000E+00 0. -1.
         21   -1    0    0  502  503 -0.00000000000E+00 -0.00000000000E+00 -0.18461564762E+04  0.18461564762E+04  0.00000000000E+00 0. -1.
          6    1    1    2  501    0 -0.99832784835E+01  0.16376022416E+02 -0.68819645494E+03  0.70986703019E+03  0.17300000000E+03 0. -1.
         -6    1    1    2    0  503  0.99832784835E+01 -0.16376022416E+02 -0.11405219556E+04  0.11537275117E+04  0.17300000000E+03 0. -1.
<mgrwt>
<rscale>  2 0.17405987E+03</rscale>
<asrwt>0</asrwt>
<pdfrwt beam="1">  1       21 0.26827810E-02 0.17405987E+03</pdfrwt>
<pdfrwt beam="2">  1       21 0.28402390E+00 0.17405987E+03</pdfrwt>
<totfact> 0.32668418E+04</totfact>
</mgrwt>
</event>
<event>
 4    1  0.4072310E+000  0.2415921E+03  0.7546771E-02  0.1118737E+00
         21   -1    0    0  503  502  0.00000000000E+00  0.00000000000E+00  0.92912124125E+03  0.92912124125E+03  0.00000000000E+00 0.  1.
         21   -1    0    0  501  503 -0.00000000000E+00 -0.00000000000E+00 -0.43737624028E+03  0.43737624028E+03  0.00000000000E+00 0. -1.
          6    1    1    2  501    0  0.15242728908E+03 -0.72136498291E+02 -0.38640855047E+03  0.45571736934E+03  0.17300000000E+03 0. -1.
         -6    1    1    2    0  502 -0.15242728908E+03  0.72136498291E+02  0.87815355144E+03  0.91078011218E+03  0.17300000000E+03 0.  1.
<mgrwt>
<rscale>  2 0.24159212E+03</rscale>
<asrwt>0</asrwt>
<pdfrwt beam="1">  1       21 0.14294173E+00 0.24159212E+03</pdfrwt>
<pdfrwt beam="2">  1       21 0.67288652E-01 0.24159212E+03</pdfrwt>
<totfact> 0.65263710E+02</totfact>
</mgrwt>
</event>
<event>
 4    1  0.4072310E+000  0.2258608E+03  0.7546771E-02  0.1129588E+00
         21   -1    0    0  503  502  0.00000000000E+00  0.00000000000E+00  0.14456854950E+03  0.14456854950E+03  0.00000000000E+00 0. -1.
         21   -1    0    0  501  503 -0.00000000000E+00 -0.00000000000E+00 -0.46121534226E+03  0.46121534226E+03  0.00000000000E+00 0. -1.
          6    1    1    2  501    0  0.10558204617E+03 -0.99682138296E+02 -0.30513222092E+03  0.37962977940E+03  0.17300000000E+03 0. -1.
         -6    1    1    2    0  502 -0.10558204617E+03  0.99682138296E+02 -0.11514571844E+02  0.22615411235E+03  0.17300000000E+03 0. -1.
<mgrwt>
<rscale>  2 0.22586079E+03</rscale>
<asrwt>0</asrwt>
<pdfrwt beam="1">  1       21 0.22241315E-01 0.22586079E+03</pdfrwt>
<pdfrwt beam="2">  1       21 0.70956207E-01 0.22586079E+03</pdfrwt>
<totfact> 0.33421569E+04</totfact>
</mgrwt>
</event>
<event>
 4    1  0.4072310E+000  0.1973570E+03  0.7546771E-02  0.1151988E+00
         21   -1    0    0  501  502  0.00000000000E+00  0.00000000000E+00  0.11085731172E+04  0.11085731172E+04  0.00000000000E+00 0.  1.
         21   -1    0    0  502  503 -0.00000000000E+00 -0.00000000000E+00 -0.13283316768E+03  0.13283316768E+03  0.00000000000E+00 0.  1.
          6    1    1    2  501    0 -0.16630212652E+02 -0.93510448918E+02  0.10201912027E+04  0.10391053162E+04  0.17300000000E+03 0.  1.
         -6    1    1    2    0  503  0.16630212652E+02  0.93510448918E+02 -0.44451253176E+02  0.20230096870E+03  0.17300000000E+03 0.  1.
<mgrwt>
<rscale>  2 0.19735696E+03</rscale>
<asrwt>0</asrwt>
<pdfrwt beam="1">  1       21 0.17054970E+00 0.19735696E+03</pdfrwt>
<pdfrwt beam="2">  1       21 0.20435873E-01 0.19735696E+03</pdfrwt>
<totfact> 0.46696286E+03</totfact>
</mgrwt>
</event>
<event>
 4    1  0.4072310E+000  0.2137103E+03  0.7546771E-02  0.1138661E+00
         21   -1    0    0  501  502  0.00000000000E+00  0.00000000000E+00  0.35732777640E+03  0.35732777640E+03  0.00000000000E+00 0.  1.
         21   -1    0    0  502  503 -0.00000000000E+00 -0.00000000000E+00 -0.13556988317E+03  0.13556988317E+03  0.00000000000E+00 0. -1.
          6    1    1    2  501    0 -0.87499549541E+02  0.89927403424E+02  0.16981926228E+03  0.27296646478E+03  0.17300000000E+03 0.  1.
         -6    1    1    2    0  503  0.87499549541E+02 -0.89927403424E+02  0.51938630950E+02  0.21993119479E+03  0.17300000000E+03 0. -1.
<mgrwt>
<rscale>  2 0.21371034E+03</rscale>
<asrwt>0</asrwt>
<pdfrwt beam="1">  1       21 0.54973504E-01 0.21371034E+03</pdfrwt>
<pdfrwt beam="2">  1       21 0.20856905E-01 0.21371034E+03</pdfrwt>
<totfact> 0.66003898E+04</totfact>
</mgrwt>
</event>
<event>
 4    1  0.4072310E+000  0.2103574E+03  0.7546771E-02  0.1141283E+00
         21   -1    0    0  501  502  0.00000000000E+00  0.00000000000E+00  0.22127455083E+03  0.22127455083E+03  0.00000000000E+00 0. -1.
         21   -1    0    0  502  503 -0.00000000000E+00 -0.00000000000E+00 -0.20380920531E+03  0.20380920531E+03  0.00000000000E+00 0. -1.
          6    1    1    2  501    0  0.49098800442E+02  0.10913547975E+03  0.37869906632E+02  0.21373903475E+03  0.17300000000E+03 0. -1.
         -6    1    1    2    0  503 -0.49098800442E+02 -0.10913547975E+03 -0.20404561113E+02  0.21134472139E+03  0.17300000000E+03 0. -1.
<mgrwt>
<rscale>  2 0.21035742E+03</rscale>
<asrwt>0</asrwt>
<pdfrwt beam="1">  1       21 0.34042239E-01 0.21035742E+03</pdfrwt>
<pdfrwt beam="2">  1       21 0.31355262E-01 0.21035742E+03</pdfrwt>
<totfact> 0.80660504E+04</totfact>
</mgrwt>
</event>
<event>
 4    1  0.4072310E+000  0.1741293E+03  0.7546771E-02  0.1173609E+00
         21   -1    0    0  503  502  0.00000000000E+00  0.00000000000E+00  0.42323226412E+03  0.42323226412E+03  0.00000000000E+00 0. -1.
         21   -1    0    0  501  503 -0.00000000000E+00 -0.00000000000E+00 -0.46170753791E+03  0.46170753791E+03  0.00000000000E+00 0. -1.
          6    1    1    2  501    0  0.12354145786E+02 -0.15472325776E+02 -0.42593306404E+03  0.46015214096E+03  0.17300000000E+03 0. -1.
         -6    1    1    2    0  502 -0.12354145786E+02  0.15472325776E+02  0.38745779025E+03  0.42478766108E+03  0.17300000000E+03 0. -1.
<mgrwt>
<rscale>  2 0.17412931E+03</rscale>
<asrwt>0</asrwt>
<pdfrwt beam="1">  1       21 0.65112656E-01 0.17412931E+03</pdfrwt>
<pdfrwt beam="2">  1       21 0.71031929E-01 0.17412931E+03</pdfrwt>
<totfact> 0.39562828E+03</totfact>
</mgrwt>
</event>
<event>
 4    1  0.4072310E+000  0.2795672E+03  0.7546771E-02  0.1095926E+00
         21   -1    0    0  503  502  0.00000000000E+00  0.00000000000E+00  0.38893576105E+03  0.38893576105E+03  0.00000000000E+00 0.  1.
         21   -1    0    0  501  503 -0.00000000000E+00 -0.00000000000E+00 -0.22997004135E+03  0.22997004135E+03  0.00000000000E+00 0.  1.
          6    1    1    2  501    0 -0.31936020649E+01 -0.21958744292E+03 -0.30439184029E+02  0.28121946608E+03  0.17300000000E+03 0.  1.
         -6    1    1    2    0  502  0.31936020649E+01  0.21958744292E+03  0.18940490373E+03  0.33768633632E+03  0.17300000000E+03 0.  1.
<mgrwt>
<rscale>  2 0.27956724E+03</rscale>
<asrwt>0</asrwt>
<pdfrwt beam="1">  1       21 0.59836271E-01 0.27956724E+03</pdfrwt>
<pdfrwt beam="2">  1       21 0.35380006E-01 0.27956724E+03</pdfrwt>
<totfact> 0.19191471E+04</totfact>
</mgrwt>
</event>
<event>
 4    1  0.4072310E+000  0.1792663E+03  0.7546771E-02  0.1168515E+00
         21   -1    0    0  503  502  0.00000000000E+00  0.00000000000E+00  0.33493297119E+03  0.33493297119E+03  0.00000000000E+00 0.  1.
         21   -1    0    0  501  503 -0.00000000000E+00 -0.00000000000E+00 -0.13176737239E+03  0.13176737239E+03  0.00000000000E+00 0.  1.
          6    1    1    2  501    0 -0.46878388986E+02  0.31338030759E+01 -0.20080207602E+02  0.18038741312E+03  0.17300000000E+03 0.  1.
         -6    1    1    2    0  502  0.46878388986E+02 -0.31338030759E+01  0.22324580640E+03  0.28631293046E+03  0.17300000000E+03 0.  1.
<mgrwt>
<rscale>  2 0.17926629E+03</rscale>
<asrwt>0</asrwt>
<pdfrwt beam="1">  1       21 0.51528149E-01 0.17926629E+03</pdfrwt>
<pdfrwt beam="2">  1       21 0.20271904E-01 0.17926629E+03</pdfrwt>
<totfact> 0.80975466E+04</totfact>
</mgrwt>
</event>
<event>
 4    1  0.4072310E+000  0.3720562E+03  0.7546771E-02  0.1053910E+00
         21   -1    0    0  503  502  0.00000000000E+00  0.00000000000E+00  0.87822308531E+03  0.87822308531E+03  0.00000000000E+00 0. -1.
         21   -1    0    0  501  503 -0.00000000000E+00 -0.00000000000E+00 -0.65192005535E+03  0.65192005535E+03  0.00000000000E+00 0.  1.
          6    1    1    2  501    0  0.27546951039E+03  0.18059166872E+03 -0.55304151275E+03  0.66654385962E+03  0.17300000000E+03 0.  1.
         -6    1    1    2    0  502 -0.27546951039E+03 -0.18059166872E+03  0.77934454271E+03  0.86359928104E+03  0.17300000000E+03 0. -1.
<mgrwt>
<rscale>  2 0.37205618E+03</rscale>
<asrwt>0</asrwt>
<pdfrwt beam="1">  1       21 0.13511124E+00 0.37205618E+03</pdfrwt>
<pdfrwt beam="2">  1       21 0.10029539E+00 0.37205618E+03</pdfrwt>
<totfact> 0.27442897E+02</totfact>
</mgrwt>
</event>
<event>
 4    1  0.4072310E+000  0.2279254E+03  0.7546771E-02  0.1128109E+00
         21   -1    0    0  501  502  0.00000000000E+00  0.00000000000E+00  0.27205614430E+03  0.27205614430E+03  0.00000000000E+00 0. -1.
         21   -1    0    0  502  503 -0.00000000000E+00 -0.00000000000E+00 -0.30659241397E+03  0.30659241397E+03  0.00000000000E+00 0. -1.
          6    1    1    2  501    0 -0.16048717689E+02 -0.14752427997E+03  0.16041935772E+03  0.27871911461E+03  0.17300000000E+03 0. -1.
         -6    1    1    2    0  503  0.16048717689E+02  0.14752427997E+03 -0.19495562739E+03  0.29992944365E+03  0.17300000000E+03 0. -1.
<mgrwt>
<rscale>  2 0.22792537E+03</rscale>
<asrwt>0</asrwt>
<pdfrwt beam="1">  1       21 0.41854791E-01 0.22792537E+03</pdfrwt>
<pdfrwt beam="2">  1       21 0.47168064E-01 0.22792537E+03</pdfrwt>
<totfact> 0.23173637E+04</totfact>
</mgrwt>
</event>
<event>
 4    1  0.4072310E+000  0.2504139E+03  0.7546771E-02  0.1113043E+00
         21   -1    0    0  503  502  0.00000000000E+00  0.00000000000E+00  0.64637135105E+03  0.64637135105E+03  0.00000000000E+00 0.  1.
         21   -1    0    0  501  503 -0.00000000000E+00 -0.00000000000E+00 -0.23390206595E+03  0.23390206595E+03  0.00000000000E+00 0. -1.
          6    1    1    2  501    0 -0.17250992701E+03  0.54940607853E+02 -0.13047315346E+03  0.28236570097E+03  0.17300000000E+03 0. -1.
         -6    1    1    2    0  502  0.17250992701E+03 -0.54940607853E+02  0.54294243855E+03  0.59790771603E+03  0.17300000000E+03 0.  1.
<mgrwt>
<rscale>  2 0.25041395E+03</rscale>
<asrwt>0</asrwt>
<pdfrwt beam="1">  1       21 0.99441745E-01 0.25041395E+03</pdfrwt>
<pdfrwt beam="2">  1       21 0.35984934E-01 0.25041395E+03</pdfrwt>
<totfact> 0.59520678E+03</totfact>
</mgrwt>
</event>
<event>
 4    1  0.4072310E+000  0.1854336E+03  0.7546771E-02  0.1162646E+00
         21   -1    0    0  503  502  0.00000000000E+00  0.00000000000E+00  0.15946548895E+04  0.15946548895E+04  0.00000000000E+00 0.  1.
         21   -1    0    0  501  503 -0.00000000000E+00 -0.00000000000E+00 -0.24067454480E+02  0.24067454480E+02  0.00000000000E+00 0.  1.
          6    1    1    2  501    0  0.65895532053E+02  0.10696218201E+02  0.52421039217E+03  0.55604151417E+03  0.17300000000E+03 0.  1.
         -6    1    1    2    0  502 -0.65895532053E+02 -0.10696218201E+02  0.10463770429E+04  0.10626808298E+04  0.17300000000E+03 0.  1.
<mgrwt>
<rscale>  2 0.18543363E+03</rscale>
<asrwt>0</asrwt>
<pdfrwt beam="1">  1       21 0.24533144E+00 0.18543363E+03</pdfrwt>
<pdfrwt beam="2">  1       21 0.37026865E-02 0.18543363E+03</pdfrwt>
<totfact> 0.31777563E+04</totfact>
</mgrwt>
</event>
<event>
 4    1  0.4072310E+000  0.2092906E+03  0.7546771E-02  0.1142129E+00
         21   -1    0    0  501  502  0.00000000000E+00  0.00000000000E+00  0.29229605740E+03  0.29229605740E+03  0.00000000000E+00 0. -1.
         21   -1    0    0  502  503 -0.00000000000E+00 -0.00000000000E+00 -0.23698994152E+03  0.23698994152E+03  0.00000000000E+00 0.  1.
          6    1    1    2  501    0 -0.10871645616E+03 -0.45324287166E+02  0.18812055535E+03  0.28141055806E+03  0.17300000000E+03 0. -1.
         -6    1    1    2    0  503  0.10871645616E+03  0.45324287166E+02 -0.13281443947E+03  0.24787544085E+03  0.17300000000E+03 0.  1.
<mgrwt>
<rscale>  2 0.20929061E+03</rscale>
<asrwt>0</asrwt>
<pdfrwt beam="1">  1       21 0.44968624E-01 0.20929061E+03</pdfrwt>
<pdfrwt beam="2">  1       21 0.36459991E-01 0.20929061E+03</pdfrwt>
<totfact> 0.34124976E+04</totfact>
</mgrwt>
</event>
<event>
 4    1  0.4072310E+000  0.1977933E+03  0.7546771E-02  0.1151614E+00
         21   -1    0    0  503  502  0.00000000000E+00  0.00000000000E+00  0.63413951656E+03  0.63413951656E+03  0.00000000000E+00 0.  1.
         21   -1    0    0  501  503 -0.00000000000E+00 -0.00000000000E+00 -0.12573487042E+03  0.12573487042E+03  0.00000000000E+00 0.  1.
          6    1    1    2  501    0  0.95683611122E+02 -0.61525227641E+01 -0.16950839072E+02  0.19851835663E+03  0.17300000000E+03 0.  1.
         -6    1    1    2    0  502 -0.95683611122E+02  0.61525227641E+01  0.52535548520E+03  0.56135603035E+03  0.17300000000E+03 0.  1.
<mgrwt>
<rscale>  2 0.19779334E+03</rscale>
<asrwt>0</asrwt>
<pdfrwt beam="1">  1       21 0.97559924E-01 0.19779334E+03</pdfrwt>
<pdfrwt beam="2">  1       21 0.19343827E-01 0.19779334E+03</pdfrwt>
<totfact> 0.21311171E+04</totfact>
</mgrwt>
</event>
<event>
 4    1  0.4072310E+000  0.2135261E+03  0.7546771E-02  0.1138804E+00
         21   -1    0    0  503  502  0.00000000000E+00  0.00000000000E+00  0.29849499341E+02  0.29849499341E+02  0.00000000000E+00 0.  1.
         21   -1    0    0  501  503 -0.00000000000E+00 -0.00000000000E+00 -0.15746152739E+04  0.15746152739E+04  0.00000000000E+00 0.  1.
          6    1    1    2  501    0 -0.11802302157E+03  0.41653031217E+02 -0.91123624812E+03  0.93591928525E+03  0.17300000000E+03 0.  1.
         -6    1    1    2    0  502  0.11802302157E+03 -0.41653031217E+02 -0.63352952641E+03  0.66854548796E+03  0.17300000000E+03 0.  1.
<mgrwt>
<rscale>  2 0.21352613E+03</rscale>
<asrwt>0</asrwt>
<pdfrwt beam="1">  1       21 0.45922311E-02 0.21352613E+03</pdfrwt>
<pdfrwt beam="2">  1       21 0.24224848E+00 0.21352613E+03</pdfrwt>
<totfact> 0.22562113E+04</totfact>
</mgrwt>
</event>
<event>
 4    1  0.4072310E+000  0.2595460E+03  0.7546771E-02  0.1107416E+00
         21   -1    0    0  503  502  0.00000000000E+00  0.00000000000E+00  0.72981813883E+02  0.72981813883E+02  0.00000000000E+00 0. -1.
         21   -1    0    0  501  503 -0.00000000000E+00 -0.00000000000E+00 -0.12162108263E+04  0.12162108263E+04  0.00000000000E+00 0.  1.
          6    1    1    2  501    0  0.17075368887E+03  0.90985058291E+02 -0.88810030112E+03  0.92524928962E+03  0.17300000000E+03 0.  1.
         -6    1    1    2    0  502 -0.17075368887E+03 -0.90985058291E+02 -0.25512871132E+03  0.36394335058E+03  0.17300000000E+03 0. -1.
<mgrwt>
<rscale>  2 0.25954596E+03</rscale>
<asrwt>0</asrwt>
<pdfrwt beam="1">  1       21 0.11227973E-01 0.25954596E+03</pdfrwt>
<pdfrwt beam="2">  1       21 0.18710934E+00 0.25954596E+03</pdfrwt>
<totfact> 0.10265218E+04</totfact>
</mgrwt>
</event>
<event>
 4    1  0.4072310E+000  0.2009893E+03  0.7546771E-02  0.1148907E+00
         21   -1    0    0  501  502  0.00000000000E+00  0.00000000000E+00  0.63028527372E+02  0.63028527372E+02  0.00000000000E+00 0.  1.
         21   -1    0    0  502  503 -0.00000000000E+00 -0.00000000000E+00 -0.64816963312E+03  0.64816963312E+03  0.00000000000E+00 0.  1.
          6    1    1    2  501    0  0.55100157927E+02  0.86207177876E+02 -0.25498204916E+03  0.32467298981E+03  0.17300000000E+03 0.  1.
         -6    1    1    2    0  503 -0.55100157927E+02 -0.86207177876E+02 -0.33015905659E+03  0.38652517068E+03  0.17300000000E+03 0.  1.
<mgrwt>
<rscale>  2 0.20098932E+03</rscale>
<asrwt>0</asrwt>
<pdfrwt beam="1">  1       21 0.96966959E-02 0.20098932E+03</pdfrwt>
<pdfrwt beam="2">  1       21 0.99718412E-01 0.20098932E+03</pdfrwt>
<totfact> 0.70531090E+04</totfact>
</mgrwt>
</event>
<event>
 4    1  0.4072310E+000  0.1848716E+03  0.7546771E-02  0.1163170E+00
         21   -1    0    0  501  502  0.00000000000E+00  0.00000000000E+00  0.51539138210E+02  0.51539138210E+02  0.00000000000E+00 0. -1.
         21   -1    0    0  502  503 -0.00000000000E+00 -0.00000000000E+00 -0.66340701762E+03  0.66340701762E+03  0.00000000000E+00 0. -1.
          6    1    1    2  501    0  0.64063117307E+02 -0.12018352743E+02 -0.31314212616E+03  0.36364201487E+03  0.17300000000E+03 0. -1.
         -6    1    1    2    0  503 -0.64063117307E+02  0.12018352743E+02 -0.29872575324E+03  0.35130414096E+03  0.17300000000E+03 0. -1.
<mgrwt>
<rscale>  2 0.18487164E+03</rscale>
<asrwt>0</asrwt>
<pdfrwt beam="1">  1       21 0.79290989E-02 0.18487164E+03</pdfrwt>
<pdfrwt beam="2">  1       21 0.10206261E+00 0.18487164E+03</pdfrwt>
<totfact> 0.95614164E+04</totfact>
</mgrwt>
</event>
<event>
 4    1  0.4072310E+000  0.2620076E+03  0.7546771E-02  0.1105943E+00
         21   -1    0    0  501  502  0.00000000000E+00  0.00000000000E+00  0.25212960729E+03  0.25212960729E+03  0.00000000000E+00 0. -1.
         21   -1    0    0  502  503 -0.00000000000E+00 -0.00000000000E+00 -0.34246327939E+03  0.34246327939E+03  0.00000000000E+00 0. -1.
          6    1    1    2  501    0  0.16694356925E+03 -0.10415771674E+03  0.89426144917E+02  0.27684837126E+03  0.17300000000E+03 0. -1.
         -6    1    1    2    0  503 -0.16694356925E+03  0.10415771674E+03 -0.17975981702E+03  0.31774451543E+03  0.17300000000E+03 0. -1.
<mgrwt>
<rscale>  2 0.26200761E+03</rscale>
<asrwt>0</asrwt>
<pdfrwt beam="1">  1       21 0.38789171E-01 0.26200761E+03</pdfrwt>
<pdfrwt beam="2">  1       21 0.52686658E-01 0.26200761E+03</pdfrwt>
<totfact> 0.21101738E+04</totfact>
</mgrwt>
</event>
<event>
 4    1  0.4072310E+000  0.1836286E+03  0.7546771E-02  0.1164337E+00
         21   -1    0    0  501  502  0.00000000000E+00  0.00000000000E+00  0.39221354187E+03  0.39221354187E+03  0.00000000000E+00 0. -1.
         21   -1    0    0  502  503 -0.00000000000E+00 -0.00000000000E+00 -0.88074554554E+02  0.88074554554E+02  0.00000000000E+00 0. -1.
          6    1    1    2  501    0  0.14434936935E+02 -0.59850564271E+02  0.18917176798E+03  0.26363879694E+03  0.17300000000E+03 0.  1.
         -6    1    1    2    0  503 -0.14434936935E+02  0.59850564271E+02  0.11496721933E+03  0.21664929949E+03  0.17300000000E+03 0.  1.
<mgrwt>
<rscale>  2 0.18362859E+03</rscale>
<asrwt>0</asrwt>
<pdfrwt beam="1">  1       21 0.60340544E-01 0.18362859E+03</pdfrwt>
<pdfrwt beam="2">  1       21 0.13549932E-01 0.18362859E+03</pdfrwt>
<totfact> 0.12114190E+05</totfact>
</mgrwt>
</event>
<event>
 4    1  0.4072310E+000  0.2531297E+03  0.7546771E-02  0.1111343E+00
         21   -1    0    0  501  502  0.00000000000E+00  0.00000000000E+00  0.60327002226E+02  0.60327002226E+02  0.00000000000E+00 0. -1.
         21   -1    0    0  502  503 -0.00000000000E+00 -0.00000000000E+00 -0.15947461446E+04  0.15947461446E+04  0.00000000000E+00 0.  1.
          6    1    1    2  501    0  0.10523184843E+03 -0.15189434363E+03 -0.28896300612E+03  0.38415394370E+03  0.17300000000E+03 0. -1.
         -6    1    1    2    0  503 -0.10523184843E+03  0.15189434363E+03 -0.12454561363E+04  0.12709192032E+04  0.17300000000E+03 0.  1.
<mgrwt>
<rscale>  2 0.25312968E+03</rscale>
<asrwt>0</asrwt>
<pdfrwt beam="1">  1       21 0.92810752E-02 0.25312968E+03</pdfrwt>
<pdfrwt beam="2">  1       21 0.24534561E+00 0.25312968E+03</pdfrwt>
<totfact> 0.62140069E+03</totfact>
</mgrwt>
</event>
<event>
 4    1  0.4072310E+000  0.1904142E+03  0.7546771E-02  0.1158088E+00
         21   -1    0    0  503  502  0.00000000000E+00  0.00000000000E+00  0.23609643481E+03  0.23609643481E+03  0.00000000000E+00 0.  1.
         21   -1    0    0  501  503 -0.00000000000E+00 -0.00000000000E+00 -0.17697155493E+03  0.17697155493E+03  0.00000000000E+00 0. -1.
          6    1    1    2  501    0  0.74357741435E+02  0.28275355228E+02 -0.45539773980E+02  0.19578416800E+03  0.17300000000E+03 0. -1.
         -6    1    1    2    0  502 -0.74357741435E+02 -0.28275355228E+02  0.10466465385E+03  0.21728382174E+03  0.17300000000E+03 0.  1.
<mgrwt>
<rscale>  2 0.19041420E+03</rscale>
<asrwt>0</asrwt>
<pdfrwt beam="1">  1       21 0.36322528E-01 0.19041420E+03</pdfrwt>
<pdfrwt beam="2">  1       21 0.27226393E-01 0.19041420E+03</pdfrwt>
<totfact> 0.94091161E+04</totfact>
</mgrwt>
</event>
<event>
 4    1  0.4072310E+000  0.1889579E+03  0.7546771E-02  0.1159405E+00
         21   -1    0    0  503  502  0.00000000000E+00  0.00000000000E+00  0.35675835292E+03  0.35675835292E+03  0.00000000000E+00 0. -1.
         21   -1    0    0  501  503 -0.00000000000E+00 -0.00000000000E+00 -0.12848559555E+03  0.12848559555E+03  0.00000000000E+00 0.  1.
          6    1    1    2  501    0  0.44271707131E+02  0.61774761997E+02  0.61705601393E-01  0.18895795585E+03  0.17300000000E+03 0.  1.
         -6    1    1    2    0  502 -0.44271707131E+02 -0.61774761997E+02  0.22821105177E+03  0.29628599262E+03  0.17300000000E+03 0. -1.
<mgrwt>
<rscale>  2 0.18895795E+03</rscale>
<asrwt>0</asrwt>
<pdfrwt beam="1">  1       21 0.54885900E-01 0.18895795E+03</pdfrwt>
<pdfrwt beam="2">  1       21 0.19767015E-01 0.18895795E+03</pdfrwt>
<totfact> 0.74032158E+04</totfact>
</mgrwt>
</event>
<event>
 4    1  0.4072310E+000  0.1769852E+03  0.7546771E-02  0.1170753E+00
         21   -1    0    0  503  502  0.00000000000E+00  0.00000000000E+00  0.97655087889E+03  0.97655087889E+03  0.00000000000E+00 0. -1.
         21   -1    0    0  501  503 -0.00000000000E+00 -0.00000000000E+00 -0.48326398923E+02  0.48326398923E+02  0.00000000000E+00 0. -1.
          6    1    1    2  501    0  0.35117864039E+02  0.12708827548E+02  0.16695755198E+03  0.24330763004E+03  0.17300000000E+03 0.  1.
         -6    1    1    2    0  502 -0.35117864039E+02 -0.12708827548E+02  0.76126692799E+03  0.78156964778E+03  0.17300000000E+03 0.  1.
<mgrwt>
<rscale>  2 0.17698525E+03</rscale>
<asrwt>0</asrwt>
<pdfrwt beam="1">  1       21 0.15023858E+00 0.17698525E+03</pdfrwt>
<pdfrwt beam="2">  1       21 0.74348313E-02 0.17698525E+03</pdfrwt>
<totfact> 0.40944022E+04</totfact>
</mgrwt>
</event>
<event>
 4    1  0.4072310E+000  0.3069043E+03  0.7546771E-02  0.1081839E+00
         21   -1    0    0  501  502  0.00000000000E+00  0.00000000000E+00  0.13213802145E+04  0.13213802145E+04  0.00000000000E+00 0. -1.
         21   -1    0    0  502  503 -0.00000000000E+00 -0.00000000000E+00 -0.74470541008E+02  0.74470541008E+02  0.00000000000E+00 0.  1.
          6    1    1    2  501    0 -0.17511085488E+03 -0.18329605301E+03  0.76787632055E+03  0.82693669540E+03  0.17300000000E+03 0. -1.
         -6    1    1    2    0  503  0.17511085488E+03  0.18329605301E+03  0.47903335293E+03  0.56891406009E+03  0.17300000000E+03 0.  1.
<mgrwt>
<rscale>  2 0.30690431E+03</rscale>
<asrwt>0</asrwt>
<pdfrwt beam="1">  1       21 0.20328925E+00 0.30690431E+03</pdfrwt>
<pdfrwt beam="2">  1       21 0.11457007E-01 0.30690431E+03</pdfrwt>
<totfact> 0.75234576E+03</totfact>
</mgrwt>
</event>
<event>
 4    1  0.4072310E+000  0.1788859E+03  0.7546771E-02  0.1168886E+00
         21   -1    0    0  501  502  0.00000000000E+00  0.00000000000E+00  0.60830017562E+03  0.60830017562E+03  0.00000000000E+00 0. -1.
         21   -1    0    0  502  503 -0.00000000000E+00 -0.00000000000E+00 -0.58068653358E+02  0.58068653358E+02  0.00000000000E+00 0. -1.
          6    1    1    2  501    0 -0.10423471011E+02  0.44300277059E+02  0.37730862536E+03  0.41756671571E+03  0.17300000000E+03 0.  1.
         -6    1    1    2    0  503  0.10423471011E+02 -0.44300277059E+02  0.17292289690E+03  0.24880211327E+03  0.17300000000E+03 0.  1.
<mgrwt>
<rscale>  2 0.17888589E+03</rscale>
<asrwt>0</asrwt>
<pdfrwt beam="1">  1       21 0.93584638E-01 0.17888589E+03</pdfrwt>
<pdfrwt beam="2">  1       21 0.89336394E-02 0.17888589E+03</pdfrwt>
<totfact> 0.95483403E+04</totfact>
</mgrwt>
</event>
<event>
 4    1  0.4072310E+000  0.1778927E+03  0.7546771E-02  0.1169858E+00
         21   -1    0    0  501  502  0.00000000000E+00  0.00000000000E+00  0.10719190644E+03  0.10719190644E+03  0.00000000000E+00 0. -1.
         21   -1    0    0  502  503 -0.00000000000E+00 -0.00000000000E+00 -0.31951384647E+03  0.31951384647E+03  0.00000000000E+00 0. -1.
          6    1    1    2  501    0 -0.34481235373E+02  0.22975274666E+02 -0.47337621342E+02  0.18408332144E+03  0.17300000000E+03 0. -1.
         -6    1    1    2    0  503  0.34481235373E+02 -0.22975274666E+02 -0.16498431869E+03  0.24262243147E+03  0.17300000000E+03 0. -1.
<mgrwt>
<rscale>  2 0.17789272E+03</rscale>
<asrwt>0</asrwt>
<pdfrwt beam="1">  1       21 0.16491063E-01 0.17789272E+03</pdfrwt>
<pdfrwt beam="2">  1       21 0.49155975E-01 0.17789272E+03</pdfrwt>
<totfact> 0.13090181E+05</totfact>
</mgrwt>
</event>
<event>
 4    1  0.4072310E+000  0.1933581E+03  0.7546771E-02  0.1155467E+00
         21   -1    0    0  501  502  0.00000000000E+00  0.00000000000E+00  0.17930822193E+03  0.17930822193E+03  0.00000000000E+00 0.  1.
         21   -1    0    0  502  503 -0.00000000000E+00 -0.00000000000E+00 -0.41012620043E+03  0.41012620043E+03  0.00000000000E+00 0. -1.
          6    1    1    2  501    0  0.85986273373E+02 -0.80456358568E+01  0.91229192248E+02  0.21379929135E+03  0.17300000000E+03 0.  1.
         -6    1    1    2    0  503 -0.85986273373E+02  0.80456358568E+01 -0.32204717074E+03  0.37563513101E+03  0.17300000000E+03 0. -1.
<mgrwt>
<rscale>  2 0.19335814E+03</rscale>
<asrwt>0</asrwt>
<pdfrwt beam="1">  1       21 0.27585881E-01 0.19335814E+03</pdfrwt>
<pdfrwt beam="2">  1       21 0.63096338E-01 0.19335814E+03</pdfrwt>
<totfact> 0.29141879E+04</totfact>
</mgrwt>
</event>
<event>
 4    1  0.4072310E+000  0.2130697E+03  0.7546771E-02  0.1139158E+00
         21   -1    0    0  503  502  0.00000000000E+00  0.00000000000E+00  0.14104265216E+03  0.14104265216E+03  0.00000000000E+00 0. -1.
         21   -1    0    0  501  503 -0.00000000000E+00 -0.00000000000E+00 -0.34186985262E+03  0.34186985262E+03  0.00000000000E+00 0.  1.
          6    1    1    2  501    0  0.12025290680E+03  0.31763434736E+02 -0.15880151655E+03  0.26573783893E+03  0.17300000000E+03 0. -1.
         -6    1    1    2    0  502 -0.12025290680E+03 -0.31763434736E+02 -0.42025683916E+02  0.21717466585E+03  0.17300000000E+03 0. -1.
<mgrwt>
<rscale>  2 0.21306965E+03</rscale>
<asrwt>0</asrwt>
<pdfrwt beam="1">  1       21 0.21698870E-01 0.21306965E+03</pdfrwt>
<pdfrwt beam="2">  1       21 0.52595361E-01 0.21306965E+03</pdfrwt>
<totfact> 0.67284271E+04</totfact>
</mgrwt>
</event>
<event>
 4    1  0.4072310E+000  0.1787940E+03  0.7546771E-02  0.1168975E+00
         21   -1    0    0  501  502  0.00000000000E+00  0.00000000000E+00  0.68687012233E+02  0.68687012233E+02  0.00000000000E+00 0.  1.
         21   -1    0    0  502  503 -0.00000000000E+00 -0.00000000000E+00 -0.71313384331E+03  0.71313384331E+03  0.00000000000E+00 0. -1.
          6    1    1    2  501    0 -0.40694793129E+02  0.19550416442E+02 -0.91824759034E+02  0.20099520229E+03  0.17300000000E+03 0.  1.
         -6    1    1    2    0  503  0.40694793129E+02 -0.19550416442E+02 -0.55262207204E+03  0.58082565325E+03  0.17300000000E+03 0. -1.
<mgrwt>
<rscale>  2 0.17879397E+03</rscale>
<asrwt>0</asrwt>
<pdfrwt beam="1">  1       21 0.10567233E-01 0.17879397E+03</pdfrwt>
<pdfrwt beam="2">  1       21 0.10971290E+00 0.17879397E+03</pdfrwt>
<totfact> 0.48716171E+04</totfact>
</mgrwt>
</event>
<event>
 4    1  0.4072310E+000  0.1761510E+03  0.7546771E-02  0.1171581E+00
         21   -1    0    0  501  502  0.00000000000E+00  0.00000000000E+00  0.94835940312E+02  0.94835940312E+02  0.00000000000E+00 0.  1.
         21   -1    0    0  502  503 -0.00000000000E+00 -0.00000000000E+00 -0.33097348690E+03  0.33097348690E+03  0.00000000000E+00 0.  1.
          6    1    1    2  501    0  0.29268652230E+02  0.15605228694E+02 -0.95299338358E+02  0.20027765991E+03  0.17300000000E+03 0.  1.
         -6    1    1    2    0  503 -0.29268652230E+02 -0.15605228694E+02 -0.14083820823E+03  0.22553176730E+03  0.17300000000E+03 0.  1.
<mgrwt>
<rscale>  2 0.17615101E+03</rscale>
<asrwt>0</asrwt>
<pdfrwt beam="1">  1       21 0.14590145E-01 0.17615101E+03</pdfrwt>
<pdfrwt beam="2">  1       21 0.50918998E-01 0.17615101E+03</pdfrwt>
<totfact> 0.15215296E+05</totfact>
</mgrwt>
</event>
<event>
 4    1  0.4072310E+000  0.1909662E+03  0.7546771E-02  0.1157593E+00
         21   -1    0    0  501  502  0.00000000000E+00  0.00000000000E+00  0.11145309047E+03  0.11145309047E+03  0.00000000000E+00 0.  1.
         21   -1    0    0  502  503 -0.00000000000E+00 -0.00000000000E+00 -0.93541572119E+03  0.93541572119E+03  0.00000000000E+00 0.  1.
          6    1    1    2  501    0  0.76396910241E+01 -0.80502981800E+02  0.10090830261E+02  0.19123263271E+03  0.17300000000E+03 0.  1.
         -6    1    1    2    0  503 -0.76396910241E+01  0.80502981800E+02 -0.83405346098E+03  0.85563617895E+03  0.17300000000E+03 0.  1.
<mgrwt>
<rscale>  2 0.19096621E+03</rscale>
<asrwt>0</asrwt>
<pdfrwt beam="1">  1       21 0.17146630E-01 0.19096621E+03</pdfrwt>
<pdfrwt beam="2">  1       21 0.14391011E+00 0.19096621E+03</pdfrwt>
<totfact> 0.10243551E+04</totfact>
</mgrwt>
</event>
<event>
 4    1  0.4072310E+000  0.1924602E+03  0.7546771E-02  0.1156261E+00
         21   -1    0    0  501  502  0.00000000000E+00  0.00000000000E+00  0.14978075722E+03  0.14978075722E+03  0.00000000000E+00 0. -1.
         21   -1    0    0  502  503 -0.00000000000E+00 -0.00000000000E+00 -0.26217888459E+03  0.26217888459E+03  0.00000000000E+00 0. -1.
          6    1    1    2  501    0  0.84010252690E+02  0.73612164643E+01 -0.71310523250E+01  0.19259221680E+03  0.17300000000E+03 0. -1.
         -6    1    1    2    0  503 -0.84010252690E+02 -0.73612164643E+01 -0.10526707505E+03  0.21936742501E+03  0.17300000000E+03 0. -1.
<mgrwt>
<rscale>  2 0.19246015E+03</rscale>
<asrwt>0</asrwt>
<pdfrwt beam="1">  1       21 0.23043194E-01 0.19246015E+03</pdfrwt>
<pdfrwt beam="2">  1       21 0.40335212E-01 0.19246015E+03</pdfrwt>
<totfact> 0.10476069E+05</totfact>
</mgrwt>
</event>
<event>
 4    1  0.4072310E+000  0.2012445E+03  0.7546771E-02  0.1148693E+00
         21   -1    0    0  501  502  0.00000000000E+00  0.00000000000E+00  0.24998237120E+02  0.24998237120E+02  0.00000000000E+00 0. -1.
         21   -1    0    0  502  503 -0.00000000000E+00 -0.00000000000E+00 -0.16629937123E+04  0.16629937123E+04  0.00000000000E+00 0. -1.
          6    1    1    2  501    0  0.54199619691E+02 -0.87365643538E+02 -0.68343182224E+03  0.71244537341E+03  0.17300000000E+03 0. -1.
         -6    1    1    2    0  503 -0.54199619691E+02  0.87365643538E+02 -0.95456365289E+03  0.97554657596E+03  0.17300000000E+03 0. -1.
<mgrwt>
<rscale>  2 0.20124451E+03</rscale>
<asrwt>0</asrwt>
<pdfrwt beam="1">  1       21 0.38458832E-02 0.20124451E+03</pdfrwt>
<pdfrwt beam="2">  1       21 0.25584515E+00 0.20124451E+03</pdfrwt>
<totfact> 0.25528037E+04</totfact>
</mgrwt>
</event>
<event>
 4    1  0.4072310E+000  0.2882273E+03  0.7546771E-02  0.1091278E+00
         21   -1    0    0  501  502  0.00000000000E+00  0.00000000000E+00  0.12784903837E+04  0.12784903837E+04  0.00000000000E+00 0.  1.
         21   -1    0    0  502  503 -0.00000000000E+00 -0.00000000000E+00 -0.92220223515E+02  0.92220223515E+02  0.00000000000E+00 0. -1.
          6    1    1    2  501    0  0.85003730723E+02 -0.21429030943E+03  0.96562656099E+03  0.10077249755E+04  0.17300000000E+03 0.  1.
         -6    1    1    2    0  503 -0.85003730723E+02  0.21429030943E+03  0.22064359914E+03  0.36298563166E+03  0.17300000000E+03 0. -1.
<mgrwt>
<rscale>  2 0.28822729E+03</rscale>
<asrwt>0</asrwt>
<pdfrwt beam="1">  1       21 0.19669081E+00 0.28822729E+03</pdfrwt>
<pdfrwt beam="2">  1       21 0.14187728E-01 0.28822729E+03</pdfrwt>
<totfact> 0.56991311E+03</totfact>
</mgrwt>
</event>
<event>
 4    1  0.4072310E+000  0.1748675E+03  0.7546771E-02  0.1172865E+00
         21   -1    0    0  501  502  0.00000000000E+00  0.00000000000E+00  0.24293805237E+03  0.24293805237E+03  0.00000000000E+00 0.  1.
         21   -1    0    0  502  503 -0.00000000000E+00 -0.00000000000E+00 -0.26552514208E+03  0.26552514208E+03  0.00000000000E+00 0.  1.
          6    1    1    2  501    0  0.79911192900E+01 -0.24203118150E+02  0.17308268677E+03  0.24604118634E+03  0.17300000000E+03 0.  1.
         -6    1    1    2    0  503 -0.79911192900E+01  0.24203118150E+02 -0.19566977648E+03  0.26242200812E+03  0.17300000000E+03 0.  1.
<mgrwt>
<rscale>  2 0.17486752E+03</rscale>
<asrwt>0</asrwt>
<pdfrwt beam="1">  1       21 0.37375085E-01 0.17486752E+03</pdfrwt>
<pdfrwt beam="2">  1       21 0.40850022E-01 0.17486752E+03</pdfrwt>
<totfact> 0.40214691E+04</totfact>
</mgrwt>
</event>
<event>
 4    1  0.4072310E+000  0.2083742E+03  0.7546771E-02  0.1142860E+00
         21   -1    0    0  501  502  0.00000000000E+00  0.00000000000E+00  0.22710098143E+03  0.22710098143E+03  0.00000000000E+00 0.  1.
         21   -1    0    0  502  503 -0.00000000000E+00 -0.00000000000E+00 -0.23345894111E+03  0.23345894111E+03  0.00000000000E+00 0.  1.
          6    1    1    2  501    0 -0.53624895250E+02  0.10302990043E+03  0.94804664397E+02  0.22892731197E+03  0.17300000000E+03 0.  1.
         -6    1    1    2    0  503  0.53624895250E+02 -0.10302990043E+03 -0.10116262407E+03  0.23163261058E+03  0.17300000000E+03 0.  1.
<mgrwt>
<rscale>  2 0.20837416E+03</rscale>
<asrwt>0</asrwt>
<pdfrwt beam="1">  1       21 0.34938612E-01 0.20837416E+03</pdfrwt>
<pdfrwt beam="2">  1       21 0.35916760E-01 0.20837416E+03</pdfrwt>
<totfact> 0.58600159E+04</totfact>
</mgrwt>
</event>
<event>
 4    1  0.4072310E+000  0.2227140E+03  0.7546771E-02  0.1131876E+00
         21   -1    0    0  501  502  0.00000000000E+00  0.00000000000E+00  0.54250484840E+03  0.54250484840E+03  0.00000000000E+00 0. -1.
         21   -1    0    0  502  503 -0.00000000000E+00 -0.00000000000E+00 -0.24767701570E+03  0.24767701570E+03  0.00000000000E+00 0. -1.
          6    1    1    2  501    0  0.38548877270E+01 -0.14020573813E+03  0.46121853359E+03  0.51217579491E+03  0.17300000000E+03 0. -1.
         -6    1    1    2    0  503 -0.38548877270E+01  0.14020573813E+03 -0.16639070090E+03  0.27800606919E+03  0.17300000000E+03 0. -1.
<mgrwt>
<rscale>  2 0.22271396E+03</rscale>
<asrwt>0</asrwt>
<pdfrwt beam="1">  1       21 0.83462284E-01 0.22271396E+03</pdfrwt>
<pdfrwt beam="2">  1       21 0.38104156E-01 0.22271396E+03</pdfrwt>
<totfact> 0.81264635E+03</totfact>
</mgrwt>
</event>
<event>
 4    1  0.4072310E+000  0.2852310E+03  0.7546771E-02  0.1092866E+00
         21   -1    0    0  503  502  0.00000000000E+00  0.00000000000E+00  0.10235493300E+04  0.10235493300E+04  0.00000000000E+00 0.  1.
         21   -1    0    0  501  503 -0.00000000000E+00 -0.00000000000E+00 -0.41332319838E+03  0.41332319838E+03  0.00000000000E+00 0.  1.
          6    1    1    2  501    0  0.10242377994E+03 -0.20232919974E+03 -0.34055814388E+03  0.44422582672E+03  0.17300000000E+03 0.  1.
         -6    1    1    2    0  502 -0.10242377994E+03  0.20232919974E+03  0.95078427551E+03  0.99264670166E+03  0.17300000000E+03 0.  1.
<mgrwt>
<rscale>  2 0.28523102E+03</rscale>
<asrwt>0</asrwt>
<pdfrwt beam="1">  1       21 0.15746913E+00 0.28523102E+03</pdfrwt>
<pdfrwt beam="2">  1       21 0.63588185E-01 0.28523102E+03</pdfrwt>
<totfact> 0.55071347E+02</totfact>
</mgrwt>
</event>
<event>
 4    1  0.4072310E+000  0.2975281E+03  0.7546771E-02  0.1086483E+00
         21   -1    0    0  501  502  0.00000000000E+00  0.00000000000E+00  0.71155451339E+03  0.71155451339E+03  0.00000000000E+00 0. -1.
         21   -1    0    0  502  503 -0.00000000000E+00 -0.00000000000E+00 -0.15030421028E+03  0.15030421028E+03  0.00000000000E+00 0. -1.
          6    1    1    2  501    0 -0.17731101101E+03  0.16478698603E+03  0.45949623354E+03  0.54741185046E+03  0.17300000000E+03 0. -1.
         -6    1    1    2    0  503  0.17731101101E+03 -0.16478698603E+03  0.10175406957E+03  0.31444687320E+03  0.17300000000E+03 0. -1.
<mgrwt>
<rscale>  2 0.29752806E+03</rscale>
<asrwt>0</asrwt>
<pdfrwt beam="1">  1       21 0.10946992E+00 0.29752806E+03</pdfrwt>
<pdfrwt beam="2">  1       21 0.23123725E-01 0.29752806E+03</pdfrwt>
<totfact> 0.10928491E+04</totfact>
</mgrwt>
</event>
<event>
 4    1  0.4072310E+000  0.1774410E+03  0.7546771E-02  0.1170303E+00
         21   -1    0    0  501  502  0.00000000000E+00  0.00000000000E+00  0.63574964313E+03  0.63574964313E+03  0.00000000000E+00 0.  1.
         21   -1    0    0  502  503 -0.00000000000E+00 -0.00000000000E+00 -0.50218700883E+02  0.50218700883E+02  0.00000000000E+00 0.  1.
          6    1    1    2  501    0  0.78682583962E+01  0.38657363635E+02  0.33308596388E+03  0.37740106066E+03  0.17300000000E+03 0.  1.
         -6    1    1    2    0  503 -0.78682583962E+01 -0.38657363635E+02  0.25244497837E+03  0.30856728336E+03  0.17300000000E+03 0.  1.
<mgrwt>
<rscale>  2 0.17744098E+03</rscale>
<asrwt>0</asrwt>
<pdfrwt beam="1">  1       21 0.97807631E-01 0.17744098E+03</pdfrwt>
<pdfrwt beam="2">  1       21 0.77259545E-02 0.17744098E+03</pdfrwt>
<totfact> 0.11097059E+05</totfact>
</mgrwt>
</event>
<event>
 4    1  0.4072310E+000  0.1806748E+03  0.7546771E-02  0.1167152E+00
         21   -1    0    0  503  502  0.00000000000E+00  0.00000000000E+00  0.15082461536E+02  0.15082461536E+02  0.00000000000E+00 0.  1.
         21   -1    0    0  501  503 -0.00000000000E+00 -0.00000000000E+00 -0.26265200340E+04  0.26265200340E+04  0.00000000000E+00 0.  1.
          6    1    1    2  501    0  0.50878243228E+02  0.11215197094E+02 -0.18597814502E+04  0.18685369728E+04  0.17300000000E+03 0. -1.
         -6    1    1    2    0  502 -0.50878243228E+02 -0.11215197094E+02 -0.75165612229E+03  0.77306552275E+03  0.17300000000E+03 0. -1.
<mgrwt>
<rscale>  2 0.18067478E+03</rscale>
<asrwt>0</asrwt>
<pdfrwt beam="1">  1       21 0.23203808E-02 0.18067478E+03</pdfrwt>
<pdfrwt beam="2">  1       21 0.40407963E+00 0.18067478E+03</pdfrwt>
<totfact> 0.80664402E+03</totfact>
</mgrwt>
</event>
<event>
 4    1  0.4072310E+000  0.1771518E+03  0.7546771E-02  0.1170588E+00
         21   -1    0    0  501  502  0.00000000000E+00  0.00000000000E+00  0.28212068316E+03  0.28212068316E+03  0.00000000000E+00 0.  1.
         21   -1    0    0  502  503 -0.00000000000E+00 -0.00000000000E+00 -0.20801581268E+03  0.20801581268E+03  0.00000000000E+00 0.  1.
          6    1    1    2  501    0 -0.10439991180E+02 -0.36670856044E+02  0.20420965735E+03  0.27034113496E+03  0.17300000000E+03 0.  1.
         -6    1    1    2    0  503  0.10439991180E+02  0.36670856044E+02 -0.13010478687E+03  0.21979536088E+03  0.17300000000E+03 0.  1.
<mgrwt>
<rscale>  2 0.17715176E+03</rscale>
<asrwt>0</asrwt>
<pdfrwt beam="1">  1       21 0.43403182E-01 0.17715176E+03</pdfrwt>
<pdfrwt beam="2">  1       21 0.32002433E-01 0.17715176E+03</pdfrwt>
<totfact> 0.48274550E+04</totfact>
</mgrwt>
</event>
<event>
 4    1  0.4072310E+000  0.2124654E+03  0.7546771E-02  0.1139628E+00
         21   -1    0    0  501  502  0.00000000000E+00  0.00000000000E+00  0.41268996521E+03  0.41268996521E+03  0.00000000000E+00 0.  1.
         21   -1    0    0  502  503 -0.00000000000E+00 -0.00000000000E+00 -0.33612532901E+03  0.33612532901E+03  0.00000000000E+00 0.  1.
          6    1    1    2  501    0 -0.10910806889E+03  0.57514971170E+02  0.34579267765E+03  0.40584987190E+03  0.17300000000E+03 0.  1.
         -6    1    1    2    0  503  0.10910806889E+03 -0.57514971170E+02 -0.26922804145E+03  0.34296542232E+03  0.17300000000E+03 0.  1.
<mgrwt>
<rscale>  2 0.21246539E+03</rscale>
<asrwt>0</asrwt>
<pdfrwt beam="1">  1       21 0.63490764E-01 0.21246539E+03</pdfrwt>
<pdfrwt beam="2">  1       21 0.51711589E-01 0.21246539E+03</pdfrwt>
<totfact> 0.80328828E+03</totfact>
</mgrwt>
</event>
<event>
 4    1  0.4072310E+000  0.2380798E+03  0.7546771E-02  0.1121079E+00
         21   -1    0    0  503  502  0.00000000000E+00  0.00000000000E+00  0.53848158512E+03  0.53848158512E+03  0.00000000000E+00 0.  1.
         21   -1    0    0  501  503 -0.00000000000E+00 -0.00000000000E+00 -0.15079266414E+03  0.15079266414E+03  0.00000000000E+00 0. -1.
          6    1    1    2  501    0 -0.11635353514E+03 -0.11495584180E+03  0.44702157053E+01  0.23812176199E+03  0.17300000000E+03 0. -1.
         -6    1    1    2    0  502  0.11635353514E+03  0.11495584180E+03  0.38321870528E+03  0.45115248728E+03  0.17300000000E+03 0.  1.
<mgrwt>
<rscale>  2 0.23807980E+03</rscale>
<asrwt>0</asrwt>
<pdfrwt beam="1">  1       21 0.82843320E-01 0.23807980E+03</pdfrwt>
<pdfrwt beam="2">  1       21 0.23198872E-01 0.23807980E+03</pdfrwt>
<totfact> 0.21629266E+04</totfact>
</mgrwt>
</event>
<event>
 4    1  0.4072310E+000  0.2262898E+03  0.7546771E-02  0.1129279E+00
         21   -1    0    0  501  502  0.00000000000E+00  0.00000000000E+00  0.51717969301E+03  0.51717969301E+03  0.00000000000E+00 0.  1.
         21   -1    0    0  502  503 -0.00000000000E+00 -0.00000000000E+00 -0.16007141290E+03  0.16007141290E+03  0.00000000000E+00 0. -1.
          6    1    1    2  501    0  0.23723594111E+02  0.14392799196E+03  0.38769486055E+03  0.44890353160E+03  0.17300000000E+03 0.  1.
         -6    1    1    2    0  503 -0.23723594111E+02 -0.14392799196E+03 -0.30586580444E+02  0.22834757430E+03  0.17300000000E+03 0. -1.
<mgrwt>
<rscale>  2 0.22628980E+03</rscale>
<asrwt>0</asrwt>
<pdfrwt beam="1">  1       21 0.79566106E-01 0.22628980E+03</pdfrwt>
<pdfrwt beam="2">  1       21 0.24626372E-01 0.22628980E+03</pdfrwt>
<totfact> 0.21288207E+04</totfact>
</mgrwt>
</event>
<event>
 4    1  0.4072310E+000  0.2337554E+03  0.7546771E-02  0.1124024E+00
         21   -1    0    0  501  502  0.00000000000E+00  0.00000000000E+00  0.74082767309E+02  0.74082767309E+02  0.00000000000E+00 0. -1.
         21   -1    0    0  502  503 -0.00000000000E+00 -0.00000000000E+00 -0.93206981149E+03  0.93206981149E+03  0.00000000000E+00 0. -1.
          6    1    1    2  501    0 -0.15663973194E+03 -0.13288816243E+02 -0.19918632774E+03  0.30711038963E+03  0.17300000000E+03 0. -1.
         -6    1    1    2    0  503  0.15663973194E+03  0.13288816243E+02 -0.65880071644E+03  0.69904218917E+03  0.17300000000E+03 0. -1.
<mgrwt>
<rscale>  2 0.23375542E+03</rscale>
<asrwt>0</asrwt>
<pdfrwt beam="1">  1       21 0.11397348E-01 0.23375542E+03</pdfrwt>
<pdfrwt beam="2">  1       21 0.14339536E+00 0.23375542E+03</pdfrwt>
<totfact> 0.21089783E+04</totfact>
</mgrwt>
</event>
<event>
 4    1  0.4072310E+000  0.2385767E+03  0.7546771E-02  0.1120745E+00
         21   -1    0    0  501  502  0.00000000000E+00  0.00000000000E+00  0.35324276626E+03  0.35324276626E+03  0.00000000000E+00 0. -1.
         21   -1    0    0  502  503 -0.00000000000E+00 -0.00000000000E+00 -0.27038849090E+03  0.27038849090E+03  0.00000000000E+00 0. -1.
          6    1    1    2  501    0 -0.12716811990E+03 -0.10401016004E+03  0.23963764190E+03  0.33814943964E+03  0.17300000000E+03 0. -1.
         -6    1    1    2    0  503  0.12716811990E+03  0.10401016004E+03 -0.15678336655E+03  0.28548181752E+03  0.17300000000E+03 0. -1.
<mgrwt>
<rscale>  2 0.23857670E+03</rscale>
<asrwt>0</asrwt>
<pdfrwt beam="1">  1       21 0.54345041E-01 0.23857670E+03</pdfrwt>
<pdfrwt beam="2">  1       21 0.41598229E-01 0.23857670E+03</pdfrwt>
<totfact> 0.17335370E+04</totfact>
</mgrwt>
</event>
<event>
 4    1  0.4072310E+000  0.2093396E+03  0.7546771E-02  0.1142090E+00
         21   -1    0    0  501  502  0.00000000000E+00  0.00000000000E+00  0.11562396861E+04  0.11562396861E+04  0.00000000000E+00 0.  1.
         21   -1    0    0  502  503 -0.00000000000E+00 -0.00000000000E+00 -0.37911720686E+02  0.37911720686E+02  0.00000000000E+00 0. -1.
          6    1    1    2  501    0  0.90121441362E+02  0.75974988873E+02  0.54930034997E+03  0.58783836860E+03  0.17300000000E+03 0.  1.
         -6    1    1    2    0  503 -0.90121441362E+02 -0.75974988873E+02  0.56902761542E+03  0.60631303815E+03  0.17300000000E+03 0.  1.
<mgrwt>
<rscale>  2 0.20933961E+03</rscale>
<asrwt>0</asrwt>
<pdfrwt beam="1">  1       21 0.17788300E+00 0.20933961E+03</pdfrwt>
<pdfrwt beam="2">  1       21 0.58325733E-02 0.20933961E+03</pdfrwt>
<totfact> 0.38522195E+04</totfact>
</mgrwt>
</event>
<event>
 4    1  0.4072310E+000  0.2659304E+03  0.7546771E-02  0.1103632E+00
         21   -1    0    0  503  502  0.00000000000E+00  0.00000000000E+00  0.23583528071E+03  0.23583528071E+03  0.00000000000E+00 0.  1.
         21   -1    0    0  501  503 -0.00000000000E+00 -0.00000000000E+00 -0.30615048019E+03  0.30615048019E+03  0.00000000000E+00 0.  1.
          6    1    1    2  501    0 -0.78261374891E+02 -0.18618570850E+03 -0.73984098611E+02  0.27603008477E+03  0.17300000000E+03 0.  1.
         -6    1    1    2    0  502  0.78261374891E+02  0.18618570850E+03  0.36688991270E+01  0.26595567614E+03  0.17300000000E+03 0.  1.
<mgrwt>
<rscale>  2 0.26593037E+03</rscale>
<asrwt>0</asrwt>
<pdfrwt beam="1">  1       21 0.36282351E-01 0.26593037E+03</pdfrwt>
<pdfrwt beam="2">  1       21 0.47100074E-01 0.26593037E+03</pdfrwt>
<totfact> 0.30504052E+04</totfact>
</mgrwt>
</event>
<event>
 4    1  0.4072310E+000  0.3024009E+03  0.7546771E-02  0.1084047E+00
         21   -1    0    0  501  502  0.00000000000E+00  0.00000000000E+00  0.92872133162E+03  0.92872133162E+03  0.00000000000E+00 0.  1.
         21   -1    0    0  502  503 -0.00000000000E+00 -0.00000000000E+00 -0.10153919815E+03  0.10153919815E+03  0.00000000000E+00 0. -1.
          6    1    1    2  501    0  0.18577680943E+03 -0.16432975899E+03  0.50322767074E+03  0.58709827219E+03  0.17300000000E+03 0.  1.
         -6    1    1    2    0  503 -0.18577680943E+03  0.16432975899E+03  0.32395446273E+03  0.44316225757E+03  0.17300000000E+03 0. -1.
<mgrwt>
<rscale>  2 0.30240088E+03</rscale>
<asrwt>0</asrwt>
<pdfrwt beam="1">  1       21 0.14288020E+00 0.30240088E+03</pdfrwt>
<pdfrwt beam="2">  1       21 0.15621416E-01 0.30240088E+03</pdfrwt>
<totfact> 0.11586011E+04</totfact>
</mgrwt>
</event>
<event>
 4    1  0.4072310E+000  0.2253519E+03  0.7546771E-02  0.1129955E+00
         21   -1    0    0  501  502  0.00000000000E+00  0.00000000000E+00  0.90090057096E+03  0.90090057096E+03  0.00000000000E+00 0.  1.
         21   -1    0    0  502  503 -0.00000000000E+00 -0.00000000000E+00 -0.60082479191E+02  0.60082479191E+02  0.00000000000E+00 0.  1.
          6    1    1    2  501    0 -0.11658967123E+03  0.85213365276E+02  0.53985269107E+03  0.58499948471E+03  0.17300000000E+03 0.  1.
         -6    1    1    2    0  503  0.11658967123E+03 -0.85213365276E+02  0.30096540069E+03  0.37598356543E+03  0.17300000000E+03 0.  1.
<mgrwt>
<rscale>  2 0.22535188E+03</rscale>
<asrwt>0</asrwt>
<pdfrwt beam="1">  1       21 0.13860008E+00 0.22535188E+03</pdfrwt>
<pdfrwt beam="2">  1       21 0.92434590E-02 0.22535188E+03</pdfrwt>
<totfact> 0.33592548E+04</totfact>
</mgrwt>
</event>
<event>
 4    1  0.4072310E+000  0.1979703E+03  0.7546771E-02  0.1151463E+00
         21   -1    0    0  503  502  0.00000000000E+00  0.00000000000E+00  0.63597200573E+03  0.63597200573E+03  0.00000000000E+00 0.  1.
         21   -1    0    0  501  503 -0.00000000000E+00 -0.00000000000E+00 -0.78228318641E+02  0.78228318641E+02  0.00000000000E+00 0.  1.
          6    1    1    2  501    0 -0.74263553072E+02  0.61222226858E+02  0.11436043929E+03  0.22862752776E+03  0.17300000000E+03 0.  1.
         -6    1    1    2    0  502  0.74263553072E+02 -0.61222226858E+02  0.44338324780E+03  0.48557279661E+03  0.17300000000E+03 0.  1.
<mgrwt>
<rscale>  2 0.19797029E+03</rscale>
<asrwt>0</asrwt>
<pdfrwt beam="1">  1       21 0.97841844E-01 0.19797029E+03</pdfrwt>
<pdfrwt beam="2">  1       21 0.12035126E-01 0.19797029E+03</pdfrwt>
<totfact> 0.50322803E+04</totfact>
</mgrwt>
</event>
<event>
 4    1  0.4072310E+000  0.2610413E+03  0.7546771E-02  0.1106519E+00
         21   -1    0    0  503  502  0.00000000000E+00  0.00000000000E+00  0.24131458212E+03  0.24131458212E+03  0.00000000000E+00 0.  1.
         21   -1    0    0  501  503 -0.00000000000E+00 -0.00000000000E+00 -0.55972247401E+03  0.55972247401E+03  0.00000000000E+00 0. -1.
          6    1    1    2  501    0 -0.19547987632E+03  0.10929506651E+01 -0.44113563718E+03  0.51258484856E+03  0.17300000000E+03 0. -1.
         -6    1    1    2    0  502  0.19547987632E+03 -0.10929506651E+01  0.12272774529E+03  0.28845220757E+03  0.17300000000E+03 0.  1.
<mgrwt>
<rscale>  2 0.26104133E+03</rscale>
<asrwt>0</asrwt>
<pdfrwt beam="1">  1       21 0.37125321E-01 0.26104133E+03</pdfrwt>
<pdfrwt beam="2">  1       21 0.86111149E-01 0.26104133E+03</pdfrwt>
<totfact> 0.77893324E+03</totfact>
</mgrwt>
</event>
<event>
 4    1  0.4072310E+000  0.1850086E+03  0.7546771E-02  0.1163042E+00
         21   -1    0    0  501  502  0.00000000000E+00  0.00000000000E+00  0.62734875791E+02  0.62734875791E+02  0.00000000000E+00 0. -1.
         21   -1    0    0  502  503 -0.00000000000E+00 -0.00000000000E+00 -0.58327726254E+03  0.58327726254E+03  0.00000000000E+00 0.  1.
          6    1    1    2  501    0 -0.35537129019E+02 -0.55102716396E+02 -0.17817777137E+03  0.25685699349E+03  0.17300000000E+03 0. -1.
         -6    1    1    2    0  503  0.35537129019E+02  0.55102716396E+02 -0.34236461538E+03  0.38915514484E+03  0.17300000000E+03 0.  1.
<mgrwt>
<rscale>  2 0.18500864E+03</rscale>
<asrwt>0</asrwt>
<pdfrwt beam="1">  1       21 0.96515189E-02 0.18500864E+03</pdfrwt>
<pdfrwt beam="2">  1       21 0.89734968E-01 0.18500864E+03</pdfrwt>
<totfact> 0.91664464E+04</totfact>
</mgrwt>
</event>
<event>
 4    1  0.4072310E+000  0.1974010E+03  0.7546771E-02  0.1151951E+00
         21   -1    0    0  501  502  0.00000000000E+00  0.00000000000E+00  0.27200568868E+02  0.27200568868E+02  0.00000000000E+00 0.  1.
         21   -1    0    0  502  503 -0.00000000000E+00 -0.00000000000E+00 -0.15774673515E+04  0.15774673515E+04  0.00000000000E+00 0.  1.
          6    1    1    2  501    0  0.63854804164E+02 -0.70432317748E+02 -0.53197928873E+03  0.56742322039E+03  0.17300000000E+03 0.  1.
         -6    1    1    2    0  503 -0.63854804164E+02  0.70432317748E+02 -0.10182874939E+04  0.10372447000E+04  0.17300000000E+03 0.  1.
<mgrwt>
<rscale>  2 0.19740098E+03</rscale>
<asrwt>0</asrwt>
<pdfrwt beam="1">  1       21 0.41847023E-02 0.19740098E+03</pdfrwt>
<pdfrwt beam="2">  1       21 0.24268732E+00 0.19740098E+03</pdfrwt>
<totfact> 0.26574306E+04</totfact>
</mgrwt>
</event>
<event>
 4    1  0.4072310E+000  0.1861525E+03  0.7546771E-02  0.1161978E+00
         21   -1    0    0  503  502  0.00000000000E+00  0.00000000000E+00  0.13115803716E+03  0.13115803716E+03  0.00000000000E+00 0.  1.
         21   -1    0    0  501  503 -0.00000000000E+00 -0.00000000000E+00 -0.37998036834E+03  0.37998036834E+03  0.00000000000E+00 0.  1.
          6    1    1    2  501    0  0.52401657944E+02 -0.44472700744E+02 -0.26548093004E+03  0.32424200697E+03  0.17300000000E+03 0.  1.
         -6    1    1    2    0  502 -0.52401657944E+02  0.44472700744E+02  0.16658598859E+02  0.18689639853E+03  0.17300000000E+03 0.  1.
<mgrwt>
<rscale>  2 0.18615250E+03</rscale>
<asrwt>0</asrwt>
<pdfrwt beam="1">  1       21 0.20178159E-01 0.18615250E+03</pdfrwt>
<pdfrwt beam="2">  1       21 0.58458519E-01 0.18615250E+03</pdfrwt>
<totfact> 0.62382688E+04</totfact>
</mgrwt>
</event>
<event>
 4    1  0.4072310E+000  0.1857902E+03  0.7546771E-02  0.1162314E+00
         21   -1    0    0  501  502  0.00000000000E+00  0.00000000000E+00  0.15476194479E+04  0.15476194479E+04  0.00000000000E+00 0.  1.
         21   -1    0    0  502  503 -0.00000000000E+00 -0.00000000000E+00 -0.86955343833E+02  0.86955343833E+02  0.00000000000E+00 0.  1.
          6    1    1    2  501    0 -0.63211016688E+02 -0.24359440958E+02  0.14350504906E+04  0.14470272719E+04  0.17300000000E+03 0.  1.
         -6    1    1    2    0  503  0.63211016688E+02  0.24359440958E+02  0.25613613425E+02  0.18754751981E+03  0.17300000000E+03 0.  1.
<mgrwt>
<rscale>  2 0.18579024E+03</rscale>
<asrwt>0</asrwt>
<pdfrwt beam="1">  1       21 0.23809528E+00 0.18579024E+03</pdfrwt>
<pdfrwt beam="2">  1       21 0.13377746E-01 0.18579024E+03</pdfrwt>
<totfact> 0.38026812E+03</totfact>
</mgrwt>
</event>
<event>
 4    1  0.4072310E+000  0.2273395E+03  0.7546771E-02  0.1128526E+00
         21   -1    0    0  503  502  0.00000000000E+00  0.00000000000E+00  0.83798453706E+03  0.83798453706E+03  0.00000000000E+00 0. -1.
         21   -1    0    0  501  503 -0.00000000000E+00 -0.00000000000E+00 -0.24992168568E+03  0.24992168568E+03  0.00000000000E+00 0.  1.
          6    1    1    2  501    0 -0.14578825684E+03  0.22361443340E+02 -0.17805596606E+03  0.28876837955E+03  0.17300000000E+03 0.  1.
         -6    1    1    2    0  502  0.14578825684E+03 -0.22361443340E+02  0.76611881744E+03  0.79913784319E+03  0.17300000000E+03 0. -1.
<mgrwt>
<rscale>  2 0.22733950E+03</rscale>
<asrwt>0</asrwt>
<pdfrwt beam="1">  1       21 0.12892070E+00 0.22733950E+03</pdfrwt>
<pdfrwt beam="2">  1       21 0.38449491E-01 0.22733950E+03</pdfrwt>
<totfact> 0.27965059E+03</totfact>
</mgrwt>
</event>
<event>
 4    1  0.4072310E+000  0.1921268E+03  0.7546771E-02  0.1156557E+00
         21   -1    0    0  501  502  0.00000000000E+00  0.00000000000E+00  0.42132562961E+03  0.42132562961E+03  0.00000000000E+00 0. -1.
         21   -1    0    0  502  503 -0.00000000000E+00 -0.00000000000E+00 -0.14739553301E+03  0.14739553301E+03  0.00000000000E+00 0. -1.
          6    1    1    2  501    0  0.72615258842E+02 -0.41360881321E+02  0.31806660461E+03  0.37158991280E+03  0.17300000000E+03 0. -1.
         -6    1    1    2    0  503 -0.72615258842E+02  0.41360881321E+02 -0.44136508013E+02  0.19713124983E+03  0.17300000000E+03 0. -1.
<mgrwt>
<rscale>  2 0.19212678E+03</rscale>
<asrwt>0</asrwt>
<pdfrwt beam="1">  1       21 0.64819327E-01 0.19212678E+03</pdfrwt>
<pdfrwt beam="2">  1       21 0.22676236E-01 0.19212678E+03</pdfrwt>
<totfact> 0.39988248E+04</totfact>
</mgrwt>
</event>
<event>
 4    1  0.4072310E+000  0.1968040E+03  0.7546771E-02  0.1152464E+00
         21   -1    0    0  501  502  0.00000000000E+00  0.00000000000E+00  0.78649068400E+02  0.78649068400E+02  0.00000000000E+00 0. -1.
         21   -1    0    0  502  503 -0.00000000000E+00 -0.00000000000E+00 -0.88082735207E+03  0.88082735207E+03  0.00000000000E+00 0.  1.
          6    1    1    2  501    0  0.24414901329E+02 -0.90591024127E+02 -0.82538757954E+02  0.21341149834E+03  0.17300000000E+03 0. -1.
         -6    1    1    2    0  503 -0.24414901329E+02  0.90591024127E+02 -0.71963952572E+03  0.74606492213E+03  0.17300000000E+03 0.  1.
<mgrwt>
<rscale>  2 0.19680402E+03</rscale>
<asrwt>0</asrwt>
<pdfrwt beam="1">  1       21 0.12099857E-01 0.19680402E+03</pdfrwt>
<pdfrwt beam="2">  1       21 0.13551190E+00 0.19680402E+03</pdfrwt>
<totfact> 0.22435540E+04</totfact>
</mgrwt>
</event>
<event>
 4    1  0.4072310E+000  0.2152549E+03  0.7546771E-02  0.1137471E+00
         21   -1    0    0  503  502  0.00000000000E+00  0.00000000000E+00  0.95102123801E+02  0.95102123801E+02  0.00000000000E+00 0.  1.
         21   -1    0    0  501  503 -0.00000000000E+00 -0.00000000000E+00 -0.48862313325E+03  0.48862313325E+03  0.00000000000E+00 0.  1.
          6    1    1    2  501    0 -0.69489691569E+02 -0.10759575376E+03 -0.18106225147E+03  0.28127958044E+03  0.17300000000E+03 0.  1.
         -6    1    1    2    0  502  0.69489691569E+02  0.10759575376E+03 -0.21245875797E+03  0.30244567661E+03  0.17300000000E+03 0.  1.
<mgrwt>
<rscale>  2 0.21525488E+03</rscale>
<asrwt>0</asrwt>
<pdfrwt beam="1">  1       21 0.14631096E-01 0.21525488E+03</pdfrwt>
<pdfrwt beam="2">  1       21 0.75172789E-01 0.21525488E+03</pdfrwt>
<totfact> 0.64255877E+04</totfact>
</mgrwt>
</event>
<event>
 4    1  0.4072310E+000  0.5470645E+03  0.7546771E-02  0.1002176E+00
         21   -1    0    0  501  502  0.00000000000E+00  0.00000000000E+00  0.12539149761E+04  0.12539149761E+04  0.00000000000E+00 0. -1.
         21   -1    0    0  502  503 -0.00000000000E+00 -0.00000000000E+00 -0.23903430411E+03  0.23903430411E+03  0.00000000000E+00 0. -1.
          6    1    1    2  501    0 -0.28364191615E+03  0.43462380655E+03  0.47854522835E+03  0.72683225396E+03  0.17300000000E+03 0. -1.
         -6    1    1    2    0  503  0.28364191615E+03 -0.43462380655E+03  0.53633544364E+03  0.76611702626E+03  0.17300000000E+03 0. -1.
<mgrwt>
<rscale>  2 0.54706452E+03</rscale>
<asrwt>0</asrwt>
<pdfrwt beam="1">  1       21 0.19290999E+00 0.54706452E+03</pdfrwt>
<pdfrwt beam="2">  1       21 0.36774509E-01 0.54706452E+03</pdfrwt>
<totfact> 0.85301559E+02</totfact>
</mgrwt>
</event>
<event>
 4    1  0.4072310E+000  0.1734703E+03  0.7546771E-02  0.1174276E+00
         21   -1    0    0  503  502  0.00000000000E+00  0.00000000000E+00  0.11172143805E+03  0.11172143805E+03  0.00000000000E+00 0. -1.
         21   -1    0    0  501  503 -0.00000000000E+00 -0.00000000000E+00 -0.46415852709E+03  0.46415852709E+03  0.00000000000E+00 0. -1.
          6    1    1    2  501    0  0.99996436761E+01  0.79334026930E+01 -0.36275991331E+03  0.40210283070E+03  0.17300000000E+03 0. -1.
         -6    1    1    2    0  502 -0.99996436761E+01 -0.79334026930E+01  0.10322824272E+02  0.17377713444E+03  0.17300000000E+03 0. -1.
<mgrwt>
<rscale>  2 0.17347026E+03</rscale>
<asrwt>0</asrwt>
<pdfrwt beam="1">  1       21 0.17187914E-01 0.17347026E+03</pdfrwt>
<pdfrwt beam="2">  1       21 0.71409004E-01 0.17347026E+03</pdfrwt>
<totfact> 0.54703098E+04</totfact>
</mgrwt>
</event>
<event>
 4    1  0.4072310E+000  0.2434638E+03  0.7546771E-02  0.1117507E+00
         21   -1    0    0  501  502  0.00000000000E+00  0.00000000000E+00  0.24875974440E+03  0.24875974440E+03  0.00000000000E+00 0. -1.
         21   -1    0    0  502  503 -0.00000000000E+00 -0.00000000000E+00 -0.26974190012E+03  0.26974190012E+03  0.00000000000E+00 0. -1.
          6    1    1    2  501    0 -0.16566781601E+03 -0.43586462473E+02  0.78047943634E+02  0.25566792227E+03  0.17300000000E+03 0. -1.
         -6    1    1    2    0  503  0.16566781601E+03  0.43586462473E+02 -0.99030099363E+02  0.26283372225E+03  0.17300000000E+03 0. -1.
<mgrwt>
<rscale>  2 0.24346377E+03</rscale>
<asrwt>0</asrwt>
<pdfrwt beam="1">  1       21 0.38270730E-01 0.24346377E+03</pdfrwt>
<pdfrwt beam="2">  1       21 0.41498754E-01 0.24346377E+03</pdfrwt>
<totfact> 0.35912867E+04</totfact>
</mgrwt>
</event>
<event>
 4    1  0.4072310E+000  0.1904867E+03  0.7546771E-02  0.1158023E+00
         21   -1    0    0  501  502  0.00000000000E+00  0.00000000000E+00  0.55098127043E+03  0.55098127043E+03  0.00000000000E+00 0.  1.
         21   -1    0    0  502  503 -0.00000000000E+00 -0.00000000000E+00 -0.49420268863E+03  0.49420268863E+03  0.00000000000E+00 0.  1.
          6    1    1    2  501    0  0.73225821888E+02  0.31530405443E+02  0.51491759587E+03  0.54902214709E+03  0.17300000000E+03 0.  1.
         -6    1    1    2    0  503 -0.73225821888E+02 -0.31530405443E+02 -0.45813901407E+03  0.49616181198E+03  0.17300000000E+03 0.  1.
<mgrwt>
<rscale>  2 0.19048671E+03</rscale>
<asrwt>0</asrwt>
<pdfrwt beam="1">  1       21 0.84766350E-01 0.19048671E+03</pdfrwt>
<pdfrwt beam="2">  1       21 0.76031182E-01 0.19048671E+03</pdfrwt>
<totfact> 0.18633043E+03</totfact>
</mgrwt>
</event>
<event>
 4    1  0.4072310E+000  0.1731495E+03  0.7546771E-02  0.1174603E+00
         21   -1    0    0  501  502  0.00000000000E+00  0.00000000000E+00  0.55482156651E+02  0.55482156651E+02  0.00000000000E+00 0. -1.
         21   -1    0    0  502  503 -0.00000000000E+00 -0.00000000000E+00 -0.54424133453E+03  0.54424133453E+03  0.00000000000E+00 0. -1.
          6    1    1    2  501    0 -0.68940102654E+01 -0.20514521121E+01 -0.26967923682E+03  0.32048030611E+03  0.17300000000E+03 0.  1.
         -6    1    1    2    0  503  0.68940102654E+01  0.20514521121E+01 -0.21907994105E+03  0.27924318507E+03  0.17300000000E+03 0.  1.
<mgrwt>
<rscale>  2 0.17314946E+03</rscale>
<asrwt>0</asrwt>
<pdfrwt beam="1">  1       21 0.85357166E-02 0.17314946E+03</pdfrwt>
<pdfrwt beam="2">  1       21 0.83729434E-01 0.17314946E+03</pdfrwt>
<totfact> 0.13386506E+05</totfact>
</mgrwt>
</event>
<event>
 4    1  0.4072310E+000  0.1865379E+03  0.7546771E-02  0.1161622E+00
         21   -1    0    0  503  502  0.00000000000E+00  0.00000000000E+00  0.30862446700E+03  0.30862446700E+03  0.00000000000E+00 0. -1.
         21   -1    0    0  501  503 -0.00000000000E+00 -0.00000000000E+00 -0.11284987226E+03  0.11284987226E+03  0.00000000000E+00 0. -1.
          6    1    1    2  501    0  0.67977288659E+02  0.15698994888E+02  0.10426124192E+03  0.21369786330E+03  0.17300000000E+03 0. -1.
         -6    1    1    2    0  502 -0.67977288659E+02 -0.15698994888E+02  0.91513352826E+02  0.20777647595E+03  0.17300000000E+03 0. -1.
<mgrwt>
<rscale>  2 0.18653785E+03</rscale>
<asrwt>0</asrwt>
<pdfrwt beam="1">  1       21 0.47480687E-01 0.18653785E+03</pdfrwt>
<pdfrwt beam="2">  1       21 0.17361519E-01 0.18653785E+03</pdfrwt>
<totfact> 0.12758937E+05</totfact>
</mgrwt>
</event>
<event>
 4    1  0.4072310E+000  0.2407489E+03  0.7546771E-02  0.1119295E+00
         21   -1    0    0  501  502  0.00000000000E+00  0.00000000000E+00  0.73341136465E+03  0.73341136465E+03  0.00000000000E+00 0.  1.
         21   -1    0    0  502  503 -0.00000000000E+00 -0.00000000000E+00 -0.88127807629E+02  0.88127807629E+02  0.00000000000E+00 0.  1.
          6    1    1    2  501    0  0.16205209000E+03  0.42073116917E+02  0.45463696913E+03  0.51444611063E+03  0.17300000000E+03 0.  1.
         -6    1    1    2    0  503 -0.16205209000E+03 -0.42073116917E+02  0.19064658789E+03  0.30709306165E+03  0.17300000000E+03 0.  1.
<mgrwt>
<rscale>  2 0.24074889E+03</rscale>
<asrwt>0</asrwt>
<pdfrwt beam="1">  1       21 0.11283251E+00 0.24074889E+03</pdfrwt>
<pdfrwt beam="2">  1       21 0.13558125E-01 0.24074889E+03</pdfrwt>
<totfact> 0.28180574E+04</totfact>
</mgrwt>
</event>
<event>
 4    1  0.4072310E+000  0.1776950E+03  0.7546771E-02  0.1170053E+00
         21   -1    0    0  501  502  0.00000000000E+00  0.00000000000E+00  0.79938152797E+03  0.79938152797E+03  0.00000000000E+00 0.  1.
         21   -1    0    0  502  503 -0.00000000000E+00 -0.00000000000E+00 -0.12384692554E+03  0.12384692554E+03  0.00000000000E+00 0.  1.
          6    1    1    2  501    0 -0.32230819281E+02 -0.24651523854E+02  0.71872025927E+03  0.74036094875E+03  0.17300000000E+03 0.  1.
         -6    1    1    2    0  503  0.32230819281E+02  0.24651523854E+02 -0.43185656839E+02  0.18286750476E+03  0.17300000000E+03 0.  1.
<mgrwt>
<rscale>  2 0.17769503E+03</rscale>
<asrwt>0</asrwt>
<pdfrwt beam="1">  1       21 0.12298177E+00 0.17769503E+03</pdfrwt>
<pdfrwt beam="2">  1       21 0.19053374E-01 0.17769503E+03</pdfrwt>
<totfact> 0.12685878E+04</totfact>
</mgrwt>
</event>
<event>
 4    1  0.4072310E+000  0.2317880E+03  0.7546771E-02  0.1125388E+00
         21   -1    0    0  503  502  0.00000000000E+00  0.00000000000E+00  0.63387258732E+03  0.63387258732E+03  0.00000000000E+00 0. -1.
         21   -1    0    0  501  503 -0.00000000000E+00 -0.00000000000E+00 -0.12021423090E+03  0.12021423090E+03  0.00000000000E+00 0. -1.
          6    1    1    2  501    0 -0.14372383085E+03 -0.56037015037E+02  0.52061913885E+02  0.23756289585E+03  0.17300000000E+03 0. -1.
         -6    1    1    2    0  502  0.14372383085E+03  0.56037015037E+02  0.46159644253E+03  0.51652392236E+03  0.17300000000E+03 0. -1.
<mgrwt>
<rscale>  2 0.23178802E+03</rscale>
<asrwt>0</asrwt>
<pdfrwt beam="1">  1       21 0.97518858E-01 0.23178802E+03</pdfrwt>
<pdfrwt beam="2">  1       21 0.18494497E-01 0.23178802E+03</pdfrwt>
<totfact> 0.22746550E+04</totfact>
</mgrwt>
</event>
<event>
 4    1  0.4072310E+000  0.2090810E+03  0.7546771E-02  0.1142296E+00
         21   -1    0    0  503  502  0.00000000000E+00  0.00000000000E+00  0.60255911927E+02  0.60255911927E+02  0.00000000000E+00 0.  1.
         21   -1    0    0  501  503 -0.00000000000E+00 -0.00000000000E+00 -0.72975723058E+03  0.72975723058E+03  0.00000000000E+00 0. -1.
          6    1    1    2  501    0 -0.87775340132E+02  0.77983099672E+02 -0.36496731221E+03  0.42061385278E+03  0.17300000000E+03 0. -1.
         -6    1    1    2    0  502  0.87775340132E+02 -0.77983099672E+02 -0.30453400645E+03  0.36939928973E+03  0.17300000000E+03 0. -1.
<mgrwt>
<rscale>  2 0.20908102E+03</rscale>
<asrwt>0</asrwt>
<pdfrwt beam="1">  1       21 0.92701401E-02 0.20908102E+03</pdfrwt>
<pdfrwt beam="2">  1       21 0.11227035E+00 0.20908102E+03</pdfrwt>
<totfact> 0.57166106E+04</totfact>
</mgrwt>
</event>
<event>
 4    1  0.4072310E+000  0.2552046E+03  0.7546771E-02  0.1110059E+00
         21   -1    0    0  501  502  0.00000000000E+00  0.00000000000E+00  0.88630170891E+02  0.88630170891E+02  0.00000000000E+00 0. -1.
         21   -1    0    0  502  503 -0.00000000000E+00 -0.00000000000E+00 -0.96345914916E+03  0.96345914916E+03  0.00000000000E+00 0.  1.
          6    1    1    2  501    0 -0.11468600028E+03  0.14848396542E+03 -0.18116778948E+03  0.31297145971E+03  0.17300000000E+03 0. -1.
         -6    1    1    2    0  503  0.11468600028E+03 -0.14848396542E+03 -0.69366118879E+03  0.73911786034E+03  0.17300000000E+03 0.  1.
<mgrwt>
<rscale>  2 0.25520456E+03</rscale>
<asrwt>0</asrwt>
<pdfrwt beam="1">  1       21 0.13635411E-01 0.25520456E+03</pdfrwt>
<pdfrwt beam="2">  1       21 0.14822448E+00 0.25520456E+03</pdfrwt>
<totfact> 0.13818817E+04</totfact>
</mgrwt>
</event>
<event>
 4    1  0.4072310E+000  0.2494831E+03  0.7546771E-02  0.1113632E+00
         21   -1    0    0  501  502  0.00000000000E+00  0.00000000000E+00  0.23997411314E+03  0.23997411314E+03  0.00000000000E+00 0. -1.
         21   -1    0    0  502  503 -0.00000000000E+00 -0.00000000000E+00 -0.65365968034E+03  0.65365968034E+03  0.00000000000E+00 0.  1.
          6    1    1    2  501    0  0.16771393896E+03 -0.64690570248E+02  0.14018322053E+03  0.28616982811E+03  0.17300000000E+03 0. -1.
         -6    1    1    2    0  503 -0.16771393896E+03  0.64690570248E+02 -0.55386878773E+03  0.60746396537E+03  0.17300000000E+03 0.  1.
<mgrwt>
<rscale>  2 0.24948314E+03</rscale>
<asrwt>0</asrwt>
<pdfrwt beam="1">  1       21 0.36919096E-01 0.24948314E+03</pdfrwt>
<pdfrwt beam="2">  1       21 0.10056302E+00 0.24948314E+03</pdfrwt>
<totfact> 0.55071437E+03</totfact>
</mgrwt>
</event>
<event>
 4    1  0.4072310E+000  0.3178145E+03  0.7546771E-02  0.1076660E+00
         21   -1    0    0  501  502  0.00000000000E+00  0.00000000000E+00  0.20951626206E+03  0.20951626206E+03  0.00000000000E+00 0. -1.
         21   -1    0    0  502  503 -0.00000000000E+00 -0.00000000000E+00 -0.80523414876E+03  0.80523414876E+03  0.00000000000E+00 0.  1.
          6    1    1    2  501    0 -0.26658980327E+03 -0.26358773832E+01  0.23555278463E+02  0.31868624413E+03  0.17300000000E+03 0. -1.
         -6    1    1    2    0  503  0.26658980327E+03  0.26358773832E+01 -0.61927316516E+03  0.69606416669E+03  0.17300000000E+03 0.  1.
<mgrwt>
<rscale>  2 0.31781452E+03</rscale>
<asrwt>0</asrwt>
<pdfrwt beam="1">  1       21 0.32233271E-01 0.31781452E+03</pdfrwt>
<pdfrwt beam="2">  1       21 0.12388218E+00 0.31781452E+03</pdfrwt>
<totfact> 0.41621569E+03</totfact>
</mgrwt>
</event>
<event>
 4    1  0.4072310E+000  0.2129382E+03  0.7546771E-02  0.1139260E+00
         21   -1    0    0  503  502  0.00000000000E+00  0.00000000000E+00  0.20790900705E+03  0.20790900705E+03  0.00000000000E+00 0.  1.
         21   -1    0    0  501  503 -0.00000000000E+00 -0.00000000000E+00 -0.61589271228E+03  0.61589271228E+03  0.00000000000E+00 0.  1.
          6    1    1    2  501    0  0.11182016401E+03 -0.53943720327E+02 -0.53502734845E+03  0.57584454294E+03  0.17300000000E+03 0.  1.
         -6    1    1    2    0  502 -0.11182016401E+03  0.53943720327E+02  0.12704364322E+03  0.24795717640E+03  0.17300000000E+03 0.  1.
<mgrwt>
<rscale>  2 0.21293819E+03</rscale>
<asrwt>0</asrwt>
<pdfrwt beam="1">  1       21 0.31986001E-01 0.21293819E+03</pdfrwt>
<pdfrwt beam="2">  1       21 0.94752726E-01 0.21293819E+03</pdfrwt>
<totfact> 0.86365938E+03</totfact>
</mgrwt>
</event>
<event>
 4    1  0.4072310E+000  0.1859968E+03  0.7546771E-02  0.1162122E+00
         21   -1    0    0  503  502  0.00000000000E+00  0.00000000000E+00  0.65600579422E+02  0.65600579422E+02  0.00000000000E+00 0.  1.
         21   -1    0    0  501  503 -0.00000000000E+00 -0.00000000000E+00 -0.66663147444E+03  0.66663147444E+03  0.00000000000E+00 0. -1.
          6    1    1    2  501    0  0.44308327418E+02 -0.51986251484E+02 -0.46786116583E+03  0.50347678071E+03  0.17300000000E+03 0. -1.
         -6    1    1    2    0  502 -0.44308327418E+02  0.51986251484E+02 -0.13316972918E+03  0.22875527315E+03  0.17300000000E+03 0.  1.
<mgrwt>
<rscale>  2 0.18599677E+03</rscale>
<asrwt>0</asrwt>
<pdfrwt beam="1">  1       21 0.10092397E-01 0.18599677E+03</pdfrwt>
<pdfrwt beam="2">  1       21 0.10255869E+00 0.18599677E+03</pdfrwt>
<totfact> 0.61905785E+04</totfact>
</mgrwt>
</event>
<event>
 4    1  0.4072310E+000  0.2220900E+03  0.7546771E-02  0.1132334E+00
         21   -1    0    0  501  502  0.00000000000E+00  0.00000000000E+00  0.35485492358E+03  0.35485492358E+03  0.00000000000E+00 0. -1.
         21   -1    0    0  502  503 -0.00000000000E+00 -0.00000000000E+00 -0.14982202148E+03  0.14982202148E+03  0.00000000000E+00 0. -1.
          6    1    1    2  501    0  0.57755205475E+02  0.12672523874E+03  0.17034301976E+03  0.27989407688E+03  0.17300000000E+03 0. -1.
         -6    1    1    2    0  503 -0.57755205475E+02 -0.12672523874E+03  0.34689882335E+02  0.22478286818E+03  0.17300000000E+03 0. -1.
<mgrwt>
<rscale>  2 0.22208996E+03</rscale>
<asrwt>0</asrwt>
<pdfrwt beam="1">  1       21 0.54593065E-01 0.22208996E+03</pdfrwt>
<pdfrwt beam="2">  1       21 0.23049542E-01 0.22208996E+03</pdfrwt>
<totfact> 0.55251686E+04</totfact>
</mgrwt>
</event>
<event>
 4    1  0.4072310E+000  0.1956947E+03  0.7546771E-02  0.1153423E+00
         21   -1    0    0  503  502  0.00000000000E+00  0.00000000000E+00  0.11418820629E+03  0.11418820629E+03  0.00000000000E+00 0. -1.
         21   -1    0    0  501  503 -0.00000000000E+00 -0.00000000000E+00 -0.35380018992E+03  0.35380018992E+03  0.00000000000E+00 0. -1.
          6    1    1    2  501    0  0.84339940602E+02  0.35414322104E+02 -0.17319813153E+03  0.26133119323E+03  0.17300000000E+03 0. -1.
         -6    1    1    2    0  502 -0.84339940602E+02 -0.35414322104E+02 -0.66413852095E+02  0.20665720297E+03  0.17300000000E+03 0. -1.
<mgrwt>
<rscale>  2 0.19569466E+03</rscale>
<asrwt>0</asrwt>
<pdfrwt beam="1">  1       21 0.17567417E-01 0.19569466E+03</pdfrwt>
<pdfrwt beam="2">  1       21 0.54430798E-01 0.19569466E+03</pdfrwt>
<totfact> 0.93519594E+04</totfact>
</mgrwt>
</event>
<event>
 4    1  0.4072310E+000  0.1847435E+03  0.7546771E-02  0.1163290E+00
         21   -1    0    0  501  502  0.00000000000E+00  0.00000000000E+00  0.16518436227E+04  0.16518436227E+04  0.00000000000E+00 0. -1.
         21   -1    0    0  502  503 -0.00000000000E+00 -0.00000000000E+00 -0.21058669149E+02  0.21058669149E+02  0.00000000000E+00 0. -1.
          6    1    1    2  501    0  0.64816249163E+02 -0.49243721219E-01  0.93021320458E+03  0.94838112304E+03  0.17300000000E+03 0.  1.
         -6    1    1    2    0  503 -0.64816249163E+02  0.49243721219E-01  0.70057174894E+03  0.72452116877E+03  0.17300000000E+03 0.  1.
<mgrwt>
<rscale>  2 0.18474347E+03</rscale>
<asrwt>0</asrwt>
<pdfrwt beam="1">  1       21 0.25412969E+00 0.18474347E+03</pdfrwt>
<pdfrwt beam="2">  1       21 0.32397966E-02 0.18474347E+03</pdfrwt>
<totfact> 0.35257085E+04</totfact>
</mgrwt>
</event>
<event>
 4    1  0.4072310E+000  0.1829281E+03  0.7546771E-02  0.1164999E+00
         21   -1    0    0  501  502  0.00000000000E+00  0.00000000000E+00  0.87581803172E+02  0.87581803172E+02  0.00000000000E+00 0.  1.
         21   -1    0    0  502  503 -0.00000000000E+00 -0.00000000000E+00 -0.52206725744E+03  0.52206725744E+03  0.00000000000E+00 0.  1.
          6    1    1    2  501    0  0.14731310435E+01 -0.59426550297E+02 -0.59394016305E+02  0.19232871384E+03  0.17300000000E+03 0.  1.
         -6    1    1    2    0  503 -0.14731310435E+01  0.59426550297E+02 -0.37509143796E+03  0.41732034677E+03  0.17300000000E+03 0.  1.
<mgrwt>
<rscale>  2 0.18292809E+03</rscale>
<asrwt>0</asrwt>
<pdfrwt beam="1">  1       21 0.13474124E-01 0.18292809E+03</pdfrwt>
<pdfrwt beam="2">  1       21 0.80318040E-01 0.18292809E+03</pdfrwt>
<totfact> 0.65235775E+04</totfact>
</mgrwt>
</event>
<event>
 4    1  0.4072310E+000  0.2087253E+03  0.7546771E-02  0.1142579E+00
         21   -1    0    0  503  502  0.00000000000E+00  0.00000000000E+00  0.73462942894E+03  0.73462942894E+03  0.00000000000E+00 0.  1.
         21   -1    0    0  501  503 -0.00000000000E+00 -0.00000000000E+00 -0.59325521925E+02  0.59325521925E+02  0.00000000000E+00 0.  1.
          6    1    1    2  501    0 -0.47684119085E+02  0.10659953870E+03  0.34526710078E+03  0.40345459192E+03  0.17300000000E+03 0.  1.
         -6    1    1    2    0  502  0.47684119085E+02 -0.10659953870E+03  0.33003680623E+03  0.39050035894E+03  0.17300000000E+03 0.  1.
<mgrwt>
<rscale>  2 0.20872527E+03</rscale>
<asrwt>0</asrwt>
<pdfrwt beam="1">  1       21 0.11301991E+00 0.20872527E+03</pdfrwt>
<pdfrwt beam="2">  1       21 0.91270039E-02 0.20872527E+03</pdfrwt>
<totfact> 0.57819046E+04</totfact>
</mgrwt>
</event>
<event>
 4    1  0.4072310E+000  0.1742316E+03  0.7546771E-02  0.1173505E+00
         21   -1    0    0  501  502  0.00000000000E+00  0.00000000000E+00  0.24457276872E+03  0.24457276872E+03  0.00000000000E+00 0.  1.
         21   -1    0    0  502  503 -0.00000000000E+00 -0.00000000000E+00 -0.13183310168E+03  0.13183310168E+03  0.00000000000E+00 0.  1.
          6    1    1    2  501    0 -0.14961225911E+02 -0.14276438166E+02  0.10188919032E+03  0.20183672132E+03  0.17300000000E+03 0.  1.
         -6    1    1    2    0  503  0.14961225911E+02  0.14276438166E+02  0.10850476718E+02  0.17456914909E+03  0.17300000000E+03 0.  1.
<mgrwt>
<rscale>  2 0.17423161E+03</rscale>
<asrwt>0</asrwt>
<pdfrwt beam="1">  1       21 0.37626580E-01 0.17423161E+03</pdfrwt>
<pdfrwt beam="2">  1       21 0.20282016E-01 0.17423161E+03</pdfrwt>
<totfact> 0.15409244E+05</totfact>
</mgrwt>
</event>
<event>
 4    1  0.4072310E+000  0.2576677E+03  0.7546771E-02  0.1108553E+00
         21   -1    0    0  501  502  0.00000000000E+00  0.00000000000E+00  0.13631917917E+03  0.13631917917E+03  0.00000000000E+00 0.  1.
         21   -1    0    0  502  503 -0.00000000000E+00 -0.00000000000E+00 -0.56867890131E+03  0.56867890131E+03  0.00000000000E+00 0. -1.
          6    1    1    2  501    0 -0.38443144767E+02  0.18704487573E+03 -0.82619530413E+02  0.27058944495E+03  0.17300000000E+03 0.  1.
         -6    1    1    2    0  503  0.38443144767E+02 -0.18704487573E+03 -0.34974019172E+03  0.43440863553E+03  0.17300000000E+03 0. -1.
<mgrwt>
<rscale>  2 0.25766773E+03</rscale>
<asrwt>0</asrwt>
<pdfrwt beam="1">  1       21 0.20972182E-01 0.25766773E+03</pdfrwt>
<pdfrwt beam="2">  1       21 0.87489061E-01 0.25766773E+03</pdfrwt>
<totfact> 0.22879223E+04</totfact>
</mgrwt>
</event>
<event>
 4    1  0.4072310E+000  0.1937059E+03  0.7546771E-02  0.1155161E+00
         21   -1    0    0  503  502  0.00000000000E+00  0.00000000000E+00  0.15612616879E+03  0.15612616879E+03  0.00000000000E+00 0.  1.
         21   -1    0    0  501  503 -0.00000000000E+00 -0.00000000000E+00 -0.27035659639E+03  0.27035659639E+03  0.00000000000E+00 0.  1.
          6    1    1    2  501    0 -0.87032576265E+02 -0.42797592406E+01 -0.12817887140E+03  0.23227528655E+03  0.17300000000E+03 0.  1.
         -6    1    1    2    0  502  0.87032576265E+02  0.42797592406E+01  0.13948443798E+02  0.19420747863E+03  0.17300000000E+03 0.  1.
<mgrwt>
<rscale>  2 0.19370593E+03</rscale>
<asrwt>0</asrwt>
<pdfrwt beam="1">  1       21 0.24019411E-01 0.19370593E+03</pdfrwt>
<pdfrwt beam="2">  1       21 0.41593322E-01 0.19370593E+03</pdfrwt>
<totfact> 0.90939253E+04</totfact>
</mgrwt>
</event>
<event>
 4    1  0.4072310E+000  0.3119052E+03  0.7546771E-02  0.1079436E+00
         21   -1    0    0  503  502  0.00000000000E+00  0.00000000000E+00  0.22017978963E+03  0.22017978963E+03  0.00000000000E+00 0. -1.
         21   -1    0    0  501  503 -0.00000000000E+00 -0.00000000000E+00 -0.63085692707E+03  0.63085692707E+03  0.00000000000E+00 0.  1.
          6    1    1    2  501    0 -0.11819022194E+03  0.23105606528E+03 -0.43825498815E+03  0.53791474092E+03  0.17300000000E+03 0.  1.
         -6    1    1    2    0  502  0.11819022194E+03 -0.23105606528E+03  0.27577850710E+02  0.31312197578E+03  0.17300000000E+03 0. -1.
<mgrwt>
<rscale>  2 0.31190517E+03</rscale>
<asrwt>0</asrwt>
<pdfrwt beam="1">  1       21 0.33873815E-01 0.31190517E+03</pdfrwt>
<pdfrwt beam="2">  1       21 0.97054909E-01 0.31190517E+03</pdfrwt>
<totfact> 0.68886319E+03</totfact>
</mgrwt>
</event>
<event>
 4    1  0.4072310E+000  0.1935467E+03  0.7546771E-02  0.1155301E+00
         21   -1    0    0  503  502  0.00000000000E+00  0.00000000000E+00  0.47365039307E+02  0.47365039307E+02  0.00000000000E+00 0.  1.
         21   -1    0    0  501  503 -0.00000000000E+00 -0.00000000000E+00 -0.11183941800E+04  0.11183941800E+04  0.00000000000E+00 0. -1.
          6    1    1    2  501    0 -0.78647069406E+02 -0.36687607608E+02 -0.85093698440E+03  0.87267066726E+03  0.17300000000E+03 0. -1.
         -6    1    1    2    0  502  0.78647069406E+02  0.36687607608E+02 -0.22009215629E+03  0.29308855204E+03  0.17300000000E+03 0.  1.
<mgrwt>
<rscale>  2 0.19354674E+03</rscale>
<asrwt>0</asrwt>
<pdfrwt beam="1">  1       21 0.72869287E-02 0.19354674E+03</pdfrwt>
<pdfrwt beam="2">  1       21 0.17206065E+00 0.19354674E+03</pdfrwt>
<totfact> 0.29111030E+04</totfact>
</mgrwt>
</event>
<event>
 4    1  0.4072310E+000  0.2088687E+03  0.7546771E-02  0.1142465E+00
         21   -1    0    0  503  502  0.00000000000E+00  0.00000000000E+00  0.22860708456E+03  0.22860708456E+03  0.00000000000E+00 0.  1.
         21   -1    0    0  501  503 -0.00000000000E+00 -0.00000000000E+00 -0.25623730993E+03  0.25623730993E+03  0.00000000000E+00 0. -1.
          6    1    1    2  501    0 -0.22010042597E+02  0.11494644688E+03 -0.13629062757E+03  0.24940180992E+03  0.17300000000E+03 0. -1.
         -6    1    1    2    0  502  0.22010042597E+02 -0.11494644688E+03  0.10866040220E+03  0.23544258458E+03  0.17300000000E+03 0.  1.
<mgrwt>
<rscale>  2 0.20886869E+03</rscale>
<asrwt>0</asrwt>
<pdfrwt beam="1">  1       21 0.35170321E-01 0.20886869E+03</pdfrwt>
<pdfrwt beam="2">  1       21 0.39421125E-01 0.20886869E+03</pdfrwt>
<totfact> 0.47967346E+04</totfact>
</mgrwt>
</event>
<event>
 4    1  0.4072310E+000  0.3475346E+03  0.7546771E-02  0.1063632E+00
         21   -1    0    0  503  502  0.00000000000E+00  0.00000000000E+00  0.16367638301E+04  0.16367638301E+04  0.00000000000E+00 0.  1.
         21   -1    0    0  501  503 -0.00000000000E+00 -0.00000000000E+00 -0.74236723126E+02  0.74236723126E+02  0.00000000000E+00 0. -1.
          6    1    1    2  501    0  0.10798079941E+03 -0.28140973514E+03  0.71505847415E+03  0.79504019617E+03  0.17300000000E+03 0. -1.
         -6    1    1    2    0  502 -0.10798079941E+03  0.28140973514E+03  0.84746863283E+03  0.91596035706E+03  0.17300000000E+03 0.  1.
<mgrwt>
<rscale>  2 0.34753459E+03</rscale>
<asrwt>0</asrwt>
<pdfrwt beam="1">  1       21 0.25180979E+00 0.34753459E+03</pdfrwt>
<pdfrwt beam="2">  1       21 0.11421035E-01 0.34753459E+03</pdfrwt>
<totfact> 0.36801616E+03</totfact>
</mgrwt>
</event>
<event>
 4    1  0.4072310E+000  0.1894707E+03  0.7546771E-02  0.1158940E+00
         21   -1    0    0  501  502  0.00000000000E+00  0.00000000000E+00  0.70025720153E+03  0.70025720153E+03  0.00000000000E+00 0.  1.
         21   -1    0    0  502  503 -0.00000000000E+00 -0.00000000000E+00 -0.75136669020E+02  0.75136669020E+02  0.00000000000E+00 0.  1.
          6    1    1    2  501    0 -0.67825863826E+02 -0.37010947163E+02  0.53108552958E+03  0.56387143725E+03  0.17300000000E+03 0. -1.
         -6    1    1    2    0  503  0.67825863826E+02  0.37010947163E+02  0.94035002928E+02  0.21152243330E+03  0.17300000000E+03 0. -1.
<mgrwt>
<rscale>  2 0.18947073E+03</rscale>
<asrwt>0</asrwt>
<pdfrwt beam="1">  1       21 0.10773187E+00 0.18947073E+03</pdfrwt>
<pdfrwt beam="2">  1       21 0.11559488E-01 0.18947073E+03</pdfrwt>
<totfact> 0.43161441E+04</totfact>
</mgrwt>
</event>
<event>
 4    1  0.4072310E+000  0.2290869E+03  0.7546771E-02  0.1127284E+00
         21   -1    0    0  501  502  0.00000000000E+00  0.00000000000E+00  0.79410676195E+03  0.79410676195E+03  0.00000000000E+00 0. -1.
         21   -1    0    0  502  503 -0.00000000000E+00 -0.00000000000E+00 -0.15276438724E+03  0.15276438724E+03  0.00000000000E+00 0.  1.
          6    1    1    2  501    0  0.38945516353E+02 -0.14503465918E+03  0.67728701362E+03  0.71498147139E+03  0.17300000000E+03 0. -1.
         -6    1    1    2    0  503 -0.38945516353E+02  0.14503465918E+03 -0.35944638909E+02  0.23188967781E+03  0.17300000000E+03 0.  1.
<mgrwt>
<rscale>  2 0.22908690E+03</rscale>
<asrwt>0</asrwt>
<pdfrwt beam="1">  1       21 0.12217027E+00 0.22908690E+03</pdfrwt>
<pdfrwt beam="2">  1       21 0.23502214E-01 0.22908690E+03</pdfrwt>
<totfact> 0.83862100E+03</totfact>
</mgrwt>
</event>
<event>
 4    1  0.4072310E+000  0.2448072E+03  0.7546771E-02  0.1116631E+00
         21   -1    0    0  501  502  0.00000000000E+00  0.00000000000E+00  0.68115610958E+03  0.68115610958E+03  0.00000000000E+00 0. -1.
         21   -1    0    0  502  503 -0.00000000000E+00 -0.00000000000E+00 -0.91162675140E+02  0.91162675140E+02  0.00000000000E+00 0. -1.
          6    1    1    2  501    0 -0.15980314480E+03 -0.66816976142E+02  0.22288434182E+03  0.33107096402E+03  0.17300000000E+03 0. -1.
         -6    1    1    2    0  503  0.15980314480E+03  0.66816976142E+02  0.36710909262E+03  0.44124782070E+03  0.17300000000E+03 0. -1.
<mgrwt>
<rscale>  2 0.24480718E+03</rscale>
<asrwt>0</asrwt>
<pdfrwt beam="1">  1       21 0.10479324E+00 0.24480718E+03</pdfrwt>
<pdfrwt beam="2">  1       21 0.14025027E-01 0.24480718E+03</pdfrwt>
<totfact> 0.31656163E+04</totfact>
</mgrwt>
</event>
<event>
 4    1  0.4072310E+000  0.2188382E+03  0.7546771E-02  0.1134752E+00
         21   -1    0    0  501  502  0.00000000000E+00  0.00000000000E+00  0.11207520888E+04  0.11207520888E+04  0.00000000000E+00 0. -1.
         21   -1    0    0  502  503 -0.00000000000E+00 -0.00000000000E+00 -0.42737561535E+02  0.42737561535E+02  0.00000000000E+00 0. -1.
          6    1    1    2  501    0  0.11529969245E+03  0.68316443331E+02  0.54655173146E+03  0.58873504284E+03  0.17300000000E+03 0. -1.
         -6    1    1    2    0  503 -0.11529969245E+03 -0.68316443331E+02  0.53146279580E+03  0.57475460749E+03  0.17300000000E+03 0. -1.
<mgrwt>
<rscale>  2 0.21883819E+03</rscale>
<asrwt>0</asrwt>
<pdfrwt beam="1">  1       21 0.17242338E+00 0.21883819E+03</pdfrwt>
<pdfrwt beam="2">  1       21 0.65750103E-02 0.21883819E+03</pdfrwt>
<totfact> 0.34016039E+04</totfact>
</mgrwt>
</event>
<event>
 4    1  0.4072310E+000  0.1922342E+03  0.7546771E-02  0.1156462E+00
         21   -1    0    0  503  502  0.00000000000E+00  0.00000000000E+00  0.99635295058E+02  0.99635295058E+02  0.00000000000E+00 0.  1.
         21   -1    0    0  501  503 -0.00000000000E+00 -0.00000000000E+00 -0.80907000647E+03  0.80907000647E+03  0.00000000000E+00 0.  1.
          6    1    1    2  501    0 -0.77443588750E+02  0.32054013976E+02 -0.68908567864E+03  0.71539712171E+03  0.17300000000E+03 0.  1.
         -6    1    1    2    0  502  0.77443588750E+02 -0.32054013976E+02 -0.20349032778E+02  0.19330817982E+03  0.17300000000E+03 0.  1.
<mgrwt>
<rscale>  2 0.19223415E+03</rscale>
<asrwt>0</asrwt>
<pdfrwt beam="1">  1       21 0.15328506E-01 0.19223415E+03</pdfrwt>
<pdfrwt beam="2">  1       21 0.12447231E+00 0.19223415E+03</pdfrwt>
<totfact> 0.18185608E+04</totfact>
</mgrwt>
</event>
<event>
 4    1  0.4072310E+000  0.1830350E+03  0.7546771E-02  0.1164898E+00
         21   -1    0    0  503  502  0.00000000000E+00  0.00000000000E+00  0.59748213903E+03  0.59748213903E+03  0.00000000000E+00 0.  1.
         21   -1    0    0  501  503 -0.00000000000E+00 -0.00000000000E+00 -0.71906026075E+02  0.71906026075E+02  0.00000000000E+00 0.  1.
          6    1    1    2  501    0  0.56254622404E+02  0.20204888535E+02  0.10572804580E+03  0.21137700852E+03  0.17300000000E+03 0.  1.
         -6    1    1    2    0  502 -0.56254622404E+02 -0.20204888535E+02  0.41984806716E+03  0.45801115659E+03  0.17300000000E+03 0.  1.
<mgrwt>
<rscale>  2 0.18303502E+03</rscale>
<asrwt>0</asrwt>
<pdfrwt beam="1">  1       21 0.91920326E-01 0.18303502E+03</pdfrwt>
<pdfrwt beam="2">  1       21 0.11062466E-01 0.18303502E+03</pdfrwt>
<totfact> 0.68166711E+04</totfact>
</mgrwt>
</event>
<event>
 4    1  0.4072310E+000  0.3473170E+03  0.7546771E-02  0.1063722E+00
         21   -1    0    0  503  502  0.00000000000E+00  0.00000000000E+00  0.52702794996E+03  0.52702794996E+03  0.00000000000E+00 0.  1.
         21   -1    0    0  501  503 -0.00000000000E+00 -0.00000000000E+00 -0.44583463148E+03  0.44583463148E+03  0.00000000000E+00 0. -1.
          6    1    1    2  501    0 -0.21988063420E+03  0.20579741440E+03 -0.29872652719E+03  0.45811200281E+03  0.17300000000E+03 0. -1.
         -6    1    1    2    0  502  0.21988063420E+03 -0.20579741440E+03  0.37991984567E+03  0.51475057864E+03  0.17300000000E+03 0.  1.
<mgrwt>
<rscale>  2 0.34731696E+03</rscale>
<asrwt>0</asrwt>
<pdfrwt beam="1">  1       21 0.81081223E-01 0.34731696E+03</pdfrwt>
<pdfrwt beam="2">  1       21 0.68589943E-01 0.34731696E+03</pdfrwt>
<totfact> 0.23366279E+03</totfact>
</mgrwt>
</event>
<event>
 4    1  0.4072310E+000  0.2862454E+03  0.7546771E-02  0.1092326E+00
         21   -1    0    0  501  502  0.00000000000E+00  0.00000000000E+00  0.43835987790E+02  0.43835987790E+02  0.00000000000E+00 0.  1.
         21   -1    0    0  502  503 -0.00000000000E+00 -0.00000000000E+00 -0.26993605058E+04  0.26993605058E+04  0.00000000000E+00 0. -1.
          6    1    1    2  501    0 -0.22627215582E+03  0.28431210423E+02 -0.56710627190E+03  0.63525266300E+03  0.17300000000E+03 0.  1.
         -6    1    1    2    0  503  0.22627215582E+03 -0.28431210423E+02 -0.20884182461E+04  0.21079438305E+04  0.17300000000E+03 0. -1.
<mgrwt>
<rscale>  2 0.28624539E+03</rscale>
<asrwt>0</asrwt>
<pdfrwt beam="1">  1       21 0.67439986E-02 0.28624539E+03</pdfrwt>
<pdfrwt beam="2">  1       21 0.41528620E+00 0.28624539E+03</pdfrwt>
<totfact> 0.10010609E+03</totfact>
</mgrwt>
</event>
<event>
 4    1  0.4072310E+000  0.1826546E+03  0.7546771E-02  0.1165258E+00
         21   -1    0    0  503  502  0.00000000000E+00  0.00000000000E+00  0.33939186456E+02  0.33939186456E+02  0.00000000000E+00 0. -1.
         21   -1    0    0  501  503 -0.00000000000E+00 -0.00000000000E+00 -0.10119109187E+04  0.10119109187E+04  0.00000000000E+00 0. -1.
          6    1    1    2  501    0  0.34861335055E+02  0.47099851418E+02 -0.57735307582E+03  0.60555700214E+03  0.17300000000E+03 0. -1.
         -6    1    1    2    0  502 -0.34861335055E+02 -0.47099851418E+02 -0.40061865641E+03  0.44029310300E+03  0.17300000000E+03 0. -1.
<mgrwt>
<rscale>  2 0.18265462E+03</rscale>
<asrwt>0</asrwt>
<pdfrwt beam="1">  1       21 0.52214131E-02 0.18265462E+03</pdfrwt>
<pdfrwt beam="2">  1       21 0.15567861E+00 0.18265462E+03</pdfrwt>
<totfact> 0.68062829E+04</totfact>
</mgrwt>
</event>
<event>
 4    1  0.4072310E+000  0.1829100E+03  0.7546771E-02  0.1165016E+00
         21   -1    0    0  501  502  0.00000000000E+00  0.00000000000E+00  0.11548103930E+03  0.11548103930E+03  0.00000000000E+00 0.  1.
         21   -1    0    0  502  503 -0.00000000000E+00 -0.00000000000E+00 -0.34340734563E+03  0.34340734563E+03  0.00000000000E+00 0. -1.
          6    1    1    2  501    0  0.46173585574E+02  0.37350380322E+02 -0.23233902926E+02  0.18437967665E+03  0.17300000000E+03 0.  1.
         -6    1    1    2    0  503 -0.46173585574E+02 -0.37350380322E+02 -0.20469240340E+03  0.27450870829E+03  0.17300000000E+03 0. -1.
<mgrwt>
<rscale>  2 0.18290995E+03</rscale>
<asrwt>0</asrwt>
<pdfrwt beam="1">  1       21 0.17766314E-01 0.18290995E+03</pdfrwt>
<pdfrwt beam="2">  1       21 0.52831899E-01 0.18290995E+03</pdfrwt>
<totfact> 0.98018286E+04</totfact>
</mgrwt>
</event>
<event>
 4    1  0.4072310E+000  0.2105576E+03  0.7546771E-02  0.1141125E+00
         21   -1    0    0  503  502  0.00000000000E+00  0.00000000000E+00  0.18349545322E+04  0.18349545322E+04  0.00000000000E+00 0.  1.
         21   -1    0    0  501  503 -0.00000000000E+00 -0.00000000000E+00 -0.34722217708E+02  0.34722217708E+02  0.00000000000E+00 0.  1.
          6    1    1    2  501    0  0.63919688748E+02 -0.10158629327E+03  0.38454578631E+03  0.43841756735E+03  0.17300000000E+03 0.  1.
         -6    1    1    2    0  502 -0.63919688748E+02  0.10158629327E+03  0.14156865282E+04  0.14312591826E+04  0.17300000000E+03 0.  1.
<mgrwt>
<rscale>  2 0.21055760E+03</rscale>
<asrwt>0</asrwt>
<pdfrwt beam="1">  1       21 0.28230062E+00 0.21055760E+03</pdfrwt>
<pdfrwt beam="2">  1       21 0.53418811E-02 0.21055760E+03</pdfrwt>
<totfact> 0.10193231E+04</totfact>
</mgrwt>
</event>
<event>
 4    1  0.4072310E+000  0.1787720E+03  0.7546771E-02  0.1168997E+00
         21   -1    0    0  503  502  0.00000000000E+00  0.00000000000E+00  0.16730541156E+04  0.16730541156E+04  0.00000000000E+00 0.  1.
         21   -1    0    0  501  503 -0.00000000000E+00 -0.00000000000E+00 -0.62361542785E+02  0.62361542785E+02  0.00000000000E+00 0.  1.
          6    1    1    2  501    0 -0.34796153546E+02 -0.28629909427E+02  0.82653433094E+02  0.19695439578E+03  0.17300000000E+03 0.  1.
         -6    1    1    2    0  502  0.34796153546E+02  0.28629909427E+02  0.15280391397E+04  0.15384612626E+04  0.17300000000E+03 0.  1.
<mgrwt>
<rscale>  2 0.17877204E+03</rscale>
<asrwt>0</asrwt>
<pdfrwt beam="1">  1       21 0.25739291E+00 0.17877204E+03</pdfrwt>
<pdfrwt beam="2">  1       21 0.95940848E-02 0.17877204E+03</pdfrwt>
<totfact> 0.53331331E+03</totfact>
</mgrwt>
</event>
<event>
 4    1  0.4072310E+000  0.1889669E+03  0.7546771E-02  0.1159396E+00
         21   -1    0    0  501  502  0.00000000000E+00  0.00000000000E+00  0.79443626555E+02  0.79443626555E+02  0.00000000000E+00 0.  1.
         21   -1    0    0  502  503 -0.00000000000E+00 -0.00000000000E+00 -0.51257795897E+03  0.51257795897E+03  0.00000000000E+00 0.  1.
          6    1    1    2  501    0 -0.71113337487E+02  0.26876964785E+02 -0.11271191800E+03  0.22002830378E+03  0.17300000000E+03 0.  1.
         -6    1    1    2    0  503  0.71113337487E+02 -0.26876964785E+02 -0.32042241441E+03  0.37199328175E+03  0.17300000000E+03 0.  1.
<mgrwt>
<rscale>  2 0.18896687E+03</rscale>
<asrwt>0</asrwt>
<pdfrwt beam="1">  1       21 0.12222097E-01 0.18896687E+03</pdfrwt>
<pdfrwt beam="2">  1       21 0.78858145E-01 0.18896687E+03</pdfrwt>
<totfact> 0.80803396E+04</totfact>
</mgrwt>
</event>
<event>
 4    1  0.4072310E+000  0.2166530E+03  0.7546771E-02  0.1136403E+00
         21   -1    0    0  501  502  0.00000000000E+00  0.00000000000E+00  0.27797190975E+03  0.27797190975E+03  0.00000000000E+00 0.  1.
         21   -1    0    0  502  503 -0.00000000000E+00 -0.00000000000E+00 -0.19429038476E+03  0.19429038476E+03  0.00000000000E+00 0. -1.
          6    1    1    2  501    0 -0.12022662998E+03  0.50547640397E+02  0.12726849354E+03  0.25126833456E+03  0.17300000000E+03 0.  1.
         -6    1    1    2    0  503  0.12022662998E+03 -0.50547640397E+02 -0.43586968549E+02  0.22099395995E+03  0.17300000000E+03 0.  1.
<mgrwt>
<rscale>  2 0.21665296E+03</rscale>
<asrwt>0</asrwt>
<pdfrwt beam="1">  1       21 0.42764909E-01 0.21665296E+03</pdfrwt>
<pdfrwt beam="2">  1       21 0.29890828E-01 0.21665296E+03</pdfrwt>
<totfact> 0.55819396E+04</totfact>
</mgrwt>
</event>
<event>
 4    1  0.4072310E+000  0.1815276E+03  0.7546771E-02  0.1166333E+00
         21   -1    0    0  503  502  0.00000000000E+00  0.00000000000E+00  0.92257436046E+03  0.92257436046E+03  0.00000000000E+00 0.  1.
         21   -1    0    0  501  503 -0.00000000000E+00 -0.00000000000E+00 -0.64324464728E+02  0.64324464728E+02  0.00000000000E+00 0.  1.
          6    1    1    2  501    0 -0.40545667161E+02  0.37139156596E+02  0.10005468396E+03  0.20727568082E+03  0.17300000000E+03 0.  1.
         -6    1    1    2    0  502  0.40545667161E+02 -0.37139156596E+02  0.75819521177E+03  0.77962314436E+03  0.17300000000E+03 0.  1.
<mgrwt>
<rscale>  2 0.18152760E+03</rscale>
<asrwt>0</asrwt>
<pdfrwt beam="1">  1       21 0.14193451E+00 0.18152760E+03</pdfrwt>
<pdfrwt beam="2">  1       21 0.98960721E-02 0.18152760E+03</pdfrwt>
<totfact> 0.28741075E+04</totfact>
</mgrwt>
</event>
<event>
 4    1  0.4072310E+000  0.2759423E+03  0.7546771E-02  0.1097926E+00
         21   -1    0    0  503  502  0.00000000000E+00  0.00000000000E+00  0.42763800689E+03  0.42763800689E+03  0.00000000000E+00 0. -1.
         21   -1    0    0  501  503 -0.00000000000E+00 -0.00000000000E+00 -0.20187164508E+03  0.20187164508E+03  0.00000000000E+00 0. -1.
          6    1    1    2  501    0 -0.21497647500E+03 -0.53426182954E+00  0.47766586164E+01  0.27598367109E+03  0.17300000000E+03 0. -1.
         -6    1    1    2    0  502  0.21497647500E+03  0.53426182954E+00  0.22098970320E+03  0.35352598088E+03  0.17300000000E+03 0. -1.
<mgrwt>
<rscale>  2 0.27594233E+03</rscale>
<asrwt>0</asrwt>
<pdfrwt beam="1">  1       21 0.65790462E-01 0.27594233E+03</pdfrwt>
<pdfrwt beam="2">  1       21 0.31057176E-01 0.27594233E+03</pdfrwt>
<totfact> 0.20249469E+04</totfact>
</mgrwt>
</event>
<event>
 4    1  0.4072310E+000  0.1894984E+03  0.7546771E-02  0.1158915E+00
         21   -1    0    0  503  502  0.00000000000E+00  0.00000000000E+00  0.35693195972E+03  0.35693195972E+03  0.00000000000E+00 0.  1.
         21   -1    0    0  501  503 -0.00000000000E+00 -0.00000000000E+00 -0.12152419061E+03  0.12152419061E+03  0.00000000000E+00 0.  1.
          6    1    1    2  501    0 -0.73980278398E+02  0.22528969033E+02  0.18451994888E+02  0.19039462217E+03  0.17300000000E+03 0.  1.
         -6    1    1    2    0  502  0.73980278398E+02 -0.22528969033E+02  0.21695577422E+03  0.28806152816E+03  0.17300000000E+03 0.  1.
<mgrwt>
<rscale>  2 0.18949838E+03</rscale>
<asrwt>0</asrwt>
<pdfrwt beam="1">  1       21 0.54912609E-01 0.18949838E+03</pdfrwt>
<pdfrwt beam="2">  1       21 0.18696030E-01 0.18949838E+03</pdfrwt>
<totfact> 0.82012661E+04</totfact>
</mgrwt>
</event>
<event>
 4    1  0.4072310E+000  0.2585100E+03  0.7546771E-02  0.1108042E+00
         21   -1    0    0  501  502  0.00000000000E+00  0.00000000000E+00  0.13547821506E+04  0.13547821506E+04  0.00000000000E+00 0.  1.
         21   -1    0    0  502  503 -0.00000000000E+00 -0.00000000000E+00 -0.56279667896E+02  0.56279667896E+02  0.00000000000E+00 0. -1.
          6    1    1    2  501    0 -0.19158389284E+03  0.13928865677E+02  0.89723006280E+03  0.93372864735E+03  0.17300000000E+03 0.  1.
         -6    1    1    2    0  503  0.19158389284E+03 -0.13928865677E+02  0.40127241987E+03  0.47733317111E+03  0.17300000000E+03 0. -1.
<mgrwt>
<rscale>  2 0.25850996E+03</rscale>
<asrwt>0</asrwt>
<pdfrwt beam="1">  1       21 0.20842800E+00 0.25850996E+03</pdfrwt>
<pdfrwt beam="2">  1       21 0.86584115E-02 0.25850996E+03</pdfrwt>
<totfact> 0.11818192E+04</totfact>
</mgrwt>
</event>
<event>
 4    1  0.4072310E+000  0.2382202E+03  0.7546771E-02  0.1120984E+00
         21   -1    0    0  501  502  0.00000000000E+00  0.00000000000E+00  0.42243315983E+03  0.42243315983E+03  0.00000000000E+00 0. -1.
         21   -1    0    0  502  503 -0.00000000000E+00 -0.00000000000E+00 -0.21817763050E+03  0.21817763050E+03  0.00000000000E+00 0.  1.
          6    1    1    2  501    0  0.16143477345E+03  0.27544277188E+02  0.30068400017E+03  0.38361405246E+03  0.17300000000E+03 0. -1.
         -6    1    1    2    0  503 -0.16143477345E+03 -0.27544277188E+02 -0.96428470842E+02  0.25699673787E+03  0.17300000000E+03 0.  1.
<mgrwt>
<rscale>  2 0.23822022E+03</rscale>
<asrwt>0</asrwt>
<pdfrwt beam="1">  1       21 0.64989717E-01 0.23822022E+03</pdfrwt>
<pdfrwt beam="2">  1       21 0.33565789E-01 0.23822022E+03</pdfrwt>
<totfact> 0.18158548E+04</totfact>
</mgrwt>
</event>
<event>
 4    1  0.4072310E+000  0.3067367E+03  0.7546771E-02  0.1081921E+00
         21   -1    0    0  503  502  0.00000000000E+00  0.00000000000E+00  0.16187328371E+03  0.16187328371E+03  0.00000000000E+00 0. -1.
         21   -1    0    0  501  503 -0.00000000000E+00 -0.00000000000E+00 -0.60653732944E+03  0.60653732944E+03  0.00000000000E+00 0.  1.
          6    1    1    2  501    0 -0.20450982623E+03 -0.14944599597E+03 -0.30079487990E+03  0.42961021230E+03  0.17300000000E+03 0.  1.
         -6    1    1    2    0  502  0.20450982623E+03  0.14944599597E+03 -0.14386916583E+03  0.33880040085E+03  0.17300000000E+03 0. -1.
<mgrwt>
<rscale>  2 0.30673665E+03</rscale>
<asrwt>0</asrwt>
<pdfrwt beam="1">  1       21 0.24903582E-01 0.30673665E+03</pdfrwt>
<pdfrwt beam="2">  1       21 0.93313436E-01 0.30673665E+03</pdfrwt>
<totfact> 0.13867866E+04</totfact>
</mgrwt>
</event>
<event>
 4    1  0.4072310E+000  0.3457312E+03  0.7546771E-02  0.1064381E+00
         21   -1    0    0  503  502  0.00000000000E+00  0.00000000000E+00  0.46786170521E+03  0.46786170521E+03  0.00000000000E+00 0.  1.
         21   -1    0    0  501  503 -0.00000000000E+00 -0.00000000000E+00 -0.38713481733E+03  0.38713481733E+03  0.00000000000E+00 0. -1.
          6    1    1    2  501    0 -0.27566119868E+03  0.11667032532E+03 -0.20893465129E+03  0.40396008439E+03  0.17300000000E+03 0. -1.
         -6    1    1    2    0  502  0.27566119868E+03 -0.11667032532E+03  0.28966153917E+03  0.45103643815E+03  0.17300000000E+03 0.  1.
<mgrwt>
<rscale>  2 0.34573120E+03</rscale>
<asrwt>0</asrwt>
<pdfrwt beam="1">  1       21 0.71978724E-01 0.34573120E+03</pdfrwt>
<pdfrwt beam="2">  1       21 0.59559203E-01 0.34573120E+03</pdfrwt>
<totfact> 0.41841434E+03</totfact>
</mgrwt>
</event>
<event>
 4    1  0.4072310E+000  0.2158180E+03  0.7546771E-02  0.1137040E+00
         21   -1    0    0  503  502  0.00000000000E+00  0.00000000000E+00  0.27671159473E+03  0.27671159473E+03  0.00000000000E+00 0. -1.
         21   -1    0    0  501  503 -0.00000000000E+00 -0.00000000000E+00 -0.16890926182E+03  0.16890926182E+03  0.00000000000E+00 0.  1.
          6    1    1    2  501    0  0.12650439410E+03  0.25398040916E+02  0.40794596620E+02  0.21963975351E+03  0.17300000000E+03 0.  1.
         -6    1    1    2    0  502 -0.12650439410E+03 -0.25398040916E+02  0.67007736287E+02  0.22598110304E+03  0.17300000000E+03 0. -1.
<mgrwt>
<rscale>  2 0.21581803E+03</rscale>
<asrwt>0</asrwt>
<pdfrwt beam="1">  1       21 0.42571014E-01 0.21581803E+03</pdfrwt>
<pdfrwt beam="2">  1       21 0.25986040E-01 0.21581803E+03</pdfrwt>
<totfact> 0.73925694E+04</totfact>
</mgrwt>
</event>
<event>
 4    1  0.4072310E+000  0.2067315E+03  0.7546771E-02  0.1144181E+00
         21   -1    0    0  501  502  0.00000000000E+00  0.00000000000E+00  0.48493984298E+03  0.48493984298E+03  0.00000000000E+00 0. -1.
         21   -1    0    0  502  503 -0.00000000000E+00 -0.00000000000E+00 -0.18776047715E+03  0.18776047715E+03  0.00000000000E+00 0. -1.
          6    1    1    2  501    0 -0.78620670663E+02  0.81410648458E+02  0.39360032942E+03  0.44458871202E+03  0.17300000000E+03 0. -1.
         -6    1    1    2    0  503  0.78620670663E+02 -0.81410648458E+02 -0.96420963584E+02  0.22811160811E+03  0.17300000000E+03 0. -1.
<mgrwt>
<rscale>  2 0.20673148E+03</rscale>
<asrwt>0</asrwt>
<pdfrwt beam="1">  1       21 0.74606129E-01 0.20673148E+03</pdfrwt>
<pdfrwt beam="2">  1       21 0.28886228E-01 0.20673148E+03</pdfrwt>
<totfact> 0.18292716E+04</totfact>
</mgrwt>
</event>
<event>
 4    1  0.4072310E+000  0.2929091E+03  0.7546771E-02  0.1088840E+00
         21   -1    0    0  503  502  0.00000000000E+00  0.00000000000E+00  0.12784358812E+04  0.12784358812E+04  0.00000000000E+00 0.  1.
         21   -1    0    0  501  503 -0.00000000000E+00 -0.00000000000E+00 -0.90533292268E+02  0.90533292268E+02  0.00000000000E+00 0. -1.
          6    1    1    2  501    0 -0.20725030721E+03  0.11364006965E+03  0.24578715181E+03  0.38237034308E+03  0.17300000000E+03 0. -1.
         -6    1    1    2    0  502  0.20725030721E+03 -0.11364006965E+03  0.94211543715E+03  0.98659883042E+03  0.17300000000E+03 0.  1.
<mgrwt>
<rscale>  2 0.29290912E+03</rscale>
<asrwt>0</asrwt>
<pdfrwt beam="1">  1       21 0.19668243E+00 0.29290912E+03</pdfrwt>
<pdfrwt beam="2">  1       21 0.13928200E-01 0.29290912E+03</pdfrwt>
<totfact> 0.58791449E+03</totfact>
</mgrwt>
</event>
<event>
 4    1  0.4072310E+000  0.2814569E+03  0.7546771E-02  0.1094896E+00
         21   -1    0    0  501  502  0.00000000000E+00  0.00000000000E+00  0.10904679130E+04  0.10904679130E+04  0.00000000000E+00 0.  1.
         21   -1    0    0  502  503 -0.00000000000E+00 -0.00000000000E+00 -0.74685166612E+02  0.74685166612E+02  0.00000000000E+00 0.  1.
          6    1    1    2  501    0 -0.21401542989E+03 -0.59045751050E+02  0.60415773918E+03  0.66650174700E+03  0.17300000000E+03 0.  1.
         -6    1    1    2    0  503  0.21401542989E+03  0.59045751050E+02  0.41162500720E+03  0.49865133260E+03  0.17300000000E+03 0.  1.
<mgrwt>
<rscale>  2 0.28145693E+03</rscale>
<asrwt>0</asrwt>
<pdfrwt beam="1">  1       21 0.16776428E+00 0.28145693E+03</pdfrwt>
<pdfrwt beam="2">  1       21 0.11490026E-01 0.28145693E+03</pdfrwt>
<totfact> 0.13262301E+04</totfact>
</mgrwt>
</event>
<event>
 4    1  0.4072310E+000  0.1861085E+03  0.7546771E-02  0.1162019E+00
         21   -1    0    0  503  502  0.00000000000E+00  0.00000000000E+00  0.54586023689E+02  0.54586023689E+02  0.00000000000E+00 0.  1.
         21   -1    0    0  501  503 -0.00000000000E+00 -0.00000000000E+00 -0.65138891536E+03  0.65138891536E+03  0.00000000000E+00 0.  1.
          6    1    1    2  501    0 -0.58594072400E+02  0.35694466869E+02 -0.35519247217E+03  0.40099632488E+03  0.17300000000E+03 0.  1.
         -6    1    1    2    0  502  0.58594072400E+02 -0.35694466869E+02 -0.24161041950E+03  0.30497861416E+03  0.17300000000E+03 0.  1.
<mgrwt>
<rscale>  2 0.18610846E+03</rscale>
<asrwt>0</asrwt>
<pdfrwt beam="1">  1       21 0.83978501E-02 0.18610846E+03</pdfrwt>
<pdfrwt beam="2">  1       21 0.10021368E+00 0.18610846E+03</pdfrwt>
<totfact> 0.90316219E+04</totfact>
</mgrwt>
</event>
<event>
 4    1  0.4072310E+000  0.2200872E+03  0.7546771E-02  0.1133818E+00
         21   -1    0    0  501  502  0.00000000000E+00  0.00000000000E+00  0.10794958897E+03  0.10794958897E+03  0.00000000000E+00 0. -1.
         21   -1    0    0  502  503 -0.00000000000E+00 -0.00000000000E+00 -0.47740199283E+03  0.47740199283E+03  0.00000000000E+00 0. -1.
          6    1    1    2  501    0  0.86741638290E+02  0.10481053925E+03 -0.11297916863E+03  0.24739170054E+03  0.17300000000E+03 0. -1.
         -6    1    1    2    0  503 -0.86741638290E+02 -0.10481053925E+03 -0.25647323523E+03  0.33795988126E+03  0.17300000000E+03 0. -1.
<mgrwt>
<rscale>  2 0.22008717E+03</rscale>
<asrwt>0</asrwt>
<pdfrwt beam="1">  1       21 0.16607629E-01 0.22008717E+03</pdfrwt>
<pdfrwt beam="2">  1       21 0.73446460E-01 0.22008717E+03</pdfrwt>
<totfact> 0.53546955E+04</totfact>
</mgrwt>
</event>
<event>
 4    1  0.4072310E+000  0.1763915E+03  0.7546771E-02  0.1171342E+00
         21   -1    0    0  501  502  0.00000000000E+00  0.00000000000E+00  0.16403491349E+03  0.16403491349E+03  0.00000000000E+00 0.  1.
         21   -1    0    0  502  503 -0.00000000000E+00 -0.00000000000E+00 -0.33971821885E+03  0.33971821885E+03  0.00000000000E+00 0.  1.
          6    1    1    2  501    0 -0.13799891109E+01 -0.34395580097E+02  0.79548883792E+02  0.19349931579E+03  0.17300000000E+03 0.  1.
         -6    1    1    2    0  503  0.13799891109E+01  0.34395580097E+02 -0.25523218915E+03  0.31025381654E+03  0.17300000000E+03 0.  1.
<mgrwt>
<rscale>  2 0.17639150E+03</rscale>
<asrwt>0</asrwt>
<pdfrwt beam="1">  1       21 0.25236141E-01 0.17639150E+03</pdfrwt>
<pdfrwt beam="2">  1       21 0.52264340E-01 0.17639150E+03</pdfrwt>
<totfact> 0.52068077E+04</totfact>
</mgrwt>
</event>
<event>
 4    1  0.4072310E+000  0.2700153E+03  0.7546771E-02  0.1101271E+00
         21   -1    0    0  503  502  0.00000000000E+00  0.00000000000E+00  0.49983267728E+03  0.49983267728E+03  0.00000000000E+00 0.  1.
         21   -1    0    0  501  503 -0.00000000000E+00 -0.00000000000E+00 -0.15109476332E+03  0.15109476332E+03  0.00000000000E+00 0. -1.
          6    1    1    2  501    0 -0.15379018323E+02  0.20674323366E+03  0.11382044234E+03  0.29302452451E+03  0.17300000000E+03 0. -1.
         -6    1    1    2    0  502  0.15379018323E+02 -0.20674323366E+03  0.23491747161E+03  0.35790291608E+03  0.17300000000E+03 0. -1.
<mgrwt>
<rscale>  2 0.27001533E+03</rscale>
<asrwt>0</asrwt>
<pdfrwt beam="1">  1       21 0.76897335E-01 0.27001533E+03</pdfrwt>
<pdfrwt beam="2">  1       21 0.23245348E-01 0.27001533E+03</pdfrwt>
<totfact> 0.25150471E+04</totfact>
</mgrwt>
</event>
<event>
 4    1  0.4072310E+000  0.1779835E+03  0.7546771E-02  0.1169769E+00
         21   -1    0    0  501  502  0.00000000000E+00  0.00000000000E+00  0.21319970581E+02  0.21319970581E+02  0.00000000000E+00 0.  1.
         21   -1    0    0  502  503 -0.00000000000E+00 -0.00000000000E+00 -0.14921051746E+04  0.14921051746E+04  0.00000000000E+00 0.  1.
          6    1    1    2  501    0 -0.41380732928E+02 -0.60635090655E+01 -0.68637068195E+03  0.70907181882E+03  0.17300000000E+03 0.  1.
         -6    1    1    2    0  503  0.41380732928E+02  0.60635090655E+01 -0.78441452204E+03  0.80435332633E+03  0.17300000000E+03 0.  1.
<mgrwt>
<rscale>  2 0.17798351E+03</rscale>
<asrwt>0</asrwt>
<pdfrwt beam="1">  1       21 0.32799951E-02 0.17798351E+03</pdfrwt>
<pdfrwt beam="2">  1       21 0.22955467E+00 0.17798351E+03</pdfrwt>
<totfact> 0.48543901E+04</totfact>
</mgrwt>
</event>
<event>
 4    1  0.4072310E+000  0.2767998E+03  0.7546771E-02  0.1097450E+00
         21   -1    0    0  501  502  0.00000000000E+00  0.00000000000E+00  0.52817134769E+02  0.52817134769E+02  0.00000000000E+00 0.  1.
         21   -1    0    0  502  503 -0.00000000000E+00 -0.00000000000E+00 -0.24442109067E+04  0.24442109067E+04  0.00000000000E+00 0.  1.
          6    1    1    2  501    0  0.44613113471E+02 -0.21142086873E+03 -0.39967367602E+03  0.48616577516E+03  0.17300000000E+03 0.  1.
         -6    1    1    2    0  503 -0.44613113471E+02  0.21142086873E+03 -0.19917200959E+04  0.20108622663E+04  0.17300000000E+03 0.  1.
<mgrwt>
<rscale>  2 0.27679977E+03</rscale>
<asrwt>0</asrwt>
<pdfrwt beam="1">  1       21 0.81257118E-02 0.27679977E+03</pdfrwt>
<pdfrwt beam="2">  1       21 0.37603250E+00 0.27679977E+03</pdfrwt>
<totfact> 0.12880071E+03</totfact>
</mgrwt>
</event>
<event>
 4    1  0.4072310E+000  0.1850719E+03  0.7546771E-02  0.1162983E+00
         21   -1    0    0  503  502  0.00000000000E+00  0.00000000000E+00  0.33657424729E+03  0.33657424729E+03  0.00000000000E+00 0.  1.
         21   -1    0    0  501  503 -0.00000000000E+00 -0.00000000000E+00 -0.11612848375E+03  0.11612848375E+03  0.00000000000E+00 0.  1.
          6    1    1    2  501    0  0.51592383711E+02 -0.40753362999E+02  0.30618368985E+02  0.18758756668E+03  0.17300000000E+03 0.  1.
         -6    1    1    2    0  502 -0.51592383711E+02  0.40753362999E+02  0.18982739456E+03  0.26511516437E+03  0.17300000000E+03 0.  1.
<mgrwt>
<rscale>  2 0.18507191E+03</rscale>
<asrwt>0</asrwt>
<pdfrwt beam="1">  1       21 0.51780653E-01 0.18507191E+03</pdfrwt>
<pdfrwt beam="2">  1       21 0.17865921E-01 0.18507191E+03</pdfrwt>
<totfact> 0.10110499E+05</totfact>
</mgrwt>
</event>
<event>
 4    1  0.4072310E+000  0.1895887E+03  0.7546771E-02  0.1158833E+00
         21   -1    0    0  501  502  0.00000000000E+00  0.00000000000E+00  0.85158089093E+02  0.85158089093E+02  0.00000000000E+00 0. -1.
         21   -1    0    0  502  503 -0.00000000000E+00 -0.00000000000E+00 -0.44767617004E+03  0.44767617004E+03  0.00000000000E+00 0.  1.
          6    1    1    2  501    0 -0.38315637519E+02 -0.67429860786E+02 -0.11755998651E+03  0.22307896502E+03  0.17300000000E+03 0. -1.
         -6    1    1    2    0  503  0.38315637519E+02  0.67429860786E+02 -0.24495809443E+03  0.30975529412E+03  0.17300000000E+03 0.  1.
<mgrwt>
<rscale>  2 0.18958870E+03</rscale>
<asrwt>0</asrwt>
<pdfrwt beam="1">  1       21 0.13101244E-01 0.18958870E+03</pdfrwt>
<pdfrwt beam="2">  1       21 0.68873259E-01 0.18958870E+03</pdfrwt>
<totfact> 0.96373860E+04</totfact>
</mgrwt>
</event>
<event>
 4    1  0.4072310E+000  0.1796934E+03  0.7546771E-02  0.1168100E+00
         21   -1    0    0  501  502  0.00000000000E+00  0.00000000000E+00  0.35541860312E+02  0.35541860312E+02  0.00000000000E+00 0.  1.
         21   -1    0    0  502  503 -0.00000000000E+00 -0.00000000000E+00 -0.13191637014E+04  0.13191637014E+04  0.00000000000E+00 0.  1.
          6    1    1    2  501    0  0.35342606113E+02  0.33341130631E+02 -0.26388257714E+03  0.31925498479E+03  0.17300000000E+03 0.  1.
         -6    1    1    2    0  503 -0.35342606113E+02 -0.33341130631E+02 -0.10197392639E+04  0.10354505769E+04  0.17300000000E+03 0.  1.
<mgrwt>
<rscale>  2 0.17969344E+03</rscale>
<asrwt>0</asrwt>
<pdfrwt beam="1">  1       21 0.54679782E-02 0.17969344E+03</pdfrwt>
<pdfrwt beam="2">  1       21 0.20294827E+00 0.17969344E+03</pdfrwt>
<totfact> 0.29987242E+04</totfact>
</mgrwt>
</event>
<event>
 4    1  0.4072310E+000  0.3451690E+03  0.7546771E-02  0.1064616E+00
         21   -1    0    0  503  502  0.00000000000E+00  0.00000000000E+00  0.57656419395E+03  0.57656419395E+03  0.00000000000E+00 0.  1.
         21   -1    0    0  501  503 -0.00000000000E+00 -0.00000000000E+00 -0.27399167982E+03  0.27399167982E+03  0.00000000000E+00 0. -1.
          6    1    1    2  501    0 -0.18775047551E+03  0.23229805044E+03 -0.59564974816E+02  0.35027076886E+03  0.17300000000E+03 0. -1.
         -6    1    1    2    0  502  0.18775047551E+03 -0.23229805044E+03  0.36213748895E+03  0.50028510491E+03  0.17300000000E+03 0.  1.
<mgrwt>
<rscale>  2 0.34516898E+03</rscale>
<asrwt>0</asrwt>
<pdfrwt beam="1">  1       21 0.88702183E-01 0.34516898E+03</pdfrwt>
<pdfrwt beam="2">  1       21 0.42152566E-01 0.34516898E+03</pdfrwt>
<totfact> 0.53851682E+03</totfact>
</mgrwt>
</event>
<event>
 4    1  0.4072310E+000  0.3155100E+03  0.7546771E-02  0.1077734E+00
         21   -1    0    0  503  502  0.00000000000E+00  0.00000000000E+00  0.69419222200E+03  0.69419222200E+03  0.00000000000E+00 0. -1.
         21   -1    0    0  501  503 -0.00000000000E+00 -0.00000000000E+00 -0.15424540079E+03  0.15424540079E+03  0.00000000000E+00 0. -1.
          6    1    1    2  501    0 -0.14894847875E+03  0.21778867169E+03  0.15748074670E+03  0.35262833185E+03  0.17300000000E+03 0. -1.
         -6    1    1    2    0  502  0.14894847875E+03 -0.21778867169E+03  0.38246607450E+03  0.49580929094E+03  0.17300000000E+03 0. -1.
<mgrwt>
<rscale>  2 0.31550999E+03</rscale>
<asrwt>0</asrwt>
<pdfrwt beam="1">  1       21 0.10679880E+00 0.31550999E+03</pdfrwt>
<pdfrwt beam="2">  1       21 0.23730062E-01 0.31550999E+03</pdfrwt>
<totfact> 0.10958579E+04</totfact>
</mgrwt>
</event>
<event>
 4    1  0.4072310E+000  0.1943167E+03  0.7546771E-02  0.1154625E+00
         21   -1    0    0  501  502  0.00000000000E+00  0.00000000000E+00  0.35580008440E+03  0.35580008440E+03  0.00000000000E+00 0. -1.
         21   -1    0    0  502  503 -0.00000000000E+00 -0.00000000000E+00 -0.14851223013E+03  0.14851223013E+03  0.00000000000E+00 0. -1.
          6    1    1    2  501    0  0.32290333608E+02  0.82385238406E+02  0.23835713364E+03  0.30752742367E+03  0.17300000000E+03 0. -1.
         -6    1    1    2    0  503 -0.32290333608E+02 -0.82385238406E+02 -0.31069279367E+02  0.19678489086E+03  0.17300000000E+03 0. -1.
<mgrwt>
<rscale>  2 0.19431673E+03</rscale>
<asrwt>0</asrwt>
<pdfrwt beam="1">  1       21 0.54738474E-01 0.19431673E+03</pdfrwt>
<pdfrwt beam="2">  1       21 0.22848035E-01 0.19431673E+03</pdfrwt>
<totfact> 0.56585967E+04</totfact>
</mgrwt>
</event>
<event>
 4    1  0.4072310E+000  0.1941163E+03  0.7546771E-02  0.1154800E+00
         21   -1    0    0  501  502  0.00000000000E+00  0.00000000000E+00  0.43488137203E+03  0.43488137203E+03  0.00000000000E+00 0. -1.
         21   -1    0    0  502  503 -0.00000000000E+00 -0.00000000000E+00 -0.97540910541E+02  0.97540910541E+02  0.00000000000E+00 0.  1.
          6    1    1    2  501    0  0.65569125613E+02  0.58760757011E+02  0.25763664286E+03  0.32257987622E+03  0.17300000000E+03 0. -1.
         -6    1    1    2    0  503 -0.65569125613E+02 -0.58760757011E+02  0.79703818623E+02  0.20984240635E+03  0.17300000000E+03 0.  1.
<mgrwt>
<rscale>  2 0.19411630E+03</rscale>
<asrwt>0</asrwt>
<pdfrwt beam="1">  1       21 0.66904825E-01 0.19411630E+03</pdfrwt>
<pdfrwt beam="2">  1       21 0.15006294E-01 0.19411630E+03</pdfrwt>
<totfact> 0.80168101E+04</totfact>
</mgrwt>
</event>
<event>
 4    1  0.4072310E+000  0.1883754E+03  0.7546771E-02  0.1159935E+00
         21   -1    0    0  503  502  0.00000000000E+00  0.00000000000E+00  0.12808611525E+03  0.12808611525E+03  0.00000000000E+00 0.  1.
         21   -1    0    0  501  503 -0.00000000000E+00 -0.00000000000E+00 -0.31696574866E+03  0.31696574866E+03  0.00000000000E+00 0. -1.
          6    1    1    2  501    0 -0.63362564443E+02  0.39261809564E+02 -0.17341435842E+03  0.25604266045E+03  0.17300000000E+03 0. -1.
         -6    1    1    2    0  502  0.63362564443E+02 -0.39261809564E+02 -0.15465274987E+02  0.18900920346E+03  0.17300000000E+03 0.  1.
<mgrwt>
<rscale>  2 0.18837543E+03</rscale>
<asrwt>0</asrwt>
<pdfrwt beam="1">  1       21 0.19705556E-01 0.18837543E+03</pdfrwt>
<pdfrwt beam="2">  1       21 0.48763961E-01 0.18837543E+03</pdfrwt>
<totfact> 0.95418616E+04</totfact>
</mgrwt>
</event>
<event>
 4    1  0.4072310E+000  0.1767072E+03  0.7546771E-02  0.1171028E+00
         21   -1    0    0  503  502  0.00000000000E+00  0.00000000000E+00  0.98570061998E+02  0.98570061998E+02  0.00000000000E+00 0.  1.
         21   -1    0    0  501  503 -0.00000000000E+00 -0.00000000000E+00 -0.32437290317E+03  0.32437290317E+03  0.00000000000E+00 0.  1.
          6    1    1    2  501    0  0.17341059180E+02  0.31554883457E+02 -0.14524720818E+03  0.22874040851E+03  0.17300000000E+03 0.  1.
         -6    1    1    2    0  502 -0.17341059180E+02 -0.31554883457E+02 -0.80555632992E+02  0.19420255665E+03  0.17300000000E+03 0.  1.
<mgrwt>
<rscale>  2 0.17670717E+03</rscale>
<asrwt>0</asrwt>
<pdfrwt beam="1">  1       21 0.15164625E-01 0.17670717E+03</pdfrwt>
<pdfrwt beam="2">  1       21 0.49903525E-01 0.17670717E+03</pdfrwt>
<totfact> 0.14789953E+05</totfact>
</mgrwt>
</event>
<event>
 4    1  0.4072310E+000  0.2011756E+03  0.7546771E-02  0.1148751E+00
         21   -1    0    0  503  502  0.00000000000E+00  0.00000000000E+00  0.10267389970E+03  0.10267389970E+03  0.00000000000E+00 0.  1.
         21   -1    0    0  501  503 -0.00000000000E+00 -0.00000000000E+00 -0.13020821359E+04  0.13020821359E+04  0.00000000000E+00 0.  1.
          6    1    1    2  501    0  0.58029939741E+01 -0.10251319578E+03 -0.11862096279E+04  0.12031479175E+04  0.17300000000E+03 0.  1.
         -6    1    1    2    0  502 -0.58029939741E+01  0.10251319578E+03 -0.13198608350E+02  0.20160811816E+03  0.17300000000E+03 0.  1.
<mgrwt>
<rscale>  2 0.20117562E+03</rscale>
<asrwt>0</asrwt>
<pdfrwt beam="1">  1       21 0.15795984E-01 0.20117562E+03</pdfrwt>
<pdfrwt beam="2">  1       21 0.20032033E+00 0.20117562E+03</pdfrwt>
<totfact> 0.47327424E+03</totfact>
</mgrwt>
</event>
<event>
 4    1  0.4072310E+000  0.1882884E+03  0.7546771E-02  0.1160014E+00
         21   -1    0    0  503  502  0.00000000000E+00  0.00000000000E+00  0.19974285382E+04  0.19974285382E+04  0.00000000000E+00 0.  1.
         21   -1    0    0  501  503 -0.00000000000E+00 -0.00000000000E+00 -0.44349123990E+02  0.44349123990E+02  0.00000000000E+00 0.  1.
          6    1    1    2  501    0  0.62642807985E+02  0.39992614777E+02  0.18590284421E+03  0.26459856030E+03  0.17300000000E+03 0.  1.
         -6    1    1    2    0  502 -0.62642807985E+02 -0.39992614777E+02  0.17671765700E+04  0.17771791019E+04  0.17300000000E+03 0.  1.
<mgrwt>
<rscale>  2 0.18828842E+03</rscale>
<asrwt>0</asrwt>
<pdfrwt beam="1">  1       21 0.30729663E+00 0.18828842E+03</pdfrwt>
<pdfrwt beam="2">  1       21 0.68229437E-02 0.18828842E+03</pdfrwt>
<totfact> 0.49248556E+03</totfact>
</mgrwt>
</event>
<event>
 4    1  0.4072310E+000  0.2300911E+03  0.7546771E-02  0.1126576E+00
         21   -1    0    0  503  502  0.00000000000E+00  0.00000000000E+00  0.30323134448E+03  0.30323134448E+03  0.00000000000E+00 0.  1.
         21   -1    0    0  501  503 -0.00000000000E+00 -0.00000000000E+00 -0.21771184065E+03  0.21771184065E+03  0.00000000000E+00 0.  1.
          6    1    1    2  501    0  0.56357308937E+02 -0.14084298035E+03 -0.73159573945E+02  0.24144194881E+03  0.17300000000E+03 0.  1.
         -6    1    1    2    0  502 -0.56357308937E+02  0.14084298035E+03  0.15867907777E+03  0.27950123632E+03  0.17300000000E+03 0.  1.
<mgrwt>
<rscale>  2 0.23009105E+03</rscale>
<asrwt>0</asrwt>
<pdfrwt beam="1">  1       21 0.46650976E-01 0.23009105E+03</pdfrwt>
<pdfrwt beam="2">  1       21 0.33494129E-01 0.23009105E+03</pdfrwt>
<totfact> 0.37075359E+04</totfact>
</mgrwt>
</event>
<event>
 4    1  0.4072310E+000  0.2159705E+03  0.7546771E-02  0.1136923E+00
         21   -1    0    0  501  502  0.00000000000E+00  0.00000000000E+00  0.42377155675E+02  0.42377155675E+02  0.00000000000E+00 0. -1.
         21   -1    0    0  502  503 -0.00000000000E+00 -0.00000000000E+00 -0.11025178781E+04  0.11025178781E+04  0.00000000000E+00 0. -1.
          6    1    1    2  501    0  0.12383242111E+03 -0.37145288982E+02 -0.50663114556E+03  0.55074345994E+03  0.17300000000E+03 0. -1.
         -6    1    1    2    0  503 -0.12383242111E+03  0.37145288982E+02 -0.55350957686E+03  0.59415157383E+03  0.17300000000E+03 0. -1.
<mgrwt>
<rscale>  2 0.21597046E+03</rscale>
<asrwt>0</asrwt>
<pdfrwt beam="1">  1       21 0.65195621E-02 0.21597046E+03</pdfrwt>
<pdfrwt beam="2">  1       21 0.16961814E+00 0.21597046E+03</pdfrwt>
<totfact> 0.36184085E+04</totfact>
</mgrwt>
</event>
<event>
 4    1  0.4072310E+000  0.3309192E+03  0.7546771E-02  0.1070731E+00
         21   -1    0    0  501  502  0.00000000000E+00  0.00000000000E+00  0.23077488760E+03  0.23077488760E+03  0.00000000000E+00 0. -1.
         21   -1    0    0  502  503 -0.00000000000E+00 -0.00000000000E+00 -0.98214766820E+03  0.98214766820E+03  0.00000000000E+00 0.  1.
          6    1    1    2  501    0  0.24031240048E+03 -0.14774455459E+03  0.60314069283E+02  0.33637076298E+03  0.17300000000E+03 0. -1.
         -6    1    1    2    0  503 -0.24031240048E+03  0.14774455459E+03 -0.81168684988E+03  0.87655179282E+03  0.17300000000E+03 0.  1.
<mgrwt>
<rscale>  2 0.33091918E+03</rscale>
<asrwt>0</asrwt>
<pdfrwt beam="1">  1       21 0.35503829E-01 0.33091918E+03</pdfrwt>
<pdfrwt beam="2">  1       21 0.15109964E+00 0.33091918E+03</pdfrwt>
<totfact> 0.20280037E+03</totfact>
</mgrwt>
</event>
<event>
 4    1  0.4072310E+000  0.3002263E+03  0.7546771E-02  0.1085128E+00
         21   -1    0    0  503  502  0.00000000000E+00  0.00000000000E+00  0.16475883280E+03  0.16475883280E+03  0.00000000000E+00 0.  1.
         21   -1    0    0  501  503 -0.00000000000E+00 -0.00000000000E+00 -0.56134577721E+03  0.56134577721E+03  0.00000000000E+00 0. -1.
          6    1    1    2  501    0  0.21311021190E+03 -0.12161770918E+03 -0.25617522239E+03  0.39466640872E+03  0.17300000000E+03 0. -1.
         -6    1    1    2    0  502 -0.21311021190E+03  0.12161770918E+03 -0.14041172202E+03  0.33143820130E+03  0.17300000000E+03 0.  1.
<mgrwt>
<rscale>  2 0.30022630E+03</rscale>
<asrwt>0</asrwt>
<pdfrwt beam="1">  1       21 0.25347513E-01 0.30022630E+03</pdfrwt>
<pdfrwt beam="2">  1       21 0.86360888E-01 0.30022630E+03</pdfrwt>
<totfact> 0.16113095E+04</totfact>
</mgrwt>
</event>
<event>
 4    1  0.4072310E+000  0.2395584E+03  0.7546771E-02  0.1120087E+00
         21   -1    0    0  501  502  0.00000000000E+00  0.00000000000E+00  0.14140310038E+03  0.14140310038E+03  0.00000000000E+00 0. -1.
         21   -1    0    0  502  503 -0.00000000000E+00 -0.00000000000E+00 -0.48693877082E+03  0.48693877082E+03  0.00000000000E+00 0.  1.
          6    1    1    2  501    0  0.92695174961E+02  0.13735655266E+03 -0.44560301108E+02  0.24366747517E+03  0.17300000000E+03 0. -1.
         -6    1    1    2    0  503 -0.92695174961E+02 -0.13735655266E+03 -0.30097536933E+03  0.38467439604E+03  0.17300000000E+03 0.  1.
<mgrwt>
<rscale>  2 0.23955838E+03</rscale>
<asrwt>0</asrwt>
<pdfrwt beam="1">  1       21 0.21754323E-01 0.23955838E+03</pdfrwt>
<pdfrwt beam="2">  1       21 0.74913658E-01 0.23955838E+03</pdfrwt>
<totfact> 0.30675164E+04</totfact>
</mgrwt>
</event>
<event>
 4    1  0.4072310E+000  0.2990030E+03  0.7546771E-02  0.1085740E+00
         21   -1    0    0  501  502  0.00000000000E+00  0.00000000000E+00  0.46108803919E+03  0.46108803919E+03  0.00000000000E+00 0.  1.
         21   -1    0    0  502  503 -0.00000000000E+00 -0.00000000000E+00 -0.53007609485E+03  0.53007609485E+03  0.00000000000E+00 0. -1.
          6    1    1    2  501    0  0.54890751535E+01 -0.24381066922E+03  0.36017492823E+03  0.46811190040E+03  0.17300000000E+03 0.  1.
         -6    1    1    2    0  503 -0.54890751535E+01  0.24381066922E+03 -0.42916298390E+03  0.52305223364E+03  0.17300000000E+03 0. -1.
<mgrwt>
<rscale>  2 0.29900296E+03</rscale>
<asrwt>0</asrwt>
<pdfrwt beam="1">  1       21 0.70936622E-01 0.29900296E+03</pdfrwt>
<pdfrwt beam="2">  1       21 0.81550168E-01 0.29900296E+03</pdfrwt>
<totfact> 0.21945170E+03</totfact>
</mgrwt>
</event>
<event>
 4    1  0.4072310E+000  0.1893990E+03  0.7546771E-02  0.1159005E+00
         21   -1    0    0  503  502  0.00000000000E+00  0.00000000000E+00  0.20091997150E+03  0.20091997150E+03  0.00000000000E+00 0.  1.
         21   -1    0    0  501  503 -0.00000000000E+00 -0.00000000000E+00 -0.18649936326E+03  0.18649936326E+03  0.00000000000E+00 0.  1.
          6    1    1    2  501    0 -0.77078102731E+02  0.13911254334E+01 -0.32810899527E+02  0.19221998928E+03  0.17300000000E+03 0.  1.
         -6    1    1    2    0  502  0.77078102731E+02 -0.13911254334E+01  0.47231507762E+02  0.19519934548E+03  0.17300000000E+03 0.  1.
<mgrwt>
<rscale>  2 0.18939897E+03</rscale>
<asrwt>0</asrwt>
<pdfrwt beam="1">  1       21 0.30910765E-01 0.18939897E+03</pdfrwt>
<pdfrwt beam="2">  1       21 0.28692210E-01 0.18939897E+03</pdfrwt>
<totfact> 0.11694651E+05</totfact>
</mgrwt>
</event>
<event>
 4    1  0.4072310E+000  0.1740540E+03  0.7546771E-02  0.1173685E+00
         21   -1    0    0  503  502  0.00000000000E+00  0.00000000000E+00  0.13107590720E+03  0.13107590720E+03  0.00000000000E+00 0. -1.
         21   -1    0    0  501  503 -0.00000000000E+00 -0.00000000000E+00 -0.25799943675E+03  0.25799943675E+03  0.00000000000E+00 0. -1.
          6    1    1    2  501    0  0.18912001891E+02  0.28521280233E+01 -0.12624901380E+03  0.21502002682E+03  0.17300000000E+03 0.  1.
         -6    1    1    2    0  502 -0.18912001891E+02 -0.28521280233E+01 -0.67451575558E+00  0.17405531713E+03  0.17300000000E+03 0.  1.
<mgrwt>
<rscale>  2 0.17405401E+03</rscale>
<asrwt>0</asrwt>
<pdfrwt beam="1">  1       21 0.20165524E-01 0.17405401E+03</pdfrwt>
<pdfrwt beam="2">  1       21 0.39692221E-01 0.17405401E+03</pdfrwt>
<totfact> 0.13993867E+05</totfact>
</mgrwt>
</event>
<event>
 4    1  0.4072310E+000  0.2403003E+03  0.7546771E-02  0.1119593E+00
         21   -1    0    0  501  502  0.00000000000E+00  0.00000000000E+00  0.10297842398E+03  0.10297842398E+03  0.00000000000E+00 0. -1.
         21   -1    0    0  502  503 -0.00000000000E+00 -0.00000000000E+00 -0.11922136339E+04  0.11922136339E+04  0.00000000000E+00 0.  1.
          6    1    1    2  501    0  0.43871985760E+02  0.16090521019E+03 -0.73310097679E+02  0.25123417010E+03  0.17300000000E+03 0. -1.
         -6    1    1    2    0  503 -0.43871985760E+02 -0.16090521019E+03 -0.10159251123E+04  0.10439578878E+04  0.17300000000E+03 0.  1.
<mgrwt>
<rscale>  2 0.24030031E+03</rscale>
<asrwt>0</asrwt>
<pdfrwt beam="1">  1       21 0.15842833E-01 0.24030031E+03</pdfrwt>
<pdfrwt beam="2">  1       21 0.18341749E+00 0.24030031E+03</pdfrwt>
<totfact> 0.58952954E+03</totfact>
</mgrwt>
</event>
<event>
 4    1  0.4072310E+000  0.1890251E+03  0.7546771E-02  0.1159344E+00
         21   -1    0    0  501  502  0.00000000000E+00  0.00000000000E+00  0.24680848134E+03  0.24680848134E+03  0.00000000000E+00 0. -1.
         21   -1    0    0  502  503 -0.00000000000E+00 -0.00000000000E+00 -0.16546748932E+03  0.16546748932E+03  0.00000000000E+00 0. -1.
          6    1    1    2  501    0 -0.62202650007E+02 -0.43958291945E+02  0.11357576866E+03  0.22052200871E+03  0.17300000000E+03 0. -1.
         -6    1    1    2    0  503  0.62202650007E+02  0.43958291945E+02 -0.32234776638E+02  0.19175396195E+03  0.17300000000E+03 0. -1.
<mgrwt>
<rscale>  2 0.18902513E+03</rscale>
<asrwt>0</asrwt>
<pdfrwt beam="1">  1       21 0.37970536E-01 0.18902513E+03</pdfrwt>
<pdfrwt beam="2">  1       21 0.25456537E-01 0.18902513E+03</pdfrwt>
<totfact> 0.98008593E+04</totfact>
</mgrwt>
</event>
<event>
 4    1  0.4072310E+000  0.1994944E+03  0.7546771E-02  0.1150166E+00
         21   -1    0    0  501  502  0.00000000000E+00  0.00000000000E+00  0.17358984042E+04  0.17358984042E+04  0.00000000000E+00 0. -1.
         21   -1    0    0  502  503 -0.00000000000E+00 -0.00000000000E+00 -0.30048544124E+02  0.30048544124E+02  0.00000000000E+00 0. -1.
          6    1    1    2  501    0 -0.44771668635E+02 -0.88682170703E+02  0.12827968337E+04  0.12982163712E+04  0.17300000000E+03 0. -1.
         -6    1    1    2    0  503  0.44771668635E+02  0.88682170703E+02  0.42305302630E+03  0.46773057712E+03  0.17300000000E+03 0. -1.
<mgrwt>
<rscale>  2 0.19949444E+03</rscale>
<asrwt>0</asrwt>
<pdfrwt beam="1">  1       21 0.26706122E+00 0.19949444E+03</pdfrwt>
<pdfrwt beam="2">  1       21 0.46228543E-02 0.19949444E+03</pdfrwt>
<totfact> 0.16135866E+04</totfact>
</mgrwt>
</event>
<event>
 4    1  0.4072310E+000  0.2381587E+03  0.7546771E-02  0.1121026E+00
         21   -1    0    0  501  502  0.00000000000E+00  0.00000000000E+00  0.14682393038E+04  0.14682393038E+04  0.00000000000E+00 0.  1.
         21   -1    0    0  502  503 -0.00000000000E+00 -0.00000000000E+00 -0.59436245020E+02  0.59436245020E+02  0.00000000000E+00 0.  1.
          6    1    1    2  501    0 -0.12397393608E+03 -0.10686919466E+03  0.11563217803E+04  0.11805929109E+04  0.17300000000E+03 0.  1.
         -6    1    1    2    0  503  0.12397393608E+03  0.10686919466E+03  0.25248127853E+03  0.34708263800E+03  0.17300000000E+03 0.  1.
<mgrwt>
<rscale>  2 0.23815869E+03</rscale>
<asrwt>0</asrwt>
<pdfrwt beam="1">  1       21 0.22588294E+00 0.23815869E+03</pdfrwt>
<pdfrwt beam="2">  1       21 0.91440388E-02 0.23815869E+03</pdfrwt>
<totfact> 0.84666249E+03</totfact>
</mgrwt>
</event>
<event>
 4    1  0.4072310E+000  0.2024874E+03  0.7546771E-02  0.1147657E+00
         21   -1    0    0  503  502  0.00000000000E+00  0.00000000000E+00  0.10708766019E+03  0.10708766019E+03  0.00000000000E+00 0.  1.
         21   -1    0    0  501  503 -0.00000000000E+00 -0.00000000000E+00 -0.73283949447E+03  0.73283949447E+03  0.00000000000E+00 0.  1.
          6    1    1    2  501    0 -0.91560103039E+02 -0.51854710387E+02 -0.60309056430E+03  0.63617559856E+03  0.17300000000E+03 0.  1.
         -6    1    1    2    0  502  0.91560103039E+02  0.51854710387E+02 -0.22661269985E+02  0.20375155610E+03  0.17300000000E+03 0.  1.
<mgrwt>
<rscale>  2 0.20248744E+03</rscale>
<asrwt>0</asrwt>
<pdfrwt beam="1">  1       21 0.16475025E-01 0.20248744E+03</pdfrwt>
<pdfrwt beam="2">  1       21 0.11274453E+00 0.20248744E+03</pdfrwt>
<totfact> 0.20205781E+04</totfact>
</mgrwt>
</event>
<event>
 4    1  0.4072310E+000  0.3475609E+03  0.7546771E-02  0.1063621E+00
         21   -1    0    0  501  502  0.00000000000E+00  0.00000000000E+00  0.27489571398E+03  0.27489571398E+03  0.00000000000E+00 0. -1.
         21   -1    0    0  502  503 -0.00000000000E+00 -0.00000000000E+00 -0.45481675741E+03  0.45481675741E+03  0.00000000000E+00 0.  1.
          6    1    1    2  501    0 -0.26591930395E+03 -0.14197368192E+03 -0.22861442138E+02  0.34831199822E+03  0.17300000000E+03 0. -1.
         -6    1    1    2    0  503  0.26591930395E+03  0.14197368192E+03 -0.15705960130E+03  0.38140047316E+03  0.17300000000E+03 0.  1.
<mgrwt>
<rscale>  2 0.34756093E+03</rscale>
<asrwt>0</asrwt>
<pdfrwt beam="1">  1       21 0.42291649E-01 0.34756093E+03</pdfrwt>
<pdfrwt beam="2">  1       21 0.69971808E-01 0.34756093E+03</pdfrwt>
<totfact> 0.91976029E+03</totfact>
</mgrwt>
</event>
<event>
 4    1  0.4072310E+000  0.2034819E+03  0.7546771E-02  0.1146834E+00
         21   -1    0    0  501  502  0.00000000000E+00  0.00000000000E+00  0.82990148083E+03  0.82990148083E+03  0.00000000000E+00 0. -1.
         21   -1    0    0  502  503 -0.00000000000E+00 -0.00000000000E+00 -0.54843203991E+02  0.54843203991E+02  0.00000000000E+00 0. -1.
          6    1    1    2  501    0  0.40393005607E+02 -0.99218352930E+02  0.52045576813E+03  0.55881936531E+03  0.17300000000E+03 0. -1.
         -6    1    1    2    0  503 -0.40393005607E+02  0.99218352930E+02  0.25460250870E+03  0.32592531951E+03  0.17300000000E+03 0. -1.
<mgrwt>
<rscale>  2 0.20348188E+03</rscale>
<asrwt>0</asrwt>
<pdfrwt beam="1">  1       21 0.12767714E+00 0.20348188E+03</pdfrwt>
<pdfrwt beam="2">  1       21 0.84374166E-02 0.20348188E+03</pdfrwt>
<totfact> 0.49180082E+04</totfact>
</mgrwt>
</event>
<event>
 4    1  0.4072310E+000  0.2564021E+03  0.7546771E-02  0.1109324E+00
         21   -1    0    0  503  502  0.00000000000E+00  0.00000000000E+00  0.12808962427E+03  0.12808962427E+03  0.00000000000E+00 0.  1.
         21   -1    0    0  501  503 -0.00000000000E+00 -0.00000000000E+00 -0.59874518093E+03  0.59874518093E+03  0.00000000000E+00 0. -1.
          6    1    1    2  501    0  0.18656405328E+03 -0.31731381802E+02 -0.37265447989E+03  0.45234211383E+03  0.17300000000E+03 0.  1.
         -6    1    1    2    0  502 -0.18656405328E+03  0.31731381802E+02 -0.98001076763E+02  0.27449269137E+03  0.17300000000E+03 0.  1.
<mgrwt>
<rscale>  2 0.25640208E+03</rscale>
<asrwt>0</asrwt>
<pdfrwt beam="1">  1       21 0.19706096E-01 0.25640208E+03</pdfrwt>
<pdfrwt beam="2">  1       21 0.92114642E-01 0.25640208E+03</pdfrwt>
<totfact> 0.22826924E+04</totfact>
</mgrwt>
</event>
<event>
 4    1  0.4072310E+000  0.1866189E+03  0.7546771E-02  0.1161547E+00
         21   -1    0    0  501  502  0.00000000000E+00  0.00000000000E+00  0.31428100305E+03  0.31428100305E+03  0.00000000000E+00 0.  1.
         21   -1    0    0  502  503 -0.00000000000E+00 -0.00000000000E+00 -0.21398955564E+03  0.21398955564E+03  0.00000000000E+00 0.  1.
          6    1    1    2  501    0 -0.69560443410E+02 -0.76793048601E+01  0.23355413763E+03  0.29895511739E+03  0.17300000000E+03 0.  1.
         -6    1    1    2    0  503  0.69560443410E+02  0.76793048601E+01 -0.13326269022E+03  0.22931544129E+03  0.17300000000E+03 0.  1.
<mgrwt>
<rscale>  2 0.18661894E+03</rscale>
<asrwt>0</asrwt>
<pdfrwt beam="1">  1       21 0.48350924E-01 0.18661894E+03</pdfrwt>
<pdfrwt beam="2">  1       21 0.32921470E-01 0.18661894E+03</pdfrwt>
<totfact> 0.36402153E+04</totfact>
</mgrwt>
</event>
<event>
 4    1  0.4072310E+000  0.1738073E+03  0.7546771E-02  0.1173935E+00
         21   -1    0    0  501  502  0.00000000000E+00  0.00000000000E+00  0.51204202895E+02  0.51204202895E+02  0.00000000000E+00 0. -1.
         21   -1    0    0  502  503 -0.00000000000E+00 -0.00000000000E+00 -0.60499902904E+03  0.60499902904E+03  0.00000000000E+00 0. -1.
          6    1    1    2  501    0 -0.15724936486E+02  0.57176456457E+01 -0.32860930423E+03  0.37174324463E+03  0.17300000000E+03 0. -1.
         -6    1    1    2    0  503  0.15724936486E+02 -0.57176456457E+01 -0.22518552192E+03  0.28445998731E+03  0.17300000000E+03 0. -1.
<mgrwt>
<rscale>  2 0.17380726E+03</rscale>
<asrwt>0</asrwt>
<pdfrwt beam="1">  1       21 0.78775690E-02 0.17380726E+03</pdfrwt>
<pdfrwt beam="2">  1       21 0.93076782E-01 0.17380726E+03</pdfrwt>
<totfact> 0.12064841E+05</totfact>
</mgrwt>
</event>
<event>
 4    1  0.4072310E+000  0.1778682E+03  0.7546771E-02  0.1169882E+00
         21   -1    0    0  501  502  0.00000000000E+00  0.00000000000E+00  0.14480655401E+04  0.14480655401E+04  0.00000000000E+00 0.  1.
         21   -1    0    0  502  503 -0.00000000000E+00 -0.00000000000E+00 -0.49068697319E+02  0.49068697319E+02  0.00000000000E+00 0.  1.
          6    1    1    2  501    0  0.15652185234E+02  0.38250547416E+02  0.12570427869E+04  0.12695643597E+04  0.17300000000E+03 0.  1.
         -6    1    1    2    0  503 -0.15652185234E+02 -0.38250547416E+02  0.14195405593E+03  0.22756987779E+03  0.17300000000E+03 0.  1.
<mgrwt>
<rscale>  2 0.17786820E+03</rscale>
<asrwt>0</asrwt>
<pdfrwt beam="1">  1       21 0.22277928E+00 0.17786820E+03</pdfrwt>
<pdfrwt beam="2">  1       21 0.75490315E-02 0.17786820E+03</pdfrwt>
<totfact> 0.13008437E+04</totfact>
</mgrwt>
</event>
<event>
 4    1  0.4072310E+000  0.1878810E+03  0.7546771E-02  0.1160386E+00
         21   -1    0    0  503  502  0.00000000000E+00  0.00000000000E+00  0.97357326286E+03  0.97357326286E+03  0.00000000000E+00 0. -1.
         21   -1    0    0  501  503 -0.00000000000E+00 -0.00000000000E+00 -0.53742753558E+02  0.53742753558E+02  0.00000000000E+00 0.  1.
          6    1    1    2  501    0 -0.72613000544E+02  0.98810654220E+01  0.16692666843E+03  0.25132408546E+03  0.17300000000E+03 0.  1.
         -6    1    1    2    0  502  0.72613000544E+02 -0.98810654220E+01  0.75290384087E+03  0.77599193095E+03  0.17300000000E+03 0. -1.
<mgrwt>
<rscale>  2 0.18788103E+03</rscale>
<asrwt>0</asrwt>
<pdfrwt beam="1">  1       21 0.14978049E+00 0.18788103E+03</pdfrwt>
<pdfrwt beam="2">  1       21 0.82681167E-02 0.18788103E+03</pdfrwt>
<totfact> 0.34095483E+04</totfact>
</mgrwt>
</event>
<event>
 4    1  0.4072310E+000  0.2108642E+03  0.7546771E-02  0.1140883E+00
         21   -1    0    0  501  502  0.00000000000E+00  0.00000000000E+00  0.14839836661E+03  0.14839836661E+03  0.00000000000E+00 0.  1.
         21   -1    0    0  502  503 -0.00000000000E+00 -0.00000000000E+00 -0.33874128403E+03  0.33874128403E+03  0.00000000000E+00 0.  1.
          6    1    1    2  501    0 -0.94200939431E+02  0.75238836936E+02 -0.12401214039E+02  0.21122852478E+03  0.17300000000E+03 0.  1.
         -6    1    1    2    0  503  0.94200939431E+02 -0.75238836936E+02 -0.17794170338E+03  0.27591112586E+03  0.17300000000E+03 0.  1.
<mgrwt>
<rscale>  2 0.21086417E+03</rscale>
<asrwt>0</asrwt>
<pdfrwt beam="1">  1       21 0.22830518E-01 0.21086417E+03</pdfrwt>
<pdfrwt beam="2">  1       21 0.52114044E-01 0.21086417E+03</pdfrwt>
<totfact> 0.62370193E+04</totfact>
</mgrwt>
</event>
<event>
 4    1  0.4072310E+000  0.2093021E+03  0.7546771E-02  0.1142120E+00
         21   -1    0    0  501  502  0.00000000000E+00  0.00000000000E+00  0.23280546317E+03  0.23280546317E+03  0.00000000000E+00 0. -1.
         21   -1    0    0  502  503 -0.00000000000E+00 -0.00000000000E+00 -0.19700733587E+03  0.19700733587E+03  0.00000000000E+00 0.  1.
          6    1    1    2  501    0  0.11613955993E+03  0.19748195960E+02  0.63411305750E+02  0.21869701032E+03  0.17300000000E+03 0. -1.
         -6    1    1    2    0  503 -0.11613955993E+03 -0.19748195960E+02 -0.27613178456E+02  0.21111578873E+03  0.17300000000E+03 0.  1.
<mgrwt>
<rscale>  2 0.20930215E+03</rscale>
<asrwt>0</asrwt>
<pdfrwt beam="1">  1       21 0.35816225E-01 0.20930215E+03</pdfrwt>
<pdfrwt beam="2">  1       21 0.30308821E-01 0.20930215E+03</pdfrwt>
<totfact> 0.77958502E+04</totfact>
</mgrwt>
</event>
<event>
 4    1  0.4072310E+000  0.2557781E+03  0.7546771E-02  0.1109707E+00
         21   -1    0    0  501  502  0.00000000000E+00  0.00000000000E+00  0.75394104399E+03  0.75394104399E+03  0.00000000000E+00 0. -1.
         21   -1    0    0  502  503 -0.00000000000E+00 -0.00000000000E+00 -0.10925088803E+03  0.10925088803E+03  0.00000000000E+00 0.  1.
          6    1    1    2  501    0 -0.24277432573E+02 -0.18682629994E+03  0.51810926139E+03  0.57780590757E+03  0.17300000000E+03 0. -1.
         -6    1    1    2    0  503  0.24277432573E+02  0.18682629994E+03  0.12658089457E+03  0.28538602445E+03  0.17300000000E+03 0.  1.
<mgrwt>
<rscale>  2 0.25577815E+03</rscale>
<asrwt>0</asrwt>
<pdfrwt beam="1">  1       21 0.11599093E+00 0.25577815E+03</pdfrwt>
<pdfrwt beam="2">  1       21 0.16807829E-01 0.25577815E+03</pdfrwt>
<totfact> 0.17629616E+04</totfact>
</mgrwt>
</event>
<event>
 4    1  0.4072310E+000  0.2247666E+03  0.7546771E-02  0.1130378E+00
         21   -1    0    0  503  502  0.00000000000E+00  0.00000000000E+00  0.70574686249E+03  0.70574686249E+03  0.00000000000E+00 0. -1.
         21   -1    0    0  501  503 -0.00000000000E+00 -0.00000000000E+00 -0.90357118081E+02  0.90357118081E+02  0.00000000000E+00 0.  1.
          6    1    1    2  501    0  0.56336015931E+02 -0.13197458744E+03  0.12625647676E+03  0.25779979896E+03  0.17300000000E+03 0. -1.
         -6    1    1    2    0  502 -0.56336015931E+02  0.13197458744E+03  0.48913326764E+03  0.53830418161E+03  0.17300000000E+03 0. -1.
<mgrwt>
<rscale>  2 0.22476663E+03</rscale>
<asrwt>0</asrwt>
<pdfrwt beam="1">  1       21 0.10857644E+00 0.22476663E+03</pdfrwt>
<pdfrwt beam="2">  1       21 0.13901096E-01 0.22476663E+03</pdfrwt>
<totfact> 0.29816499E+04</totfact>
</mgrwt>
</event>
<event>
 4    1  0.4072310E+000  0.1754937E+03  0.7546771E-02  0.1172237E+00
         21   -1    0    0  503  502  0.00000000000E+00  0.00000000000E+00  0.10587215038E+03  0.10587215038E+03  0.00000000000E+00 0. -1.
         21   -1    0    0  501  503 -0.00000000000E+00 -0.00000000000E+00 -0.40674657573E+03  0.40674657573E+03  0.00000000000E+00 0. -1.
          6    1    1    2  501    0  0.25357838166E+02  0.15034103356E+02 -0.28722490679E+03  0.33659499596E+03  0.17300000000E+03 0. -1.
         -6    1    1    2    0  502 -0.25357838166E+02 -0.15034103356E+02 -0.13649518556E+02  0.17602373015E+03  0.17300000000E+03 0. -1.
<mgrwt>
<rscale>  2 0.17549372E+03</rscale>
<asrwt>0</asrwt>
<pdfrwt beam="1">  1       21 0.16288023E-01 0.17549372E+03</pdfrwt>
<pdfrwt beam="2">  1       21 0.62576396E-01 0.17549372E+03</pdfrwt>
<totfact> 0.80443961E+04</totfact>
</mgrwt>
</event>
<event>
 4    1  0.4072310E+000  0.1834308E+03  0.7546771E-02  0.1164523E+00
         21   -1    0    0  501  502  0.00000000000E+00  0.00000000000E+00  0.54357755250E+02  0.54357755250E+02  0.00000000000E+00 0. -1.
         21   -1    0    0  502  503 -0.00000000000E+00 -0.00000000000E+00 -0.16523200181E+04  0.16523200181E+04  0.00000000000E+00 0.  1.
          6    1    1    2  501    0 -0.39068208004E+02  0.46813650445E+02 -0.12415137307E+03  0.22149583784E+03  0.17300000000E+03 0. -1.
         -6    1    1    2    0  503  0.39068208004E+02 -0.46813650445E+02 -0.14738108898E+04  0.14851819355E+04  0.17300000000E+03 0.  1.
<mgrwt>
<rscale>  2 0.18343076E+03</rscale>
<asrwt>0</asrwt>
<pdfrwt beam="1">  1       21 0.83627325E-02 0.18343076E+03</pdfrwt>
<pdfrwt beam="2">  1       21 0.25420305E+00 0.18343076E+03</pdfrwt>
<totfact> 0.70443837E+03</totfact>
</mgrwt>
</event>
<event>
 4    1  0.4072310E+000  0.2617580E+03  0.7546771E-02  0.1106092E+00
         21   -1    0    0  501  502  0.00000000000E+00  0.00000000000E+00  0.63619028339E+03  0.63619028339E+03  0.00000000000E+00 0.  1.
         21   -1    0    0  502  503 -0.00000000000E+00 -0.00000000000E+00 -0.12306271465E+03  0.12306271465E+03  0.00000000000E+00 0. -1.
          6    1    1    2  501    0  0.19621852213E+03  0.93026504551E+01  0.39069725457E+03  0.47027820751E+03  0.17300000000E+03 0.  1.
         -6    1    1    2    0  503 -0.19621852213E+03 -0.93026504551E+01  0.12243031417E+03  0.28897479052E+03  0.17300000000E+03 0. -1.
<mgrwt>
<rscale>  2 0.26175799E+03</rscale>
<asrwt>0</asrwt>
<pdfrwt beam="1">  1       21 0.97875427E-01 0.26175799E+03</pdfrwt>
<pdfrwt beam="2">  1       21 0.18932726E-01 0.26175799E+03</pdfrwt>
<totfact> 0.21269319E+04</totfact>
</mgrwt>
</event>
<event>
 4    1  0.4072310E+000  0.1905123E+03  0.7546771E-02  0.1158000E+00
         21   -1    0    0  503  502  0.00000000000E+00  0.00000000000E+00  0.65742822460E+02  0.65742822460E+02  0.00000000000E+00 0.  1.
         21   -1    0    0  501  503 -0.00000000000E+00 -0.00000000000E+00 -0.63991851124E+03  0.63991851124E+03  0.00000000000E+00 0.  1.
          6    1    1    2  501    0 -0.62680925076E+02 -0.49366237568E+02 -0.41781340761E+03  0.45919817874E+03  0.17300000000E+03 0.  1.
         -6    1    1    2    0  502  0.62680925076E+02  0.49366237568E+02 -0.15636228117E+03  0.24646315496E+03  0.17300000000E+03 0.  1.
<mgrwt>
<rscale>  2 0.19051227E+03</rscale>
<asrwt>0</asrwt>
<pdfrwt beam="1">  1       21 0.10114280E-01 0.19051227E+03</pdfrwt>
<pdfrwt beam="2">  1       21 0.98449003E-01 0.19051227E+03</pdfrwt>
<totfact> 0.67818842E+04</totfact>
</mgrwt>
</event>
<event>
 4    1  0.4072310E+000  0.2280606E+03  0.7546771E-02  0.1128012E+00
         21   -1    0    0  501  502  0.00000000000E+00  0.00000000000E+00  0.39601992807E+03  0.39601992807E+03  0.00000000000E+00 0. -1.
         21   -1    0    0  502  503 -0.00000000000E+00 -0.00000000000E+00 -0.13287939783E+03  0.13287939783E+03  0.00000000000E+00 0.  1.
          6    1    1    2  501    0  0.34423733501E+02 -0.14456015502E+03  0.16007177395E+03  0.27862987037E+03  0.17300000000E+03 0. -1.
         -6    1    1    2    0  503 -0.34423733501E+02  0.14456015502E+03  0.10306875629E+03  0.25026945553E+03  0.17300000000E+03 0.  1.
<mgrwt>
<rscale>  2 0.22806059E+03</rscale>
<asrwt>0</asrwt>
<pdfrwt beam="1">  1       21 0.60926142E-01 0.22806059E+03</pdfrwt>
<pdfrwt beam="2">  1       21 0.20442984E-01 0.22806059E+03</pdfrwt>
<totfact> 0.54656209E+04</totfact>
</mgrwt>
</event>
<event>
 4    1  0.4072310E+000  0.1785456E+03  0.7546771E-02  0.1169218E+00
         21   -1    0    0  501  502  0.00000000000E+00  0.00000000000E+00  0.53679270230E+03  0.53679270230E+03  0.00000000000E+00 0.  1.
         21   -1    0    0  502  503 -0.00000000000E+00 -0.00000000000E+00 -0.89496668943E+02  0.89496668943E+02  0.00000000000E+00 0.  1.
          6    1    1    2  501    0  0.40037182017E+02 -0.18615980932E+02  0.40528082519E+03  0.44286688514E+03  0.17300000000E+03 0.  1.
         -6    1    1    2    0  503 -0.40037182017E+02  0.18615980932E+02  0.42015208168E+02  0.18342248610E+03  0.17300000000E+03 0.  1.
<mgrwt>
<rscale>  2 0.17854560E+03</rscale>
<asrwt>0</asrwt>
<pdfrwt beam="1">  1       21 0.82583491E-01 0.17854560E+03</pdfrwt>
<pdfrwt beam="2">  1       21 0.13768719E-01 0.17854560E+03</pdfrwt>
<totfact> 0.59030164E+04</totfact>
</mgrwt>
</event>
<event>
 4    1  0.4072310E+000  0.1779676E+03  0.7546771E-02  0.1169785E+00
         21   -1    0    0  503  502  0.00000000000E+00  0.00000000000E+00  0.12981475000E+04  0.12981475000E+04  0.00000000000E+00 0.  1.
         21   -1    0    0  501  503 -0.00000000000E+00 -0.00000000000E+00 -0.37067777325E+02  0.37067777325E+02  0.00000000000E+00 0.  1.
          6    1    1    2  501    0  0.16557399035E+02 -0.38331794726E+02  0.24023502359E+03  0.29897381241E+03  0.17300000000E+03 0.  1.
         -6    1    1    2    0  502 -0.16557399035E+02  0.38331794726E+02  0.10208446991E+04  0.10362414649E+04  0.17300000000E+03 0.  1.
<mgrwt>
<rscale>  2 0.17796762E+03</rscale>
<asrwt>0</asrwt>
<pdfrwt beam="1">  1       21 0.19971497E+00 0.17796762E+03</pdfrwt>
<pdfrwt beam="2">  1       21 0.57027360E-02 0.17796762E+03</pdfrwt>
<totfact> 0.29310544E+04</totfact>
</mgrwt>
</event>
<event>
 4    1  0.4072310E+000  0.1827105E+03  0.7546771E-02  0.1165205E+00
         21   -1    0    0  503  502  0.00000000000E+00  0.00000000000E+00  0.62551048157E+02  0.62551048157E+02  0.00000000000E+00 0. -1.
         21   -1    0    0  501  503 -0.00000000000E+00 -0.00000000000E+00 -0.55612263265E+03  0.55612263265E+03  0.00000000000E+00 0.  1.
          6    1    1    2  501    0 -0.28053855391E+02  0.51643907303E+02 -0.30890828340E+03  0.35889753345E+03  0.17300000000E+03 0. -1.
         -6    1    1    2    0  502  0.28053855391E+02 -0.51643907303E+02 -0.18466330109E+03  0.25977614735E+03  0.17300000000E+03 0. -1.
<mgrwt>
<rscale>  2 0.18271046E+03</rscale>
<asrwt>0</asrwt>
<pdfrwt beam="1">  1       21 0.96232380E-02 0.18271046E+03</pdfrwt>
<pdfrwt beam="2">  1       21 0.85557330E-01 0.18271046E+03</pdfrwt>
<totfact> 0.10290559E+05</totfact>
</mgrwt>
</event>
<event>
 4    1  0.4072310E+000  0.1784005E+03  0.7546771E-02  0.1169360E+00
         21   -1    0    0  501  502  0.00000000000E+00  0.00000000000E+00  0.45396172481E+03  0.45396172481E+03  0.00000000000E+00 0. -1.
         21   -1    0    0  502  503 -0.00000000000E+00 -0.00000000000E+00 -0.77072407474E+02  0.77072407474E+02  0.00000000000E+00 0. -1.
          6    1    1    2  501    0 -0.10061897884E+02 -0.42385077660E+02  0.26825486144E+03  0.32216053030E+03  0.17300000000E+03 0. -1.
         -6    1    1    2    0  503  0.10061897884E+02  0.42385077660E+02  0.10863445589E+03  0.20887360198E+03  0.17300000000E+03 0. -1.
<mgrwt>
<rscale>  2 0.17840049E+03</rscale>
<asrwt>0</asrwt>
<pdfrwt beam="1">  1       21 0.69840264E-01 0.17840049E+03</pdfrwt>
<pdfrwt beam="2">  1       21 0.11857294E-01 0.17840049E+03</pdfrwt>
<totfact> 0.11224123E+05</totfact>
</mgrwt>
</event>
<event>
 4    1  0.4072310E+000  0.2036816E+03  0.7546771E-02  0.1146669E+00
         21   -1    0    0  503  502  0.00000000000E+00  0.00000000000E+00  0.96096934773E+03  0.96096934773E+03  0.00000000000E+00 0.  1.
         21   -1    0    0  501  503 -0.00000000000E+00 -0.00000000000E+00 -0.52034461635E+02  0.52034461635E+02  0.00000000000E+00 0.  1.
          6    1    1    2  501    0  0.10720538101E+03 -0.80137100177E+01  0.24542619281E+03  0.31893608981E+03  0.17300000000E+03 0.  1.
         -6    1    1    2    0  502 -0.10720538101E+03  0.80137100177E+01  0.66350869328E+03  0.69406771955E+03  0.17300000000E+03 0.  1.
<mgrwt>
<rscale>  2 0.20368165E+03</rscale>
<asrwt>0</asrwt>
<pdfrwt beam="1">  1       21 0.14784142E+00 0.20368165E+03</pdfrwt>
<pdfrwt beam="2">  1       21 0.80053025E-02 0.20368165E+03</pdfrwt>
<totfact> 0.36972810E+04</totfact>
</mgrwt>
</event>
<event>
 4    1  0.4072310E+000  0.1895568E+03  0.7546771E-02  0.1158862E+00
         21   -1    0    0  503  502  0.00000000000E+00  0.00000000000E+00  0.33649503798E+03  0.33649503798E+03  0.00000000000E+00 0. -1.
         21   -1    0    0  501  503 -0.00000000000E+00 -0.00000000000E+00 -0.18740837326E+03  0.18740837326E+03  0.00000000000E+00 0.  1.
          6    1    1    2  501    0 -0.77268792490E+02 -0.56843236855E+01 -0.97272816106E+02  0.21305815775E+03  0.17300000000E+03 0.  1.
         -6    1    1    2    0  502  0.77268792490E+02  0.56843236855E+01  0.24635948083E+03  0.31084525350E+03  0.17300000000E+03 0. -1.
<mgrwt>
<rscale>  2 0.18955679E+03</rscale>
<asrwt>0</asrwt>
<pdfrwt beam="1">  1       21 0.51768467E-01 0.18955679E+03</pdfrwt>
<pdfrwt beam="2">  1       21 0.28832057E-01 0.18955679E+03</pdfrwt>
<totfact> 0.40853496E+04</totfact>
</mgrwt>
</event>
<event>
 4    1  0.4072310E+000  0.2173890E+03  0.7546771E-02  0.1135845E+00
         21   -1    0    0  501  502  0.00000000000E+00  0.00000000000E+00  0.12135260397E+03  0.12135260397E+03  0.00000000000E+00 0. -1.
         21   -1    0    0  502  503 -0.00000000000E+00 -0.00000000000E+00 -0.48040474419E+03  0.48040474419E+03  0.00000000000E+00 0.  1.
          6    1    1    2  501    0 -0.13160676683E+03  0.29415179707E+01 -0.48591270687E+02  0.22275346280E+03  0.17300000000E+03 0. -1.
         -6    1    1    2    0  503  0.13160676683E+03 -0.29415179707E+01 -0.31046086953E+03  0.37900388535E+03  0.17300000000E+03 0.  1.
<mgrwt>
<rscale>  2 0.21738904E+03</rscale>
<asrwt>0</asrwt>
<pdfrwt beam="1">  1       21 0.18669631E-01 0.21738904E+03</pdfrwt>
<pdfrwt beam="2">  1       21 0.73908423E-01 0.21738904E+03</pdfrwt>
<totfact> 0.42571607E+04</totfact>
</mgrwt>
</event>
<event>
 4    1  0.4072310E+000  0.1796945E+03  0.7546771E-02  0.1168099E+00
         21   -1    0    0  503  502  0.00000000000E+00  0.00000000000E+00  0.11165109397E+03  0.11165109397E+03  0.00000000000E+00 0.  1.
         21   -1    0    0  501  503 -0.00000000000E+00 -0.00000000000E+00 -0.55307356707E+03  0.55307356707E+03  0.00000000000E+00 0.  1.
          6    1    1    2  501    0 -0.39311344271E+02  0.28560996600E+02 -0.45028050396E+03  0.48481196825E+03  0.17300000000E+03 0.  1.
         -6    1    1    2    0  502  0.39311344271E+02 -0.28560996600E+02  0.88580308515E+01  0.17991269279E+03  0.17300000000E+03 0.  1.
<mgrwt>
<rscale>  2 0.17969450E+03</rscale>
<asrwt>0</asrwt>
<pdfrwt beam="1">  1       21 0.17177091E-01 0.17969450E+03</pdfrwt>
<pdfrwt beam="2">  1       21 0.85088242E-01 0.17969450E+03</pdfrwt>
<totfact> 0.36839767E+04</totfact>
</mgrwt>
</event>
<event>
 4    1  0.4072310E+000  0.2636836E+03  0.7546771E-02  0.1104950E+00
         21   -1    0    0  501  502  0.00000000000E+00  0.00000000000E+00  0.74777742407E+02  0.74777742407E+02  0.00000000000E+00 0. -1.
         21   -1    0    0  502  503 -0.00000000000E+00 -0.00000000000E+00 -0.93541575555E+03  0.93541575555E+03  0.00000000000E+00 0.  1.
          6    1    1    2  501    0 -0.18849423829E+03 -0.63796270820E+02 -0.39121551516E+03  0.47178238770E+03  0.17300000000E+03 0. -1.
         -6    1    1    2    0  503  0.18849423829E+03  0.63796270820E+02 -0.46942249798E+03  0.53841111026E+03  0.17300000000E+03 0.  1.
<mgrwt>
<rscale>  2 0.26368360E+03</rscale>
<asrwt>0</asrwt>
<pdfrwt beam="1">  1       21 0.11504269E-01 0.26368360E+03</pdfrwt>
<pdfrwt beam="2">  1       21 0.14391010E+00 0.26368360E+03</pdfrwt>
<totfact> 0.20221519E+04</totfact>
</mgrwt>
</event>
<event>
 4    1  0.4072310E+000  0.2362078E+03  0.7546771E-02  0.1122345E+00
         21   -1    0    0  503  502  0.00000000000E+00  0.00000000000E+00  0.15304561283E+04  0.15304561283E+04  0.00000000000E+00 0.  1.
         21   -1    0    0  501  503 -0.00000000000E+00 -0.00000000000E+00 -0.36486605004E+02  0.36486605004E+02  0.00000000000E+00 0.  1.
          6    1    1    2  501    0 -0.10755464694E+03 -0.11957049035E+03  0.76972515787E+03  0.80515273265E+03  0.17300000000E+03 0.  1.
         -6    1    1    2    0  502  0.10755464694E+03  0.11957049035E+03  0.72424436543E+03  0.76179000065E+03  0.17300000000E+03 0.  1.
<mgrwt>
<rscale>  2 0.23620776E+03</rscale>
<asrwt>0</asrwt>
<pdfrwt beam="1">  1       21 0.23545474E+00 0.23620776E+03</pdfrwt>
<pdfrwt beam="2">  1       21 0.56133250E-02 0.23620776E+03</pdfrwt>
<totfact> 0.17308880E+04</totfact>
</mgrwt>
</event>
<event>
 4    1  0.4072310E+000  0.2238429E+03  0.7546771E-02  0.1131050E+00
         21   -1    0    0  503  502  0.00000000000E+00  0.00000000000E+00  0.49934566105E+02  0.49934566105E+02  0.00000000000E+00 0.  1.
         21   -1    0    0  501  503 -0.00000000000E+00 -0.00000000000E+00 -0.10548362665E+04  0.10548362665E+04  0.00000000000E+00 0. -1.
          6    1    1    2  501    0  0.13291435572E+03 -0.50103876741E+02 -0.62439924452E+03  0.66330991322E+03  0.17300000000E+03 0.  1.
         -6    1    1    2    0  502 -0.13291435572E+03  0.50103876741E+02 -0.38050245592E+03  0.44146091943E+03  0.17300000000E+03 0. -1.
<mgrwt>
<rscale>  2 0.22384286E+03</rscale>
<asrwt>0</asrwt>
<pdfrwt beam="1">  1       21 0.76822410E-02 0.22384286E+03</pdfrwt>
<pdfrwt beam="2">  1       21 0.16228250E+00 0.22384286E+03</pdfrwt>
<totfact> 0.30595201E+04</totfact>
</mgrwt>
</event>
<event>
 4    1  0.4072310E+000  0.2159997E+03  0.7546771E-02  0.1136901E+00
         21   -1    0    0  503  502  0.00000000000E+00  0.00000000000E+00  0.18300996027E+03  0.18300996027E+03  0.00000000000E+00 0.  1.
         21   -1    0    0  501  503 -0.00000000000E+00 -0.00000000000E+00 -0.25507567949E+03  0.25507567949E+03  0.00000000000E+00 0.  1.
          6    1    1    2  501    0  0.57634740784E+02  0.11578038681E+03 -0.41155231292E+02  0.21988545740E+03  0.17300000000E+03 0.  1.
         -6    1    1    2    0  502 -0.57634740784E+02 -0.11578038681E+03 -0.30910487935E+02  0.21820018235E+03  0.17300000000E+03 0.  1.
<mgrwt>
<rscale>  2 0.21599968E+03</rscale>
<asrwt>0</asrwt>
<pdfrwt beam="1">  1       21 0.28155379E-01 0.21599968E+03</pdfrwt>
<pdfrwt beam="2">  1       21 0.39242412E-01 0.21599968E+03</pdfrwt>
<totfact> 0.74709521E+04</totfact>
</mgrwt>
</event>
<event>
 4    1  0.4072310E+000  0.2202092E+03  0.7546771E-02  0.1133727E+00
         21   -1    0    0  503  502  0.00000000000E+00  0.00000000000E+00  0.46781189674E+03  0.46781189674E+03  0.00000000000E+00 0.  1.
         21   -1    0    0  501  503 -0.00000000000E+00 -0.00000000000E+00 -0.12173509924E+03  0.12173509924E+03  0.00000000000E+00 0. -1.
          6    1    1    2  501    0 -0.13346350642E+03 -0.27396394533E+02  0.59444620775E+02  0.22809150120E+03  0.17300000000E+03 0. -1.
         -6    1    1    2    0  502  0.13346350642E+03  0.27396394533E+02  0.28663217672E+03  0.36145549479E+03  0.17300000000E+03 0. -1.
<mgrwt>
<rscale>  2 0.22020915E+03</rscale>
<asrwt>0</asrwt>
<pdfrwt beam="1">  1       21 0.71971060E-01 0.22020915E+03</pdfrwt>
<pdfrwt beam="2">  1       21 0.18728477E-01 0.22020915E+03</pdfrwt>
<totfact> 0.44844421E+04</totfact>
</mgrwt>
</event>
<event>
 4    1  0.4072310E+000  0.1737078E+03  0.7546771E-02  0.1174035E+00
         21   -1    0    0  503  502  0.00000000000E+00  0.00000000000E+00  0.11684784654E+03  0.11684784654E+03  0.00000000000E+00 0.  1.
         21   -1    0    0  501  503 -0.00000000000E+00 -0.00000000000E+00 -0.58153092851E+03  0.58153092851E+03  0.00000000000E+00 0. -1.
          6    1    1    2  501    0  0.69538661235E+01 -0.14036778470E+02 -0.49270119690E+03  0.52242593430E+03  0.17300000000E+03 0. -1.
         -6    1    1    2    0  502 -0.69538661235E+01  0.14036778470E+02  0.28018114921E+02  0.17595284075E+03  0.17300000000E+03 0.  1.
<mgrwt>
<rscale>  2 0.17370776E+03</rscale>
<asrwt>0</asrwt>
<pdfrwt beam="1">  1       21 0.17976591E-01 0.17370776E+03</pdfrwt>
<pdfrwt beam="2">  1       21 0.89466298E-01 0.17370776E+03</pdfrwt>
<totfact> 0.30298542E+04</totfact>
</mgrwt>
</event>
<event>
 4    1  0.4072310E+000  0.1994292E+03  0.7546771E-02  0.1150221E+00
         21   -1    0    0  501  502  0.00000000000E+00  0.00000000000E+00  0.11434223859E+04  0.11434223859E+04  0.00000000000E+00 0.  1.
         21   -1    0    0  502  503 -0.00000000000E+00 -0.00000000000E+00 -0.39176682810E+02  0.39176682810E+02  0.00000000000E+00 0.  1.
          6    1    1    2  501    0 -0.49477499565E+02  0.85994096540E+02  0.75013556212E+03  0.77619286853E+03  0.17300000000E+03 0.  1.
         -6    1    1    2    0  503  0.49477499565E+02 -0.85994096540E+02  0.35411014094E+03  0.40640620015E+03  0.17300000000E+03 0.  1.
<mgrwt>
<rscale>  2 0.19942920E+03</rscale>
<asrwt>0</asrwt>
<pdfrwt beam="1">  1       21 0.17591111E+00 0.19942920E+03</pdfrwt>
<pdfrwt beam="2">  1       21 0.60271828E-02 0.19942920E+03</pdfrwt>
<totfact> 0.37809992E+04</totfact>
</mgrwt>
</event>
<event>
 4    1  0.4072310E+000  0.1879772E+03  0.7546771E-02  0.1160299E+00
         21   -1    0    0  501  502  0.00000000000E+00  0.00000000000E+00  0.33315692962E+03  0.33315692962E+03  0.00000000000E+00 0.  1.
         21   -1    0    0  502  503 -0.00000000000E+00 -0.00000000000E+00 -0.11782574616E+03  0.11782574616E+03  0.00000000000E+00 0.  1.
          6    1    1    2  501    0 -0.61547043037E+02  0.40229231912E+02  0.17891395071E+03  0.25951036851E+03  0.17300000000E+03 0.  1.
         -6    1    1    2    0  503  0.61547043037E+02 -0.40229231912E+02  0.36417232755E+02  0.19147230726E+03  0.17300000000E+03 0.  1.
<mgrwt>
<rscale>  2 0.18797721E+03</rscale>
<asrwt>0</asrwt>
<pdfrwt beam="1">  1       21 0.51254912E-01 0.18797721E+03</pdfrwt>
<pdfrwt beam="2">  1       21 0.18127038E-01 0.18797721E+03</pdfrwt>
<totfact> 0.10044683E+05</totfact>
</mgrwt>
</event>
<event>
 4    1  0.4072310E+000  0.1840841E+03  0.7546771E-02  0.1163908E+00
         21   -1    0    0  503  502  0.00000000000E+00  0.00000000000E+00  0.12439710766E+03  0.12439710766E+03  0.00000000000E+00 0.  1.
         21   -1    0    0  501  503 -0.00000000000E+00 -0.00000000000E+00 -0.71821057705E+03  0.71821057705E+03  0.00000000000E+00 0. -1.
          6    1    1    2  501    0  0.54260495932E+02  0.31839427081E+02 -0.62883183220E+03  0.65522242309E+03  0.17300000000E+03 0. -1.
         -6    1    1    2    0  502 -0.54260495932E+02 -0.31839427081E+02  0.35018362807E+02  0.18738526161E+03  0.17300000000E+03 0.  1.
<mgrwt>
<rscale>  2 0.18408409E+03</rscale>
<asrwt>0</asrwt>
<pdfrwt beam="1">  1       21 0.19138016E-01 0.18408409E+03</pdfrwt>
<pdfrwt beam="2">  1       21 0.11049394E+00 0.18408409E+03</pdfrwt>
<totfact> 0.16280012E+04</totfact>
</mgrwt>
</event>
<event>
 4    1  0.4072310E+000  0.2493193E+03  0.7546771E-02  0.1113736E+00
         21   -1    0    0  501  502  0.00000000000E+00  0.00000000000E+00  0.42767496427E+03  0.42767496427E+03  0.00000000000E+00 0.  1.
         21   -1    0    0  502  503 -0.00000000000E+00 -0.00000000000E+00 -0.14538319176E+03  0.14538319176E+03  0.00000000000E+00 0. -1.
          6    1    1    2  501    0 -0.30127057007E+02 -0.17698439641E+03  0.13645916900E+03  0.28422037390E+03  0.17300000000E+03 0.  1.
         -6    1    1    2    0  503  0.30127057007E+02  0.17698439641E+03  0.14583260352E+03  0.28883778213E+03  0.17300000000E+03 0.  1.
<mgrwt>
<rscale>  2 0.24931931E+03</rscale>
<asrwt>0</asrwt>
<pdfrwt beam="1">  1       21 0.65796148E-01 0.24931931E+03</pdfrwt>
<pdfrwt beam="2">  1       21 0.22366645E-01 0.24931931E+03</pdfrwt>
<totfact> 0.38652196E+04</totfact>
</mgrwt>
</event>
<event>
 4    1  0.4072310E+000  0.1932693E+03  0.7546771E-02  0.1155545E+00
         21   -1    0    0  501  502  0.00000000000E+00  0.00000000000E+00  0.14507715126E+03  0.14507715126E+03  0.00000000000E+00 0. -1.
         21   -1    0    0  502  503 -0.00000000000E+00 -0.00000000000E+00 -0.26379247039E+03  0.26379247039E+03  0.00000000000E+00 0. -1.
          6    1    1    2  501    0  0.79801376309E+02 -0.32492211194E+02 -0.27707960631E+02  0.19524531885E+03  0.17300000000E+03 0. -1.
         -6    1    1    2    0  503 -0.79801376309E+02  0.32492211194E+02 -0.91007358499E+02  0.21362430281E+03  0.17300000000E+03 0. -1.
<mgrwt>
<rscale>  2 0.19326925E+03</rscale>
<asrwt>0</asrwt>
<pdfrwt beam="1">  1       21 0.22319562E-01 0.19326925E+03</pdfrwt>
<pdfrwt beam="2">  1       21 0.40583456E-01 0.19326925E+03</pdfrwt>
<totfact> 0.10986877E+05</totfact>
</mgrwt>
</event>
<event>
 4    1  0.4072310E+000  0.1971541E+03  0.7546771E-02  0.1152163E+00
         21   -1    0    0  503  502  0.00000000000E+00  0.00000000000E+00  0.64863330653E+03  0.64863330653E+03  0.00000000000E+00 0.  1.
         21   -1    0    0  501  503 -0.00000000000E+00 -0.00000000000E+00 -0.59927305603E+02  0.59927305603E+02  0.00000000000E+00 0. -1.
          6    1    1    2  501    0 -0.53787843257E+02  0.77766444531E+02  0.29623285672E+03  0.35584218043E+03  0.17300000000E+03 0.  1.
         -6    1    1    2    0  502  0.53787843257E+02 -0.77766444531E+02  0.29247314421E+03  0.35271843170E+03  0.17300000000E+03 0. -1.
<mgrwt>
<rscale>  2 0.19715413E+03</rscale>
<asrwt>0</asrwt>
<pdfrwt beam="1">  1       21 0.99789734E-01 0.19715413E+03</pdfrwt>
<pdfrwt beam="2">  1       21 0.92195859E-02 0.19715413E+03</pdfrwt>
<totfact> 0.77095596E+04</totfact>
</mgrwt>
</event>
<event>
 4    1  0.4072310E+000  0.1942442E+03  0.7546771E-02  0.1154688E+00
         21   -1    0    0  503  502  0.00000000000E+00  0.00000000000E+00  0.19667939655E+03  0.19667939655E+03  0.00000000000E+00 0.  1.
         21   -1    0    0  501  503 -0.00000000000E+00 -0.00000000000E+00 -0.45256808921E+03  0.45256808921E+03  0.00000000000E+00 0.  1.
          6    1    1    2  501    0  0.73736704176E+02 -0.48628398927E+02 -0.37433990437E+03  0.42173592061E+03  0.17300000000E+03 0.  1.
         -6    1    1    2    0  502 -0.73736704176E+02  0.48628398927E+02  0.11845121170E+03  0.22751156515E+03  0.17300000000E+03 0.  1.
<mgrwt>
<rscale>  2 0.19424423E+03</rscale>
<asrwt>0</asrwt>
<pdfrwt beam="1">  1       21 0.30258369E-01 0.19424423E+03</pdfrwt>
<pdfrwt beam="2">  1       21 0.69625860E-01 0.19424423E+03</pdfrwt>
<totfact> 0.19630278E+04</totfact>
</mgrwt>
</event>
<event>
 4    1  0.4072310E+000  0.1813725E+03  0.7546771E-02  0.1166481E+00
         21   -1    0    0  501  502  0.00000000000E+00  0.00000000000E+00  0.11589178481E+03  0.11589178481E+03  0.00000000000E+00 0.  1.
         21   -1    0    0  502  503 -0.00000000000E+00 -0.00000000000E+00 -0.28450505179E+03  0.28450505179E+03  0.00000000000E+00 0.  1.
          6    1    1    2  501    0  0.49972664500E+02 -0.21672527508E+02 -0.93907651364E+02  0.20424155461E+03  0.17300000000E+03 0.  1.
         -6    1    1    2    0  503 -0.49972664500E+02  0.21672527508E+02 -0.74705615625E+02  0.19615528199E+03  0.17300000000E+03 0.  1.
<mgrwt>
<rscale>  2 0.18137245E+03</rscale>
<asrwt>0</asrwt>
<pdfrwt beam="1">  1       21 0.17829505E-01 0.18137245E+03</pdfrwt>
<pdfrwt beam="2">  1       21 0.43770008E-01 0.18137245E+03</pdfrwt>
<totfact> 0.14384714E+05</totfact>
</mgrwt>
</event>
<event>
 4    1  0.4072310E+000  0.2363907E+03  0.7546771E-02  0.1122221E+00
         21   -1    0    0  503  502  0.00000000000E+00  0.00000000000E+00  0.15107560014E+03  0.15107560014E+03  0.00000000000E+00 0.  1.
         21   -1    0    0  501  503 -0.00000000000E+00 -0.00000000000E+00 -0.51427463657E+03  0.51427463657E+03  0.00000000000E+00 0. -1.
          6    1    1    2  501    0  0.93005964523E+02  0.13153490969E+03 -0.35787476879E+03  0.42889962933E+03  0.17300000000E+03 0. -1.
         -6    1    1    2    0  502 -0.93005964523E+02 -0.13153490969E+03 -0.53242676370E+01  0.23645060738E+03  0.17300000000E+03 0.  1.
<mgrwt>
<rscale>  2 0.23639066E+03</rscale>
<asrwt>0</asrwt>
<pdfrwt beam="1">  1       21 0.23242400E-01 0.23639066E+03</pdfrwt>
<pdfrwt beam="2">  1       21 0.79119175E-01 0.23639066E+03</pdfrwt>
<totfact> 0.23953501E+04</totfact>
</mgrwt>
</event>
<event>
 4    1  0.4072310E+000  0.1787381E+03  0.7546771E-02  0.1169030E+00
         21   -1    0    0  503  502  0.00000000000E+00  0.00000000000E+00  0.39999193842E+03  0.39999193842E+03  0.00000000000E+00 0. -1.
         21   -1    0    0  501  503 -0.00000000000E+00 -0.00000000000E+00 -0.81450135072E+02  0.81450135072E+02  0.00000000000E+00 0. -1.
          6    1    1    2  501    0 -0.44924187499E+02  0.33927745519E+00  0.12574076630E+03  0.21853612526E+03  0.17300000000E+03 0.  1.
         -6    1    1    2    0  502  0.44924187499E+02 -0.33927745519E+00  0.19280103704E+03  0.26290594823E+03  0.17300000000E+03 0.  1.
<mgrwt>
<rscale>  2 0.17873807E+03</rscale>
<asrwt>0</asrwt>
<pdfrwt beam="1">  1       21 0.61537220E-01 0.17873807E+03</pdfrwt>
<pdfrwt beam="2">  1       21 0.12530790E-01 0.17873807E+03</pdfrwt>
<totfact> 0.13389851E+05</totfact>
</mgrwt>
</event>
<event>
 4    1  0.4072310E+000  0.1958926E+03  0.7546771E-02  0.1153251E+00
         21   -1    0    0  501  502  0.00000000000E+00  0.00000000000E+00  0.59867335910E+03  0.59867335910E+03  0.00000000000E+00 0.  1.
         21   -1    0    0  502  503 -0.00000000000E+00 -0.00000000000E+00 -0.81356230185E+02  0.81356230185E+02  0.00000000000E+00 0.  1.
          6    1    1    2  501    0  0.10979480485E+02  0.91237834780E+02  0.41526077055E+03  0.45914638085E+03  0.17300000000E+03 0.  1.
         -6    1    1    2    0  503 -0.10979480485E+02 -0.91237834780E+02  0.10205635836E+03  0.22088320844E+03  0.17300000000E+03 0.  1.
<mgrwt>
<rscale>  2 0.19589255E+03</rscale>
<asrwt>0</asrwt>
<pdfrwt beam="1">  1       21 0.92103591E-01 0.19589255E+03</pdfrwt>
<pdfrwt beam="2">  1       21 0.12516343E-01 0.19589255E+03</pdfrwt>
<totfact> 0.54098320E+04</totfact>
</mgrwt>
</event>
<event>
 4    1  0.4072310E+000  0.2255098E+03  0.7546771E-02  0.1129841E+00
         21   -1    0    0  503  502  0.00000000000E+00  0.00000000000E+00  0.28170179126E+03  0.28170179126E+03  0.00000000000E+00 0.  1.
         21   -1    0    0  501  503 -0.00000000000E+00 -0.00000000000E+00 -0.21134326421E+03  0.21134326421E+03  0.00000000000E+00 0. -1.
          6    1    1    2  501    0 -0.14386236488E+03 -0.15142449751E+02 -0.58956584465E+02  0.23308915175E+03  0.17300000000E+03 0. -1.
         -6    1    1    2    0  502  0.14386236488E+03  0.15142449751E+02  0.12931511151E+03  0.25995590372E+03  0.17300000000E+03 0.  1.
<mgrwt>
<rscale>  2 0.22550981E+03</rscale>
<asrwt>0</asrwt>
<pdfrwt beam="1">  1       21 0.43338737E-01 0.22550981E+03</pdfrwt>
<pdfrwt beam="2">  1       21 0.32514348E-01 0.22550981E+03</pdfrwt>
<totfact> 0.45862157E+04</totfact>
</mgrwt>
</event>
<event>
 4    1  0.4072310E+000  0.1940765E+03  0.7546771E-02  0.1154835E+00
         21   -1    0    0  503  502  0.00000000000E+00  0.00000000000E+00  0.27155374310E+03  0.27155374310E+03  0.00000000000E+00 0.  1.
         21   -1    0    0  501  503 -0.00000000000E+00 -0.00000000000E+00 -0.16545956307E+03  0.16545956307E+03  0.00000000000E+00 0. -1.
          6    1    1    2  501    0  0.65930367055E+02  0.58222710417E+02 -0.34819258801E+02  0.19717524716E+03  0.17300000000E+03 0. -1.
         -6    1    1    2    0  502 -0.65930367055E+02 -0.58222710417E+02  0.14091343883E+03  0.23983805901E+03  0.17300000000E+03 0.  1.
<mgrwt>
<rscale>  2 0.19407652E+03</rscale>
<asrwt>0</asrwt>
<pdfrwt beam="1">  1       21 0.41777499E-01 0.19407652E+03</pdfrwt>
<pdfrwt beam="2">  1       21 0.25455317E-01 0.19407652E+03</pdfrwt>
<totfact> 0.80665312E+04</totfact>
</mgrwt>
</event>
<event>
 4    1  0.4072310E+000  0.1787449E+03  0.7546771E-02  0.1169023E+00
         21   -1    0    0  501  502  0.00000000000E+00  0.00000000000E+00  0.13649094342E+03  0.13649094342E+03  0.00000000000E+00 0.  1.
         21   -1    0    0  502  503 -0.00000000000E+00 -0.00000000000E+00 -0.41436446144E+03  0.41436446144E+03  0.00000000000E+00 0.  1.
          6    1    1    2  501    0  0.39531587219E+02  0.21400617269E+02  0.42738635022E+02  0.18378336087E+03  0.17300000000E+03 0.  1.
         -6    1    1    2    0  503 -0.39531587219E+02 -0.21400617269E+02 -0.32061215304E+03  0.36707204400E+03  0.17300000000E+03 0.  1.
<mgrwt>
<rscale>  2 0.17874488E+03</rscale>
<asrwt>0</asrwt>
<pdfrwt beam="1">  1       21 0.20998607E-01 0.17874488E+03</pdfrwt>
<pdfrwt beam="2">  1       21 0.63748377E-01 0.17874488E+03</pdfrwt>
<totfact> 0.48227031E+04</totfact>
</mgrwt>
</event>
<event>
 4    1  0.4072310E+000  0.3123785E+03  0.7546771E-02  0.1079211E+00
         21   -1    0    0  503  502  0.00000000000E+00  0.00000000000E+00  0.26586603564E+03  0.26586603564E+03  0.00000000000E+00 0. -1.
         21   -1    0    0  501  503 -0.00000000000E+00 -0.00000000000E+00 -0.56160467893E+03  0.56160467893E+03  0.00000000000E+00 0. -1.
          6    1    1    2  501    0 -0.25591707888E+03 -0.46451825576E+02 -0.39139933156E+03  0.50077316233E+03  0.17300000000E+03 0. -1.
         -6    1    1    2    0  502  0.25591707888E+03  0.46451825576E+02  0.95660688268E+02  0.32669755225E+03  0.17300000000E+03 0. -1.
<mgrwt>
<rscale>  2 0.31237849E+03</rscale>
<asrwt>0</asrwt>
<pdfrwt beam="1">  1       21 0.40902468E-01 0.31237849E+03</pdfrwt>
<pdfrwt beam="2">  1       21 0.86400718E-01 0.31237849E+03</pdfrwt>
<totfact> 0.61835496E+03</totfact>
</mgrwt>
</event>
<event>
 4    1  0.4072310E+000  0.1884817E+03  0.7546771E-02  0.1159838E+00
         21   -1    0    0  503  502  0.00000000000E+00  0.00000000000E+00  0.15060046569E+03  0.15060046569E+03  0.00000000000E+00 0.  1.
         21   -1    0    0  501  503 -0.00000000000E+00 -0.00000000000E+00 -0.33805228750E+03  0.33805228750E+03  0.00000000000E+00 0.  1.
          6    1    1    2  501    0  0.74805591892E+02  0.69505135030E+00 -0.22803972228E+03  0.29585042608E+03  0.17300000000E+03 0.  1.
         -6    1    1    2    0  502 -0.74805591892E+02 -0.69505135030E+00  0.40587900462E+02  0.19280232711E+03  0.17300000000E+03 0.  1.
<mgrwt>
<rscale>  2 0.18848172E+03</rscale>
<asrwt>0</asrwt>
<pdfrwt beam="1">  1       21 0.23169302E-01 0.18848172E+03</pdfrwt>
<pdfrwt beam="2">  1       21 0.52008044E-01 0.18848172E+03</pdfrwt>
<totfact> 0.61538256E+04</totfact>
</mgrwt>
</event>
<event>
 4    1  0.4072310E+000  0.1937588E+03  0.7546771E-02  0.1155114E+00
         21   -1    0    0  503  502  0.00000000000E+00  0.00000000000E+00  0.15857621416E+02  0.15857621416E+02  0.00000000000E+00 0.  1.
         21   -1    0    0  501  503 -0.00000000000E+00 -0.00000000000E+00 -0.26202327114E+04  0.26202327114E+04  0.00000000000E+00 0. -1.
          6    1    1    2  501    0  0.87713952809E+00  0.87250803204E+02 -0.17115568627E+04  0.17224892935E+04  0.17300000000E+03 0. -1.
         -6    1    1    2    0  502 -0.87713952809E+00 -0.87250803204E+02 -0.89281822730E+03  0.91360103931E+03  0.17300000000E+03 0.  1.
<mgrwt>
<rscale>  2 0.19375880E+03</rscale>
<asrwt>0</asrwt>
<pdfrwt beam="1">  1       21 0.24396320E-02 0.19375880E+03</pdfrwt>
<pdfrwt beam="2">  1       21 0.40311306E+00 0.19375880E+03</pdfrwt>
<totfact> 0.73999308E+03</totfact>
</mgrwt>
</event>
<event>
 4    1  0.4072310E+000  0.1962514E+03  0.7546771E-02  0.1152941E+00
         21   -1    0    0  503  502  0.00000000000E+00  0.00000000000E+00  0.20614866360E+04  0.20614866360E+04  0.00000000000E+00 0.  1.
         21   -1    0    0  501  503 -0.00000000000E+00 -0.00000000000E+00 -0.39146141949E+02  0.39146141949E+02  0.00000000000E+00 0.  1.
          6    1    1    2  501    0 -0.13924894348E+02  0.91606366106E+02  0.25178445895E+03  0.31923352387E+03  0.17300000000E+03 0.  1.
         -6    1    1    2    0  502  0.13924894348E+02 -0.91606366106E+02  0.17705560351E+04  0.17813992541E+04  0.17300000000E+03 0.  1.
<mgrwt>
<rscale>  2 0.19625144E+03</rscale>
<asrwt>0</asrwt>
<pdfrwt beam="1">  1       21 0.31715171E+00 0.19625144E+03</pdfrwt>
<pdfrwt beam="2">  1       21 0.60224850E-02 0.19625144E+03</pdfrwt>
<totfact> 0.53032463E+03</totfact>
</mgrwt>
</event>
<event>
 4    1  0.4072310E+000  0.2291233E+03  0.7546771E-02  0.1127258E+00
         21   -1    0    0  501  502  0.00000000000E+00  0.00000000000E+00  0.15231428832E+03  0.15231428832E+03  0.00000000000E+00 0. -1.
         21   -1    0    0  502  503 -0.00000000000E+00 -0.00000000000E+00 -0.34676662952E+03  0.34676662952E+03  0.00000000000E+00 0. -1.
          6    1    1    2  501    0  0.10964479101E+03  0.10269624292E+03 -0.77802271792E+02  0.24197250258E+03  0.17300000000E+03 0. -1.
         -6    1    1    2    0  503 -0.10964479101E+03 -0.10269624292E+03 -0.11665006941E+03  0.25710841527E+03  0.17300000000E+03 0. -1.
<mgrwt>
<rscale>  2 0.22912333E+03</rscale>
<asrwt>0</asrwt>
<pdfrwt beam="1">  1       21 0.23432968E-01 0.22912333E+03</pdfrwt>
<pdfrwt beam="2">  1       21 0.53348711E-01 0.22912333E+03</pdfrwt>
<totfact> 0.56055216E+04</totfact>
</mgrwt>
</event>
<event>
 4    1  0.4072310E+000  0.1759197E+03  0.7546771E-02  0.1171811E+00
         21   -1    0    0  501  502  0.00000000000E+00  0.00000000000E+00  0.39009645935E+03  0.39009645935E+03  0.00000000000E+00 0. -1.
         21   -1    0    0  502  503 -0.00000000000E+00 -0.00000000000E+00 -0.86192981671E+02  0.86192981671E+02  0.00000000000E+00 0. -1.
          6    1    1    2  501    0  0.26500184935E+02 -0.17790384986E+02  0.21913288334E+03  0.28101063709E+03  0.17300000000E+03 0. -1.
         -6    1    1    2    0  503 -0.26500184935E+02  0.17790384986E+02  0.84770594343E+02  0.19527880393E+03  0.17300000000E+03 0. -1.
<mgrwt>
<rscale>  2 0.17591975E+03</rscale>
<asrwt>0</asrwt>
<pdfrwt beam="1">  1       21 0.60014839E-01 0.17591975E+03</pdfrwt>
<pdfrwt beam="2">  1       21 0.13260459E-01 0.17591975E+03</pdfrwt>
<totfact> 0.12777415E+05</totfact>
</mgrwt>
</event>
<event>
 4    1  0.4072310E+000  0.2131790E+03  0.7546771E-02  0.1139073E+00
         21   -1    0    0  501  502  0.00000000000E+00  0.00000000000E+00  0.66067478056E+02  0.66067478056E+02  0.00000000000E+00 0.  1.
         21   -1    0    0  502  503 -0.00000000000E+00 -0.00000000000E+00 -0.17721543361E+04  0.17721543361E+04  0.00000000000E+00 0. -1.
          6    1    1    2  501    0  0.11513956330E+03  0.47530759668E+02 -0.13410716597E+03  0.25185317968E+03  0.17300000000E+03 0.  1.
         -6    1    1    2    0  503 -0.11513956330E+03 -0.47530759668E+02 -0.15719796921E+04  0.15863686345E+04  0.17300000000E+03 0. -1.
<mgrwt>
<rscale>  2 0.21317901E+03</rscale>
<asrwt>0</asrwt>
<pdfrwt beam="1">  1       21 0.10164227E-01 0.21317901E+03</pdfrwt>
<pdfrwt beam="2">  1       21 0.27263915E+00 0.21317901E+03</pdfrwt>
<totfact> 0.37844000E+03</totfact>
</mgrwt>
</event>
<event>
 4    1  0.4072310E+000  0.4205942E+03  0.7546771E-02  0.1036873E+00
         21   -1    0    0  501  502  0.00000000000E+00  0.00000000000E+00  0.54634423669E+03  0.54634423669E+03  0.00000000000E+00 0.  1.
         21   -1    0    0  502  503 -0.00000000000E+00 -0.00000000000E+00 -0.66033731442E+03  0.66033731442E+03  0.00000000000E+00 0. -1.
          6    1    1    2  501    0 -0.30026411933E+03 -0.23835252673E+03  0.37373274143E+03  0.56265054019E+03  0.17300000000E+03 0.  1.
         -6    1    1    2    0  503  0.30026411933E+03  0.23835252673E+03 -0.48772581916E+03  0.64403101093E+03  0.17300000000E+03 0. -1.
<mgrwt>
<rscale>  2 0.42059418E+03</rscale>
<asrwt>0</asrwt>
<pdfrwt beam="1">  1       21 0.84052959E-01 0.42059418E+03</pdfrwt>
<pdfrwt beam="2">  1       21 0.10159036E+00 0.42059418E+03</pdfrwt>
<totfact> 0.83342903E+02</totfact>
</mgrwt>
</event>
<event>
 4    1  0.4072310E+000  0.2026173E+03  0.7546771E-02  0.1147549E+00
         21   -1    0    0  501  502  0.00000000000E+00  0.00000000000E+00  0.12607146042E+03  0.12607146042E+03  0.00000000000E+00 0. -1.
         21   -1    0    0  502  503 -0.00000000000E+00 -0.00000000000E+00 -0.66094355895E+03  0.66094355895E+03  0.00000000000E+00 0.  1.
          6    1    1    2  501    0 -0.30215019805E+02 -0.10105361459E+03  0.12842968284E+02  0.20302394508E+03  0.17300000000E+03 0. -1.
         -6    1    1    2    0  503  0.30215019805E+02  0.10105361459E+03 -0.54771506680E+03  0.58399107429E+03  0.17300000000E+03 0.  1.
<mgrwt>
<rscale>  2 0.20261733E+03</rscale>
<asrwt>0</asrwt>
<pdfrwt beam="1">  1       21 0.19395610E-01 0.20261733E+03</pdfrwt>
<pdfrwt beam="2">  1       21 0.10168362E+00 0.20261733E+03</pdfrwt>
<totfact> 0.19163984E+04</totfact>
</mgrwt>
</event>
<event>
 4    1  0.4072310E+000  0.1961533E+03  0.7546771E-02  0.1153026E+00
         21   -1    0    0  503  502  0.00000000000E+00  0.00000000000E+00  0.19061793927E+03  0.19061793927E+03  0.00000000000E+00 0.  1.
         21   -1    0    0  501  503 -0.00000000000E+00 -0.00000000000E+00 -0.22441620284E+03  0.22441620284E+03  0.00000000000E+00 0.  1.
          6    1    1    2  501    0 -0.45351367102E+02  0.80562876931E+02 -0.82704510027E+02  0.21287592540E+03  0.17300000000E+03 0. -1.
         -6    1    1    2    0  502  0.45351367102E+02 -0.80562876931E+02  0.48906246459E+02  0.20215821670E+03  0.17300000000E+03 0. -1.
<mgrwt>
<rscale>  2 0.19615332E+03</rscale>
<asrwt>0</asrwt>
<pdfrwt beam="1">  1       21 0.29325837E-01 0.19615332E+03</pdfrwt>
<pdfrwt beam="2">  1       21 0.34525570E-01 0.19615332E+03</pdfrwt>
<totfact> 0.89927990E+04</totfact>
</mgrwt>
</event>
<event>
 4    1  0.4072310E+000  0.1736479E+03  0.7546771E-02  0.1174096E+00
         21   -1    0    0  503  502  0.00000000000E+00  0.00000000000E+00  0.97136051979E+02  0.97136051979E+02  0.00000000000E+00 0.  1.
         21   -1    0    0  501  503 -0.00000000000E+00 -0.00000000000E+00 -0.38554065853E+03  0.38554065853E+03  0.00000000000E+00 0.  1.
          6    1    1    2  501    0 -0.10530985529E+02  0.10662035018E+02 -0.25072762965E+03  0.30498840128E+03  0.17300000000E+03 0.  1.
         -6    1    1    2    0  502  0.10530985529E+02 -0.10662035018E+02 -0.37676976899E+02  0.17768830922E+03  0.17300000000E+03 0.  1.
<mgrwt>
<rscale>  2 0.17364786E+03</rscale>
<asrwt>0</asrwt>
<pdfrwt beam="1">  1       21 0.14944008E-01 0.17364786E+03</pdfrwt>
<pdfrwt beam="2">  1       21 0.59313948E-01 0.17364786E+03</pdfrwt>
<totfact> 0.10565967E+05</totfact>
</mgrwt>
</event>
<event>
 4    1  0.4072310E+000  0.1845449E+03  0.7546771E-02  0.1163476E+00
         21   -1    0    0  501  502  0.00000000000E+00  0.00000000000E+00  0.67384913478E+02  0.67384913478E+02  0.00000000000E+00 0. -1.
         21   -1    0    0  502  503 -0.00000000000E+00 -0.00000000000E+00 -0.83325808200E+03  0.83325808200E+03  0.00000000000E+00 0. -1.
          6    1    1    2  501    0  0.33540122969E+02  0.54798684220E+02 -0.10046748729E+03  0.21012032658E+03  0.17300000000E+03 0. -1.
         -6    1    1    2    0  503 -0.33540122969E+02 -0.54798684220E+02 -0.66540568123E+03  0.69052266889E+03  0.17300000000E+03 0. -1.
<mgrwt>
<rscale>  2 0.18454494E+03</rscale>
<asrwt>0</asrwt>
<pdfrwt beam="1">  1       21 0.10366910E-01 0.18454494E+03</pdfrwt>
<pdfrwt beam="2">  1       21 0.12819355E+00 0.18454494E+03</pdfrwt>
<totfact> 0.34249403E+04</totfact>
</mgrwt>
</event>
<event>
 4    1  0.4072310E+000  0.2220720E+03  0.7546771E-02  0.1132348E+00
         21   -1    0    0  503  502  0.00000000000E+00  0.00000000000E+00  0.10399215586E+03  0.10399215586E+03  0.00000000000E+00 0.  1.
         21   -1    0    0  501  503 -0.00000000000E+00 -0.00000000000E+00 -0.50608966778E+03  0.50608966778E+03  0.00000000000E+00 0. -1.
          6    1    1    2  501    0 -0.63419371723E+02  0.12395537928E+03 -0.27758747420E+03  0.35548665037E+03  0.17300000000E+03 0. -1.
         -6    1    1    2    0  502  0.63419371723E+02 -0.12395537928E+03 -0.12451003772E+03  0.25459517328E+03  0.17300000000E+03 0.  1.
<mgrwt>
<rscale>  2 0.22207195E+03</rscale>
<asrwt>0</asrwt>
<pdfrwt beam="1">  1       21 0.15998793E-01 0.22207195E+03</pdfrwt>
<pdfrwt beam="2">  1       21 0.77859951E-01 0.22207195E+03</pdfrwt>
<totfact> 0.50268598E+04</totfact>
</mgrwt>
</event>
<event>
 4    1  0.4072310E+000  0.2066943E+03  0.7546771E-02  0.1144211E+00
         21   -1    0    0  503  502  0.00000000000E+00  0.00000000000E+00  0.27364988115E+03  0.27364988115E+03  0.00000000000E+00 0. -1.
         21   -1    0    0  501  503 -0.00000000000E+00 -0.00000000000E+00 -0.17710782647E+03  0.17710782647E+03  0.00000000000E+00 0.  1.
          6    1    1    2  501    0 -0.99491194895E+02  0.53805494072E+02 -0.29311927370E+02  0.20876234847E+03  0.17300000000E+03 0.  1.
         -6    1    1    2    0  502  0.99491194895E+02 -0.53805494072E+02  0.12585398205E+03  0.24199535915E+03  0.17300000000E+03 0. -1.
<mgrwt>
<rscale>  2 0.20669429E+03</rscale>
<asrwt>0</asrwt>
<pdfrwt beam="1">  1       21 0.42099982E-01 0.20669429E+03</pdfrwt>
<pdfrwt beam="2">  1       21 0.27247358E-01 0.20669429E+03</pdfrwt>
<totfact> 0.69293963E+04</totfact>
</mgrwt>
</event>
<event>
 4    1  0.4072310E+000  0.3465175E+03  0.7546771E-02  0.1064054E+00
         21   -1    0    0  503  502  0.00000000000E+00  0.00000000000E+00  0.14315077070E+04  0.14315077070E+04  0.00000000000E+00 0. -1.
         21   -1    0    0  501  503 -0.00000000000E+00 -0.00000000000E+00 -0.13401248774E+03  0.13401248774E+03  0.00000000000E+00 0.  1.
          6    1    1    2  501    0  0.50053554492E+02  0.29604057133E+03  0.16998839103E+03  0.38596687847E+03  0.17300000000E+03 0.  1.
         -6    1    1    2    0  502 -0.50053554492E+02 -0.29604057133E+03  0.11275068282E+04  0.11795533162E+04  0.17300000000E+03 0. -1.
<mgrwt>
<rscale>  2 0.34651750E+03</rscale>
<asrwt>0</asrwt>
<pdfrwt beam="1">  1       21 0.22023194E+00 0.34651750E+03</pdfrwt>
<pdfrwt beam="2">  1       21 0.20617307E-01 0.34651750E+03</pdfrwt>
<totfact> 0.19341655E+03</totfact>
</mgrwt>
</event>
<event>
 4    1  0.4072310E+000  0.2181561E+03  0.7546771E-02  0.1135265E+00
         21   -1    0    0  503  502  0.00000000000E+00  0.00000000000E+00  0.17515049361E+03  0.17515049361E+03  0.00000000000E+00 0.  1.
         21   -1    0    0  501  503 -0.00000000000E+00 -0.00000000000E+00 -0.34331186182E+03  0.34331186182E+03  0.00000000000E+00 0.  1.
          6    1    1    2  501    0  0.10620915136E+03  0.79891760486E+02 -0.20245880759E+03  0.29762668898E+03  0.17300000000E+03 0.  1.
         -6    1    1    2    0  502 -0.10620915136E+03 -0.79891760486E+02  0.34297439380E+02  0.22083566645E+03  0.17300000000E+03 0.  1.
<mgrwt>
<rscale>  2 0.21815608E+03</rscale>
<asrwt>0</asrwt>
<pdfrwt beam="1">  1       21 0.26946230E-01 0.21815608E+03</pdfrwt>
<pdfrwt beam="2">  1       21 0.52817209E-01 0.21815608E+03</pdfrwt>
<totfact> 0.44015232E+04</totfact>
</mgrwt>
</event>
<event>
 4    1  0.4072310E+000  0.2632233E+03  0.7546771E-02  0.1105222E+00
         21   -1    0    0  503  502  0.00000000000E+00  0.00000000000E+00  0.19264784546E+03  0.19264784546E+03  0.00000000000E+00 0.  1.
         21   -1    0    0  501  503 -0.00000000000E+00 -0.00000000000E+00 -0.37442942814E+03  0.37442942814E+03  0.00000000000E+00 0.  1.
          6    1    1    2  501    0 -0.92305782856E+02 -0.17560515584E+03 -0.14721567990E+03  0.30159407275E+03  0.17300000000E+03 0.  1.
         -6    1    1    2    0  502  0.92305782856E+02  0.17560515584E+03 -0.34565902778E+02  0.26548320086E+03  0.17300000000E+03 0.  1.
<mgrwt>
<rscale>  2 0.26322334E+03</rscale>
<asrwt>0</asrwt>
<pdfrwt beam="1">  1       21 0.29638131E-01 0.26322334E+03</pdfrwt>
<pdfrwt beam="2">  1       21 0.57604527E-01 0.26322334E+03</pdfrwt>
<totfact> 0.29803025E+04</totfact>
</mgrwt>
</event>
<event>
 4    1  0.4072310E+000  0.1882642E+03  0.7546771E-02  0.1160036E+00
         21   -1    0    0  503  502  0.00000000000E+00  0.00000000000E+00  0.17209161360E+03  0.17209161360E+03  0.00000000000E+00 0.  1.
         21   -1    0    0  501  503 -0.00000000000E+00 -0.00000000000E+00 -0.21043443762E+03  0.21043443762E+03  0.00000000000E+00 0.  1.
          6    1    1    2  501    0 -0.58940662575E+02 -0.45170740344E+02 -0.47071688991E+02  0.19405963360E+03  0.17300000000E+03 0.  1.
         -6    1    1    2    0  502  0.58940662575E+02  0.45170740344E+02  0.87288649781E+01  0.18846641762E+03  0.17300000000E+03 0.  1.
<mgrwt>
<rscale>  2 0.18826417E+03</rscale>
<asrwt>0</asrwt>
<pdfrwt beam="1">  1       21 0.26475633E-01 0.18826417E+03</pdfrwt>
<pdfrwt beam="2">  1       21 0.32374529E-01 0.18826417E+03</pdfrwt>
<totfact> 0.12477596E+05</totfact>
</mgrwt>
</event>
<event>
 4    1  0.4072310E+000  0.2028135E+03  0.7546771E-02  0.1147387E+00
         21   -1    0    0  503  502  0.00000000000E+00  0.00000000000E+00  0.99925156148E+02  0.99925156148E+02  0.00000000000E+00 0.  1.
         21   -1    0    0  501  503 -0.00000000000E+00 -0.00000000000E+00 -0.21776562156E+04  0.21776562156E+04  0.00000000000E+00 0.  1.
          6    1    1    2  501    0 -0.90262691556E+02  0.55289954216E+02 -0.20643909182E+04  0.20743295774E+04  0.17300000000E+03 0.  1.
         -6    1    1    2    0  502  0.90262691556E+02 -0.55289954216E+02 -0.13340141216E+02  0.20325179431E+03  0.17300000000E+03 0.  1.
<mgrwt>
<rscale>  2 0.20281354E+03</rscale>
<asrwt>0</asrwt>
<pdfrwt beam="1">  1       21 0.15373101E-01 0.20281354E+03</pdfrwt>
<pdfrwt beam="2">  1       21 0.33502402E+00 0.20281354E+03</pdfrwt>
<totfact> 0.79150405E+02</totfact>
</mgrwt>
</event>
<event>
 4    1  0.4072310E+000  0.2514802E+03  0.7546771E-02  0.1112373E+00
         21   -1    0    0  501  502  0.00000000000E+00  0.00000000000E+00  0.39773151006E+03  0.39773151006E+03  0.00000000000E+00 0. -1.
         21   -1    0    0  502  503 -0.00000000000E+00 -0.00000000000E+00 -0.17257009936E+03  0.17257009936E+03  0.00000000000E+00 0.  1.
          6    1    1    2  501    0 -0.13265763993E+03 -0.12536045173E+03  0.19252055468E+03  0.31671194525E+03  0.17300000000E+03 0. -1.
         -6    1    1    2    0  503  0.13265763993E+03  0.12536045173E+03  0.32640856024E+02  0.25358966417E+03  0.17300000000E+03 0.  1.
<mgrwt>
<rscale>  2 0.25148020E+03</rscale>
<asrwt>0</asrwt>
<pdfrwt beam="1">  1       21 0.61189463E-01 0.25148020E+03</pdfrwt>
<pdfrwt beam="2">  1       21 0.26549246E-01 0.25148020E+03</pdfrwt>
<totfact> 0.32576591E+04</totfact>
</mgrwt>
</event>
<event>
 4    1  0.4072310E+000  0.1947853E+03  0.7546771E-02  0.1154215E+00
         21   -1    0    0  503  502  0.00000000000E+00  0.00000000000E+00  0.39249888567E+02  0.39249888567E+02  0.00000000000E+00 0.  1.
         21   -1    0    0  501  503 -0.00000000000E+00 -0.00000000000E+00 -0.15282566445E+04  0.15282566445E+04  0.00000000000E+00 0. -1.
          6    1    1    2  501    0  0.53771957596E+01  0.89349805664E+02 -0.12196125594E+04  0.12350692681E+04  0.17300000000E+03 0. -1.
         -6    1    1    2    0  502 -0.53771957596E+01 -0.89349805664E+02 -0.26939419658E+03  0.33243726500E+03  0.17300000000E+03 0.  1.
<mgrwt>
<rscale>  2 0.19478527E+03</rscale>
<asrwt>0</asrwt>
<pdfrwt beam="1">  1       21 0.60384458E-02 0.19478527E+03</pdfrwt>
<pdfrwt beam="2">  1       21 0.23511635E+00 0.19478527E+03</pdfrwt>
<totfact> 0.15861143E+04</totfact>
</mgrwt>
</event>
<event>
 4    1  0.4072310E+000  0.2933669E+03  0.7546771E-02  0.1088604E+00
         21   -1    0    0  503  502  0.00000000000E+00  0.00000000000E+00  0.10635967944E+04  0.10635967944E+04  0.00000000000E+00 0. -1.
         21   -1    0    0  501  503 -0.00000000000E+00 -0.00000000000E+00 -0.14600165879E+03  0.14600165879E+03  0.00000000000E+00 0. -1.
          6    1    1    2  501    0  0.69360849199E+02  0.22654849525E+03  0.54995776953E+02  0.29847727482E+03  0.17300000000E+03 0. -1.
         -6    1    1    2    0  502 -0.69360849199E+02 -0.22654849525E+03  0.86259935863E+03  0.91112117834E+03  0.17300000000E+03 0. -1.
<mgrwt>
<rscale>  2 0.29336692E+03</rscale>
<asrwt>0</asrwt>
<pdfrwt beam="1">  1       21 0.16363027E+00 0.29336692E+03</pdfrwt>
<pdfrwt beam="2">  1       21 0.22461794E-01 0.29336692E+03</pdfrwt>
<totfact> 0.40860880E+03</totfact>
</mgrwt>
</event>
<event>
 4    1  0.4072310E+000  0.2363127E+03  0.7546771E-02  0.1122274E+00
         21   -1    0    0  503  502  0.00000000000E+00  0.00000000000E+00  0.68856338176E+02  0.68856338176E+02  0.00000000000E+00 0.  1.
         21   -1    0    0  501  503 -0.00000000000E+00 -0.00000000000E+00 -0.11303604381E+04  0.11303604381E+04  0.00000000000E+00 0.  1.
          6    1    1    2  501    0  0.12633584613E+03 -0.99769577362E+02 -0.84945618080E+03  0.88171396591E+03  0.17300000000E+03 0.  1.
         -6    1    1    2    0  502 -0.12633584613E+03  0.99769577362E+02 -0.21204791912E+03  0.31750281037E+03  0.17300000000E+03 0.  1.
<mgrwt>
<rscale>  2 0.23631275E+03</rscale>
<asrwt>0</asrwt>
<pdfrwt beam="1">  1       21 0.10593282E-01 0.23631275E+03</pdfrwt>
<pdfrwt beam="2">  1       21 0.17390162E+00 0.23631275E+03</pdfrwt>
<totfact> 0.14242195E+04</totfact>
</mgrwt>
</event>
<event>
 4    1  0.4072310E+000  0.2406165E+03  0.7546771E-02  0.1119383E+00
         21   -1    0    0  503  502  0.00000000000E+00  0.00000000000E+00  0.11530070292E+03  0.11530070292E+03  0.00000000000E+00 0. -1.
         21   -1    0    0  501  503 -0.00000000000E+00 -0.00000000000E+00 -0.93662198252E+03  0.93662198252E+03  0.00000000000E+00 0.  1.
          6    1    1    2  501    0 -0.21543130779E+02  0.16584091933E+03 -0.76888977944E+03  0.80565985995E+03  0.17300000000E+03 0.  1.
         -6    1    1    2    0  502  0.21543130779E+02 -0.16584091933E+03 -0.52431500162E+02  0.24626282549E+03  0.17300000000E+03 0. -1.
<mgrwt>
<rscale>  2 0.24061654E+03</rscale>
<asrwt>0</asrwt>
<pdfrwt beam="1">  1       21 0.17738569E-01 0.24061654E+03</pdfrwt>
<pdfrwt beam="2">  1       21 0.14409569E+00 0.24061654E+03</pdfrwt>
<totfact> 0.92615407E+03</totfact>
</mgrwt>
</event>
<event>
 4    1  0.4072310E+000  0.1855141E+03  0.7546771E-02  0.1162571E+00
         21   -1    0    0  501  502  0.00000000000E+00  0.00000000000E+00  0.64640708080E+03  0.64640708080E+03  0.00000000000E+00 0. -1.
         21   -1    0    0  502  503 -0.00000000000E+00 -0.00000000000E+00 -0.11067592945E+03  0.11067592945E+03  0.00000000000E+00 0. -1.
          6    1    1    2  501    0 -0.52576641700E+02 -0.41499243119E+02  0.54055870464E+03  0.57150608361E+03  0.17300000000E+03 0. -1.
         -6    1    1    2    0  503  0.52576641700E+02  0.41499243119E+02 -0.48275533023E+01  0.18557692664E+03  0.17300000000E+03 0. -1.
<mgrwt>
<rscale>  2 0.18551412E+03</rscale>
<asrwt>0</asrwt>
<pdfrwt beam="1">  1       21 0.99447242E-01 0.18551412E+03</pdfrwt>
<pdfrwt beam="2">  1       21 0.17027066E-01 0.18551412E+03</pdfrwt>
<totfact> 0.25981458E+04</totfact>
</mgrwt>
</event>
<event>
 4    1  0.4072310E+000  0.1849316E+03  0.7546771E-02  0.1163114E+00
         21   -1    0    0  503  502  0.00000000000E+00  0.00000000000E+00  0.14120070900E+04  0.14120070900E+04  0.00000000000E+00 0.  1.
         21   -1    0    0  501  503 -0.00000000000E+00 -0.00000000000E+00 -0.42495279882E+02  0.42495279882E+02  0.00000000000E+00 0.  1.
          6    1    1    2  501    0 -0.11722539142E+02  0.64290505915E+02  0.20784336422E+03  0.27820595092E+03  0.17300000000E+03 0.  1.
         -6    1    1    2    0  502  0.11722539142E+02 -0.64290505915E+02  0.11616684459E+04  0.11762964189E+04  0.17300000000E+03 0.  1.
<mgrwt>
<rscale>  2 0.18493157E+03</rscale>
<asrwt>0</asrwt>
<pdfrwt beam="1">  1       21 0.21723182E+00 0.18493157E+03</pdfrwt>
<pdfrwt beam="2">  1       21 0.65377365E-02 0.18493157E+03</pdfrwt>
<totfact> 0.17916538E+04</totfact>
</mgrwt>
</event>
<event>
 4    1  0.4072310E+000  0.1858262E+03  0.7546771E-02  0.1162281E+00
         21   -1    0    0  503  502  0.00000000000E+00  0.00000000000E+00  0.42738467302E+03  0.42738467302E+03  0.00000000000E+00 0. -1.
         21   -1    0    0  501  503 -0.00000000000E+00 -0.00000000000E+00 -0.83929489240E+02  0.83929489240E+02  0.00000000000E+00 0. -1.
          6    1    1    2  501    0 -0.65864048951E+02 -0.16257451115E+02  0.12233647349E+03  0.22248053939E+03  0.17300000000E+03 0. -1.
         -6    1    1    2    0  502  0.65864048951E+02  0.16257451115E+02  0.22111871029E+03  0.28883362287E+03  0.17300000000E+03 0. -1.
<mgrwt>
<rscale>  2 0.18582620E+03</rscale>
<asrwt>0</asrwt>
<pdfrwt beam="1">  1       21 0.65751487E-01 0.18582620E+03</pdfrwt>
<pdfrwt beam="2">  1       21 0.12912229E-01 0.18582620E+03</pdfrwt>
<totfact> 0.10964969E+05</totfact>
</mgrwt>
</event>
<event>
 4    1  0.4072310E+000  0.1884914E+03  0.7546771E-02  0.1159829E+00
         21   -1    0    0  501  502  0.00000000000E+00  0.00000000000E+00  0.39699986800E+03  0.39699986800E+03  0.00000000000E+00 0.  1.
         21   -1    0    0  502  503 -0.00000000000E+00 -0.00000000000E+00 -0.16593759962E+03  0.16593759962E+03  0.00000000000E+00 0.  1.
          6    1    1    2  501    0  0.29285210795E+02 -0.68865038407E+02  0.30657317983E+03  0.35988349737E+03  0.17300000000E+03 0.  1.
         -6    1    1    2    0  503 -0.29285210795E+02  0.68865038407E+02 -0.75510911453E+02  0.20305397025E+03  0.17300000000E+03 0.  1.
<mgrwt>
<rscale>  2 0.18849142E+03</rscale>
<asrwt>0</asrwt>
<pdfrwt beam="1">  1       21 0.61076902E-01 0.18849142E+03</pdfrwt>
<pdfrwt beam="2">  1       21 0.25528862E-01 0.18849142E+03</pdfrwt>
<totfact> 0.36371759E+04</totfact>
</mgrwt>
</event>
<event>
 4    1  0.4072310E+000  0.1893175E+03  0.7546771E-02  0.1159078E+00
         21   -1    0    0  503  502  0.00000000000E+00  0.00000000000E+00  0.13682426188E+03  0.13682426188E+03  0.00000000000E+00 0.  1.
         21   -1    0    0  501  503 -0.00000000000E+00 -0.00000000000E+00 -0.57766774586E+03  0.57766774586E+03  0.00000000000E+00 0.  1.
          6    1    1    2  501    0 -0.23288944614E+02 -0.73278439957E+02 -0.48452750032E+03  0.52019996470E+03  0.17300000000E+03 0.  1.
         -6    1    1    2    0  502  0.23288944614E+02  0.73278439957E+02  0.43684016340E+02  0.19429204304E+03  0.17300000000E+03 0.  1.
<mgrwt>
<rscale>  2 0.18931747E+03</rscale>
<asrwt>0</asrwt>
<pdfrwt beam="1">  1       21 0.21049887E-01 0.18931747E+03</pdfrwt>
<pdfrwt beam="2">  1       21 0.88871959E-01 0.18931747E+03</pdfrwt>
<totfact> 0.22732204E+04</totfact>
</mgrwt>
</event>
<event>
 4    1  0.4072310E+000  0.2256336E+03  0.7546771E-02  0.1129751E+00
         21   -1    0    0  501  502  0.00000000000E+00  0.00000000000E+00  0.15658714360E+03  0.15658714360E+03  0.00000000000E+00 0. -1.
         21   -1    0    0  502  503 -0.00000000000E+00 -0.00000000000E+00 -0.36679083455E+03  0.36679083455E+03  0.00000000000E+00 0. -1.
          6    1    1    2  501    0 -0.94972160970E+02  0.10937007802E+03 -0.16903199278E+02  0.22626586899E+03  0.17300000000E+03 0. -1.
         -6    1    1    2    0  503  0.94972160970E+02 -0.10937007802E+03 -0.19330049167E+03  0.29711210915E+03  0.17300000000E+03 0. -1.
<mgrwt>
<rscale>  2 0.22563361E+03</rscale>
<asrwt>0</asrwt>
<pdfrwt beam="1">  1       21 0.24090330E-01 0.22563361E+03</pdfrwt>
<pdfrwt beam="2">  1       21 0.56429358E-01 0.22563361E+03</pdfrwt>
<totfact> 0.47269753E+04</totfact>
</mgrwt>
</event>
<event>
 4    1  0.4072310E+000  0.1756258E+03  0.7546771E-02  0.1172105E+00
         21   -1    0    0  503  502  0.00000000000E+00  0.00000000000E+00  0.52303140747E+03  0.52303140747E+03  0.00000000000E+00 0. -1.
         21   -1    0    0  501  503 -0.00000000000E+00 -0.00000000000E+00 -0.66870268900E+02  0.66870268900E+02  0.00000000000E+00 0. -1.
          6    1    1    2  501    0  0.18368139225E+02 -0.24042027256E+02  0.12671544127E+03  0.21656687344E+03  0.17300000000E+03 0. -1.
         -6    1    1    2    0  502 -0.18368139225E+02  0.24042027256E+02  0.32944569730E+03  0.37333480293E+03  0.17300000000E+03 0. -1.
<mgrwt>
<rscale>  2 0.17562576E+03</rscale>
<asrwt>0</asrwt>
<pdfrwt beam="1">  1       21 0.80466368E-01 0.17562576E+03</pdfrwt>
<pdfrwt beam="2">  1       21 0.10287734E-01 0.17562576E+03</pdfrwt>
<totfact> 0.10545670E+05</totfact>
</mgrwt>
</event>
<event>
 4    1  0.4072310E+000  0.2485612E+03  0.7546771E-02  0.1114217E+00
         21   -1    0    0  503  502  0.00000000000E+00  0.00000000000E+00  0.19052754812E+03  0.19052754812E+03  0.00000000000E+00 0.  1.
         21   -1    0    0  501  503 -0.00000000000E+00 -0.00000000000E+00 -0.40748748100E+03  0.40748748100E+03  0.00000000000E+00 0. -1.
          6    1    1    2  501    0  0.15629604974E+03  0.86169797435E+02 -0.24360252260E+03  0.34802999608E+03  0.17300000000E+03 0. -1.
         -6    1    1    2    0  502 -0.15629604974E+03 -0.86169797435E+02  0.26642589719E+02  0.24998503303E+03  0.17300000000E+03 0.  1.
<mgrwt>
<rscale>  2 0.24856124E+03</rscale>
<asrwt>0</asrwt>
<pdfrwt beam="1">  1       21 0.29311931E-01 0.24856124E+03</pdfrwt>
<pdfrwt beam="2">  1       21 0.62690381E-01 0.24856124E+03</pdfrwt>
<totfact> 0.25526367E+04</totfact>
</mgrwt>
</event>
<event>
 4    1  0.4072310E+000  0.2391750E+03  0.7546771E-02  0.1120344E+00
         21   -1    0    0  503  502  0.00000000000E+00  0.00000000000E+00  0.57091727275E+02  0.57091727275E+02  0.00000000000E+00 0.  1.
         21   -1    0    0  501  503 -0.00000000000E+00 -0.00000000000E+00 -0.10082864469E+04  0.10082864469E+04  0.00000000000E+00 0.  1.
          6    1    1    2  501    0 -0.16446689499E+03 -0.15043562619E+02 -0.51773156949E+03  0.57030750159E+03  0.17300000000E+03 0.  1.
         -6    1    1    2    0  502  0.16446689499E+03  0.15043562619E+02 -0.43346315012E+03  0.49507067257E+03  0.17300000000E+03 0.  1.
<mgrwt>
<rscale>  2 0.23917497E+03</rscale>
<asrwt>0</asrwt>
<pdfrwt beam="1">  1       21 0.87833434E-02 0.23917497E+03</pdfrwt>
<pdfrwt beam="2">  1       21 0.15512098E+00 0.23917497E+03</pdfrwt>
<totfact> 0.27113534E+04</totfact>
</mgrwt>
</event>
<event>
 4    1  0.4072310E+000  0.2124889E+03  0.7546771E-02  0.1139610E+00
         21   -1    0    0  503  502  0.00000000000E+00  0.00000000000E+00  0.19322630907E+03  0.19322630907E+03  0.00000000000E+00 0.  1.
         21   -1    0    0  501  503 -0.00000000000E+00 -0.00000000000E+00 -0.67530968300E+03  0.67530968300E+03  0.00000000000E+00 0. -1.
          6    1    1    2  501    0  0.11915139133E+03 -0.32022821523E+02 -0.59222959794E+03  0.62919584537E+03  0.17300000000E+03 0. -1.
         -6    1    1    2    0  502 -0.11915139133E+03  0.32022821523E+02  0.11014622401E+03  0.23934014669E+03  0.17300000000E+03 0.  1.
<mgrwt>
<rscale>  2 0.21248886E+03</rscale>
<asrwt>0</asrwt>
<pdfrwt beam="1">  1       21 0.29727124E-01 0.21248886E+03</pdfrwt>
<pdfrwt beam="2">  1       21 0.10389380E+00 0.21248886E+03</pdfrwt>
<totfact> 0.80136781E+03</totfact>
</mgrwt>
</event>
<event>
 4    1  0.4072310E+000  0.1914959E+03  0.7546771E-02  0.1157119E+00
         21   -1    0    0  501  502  0.00000000000E+00  0.00000000000E+00  0.12124446103E+03  0.12124446103E+03  0.00000000000E+00 0. -1.
         21   -1    0    0  502  503 -0.00000000000E+00 -0.00000000000E+00 -0.44859686852E+03  0.44859686852E+03  0.00000000000E+00 0. -1.
          6    1    1    2  501    0  0.79479760162E+02  0.20606629547E+02 -0.10512531015E+01  0.19149874827E+03  0.17300000000E+03 0. -1.
         -6    1    1    2    0  503 -0.79479760162E+02 -0.20606629547E+02 -0.32630115438E+03  0.37834258128E+03  0.17300000000E+03 0. -1.
<mgrwt>
<rscale>  2 0.19149586E+03</rscale>
<asrwt>0</asrwt>
<pdfrwt beam="1">  1       21 0.18652994E-01 0.19149586E+03</pdfrwt>
<pdfrwt beam="2">  1       21 0.69014904E-01 0.19149586E+03</pdfrwt>
<totfact> 0.50273368E+04</totfact>
</mgrwt>
</event>
<event>
 4    1  0.4072310E+000  0.2681700E+03  0.7546771E-02  0.1102332E+00
         21   -1    0    0  501  502  0.00000000000E+00  0.00000000000E+00  0.23836278122E+04  0.23836278122E+04  0.00000000000E+00 0.  1.
         21   -1    0    0  502  503 -0.00000000000E+00 -0.00000000000E+00 -0.41790232301E+02  0.41790232301E+02  0.00000000000E+00 0. -1.
          6    1    1    2  501    0 -0.19837305697E+03  0.51325437663E+02  0.18103853619E+04  0.18301394288E+04  0.17300000000E+03 0. -1.
         -6    1    1    2    0  503  0.19837305697E+03 -0.51325437663E+02  0.53145221794E+03  0.59527861564E+03  0.17300000000E+03 0.  1.
<mgrwt>
<rscale>  2 0.26817004E+03</rscale>
<asrwt>0</asrwt>
<pdfrwt beam="1">  1       21 0.36671186E+00 0.26817004E+03</pdfrwt>
<pdfrwt beam="2">  1       21 0.64292684E-02 0.26817004E+03</pdfrwt>
<totfact> 0.22290640E+03</totfact>
</mgrwt>
</event>
<event>
 4    1  0.4072310E+000  0.3719088E+03  0.7546771E-02  0.1053965E+00
         21   -1    0    0  503  502  0.00000000000E+00  0.00000000000E+00  0.18979937622E+03  0.18979937622E+03  0.00000000000E+00 0. -1.
         21   -1    0    0  501  503 -0.00000000000E+00 -0.00000000000E+00 -0.82280479413E+03  0.82280479413E+03  0.00000000000E+00 0.  1.
          6    1    1    2  501    0 -0.29188270728E+03 -0.15228793954E+03 -0.48768300527E+03  0.61331137684E+03  0.17300000000E+03 0.  1.
         -6    1    1    2    0  502  0.29188270728E+03  0.15228793954E+03 -0.14532241263E+03  0.39929279351E+03  0.17300000000E+03 0. -1.
<mgrwt>
<rscale>  2 0.37190877E+03</rscale>
<asrwt>0</asrwt>
<pdfrwt beam="1">  1       21 0.29199904E-01 0.37190877E+03</pdfrwt>
<pdfrwt beam="2">  1       21 0.12658535E+00 0.37190877E+03</pdfrwt>
<totfact> 0.46720134E+03</totfact>
</mgrwt>
</event>
<event>
 4    1  0.4072310E+000  0.1832068E+03  0.7546771E-02  0.1164735E+00
         21   -1    0    0  503  502  0.00000000000E+00  0.00000000000E+00  0.96111437264E+03  0.96111437264E+03  0.00000000000E+00 0. -1.
         21   -1    0    0  501  503 -0.00000000000E+00 -0.00000000000E+00 -0.36378017005E+02  0.36378017005E+02  0.00000000000E+00 0. -1.
          6    1    1    2  501    0 -0.51799052780E+02 -0.30863804372E+02  0.36261247343E+03  0.40626656542E+03  0.17300000000E+03 0. -1.
         -6    1    1    2    0  502  0.51799052780E+02  0.30863804372E+02  0.56212388220E+03  0.59122582422E+03  0.17300000000E+03 0. -1.
<mgrwt>
<rscale>  2 0.18320676E+03</rscale>
<asrwt>0</asrwt>
<pdfrwt beam="1">  1       21 0.14786373E+00 0.18320676E+03</pdfrwt>
<pdfrwt beam="2">  1       21 0.55966187E-02 0.18320676E+03</pdfrwt>
<totfact> 0.69263779E+04</totfact>
</mgrwt>
</event>
<event>
 4    1  0.4072310E+000  0.2234974E+03  0.7546771E-02  0.1131302E+00
         21   -1    0    0  503  502  0.00000000000E+00  0.00000000000E+00  0.12348196018E+04  0.12348196018E+04  0.00000000000E+00 0. -1.
         21   -1    0    0  501  503 -0.00000000000E+00 -0.00000000000E+00 -0.14070343030E+03  0.14070343030E+03  0.00000000000E+00 0. -1.
          6    1    1    2  501    0 -0.20991820647E+02  0.13993361099E+03 -0.33479783783E+02  0.22599107934E+03  0.17300000000E+03 0. -1.
         -6    1    1    2    0  502  0.20991820647E+02 -0.13993361099E+03  0.11275959553E+04  0.11495319528E+04  0.17300000000E+03 0. -1.
<mgrwt>
<rscale>  2 0.22349736E+03</rscale>
<asrwt>0</asrwt>
<pdfrwt beam="1">  1       21 0.18997224E+00 0.22349736E+03</pdfrwt>
<pdfrwt beam="2">  1       21 0.21646682E-01 0.22349736E+03</pdfrwt>
<totfact> 0.30182534E+03</totfact>
</mgrwt>
</event>
<event>
 4    1  0.4072310E+000  0.2463873E+03  0.7546771E-02  0.1115609E+00
         21   -1    0    0  503  502  0.00000000000E+00  0.00000000000E+00  0.86438935782E+02  0.86438935782E+02  0.00000000000E+00 0.  1.
         21   -1    0    0  501  503 -0.00000000000E+00 -0.00000000000E+00 -0.81578556926E+03  0.81578556926E+03  0.00000000000E+00 0. -1.
          6    1    1    2  501    0  0.16475933899E+03 -0.60266770759E+02 -0.53292226152E+03  0.58712252577E+03  0.17300000000E+03 0. -1.
         -6    1    1    2    0  502 -0.16475933899E+03  0.60266770759E+02 -0.19642437196E+03  0.31510197927E+03  0.17300000000E+03 0.  1.
<mgrwt>
<rscale>  2 0.24638734E+03</rscale>
<asrwt>0</asrwt>
<pdfrwt beam="1">  1       21 0.13298297E-01 0.24638734E+03</pdfrwt>
<pdfrwt beam="2">  1       21 0.12550548E+00 0.24638734E+03</pdfrwt>
<totfact> 0.22338458E+04</totfact>
</mgrwt>
</event>
<event>
 4    1  0.4072310E+000  0.1911226E+03  0.7546771E-02  0.1157453E+00
         21   -1    0    0  501  502  0.00000000000E+00  0.00000000000E+00  0.23445749074E+03  0.23445749074E+03  0.00000000000E+00 0.  1.
         21   -1    0    0  502  503 -0.00000000000E+00 -0.00000000000E+00 -0.21895286376E+03  0.21895286376E+03  0.00000000000E+00 0.  1.
          6    1    1    2  501    0  0.64160670614E+02  0.49822159434E+02  0.12950877041E+03  0.23086870909E+03  0.17300000000E+03 0.  1.
         -6    1    1    2    0  503 -0.64160670614E+02 -0.49822159434E+02 -0.11400414343E+03  0.22254164541E+03  0.17300000000E+03 0.  1.
<mgrwt>
<rscale>  2 0.19112258E+03</rscale>
<asrwt>0</asrwt>
<pdfrwt beam="1">  1       21 0.36070383E-01 0.19112258E+03</pdfrwt>
<pdfrwt beam="2">  1       21 0.33685056E-01 0.19112258E+03</pdfrwt>
<totfact> 0.62966085E+04</totfact>
</mgrwt>
</event>
<event>
 4    1  0.4072310E+000  0.2252939E+03  0.7546771E-02  0.1129997E+00
         21   -1    0    0  503  502  0.00000000000E+00  0.00000000000E+00  0.39427287099E+03  0.39427287099E+03  0.00000000000E+00 0.  1.
         21   -1    0    0  501  503 -0.00000000000E+00 -0.00000000000E+00 -0.23262929705E+03  0.23262929705E+03  0.00000000000E+00 0.  1.
          6    1    1    2  501    0 -0.12845723261E+03 -0.65780656715E+02 -0.12865217533E+03  0.25943927541E+03  0.17300000000E+03 0.  1.
         -6    1    1    2    0  502  0.12845723261E+03  0.65780656715E+02  0.29029574927E+03  0.36746289262E+03  0.17300000000E+03 0.  1.
<mgrwt>
<rscale>  2 0.22529393E+03</rscale>
<asrwt>0</asrwt>
<pdfrwt beam="1">  1       21 0.60657365E-01 0.22529393E+03</pdfrwt>
<pdfrwt beam="2">  1       21 0.35789123E-01 0.22529393E+03</pdfrwt>
<totfact> 0.18695140E+04</totfact>
</mgrwt>
</event>
<event>
 4    1  0.4072310E+000  0.1825753E+03  0.7546771E-02  0.1165334E+00
         21   -1    0    0  501  502  0.00000000000E+00  0.00000000000E+00  0.77337774755E+02  0.77337774755E+02  0.00000000000E+00 0. -1.
         21   -1    0    0  502  503 -0.00000000000E+00 -0.00000000000E+00 -0.59704904654E+03  0.59704904654E+03  0.00000000000E+00 0. -1.
          6    1    1    2  501    0  0.40326782327E+02  0.42172149485E+02 -0.82038883180E+02  0.20016023061E+03  0.17300000000E+03 0. -1.
         -6    1    1    2    0  503 -0.40326782327E+02 -0.42172149485E+02 -0.43767238861E+03  0.47422659069E+03  0.17300000000E+03 0. -1.
<mgrwt>
<rscale>  2 0.18257530E+03</rscale>
<asrwt>0</asrwt>
<pdfrwt beam="1">  1       21 0.11898118E-01 0.18257530E+03</pdfrwt>
<pdfrwt beam="2">  1       21 0.91853705E-01 0.18257530E+03</pdfrwt>
<totfact> 0.59988245E+04</totfact>
</mgrwt>
</event>
<event>
 4    1  0.4072310E+000  0.1762404E+03  0.7546771E-02  0.1171492E+00
         21   -1    0    0  503  502  0.00000000000E+00  0.00000000000E+00  0.29199482732E+03  0.29199482732E+03  0.00000000000E+00 0. -1.
         21   -1    0    0  501  503 -0.00000000000E+00 -0.00000000000E+00 -0.12327558420E+03  0.12327558420E+03  0.00000000000E+00 0. -1.
          6    1    1    2  501    0  0.31742296232E+02 -0.11139474001E+02  0.74773846109E+01  0.17639890173E+03  0.17300000000E+03 0. -1.
         -6    1    1    2    0  502 -0.31742296232E+02  0.11139474001E+02  0.16124185851E+03  0.23887150979E+03  0.17300000000E+03 0. -1.
<mgrwt>
<rscale>  2 0.17624035E+03</rscale>
<asrwt>0</asrwt>
<pdfrwt beam="1">  1       21 0.44922281E-01 0.17624035E+03</pdfrwt>
<pdfrwt beam="2">  1       21 0.18965475E-01 0.17624035E+03</pdfrwt>
<totfact> 0.12189601E+05</totfact>
</mgrwt>
</event>
<event>
 4    1  0.4072310E+000  0.1763175E+03  0.7546771E-02  0.1171415E+00
         21   -1    0    0  501  502  0.00000000000E+00  0.00000000000E+00  0.62397805425E+03  0.62397805425E+03  0.00000000000E+00 0.  1.
         21   -1    0    0  502  503 -0.00000000000E+00 -0.00000000000E+00 -0.81588325040E+02  0.81588325040E+02  0.00000000000E+00 0.  1.
          6    1    1    2  501    0  0.26025820681E+02 -0.21943899383E+02  0.49132367448E+03  0.52200271184E+03  0.17300000000E+03 0.  1.
         -6    1    1    2    0  503 -0.26025820681E+02  0.21943899383E+02  0.51066054729E+02  0.18356366745E+03  0.17300000000E+03 0.  1.
<mgrwt>
<rscale>  2 0.17631755E+03</rscale>
<asrwt>0</asrwt>
<pdfrwt beam="1">  1       21 0.95996621E-01 0.17631755E+03</pdfrwt>
<pdfrwt beam="2">  1       21 0.12552050E-01 0.17631755E+03</pdfrwt>
<totfact> 0.49341192E+04</totfact>
</mgrwt>
</event>
<event>
 4    1  0.4072310E+000  0.1737854E+03  0.7546771E-02  0.1173957E+00
         21   -1    0    0  503  502  0.00000000000E+00  0.00000000000E+00  0.58647352382E+03  0.58647352382E+03  0.00000000000E+00 0.  1.
         21   -1    0    0  501  503 -0.00000000000E+00 -0.00000000000E+00 -0.53775236551E+02  0.53775236551E+02  0.00000000000E+00 0.  1.
          6    1    1    2  501    0 -0.34739005173E+01  0.16134071785E+02  0.20045182408E+03  0.26529664535E+03  0.17300000000E+03 0.  1.
         -6    1    1    2    0  502  0.34739005173E+01 -0.16134071785E+02  0.33224646319E+03  0.37495211502E+03  0.17300000000E+03 0.  1.
<mgrwt>
<rscale>  2 0.17378543E+03</rscale>
<asrwt>0</asrwt>
<pdfrwt beam="1">  1       21 0.90226692E-01 0.17378543E+03</pdfrwt>
<pdfrwt beam="2">  1       21 0.82731137E-02 0.17378543E+03</pdfrwt>
<totfact> 0.11907985E+05</totfact>
</mgrwt>
</event>
<event>
 4    1  0.4072310E+000  0.2308956E+03  0.7546771E-02  0.1126011E+00
         21   -1    0    0  503  502  0.00000000000E+00  0.00000000000E+00  0.57968814138E+03  0.57968814138E+03  0.00000000000E+00 0.  1.
         21   -1    0    0  501  503 -0.00000000000E+00 -0.00000000000E+00 -0.10868174293E+03  0.10868174293E+03  0.00000000000E+00 0. -1.
          6    1    1    2  501    0  0.15025066566E+03 -0.28434011573E+02  0.10052907907E+03  0.25183099746E+03  0.17300000000E+03 0.  1.
         -6    1    1    2    0  502 -0.15025066566E+03  0.28434011573E+02  0.37047731939E+03  0.43653888684E+03  0.17300000000E+03 0.  1.
<mgrwt>
<rscale>  2 0.23089555E+03</rscale>
<asrwt>0</asrwt>
<pdfrwt beam="1">  1       21 0.89182789E-01 0.23089555E+03</pdfrwt>
<pdfrwt beam="2">  1       21 0.16720268E-01 0.23089555E+03</pdfrwt>
<totfact> 0.33826749E+04</totfact>
</mgrwt>
</event>
<event>
 4    1  0.4072310E+000  0.1965089E+03  0.7546771E-02  0.1152718E+00
         21   -1    0    0  501  502  0.00000000000E+00  0.00000000000E+00  0.15314911269E+03  0.15314911269E+03  0.00000000000E+00 0. -1.
         21   -1    0    0  502  503 -0.00000000000E+00 -0.00000000000E+00 -0.34887025236E+03  0.34887025236E+03  0.00000000000E+00 0. -1.
          6    1    1    2  501    0 -0.17619731818E+02 -0.91522002011E+02  0.34308304518E+02  0.19948130629E+03  0.17300000000E+03 0. -1.
         -6    1    1    2    0  503  0.17619731818E+02  0.91522002011E+02 -0.23002944419E+03  0.30253805876E+03  0.17300000000E+03 0. -1.
<mgrwt>
<rscale>  2 0.19650886E+03</rscale>
<asrwt>0</asrwt>
<pdfrwt beam="1">  1       21 0.23561402E-01 0.19650886E+03</pdfrwt>
<pdfrwt beam="2">  1       21 0.53672346E-01 0.19650886E+03</pdfrwt>
<totfact> 0.55586725E+04</totfact>
</mgrwt>
</event>
<event>
 4    1  0.4072310E+000  0.2065813E+03  0.7546771E-02  0.1144302E+00
         21   -1    0    0  503  502  0.00000000000E+00  0.00000000000E+00  0.42121090278E+03  0.42121090278E+03  0.00000000000E+00 0. -1.
         21   -1    0    0  501  503 -0.00000000000E+00 -0.00000000000E+00 -0.10245167559E+03  0.10245167559E+03  0.00000000000E+00 0.  1.
          6    1    1    2  501    0 -0.24279467050E+02  0.11026035438E+03  0.13182515673E+03  0.24505858527E+03  0.17300000000E+03 0.  1.
         -6    1    1    2    0  502  0.24279467050E+02 -0.11026035438E+03  0.18693407046E+03  0.27860399309E+03  0.17300000000E+03 0.  1.
<mgrwt>
<rscale>  2 0.20658131E+03</rscale>
<asrwt>0</asrwt>
<pdfrwt beam="1">  1       21 0.64801676E-01 0.20658131E+03</pdfrwt>
<pdfrwt beam="2">  1       21 0.15761797E-01 0.20658131E+03</pdfrwt>
<totfact> 0.78151586E+04</totfact>
</mgrwt>
</event>
<event>
 4    1  0.4072310E+000  0.2226381E+03  0.7546771E-02  0.1131931E+00
         21   -1    0    0  501  502  0.00000000000E+00  0.00000000000E+00  0.73712115648E+02  0.73712115648E+02  0.00000000000E+00 0. -1.
         21   -1    0    0  502  503 -0.00000000000E+00 -0.00000000000E+00 -0.67343832186E+03  0.67343832186E+03  0.00000000000E+00 0.  1.
          6    1    1    2  501    0  0.83558423177E+02  0.11250197025E+03 -0.28555096561E+03  0.36208708531E+03  0.17300000000E+03 0.  1.
         -6    1    1    2    0  503 -0.83558423177E+02 -0.11250197025E+03 -0.31417524060E+03  0.38506335219E+03  0.17300000000E+03 0. -1.
<mgrwt>
<rscale>  2 0.22263805E+03</rscale>
<asrwt>0</asrwt>
<pdfrwt beam="1">  1       21 0.11340326E-01 0.22263805E+03</pdfrwt>
<pdfrwt beam="2">  1       21 0.10360589E+00 0.22263805E+03</pdfrwt>
<totfact> 0.48239848E+04</totfact>
</mgrwt>
</event>
<event>
 4    1  0.4072310E+000  0.2258660E+03  0.7546771E-02  0.1129584E+00
         21   -1    0    0  501  502  0.00000000000E+00  0.00000000000E+00  0.14556535643E+03  0.14556535643E+03  0.00000000000E+00 0.  1.
         21   -1    0    0  502  503 -0.00000000000E+00 -0.00000000000E+00 -0.35574495670E+03  0.35574495670E+03  0.00000000000E+00 0. -1.
          6    1    1    2  501    0 -0.10005116384E+03  0.10524367130E+03 -0.74551150809E+02  0.23785150792E+03  0.17300000000E+03 0.  1.
         -6    1    1    2    0  503  0.10005116384E+03 -0.10524367130E+03 -0.13562844946E+03  0.26345880520E+03  0.17300000000E+03 0. -1.
<mgrwt>
<rscale>  2 0.22586603E+03</rscale>
<asrwt>0</asrwt>
<pdfrwt beam="1">  1       21 0.22394671E-01 0.22586603E+03</pdfrwt>
<pdfrwt beam="2">  1       21 0.54729992E-01 0.22586603E+03</pdfrwt>
<totfact> 0.57954528E+04</totfact>
</mgrwt>
</event>
<event>
 4    1  0.4072310E+000  0.2655654E+03  0.7546771E-02  0.1103845E+00
         21   -1    0    0  501  502  0.00000000000E+00  0.00000000000E+00  0.76687065420E+03  0.76687065420E+03  0.00000000000E+00 0. -1.
         21   -1    0    0  502  503 -0.00000000000E+00 -0.00000000000E+00 -0.20562449561E+03  0.20562449561E+03  0.00000000000E+00 0.  1.
          6    1    1    2  501    0  0.64049701128E+02 -0.19103295971E+03  0.64213584898E+03  0.69488373449E+03  0.17300000000E+03 0. -1.
         -6    1    1    2    0  503 -0.64049701128E+02  0.19103295971E+03 -0.80889690392E+02  0.27761141533E+03  0.17300000000E+03 0.  1.
<mgrwt>
<rscale>  2 0.26556535E+03</rscale>
<asrwt>0</asrwt>
<pdfrwt beam="1">  1       21 0.11798010E+00 0.26556535E+03</pdfrwt>
<pdfrwt beam="2">  1       21 0.31634538E-01 0.26556535E+03</pdfrwt>
<totfact> 0.50269399E+03</totfact>
</mgrwt>
</event>
<event>
 4    1  0.4072310E+000  0.2880991E+03  0.7546771E-02  0.1091346E+00
         21   -1    0    0  503  502  0.00000000000E+00  0.00000000000E+00  0.12065726860E+04  0.12065726860E+04  0.00000000000E+00 0. -1.
         21   -1    0    0  501  503 -0.00000000000E+00 -0.00000000000E+00 -0.11233521932E+03  0.11233521932E+03  0.00000000000E+00 0.  1.
          6    1    1    2  501    0 -0.20281698689E+03  0.10925836273E+03  0.13654356714E+03  0.31881854671E+03  0.17300000000E+03 0.  1.
         -6    1    1    2    0  502  0.20281698689E+03 -0.10925836273E+03  0.95769389951E+03  0.10000893586E+04  0.17300000000E+03 0. -1.
<mgrwt>
<rscale>  2 0.28809915E+03</rscale>
<asrwt>0</asrwt>
<pdfrwt beam="1">  1       21 0.18562656E+00 0.28809915E+03</pdfrwt>
<pdfrwt beam="2">  1       21 0.17282342E-01 0.28809915E+03</pdfrwt>
<totfact> 0.46977423E+03</totfact>
</mgrwt>
</event>
<event>
 4    1  0.4072310E+000  0.3087770E+03  0.7546771E-02  0.1080934E+00
         21   -1    0    0  501  502  0.00000000000E+00  0.00000000000E+00  0.38410333883E+03  0.38410333883E+03  0.00000000000E+00 0. -1.
         21   -1    0    0  502  503 -0.00000000000E+00 -0.00000000000E+00 -0.27483655117E+03  0.27483655117E+03  0.00000000000E+00 0. -1.
          6    1    1    2  501    0  0.25155401355E+03 -0.46203796617E+02  0.15715879340E+03  0.34647092071E+03  0.17300000000E+03 0. -1.
         -6    1    1    2    0  503 -0.25155401355E+03  0.46203796617E+02 -0.47892005737E+02  0.31246896929E+03  0.17300000000E+03 0. -1.
<mgrwt>
<rscale>  2 0.30877696E+03</rscale>
<asrwt>0</asrwt>
<pdfrwt beam="1">  1       21 0.59092821E-01 0.30877696E+03</pdfrwt>
<pdfrwt beam="2">  1       21 0.42282546E-01 0.30877696E+03</pdfrwt>
<totfact> 0.13560647E+04</totfact>
</mgrwt>
</event>
<event>
 4    1  0.4072310E+000  0.3660112E+03  0.7546771E-02  0.1056229E+00
         21   -1    0    0  501  502  0.00000000000E+00  0.00000000000E+00  0.69426824656E+02  0.69426824656E+02  0.00000000000E+00 0.  1.
         21   -1    0    0  502  503 -0.00000000000E+00 -0.00000000000E+00 -0.19502648793E+04  0.19502648793E+04  0.00000000000E+00 0. -1.
          6    1    1    2  501    0  0.23459157231E+03  0.22136398646E+03 -0.83640448820E+03  0.91298230442E+03  0.17300000000E+03 0. -1.
         -6    1    1    2    0  503 -0.23459157231E+03 -0.22136398646E+03 -0.10444335664E+04  0.11067093995E+04  0.17300000000E+03 0.  1.
<mgrwt>
<rscale>  2 0.36601123E+03</rscale>
<asrwt>0</asrwt>
<pdfrwt beam="1">  1       21 0.10681050E-01 0.36601123E+03</pdfrwt>
<pdfrwt beam="2">  1       21 0.30004075E+00 0.36601123E+03</pdfrwt>
<totfact> 0.21134120E+03</totfact>
</mgrwt>
</event>
<event>
 4    1  0.4072310E+000  0.1973773E+03  0.7546771E-02  0.1151971E+00
         21   -1    0    0  501  502  0.00000000000E+00  0.00000000000E+00  0.82043637441E+02  0.82043637441E+02  0.00000000000E+00 0.  1.
         21   -1    0    0  502  503 -0.00000000000E+00 -0.00000000000E+00 -0.47615489039E+03  0.47615489039E+03  0.00000000000E+00 0.  1.
          6    1    1    2  501    0  0.60365752305E+01  0.94828025763E+02 -0.21170903560E+03  0.28944517696E+03  0.17300000000E+03 0.  1.
         -6    1    1    2    0  503 -0.60365752305E+01 -0.94828025763E+02 -0.18240221735E+03  0.26875335087E+03  0.17300000000E+03 0.  1.
<mgrwt>
<rscale>  2 0.19737729E+03</rscale>
<asrwt>0</asrwt>
<pdfrwt beam="1">  1       21 0.12622098E-01 0.19737729E+03</pdfrwt>
<pdfrwt beam="2">  1       21 0.73254600E-01 0.19737729E+03</pdfrwt>
<totfact> 0.89629648E+04</totfact>
</mgrwt>
</event>
<event>
 4    1  0.4072310E+000  0.2334108E+03  0.7546771E-02  0.1124262E+00
         21   -1    0    0  503  502  0.00000000000E+00  0.00000000000E+00  0.48624180349E+03  0.48624180349E+03  0.00000000000E+00 0. -1.
         21   -1    0    0  501  503 -0.00000000000E+00 -0.00000000000E+00 -0.11895156416E+03  0.11895156416E+03  0.00000000000E+00 0.  1.
          6    1    1    2  501    0  0.74781112319E+02 -0.13769307583E+03  0.11072729404E+03  0.25834305010E+03  0.17300000000E+03 0.  1.
         -6    1    1    2    0  502 -0.74781112319E+02  0.13769307583E+03  0.25656294528E+03  0.34685031754E+03  0.17300000000E+03 0. -1.
<mgrwt>
<rscale>  2 0.23341079E+03</rscale>
<asrwt>0</asrwt>
<pdfrwt beam="1">  1       21 0.74806430E-01 0.23341079E+03</pdfrwt>
<pdfrwt beam="2">  1       21 0.18300241E-01 0.23341079E+03</pdfrwt>
<totfact> 0.42687216E+04</totfact>
</mgrwt>
</event>
<event>
 4    1  0.4072310E+000  0.2030928E+03  0.7546771E-02  0.1147156E+00
         21   -1    0    0  501  502  0.00000000000E+00  0.00000000000E+00  0.10977893701E+03  0.10977893701E+03  0.00000000000E+00 0.  1.
         21   -1    0    0  502  503 -0.00000000000E+00 -0.00000000000E+00 -0.46107669459E+03  0.46107669459E+03  0.00000000000E+00 0.  1.
          6    1    1    2  501    0  0.78478994572E+02  0.71824281100E+02 -0.52843881081E+02  0.20985508265E+03  0.17300000000E+03 0.  1.
         -6    1    1    2    0  503 -0.78478994572E+02 -0.71824281100E+02 -0.29845387650E+03  0.36100054895E+03  0.17300000000E+03 0.  1.
<mgrwt>
<rscale>  2 0.20309279E+03</rscale>
<asrwt>0</asrwt>
<pdfrwt beam="1">  1       21 0.16889067E-01 0.20309279E+03</pdfrwt>
<pdfrwt beam="2">  1       21 0.70934875E-01 0.20309279E+03</pdfrwt>
<totfact> 0.56532407E+04</totfact>
</mgrwt>
</event>
<event>
 4    1  0.4072310E+000  0.1958750E+03  0.7546771E-02  0.1153267E+00
         21   -1    0    0  501  502  0.00000000000E+00  0.00000000000E+00  0.47024071273E+03  0.47024071273E+03  0.00000000000E+00 0. -1.
         21   -1    0    0  502  503 -0.00000000000E+00 -0.00000000000E+00 -0.86122936798E+02  0.86122936798E+02  0.00000000000E+00 0.  1.
          6    1    1    2  501    0 -0.79869974468E+02 -0.45373840105E+02  0.25587836118E+03  0.32224328373E+03  0.17300000000E+03 0. -1.
         -6    1    1    2    0  503  0.79869974468E+02  0.45373840105E+02  0.12823941476E+03  0.23412036580E+03  0.17300000000E+03 0.  1.
<mgrwt>
<rscale>  2 0.19587496E+03</rscale>
<asrwt>0</asrwt>
<pdfrwt beam="1">  1       21 0.72344724E-01 0.19587496E+03</pdfrwt>
<pdfrwt beam="2">  1       21 0.13249683E-01 0.19587496E+03</pdfrwt>
<totfact> 0.84500555E+04</totfact>
</mgrwt>
</event>
<event>
 4    1  0.4072310E+000  0.2105559E+03  0.7546771E-02  0.1141127E+00
         21   -1    0    0  503  502  0.00000000000E+00  0.00000000000E+00  0.81649380314E+03  0.81649380314E+03  0.00000000000E+00 0. -1.
         21   -1    0    0  501  503 -0.00000000000E+00 -0.00000000000E+00 -0.61243510287E+02  0.61243510287E+02  0.00000000000E+00 0. -1.
          6    1    1    2  501    0 -0.10888380318E+03  0.50488809639E+02  0.22982889335E+03  0.31169716507E+03  0.17300000000E+03 0. -1.
         -6    1    1    2    0  502  0.10888380318E+03 -0.50488809639E+02  0.52542139950E+03  0.56604014836E+03  0.17300000000E+03 0. -1.
<mgrwt>
<rscale>  2 0.21055594E+03</rscale>
<asrwt>0</asrwt>
<pdfrwt beam="1">  1       21 0.12561442E+00 0.21055594E+03</pdfrwt>
<pdfrwt beam="2">  1       21 0.94220791E-02 0.21055594E+03</pdfrwt>
<totfact> 0.42050327E+04</totfact>
</mgrwt>
</event>
<event>
 4    1  0.4072310E+000  0.1946114E+03  0.7546771E-02  0.1154367E+00
         21   -1    0    0  503  502  0.00000000000E+00  0.00000000000E+00  0.20518478462E+04  0.20518478462E+04  0.00000000000E+00 0.  1.
         21   -1    0    0  501  503 -0.00000000000E+00 -0.00000000000E+00 -0.24532951128E+02  0.24532951128E+02  0.00000000000E+00 0.  1.
          6    1    1    2  501    0 -0.28294595421E+02  0.84522338332E+02  0.49704720380E+03  0.53378790976E+03  0.17300000000E+03 0.  1.
         -6    1    1    2    0  502  0.28294595421E+02 -0.84522338332E+02  0.15302676913E+04  0.15425928876E+04  0.17300000000E+03 0.  1.
<mgrwt>
<rscale>  2 0.19461143E+03</rscale>
<asrwt>0</asrwt>
<pdfrwt beam="1">  1       21 0.31566876E+00 0.19461143E+03</pdfrwt>
<pdfrwt beam="2">  1       21 0.37743018E-02 0.19461143E+03</pdfrwt>
<totfact> 0.11948003E+04</totfact>
</mgrwt>
</event>
<event>
 4    1  0.4072310E+000  0.2350530E+03  0.7546771E-02  0.1123133E+00
         21   -1    0    0  501  502  0.00000000000E+00  0.00000000000E+00  0.66067060038E+02  0.66067060038E+02  0.00000000000E+00 0.  1.
         21   -1    0    0  502  503 -0.00000000000E+00 -0.00000000000E+00 -0.98316377700E+03  0.98316377700E+03  0.00000000000E+00 0.  1.
          6    1    1    2  501    0  0.86774781926E+02 -0.13338309941E+03 -0.25576630887E+03  0.34737057840E+03  0.17300000000E+03 0.  1.
         -6    1    1    2    0  503 -0.86774781926E+02  0.13338309941E+03 -0.66133040809E+03  0.70186025864E+03  0.17300000000E+03 0.  1.
<mgrwt>
<rscale>  2 0.23505300E+03</rscale>
<asrwt>0</asrwt>
<pdfrwt beam="1">  1       21 0.10164163E-01 0.23505300E+03</pdfrwt>
<pdfrwt beam="2">  1       21 0.15125596E+00 0.23505300E+03</pdfrwt>
<totfact> 0.22453668E+04</totfact>
</mgrwt>
</event>
<event>
 4    1  0.4072310E+000  0.1867652E+03  0.7546771E-02  0.1161412E+00
         21   -1    0    0  503  502  0.00000000000E+00  0.00000000000E+00  0.31368852285E+03  0.31368852285E+03  0.00000000000E+00 0. -1.
         21   -1    0    0  501  503 -0.00000000000E+00 -0.00000000000E+00 -0.11291857643E+03  0.11291857643E+03  0.00000000000E+00 0. -1.
          6    1    1    2  501    0 -0.70353551782E+02 -0.16158165244E+01  0.74047485695E+02  0.20090859426E+03  0.17300000000E+03 0. -1.
         -6    1    1    2    0  502  0.70353551782E+02  0.16158165244E+01  0.12672246073E+03  0.22569850501E+03  0.17300000000E+03 0. -1.
<mgrwt>
<rscale>  2 0.18676518E+03</rscale>
<asrwt>0</asrwt>
<pdfrwt beam="1">  1       21 0.48259772E-01 0.18676518E+03</pdfrwt>
<pdfrwt beam="2">  1       21 0.17372089E-01 0.18676518E+03</pdfrwt>
<totfact> 0.12321442E+05</totfact>
</mgrwt>
</event>
<event>
 4    1  0.4072310E+000  0.1779762E+03  0.7546771E-02  0.1169776E+00
         21   -1    0    0  503  502  0.00000000000E+00  0.00000000000E+00  0.44700907381E+02  0.44700907381E+02  0.00000000000E+00 0. -1.
         21   -1    0    0  501  503 -0.00000000000E+00 -0.00000000000E+00 -0.73974464288E+03  0.73974464288E+03  0.00000000000E+00 0. -1.
          6    1    1    2  501    0 -0.88613304163E+01 -0.40841402256E+02 -0.42798716813E+03  0.46351759340E+03  0.17300000000E+03 0. -1.
         -6    1    1    2    0  502  0.88613304163E+01  0.40841402256E+02 -0.26705656737E+03  0.32092795686E+03  0.17300000000E+03 0. -1.
<mgrwt>
<rscale>  2 0.17797624E+03</rscale>
<asrwt>0</asrwt>
<pdfrwt beam="1">  1       21 0.68770631E-02 0.17797624E+03</pdfrwt>
<pdfrwt beam="2">  1       21 0.11380686E+00 0.17797624E+03</pdfrwt>
<totfact> 0.94388579E+04</totfact>
</mgrwt>
</event>
<event>
 4    1  0.4072310E+000  0.2649199E+03  0.7546771E-02  0.1104223E+00
         21   -1    0    0  503  502  0.00000000000E+00  0.00000000000E+00  0.55128551845E+03  0.55128551845E+03  0.00000000000E+00 0.  1.
         21   -1    0    0  501  503 -0.00000000000E+00 -0.00000000000E+00 -0.14152472950E+03  0.14152472950E+03  0.00000000000E+00 0.  1.
          6    1    1    2  501    0  0.86224827590E+02  0.18115969357E+03  0.95085567189E+02  0.28146726374E+03  0.17300000000E+03 0.  1.
         -6    1    1    2    0  502 -0.86224827590E+02 -0.18115969357E+03  0.31467522176E+03  0.41134298421E+03  0.17300000000E+03 0.  1.
<mgrwt>
<rscale>  2 0.26491990E+03</rscale>
<asrwt>0</asrwt>
<pdfrwt beam="1">  1       21 0.84813155E-01 0.26491990E+03</pdfrwt>
<pdfrwt beam="2">  1       21 0.21773036E-01 0.26491990E+03</pdfrwt>
<totfact> 0.22824373E+04</totfact>
</mgrwt>
</event>
<event>
 4    1  0.4072310E+000  0.1897657E+03  0.7546771E-02  0.1158673E+00
         21   -1    0    0  503  502  0.00000000000E+00  0.00000000000E+00  0.27971978426E+03  0.27971978426E+03  0.00000000000E+00 0.  1.
         21   -1    0    0  501  503 -0.00000000000E+00 -0.00000000000E+00 -0.20482638012E+03  0.20482638012E+03  0.00000000000E+00 0.  1.
          6    1    1    2  501    0 -0.73549709849E+02  0.25932083637E+02 -0.11021457562E+03  0.21944996118E+03  0.17300000000E+03 0.  1.
         -6    1    1    2    0  502  0.73549709849E+02 -0.25932083637E+02  0.18510797977E+03  0.26509620320E+03  0.17300000000E+03 0.  1.
<mgrwt>
<rscale>  2 0.18976573E+03</rscale>
<asrwt>0</asrwt>
<pdfrwt beam="1">  1       21 0.43033813E-01 0.18976573E+03</pdfrwt>
<pdfrwt beam="2">  1       21 0.31511751E-01 0.18976573E+03</pdfrwt>
<totfact> 0.50331791E+04</totfact>
</mgrwt>
</event>
<event>
 4    1  0.4072310E+000  0.1733903E+03  0.7546771E-02  0.1174358E+00
         21   -1    0    0  503  502  0.00000000000E+00  0.00000000000E+00  0.16403392897E+03  0.16403392897E+03  0.00000000000E+00 0. -1.
         21   -1    0    0  501  503 -0.00000000000E+00 -0.00000000000E+00 -0.28637673824E+03  0.28637673824E+03  0.00000000000E+00 0. -1.
          6    1    1    2  501    0  0.10468934553E+02  0.50606518829E+01 -0.19629505304E+03  0.26190829814E+03  0.17300000000E+03 0. -1.
         -6    1    1    2    0  502 -0.10468934553E+02 -0.50606518829E+01  0.73952243769E+02  0.18850236907E+03  0.17300000000E+03 0. -1.
<mgrwt>
<rscale>  2 0.17339034E+03</rscale>
<asrwt>0</asrwt>
<pdfrwt beam="1">  1       21 0.25235989E-01 0.17339034E+03</pdfrwt>
<pdfrwt beam="2">  1       21 0.44057960E-01 0.17339034E+03</pdfrwt>
<totfact> 0.74226556E+04</totfact>
</mgrwt>
</event>
<event>
 4    1  0.4072310E+000  0.1789874E+03  0.7546771E-02  0.1168787E+00
         21   -1    0    0  503  502  0.00000000000E+00  0.00000000000E+00  0.42372250136E+03  0.42372250136E+03  0.00000000000E+00 0.  1.
         21   -1    0    0  501  503 -0.00000000000E+00 -0.00000000000E+00 -0.13226987790E+03  0.13226987790E+03  0.00000000000E+00 0.  1.
          6    1    1    2  501    0 -0.18913581266E+02 -0.41830279586E+02 -0.36225631513E+02  0.18261651685E+03  0.17300000000E+03 0.  1.
         -6    1    1    2    0  502  0.18913581266E+02  0.41830279586E+02  0.32767825498E+03  0.37337586241E+03  0.17300000000E+03 0.  1.
<mgrwt>
<rscale>  2 0.17898742E+03</rscale>
<asrwt>0</asrwt>
<pdfrwt beam="1">  1       21 0.65188077E-01 0.17898742E+03</pdfrwt>
<pdfrwt beam="2">  1       21 0.20349212E-01 0.17898742E+03</pdfrwt>
<totfact> 0.48721107E+04</totfact>
</mgrwt>
</event>
<event>
 4    1  0.4072310E+000  0.1973851E+03  0.7546771E-02  0.1151964E+00
         21   -1    0    0  503  502  0.00000000000E+00  0.00000000000E+00  0.65410820771E+03  0.65410820771E+03  0.00000000000E+00 0. -1.
         21   -1    0    0  501  503 -0.00000000000E+00 -0.00000000000E+00 -0.79527509397E+02  0.79527509397E+02  0.00000000000E+00 0. -1.
          6    1    1    2  501    0 -0.73078348410E+02 -0.60757123557E+02  0.10350226724E+03  0.22287573307E+03  0.17300000000E+03 0. -1.
         -6    1    1    2    0  502  0.73078348410E+02  0.60757123557E+02  0.47107843107E+03  0.51075998404E+03  0.17300000000E+03 0. -1.
<mgrwt>
<rscale>  2 0.19738509E+03</rscale>
<asrwt>0</asrwt>
<pdfrwt beam="1">  1       21 0.10063203E+00 0.19738509E+03</pdfrwt>
<pdfrwt beam="2">  1       21 0.12235002E-01 0.19738509E+03</pdfrwt>
<totfact> 0.45726561E+04</totfact>
</mgrwt>
</event>
<event>
 4    1  0.4072310E+000  0.2102408E+03  0.7546771E-02  0.1141375E+00
         21   -1    0    0  501  502  0.00000000000E+00  0.00000000000E+00  0.12163116302E+03  0.12163116302E+03  0.00000000000E+00 0. -1.
         21   -1    0    0  502  503 -0.00000000000E+00 -0.00000000000E+00 -0.36519219952E+03  0.36519219952E+03  0.00000000000E+00 0. -1.
          6    1    1    2  501    0 -0.82635706780E+02  0.86275939198E+02 -0.13881551327E+03  0.25193440504E+03  0.17300000000E+03 0. -1.
         -6    1    1    2    0  503  0.82635706780E+02 -0.86275939198E+02 -0.10474552323E+03  0.23488895750E+03  0.17300000000E+03 0. -1.
<mgrwt>
<rscale>  2 0.21024081E+03</rscale>
<asrwt>0</asrwt>
<pdfrwt beam="1">  1       21 0.18712487E-01 0.21024081E+03</pdfrwt>
<pdfrwt beam="2">  1       21 0.56183415E-01 0.21024081E+03</pdfrwt>
<totfact> 0.77311012E+04</totfact>
</mgrwt>
</event>
<event>
 4    1  0.4072310E+000  0.2183686E+03  0.7546771E-02  0.1135105E+00
         21   -1    0    0  503  502  0.00000000000E+00  0.00000000000E+00  0.49655490894E+03  0.49655490894E+03  0.00000000000E+00 0.  1.
         21   -1    0    0  501  503 -0.00000000000E+00 -0.00000000000E+00 -0.13393364086E+03  0.13393364086E+03  0.00000000000E+00 0.  1.
          6    1    1    2  501    0  0.49571777851E+02 -0.12368711291E+03  0.13609957545E+02  0.21879235362E+03  0.17300000000E+03 0.  1.
         -6    1    1    2    0  502 -0.49571777851E+02  0.12368711291E+03  0.34901131054E+03  0.41169619618E+03  0.17300000000E+03 0.  1.
<mgrwt>
<rscale>  2 0.21836864E+03</rscale>
<asrwt>0</asrwt>
<pdfrwt beam="1">  1       21 0.76393062E-01 0.21836864E+03</pdfrwt>
<pdfrwt beam="2">  1       21 0.20605176E-01 0.21836864E+03</pdfrwt>
<totfact> 0.32856538E+04</totfact>
</mgrwt>
</event>
<event>
 4    1  0.4072310E+000  0.1894674E+03  0.7546771E-02  0.1158943E+00
         21   -1    0    0  501  502  0.00000000000E+00  0.00000000000E+00  0.86267249439E+03  0.86267249439E+03  0.00000000000E+00 0.  1.
         21   -1    0    0  502  503 -0.00000000000E+00 -0.00000000000E+00 -0.10389692101E+03  0.10389692101E+03  0.00000000000E+00 0.  1.
          6    1    1    2  501    0 -0.76083220872E+02 -0.13424980877E+02  0.75357739599E+03  0.77703074479E+03  0.17300000000E+03 0.  1.
         -6    1    1    2    0  503  0.76083220872E+02  0.13424980877E+02  0.51981773908E+01  0.18953867061E+03  0.17300000000E+03 0.  1.
<mgrwt>
<rscale>  2 0.18946738E+03</rscale>
<asrwt>0</asrwt>
<pdfrwt beam="1">  1       21 0.13271884E+00 0.18946738E+03</pdfrwt>
<pdfrwt beam="2">  1       21 0.15984142E-01 0.18946738E+03</pdfrwt>
<totfact> 0.14360889E+04</totfact>
</mgrwt>
</event>
<event>
 4    1  0.4072310E+000  0.1908992E+03  0.7546771E-02  0.1157653E+00
         21   -1    0    0  501  502  0.00000000000E+00  0.00000000000E+00  0.85817147368E+02  0.85817147368E+02  0.00000000000E+00 0. -1.
         21   -1    0    0  502  503 -0.00000000000E+00 -0.00000000000E+00 -0.12250020665E+04  0.12250020665E+04  0.00000000000E+00 0.  1.
          6    1    1    2  501    0 -0.70277025045E+02  0.39681621867E+02 -0.39826352815E+02  0.19500930681E+03  0.17300000000E+03 0. -1.
         -6    1    1    2    0  503  0.70277025045E+02 -0.39681621867E+02 -0.10993585664E+04  0.11158099071E+04  0.17300000000E+03 0.  1.
<mgrwt>
<rscale>  2 0.19089917E+03</rscale>
<asrwt>0</asrwt>
<pdfrwt beam="1">  1       21 0.13202638E-01 0.19089917E+03</pdfrwt>
<pdfrwt beam="2">  1       21 0.18846185E+00 0.19089917E+03</pdfrwt>
<totfact> 0.79045828E+03</totfact>
</mgrwt>
</event>
<event>
 4    1  0.4072310E+000  0.1845465E+03  0.7546771E-02  0.1163474E+00
         21   -1    0    0  503  502  0.00000000000E+00  0.00000000000E+00  0.18718243234E+03  0.18718243234E+03  0.00000000000E+00 0. -1.
         21   -1    0    0  501  503 -0.00000000000E+00 -0.00000000000E+00 -0.21210897024E+03  0.21210897024E+03  0.00000000000E+00 0. -1.
          6    1    1    2  501    0  0.58223532484E+02 -0.27174206485E+02 -0.87747687172E+02  0.20434547667E+03  0.17300000000E+03 0.  1.
         -6    1    1    2    0  502 -0.58223532484E+02  0.27174206485E+02  0.62821149264E+02  0.19494592591E+03  0.17300000000E+03 0.  1.
<mgrwt>
<rscale>  2 0.18454652E+03</rscale>
<asrwt>0</asrwt>
<pdfrwt beam="1">  1       21 0.28797297E-01 0.18454652E+03</pdfrwt>
<pdfrwt beam="2">  1       21 0.32632150E-01 0.18454652E+03</pdfrwt>
<totfact> 0.10459667E+05</totfact>
</mgrwt>
</event>
<event>
 4    1  0.4072310E+000  0.3168471E+03  0.7546771E-02  0.1077110E+00
         21   -1    0    0  501  502  0.00000000000E+00  0.00000000000E+00  0.15946943679E+04  0.15946943679E+04  0.00000000000E+00 0.  1.
         21   -1    0    0  502  503 -0.00000000000E+00 -0.00000000000E+00 -0.65991682131E+02  0.65991682131E+02  0.00000000000E+00 0.  1.
          6    1    1    2  501    0  0.16884589710E+03  0.20482718565E+03  0.94250571734E+03  0.99433854404E+03  0.17300000000E+03 0.  1.
         -6    1    1    2    0  503 -0.16884589710E+03 -0.20482718565E+03  0.58619696847E+03  0.66634750603E+03  0.17300000000E+03 0.  1.
<mgrwt>
<rscale>  2 0.31684714E+03</rscale>
<asrwt>0</asrwt>
<pdfrwt beam="1">  1       21 0.24533757E+00 0.31684714E+03</pdfrwt>
<pdfrwt beam="2">  1       21 0.10152568E-01 0.31684714E+03</pdfrwt>
<totfact> 0.50704732E+03</totfact>
</mgrwt>
</event>
<event>
 4    1  0.4072310E+000  0.2530066E+03  0.7546771E-02  0.1111419E+00
         21   -1    0    0  503  502  0.00000000000E+00  0.00000000000E+00  0.12922708148E+04  0.12922708148E+04  0.00000000000E+00 0.  1.
         21   -1    0    0  501  503 -0.00000000000E+00 -0.00000000000E+00 -0.69723699400E+02  0.69723699400E+02  0.00000000000E+00 0.  1.
          6    1    1    2  501    0  0.12548366476E+03 -0.13541483705E+03  0.24482596382E+03  0.35206828993E+03  0.17300000000E+03 0.  1.
         -6    1    1    2    0  502 -0.12548366476E+03  0.13541483705E+03  0.97772115158E+03  0.10099262243E+04  0.17300000000E+03 0.  1.
<mgrwt>
<rscale>  2 0.25300658E+03</rscale>
<asrwt>0</asrwt>
<pdfrwt beam="1">  1       21 0.19881088E+00 0.25300658E+03</pdfrwt>
<pdfrwt beam="2">  1       21 0.10726724E-01 0.25300658E+03</pdfrwt>
<totfact> 0.93564132E+03</totfact>
</mgrwt>
</event>
<event>
 4    1  0.4072310E+000  0.1892411E+03  0.7546771E-02  0.1159148E+00
         21   -1    0    0  503  502  0.00000000000E+00  0.00000000000E+00  0.10793435144E+03  0.10793435144E+03  0.00000000000E+00 0. -1.
         21   -1    0    0  501  503 -0.00000000000E+00 -0.00000000000E+00 -0.74353645599E+03  0.74353645599E+03  0.00000000000E+00 0. -1.
          6    1    1    2  501    0 -0.50286726595E+02 -0.57917679962E+02 -0.63461206877E+03  0.66222706857E+03  0.17300000000E+03 0. -1.
         -6    1    1    2    0  502  0.50286726595E+02  0.57917679962E+02 -0.99003577824E+00  0.18924373885E+03  0.17300000000E+03 0. -1.
<mgrwt>
<rscale>  2 0.18924115E+03</rscale>
<asrwt>0</asrwt>
<pdfrwt beam="1">  1       21 0.16605285E-01 0.18924115E+03</pdfrwt>
<pdfrwt beam="2">  1       21 0.11439022E+00 0.18924115E+03</pdfrwt>
<totfact> 0.19387480E+04</totfact>
</mgrwt>
</event>
<event>
 4    1  0.4072310E+000  0.2111802E+03  0.7546771E-02  0.1140635E+00
         21   -1    0    0  501  502  0.00000000000E+00  0.00000000000E+00  0.10259106070E+04  0.10259106070E+04  0.00000000000E+00 0.  1.
         21   -1    0    0  502  503 -0.00000000000E+00 -0.00000000000E+00 -0.64777139055E+02  0.64777139055E+02  0.00000000000E+00 0. -1.
          6    1    1    2  501    0  0.32759350714E+02  0.11659714046E+03  0.79332934762E+03  0.82095585875E+03  0.17300000000E+03 0.  1.
         -6    1    1    2    0  503 -0.32759350714E+02 -0.11659714046E+03  0.16780412028E+03  0.26973188726E+03  0.17300000000E+03 0. -1.
<mgrwt>
<rscale>  2 0.21118018E+03</rscale>
<asrwt>0</asrwt>
<pdfrwt beam="1">  1       21 0.15783239E+00 0.21118018E+03</pdfrwt>
<pdfrwt beam="2">  1       21 0.99657144E-02 0.21118018E+03</pdfrwt>
<totfact> 0.21053669E+04</totfact>
</mgrwt>
</event>
<event>
 4    1  0.4072310E+000  0.1800370E+03  0.7546771E-02  0.1167767E+00
         21   -1    0    0  503  502  0.00000000000E+00  0.00000000000E+00  0.50007376693E+02  0.50007376693E+02  0.00000000000E+00 0. -1.
         21   -1    0    0  501  503 -0.00000000000E+00 -0.00000000000E+00 -0.66901141124E+03  0.66901141124E+03  0.00000000000E+00 0. -1.
          6    1    1    2  501    0 -0.34056905867E+02  0.36393009595E+02 -0.37295443269E+03  0.41413564547E+03  0.17300000000E+03 0. -1.
         -6    1    1    2    0  502  0.34056905867E+02 -0.36393009595E+02 -0.24604960186E+03  0.30488314246E+03  0.17300000000E+03 0. -1.
<mgrwt>
<rscale>  2 0.18003701E+03</rscale>
<asrwt>0</asrwt>
<pdfrwt beam="1">  1       21 0.76934432E-02 0.18003701E+03</pdfrwt>
<pdfrwt beam="2">  1       21 0.10292482E+00 0.18003701E+03</pdfrwt>
<totfact> 0.98954313E+04</totfact>
</mgrwt>
</event>
<event>
 4    1  0.4072310E+000  0.1943901E+03  0.7546771E-02  0.1154560E+00
         21   -1    0    0  503  502  0.00000000000E+00  0.00000000000E+00  0.84293207821E+03  0.84293207821E+03  0.00000000000E+00 0. -1.
         21   -1    0    0  501  503 -0.00000000000E+00 -0.00000000000E+00 -0.45766145218E+02  0.45766145218E+02  0.00000000000E+00 0. -1.
          6    1    1    2  501    0 -0.42379939574E+02  0.77861849571E+02  0.33498675545E+03  0.38730305089E+03  0.17300000000E+03 0. -1.
         -6    1    1    2    0  502  0.42379939574E+02 -0.77861849571E+02  0.46217917754E+03  0.50139517254E+03  0.17300000000E+03 0. -1.
<mgrwt>
<rscale>  2 0.19439014E+03</rscale>
<asrwt>0</asrwt>
<pdfrwt beam="1">  1       21 0.12968185E+00 0.19439014E+03</pdfrwt>
<pdfrwt beam="2">  1       21 0.70409461E-02 0.19439014E+03</pdfrwt>
<totfact> 0.65075675E+04</totfact>
</mgrwt>
</event>
<event>
 4    1  0.4072310E+000  0.3115684E+03  0.7546771E-02  0.1079597E+00
         21   -1    0    0  501  502  0.00000000000E+00  0.00000000000E+00  0.93604035908E+03  0.93604035908E+03  0.00000000000E+00 0.  1.
         21   -1    0    0  502  503 -0.00000000000E+00 -0.00000000000E+00 -0.11794320784E+03  0.11794320784E+03  0.00000000000E+00 0. -1.
          6    1    1    2  501    0  0.61508748407E+02  0.25171923263E+03  0.59213193842E+03  0.66910023965E+03  0.17300000000E+03 0.  1.
         -6    1    1    2    0  503 -0.61508748407E+02 -0.25171923263E+03  0.22596521282E+03  0.38488332727E+03  0.17300000000E+03 0. -1.
<mgrwt>
<rscale>  2 0.31156845E+03</rscale>
<asrwt>0</asrwt>
<pdfrwt beam="1">  1       21 0.14400620E+00 0.31156845E+03</pdfrwt>
<pdfrwt beam="2">  1       21 0.18145109E-01 0.31156845E+03</pdfrwt>
<totfact> 0.85539411E+03</totfact>
</mgrwt>
</event>
<event>
 4    1  0.4072310E+000  0.1821159E+03  0.7546771E-02  0.1165771E+00
         21   -1    0    0  501  502  0.00000000000E+00  0.00000000000E+00  0.60729628986E+03  0.60729628986E+03  0.00000000000E+00 0.  1.
         21   -1    0    0  502  503 -0.00000000000E+00 -0.00000000000E+00 -0.62373634323E+02  0.62373634323E+02  0.00000000000E+00 0.  1.
          6    1    1    2  501    0 -0.56095984414E+02 -0.95095410882E+01  0.39057023091E+03  0.43094233502E+03  0.17300000000E+03 0.  1.
         -6    1    1    2    0  503  0.56095984414E+02  0.95095410882E+01  0.15435242463E+03  0.23872758916E+03  0.17300000000E+03 0.  1.
<mgrwt>
<rscale>  2 0.18211587E+03</rscale>
<asrwt>0</asrwt>
<pdfrwt beam="1">  1       21 0.93430194E-01 0.18211587E+03</pdfrwt>
<pdfrwt beam="2">  1       21 0.95959442E-02 0.18211587E+03</pdfrwt>
<totfact> 0.84429280E+04</totfact>
</mgrwt>
</event>
<event>
 4    1  0.4072310E+000  0.2749809E+03  0.7546771E-02  0.1098462E+00
         21   -1    0    0  501  502  0.00000000000E+00  0.00000000000E+00  0.15107018120E+03  0.15107018120E+03  0.00000000000E+00 0. -1.
         21   -1    0    0  502  503 -0.00000000000E+00 -0.00000000000E+00 -0.55463043837E+03  0.55463043837E+03  0.00000000000E+00 0.  1.
          6    1    1    2  501    0 -0.13362385702E+03 -0.16682375137E+03 -0.91573797859E+02  0.28982798285E+03  0.17300000000E+03 0.  1.
         -6    1    1    2    0  503  0.13362385702E+03  0.16682375137E+03 -0.31198645931E+03  0.41587263673E+03  0.17300000000E+03 0. -1.
<mgrwt>
<rscale>  2 0.27498091E+03</rscale>
<asrwt>0</asrwt>
<pdfrwt beam="1">  1       21 0.23241566E-01 0.27498091E+03</pdfrwt>
<pdfrwt beam="2">  1       21 0.85327760E-01 0.27498091E+03</pdfrwt>
<totfact> 0.19787784E+04</totfact>
</mgrwt>
</event>
<event>
 4    1  0.4072310E+000  0.2017097E+03  0.7546771E-02  0.1148305E+00
         21   -1    0    0  501  502  0.00000000000E+00  0.00000000000E+00  0.19341768002E+04  0.19341768002E+04  0.00000000000E+00 0.  1.
         21   -1    0    0  502  503 -0.00000000000E+00 -0.00000000000E+00 -0.22530446849E+02  0.22530446849E+02  0.00000000000E+00 0.  1.
          6    1    1    2  501    0 -0.34539995237E+02 -0.97799686395E+02  0.12078186558E+04  0.12245459139E+04  0.17300000000E+03 0.  1.
         -6    1    1    2    0  503  0.34539995237E+02  0.97799686395E+02  0.70382769756E+03  0.73216133316E+03  0.17300000000E+03 0.  1.
<mgrwt>
<rscale>  2 0.20170967E+03</rscale>
<asrwt>0</asrwt>
<pdfrwt beam="1">  1       21 0.29756553E+00 0.20170967E+03</pdfrwt>
<pdfrwt beam="2">  1       21 0.34662241E-02 0.20170967E+03</pdfrwt>
<totfact> 0.17393347E+04</totfact>
</mgrwt>
</event>
<event>
 4    1  0.4072310E+000  0.1846957E+03  0.7546771E-02  0.1163334E+00
         21   -1    0    0  501  502  0.00000000000E+00  0.00000000000E+00  0.10989179225E+03  0.10989179225E+03  0.00000000000E+00 0.  1.
         21   -1    0    0  502  503 -0.00000000000E+00 -0.00000000000E+00 -0.45058925394E+03  0.45058925394E+03  0.00000000000E+00 0.  1.
          6    1    1    2  501    0 -0.61059573711E+02  0.21336310199E+02 -0.14045369674E+02  0.18522899904E+03  0.17300000000E+03 0.  1.
         -6    1    1    2    0  503  0.61059573711E+02 -0.21336310199E+02 -0.32665209202E+03  0.37525204716E+03  0.17300000000E+03 0.  1.
<mgrwt>
<rscale>  2 0.18469572E+03</rscale>
<asrwt>0</asrwt>
<pdfrwt beam="1">  1       21 0.16906430E-01 0.18469572E+03</pdfrwt>
<pdfrwt beam="2">  1       21 0.69321424E-01 0.18469572E+03</pdfrwt>
<totfact> 0.59876622E+04</totfact>
</mgrwt>
</event>
<event>
 4    1  0.4072310E+000  0.1989531E+03  0.7546771E-02  0.1150625E+00
         21   -1    0    0  503  502  0.00000000000E+00  0.00000000000E+00  0.93537523034E+03  0.93537523034E+03  0.00000000000E+00 0. -1.
         21   -1    0    0  501  503 -0.00000000000E+00 -0.00000000000E+00 -0.10541577313E+03  0.10541577313E+03  0.00000000000E+00 0. -1.
          6    1    1    2  501    0 -0.39665984768E+02 -0.89888502319E+02  0.12363781175E+02  0.19933689142E+03  0.17300000000E+03 0. -1.
         -6    1    1    2    0  502  0.39665984768E+02  0.89888502319E+02  0.81759567604E+03  0.84145411204E+03  0.17300000000E+03 0. -1.
<mgrwt>
<rscale>  2 0.19895309E+03</rscale>
<asrwt>0</asrwt>
<pdfrwt beam="1">  1       21 0.14390388E+00 0.19895309E+03</pdfrwt>
<pdfrwt beam="2">  1       21 0.16217812E-01 0.19895309E+03</pdfrwt>
<totfact> 0.11281170E+04</totfact>
</mgrwt>
</event>
<event>
 4    1  0.4072310E+000  0.2385428E+03  0.7546771E-02  0.1120767E+00
         21   -1    0    0  503  502  0.00000000000E+00  0.00000000000E+00  0.13563340859E+04  0.13563340859E+04  0.00000000000E+00 0. -1.
         21   -1    0    0  501  503 -0.00000000000E+00 -0.00000000000E+00 -0.10771494578E+03  0.10771494578E+03  0.00000000000E+00 0.  1.
          6    1    1    2  501    0  0.10346772581E+03 -0.12754646041E+03  0.52338543184E+02  0.24421710208E+03  0.17300000000E+03 0.  1.
         -6    1    1    2    0  502 -0.10346772581E+03  0.12754646041E+03  0.11962805969E+04  0.12198319296E+04  0.17300000000E+03 0. -1.
<mgrwt>
<rscale>  2 0.23854281E+03</rscale>
<asrwt>0</asrwt>
<pdfrwt beam="1">  1       21 0.20866677E+00 0.23854281E+03</pdfrwt>
<pdfrwt beam="2">  1       21 0.16571531E-01 0.23854281E+03</pdfrwt>
<totfact> 0.37113168E+03</totfact>
</mgrwt>
</event>
<event>
 4    1  0.4072310E+000  0.2808498E+03  0.7546771E-02  0.1095226E+00
         21   -1    0    0  503  502  0.00000000000E+00  0.00000000000E+00  0.55915613703E+03  0.55915613703E+03  0.00000000000E+00 0. -1.
         21   -1    0    0  501  503 -0.00000000000E+00 -0.00000000000E+00 -0.37254278261E+03  0.37254278261E+03  0.00000000000E+00 0.  1.
          6    1    1    2  501    0 -0.19896167279E+03 -0.96756814500E+02 -0.27390239656E+03  0.39229982314E+03  0.17300000000E+03 0.  1.
         -6    1    1    2    0  502  0.19896167279E+03  0.96756814500E+02  0.46051575099E+03  0.53939909649E+03  0.17300000000E+03 0. -1.
<mgrwt>
<rscale>  2 0.28084983E+03</rscale>
<asrwt>0</asrwt>
<pdfrwt beam="1">  1       21 0.86024022E-01 0.28084983E+03</pdfrwt>
<pdfrwt beam="2">  1       21 0.57314274E-01 0.28084983E+03</pdfrwt>
<totfact> 0.31291238E+03</totfact>
</mgrwt>
</event>
<event>
 4    1  0.4072310E+000  0.1806841E+03  0.7546771E-02  0.1167143E+00
         21   -1    0    0  503  502  0.00000000000E+00  0.00000000000E+00  0.43718363371E+03  0.43718363371E+03  0.00000000000E+00 0. -1.
         21   -1    0    0  501  503 -0.00000000000E+00 -0.00000000000E+00 -0.16402681229E+03  0.16402681229E+03  0.00000000000E+00 0. -1.
          6    1    1    2  501    0 -0.40564568425E+02 -0.32745339953E+02 -0.85287451700E+02  0.19980162892E+03  0.17300000000E+03 0. -1.
         -6    1    1    2    0  502  0.40564568425E+02  0.32745339953E+02  0.35844427312E+03  0.40140881709E+03  0.17300000000E+03 0. -1.
<mgrwt>
<rscale>  2 0.18068409E+03</rscale>
<asrwt>0</asrwt>
<pdfrwt beam="1">  1       21 0.67259020E-01 0.18068409E+03</pdfrwt>
<pdfrwt beam="2">  1       21 0.25234894E-01 0.18068409E+03</pdfrwt>
<totfact> 0.30293837E+04</totfact>
</mgrwt>
</event>
<event>
 4    1  0.4072310E+000  0.1949180E+03  0.7546771E-02  0.1154099E+00
         21   -1    0    0  501  502  0.00000000000E+00  0.00000000000E+00  0.35864419286E+03  0.35864419286E+03  0.00000000000E+00 0.  1.
         21   -1    0    0  502  503 -0.00000000000E+00 -0.00000000000E+00 -0.11249730658E+03  0.11249730658E+03  0.00000000000E+00 0. -1.
          6    1    1    2  501    0 -0.74630858950E+02  0.49942749176E+02  0.17996817221E+03  0.26529528136E+03  0.17300000000E+03 0.  1.
         -6    1    1    2    0  503  0.74630858950E+02 -0.49942749176E+02  0.66178714076E+02  0.20584621808E+03  0.17300000000E+03 0. -1.
<mgrwt>
<rscale>  2 0.19491804E+03</rscale>
<asrwt>0</asrwt>
<pdfrwt beam="1">  1       21 0.55176029E-01 0.19491804E+03</pdfrwt>
<pdfrwt beam="2">  1       21 0.17307278E-01 0.19491804E+03</pdfrwt>
<totfact> 0.93434166E+04</totfact>
</mgrwt>
</event>
<event>
 4    1  0.4072310E+000  0.1741837E+03  0.7546771E-02  0.1173554E+00
         21   -1    0    0  501  502  0.00000000000E+00  0.00000000000E+00  0.49853778640E+02  0.49853778640E+02  0.00000000000E+00 0. -1.
         21   -1    0    0  502  503 -0.00000000000E+00 -0.00000000000E+00 -0.12434482034E+04  0.12434482034E+04  0.00000000000E+00 0. -1.
          6    1    1    2  501    0 -0.85133602632E+01 -0.18397508539E+02 -0.13473724226E+03  0.22021369184E+03  0.17300000000E+03 0. -1.
         -6    1    1    2    0  503  0.85133602632E+01  0.18397508539E+02 -0.10588571825E+04  0.10730882902E+04  0.17300000000E+03 0. -1.
<mgrwt>
<rscale>  2 0.17418365E+03</rscale>
<asrwt>0</asrwt>
<pdfrwt beam="1">  1       21 0.76698117E-02 0.17418365E+03</pdfrwt>
<pdfrwt beam="2">  1       21 0.19129973E+00 0.17418365E+03</pdfrwt>
<totfact> 0.20027650E+04</totfact>
</mgrwt>
</event>
<event>
 4    1  0.4072310E+000  0.2233804E+03  0.7546771E-02  0.1131388E+00
         21   -1    0    0  503  502  0.00000000000E+00  0.00000000000E+00  0.16978270199E+03  0.16978270199E+03  0.00000000000E+00 0.  1.
         21   -1    0    0  501  503 -0.00000000000E+00 -0.00000000000E+00 -0.29442018788E+03  0.29442018788E+03  0.00000000000E+00 0.  1.
          6    1    1    2  501    0 -0.10821197324E+03  0.90884421578E+02 -0.52544652292E+02  0.22947712244E+03  0.17300000000E+03 0.  1.
         -6    1    1    2    0  502  0.10821197324E+03 -0.90884421578E+02 -0.72092833608E+02  0.23472576743E+03  0.17300000000E+03 0.  1.
<mgrwt>
<rscale>  2 0.22338041E+03</rscale>
<asrwt>0</asrwt>
<pdfrwt beam="1">  1       21 0.26120416E-01 0.22338041E+03</pdfrwt>
<pdfrwt beam="2">  1       21 0.45295413E-01 0.22338041E+03</pdfrwt>
<totfact> 0.64241188E+04</totfact>
</mgrwt>
</event>
<event>
 4    1  0.4072310E+000  0.2300871E+03  0.7546771E-02  0.1126578E+00
         21   -1    0    0  501  502  0.00000000000E+00  0.00000000000E+00  0.60770206680E+03  0.60770206680E+03  0.00000000000E+00 0.  1.
         21   -1    0    0  502  503 -0.00000000000E+00 -0.00000000000E+00 -0.21930182279E+03  0.21930182279E+03  0.00000000000E+00 0.  1.
          6    1    1    2  501    0 -0.29743533875E+02 -0.14874950891E+03  0.51523348629E+03  0.56427443643E+03  0.17300000000E+03 0.  1.
         -6    1    1    2    0  503  0.29743533875E+02  0.14874950891E+03 -0.12683324228E+03  0.26272945316E+03  0.17300000000E+03 0.  1.
<mgrwt>
<rscale>  2 0.23008714E+03</rscale>
<asrwt>0</asrwt>
<pdfrwt beam="1">  1       21 0.93492625E-01 0.23008714E+03</pdfrwt>
<pdfrwt beam="2">  1       21 0.33738742E-01 0.23008714E+03</pdfrwt>
<totfact> 0.79302050E+03</totfact>
</mgrwt>
</event>
<event>
 4    1  0.4072310E+000  0.2043499E+03  0.7546771E-02  0.1146120E+00
         21   -1    0    0  503  502  0.00000000000E+00  0.00000000000E+00  0.36827376607E+03  0.36827376607E+03  0.00000000000E+00 0.  1.
         21   -1    0    0  501  503 -0.00000000000E+00 -0.00000000000E+00 -0.22329868743E+03  0.22329868743E+03  0.00000000000E+00 0.  1.
          6    1    1    2  501    0  0.65716981056E+00  0.10876329698E+03 -0.13502728785E+03  0.24493112319E+03  0.17300000000E+03 0.  1.
         -6    1    1    2    0  502 -0.65716981056E+00 -0.10876329698E+03  0.28000236649E+03  0.34664133031E+03  0.17300000000E+03 0.  1.
<mgrwt>
<rscale>  2 0.20434991E+03</rscale>
<asrwt>0</asrwt>
<pdfrwt beam="1">  1       21 0.56657502E-01 0.20434991E+03</pdfrwt>
<pdfrwt beam="2">  1       21 0.34353644E-01 0.20434991E+03</pdfrwt>
<totfact> 0.23754262E+04</totfact>
</mgrwt>
</event>
<event>
 4    1  0.4072310E+000  0.1731870E+03  0.7546771E-02  0.1174564E+00
         21   -1    0    0  501  502  0.00000000000E+00  0.00000000000E+00  0.24326029367E+03  0.24326029367E+03  0.00000000000E+00 0.  1.
         21   -1    0    0  502  503 -0.00000000000E+00 -0.00000000000E+00 -0.13806977298E+03  0.13806977298E+03  0.00000000000E+00 0.  1.
          6    1    1    2  501    0 -0.22209863905E+01  0.77343203527E+01  0.11495772441E+03  0.20786782073E+03  0.17300000000E+03 0. -1.
         -6    1    1    2    0  503  0.22209863905E+01 -0.77343203527E+01 -0.97672037289E+01  0.17346224592E+03  0.17300000000E+03 0. -1.
<mgrwt>
<rscale>  2 0.17318704E+03</rscale>
<asrwt>0</asrwt>
<pdfrwt beam="1">  1       21 0.37424660E-01 0.17318704E+03</pdfrwt>
<pdfrwt beam="2">  1       21 0.21241504E-01 0.17318704E+03</pdfrwt>
<totfact> 0.14291288E+05</totfact>
</mgrwt>
</event>
<event>
 4    1  0.4072310E+000  0.2131890E+03  0.7546771E-02  0.1139065E+00
         21   -1    0    0  501  502  0.00000000000E+00  0.00000000000E+00  0.53224397898E+03  0.53224397898E+03  0.00000000000E+00 0.  1.
         21   -1    0    0  502  503 -0.00000000000E+00 -0.00000000000E+00 -0.99310886009E+02  0.99310886009E+02  0.00000000000E+00 0.  1.
          6    1    1    2  501    0 -0.79605140775E+02 -0.95830982933E+02  0.33468347903E+03  0.39681555774E+03  0.17300000000E+03 0.  1.
         -6    1    1    2    0  503  0.79605140775E+02  0.95830982933E+02  0.98249613935E+02  0.23473930725E+03  0.17300000000E+03 0.  1.
<mgrwt>
<rscale>  2 0.21318901E+03</rscale>
<asrwt>0</asrwt>
<pdfrwt beam="1">  1       21 0.81883687E-01 0.21318901E+03</pdfrwt>
<pdfrwt beam="2">  1       21 0.15278598E-01 0.21318901E+03</pdfrwt>
<totfact> 0.48993399E+04</totfact>
</mgrwt>
</event>
<event>
 4    1  0.4072310E+000  0.4290500E+03  0.7546771E-02  0.1034160E+00
         21   -1    0    0  501  502  0.00000000000E+00  0.00000000000E+00  0.43695037703E+03  0.43695037703E+03  0.00000000000E+00 0. -1.
         21   -1    0    0  502  503 -0.00000000000E+00 -0.00000000000E+00 -0.44595266583E+03  0.44595266583E+03  0.00000000000E+00 0.  1.
          6    1    1    2  501    0 -0.30239686351E+03  0.25042168847E+03  0.99308396133E+02  0.44039305474E+03  0.17300000000E+03 0. -1.
         -6    1    1    2    0  503  0.30239686351E+03 -0.25042168847E+03 -0.10831068494E+03  0.44250998812E+03  0.17300000000E+03 0.  1.
<mgrwt>
<rscale>  2 0.42904998E+03</rscale>
<asrwt>0</asrwt>
<pdfrwt beam="1">  1       21 0.67223135E-01 0.42904998E+03</pdfrwt>
<pdfrwt beam="2">  1       21 0.68608103E-01 0.42904998E+03</pdfrwt>
<totfact> 0.34508346E+03</totfact>
</mgrwt>
</event>
<event>
 4    1  0.4072310E+000  0.2894308E+03  0.7546771E-02  0.1090647E+00
         21   -1    0    0  503  502  0.00000000000E+00  0.00000000000E+00  0.66157232163E+03  0.66157232163E+03  0.00000000000E+00 0. -1.
         21   -1    0    0  501  503 -0.00000000000E+00 -0.00000000000E+00 -0.12896474996E+03  0.12896474996E+03  0.00000000000E+00 0. -1.
          6    1    1    2  501    0  0.14691150071E+03 -0.17960567770E+03  0.31956839072E+03  0.43115443272E+03  0.17300000000E+03 0. -1.
         -6    1    1    2    0  502 -0.14691150071E+03  0.17960567770E+03  0.21303918094E+03  0.35938263887E+03  0.17300000000E+03 0. -1.
<mgrwt>
<rscale>  2 0.28943080E+03</rscale>
<asrwt>0</asrwt>
<pdfrwt beam="1">  1       21 0.10178036E+00 0.28943080E+03</pdfrwt>
<pdfrwt beam="2">  1       21 0.19840731E-01 0.28943080E+03</pdfrwt>
<totfact> 0.17513716E+04</totfact>
</mgrwt>
</event>
<event>
 4    1  0.4072310E+000  0.1924746E+03  0.7546771E-02  0.1156248E+00
         21   -1    0    0  503  502  0.00000000000E+00  0.00000000000E+00  0.18831519920E+03  0.18831519920E+03  0.00000000000E+00 0. -1.
         21   -1    0    0  501  503 -0.00000000000E+00 -0.00000000000E+00 -0.19984486744E+03  0.19984486744E+03  0.00000000000E+00 0.  1.
          6    1    1    2  501    0  0.82387686594E+02  0.18159142464E+02 -0.30010644633E+02  0.19480021599E+03  0.17300000000E+03 0.  1.
         -6    1    1    2    0  502 -0.82387686594E+02 -0.18159142464E+02  0.18480976388E+02  0.19335985066E+03  0.17300000000E+03 0.  1.
<mgrwt>
<rscale>  2 0.19247464E+03</rscale>
<asrwt>0</asrwt>
<pdfrwt beam="1">  1       21 0.28971569E-01 0.19247464E+03</pdfrwt>
<pdfrwt beam="2">  1       21 0.30745364E-01 0.19247464E+03</pdfrwt>
<totfact> 0.11585745E+05</totfact>
</mgrwt>
</event>
<event>
 4    1  0.4072310E+000  0.1805522E+03  0.7546771E-02  0.1167270E+00
         21   -1    0    0  501  502  0.00000000000E+00  0.00000000000E+00  0.23762837479E+03  0.23762837479E+03  0.00000000000E+00 0. -1.
         21   -1    0    0  502  503 -0.00000000000E+00 -0.00000000000E+00 -0.14069475965E+03  0.14069475965E+03  0.00000000000E+00 0.  1.
          6    1    1    2  501    0 -0.18780180312E+02  0.48139472341E+02  0.78342516069E+02  0.19681629453E+03  0.17300000000E+03 0. -1.
         -6    1    1    2    0  503  0.18780180312E+02 -0.48139472341E+02  0.18591099069E+02  0.18150683991E+03  0.17300000000E+03 0.  1.
<mgrwt>
<rscale>  2 0.18055222E+03</rscale>
<asrwt>0</asrwt>
<pdfrwt beam="1">  1       21 0.36558212E-01 0.18055222E+03</pdfrwt>
<pdfrwt beam="2">  1       21 0.21645348E-01 0.18055222E+03</pdfrwt>
<totfact> 0.14418774E+05</totfact>
</mgrwt>
</event>
<event>
 4    1  0.4072310E+000  0.2166555E+03  0.7546771E-02  0.1136401E+00
         21   -1    0    0  503  502  0.00000000000E+00  0.00000000000E+00  0.10725766069E+03  0.10725766069E+03  0.00000000000E+00 0. -1.
         21   -1    0    0  501  503 -0.00000000000E+00 -0.00000000000E+00 -0.53291387526E+03  0.53291387526E+03  0.00000000000E+00 0. -1.
          6    1    1    2  501    0  0.11759464010E+03 -0.56410014436E+02 -0.34817199656E+03  0.41007722236E+03  0.17300000000E+03 0. -1.
         -6    1    1    2    0  502 -0.11759464010E+03  0.56410014436E+02 -0.77484218012E+02  0.23009431360E+03  0.17300000000E+03 0. -1.
<mgrwt>
<rscale>  2 0.21665546E+03</rscale>
<asrwt>0</asrwt>
<pdfrwt beam="1">  1       21 0.16501179E-01 0.21665546E+03</pdfrwt>
<pdfrwt beam="2">  1       21 0.81986748E-01 0.21665546E+03</pdfrwt>
<totfact> 0.42350130E+04</totfact>
</mgrwt>
</event>
<event>
 4    1  0.4072310E+000  0.2135555E+03  0.7546771E-02  0.1138781E+00
         21   -1    0    0  503  502  0.00000000000E+00  0.00000000000E+00  0.65487556172E+03  0.65487556172E+03  0.00000000000E+00 0. -1.
         21   -1    0    0  501  503 -0.00000000000E+00 -0.00000000000E+00 -0.26568148583E+03  0.26568148583E+03  0.00000000000E+00 0. -1.
          6    1    1    2  501    0 -0.43285612359E+02  0.11748755767E+03 -0.20078170887E+03  0.29311988172E+03  0.17300000000E+03 0. -1.
         -6    1    1    2    0  502  0.43285612359E+02 -0.11748755767E+03  0.58997578476E+03  0.62743716582E+03  0.17300000000E+03 0. -1.
<mgrwt>
<rscale>  2 0.21355554E+03</rscale>
<asrwt>0</asrwt>
<pdfrwt beam="1">  1       21 0.10075009E+00 0.21355554E+03</pdfrwt>
<pdfrwt beam="2">  1       21 0.40874075E-01 0.21355554E+03</pdfrwt>
<totfact> 0.45743235E+03</totfact>
</mgrwt>
</event>
<event>
 4    1  0.4072310E+000  0.2119077E+03  0.7546771E-02  0.1140064E+00
         21   -1    0    0  501  502  0.00000000000E+00  0.00000000000E+00  0.34738650781E+03  0.34738650781E+03  0.00000000000E+00 0. -1.
         21   -1    0    0  502  503 -0.00000000000E+00 -0.00000000000E+00 -0.23296594059E+03  0.23296594059E+03  0.00000000000E+00 0. -1.
          6    1    1    2  501    0 -0.10293878595E+03  0.66177678566E+02  0.25081110113E+03  0.32834598710E+03  0.17300000000E+03 0. -1.
         -6    1    1    2    0  503  0.10293878595E+03 -0.66177678566E+02 -0.13639053392E+03  0.25200646130E+03  0.17300000000E+03 0. -1.
<mgrwt>
<rscale>  2 0.21190771E+03</rscale>
<asrwt>0</asrwt>
<pdfrwt beam="1">  1       21 0.53444078E-01 0.21190771E+03</pdfrwt>
<pdfrwt beam="2">  1       21 0.35840914E-01 0.21190771E+03</pdfrwt>
<totfact> 0.24606415E+04</totfact>
</mgrwt>
</event>
<event>
 4    1  0.4072310E+000  0.1747862E+03  0.7546771E-02  0.1172947E+00
         21   -1    0    0  503  502  0.00000000000E+00  0.00000000000E+00  0.16624310568E+03  0.16624310568E+03  0.00000000000E+00 0. -1.
         21   -1    0    0  501  503 -0.00000000000E+00 -0.00000000000E+00 -0.18447368320E+03  0.18447368320E+03  0.00000000000E+00 0. -1.
          6    1    1    2  501    0 -0.12422492814E+02  0.21607637672E+02 -0.19959061181E+02  0.17592206359E+03  0.17300000000E+03 0.  1.
         -6    1    1    2    0  502  0.12422492814E+02 -0.21607637672E+02  0.17284836559E+01  0.17479472529E+03  0.17300000000E+03 0.  1.
<mgrwt>
<rscale>  2 0.17478618E+03</rscale>
<asrwt>0</asrwt>
<pdfrwt beam="1">  1       21 0.25575862E-01 0.17478618E+03</pdfrwt>
<pdfrwt beam="2">  1       21 0.28380567E-01 0.17478618E+03</pdfrwt>
<totfact> 0.17306174E+05</totfact>
</mgrwt>
</event>
<event>
 4    1  0.4072310E+000  0.2009180E+03  0.7546771E-02  0.1148967E+00
         21   -1    0    0  503  502  0.00000000000E+00  0.00000000000E+00  0.21400414723E+03  0.21400414723E+03  0.00000000000E+00 0. -1.
         21   -1    0    0  501  503 -0.00000000000E+00 -0.00000000000E+00 -0.18863313471E+03  0.18863313471E+03  0.00000000000E+00 0.  1.
          6    1    1    2  501    0  0.35887192065E+02 -0.95661566324E+02  0.12187216359E+02  0.20128724269E+03  0.17300000000E+03 0.  1.
         -6    1    1    2    0  502 -0.35887192065E+02  0.95661566324E+02  0.13183796167E+02  0.20135003925E+03  0.17300000000E+03 0. -1.
<mgrwt>
<rscale>  2 0.20091796E+03</rscale>
<asrwt>0</asrwt>
<pdfrwt beam="1">  1       21 0.32923715E-01 0.20091796E+03</pdfrwt>
<pdfrwt beam="2">  1       21 0.29020482E-01 0.20091796E+03</pdfrwt>
<totfact> 0.10061607E+05</totfact>
</mgrwt>
</event>
<event>
 4    1  0.4072310E+000  0.1852842E+03  0.7546771E-02  0.1162785E+00
         21   -1    0    0  501  502  0.00000000000E+00  0.00000000000E+00  0.19994748248E+03  0.19994748248E+03  0.00000000000E+00 0.  1.
         21   -1    0    0  502  503 -0.00000000000E+00 -0.00000000000E+00 -0.17490276740E+03  0.17490276740E+03  0.00000000000E+00 0.  1.
          6    1    1    2  501    0 -0.63877614408E+02 -0.17913008244E+02  0.37899855015E+02  0.18912066121E+03  0.17300000000E+03 0.  1.
         -6    1    1    2    0  503  0.63877614408E+02  0.17913008244E+02 -0.12855139931E+02  0.18572958868E+03  0.17300000000E+03 0.  1.
<mgrwt>
<rscale>  2 0.18528417E+03</rscale>
<asrwt>0</asrwt>
<pdfrwt beam="1">  1       21 0.30761151E-01 0.18528417E+03</pdfrwt>
<pdfrwt beam="2">  1       21 0.26908118E-01 0.18528417E+03</pdfrwt>
<totfact> 0.13382455E+05</totfact>
</mgrwt>
</event>
<event>
 4    1  0.4072310E+000  0.1753059E+03  0.7546771E-02  0.1172425E+00
         21   -1    0    0  501  502  0.00000000000E+00  0.00000000000E+00  0.90924331292E+03  0.90924331292E+03  0.00000000000E+00 0.  1.
         21   -1    0    0  502  503 -0.00000000000E+00 -0.00000000000E+00 -0.34274921614E+02  0.34274921614E+02  0.00000000000E+00 0.  1.
          6    1    1    2  501    0 -0.25441499426E+02  0.12486174147E+02  0.49303220280E+03  0.52327137074E+03  0.17300000000E+03 0. -1.
         -6    1    1    2    0  503  0.25441499426E+02 -0.12486174147E+02  0.38193618850E+03  0.42024686379E+03  0.17300000000E+03 0. -1.
<mgrwt>
<rscale>  2 0.17530595E+03</rscale>
<asrwt>0</asrwt>
<pdfrwt beam="1">  1       21 0.13988357E+00 0.17530595E+03</pdfrwt>
<pdfrwt beam="2">  1       21 0.52730656E-02 0.17530595E+03</pdfrwt>
<totfact> 0.88869221E+04</totfact>
</mgrwt>
</event>
<event>
 4    1  0.4072310E+000  0.1842766E+03  0.7546771E-02  0.1163727E+00
         21   -1    0    0  501  502  0.00000000000E+00  0.00000000000E+00  0.40674663075E+03  0.40674663075E+03  0.00000000000E+00 0. -1.
         21   -1    0    0  502  503 -0.00000000000E+00 -0.00000000000E+00 -0.10134201040E+03  0.10134201040E+03  0.00000000000E+00 0. -1.
          6    1    1    2  501    0 -0.54044726806E+02  0.33287219952E+02  0.25933743983E+03  0.31814113095E+03  0.17300000000E+03 0.  1.
         -6    1    1    2    0  503  0.54044726806E+02 -0.33287219952E+02  0.46067180519E+02  0.18994751019E+03  0.17300000000E+03 0.  1.
<mgrwt>
<rscale>  2 0.18427662E+03</rscale>
<asrwt>0</asrwt>
<pdfrwt beam="1">  1       21 0.62576404E-01 0.18427662E+03</pdfrwt>
<pdfrwt beam="2">  1       21 0.15591079E-01 0.18427662E+03</pdfrwt>
<totfact> 0.86816361E+04</totfact>
</mgrwt>
</event>
<event>
 4    1  0.4072310E+000  0.1799367E+03  0.7546771E-02  0.1167864E+00
         21   -1    0    0  501  502  0.00000000000E+00  0.00000000000E+00  0.12304543038E+03  0.12304543038E+03  0.00000000000E+00 0. -1.
         21   -1    0    0  502  503 -0.00000000000E+00 -0.00000000000E+00 -0.30782156716E+03  0.30782156716E+03  0.00000000000E+00 0. -1.
          6    1    1    2  501    0 -0.37666736986E+02 -0.32084994768E+02 -0.10302801309E+02  0.18023145585E+03  0.17300000000E+03 0. -1.
         -6    1    1    2    0  503  0.37666736986E+02  0.32084994768E+02 -0.17447333547E+03  0.25063554169E+03  0.17300000000E+03 0. -1.
<mgrwt>
<rscale>  2 0.17993674E+03</rscale>
<asrwt>0</asrwt>
<pdfrwt beam="1">  1       21 0.18930067E-01 0.17993674E+03</pdfrwt>
<pdfrwt beam="2">  1       21 0.47357163E-01 0.17993674E+03</pdfrwt>
<totfact> 0.10958635E+05</totfact>
</mgrwt>
</event>
<event>
 4    1  0.4072310E+000  0.1927869E+03  0.7546771E-02  0.1155971E+00
         21   -1    0    0  503  502  0.00000000000E+00  0.00000000000E+00  0.51816430706E+03  0.51816430706E+03  0.00000000000E+00 0. -1.
         21   -1    0    0  501  503 -0.00000000000E+00 -0.00000000000E+00 -0.72089261251E+02  0.72089261251E+02  0.00000000000E+00 0. -1.
          6    1    1    2  501    0 -0.81285628796E+02  0.25108774732E+02  0.24393448099E+03  0.31091933846E+03  0.17300000000E+03 0. -1.
         -6    1    1    2    0  502  0.81285628796E+02 -0.25108774732E+02  0.20214056482E+03  0.27933422985E+03  0.17300000000E+03 0. -1.
<mgrwt>
<rscale>  2 0.19278694E+03</rscale>
<asrwt>0</asrwt>
<pdfrwt beam="1">  1       21 0.79717583E-01 0.19278694E+03</pdfrwt>
<pdfrwt beam="2">  1       21 0.11090656E-01 0.19278694E+03</pdfrwt>
<totfact> 0.93637401E+04</totfact>
</mgrwt>
</event>
<event>
 4    1  0.4072310E+000  0.4707284E+03  0.7546771E-02  0.1021715E+00
         21   -1    0    0  503  502  0.00000000000E+00  0.00000000000E+00  0.12488432338E+04  0.12488432338E+04  0.00000000000E+00 0. -1.
         21   -1    0    0  501  503 -0.00000000000E+00 -0.00000000000E+00 -0.19909764705E+03  0.19909764705E+03  0.00000000000E+00 0.  1.
          6    1    1    2  501    0 -0.13842036908E+03  0.41532637942E+03  0.28605316831E+03  0.55082811758E+03  0.17300000000E+03 0.  1.
         -6    1    1    2    0  502  0.13842036908E+03 -0.41532637942E+03  0.76369241844E+03  0.89711276326E+03  0.17300000000E+03 0. -1.
<mgrwt>
<rscale>  2 0.47072837E+03</rscale>
<asrwt>0</asrwt>
<pdfrwt beam="1">  1       21 0.19212972E+00 0.47072837E+03</pdfrwt>
<pdfrwt beam="2">  1       21 0.30630408E-01 0.47072837E+03</pdfrwt>
<totfact> 0.12873072E+03</totfact>
</mgrwt>
</event>
<event>
 4    1  0.4072310E+000  0.1777867E+03  0.7546771E-02  0.1169962E+00
         21   -1    0    0  501  502  0.00000000000E+00  0.00000000000E+00  0.15929819004E+04  0.15929819004E+04  0.00000000000E+00 0.  1.
         21   -1    0    0  502  503 -0.00000000000E+00 -0.00000000000E+00 -0.43961048353E+02  0.43961048353E+02  0.00000000000E+00 0.  1.
          6    1    1    2  501    0  0.37581929926E+02 -0.16330950894E+02  0.13807562194E+04  0.13921551059E+04  0.17300000000E+03 0.  1.
         -6    1    1    2    0  503 -0.37581929926E+02  0.16330950894E+02  0.16826463262E+03  0.24478784284E+03  0.17300000000E+03 0.  1.
<mgrwt>
<rscale>  2 0.17778667E+03</rscale>
<asrwt>0</asrwt>
<pdfrwt beam="1">  1       21 0.24507409E+00 0.17778667E+03</pdfrwt>
<pdfrwt beam="2">  1       21 0.67632394E-02 0.17778667E+03</pdfrwt>
<totfact> 0.11574563E+04</totfact>
</mgrwt>
</event>
<event>
 4    1  0.4072310E+000  0.1804779E+03  0.7546771E-02  0.1167341E+00
         21   -1    0    0  501  502  0.00000000000E+00  0.00000000000E+00  0.46236853417E+03  0.46236853417E+03  0.00000000000E+00 0. -1.
         21   -1    0    0  502  503 -0.00000000000E+00 -0.00000000000E+00 -0.47062244483E+03  0.47062244483E+03  0.00000000000E+00 0.  1.
          6    1    1    2  501    0  0.49424933593E+02  0.14157576823E+02  0.42603956037E+03  0.46268992646E+03  0.17300000000E+03 0. -1.
         -6    1    1    2    0  503 -0.49424933593E+02 -0.14157576823E+02 -0.43429347103E+03  0.47030105254E+03  0.17300000000E+03 0.  1.
<mgrwt>
<rscale>  2 0.18047787E+03</rscale>
<asrwt>0</asrwt>
<pdfrwt beam="1">  1       21 0.71133621E-01 0.18047787E+03</pdfrwt>
<pdfrwt beam="2">  1       21 0.72403453E-01 0.18047787E+03</pdfrwt>
<totfact> 0.31076690E+03</totfact>
</mgrwt>
</event>
<event>
 4    1  0.4072310E+000  0.2284119E+03  0.7546771E-02  0.1127763E+00
         21   -1    0    0  503  502  0.00000000000E+00  0.00000000000E+00  0.28685167725E+03  0.28685167725E+03  0.00000000000E+00 0.  1.
         21   -1    0    0  501  503 -0.00000000000E+00 -0.00000000000E+00 -0.38000239769E+03  0.38000239769E+03  0.00000000000E+00 0. -1.
          6    1    1    2  501    0  0.13153980764E+03 -0.70287211138E+02 -0.28733107838E+03  0.36705743644E+03  0.17300000000E+03 0. -1.
         -6    1    1    2    0  502 -0.13153980764E+03  0.70287211138E+02  0.19418035794E+03  0.29979663850E+03  0.17300000000E+03 0.  1.
<mgrwt>
<rscale>  2 0.22841194E+03</rscale>
<asrwt>0</asrwt>
<pdfrwt beam="1">  1       21 0.44131027E-01 0.22841194E+03</pdfrwt>
<pdfrwt beam="2">  1       21 0.58461908E-01 0.22841194E+03</pdfrwt>
<totfact> 0.13214063E+04</totfact>
</mgrwt>
</event>
<event>
 4    1  0.4072310E+000  0.1832655E+03  0.7546771E-02  0.1164680E+00
         21   -1    0    0  501  502  0.00000000000E+00  0.00000000000E+00  0.81778678267E+03  0.81778678267E+03  0.00000000000E+00 0.  1.
         21   -1    0    0  502  503 -0.00000000000E+00 -0.00000000000E+00 -0.44220799520E+02  0.44220799520E+02  0.00000000000E+00 0.  1.
          6    1    1    2  501    0 -0.25335667327E+02 -0.54912307239E+02  0.50183623872E+03  0.53425262566E+03  0.17300000000E+03 0.  1.
         -6    1    1    2    0  503  0.25335667327E+02  0.54912307239E+02  0.27172974442E+03  0.32775495653E+03  0.17300000000E+03 0.  1.
<mgrwt>
<rscale>  2 0.18326554E+03</rscale>
<asrwt>0</asrwt>
<pdfrwt beam="1">  1       21 0.12581334E+00 0.18326554E+03</pdfrwt>
<pdfrwt beam="2">  1       21 0.68032005E-02 0.18326554E+03</pdfrwt>
<totfact> 0.74909057E+04</totfact>
</mgrwt>
</event>
<event>
 4    1  0.4072310E+000  0.2215799E+03  0.7546771E-02  0.1132711E+00
         21   -1    0    0  501  502  0.00000000000E+00  0.00000000000E+00  0.11981402066E+03  0.11981402066E+03  0.00000000000E+00 0.  1.
         21   -1    0    0  502  503 -0.00000000000E+00 -0.00000000000E+00 -0.44145854425E+03  0.44145854425E+03  0.00000000000E+00 0.  1.
          6    1    1    2  501    0  0.13107661442E+03  0.44582440939E+02 -0.23599584351E+03  0.32371547853E+03  0.17300000000E+03 0.  1.
         -6    1    1    2    0  503 -0.13107661442E+03 -0.44582440939E+02 -0.85648680087E+02  0.23755708638E+03  0.17300000000E+03 0.  1.
<mgrwt>
<rscale>  2 0.22157995E+03</rscale>
<asrwt>0</asrwt>
<pdfrwt beam="1">  1       21 0.18432926E-01 0.22157995E+03</pdfrwt>
<pdfrwt beam="2">  1       21 0.67916699E-01 0.22157995E+03</pdfrwt>
<totfact> 0.52480301E+04</totfact>
</mgrwt>
</event>
<event>
 4    1  0.4072310E+000  0.3404911E+03  0.7546771E-02  0.1066587E+00
         21   -1    0    0  503  502  0.00000000000E+00  0.00000000000E+00  0.22234819865E+03  0.22234819865E+03  0.00000000000E+00 0.  1.
         21   -1    0    0  501  503 -0.00000000000E+00 -0.00000000000E+00 -0.81074665083E+03  0.81074665083E+03  0.00000000000E+00 0. -1.
          6    1    1    2  501    0 -0.17196449278E+03 -0.23755714993E+03 -0.60278127173E+03  0.69230011397E+03  0.17300000000E+03 0. -1.
         -6    1    1    2    0  502  0.17196449278E+03  0.23755714993E+03  0.14382819548E+02  0.34079473552E+03  0.17300000000E+03 0.  1.
<mgrwt>
<rscale>  2 0.34049110E+03</rscale>
<asrwt>0</asrwt>
<pdfrwt beam="1">  1       21 0.34207415E-01 0.34049110E+03</pdfrwt>
<pdfrwt beam="2">  1       21 0.12473026E+00 0.34049110E+03</pdfrwt>
<totfact> 0.35916890E+03</totfact>
</mgrwt>
</event>
<event>
 4    1  0.4072310E+000  0.1936534E+03  0.7546771E-02  0.1155207E+00
         21   -1    0    0  503  502  0.00000000000E+00  0.00000000000E+00  0.13078781779E+04  0.13078781779E+04  0.00000000000E+00 0.  1.
         21   -1    0    0  501  503 -0.00000000000E+00 -0.00000000000E+00 -0.38461202841E+02  0.38461202841E+02  0.00000000000E+00 0.  1.
          6    1    1    2  501    0 -0.76185979336E+02 -0.42051420285E+02  0.29512196248E+03  0.35298526617E+03  0.17300000000E+03 0.  1.
         -6    1    1    2    0  502  0.76185979336E+02  0.42051420285E+02  0.97429501254E+03  0.99335411453E+03  0.17300000000E+03 0.  1.
<mgrwt>
<rscale>  2 0.19365336E+03</rscale>
<asrwt>0</asrwt>
<pdfrwt beam="1">  1       21 0.20121199E+00 0.19365336E+03</pdfrwt>
<pdfrwt beam="2">  1       21 0.59171091E-02 0.19365336E+03</pdfrwt>
<totfact> 0.26613268E+04</totfact>
</mgrwt>
</event>
<event>
 4    1  0.4072310E+000  0.1997323E+03  0.7546771E-02  0.1149965E+00
         21   -1    0    0  501  502  0.00000000000E+00  0.00000000000E+00  0.54786466529E+02  0.54786466529E+02  0.00000000000E+00 0. -1.
         21   -1    0    0  502  503 -0.00000000000E+00 -0.00000000000E+00 -0.72968369384E+03  0.72968369384E+03  0.00000000000E+00 0. -1.
          6    1    1    2  501    0  0.41462149132E+02 -0.90801295243E+02 -0.31948967583E+03  0.37678460424E+03  0.17300000000E+03 0. -1.
         -6    1    1    2    0  503 -0.41462149132E+02  0.90801295243E+02 -0.35540755148E+03  0.40768555613E+03  0.17300000000E+03 0. -1.
<mgrwt>
<rscale>  2 0.19973228E+03</rscale>
<asrwt>0</asrwt>
<pdfrwt beam="1">  1       21 0.84286871E-02 0.19973228E+03</pdfrwt>
<pdfrwt beam="2">  1       21 0.11225903E+00 0.19973228E+03</pdfrwt>
<totfact> 0.67879730E+04</totfact>
</mgrwt>
</event>
<event>
 4    1  0.4072310E+000  0.1982810E+03  0.7546771E-02  0.1151198E+00
         21   -1    0    0  503  502  0.00000000000E+00  0.00000000000E+00  0.75647476105E+02  0.75647476105E+02  0.00000000000E+00 0. -1.
         21   -1    0    0  501  503 -0.00000000000E+00 -0.00000000000E+00 -0.54213647838E+03  0.54213647838E+03  0.00000000000E+00 0.  1.
          6    1    1    2  501    0 -0.44923108735E+02  0.85838560338E+02 -0.29605854718E+03  0.35632289780E+03  0.17300000000E+03 0. -1.
         -6    1    1    2    0  502  0.44923108735E+02 -0.85838560338E+02 -0.17043045510E+03  0.26146105669E+03  0.17300000000E+03 0. -1.
<mgrwt>
<rscale>  2 0.19828097E+03</rscale>
<asrwt>0</asrwt>
<pdfrwt beam="1">  1       21 0.11638074E-01 0.19828097E+03</pdfrwt>
<pdfrwt beam="2">  1       21 0.83405607E-01 0.19828097E+03</pdfrwt>
<totfact> 0.77357457E+04</totfact>
</mgrwt>
</event>
<event>
 4    1  0.4072310E+000  0.2075916E+03  0.7546771E-02  0.1143488E+00
         21   -1    0    0  503  502  0.00000000000E+00  0.00000000000E+00  0.65405809586E+03  0.65405809586E+03  0.00000000000E+00 0.  1.
         21   -1    0    0  501  503 -0.00000000000E+00 -0.00000000000E+00 -0.18154505656E+03  0.18154505656E+03  0.00000000000E+00 0.  1.
          6    1    1    2  501    0 -0.11155072351E+03 -0.26864456663E+02 -0.97219675394E+02  0.22922898646E+03  0.17300000000E+03 0.  1.
         -6    1    1    2    0  502  0.11155072351E+03  0.26864456663E+02  0.56973271470E+03  0.60637416596E+03  0.17300000000E+03 0.  1.
<mgrwt>
<rscale>  2 0.20759158E+03</rscale>
<asrwt>0</asrwt>
<pdfrwt beam="1">  1       21 0.10062432E+00 0.20759158E+03</pdfrwt>
<pdfrwt beam="2">  1       21 0.27930009E-01 0.20759158E+03</pdfrwt>
<totfact> 0.97996937E+03</totfact>
</mgrwt>
</event>
<event>
 4    1  0.4072310E+000  0.1836197E+03  0.7546771E-02  0.1164345E+00
         21   -1    0    0  503  502  0.00000000000E+00  0.00000000000E+00  0.32262140027E+02  0.32262140027E+02  0.00000000000E+00 0. -1.
         21   -1    0    0  501  503 -0.00000000000E+00 -0.00000000000E+00 -0.10457287253E+04  0.10457287253E+04  0.00000000000E+00 0. -1.
          6    1    1    2  501    0  0.53784358374E+02 -0.29906882701E+02 -0.52026615089E+03  0.55171826741E+03  0.17300000000E+03 0. -1.
         -6    1    1    2    0  502 -0.53784358374E+02  0.29906882701E+02 -0.49320043444E+03  0.52627259796E+03  0.17300000000E+03 0. -1.
<mgrwt>
<rscale>  2 0.18361966E+03</rscale>
<asrwt>0</asrwt>
<pdfrwt beam="1">  1       21 0.49634061E-02 0.18361966E+03</pdfrwt>
<pdfrwt beam="2">  1       21 0.16088135E+00 0.18361966E+03</pdfrwt>
<totfact> 0.67872903E+04</totfact>
</mgrwt>
</event>
<event>
 4    1  0.4072310E+000  0.1860738E+03  0.7546771E-02  0.1162051E+00
         21   -1    0    0  503  502  0.00000000000E+00  0.00000000000E+00  0.67289214737E+02  0.67289214737E+02  0.00000000000E+00 0.  1.
         21   -1    0    0  501  503 -0.00000000000E+00 -0.00000000000E+00 -0.13203509301E+04  0.13203509301E+04  0.00000000000E+00 0.  1.
          6    1    1    2  501    0 -0.24123626719E+02  0.64128800728E+02 -0.11685528488E+04  0.11832747834E+04  0.17300000000E+03 0.  1.
         -6    1    1    2    0  502  0.24123626719E+02 -0.64128800728E+02 -0.84508866549E+02  0.20436536148E+03  0.17300000000E+03 0.  1.
<mgrwt>
<rscale>  2 0.18607378E+03</rscale>
<asrwt>0</asrwt>
<pdfrwt beam="1">  1       21 0.10352187E-01 0.18607378E+03</pdfrwt>
<pdfrwt beam="2">  1       21 0.20313091E+00 0.18607378E+03</pdfrwt>
<totfact> 0.98421785E+03</totfact>
</mgrwt>
</event>
<event>
 4    1  0.4072310E+000  0.1936850E+03  0.7546771E-02  0.1155179E+00
         21   -1    0    0  503  502  0.00000000000E+00  0.00000000000E+00  0.11828890485E+03  0.11828890485E+03  0.00000000000E+00 0. -1.
         21   -1    0    0  501  503 -0.00000000000E+00 -0.00000000000E+00 -0.48023074843E+03  0.48023074843E+03  0.00000000000E+00 0. -1.
          6    1    1    2  501    0  0.56951395198E+02 -0.65889348065E+02 -0.35536880287E+03  0.40472318152E+03  0.17300000000E+03 0. -1.
         -6    1    1    2    0  502 -0.56951395198E+02  0.65889348065E+02 -0.65730407014E+01  0.19379647176E+03  0.17300000000E+03 0. -1.
<mgrwt>
<rscale>  2 0.19368497E+03</rscale>
<asrwt>0</asrwt>
<pdfrwt beam="1">  1       21 0.18198293E-01 0.19368497E+03</pdfrwt>
<pdfrwt beam="2">  1       21 0.73881655E-01 0.19368497E+03</pdfrwt>
<totfact> 0.45211897E+04</totfact>
</mgrwt>
</event>
<event>
 4    1  0.4072310E+000  0.2217465E+03  0.7546771E-02  0.1132588E+00
         21   -1    0    0  501  502  0.00000000000E+00  0.00000000000E+00  0.30497728091E+03  0.30497728091E+03  0.00000000000E+00 0. -1.
         21   -1    0    0  502  503 -0.00000000000E+00 -0.00000000000E+00 -0.19628156022E+03  0.19628156022E+03  0.00000000000E+00 0. -1.
          6    1    1    2  501    0  0.33323423627E+01 -0.13867731285E+03  0.16025998485E+03  0.27359598745E+03  0.17300000000E+03 0. -1.
         -6    1    1    2    0  503 -0.33323423627E+01  0.13867731285E+03 -0.51564264163E+02  0.22766285368E+03  0.17300000000E+03 0. -1.
<mgrwt>
<rscale>  2 0.22174648E+03</rscale>
<asrwt>0</asrwt>
<pdfrwt beam="1">  1       21 0.46919582E-01 0.22174648E+03</pdfrwt>
<pdfrwt beam="2">  1       21 0.30197163E-01 0.22174648E+03</pdfrwt>
<totfact> 0.45105121E+04</totfact>
</mgrwt>
</event>
<event>
 4    1  0.4072310E+000  0.1926609E+03  0.7546771E-02  0.1156083E+00
         21   -1    0    0  501  502  0.00000000000E+00  0.00000000000E+00  0.68020365390E+02  0.68020365390E+02  0.00000000000E+00 0. -1.
         21   -1    0    0  502  503 -0.00000000000E+00 -0.00000000000E+00 -0.59304624532E+03  0.59304624532E+03  0.00000000000E+00 0. -1.
          6    1    1    2  501    0  0.64587973451E+02 -0.54932959026E+02 -0.16911315326E+03  0.25635423715E+03  0.17300000000E+03 0. -1.
         -6    1    1    2    0  503 -0.64587973451E+02  0.54932959026E+02 -0.35591272667E+03  0.40471237356E+03  0.17300000000E+03 0. -1.
<mgrwt>
<rscale>  2 0.19266094E+03</rscale>
<asrwt>0</asrwt>
<pdfrwt beam="1">  1       21 0.10464672E-01 0.19266094E+03</pdfrwt>
<pdfrwt beam="2">  1       21 0.91237883E-01 0.19266094E+03</pdfrwt>
<totfact> 0.76219241E+04</totfact>
</mgrwt>
</event>
<event>
 4    1  0.4072310E+000  0.1804552E+03  0.7546771E-02  0.1167363E+00
         21   -1    0    0  503  502  0.00000000000E+00  0.00000000000E+00  0.24523827588E+03  0.24523827588E+03  0.00000000000E+00 0.  1.
         21   -1    0    0  501  503 -0.00000000000E+00 -0.00000000000E+00 -0.13337298723E+03  0.13337298723E+03  0.00000000000E+00 0.  1.
          6    1    1    2  501    0  0.13895129107E+02  0.49416688014E+02  0.68496818789E+02  0.19301786925E+03  0.17300000000E+03 0.  1.
         -6    1    1    2    0  502 -0.13895129107E+02 -0.49416688014E+02  0.43368469860E+02  0.18559339386E+03  0.17300000000E+03 0.  1.
<mgrwt>
<rscale>  2 0.18045521E+03</rscale>
<asrwt>0</asrwt>
<pdfrwt beam="1">  1       21 0.37728965E-01 0.18045521E+03</pdfrwt>
<pdfrwt beam="2">  1       21 0.20518921E-01 0.18045521E+03</pdfrwt>
<totfact> 0.14966167E+05</totfact>
</mgrwt>
</event>
<event>
 4    1  0.4072310E+000  0.2617410E+03  0.7546771E-02  0.1106102E+00
         21   -1    0    0  503  502  0.00000000000E+00  0.00000000000E+00  0.67651597039E+02  0.67651597039E+02  0.00000000000E+00 0.  1.
         21   -1    0    0  501  503 -0.00000000000E+00 -0.00000000000E+00 -0.13696317525E+04  0.13696317525E+04  0.00000000000E+00 0. -1.
          6    1    1    2  501    0  0.47801139234E+02 -0.19051089527E+03 -0.10178707760E+04  0.10509849032E+04  0.17300000000E+03 0. -1.
         -6    1    1    2    0  502 -0.47801139234E+02  0.19051089527E+03 -0.28410937939E+03  0.38629844627E+03  0.17300000000E+03 0.  1.
<mgrwt>
<rscale>  2 0.26174100E+03</rscale>
<asrwt>0</asrwt>
<pdfrwt beam="1">  1       21 0.10407938E-01 0.26174100E+03</pdfrwt>
<pdfrwt beam="2">  1       21 0.21071257E+00 0.26174100E+03</pdfrwt>
<totfact> 0.82306663E+03</totfact>
</mgrwt>
</event>
<event>
 4    1  0.4072310E+000  0.2640111E+03  0.7546771E-02  0.1104757E+00
         21   -1    0    0  501  502  0.00000000000E+00  0.00000000000E+00  0.58982420875E+03  0.58982420875E+03  0.00000000000E+00 0.  1.
         21   -1    0    0  502  503 -0.00000000000E+00 -0.00000000000E+00 -0.14775428962E+03  0.14775428962E+03  0.00000000000E+00 0. -1.
          6    1    1    2  501    0 -0.19940021593E+03  0.35198889518E+01  0.38604487442E+03  0.46768844415E+03  0.17300000000E+03 0.  1.
         -6    1    1    2    0  503  0.19940021593E+03 -0.35198889518E+01  0.56025044722E+02  0.26989005422E+03  0.17300000000E+03 0. -1.
<mgrwt>
<rscale>  2 0.26401105E+03</rscale>
<asrwt>0</asrwt>
<pdfrwt beam="1">  1       21 0.90742185E-01 0.26401105E+03</pdfrwt>
<pdfrwt beam="2">  1       21 0.22731429E-01 0.26401105E+03</pdfrwt>
<totfact> 0.17982419E+04</totfact>
</mgrwt>
</event>
<event>
 4    1  0.4072310E+000  0.2495189E+03  0.7546771E-02  0.1113609E+00
         21   -1    0    0  501  502  0.00000000000E+00  0.00000000000E+00  0.63982919573E+03  0.63982919573E+03  0.00000000000E+00 0.  1.
         21   -1    0    0  502  503 -0.00000000000E+00 -0.00000000000E+00 -0.11110260037E+03  0.11110260037E+03  0.00000000000E+00 0. -1.
          6    1    1    2  501    0 -0.17013087992E+03 -0.58190957053E+02  0.39667020584E+03  0.46862240235E+03  0.17300000000E+03 0.  1.
         -6    1    1    2    0  503  0.17013087992E+03  0.58190957053E+02  0.13205638952E+03  0.28230939375E+03  0.17300000000E+03 0.  1.
<mgrwt>
<rscale>  2 0.24951894E+03</rscale>
<asrwt>0</asrwt>
<pdfrwt beam="1">  1       21 0.98435259E-01 0.24951894E+03</pdfrwt>
<pdfrwt beam="2">  1       21 0.17092708E-01 0.24951894E+03</pdfrwt>
<totfact> 0.25527554E+04</totfact>
</mgrwt>
</event>
<event>
 4    1  0.4072310E+000  0.1949246E+03  0.7546771E-02  0.1154093E+00
         21   -1    0    0  503  502  0.00000000000E+00  0.00000000000E+00  0.68084454485E+02  0.68084454485E+02  0.00000000000E+00 0. -1.
         21   -1    0    0  501  503 -0.00000000000E+00 -0.00000000000E+00 -0.56824605854E+03  0.56824605854E+03  0.00000000000E+00 0.  1.
          6    1    1    2  501    0 -0.85158061492E+02 -0.28543226463E+02 -0.29266634311E+03  0.35163788135E+03  0.17300000000E+03 0.  1.
         -6    1    1    2    0  502  0.85158061492E+02  0.28543226463E+02 -0.20749526095E+03  0.28469263168E+03  0.17300000000E+03 0. -1.
<mgrwt>
<rscale>  2 0.19492463E+03</rscale>
<asrwt>0</asrwt>
<pdfrwt beam="1">  1       21 0.10474531E-01 0.19492463E+03</pdfrwt>
<pdfrwt beam="2">  1       21 0.87422473E-01 0.19492463E+03</pdfrwt>
<totfact> 0.83901263E+04</totfact>
</mgrwt>
</event>
<event>
 4    1  0.4072310E+000  0.5663258E+03  0.7546771E-02  0.9977842E-01
         21   -1    0    0  501  502  0.00000000000E+00  0.00000000000E+00  0.46268935863E+03  0.46268935863E+03  0.00000000000E+00 0.  1.
         21   -1    0    0  502  503 -0.00000000000E+00 -0.00000000000E+00 -0.87122630304E+03  0.87122630304E+03  0.00000000000E+00 0. -1.
          6    1    1    2  501    0 -0.16268651948E+03 -0.51412937417E+03  0.97243723086E+02  0.57461400843E+03  0.17300000000E+03 0.  1.
         -6    1    1    2    0  503  0.16268651948E+03  0.51412937417E+03 -0.50578066750E+03  0.75930165325E+03  0.17300000000E+03 0. -1.
<mgrwt>
<rscale>  2 0.56632580E+03</rscale>
<asrwt>0</asrwt>
<pdfrwt beam="1">  1       21 0.71182979E-01 0.56632580E+03</pdfrwt>
<pdfrwt beam="2">  1       21 0.13403481E+00 0.56632580E+03</pdfrwt>
<totfact> 0.57182527E+02</totfact>
</mgrwt>
</event>
<event>
 4    1  0.4072310E+000  0.2063313E+03  0.7546771E-02  0.1144505E+00
         21   -1    0    0  501  502  0.00000000000E+00  0.00000000000E+00  0.12084250819E+03  0.12084250819E+03  0.00000000000E+00 0.  1.
         21   -1    0    0  502  503 -0.00000000000E+00 -0.00000000000E+00 -0.38537304082E+03  0.38537304082E+03  0.00000000000E+00 0.  1.
          6    1    1    2  501    0 -0.10376416312E+02  0.11196393988E+03 -0.58114791959E+02  0.21435933125E+03  0.17300000000E+03 0. -1.
         -6    1    1    2    0  503  0.10376416312E+02 -0.11196393988E+03 -0.20641574067E+03  0.29185621776E+03  0.17300000000E+03 0. -1.
<mgrwt>
<rscale>  2 0.20633127E+03</rscale>
<asrwt>0</asrwt>
<pdfrwt beam="1">  1       21 0.18591155E-01 0.20633127E+03</pdfrwt>
<pdfrwt beam="2">  1       21 0.59288161E-01 0.20633127E+03</pdfrwt>
<totfact> 0.69870934E+04</totfact>
</mgrwt>
</event>
<event>
 4    1  0.4072310E+000  0.1770961E+03  0.7546771E-02  0.1170643E+00
         21   -1    0    0  503  502  0.00000000000E+00  0.00000000000E+00  0.92100269533E+02  0.92100269533E+02  0.00000000000E+00 0.  1.
         21   -1    0    0  501  503 -0.00000000000E+00 -0.00000000000E+00 -0.71804374781E+03  0.71804374781E+03  0.00000000000E+00 0.  1.
          6    1    1    2  501    0  0.31098683387E+02 -0.21607714854E+02 -0.60668424484E+03  0.63200379302E+03  0.17300000000E+03 0.  1.
         -6    1    1    2    0  502 -0.31098683387E+02  0.21607714854E+02 -0.19259233435E+02  0.17814022432E+03  0.17300000000E+03 0.  1.
<mgrwt>
<rscale>  2 0.17709608E+03</rscale>
<asrwt>0</asrwt>
<pdfrwt beam="1">  1       21 0.14169271E-01 0.17709608E+03</pdfrwt>
<pdfrwt beam="2">  1       21 0.11046828E+00 0.17709608E+03</pdfrwt>
<totfact> 0.28381238E+04</totfact>
</mgrwt>
</event>
<event>
 4    1  0.4072310E+000  0.1967349E+03  0.7546771E-02  0.1152523E+00
         21   -1    0    0  503  502  0.00000000000E+00  0.00000000000E+00  0.22018329650E+03  0.22018329650E+03  0.00000000000E+00 0. -1.
         21   -1    0    0  501  503 -0.00000000000E+00 -0.00000000000E+00 -0.18285922546E+03  0.18285922546E+03  0.00000000000E+00 0.  1.
          6    1    1    2  501    0  0.52526564669E+02 -0.77566747840E+02  0.58302704077E+02  0.20519221640E+03  0.17300000000E+03 0. -1.
         -6    1    1    2    0  502 -0.52526564669E+02  0.77566747840E+02 -0.20978633035E+02  0.19785030556E+03  0.17300000000E+03 0.  1.
<mgrwt>
<rscale>  2 0.19673495E+03</rscale>
<asrwt>0</asrwt>
<pdfrwt beam="1">  1       21 0.33874353E-01 0.19673495E+03</pdfrwt>
<pdfrwt beam="2">  1       21 0.28132189E-01 0.19673495E+03</pdfrwt>
<totfact> 0.10120023E+05</totfact>
</mgrwt>
</event>
<event>
 4    1  0.4072310E+000  0.2472601E+03  0.7546771E-02  0.1115049E+00
         21   -1    0    0  501  502  0.00000000000E+00  0.00000000000E+00  0.26124625186E+03  0.26124625186E+03  0.00000000000E+00 0. -1.
         21   -1    0    0  502  503 -0.00000000000E+00 -0.00000000000E+00 -0.27116852350E+03  0.27116852350E+03  0.00000000000E+00 0. -1.
          6    1    1    2  501    0  0.30457347365E+02 -0.17401413272E+03  0.93565832893E+02  0.26437120395E+03  0.17300000000E+03 0. -1.
         -6    1    1    2    0  503 -0.30457347365E+02  0.17401413272E+03 -0.10348810453E+03  0.26804357141E+03  0.17300000000E+03 0. -1.
<mgrwt>
<rscale>  2 0.24726012E+03</rscale>
<asrwt>0</asrwt>
<pdfrwt beam="1">  1       21 0.40191731E-01 0.24726012E+03</pdfrwt>
<pdfrwt beam="2">  1       21 0.41718234E-01 0.24726012E+03</pdfrwt>
<totfact> 0.32118064E+04</totfact>
</mgrwt>
</event>
<event>
 4    1  0.4072310E+000  0.1933529E+03  0.7546771E-02  0.1155472E+00
         21   -1    0    0  503  502  0.00000000000E+00  0.00000000000E+00  0.11150352096E+03  0.11150352096E+03  0.00000000000E+00 0. -1.
         21   -1    0    0  501  503 -0.00000000000E+00 -0.00000000000E+00 -0.37205955194E+03  0.37205955194E+03  0.00000000000E+00 0. -1.
          6    1    1    2  501    0  0.70346641406E+02 -0.50076853144E+02 -0.20629257557E+03  0.28274010666E+03  0.17300000000E+03 0. -1.
         -6    1    1    2    0  502 -0.70346641406E+02  0.50076853144E+02 -0.54263455406E+02  0.20082296624E+03  0.17300000000E+03 0. -1.
<mgrwt>
<rscale>  2 0.19335289E+03</rscale>
<asrwt>0</asrwt>
<pdfrwt beam="1">  1       21 0.17154388E-01 0.19335289E+03</pdfrwt>
<pdfrwt beam="2">  1       21 0.57239932E-01 0.19335289E+03</pdfrwt>
<totfact> 0.87909954E+04</totfact>
</mgrwt>
</event>
<event>
 4    1  0.4072310E+000  0.1934845E+03  0.7546771E-02  0.1155356E+00
         21   -1    0    0  501  502  0.00000000000E+00  0.00000000000E+00  0.64049488415E+02  0.64049488415E+02  0.00000000000E+00 0.  1.
         21   -1    0    0  502  503 -0.00000000000E+00 -0.00000000000E+00 -0.75166150243E+03  0.75166150243E+03  0.00000000000E+00 0.  1.
          6    1    1    2  501    0  0.42987440221E+01 -0.86537725755E+02 -0.15146279627E+03  0.24571779715E+03  0.17300000000E+03 0.  1.
         -6    1    1    2    0  503 -0.42987440221E+01  0.86537725755E+02 -0.53614921774E+03  0.56999319370E+03  0.17300000000E+03 0.  1.
<mgrwt>
<rscale>  2 0.19348451E+03</rscale>
<asrwt>0</asrwt>
<pdfrwt beam="1">  1       21 0.98537674E-02 0.19348451E+03</pdfrwt>
<pdfrwt beam="2">  1       21 0.11564023E+00 0.19348451E+03</pdfrwt>
<totfact> 0.48150505E+04</totfact>
</mgrwt>
</event>
<event>
 4    1  0.4072310E+000  0.1969406E+03  0.7546771E-02  0.1152346E+00
         21   -1    0    0  501  502  0.00000000000E+00  0.00000000000E+00  0.18949164856E+03  0.18949164856E+03  0.00000000000E+00 0. -1.
         21   -1    0    0  502  503 -0.00000000000E+00 -0.00000000000E+00 -0.22322290829E+03  0.22322290829E+03  0.00000000000E+00 0.  1.
          6    1    1    2  501    0  0.65394303534E+02  0.67676961530E+02  0.42606353797E+02  0.20149661893E+03  0.17300000000E+03 0. -1.
         -6    1    1    2    0  503 -0.65394303534E+02 -0.67676961530E+02 -0.76337613530E+02  0.21121793791E+03  0.17300000000E+03 0. -1.
<mgrwt>
<rscale>  2 0.19694056E+03</rscale>
<asrwt>0</asrwt>
<pdfrwt beam="1">  1       21 0.29152561E-01 0.19694056E+03</pdfrwt>
<pdfrwt beam="2">  1       21 0.34341986E-01 0.19694056E+03</pdfrwt>
<totfact> 0.91905620E+04</totfact>
</mgrwt>
</event>
<event>
 4    1  0.4072310E+000  0.2127617E+03  0.7546771E-02  0.1139397E+00
         21   -1    0    0  501  502  0.00000000000E+00  0.00000000000E+00  0.15262695388E+03  0.15262695388E+03  0.00000000000E+00 0. -1.
         21   -1    0    0  502  503 -0.00000000000E+00 -0.00000000000E+00 -0.30438237423E+03  0.30438237423E+03  0.00000000000E+00 0.  1.
          6    1    1    2  501    0  0.79716512021E+02 -0.94783022686E+02 -0.39315228974E+02  0.21636365431E+03  0.17300000000E+03 0. -1.
         -6    1    1    2    0  503 -0.79716512021E+02  0.94783022686E+02 -0.11244019138E+03  0.24064567380E+03  0.17300000000E+03 0.  1.
<mgrwt>
<rscale>  2 0.21276171E+03</rscale>
<asrwt>0</asrwt>
<pdfrwt beam="1">  1       21 0.23481070E-01 0.21276171E+03</pdfrwt>
<pdfrwt beam="2">  1       21 0.46828058E-01 0.21276171E+03</pdfrwt>
<totfact> 0.73852668E+04</totfact>
</mgrwt>
</event>
<event>
 4    1  0.4072310E+000  0.1814436E+03  0.7546771E-02  0.1166413E+00
         21   -1    0    0  501  502  0.00000000000E+00  0.00000000000E+00  0.68608063462E+03  0.68608063462E+03  0.00000000000E+00 0.  1.
         21   -1    0    0  502  503 -0.00000000000E+00 -0.00000000000E+00 -0.10371326397E+03  0.10371326397E+03  0.00000000000E+00 0.  1.
          6    1    1    2  501    0 -0.51322958228E+02  0.18940417716E+02  0.58065345366E+03  0.60834218883E+03  0.17300000000E+03 0.  1.
         -6    1    1    2    0  503  0.51322958228E+02 -0.18940417716E+02  0.17139169875E+01  0.18145170976E+03  0.17300000000E+03 0.  1.
<mgrwt>
<rscale>  2 0.18144362E+03</rscale>
<asrwt>0</asrwt>
<pdfrwt beam="1">  1       21 0.10555086E+00 0.18144362E+03</pdfrwt>
<pdfrwt beam="2">  1       21 0.15955887E-01 0.18144362E+03</pdfrwt>
<totfact> 0.25452361E+04</totfact>
</mgrwt>
</event>
<event>
 4    1  0.4072310E+000  0.2151040E+03  0.7546771E-02  0.1137587E+00
         21   -1    0    0  501  502  0.00000000000E+00  0.00000000000E+00  0.23659631587E+03  0.23659631587E+03  0.00000000000E+00 0.  1.
         21   -1    0    0  502  503 -0.00000000000E+00 -0.00000000000E+00 -0.26058977121E+03  0.26058977121E+03  0.00000000000E+00 0.  1.
          6    1    1    2  501    0 -0.99382955859E+02 -0.80397471721E+02  0.11218365569E+03  0.24260028437E+03  0.17300000000E+03 0.  1.
         -6    1    1    2    0  503  0.99382955859E+02  0.80397471721E+02 -0.13617711103E+03  0.25458580271E+03  0.17300000000E+03 0.  1.
<mgrwt>
<rscale>  2 0.21510399E+03</rscale>
<asrwt>0</asrwt>
<pdfrwt beam="1">  1       21 0.36399433E-01 0.21510399E+03</pdfrwt>
<pdfrwt beam="2">  1       21 0.40090734E-01 0.21510399E+03</pdfrwt>
<totfact> 0.43161417E+04</totfact>
</mgrwt>
</event>
<event>
 4    1  0.4072310E+000  0.2208789E+03  0.7546771E-02  0.1133229E+00
         21   -1    0    0  501  502  0.00000000000E+00  0.00000000000E+00  0.21650787690E+03  0.21650787690E+03  0.00000000000E+00 0.  1.
         21   -1    0    0  502  503 -0.00000000000E+00 -0.00000000000E+00 -0.22667202814E+03  0.22667202814E+03  0.00000000000E+00 0.  1.
          6    1    1    2  501    0 -0.14662861715E+02  0.13654118459E+03 -0.22080220870E+02  0.22197979808E+03  0.17300000000E+03 0.  1.
         -6    1    1    2    0  503  0.14662861715E+02 -0.13654118459E+03  0.11916069637E+02  0.22120010696E+03  0.17300000000E+03 0.  1.
<mgrwt>
<rscale>  2 0.22087891E+03</rscale>
<asrwt>0</asrwt>
<pdfrwt beam="1">  1       21 0.33308904E-01 0.22087891E+03</pdfrwt>
<pdfrwt beam="2">  1       21 0.34872620E-01 0.22087891E+03</pdfrwt>
<totfact> 0.67958012E+04</totfact>
</mgrwt>
</event>
<event>
 4    1  0.4072310E+000  0.1760025E+03  0.7546771E-02  0.1171729E+00
         21   -1    0    0  503  502  0.00000000000E+00  0.00000000000E+00  0.39191181679E+02  0.39191181679E+02  0.00000000000E+00 0.  1.
         21   -1    0    0  501  503 -0.00000000000E+00 -0.00000000000E+00 -0.80987734124E+03  0.80987734124E+03  0.00000000000E+00 0.  1.
          6    1    1    2  501    0  0.31426404738E+02  0.77619462275E+01 -0.45117300617E+03  0.48428705147E+03  0.17300000000E+03 0.  1.
         -6    1    1    2    0  502 -0.31426404738E+02 -0.77619462275E+01 -0.31951315339E+03  0.36478147145E+03  0.17300000000E+03 0.  1.
<mgrwt>
<rscale>  2 0.17600246E+03</rscale>
<asrwt>0</asrwt>
<pdfrwt beam="1">  1       21 0.60294129E-02 0.17600246E+03</pdfrwt>
<pdfrwt beam="2">  1       21 0.12459651E+00 0.17600246E+03</pdfrwt>
<totfact> 0.94738103E+04</totfact>
</mgrwt>
</event>
<event>
 4    1  0.4072310E+000  0.2006054E+03  0.7546771E-02  0.1149229E+00
         21   -1    0    0  501  502  0.00000000000E+00  0.00000000000E+00  0.81021352574E+02  0.81021352574E+02  0.00000000000E+00 0. -1.
         21   -1    0    0  502  503 -0.00000000000E+00 -0.00000000000E+00 -0.62125429290E+03  0.62125429290E+03  0.00000000000E+00 0. -1.
          6    1    1    2  501    0 -0.87954885053E+02  0.50768586683E+02 -0.11288504220E+03  0.23018588999E+03  0.17300000000E+03 0. -1.
         -6    1    1    2    0  503  0.87954885053E+02 -0.50768586683E+02 -0.42734789812E+03  0.47208975548E+03  0.17300000000E+03 0. -1.
<mgrwt>
<rscale>  2 0.20060536E+03</rscale>
<asrwt>0</asrwt>
<pdfrwt beam="1">  1       21 0.12464824E-01 0.20060536E+03</pdfrwt>
<pdfrwt beam="2">  1       21 0.95577583E-01 0.20060536E+03</pdfrwt>
<totfact> 0.49862995E+04</totfact>
</mgrwt>
</event>
<event>
 4    1  0.4072310E+000  0.1890447E+03  0.7546771E-02  0.1159326E+00
         21   -1    0    0  503  502  0.00000000000E+00  0.00000000000E+00  0.60827109583E+02  0.60827109583E+02  0.00000000000E+00 0. -1.
         21   -1    0    0  501  503 -0.00000000000E+00 -0.00000000000E+00 -0.61682070413E+03  0.61682070413E+03  0.00000000000E+00 0.  1.
          6    1    1    2  501    0  0.74437021493E+02 -0.16372118341E+02 -0.35182790797E+03  0.39940054238E+03  0.17300000000E+03 0.  1.
         -6    1    1    2    0  502 -0.74437021493E+02  0.16372118341E+02 -0.20416568658E+03  0.27824727133E+03  0.17300000000E+03 0. -1.
<mgrwt>
<rscale>  2 0.18904475E+03</rscale>
<asrwt>0</asrwt>
<pdfrwt beam="1">  1       21 0.93580165E-02 0.18904475E+03</pdfrwt>
<pdfrwt beam="2">  1       21 0.94895497E-01 0.18904475E+03</pdfrwt>
<totfact> 0.84844143E+04</totfact>
</mgrwt>
</event>
<event>
 4    1  0.4072310E+000  0.2262203E+03  0.7546771E-02  0.1129329E+00
         21   -1    0    0  503  502  0.00000000000E+00  0.00000000000E+00  0.11607170139E+03  0.11607170139E+03  0.00000000000E+00 0. -1.
         21   -1    0    0  501  503 -0.00000000000E+00 -0.00000000000E+00 -0.47324291106E+03  0.47324291106E+03  0.00000000000E+00 0. -1.
          6    1    1    2  501    0  0.12435646382E+03 -0.76040201949E+02 -0.25562026166E+03  0.34134639382E+03  0.17300000000E+03 0. -1.
         -6    1    1    2    0  502 -0.12435646382E+03  0.76040201949E+02 -0.10155094802E+03  0.24796821863E+03  0.17300000000E+03 0. -1.
<mgrwt>
<rscale>  2 0.22622034E+03</rscale>
<asrwt>0</asrwt>
<pdfrwt beam="1">  1       21 0.17857185E-01 0.22622034E+03</pdfrwt>
<pdfrwt beam="2">  1       21 0.72806602E-01 0.22622034E+03</pdfrwt>
<totfact> 0.47619822E+04</totfact>
</mgrwt>
</event>
<event>
 4    1  0.4072310E+000  0.1868124E+03  0.7546771E-02  0.1161368E+00
         21   -1    0    0  503  502  0.00000000000E+00  0.00000000000E+00  0.92575233443E+02  0.92575233443E+02  0.00000000000E+00 0. -1.
         21   -1    0    0  501  503 -0.00000000000E+00 -0.00000000000E+00 -0.46410166709E+03  0.46410166709E+03  0.00000000000E+00 0. -1.
          6    1    1    2  501    0 -0.69703459796E+02  0.10550420312E+02 -0.30635929113E+03  0.35882432880E+03  0.17300000000E+03 0. -1.
         -6    1    1    2    0  502  0.69703459796E+02 -0.10550420312E+02 -0.65167142511E+02  0.19785257173E+03  0.17300000000E+03 0. -1.
<mgrwt>
<rscale>  2 0.18681243E+03</rscale>
<asrwt>0</asrwt>
<pdfrwt beam="1">  1       21 0.14242343E-01 0.18681243E+03</pdfrwt>
<pdfrwt beam="2">  1       21 0.71400257E-01 0.18681243E+03</pdfrwt>
<totfact> 0.76634973E+04</totfact>
</mgrwt>
</event>
<event>
 4    1  0.4072310E+000  0.3399401E+03  0.7546771E-02  0.1066821E+00
         21   -1    0    0  501  502  0.00000000000E+00  0.00000000000E+00  0.39539933378E+03  0.39539933378E+03  0.00000000000E+00 0. -1.
         21   -1    0    0  502  503 -0.00000000000E+00 -0.00000000000E+00 -0.75203783647E+03  0.75203783647E+03  0.00000000000E+00 0. -1.
          6    1    1    2  501    0  0.11589495711E+03  0.26869798001E+03  0.27027456712E+03  0.43428975025E+03  0.17300000000E+03 0. -1.
         -6    1    1    2    0  503 -0.11589495711E+03 -0.26869798001E+03 -0.62691306981E+03  0.71314742000E+03  0.17300000000E+03 0. -1.
<mgrwt>
<rscale>  2 0.33994006E+03</rscale>
<asrwt>0</asrwt>
<pdfrwt beam="1">  1       21 0.60830667E-01 0.33994006E+03</pdfrwt>
<pdfrwt beam="2">  1       21 0.11569813E+00 0.33994006E+03</pdfrwt>
<totfact> 0.13049928E+03</totfact>
</mgrwt>
</event>
<event>
 4    1  0.4072310E+000  0.1815058E+03  0.7546771E-02  0.1166354E+00
         21   -1    0    0  501  502  0.00000000000E+00  0.00000000000E+00  0.13130839638E+04  0.13130839638E+04  0.00000000000E+00 0.  1.
         21   -1    0    0  502  503 -0.00000000000E+00 -0.00000000000E+00 -0.25401508792E+02  0.25401508792E+02  0.00000000000E+00 0.  1.
          6    1    1    2  501    0 -0.17960097095E+02 -0.51891963236E+02  0.71803803922E+03  0.74062336359E+03  0.17300000000E+03 0.  1.
         -6    1    1    2    0  503  0.17960097095E+02  0.51891963236E+02  0.56964441582E+03  0.59786210903E+03  0.17300000000E+03 0.  1.
<mgrwt>
<rscale>  2 0.18150576E+03</rscale>
<asrwt>0</asrwt>
<pdfrwt beam="1">  1       21 0.20201286E+00 0.18150576E+03</pdfrwt>
<pdfrwt beam="2">  1       21 0.39079255E-02 0.18150576E+03</pdfrwt>
<totfact> 0.53496657E+04</totfact>
</mgrwt>
</event>
<event>
 4    1  0.4072310E+000  0.2692484E+03  0.7546771E-02  0.1101711E+00
         21   -1    0    0  503  502  0.00000000000E+00  0.00000000000E+00  0.20870614199E+03  0.20870614199E+03  0.00000000000E+00 0.  1.
         21   -1    0    0  501  503 -0.00000000000E+00 -0.00000000000E+00 -0.36356342743E+03  0.36356342743E+03  0.00000000000E+00 0. -1.
          6    1    1    2  501    0 -0.17928631531E+03 -0.10208876141E+03 -0.13784829359E+03  0.30248446259E+03  0.17300000000E+03 0. -1.
         -6    1    1    2    0  502  0.17928631531E+03  0.10208876141E+03 -0.17008991841E+02  0.26978510683E+03  0.17300000000E+03 0.  1.
<mgrwt>
<rscale>  2 0.26924839E+03</rscale>
<asrwt>0</asrwt>
<pdfrwt beam="1">  1       21 0.32108638E-01 0.26924839E+03</pdfrwt>
<pdfrwt beam="2">  1       21 0.55932834E-01 0.26924839E+03</pdfrwt>
<totfact> 0.27043524E+04</totfact>
</mgrwt>
</event>
<event>
 4    1  0.4072310E+000  0.1789300E+03  0.7546771E-02  0.1168843E+00
         21   -1    0    0  501  502  0.00000000000E+00  0.00000000000E+00  0.12633649212E+03  0.12633649212E+03  0.00000000000E+00 0. -1.
         21   -1    0    0  502  503 -0.00000000000E+00 -0.00000000000E+00 -0.26612396961E+03  0.26612396961E+03  0.00000000000E+00 0. -1.
          6    1    1    2  501    0  0.31860603650E+02 -0.32739002375E+02 -0.27016388848E+02  0.18095807693E+03  0.17300000000E+03 0. -1.
         -6    1    1    2    0  503 -0.31860603650E+02  0.32739002375E+02 -0.11277108863E+03  0.21150238479E+03  0.17300000000E+03 0. -1.
<mgrwt>
<rscale>  2 0.17892999E+03</rscale>
<asrwt>0</asrwt>
<pdfrwt beam="1">  1       21 0.19436384E-01 0.17892999E+03</pdfrwt>
<pdfrwt beam="2">  1       21 0.40942148E-01 0.17892999E+03</pdfrwt>
<totfact> 0.14054540E+05</totfact>
</mgrwt>
</event>
<event>
 4    1  0.4072310E+000  0.2468325E+03  0.7546771E-02  0.1115323E+00
         21   -1    0    0  503  502  0.00000000000E+00  0.00000000000E+00  0.45247645709E+02  0.45247645709E+02  0.00000000000E+00 0. -1.
         21   -1    0    0  501  503 -0.00000000000E+00 -0.00000000000E+00 -0.21667817715E+04  0.21667817715E+04  0.00000000000E+00 0.  1.
          6    1    1    2  501    0  0.16753896762E+03  0.54110903867E+02 -0.17412744646E+04  0.17586821932E+04  0.17300000000E+03 0.  1.
         -6    1    1    2    0  502 -0.16753896762E+03 -0.54110903867E+02 -0.38025966116E+03  0.45334722398E+03  0.17300000000E+03 0. -1.
<mgrwt>
<rscale>  2 0.24683253E+03</rscale>
<asrwt>0</asrwt>
<pdfrwt beam="1">  1       21 0.69611776E-02 0.24683253E+03</pdfrwt>
<pdfrwt beam="2">  1       21 0.33335098E+00 0.24683253E+03</pdfrwt>
<totfact> 0.31431771E+03</totfact>
</mgrwt>
</event>
<event>
 4    1  0.4072310E+000  0.2026638E+03  0.7546771E-02  0.1147511E+00
         21   -1    0    0  503  502  0.00000000000E+00  0.00000000000E+00  0.13353747637E+03  0.13353747637E+03  0.00000000000E+00 0.  1.
         21   -1    0    0  501  503 -0.00000000000E+00 -0.00000000000E+00 -0.40060235415E+03  0.40060235415E+03  0.00000000000E+00 0.  1.
          6    1    1    2  501    0  0.96697596230E+02 -0.42345896291E+02 -0.26223193976E+03  0.33141845193E+03  0.17300000000E+03 0.  1.
         -6    1    1    2    0  502 -0.96697596230E+02  0.42345896291E+02 -0.48329380191E+01  0.20272137859E+03  0.17300000000E+03 0.  1.
<mgrwt>
<rscale>  2 0.20266376E+03</rscale>
<asrwt>0</asrwt>
<pdfrwt beam="1">  1       21 0.20544228E-01 0.20266376E+03</pdfrwt>
<pdfrwt beam="2">  1       21 0.61631130E-01 0.20266376E+03</pdfrwt>
<totfact> 0.53433619E+04</totfact>
</mgrwt>
</event>
<event>
 4    1  0.4072310E+000  0.1975007E+03  0.7546771E-02  0.1151865E+00
         21   -1    0    0  503  502  0.00000000000E+00  0.00000000000E+00  0.13477845908E+03  0.13477845908E+03  0.00000000000E+00 0. -1.
         21   -1    0    0  501  503 -0.00000000000E+00 -0.00000000000E+00 -0.29496598224E+03  0.29496598224E+03  0.00000000000E+00 0.  1.
          6    1    1    2  501    0 -0.75435586267E+02  0.58197847493E+02 -0.50609343103E+02  0.20388188428E+03  0.17300000000E+03 0. -1.
         -6    1    1    2    0  502  0.75435586267E+02 -0.58197847493E+02 -0.10957818005E+03  0.22586255704E+03  0.17300000000E+03 0.  1.
<mgrwt>
<rscale>  2 0.19750068E+03</rscale>
<asrwt>0</asrwt>
<pdfrwt beam="1">  1       21 0.20735148E-01 0.19750068E+03</pdfrwt>
<pdfrwt beam="2">  1       21 0.45379382E-01 0.19750068E+03</pdfrwt>
<totfact> 0.10029558E+05</totfact>
</mgrwt>
</event>
<event>
 4    1  0.4072310E+000  0.2654301E+03  0.7546771E-02  0.1103924E+00
         21   -1    0    0  501  502  0.00000000000E+00  0.00000000000E+00  0.70222749883E+02  0.70222749883E+02  0.00000000000E+00 0. -1.
         21   -1    0    0  502  503 -0.00000000000E+00 -0.00000000000E+00 -0.10033082879E+04  0.10033082879E+04  0.00000000000E+00 0. -1.
          6    1    1    2  501    0 -0.10590841346E+03 -0.17119450415E+03 -0.46374313409E+03  0.53433214830E+03  0.17300000000E+03 0. -1.
         -6    1    1    2    0  503  0.10590841346E+03  0.17119450415E+03 -0.46934240391E+03  0.53919888946E+03  0.17300000000E+03 0. -1.
<mgrwt>
<rscale>  2 0.26543012E+03</rscale>
<asrwt>0</asrwt>
<pdfrwt beam="1">  1       21 0.10803500E-01 0.26543012E+03</pdfrwt>
<pdfrwt beam="2">  1       21 0.15435512E+00 0.26543012E+03</pdfrwt>
<totfact> 0.18768011E+04</totfact>
</mgrwt>
</event>
<event>
 4    1  0.4072310E+000  0.2364877E+03  0.7546771E-02  0.1122155E+00
         21   -1    0    0  501  502  0.00000000000E+00  0.00000000000E+00  0.19320095028E+03  0.19320095028E+03  0.00000000000E+00 0.  1.
         21   -1    0    0  502  503 -0.00000000000E+00 -0.00000000000E+00 -0.47281118741E+03  0.47281118741E+03  0.00000000000E+00 0.  1.
          6    1    1    2  501    0  0.14465711033E+03 -0.71216377078E+02  0.67559560717E+02  0.24594866574E+03  0.17300000000E+03 0.  1.
         -6    1    1    2    0  503 -0.14465711033E+03  0.71216377078E+02 -0.34716979784E+03  0.42006347195E+03  0.17300000000E+03 0.  1.
<mgrwt>
<rscale>  2 0.23648774E+03</rscale>
<asrwt>0</asrwt>
<pdfrwt beam="1">  1       21 0.29723224E-01 0.23648774E+03</pdfrwt>
<pdfrwt beam="2">  1       21 0.72740181E-01 0.23648774E+03</pdfrwt>
<totfact> 0.18004642E+04</totfact>
</mgrwt>
</event>
<event>
 4    1  0.4072310E+000  0.1902613E+03  0.7546771E-02  0.1158226E+00
         21   -1    0    0  501  502  0.00000000000E+00  0.00000000000E+00  0.32585798146E+03  0.32585798146E+03  0.00000000000E+00 0.  1.
         21   -1    0    0  502  503 -0.00000000000E+00 -0.00000000000E+00 -0.20113166255E+03  0.20113166255E+03  0.00000000000E+00 0.  1.
          6    1    1    2  501    0  0.28483095487E+01 -0.79134298925E+02  0.23866432874E+03  0.30522125081E+03  0.17300000000E+03 0.  1.
         -6    1    1    2    0  503 -0.28483095487E+01  0.79134298925E+02 -0.11393800983E+03  0.22176839319E+03  0.17300000000E+03 0.  1.
<mgrwt>
<rscale>  2 0.19026127E+03</rscale>
<asrwt>0</asrwt>
<pdfrwt beam="1">  1       21 0.50131997E-01 0.19026127E+03</pdfrwt>
<pdfrwt beam="2">  1       21 0.30943333E-01 0.19026127E+03</pdfrwt>
<totfact> 0.38060277E+04</totfact>
</mgrwt>
</event>
<event>
 4    1  0.4072310E+000  0.2259973E+03  0.7546771E-02  0.1129489E+00
         21   -1    0    0  501  502  0.00000000000E+00  0.00000000000E+00  0.16265645018E+03  0.16265645018E+03  0.00000000000E+00 0.  1.
         21   -1    0    0  502  503 -0.00000000000E+00 -0.00000000000E+00 -0.31492598867E+03  0.31492598867E+03  0.00000000000E+00 0. -1.
          6    1    1    2  501    0 -0.10715721962E+00 -0.14541582563E+03 -0.63214248564E+02  0.23467171761E+03  0.17300000000E+03 0. -1.
         -6    1    1    2    0  503  0.10715721962E+00  0.14541582563E+03 -0.89055289924E+02  0.24291072123E+03  0.17300000000E+03 0.  1.
<mgrwt>
<rscale>  2 0.22599729E+03</rscale>
<asrwt>0</asrwt>
<pdfrwt beam="1">  1       21 0.25024069E-01 0.22599729E+03</pdfrwt>
<pdfrwt beam="2">  1       21 0.48450152E-01 0.22599729E+03</pdfrwt>
<totfact> 0.60601113E+04</totfact>
</mgrwt>
</event>
<event>
 4    1  0.4072310E+000  0.1797260E+03  0.7546771E-02  0.1168069E+00
         21   -1    0    0  503  502  0.00000000000E+00  0.00000000000E+00  0.16261245418E+03  0.16261245418E+03  0.00000000000E+00 0.  1.
         21   -1    0    0  501  503 -0.00000000000E+00 -0.00000000000E+00 -0.33721343153E+03  0.33721343153E+03  0.00000000000E+00 0.  1.
          6    1    1    2  501    0  0.15085991019E+02  0.46312438108E+02 -0.24750525163E+03  0.30587624725E+03  0.17300000000E+03 0.  1.
         -6    1    1    2    0  502 -0.15085991019E+02 -0.46312438108E+02  0.72904274277E+02  0.19394963845E+03  0.17300000000E+03 0.  1.
<mgrwt>
<rscale>  2 0.17972598E+03</rscale>
<asrwt>0</asrwt>
<pdfrwt beam="1">  1       21 0.25017301E-01 0.17972598E+03</pdfrwt>
<pdfrwt beam="2">  1       21 0.51878989E-01 0.17972598E+03</pdfrwt>
<totfact> 0.53680516E+04</totfact>
</mgrwt>
</event>
<event>
 4    1  0.4072310E+000  0.2655291E+03  0.7546771E-02  0.1103866E+00
         21   -1    0    0  501  502  0.00000000000E+00  0.00000000000E+00  0.35101802947E+03  0.35101802947E+03  0.00000000000E+00 0.  1.
         21   -1    0    0  502  503 -0.00000000000E+00 -0.00000000000E+00 -0.36582649067E+03  0.36582649067E+03  0.00000000000E+00 0.  1.
          6    1    1    2  501    0 -0.12972847208E+03  0.15410132329E+03  0.23328378594E+03  0.35345016493E+03  0.17300000000E+03 0.  1.
         -6    1    1    2    0  503  0.12972847208E+03 -0.15410132329E+03 -0.24809224715E+03  0.36339435521E+03  0.17300000000E+03 0.  1.
<mgrwt>
<rscale>  2 0.26552908E+03</rscale>
<asrwt>0</asrwt>
<pdfrwt beam="1">  1       21 0.54002774E-01 0.26552908E+03</pdfrwt>
<pdfrwt beam="2">  1       21 0.56280998E-01 0.26552908E+03</pdfrwt>
<totfact> 0.92116169E+03</totfact>
</mgrwt>
</event>
<event>
 4    1  0.4072310E+000  0.2356561E+03  0.7546771E-02  0.1122721E+00
         21   -1    0    0  503  502  0.00000000000E+00  0.00000000000E+00  0.15483189797E+03  0.15483189797E+03  0.00000000000E+00 0. -1.
         21   -1    0    0  501  503 -0.00000000000E+00 -0.00000000000E+00 -0.49704705843E+03  0.49704705843E+03  0.00000000000E+00 0. -1.
          6    1    1    2  501    0 -0.12009212527E+03 -0.10574818535E+03 -0.34308357193E+03  0.41622125676E+03  0.17300000000E+03 0. -1.
         -6    1    1    2    0  502  0.12009212527E+03  0.10574818535E+03  0.86841147116E+00  0.23565769963E+03  0.17300000000E+03 0. -1.
<mgrwt>
<rscale>  2 0.23565610E+03</rscale>
<asrwt>0</asrwt>
<pdfrwt beam="1">  1       21 0.23820291E-01 0.23565610E+03</pdfrwt>
<pdfrwt beam="2">  1       21 0.76468780E-01 0.23565610E+03</pdfrwt>
<totfact> 0.24696711E+04</totfact>
</mgrwt>
</event>
<event>
 4    1  0.4072310E+000  0.2625413E+03  0.7546771E-02  0.1105626E+00
         21   -1    0    0  501  502  0.00000000000E+00  0.00000000000E+00  0.18258838540E+04  0.18258838540E+04  0.00000000000E+00 0. -1.
         21   -1    0    0  502  503 -0.00000000000E+00 -0.00000000000E+00 -0.41091728447E+02  0.41091728447E+02  0.00000000000E+00 0. -1.
          6    1    1    2  501    0 -0.19747286534E+03  0.18487980261E+01  0.11585833394E+04  0.11879576191E+04  0.17300000000E+03 0. -1.
         -6    1    1    2    0  503  0.19747286534E+03 -0.18487980261E+01  0.62620878616E+03  0.67901796329E+03  0.17300000000E+03 0. -1.
<mgrwt>
<rscale>  2 0.26254133E+03</rscale>
<asrwt>0</asrwt>
<pdfrwt beam="1">  1       21 0.28090515E+00 0.26254133E+03</pdfrwt>
<pdfrwt beam="2">  1       21 0.63218058E-02 0.26254133E+03</pdfrwt>
<totfact> 0.74345100E+03</totfact>
</mgrwt>
</event>
<event>
 4    1  0.4072310E+000  0.1871998E+03  0.7546771E-02  0.1161011E+00
         21   -1    0    0  501  502  0.00000000000E+00  0.00000000000E+00  0.10706839297E+04  0.10706839297E+04  0.00000000000E+00 0. -1.
         21   -1    0    0  502  503 -0.00000000000E+00 -0.00000000000E+00 -0.79373569589E+02  0.79373569589E+02  0.00000000000E+00 0. -1.
          6    1    1    2  501    0 -0.37980692434E+02 -0.60598940434E+02  0.93645994122E+03  0.95498742718E+03  0.17300000000E+03 0. -1.
         -6    1    1    2    0  503  0.37980692434E+02  0.60598940434E+02  0.54850418902E+02  0.19507007211E+03  0.17300000000E+03 0. -1.
<mgrwt>
<rscale>  2 0.18719980E+03</rscale>
<asrwt>0</asrwt>
<pdfrwt beam="1">  1       21 0.16472059E+00 0.18719980E+03</pdfrwt>
<pdfrwt beam="2">  1       21 0.12211319E-01 0.18719980E+03</pdfrwt>
<totfact> 0.13284780E+04</totfact>
</mgrwt>
</event>
<event>
 4    1  0.4072310E+000  0.2006557E+03  0.7546771E-02  0.1149187E+00
         21   -1    0    0  501  502  0.00000000000E+00  0.00000000000E+00  0.21930155488E+03  0.21930155488E+03  0.00000000000E+00 0. -1.
         21   -1    0    0  502  503 -0.00000000000E+00 -0.00000000000E+00 -0.43435064899E+03  0.43435064899E+03  0.00000000000E+00 0.  1.
          6    1    1    2  501    0 -0.34212971491E+02 -0.95724424897E+02  0.14080120811E+03  0.24512787101E+03  0.17300000000E+03 0. -1.
         -6    1    1    2    0  503  0.34212971491E+02  0.95724424897E+02 -0.35585030222E+03  0.40852433285E+03  0.17300000000E+03 0.  1.
<mgrwt>
<rscale>  2 0.20065566E+03</rscale>
<asrwt>0</asrwt>
<pdfrwt beam="1">  1       21 0.33738701E-01 0.20065566E+03</pdfrwt>
<pdfrwt beam="2">  1       21 0.66823176E-01 0.20065566E+03</pdfrwt>
<totfact> 0.17277759E+04</totfact>
</mgrwt>
</event>
<event>
 4    1  0.4072310E+000  0.2089327E+03  0.7546771E-02  0.1142414E+00
         21   -1    0    0  503  502  0.00000000000E+00  0.00000000000E+00  0.23173389590E+03  0.23173389590E+03  0.00000000000E+00 0.  1.
         21   -1    0    0  501  503 -0.00000000000E+00 -0.00000000000E+00 -0.21677531582E+03  0.21677531582E+03  0.00000000000E+00 0.  1.
          6    1    1    2  501    0 -0.91514082975E+02 -0.73137067953E+02 -0.73691266284E+02  0.22154742341E+03  0.17300000000E+03 0.  1.
         -6    1    1    2    0  502  0.91514082975E+02  0.73137067953E+02  0.88649846366E+02  0.22696178831E+03  0.17300000000E+03 0.  1.
<mgrwt>
<rscale>  2 0.20893266E+03</rscale>
<asrwt>0</asrwt>
<pdfrwt beam="1">  1       21 0.35651369E-01 0.20893266E+03</pdfrwt>
<pdfrwt beam="2">  1       21 0.33350048E-01 0.20893266E+03</pdfrwt>
<totfact> 0.65205102E+04</totfact>
</mgrwt>
</event>
<event>
 4    1  0.4072310E+000  0.2255373E+03  0.7546771E-02  0.1129821E+00
         21   -1    0    0  501  502  0.00000000000E+00  0.00000000000E+00  0.34712641140E+03  0.34712641140E+03  0.00000000000E+00 0. -1.
         21   -1    0    0  502  503 -0.00000000000E+00 -0.00000000000E+00 -0.16813453749E+03  0.16813453749E+03  0.00000000000E+00 0. -1.
          6    1    1    2  501    0 -0.20899556368E+02  0.14318267024E+03  0.18183063445E+03  0.28970579583E+03  0.17300000000E+03 0. -1.
         -6    1    1    2    0  503  0.20899556368E+02 -0.14318267024E+03 -0.28387605430E+01  0.22555515306E+03  0.17300000000E+03 0. -1.
<mgrwt>
<rscale>  2 0.22553729E+03</rscale>
<asrwt>0</asrwt>
<pdfrwt beam="1">  1       21 0.53404063E-01 0.22553729E+03</pdfrwt>
<pdfrwt beam="2">  1       21 0.25866852E-01 0.22553729E+03</pdfrwt>
<totfact> 0.46367060E+04</totfact>
</mgrwt>
</event>
<event>
 4    1  0.4072310E+000  0.1845427E+03  0.7546771E-02  0.1163478E+00
         21   -1    0    0  501  502  0.00000000000E+00  0.00000000000E+00  0.46212217970E+02  0.46212217970E+02  0.00000000000E+00 0.  1.
         21   -1    0    0  502  503 -0.00000000000E+00 -0.00000000000E+00 -0.76913350538E+03  0.76913350538E+03  0.00000000000E+00 0.  1.
          6    1    1    2  501    0  0.13440307078E+02 -0.62820194516E+02 -0.27806591337E+03  0.33373143525E+03  0.17300000000E+03 0.  1.
         -6    1    1    2    0  503 -0.13440307078E+02  0.62820194516E+02 -0.44485537404E+03  0.48161428810E+03  0.17300000000E+03 0.  1.
<mgrwt>
<rscale>  2 0.18454273E+03</rscale>
<asrwt>0</asrwt>
<pdfrwt beam="1">  1       21 0.71095717E-02 0.18454273E+03</pdfrwt>
<pdfrwt beam="2">  1       21 0.11832824E+00 0.18454273E+03</pdfrwt>
<totfact> 0.80814493E+04</totfact>
</mgrwt>
</event>
<event>
 4    1  0.4072310E+000  0.1881058E+03  0.7546771E-02  0.1160181E+00
         21   -1    0    0  501  502  0.00000000000E+00  0.00000000000E+00  0.92810573060E+02  0.92810573060E+02  0.00000000000E+00 0.  1.
         21   -1    0    0  502  503 -0.00000000000E+00 -0.00000000000E+00 -0.40188151243E+03  0.40188151243E+03  0.00000000000E+00 0.  1.
          6    1    1    2  501    0 -0.83719006881E+01  0.73380504873E+02 -0.98488888342E+02  0.21232957482E+03  0.17300000000E+03 0.  1.
         -6    1    1    2    0  503  0.83719006881E+01 -0.73380504873E+02 -0.21058205102E+03  0.28236251067E+03  0.17300000000E+03 0.  1.
<mgrwt>
<rscale>  2 0.18810579E+03</rscale>
<asrwt>0</asrwt>
<pdfrwt beam="1">  1       21 0.14278549E-01 0.18810579E+03</pdfrwt>
<pdfrwt beam="2">  1       21 0.61827926E-01 0.18810579E+03</pdfrwt>
<totfact> 0.10439899E+05</totfact>
</mgrwt>
</event>
<event>
 4    1  0.4072310E+000  0.2277673E+03  0.7546771E-02  0.1128221E+00
         21   -1    0    0  501  502  0.00000000000E+00  0.00000000000E+00  0.38605843462E+03  0.38605843462E+03  0.00000000000E+00 0.  1.
         21   -1    0    0  502  503 -0.00000000000E+00 -0.00000000000E+00 -0.22540353784E+03  0.22540353784E+03  0.00000000000E+00 0.  1.
          6    1    1    2  501    0  0.13204243956E+03 -0.67184335782E+02  0.27461259735E+03  0.35677726868E+03  0.17300000000E+03 0.  1.
         -6    1    1    2    0  503 -0.13204243956E+03  0.67184335782E+02 -0.11395770058E+03  0.25468470378E+03  0.17300000000E+03 0.  1.
<mgrwt>
<rscale>  2 0.22776730E+03</rscale>
<asrwt>0</asrwt>
<pdfrwt beam="1">  1       21 0.59393605E-01 0.22776730E+03</pdfrwt>
<pdfrwt beam="2">  1       21 0.34677467E-01 0.22776730E+03</pdfrwt>
<totfact> 0.20806408E+04</totfact>
</mgrwt>
</event>
<event>
 4    1  0.4072310E+000  0.1903457E+03  0.7546771E-02  0.1158150E+00
         21   -1    0    0  503  502  0.00000000000E+00  0.00000000000E+00  0.28419375700E+03  0.28419375700E+03  0.00000000000E+00 0.  1.
         21   -1    0    0  501  503 -0.00000000000E+00 -0.00000000000E+00 -0.19353905580E+03  0.19353905580E+03  0.00000000000E+00 0.  1.
          6    1    1    2  501    0  0.34166814634E+02 -0.71659801673E+02 -0.94215721810E+02  0.21238667716E+03  0.17300000000E+03 0.  1.
         -6    1    1    2    0  502 -0.34166814634E+02  0.71659801673E+02  0.18487042300E+03  0.26534613564E+03  0.17300000000E+03 0.  1.
<mgrwt>
<rscale>  2 0.19034573E+03</rscale>
<asrwt>0</asrwt>
<pdfrwt beam="1">  1       21 0.43722117E-01 0.19034573E+03</pdfrwt>
<pdfrwt beam="2">  1       21 0.29775239E-01 0.19034573E+03</pdfrwt>
<totfact> 0.54416640E+04</totfact>
</mgrwt>
</event>
<event>
 4    1  0.4072310E+000  0.1810459E+03  0.7546771E-02  0.1166795E+00
         21   -1    0    0  503  502  0.00000000000E+00  0.00000000000E+00  0.11354209611E+03  0.11354209611E+03  0.00000000000E+00 0.  1.
         21   -1    0    0  501  503 -0.00000000000E+00 -0.00000000000E+00 -0.28986860562E+03  0.28986860562E+03  0.00000000000E+00 0.  1.
          6    1    1    2  501    0 -0.17197971973E+02  0.50525629464E+02 -0.10106621296E+03  0.20734509610E+03  0.17300000000E+03 0.  1.
         -6    1    1    2    0  502  0.17197971973E+02 -0.50525629464E+02 -0.75260296545E+02  0.19606560562E+03  0.17300000000E+03 0.  1.
<mgrwt>
<rscale>  2 0.18104588E+03</rscale>
<asrwt>0</asrwt>
<pdfrwt beam="1">  1       21 0.17468015E-01 0.18104588E+03</pdfrwt>
<pdfrwt beam="2">  1       21 0.44595170E-01 0.18104588E+03</pdfrwt>
<totfact> 0.14379856E+05</totfact>
</mgrwt>
</event>
<event>
 4    1  0.4072310E+000  0.2251794E+03  0.7546771E-02  0.1130079E+00
         21   -1    0    0  503  502  0.00000000000E+00  0.00000000000E+00  0.75062053136E+02  0.75062053136E+02  0.00000000000E+00 0. -1.
         21   -1    0    0  501  503 -0.00000000000E+00 -0.00000000000E+00 -0.14570384592E+04  0.14570384592E+04  0.00000000000E+00 0.  1.
          6    1    1    2  501    0  0.13309211282E+03  0.55346554518E+02 -0.12520258328E+04  0.12721141606E+04  0.17300000000E+03 0.  1.
         -6    1    1    2    0  502 -0.13309211282E+03 -0.55346554518E+02 -0.12995057324E+03  0.25998635172E+03  0.17300000000E+03 0. -1.
<mgrwt>
<rscale>  2 0.22517938E+03</rscale>
<asrwt>0</asrwt>
<pdfrwt beam="1">  1       21 0.11548010E-01 0.22517938E+03</pdfrwt>
<pdfrwt beam="2">  1       21 0.22415973E+00 0.22517938E+03</pdfrwt>
<totfact> 0.57894038E+03</totfact>
</mgrwt>
</event>
<event>
 4    1  0.4072310E+000  0.2109845E+03  0.7546771E-02  0.1140789E+00
         21   -1    0    0  503  502  0.00000000000E+00  0.00000000000E+00  0.64349242468E+03  0.64349242468E+03  0.00000000000E+00 0.  1.
         21   -1    0    0  501  503 -0.00000000000E+00 -0.00000000000E+00 -0.84932735914E+02  0.84932735914E+02  0.00000000000E+00 0.  1.
          6    1    1    2  501    0  0.43547139105E+01 -0.12069172613E+03  0.12240774464E+03  0.24392234879E+03  0.17300000000E+03 0.  1.
         -6    1    1    2    0  502 -0.43547139105E+01  0.12069172613E+03  0.43615194412E+03  0.48450281181E+03  0.17300000000E+03 0.  1.
<mgrwt>
<rscale>  2 0.21098449E+03</rscale>
<asrwt>0</asrwt>
<pdfrwt beam="1">  1       21 0.98998831E-01 0.21098449E+03</pdfrwt>
<pdfrwt beam="2">  1       21 0.13066575E-01 0.21098449E+03</pdfrwt>
<totfact> 0.41937625E+04</totfact>
</mgrwt>
</event>
<event>
 4    1  0.4072310E+000  0.1771689E+03  0.7546771E-02  0.1170571E+00
         21   -1    0    0  503  502  0.00000000000E+00  0.00000000000E+00  0.66582235073E+02  0.66582235073E+02  0.00000000000E+00 0. -1.
         21   -1    0    0  501  503 -0.00000000000E+00 -0.00000000000E+00 -0.56681369837E+03  0.56681369837E+03  0.00000000000E+00 0. -1.
          6    1    1    2  501    0 -0.33525520431E+02 -0.18326600143E+02 -0.38003198704E+03  0.41930077029E+03  0.17300000000E+03 0. -1.
         -6    1    1    2    0  502  0.33525520431E+02  0.18326600143E+02 -0.12019947626E+03  0.21409516315E+03  0.17300000000E+03 0. -1.
<mgrwt>
<rscale>  2 0.17716892E+03</rscale>
<asrwt>0</asrwt>
<pdfrwt beam="1">  1       21 0.10243421E-01 0.17716892E+03</pdfrwt>
<pdfrwt beam="2">  1       21 0.87202107E-01 0.17716892E+03</pdfrwt>
<totfact> 0.88445301E+04</totfact>
</mgrwt>
</event>
<event>
 4    1  0.4072310E+000  0.2381198E+03  0.7546771E-02  0.1121052E+00
         21   -1    0    0  501  502  0.00000000000E+00  0.00000000000E+00  0.20202169122E+03  0.20202169122E+03  0.00000000000E+00 0. -1.
         21   -1    0    0  502  503 -0.00000000000E+00 -0.00000000000E+00 -0.36635453923E+03  0.36635453923E+03  0.00000000000E+00 0.  1.
          6    1    1    2  501    0  0.14703373749E+03  0.71785209046E+02  0.55272982764E+02  0.24445068792E+03  0.17300000000E+03 0. -1.
         -6    1    1    2    0  503 -0.14703373749E+03 -0.71785209046E+02 -0.21960583078E+03  0.32392554254E+03  0.17300000000E+03 0.  1.
<mgrwt>
<rscale>  2 0.23811979E+03</rscale>
<asrwt>0</asrwt>
<pdfrwt beam="1">  1       21 0.31080261E-01 0.23811979E+03</pdfrwt>
<pdfrwt beam="2">  1       21 0.56362236E-01 0.23811979E+03</pdfrwt>
<totfact> 0.28764645E+04</totfact>
</mgrwt>
</event>
<event>
 4    1  0.4072310E+000  0.2441405E+03  0.7546771E-02  0.1117065E+00
         21   -1    0    0  501  502  0.00000000000E+00  0.00000000000E+00  0.13099370677E+03  0.13099370677E+03  0.00000000000E+00 0. -1.
         21   -1    0    0  502  503 -0.00000000000E+00 -0.00000000000E+00 -0.89038675411E+03  0.89038675411E+03  0.00000000000E+00 0.  1.
          6    1    1    2  501    0 -0.65788262046E+02  0.15920888706E+03 -0.22591003207E+02  0.24518343861E+03  0.17300000000E+03 0. -1.
         -6    1    1    2    0  503  0.65788262046E+02 -0.15920888706E+03 -0.73680204413E+03  0.77619702227E+03  0.17300000000E+03 0.  1.
<mgrwt>
<rscale>  2 0.24414046E+03</rscale>
<asrwt>0</asrwt>
<pdfrwt beam="1">  1       21 0.20152877E-01 0.24414046E+03</pdfrwt>
<pdfrwt beam="2">  1       21 0.13698258E+00 0.24414046E+03</pdfrwt>
<totfact> 0.83096018E+03</totfact>
</mgrwt>
</event>
<event>
 4    1  0.4072310E+000  0.1760534E+03  0.7546771E-02  0.1171678E+00
         21   -1    0    0  501  502  0.00000000000E+00  0.00000000000E+00  0.29547609081E+03  0.29547609081E+03  0.00000000000E+00 0. -1.
         21   -1    0    0  502  503 -0.00000000000E+00 -0.00000000000E+00 -0.12663879074E+03  0.12663879074E+03  0.00000000000E+00 0. -1.
          6    1    1    2  501    0  0.27238887503E+02 -0.17995203670E+02  0.17186812580E+03  0.24603543853E+03  0.17300000000E+03 0. -1.
         -6    1    1    2    0  503 -0.27238887503E+02  0.17995203670E+02 -0.30308257260E+01  0.17607944301E+03  0.17300000000E+03 0. -1.
<mgrwt>
<rscale>  2 0.17605336E+03</rscale>
<asrwt>0</asrwt>
<pdfrwt beam="1">  1       21 0.45457860E-01 0.17605336E+03</pdfrwt>
<pdfrwt beam="2">  1       21 0.19482891E-01 0.17605336E+03</pdfrwt>
<totfact> 0.11317754E+05</totfact>
</mgrwt>
</event>
<event>
 4    1  0.4072310E+000  0.2403134E+03  0.7546771E-02  0.1119584E+00
         21   -1    0    0  503  502  0.00000000000E+00  0.00000000000E+00  0.48656751250E+03  0.48656751250E+03  0.00000000000E+00 0.  1.
         21   -1    0    0  501  503 -0.00000000000E+00 -0.00000000000E+00 -0.50099609475E+03  0.50099609475E+03  0.00000000000E+00 0. -1.
          6    1    1    2  501    0 -0.34045903674E+02  0.16328626820E+03 -0.43855824967E+03  0.50008386026E+03  0.17300000000E+03 0. -1.
         -6    1    1    2    0  502  0.34045903674E+02 -0.16328626820E+03  0.42412966743E+03  0.48747974699E+03  0.17300000000E+03 0.  1.
<mgrwt>
<rscale>  2 0.24031340E+03</rscale>
<asrwt>0</asrwt>
<pdfrwt beam="1">  1       21 0.74856540E-01 0.24031340E+03</pdfrwt>
<pdfrwt beam="2">  1       21 0.77076322E-01 0.24031340E+03</pdfrwt>
<totfact> 0.22974563E+03</totfact>
</mgrwt>
</event>
<event>
 4    1  0.4072310E+000  0.1854982E+03  0.7546771E-02  0.1162586E+00
         21   -1    0    0  501  502  0.00000000000E+00  0.00000000000E+00  0.15178603875E+03  0.15178603875E+03  0.00000000000E+00 0.  1.
         21   -1    0    0  502  503 -0.00000000000E+00 -0.00000000000E+00 -0.26586566537E+03  0.26586566537E+03  0.00000000000E+00 0.  1.
          6    1    1    2  501    0 -0.66610478223E+02 -0.66041109432E+01  0.23112812826E+02  0.18693253384E+03  0.17300000000E+03 0.  1.
         -6    1    1    2    0  503  0.66610478223E+02  0.66041109432E+01 -0.13719243945E+03  0.23071917027E+03  0.17300000000E+03 0.  1.
<mgrwt>
<rscale>  2 0.18549817E+03</rscale>
<asrwt>0</asrwt>
<pdfrwt beam="1">  1       21 0.23351698E-01 0.18549817E+03</pdfrwt>
<pdfrwt beam="2">  1       21 0.40902410E-01 0.18549817E+03</pdfrwt>
<totfact> 0.99559741E+04</totfact>
</mgrwt>
</event>
<event>
 4    1  0.4072310E+000  0.1941498E+03  0.7546771E-02  0.1154771E+00
         21   -1    0    0  503  502  0.00000000000E+00  0.00000000000E+00  0.21223286913E+03  0.21223286913E+03  0.00000000000E+00 0.  1.
         21   -1    0    0  501  503 -0.00000000000E+00 -0.00000000000E+00 -0.30137539141E+03  0.30137539141E+03  0.00000000000E+00 0. -1.
          6    1    1    2  501    0 -0.86862754013E+02 -0.14832542720E+02 -0.20914182764E+03  0.28536721330E+03  0.17300000000E+03 0. -1.
         -6    1    1    2    0  502  0.86862754013E+02  0.14832542720E+02  0.11999930536E+03  0.22824104724E+03  0.17300000000E+03 0.  1.
<mgrwt>
<rscale>  2 0.19414979E+03</rscale>
<asrwt>0</asrwt>
<pdfrwt beam="1">  1       21 0.32651211E-01 0.19414979E+03</pdfrwt>
<pdfrwt beam="2">  1       21 0.46365445E-01 0.19414979E+03</pdfrwt>
<totfact> 0.40197549E+04</totfact>
</mgrwt>
</event>
<event>
 4    1  0.4072310E+000  0.2691489E+03  0.7546771E-02  0.1101768E+00
         21   -1    0    0  501  502  0.00000000000E+00  0.00000000000E+00  0.53661245233E+03  0.53661245233E+03  0.00000000000E+00 0. -1.
         21   -1    0    0  502  503 -0.00000000000E+00 -0.00000000000E+00 -0.13518657068E+03  0.13518657068E+03  0.00000000000E+00 0. -1.
          6    1    1    2  501    0  0.20616510725E+03 -0.28393382350E+01  0.18813706104E+03  0.32838493727E+03  0.17300000000E+03 0. -1.
         -6    1    1    2    0  503 -0.20616510725E+03  0.28393382350E+01  0.21328882061E+03  0.34341408574E+03  0.17300000000E+03 0. -1.
<mgrwt>
<rscale>  2 0.26914887E+03</rscale>
<asrwt>0</asrwt>
<pdfrwt beam="1">  1       21 0.82555761E-01 0.26914887E+03</pdfrwt>
<pdfrwt beam="2">  1       21 0.20797934E-01 0.26914887E+03</pdfrwt>
<totfact> 0.26437626E+04</totfact>
</mgrwt>
</event>
<event>
 4    1  0.4072310E+000  0.2283910E+03  0.7546771E-02  0.1127777E+00
         21   -1    0    0  503  502  0.00000000000E+00  0.00000000000E+00  0.47559682259E+03  0.47559682259E+03  0.00000000000E+00 0.  1.
         21   -1    0    0  501  503 -0.00000000000E+00 -0.00000000000E+00 -0.25524022906E+03  0.25524022906E+03  0.00000000000E+00 0. -1.
          6    1    1    2  501    0 -0.14674611224E+03  0.26438717161E+02 -0.16577818634E+03  0.28221416387E+03  0.17300000000E+03 0. -1.
         -6    1    1    2    0  502  0.14674611224E+03 -0.26438717161E+02  0.38613477987E+03  0.44862288778E+03  0.17300000000E+03 0.  1.
<mgrwt>
<rscale>  2 0.22839095E+03</rscale>
<asrwt>0</asrwt>
<pdfrwt beam="1">  1       21 0.73168742E-01 0.22839095E+03</pdfrwt>
<pdfrwt beam="2">  1       21 0.39267728E-01 0.22839095E+03</pdfrwt>
<totfact> 0.10260689E+04</totfact>
</mgrwt>
</event>
<event>
 4    1  0.4072310E+000  0.1765057E+03  0.7546771E-02  0.1171228E+00
         21   -1    0    0  501  502  0.00000000000E+00  0.00000000000E+00  0.16737354160E+03  0.16737354160E+03  0.00000000000E+00 0.  1.
         21   -1    0    0  502  503 -0.00000000000E+00 -0.00000000000E+00 -0.36400855927E+03  0.36400855927E+03  0.00000000000E+00 0.  1.
          6    1    1    2  501    0 -0.34983551052E+02 -0.11857114193E+01  0.87409689908E+02  0.19696372419E+03  0.17300000000E+03 0.  1.
         -6    1    1    2    0  503  0.34983551052E+02  0.11857114193E+01 -0.28404470758E+03  0.33441837668E+03  0.17300000000E+03 0.  1.
<mgrwt>
<rscale>  2 0.17650568E+03</rscale>
<asrwt>0</asrwt>
<pdfrwt beam="1">  1       21 0.25749776E-01 0.17650568E+03</pdfrwt>
<pdfrwt beam="2">  1       21 0.56001316E-01 0.17650568E+03</pdfrwt>
<totfact> 0.43320912E+04</totfact>
</mgrwt>
</event>
<event>
 4    1  0.4072310E+000  0.2069400E+03  0.7546771E-02  0.1144012E+00
         21   -1    0    0  501  502  0.00000000000E+00  0.00000000000E+00  0.11791207141E+04  0.11791207141E+04  0.00000000000E+00 0. -1.
         21   -1    0    0  502  503 -0.00000000000E+00 -0.00000000000E+00 -0.48558660714E+02  0.48558660714E+02  0.00000000000E+00 0. -1.
          6    1    1    2  501    0  0.84255947542E+02 -0.76131994852E+02  0.87346597038E+03  0.89764522321E+03  0.17300000000E+03 0. -1.
         -6    1    1    2    0  503 -0.84255947542E+02  0.76131994852E+02  0.25709608305E+03  0.33003415165E+03  0.17300000000E+03 0. -1.
<mgrwt>
<rscale>  2 0.20693996E+03</rscale>
<asrwt>0</asrwt>
<pdfrwt beam="1">  1       21 0.18140317E+00 0.20693996E+03</pdfrwt>
<pdfrwt beam="2">  1       21 0.74705641E-02 0.20693996E+03</pdfrwt>
<totfact> 0.23821345E+04</totfact>
</mgrwt>
</event>
<event>
 4    1  0.4072310E+000  0.2187827E+03  0.7546771E-02  0.1134794E+00
         21   -1    0    0  503  502  0.00000000000E+00  0.00000000000E+00  0.11158803121E+04  0.11158803121E+04  0.00000000000E+00 0. -1.
         21   -1    0    0  501  503 -0.00000000000E+00 -0.00000000000E+00 -0.47234319121E+02  0.47234319121E+02  0.00000000000E+00 0. -1.
          6    1    1    2  501    0 -0.82153917329E+02  0.10577148873E+03  0.35805800729E+03  0.41960863974E+03  0.17300000000E+03 0. -1.
         -6    1    1    2    0  502  0.82153917329E+02 -0.10577148873E+03  0.71058798566E+03  0.74350599145E+03  0.17300000000E+03 0. -1.
<mgrwt>
<rscale>  2 0.21878271E+03</rscale>
<asrwt>0</asrwt>
<pdfrwt beam="1">  1       21 0.17167387E+00 0.21878271E+03</pdfrwt>
<pdfrwt beam="2">  1       21 0.72668192E-02 0.21878271E+03</pdfrwt>
<totfact> 0.28956880E+04</totfact>
</mgrwt>
</event>
<event>
 4    1  0.4072310E+000  0.2305990E+03  0.7546771E-02  0.1126219E+00
         21   -1    0    0  503  502  0.00000000000E+00  0.00000000000E+00  0.43659338434E+03  0.43659338434E+03  0.00000000000E+00 0. -1.
         21   -1    0    0  501  503 -0.00000000000E+00 -0.00000000000E+00 -0.12179737292E+03  0.12179737292E+03  0.00000000000E+00 0. -1.
          6    1    1    2  501    0 -0.11711433547E+03 -0.97627441125E+02  0.15764735904E+03  0.27933595301E+03  0.17300000000E+03 0. -1.
         -6    1    1    2    0  502  0.11711433547E+03  0.97627441125E+02  0.15714865238E+03  0.27905480425E+03  0.17300000000E+03 0. -1.
<mgrwt>
<rscale>  2 0.23059897E+03</rscale>
<asrwt>0</asrwt>
<pdfrwt beam="1">  1       21 0.67168212E-01 0.23059897E+03</pdfrwt>
<pdfrwt beam="2">  1       21 0.18738058E-01 0.23059897E+03</pdfrwt>
<totfact> 0.51951606E+04</totfact>
</mgrwt>
</event>
<event>
 4    1  0.4072310E+000  0.2734050E+03  0.7546771E-02  0.1099346E+00
         21   -1    0    0  501  502  0.00000000000E+00  0.00000000000E+00  0.34447175774E+03  0.34447175774E+03  0.00000000000E+00 0. -1.
         21   -1    0    0  502  503 -0.00000000000E+00 -0.00000000000E+00 -0.34159627415E+03  0.34159627415E+03  0.00000000000E+00 0.  1.
          6    1    1    2  501    0 -0.64650100868E+02 -0.20159780698E+03  0.20861088591E+03  0.34390233067E+03  0.17300000000E+03 0. -1.
         -6    1    1    2    0  503  0.64650100868E+02  0.20159780698E+03 -0.20573540233E+03  0.34216570122E+03  0.17300000000E+03 0.  1.
<mgrwt>
<rscale>  2 0.27340503E+03</rscale>
<asrwt>0</asrwt>
<pdfrwt beam="1">  1       21 0.52995655E-01 0.27340503E+03</pdfrwt>
<pdfrwt beam="2">  1       21 0.52553273E-01 0.27340503E+03</pdfrwt>
<totfact> 0.11049591E+04</totfact>
</mgrwt>
</event>
<event>
 4    1  0.4072310E+000  0.2152130E+03  0.7546771E-02  0.1137503E+00
         21   -1    0    0  503  502  0.00000000000E+00  0.00000000000E+00  0.53451908387E+03  0.53451908387E+03  0.00000000000E+00 0. -1.
         21   -1    0    0  501  503 -0.00000000000E+00 -0.00000000000E+00 -0.86916547384E+02  0.86916547384E+02  0.00000000000E+00 0. -1.
          6    1    1    2  501    0 -0.10035127720E+03 -0.79481173170E+02  0.20662806231E+03  0.29834844035E+03  0.17300000000E+03 0. -1.
         -6    1    1    2    0  502  0.10035127720E+03  0.79481173170E+02  0.24097447417E+03  0.32308719091E+03  0.17300000000E+03 0. -1.
<mgrwt>
<rscale>  2 0.21521300E+03</rscale>
<asrwt>0</asrwt>
<pdfrwt beam="1">  1       21 0.82233703E-01 0.21521300E+03</pdfrwt>
<pdfrwt beam="2">  1       21 0.13371777E-01 0.21521300E+03</pdfrwt>
<totfact> 0.61771785E+04</totfact>
</mgrwt>
</event>
<event>
 4    1  0.4072310E+000  0.4803496E+03  0.7546771E-02  0.1019039E+00
         21   -1    0    0  501  502  0.00000000000E+00  0.00000000000E+00  0.14730952611E+03  0.14730952611E+03  0.00000000000E+00 0.  1.
         21   -1    0    0  502  503 -0.00000000000E+00 -0.00000000000E+00 -0.17256482251E+04  0.17256482251E+04  0.00000000000E+00 0. -1.
          6    1    1    2  501    0 -0.11160419126E+03  0.43399450827E+03 -0.50462439331E+03  0.69669326611E+03  0.17300000000E+03 0.  1.
         -6    1    1    2    0  503  0.11160419126E+03 -0.43399450827E+03 -0.10737143056E+04  0.11762644851E+04  0.17300000000E+03 0. -1.
<mgrwt>
<rscale>  2 0.48034959E+03</rscale>
<asrwt>0</asrwt>
<pdfrwt beam="1">  1       21 0.22663004E-01 0.48034959E+03</pdfrwt>
<pdfrwt beam="2">  1       21 0.26548434E+00 0.48034959E+03</pdfrwt>
<totfact> 0.78961982E+02</totfact>
</mgrwt>
</event>
<event>
 4    1  0.4072310E+000  0.2422599E+03  0.7546771E-02  0.1118296E+00
         21   -1    0    0  503  502  0.00000000000E+00  0.00000000000E+00  0.21991497592E+03  0.21991497592E+03  0.00000000000E+00 0. -1.
         21   -1    0    0  501  503 -0.00000000000E+00 -0.00000000000E+00 -0.27873369849E+03  0.27873369849E+03  0.00000000000E+00 0. -1.
          6    1    1    2  501    0  0.14565496805E+03  0.86864867403E+02 -0.80835388661E+02  0.25539035802E+03  0.17300000000E+03 0. -1.
         -6    1    1    2    0  502 -0.14565496805E+03 -0.86864867403E+02  0.22016666100E+02  0.24325831639E+03  0.17300000000E+03 0. -1.
<mgrwt>
<rscale>  2 0.24225993E+03</rscale>
<asrwt>0</asrwt>
<pdfrwt beam="1">  1       21 0.33833073E-01 0.24225993E+03</pdfrwt>
<pdfrwt beam="2">  1       21 0.42882107E-01 0.24225993E+03</pdfrwt>
<totfact> 0.43006442E+04</totfact>
</mgrwt>
</event>
<event>
 4    1  0.4072310E+000  0.2174148E+03  0.7546771E-02  0.1135825E+00
         21   -1    0    0  501  502  0.00000000000E+00  0.00000000000E+00  0.27480677944E+03  0.27480677944E+03  0.00000000000E+00 0. -1.
         21   -1    0    0  502  503 -0.00000000000E+00 -0.00000000000E+00 -0.18388853163E+03  0.18388853163E+03  0.00000000000E+00 0.  1.
          6    1    1    2  501    0 -0.11205486904E+03  0.69165816940E+02  0.10375247165E+03  0.24090201178E+03  0.17300000000E+03 0. -1.
         -6    1    1    2    0  503  0.11205486904E+03 -0.69165816940E+02 -0.12834223835E+02  0.21779329928E+03  0.17300000000E+03 0.  1.
<mgrwt>
<rscale>  2 0.21741482E+03</rscale>
<asrwt>0</asrwt>
<pdfrwt beam="1">  1       21 0.42277966E-01 0.21741482E+03</pdfrwt>
<pdfrwt beam="2">  1       21 0.28290543E-01 0.21741482E+03</pdfrwt>
<totfact> 0.63584105E+04</totfact>
</mgrwt>
</event>
<event>
 4    1  0.4072310E+000  0.2085941E+03  0.7546771E-02  0.1142684E+00
         21   -1    0    0  503  502  0.00000000000E+00  0.00000000000E+00  0.12268864497E+04  0.12268864497E+04  0.00000000000E+00 0.  1.
         21   -1    0    0  501  503 -0.00000000000E+00 -0.00000000000E+00 -0.86411808055E+02  0.86411808055E+02  0.00000000000E+00 0.  1.
          6    1    1    2  501    0  0.94030544980E+02 -0.68853164876E+02  0.66034341897E+02  0.21879679160E+03  0.17300000000E+03 0.  1.
         -6    1    1    2    0  502 -0.94030544980E+02  0.68853164876E+02  0.10744402997E+04  0.10945014662E+04  0.17300000000E+03 0.  1.
<mgrwt>
<rscale>  2 0.20859411E+03</rscale>
<asrwt>0</asrwt>
<pdfrwt beam="1">  1       21 0.18875175E+00 0.20859411E+03</pdfrwt>
<pdfrwt beam="2">  1       21 0.13294125E-01 0.20859411E+03</pdfrwt>
<totfact> 0.76576207E+03</totfact>
</mgrwt>
</event>
<event>
 4    1  0.4072310E+000  0.2616570E+03  0.7546771E-02  0.1106152E+00
         21   -1    0    0  501  502  0.00000000000E+00  0.00000000000E+00  0.77625439754E+02  0.77625439754E+02  0.00000000000E+00 0.  1.
         21   -1    0    0  502  503 -0.00000000000E+00 -0.00000000000E+00 -0.91824691734E+03  0.91824691734E+03  0.00000000000E+00 0.  1.
          6    1    1    2  501    0  0.19483212662E+03  0.23996954376E+02 -0.32135884400E+03  0.41441032564E+03  0.17300000000E+03 0.  1.
         -6    1    1    2    0  503 -0.19483212662E+03 -0.23996954376E+02 -0.51926263359E+03  0.58146203146E+03  0.17300000000E+03 0.  1.
<mgrwt>
<rscale>  2 0.26165705E+03</rscale>
<asrwt>0</asrwt>
<pdfrwt beam="1">  1       21 0.11942375E-01 0.26165705E+03</pdfrwt>
<pdfrwt beam="2">  1       21 0.14126876E+00 0.26165705E+03</pdfrwt>
<totfact> 0.19870018E+04</totfact>
</mgrwt>
</event>
<event>
 4    1  0.4072310E+000  0.1763487E+03  0.7546771E-02  0.1171384E+00
         21   -1    0    0  503  502  0.00000000000E+00  0.00000000000E+00  0.39579397663E+03  0.39579397663E+03  0.00000000000E+00 0. -1.
         21   -1    0    0  501  503 -0.00000000000E+00 -0.00000000000E+00 -0.98604022256E+02  0.98604022256E+02  0.00000000000E+00 0. -1.
          6    1    1    2  501    0 -0.28626875331E+02  0.18718146121E+02  0.37179140149E+02  0.18022529081E+03  0.17300000000E+03 0. -1.
         -6    1    1    2    0  502  0.28626875331E+02 -0.18718146121E+02  0.26001081422E+03  0.31417270807E+03  0.17300000000E+03 0. -1.
<mgrwt>
<rscale>  2 0.17634871E+03</rscale>
<asrwt>0</asrwt>
<pdfrwt beam="1">  1       21 0.60891380E-01 0.17634871E+03</pdfrwt>
<pdfrwt beam="2">  1       21 0.15169850E-01 0.17634871E+03</pdfrwt>
<totfact> 0.97091994E+04</totfact>
</mgrwt>
</event>
<event>
 4    1  0.4072310E+000  0.1897680E+03  0.7546771E-02  0.1158671E+00
         21   -1    0    0  503  502  0.00000000000E+00  0.00000000000E+00  0.56008390933E+02  0.56008390933E+02  0.00000000000E+00 0. -1.
         21   -1    0    0  501  503 -0.00000000000E+00 -0.00000000000E+00 -0.73765013077E+03  0.73765013077E+03  0.00000000000E+00 0. -1.
          6    1    1    2  501    0 -0.29859254726E+02 -0.72050879917E+02 -0.48298831220E+03  0.51893122291E+03  0.17300000000E+03 0. -1.
         -6    1    1    2    0  502  0.29859254726E+02  0.72050879917E+02 -0.19865342763E+03  0.27472729879E+03  0.17300000000E+03 0. -1.
<mgrwt>
<rscale>  2 0.18976803E+03</rscale>
<asrwt>0</asrwt>
<pdfrwt beam="1">  1       21 0.86166753E-02 0.18976803E+03</pdfrwt>
<pdfrwt beam="2">  1       21 0.11348464E+00 0.18976803E+03</pdfrwt>
<totfact> 0.63921839E+04</totfact>
</mgrwt>
</event>
<event>
 4    1  0.4072310E+000  0.2569926E+03  0.7546771E-02  0.1108964E+00
         21   -1    0    0  501  502  0.00000000000E+00  0.00000000000E+00  0.69435780852E+03  0.69435780852E+03  0.00000000000E+00 0.  1.
         21   -1    0    0  502  503 -0.00000000000E+00 -0.00000000000E+00 -0.15981026938E+03  0.15981026938E+03  0.00000000000E+00 0.  1.
          6    1    1    2  501    0  0.19594442111E+02  0.18902977363E+03  0.53900572525E+03  0.59713680956E+03  0.17300000000E+03 0.  1.
         -6    1    1    2    0  503 -0.19594442111E+02 -0.18902977363E+03 -0.44581861054E+01  0.25703126834E+03  0.17300000000E+03 0.  1.
<mgrwt>
<rscale>  2 0.25699260E+03</rscale>
<asrwt>0</asrwt>
<pdfrwt beam="1">  1       21 0.10682428E+00 0.25699260E+03</pdfrwt>
<pdfrwt beam="2">  1       21 0.24586196E-01 0.25699260E+03</pdfrwt>
<totfact> 0.10527194E+04</totfact>
</mgrwt>
</event>
<event>
 4    1  0.4072310E+000  0.1993480E+03  0.7546771E-02  0.1150290E+00
         21   -1    0    0  501  502  0.00000000000E+00  0.00000000000E+00  0.15239713423E+03  0.15239713423E+03  0.00000000000E+00 0.  1.
         21   -1    0    0  502  503 -0.00000000000E+00 -0.00000000000E+00 -0.49781432959E+03  0.49781432959E+03  0.00000000000E+00 0.  1.
          6    1    1    2  501    0  0.37373863350E+02 -0.91726845171E+02  0.51633931336E+02  0.20592640106E+03  0.17300000000E+03 0.  1.
         -6    1    1    2    0  503 -0.37373863350E+02  0.91726845171E+02 -0.39705112670E+03  0.44428506277E+03  0.17300000000E+03 0.  1.
<mgrwt>
<rscale>  2 0.19934799E+03</rscale>
<asrwt>0</asrwt>
<pdfrwt beam="1">  1       21 0.23445713E-01 0.19934799E+03</pdfrwt>
<pdfrwt beam="2">  1       21 0.76586819E-01 0.19934799E+03</pdfrwt>
<totfact> 0.25865494E+04</totfact>
</mgrwt>
</event>
<event>
 4    1  0.4072310E+000  0.1957785E+03  0.7546771E-02  0.1153350E+00
         21   -1    0    0  501  502  0.00000000000E+00  0.00000000000E+00  0.31833291658E+03  0.31833291658E+03  0.00000000000E+00 0. -1.
         21   -1    0    0  502  503 -0.00000000000E+00 -0.00000000000E+00 -0.14711238144E+03  0.14711238144E+03  0.00000000000E+00 0. -1.
          6    1    1    2  501    0 -0.26027394226E+02  0.87879393509E+02  0.18476673687E+03  0.26919873719E+03  0.17300000000E+03 0. -1.
         -6    1    1    2    0  503  0.26027394226E+02 -0.87879393509E+02 -0.13546201729E+02  0.19624656082E+03  0.17300000000E+03 0. -1.
<mgrwt>
<rscale>  2 0.19577848E+03</rscale>
<asrwt>0</asrwt>
<pdfrwt beam="1">  1       21 0.48974295E-01 0.19577848E+03</pdfrwt>
<pdfrwt beam="2">  1       21 0.22632674E-01 0.19577848E+03</pdfrwt>
<totfact> 0.72696776E+04</totfact>
</mgrwt>
</event>
<event>
 4    1  0.4072310E+000  0.1978212E+03  0.7546771E-02  0.1151590E+00
         21   -1    0    0  503  502  0.00000000000E+00  0.00000000000E+00  0.72167513632E+02  0.72167513632E+02  0.00000000000E+00 0. -1.
         21   -1    0    0  501  503 -0.00000000000E+00 -0.00000000000E+00 -0.76195003869E+03  0.76195003869E+03  0.00000000000E+00 0.  1.
          6    1    1    2  501    0  0.59528666107E+02  0.75236816984E+02 -0.56883736929E+03  0.60225342956E+03  0.17300000000E+03 0.  1.
         -6    1    1    2    0  502 -0.59528666107E+02 -0.75236816984E+02 -0.12094515576E+03  0.23186412276E+03  0.17300000000E+03 0. -1.
<mgrwt>
<rscale>  2 0.19782123E+03</rscale>
<asrwt>0</asrwt>
<pdfrwt beam="1">  1       21 0.11102695E-01 0.19782123E+03</pdfrwt>
<pdfrwt beam="2">  1       21 0.11722308E+00 0.19782123E+03</pdfrwt>
<totfact> 0.37604945E+04</totfact>
</mgrwt>
</event>
<event>
 4    1  0.4072310E+000  0.2136626E+03  0.7546771E-02  0.1138698E+00
         21   -1    0    0  501  502  0.00000000000E+00  0.00000000000E+00  0.64162504897E+02  0.64162504897E+02  0.00000000000E+00 0.  1.
         21   -1    0    0  502  503 -0.00000000000E+00 -0.00000000000E+00 -0.89040509399E+03  0.89040509399E+03  0.00000000000E+00 0.  1.
          6    1    1    2  501    0  0.12471503762E+03 -0.12994623587E+02 -0.19918092516E+03  0.29210399141E+03  0.17300000000E+03 0.  1.
         -6    1    1    2    0  503 -0.12471503762E+03  0.12994623587E+02 -0.62706166393E+03  0.66246360747E+03  0.17300000000E+03 0.  1.
<mgrwt>
<rscale>  2 0.21366259E+03</rscale>
<asrwt>0</asrwt>
<pdfrwt beam="1">  1       21 0.98711549E-02 0.21366259E+03</pdfrwt>
<pdfrwt beam="2">  1       21 0.13698539E+00 0.21366259E+03</pdfrwt>
<totfact> 0.31032652E+04</totfact>
</mgrwt>
</event>
<event>
 4    1  0.4072310E+000  0.2124096E+03  0.7546771E-02  0.1139672E+00
         21   -1    0    0  501  502  0.00000000000E+00  0.00000000000E+00  0.19284726936E+03  0.19284726936E+03  0.00000000000E+00 0.  1.
         21   -1    0    0  502  503 -0.00000000000E+00 -0.00000000000E+00 -0.28462325013E+03  0.28462325013E+03  0.00000000000E+00 0. -1.
          6    1    1    2  501    0  0.23750830227E+02  0.12093282717E+03  0.54838425959E+02  0.21937434578E+03  0.17300000000E+03 0.  1.
         -6    1    1    2    0  503 -0.23750830227E+02 -0.12093282717E+03 -0.14661440673E+03  0.25809617371E+03  0.17300000000E+03 0. -1.
<mgrwt>
<rscale>  2 0.21240963E+03</rscale>
<asrwt>0</asrwt>
<pdfrwt beam="1">  1       21 0.29668811E-01 0.21240963E+03</pdfrwt>
<pdfrwt beam="2">  1       21 0.43788192E-01 0.21240963E+03</pdfrwt>
<totfact> 0.54063288E+04</totfact>
</mgrwt>
</event>
<event>
 4    1  0.4072310E+000  0.1893725E+03  0.7546771E-02  0.1159028E+00
         21   -1    0    0  501  502  0.00000000000E+00  0.00000000000E+00  0.56211291141E+02  0.56211291141E+02  0.00000000000E+00 0.  1.
         21   -1    0    0  502  503 -0.00000000000E+00 -0.00000000000E+00 -0.12047499952E+04  0.12047499952E+04  0.00000000000E+00 0.  1.
          6    1    1    2  501    0 -0.62425074377E+02 -0.45122748914E+02 -0.14183034998E+03  0.23659628179E+03  0.17300000000E+03 0.  1.
         -6    1    1    2    0  503  0.62425074377E+02  0.45122748914E+02 -0.10067083541E+04  0.10243650046E+04  0.17300000000E+03 0.  1.
<mgrwt>
<rscale>  2 0.18937252E+03</rscale>
<asrwt>0</asrwt>
<pdfrwt beam="1">  1       21 0.86478913E-02 0.18937252E+03</pdfrwt>
<pdfrwt beam="2">  1       21 0.18534615E+00 0.18937252E+03</pdfrwt>
<totfact> 0.17585862E+04</totfact>
</mgrwt>
</event>
<event>
 4    1  0.4072310E+000  0.4804665E+03  0.7546771E-02  0.1019007E+00
         21   -1    0    0  501  502  0.00000000000E+00  0.00000000000E+00  0.42406256367E+03  0.42406256367E+03  0.00000000000E+00 0. -1.
         21   -1    0    0  502  503 -0.00000000000E+00 -0.00000000000E+00 -0.76543387660E+03  0.76543387660E+03  0.00000000000E+00 0.  1.
          6    1    1    2  501    0  0.30703769723E+03 -0.32656844218E+03  0.14893550234E+03  0.50302075385E+03  0.17300000000E+03 0. -1.
         -6    1    1    2    0  503 -0.30703769723E+03  0.32656844218E+03 -0.49030681527E+03  0.68647568642E+03  0.17300000000E+03 0.  1.
<mgrwt>
<rscale>  2 0.48046654E+03</rscale>
<asrwt>0</asrwt>
<pdfrwt beam="1">  1       21 0.65240395E-01 0.48046654E+03</pdfrwt>
<pdfrwt beam="2">  1       21 0.11775906E+00 0.48046654E+03</pdfrwt>
<totfact> 0.10033619E+03</totfact>
</mgrwt>
</event>
<event>
 4    1  0.4072310E+000  0.2134747E+03  0.7546771E-02  0.1138844E+00
         21   -1    0    0  503  502  0.00000000000E+00  0.00000000000E+00  0.13388488780E+03  0.13388488780E+03  0.00000000000E+00 0.  1.
         21   -1    0    0  501  503 -0.00000000000E+00 -0.00000000000E+00 -0.61530727789E+03  0.61530727789E+03  0.00000000000E+00 0.  1.
          6    1    1    2  501    0  0.85314043759E+02  0.91454751314E+02 -0.49110741969E+03  0.53549785739E+03  0.17300000000E+03 0.  1.
         -6    1    1    2    0  502 -0.85314043759E+02 -0.91454751314E+02  0.96850295911E+01  0.21369430830E+03  0.17300000000E+03 0.  1.
<mgrwt>
<rscale>  2 0.21347472E+03</rscale>
<asrwt>0</asrwt>
<pdfrwt beam="1">  1       21 0.20597675E-01 0.21347472E+03</pdfrwt>
<pdfrwt beam="2">  1       21 0.94662660E-01 0.21347472E+03</pdfrwt>
<totfact> 0.20150441E+04</totfact>
</mgrwt>
</event>
<event>
 4    1  0.4072310E+000  0.2055945E+03  0.7546771E-02  0.1145103E+00
         21   -1    0    0  501  502  0.00000000000E+00  0.00000000000E+00  0.18428815160E+03  0.18428815160E+03  0.00000000000E+00 0. -1.
         21   -1    0    0  502  503 -0.00000000000E+00 -0.00000000000E+00 -0.23294630114E+03  0.23294630114E+03  0.00000000000E+00 0. -1.
          6    1    1    2  501    0 -0.59930457202E+02  0.93533197051E+02  0.15403345156E+01  0.20560031926E+03  0.17300000000E+03 0. -1.
         -6    1    1    2    0  503  0.59930457202E+02 -0.93533197051E+02 -0.50198484052E+02  0.21163413348E+03  0.17300000000E+03 0. -1.
<mgrwt>
<rscale>  2 0.20559455E+03</rscale>
<asrwt>0</asrwt>
<pdfrwt beam="1">  1       21 0.28352023E-01 0.20559455E+03</pdfrwt>
<pdfrwt beam="2">  1       21 0.35837892E-01 0.20559455E+03</pdfrwt>
<totfact> 0.88807775E+04</totfact>
</mgrwt>
</event>
<event>
 4    1  0.4072310E+000  0.1819879E+03  0.7546771E-02  0.1165893E+00
         21   -1    0    0  503  502  0.00000000000E+00  0.00000000000E+00  0.70750717429E+03  0.70750717429E+03  0.00000000000E+00 0. -1.
         21   -1    0    0  501  503 -0.00000000000E+00 -0.00000000000E+00 -0.10286325883E+03  0.10286325883E+03  0.00000000000E+00 0. -1.
          6    1    1    2  501    0 -0.52435172348E+02  0.21003320823E+02  0.32212461753E+01  0.18201638171E+03  0.17300000000E+03 0. -1.
         -6    1    1    2    0  502  0.52435172348E+02 -0.21003320823E+02  0.60142266928E+03  0.62835405140E+03  0.17300000000E+03 0. -1.
<mgrwt>
<rscale>  2 0.18198788E+03</rscale>
<asrwt>0</asrwt>
<pdfrwt beam="1">  1       21 0.10884725E+00 0.18198788E+03</pdfrwt>
<pdfrwt beam="2">  1       21 0.15825117E-01 0.18198788E+03</pdfrwt>
<totfact> 0.23987868E+04</totfact>
</mgrwt>
</event>
<event>
 4    1  0.4072310E+000  0.1859999E+03  0.7546771E-02  0.1162119E+00
         21   -1    0    0  503  502  0.00000000000E+00  0.00000000000E+00  0.49924701476E+02  0.49924701476E+02  0.00000000000E+00 0.  1.
         21   -1    0    0  501  503 -0.00000000000E+00 -0.00000000000E+00 -0.71716454941E+03  0.71716454941E+03  0.00000000000E+00 0.  1.
          6    1    1    2  501    0 -0.45520123190E+02 -0.50939992607E+02 -0.40407774995E+03  0.44483119548E+03  0.17300000000E+03 0.  1.
         -6    1    1    2    0  502  0.45520123190E+02  0.50939992607E+02 -0.26316209798E+03  0.32225805541E+03  0.17300000000E+03 0.  1.
<mgrwt>
<rscale>  2 0.18599990E+03</rscale>
<asrwt>0</asrwt>
<pdfrwt beam="1">  1       21 0.76807244E-02 0.18599990E+03</pdfrwt>
<pdfrwt beam="2">  1       21 0.11033299E+00 0.18599990E+03</pdfrwt>
<totfact> 0.83757418E+04</totfact>
</mgrwt>
</event>
<event>
 4    1  0.4072310E+000  0.2589064E+03  0.7546771E-02  0.1107802E+00
         21   -1    0    0  501  502  0.00000000000E+00  0.00000000000E+00  0.16202131661E+03  0.16202131661E+03  0.00000000000E+00 0. -1.
         21   -1    0    0  502  503 -0.00000000000E+00 -0.00000000000E+00 -0.46583812400E+03  0.46583812400E+03  0.00000000000E+00 0.  1.
          6    1    1    2  501    0  0.19171985969E+03  0.18628087473E+02 -0.46910102046E+02  0.26312177393E+03  0.17300000000E+03 0.  1.
         -6    1    1    2    0  503 -0.19171985969E+03 -0.18628087473E+02 -0.25690670534E+03  0.36473766668E+03  0.17300000000E+03 0. -1.
<mgrwt>
<rscale>  2 0.25890637E+03</rscale>
<asrwt>0</asrwt>
<pdfrwt beam="1">  1       21 0.24926356E-01 0.25890637E+03</pdfrwt>
<pdfrwt beam="2">  1       21 0.71667404E-01 0.25890637E+03</pdfrwt>
<totfact> 0.25900175E+04</totfact>
</mgrwt>
</event>
<event>
 4    1  0.4072310E+000  0.2573756E+03  0.7546771E-02  0.1108730E+00
         21   -1    0    0  501  502  0.00000000000E+00  0.00000000000E+00  0.12376082234E+04  0.12376082234E+04  0.00000000000E+00 0.  1.
         21   -1    0    0  502  503 -0.00000000000E+00 -0.00000000000E+00 -0.53562529275E+02  0.53562529275E+02  0.00000000000E+00 0.  1.
          6    1    1    2  501    0  0.63809337066E+02 -0.17955936565E+03  0.60925493097E+03  0.66138775934E+03  0.17300000000E+03 0.  1.
         -6    1    1    2    0  503 -0.63809337066E+02  0.17955936565E+03  0.57479076315E+03  0.62978299333E+03  0.17300000000E+03 0.  1.
<mgrwt>
<rscale>  2 0.25737560E+03</rscale>
<asrwt>0</asrwt>
<pdfrwt beam="1">  1       21 0.19040124E+00 0.25737560E+03</pdfrwt>
<pdfrwt beam="2">  1       21 0.82403901E-02 0.25737560E+03</pdfrwt>
<totfact> 0.16911704E+04</totfact>
</mgrwt>
</event>
<event>
 4    1  0.4072310E+000  0.1733044E+03  0.7546771E-02  0.1174445E+00
         21   -1    0    0  501  502  0.00000000000E+00  0.00000000000E+00  0.15384767578E+03  0.15384767578E+03  0.00000000000E+00 0.  1.
         21   -1    0    0  502  503 -0.00000000000E+00 -0.00000000000E+00 -0.23441389153E+03  0.23441389153E+03  0.00000000000E+00 0.  1.
          6    1    1    2  501    0  0.66288676134E+01 -0.78414084332E+01  0.39095159993E+02  0.17765939634E+03  0.17300000000E+03 0.  1.
         -6    1    1    2    0  503 -0.66288676134E+01  0.78414084332E+01 -0.11966137574E+03  0.21060217097E+03  0.17300000000E+03 0.  1.
<mgrwt>
<rscale>  2 0.17330444E+03</rscale>
<asrwt>0</asrwt>
<pdfrwt beam="1">  1       21 0.23668873E-01 0.17330444E+03</pdfrwt>
<pdfrwt beam="2">  1       21 0.36063675E-01 0.17330444E+03</pdfrwt>
<totfact> 0.12548287E+05</totfact>
</mgrwt>
</event>
<event>
 4    1  0.4072310E+000  0.2289370E+03  0.7546771E-02  0.1127390E+00
         21   -1    0    0  501  502  0.00000000000E+00  0.00000000000E+00  0.13379181951E+04  0.13379181951E+04  0.00000000000E+00 0. -1.
         21   -1    0    0  502  503 -0.00000000000E+00 -0.00000000000E+00 -0.58435594650E+02  0.58435594650E+02  0.00000000000E+00 0.  1.
          6    1    1    2  501    0 -0.16205500786E+02 -0.14906557011E+03  0.10405786489E+04  0.10654651975E+04  0.17300000000E+03 0. -1.
         -6    1    1    2    0  503  0.16205500786E+02  0.14906557011E+03  0.23890395157E+03  0.33088859232E+03  0.17300000000E+03 0.  1.
<mgrwt>
<rscale>  2 0.22893703E+03</rscale>
<asrwt>0</asrwt>
<pdfrwt beam="1">  1       21 0.20583355E+00 0.22893703E+03</pdfrwt>
<pdfrwt beam="2">  1       21 0.89900925E-02 0.22893703E+03</pdfrwt>
<totfact> 0.11723011E+04</totfact>
</mgrwt>
</event>
<event>
 4    1  0.4072310E+000  0.2109788E+03  0.7546771E-02  0.1140793E+00
         21   -1    0    0  503  502  0.00000000000E+00  0.00000000000E+00  0.37662428233E+03  0.37662428233E+03  0.00000000000E+00 0. -1.
         21   -1    0    0  501  503 -0.00000000000E+00 -0.00000000000E+00 -0.14901392802E+03  0.14901392802E+03  0.00000000000E+00 0.  1.
          6    1    1    2  501    0 -0.12067864709E+03 -0.44396461085E+01 -0.57337951499E+01  0.21105668131E+03  0.17300000000E+03 0.  1.
         -6    1    1    2    0  502  0.12067864709E+03  0.44396461085E+01  0.23334414946E+03  0.31458152903E+03  0.17300000000E+03 0. -1.
<mgrwt>
<rscale>  2 0.21097878E+03</rscale>
<asrwt>0</asrwt>
<pdfrwt beam="1">  1       21 0.57942197E-01 0.21097878E+03</pdfrwt>
<pdfrwt beam="2">  1       21 0.22925220E-01 0.21097878E+03</pdfrwt>
<totfact> 0.49421861E+04</totfact>
</mgrwt>
</event>
<event>
 4    1  0.4072310E+000  0.2273979E+03  0.7546771E-02  0.1128485E+00
         21   -1    0    0  501  502  0.00000000000E+00  0.00000000000E+00  0.10775277057E+04  0.10775277057E+04  0.00000000000E+00 0. -1.
         21   -1    0    0  502  503 -0.00000000000E+00 -0.00000000000E+00 -0.48142759897E+02  0.48142759897E+02  0.00000000000E+00 0.  1.
          6    1    1    2  501    0  0.12679855854E+03  0.75517879678E+02  0.48291778048E+03  0.53377842528E+03  0.17300000000E+03 0. -1.
         -6    1    1    2    0  503 -0.12679855854E+03 -0.75517879678E+02  0.54646716528E+03  0.59189204026E+03  0.17300000000E+03 0. -1.
<mgrwt>
<rscale>  2 0.22739794E+03</rscale>
<asrwt>0</asrwt>
<pdfrwt beam="1">  1       21 0.16577348E+00 0.22739794E+03</pdfrwt>
<pdfrwt beam="2">  1       21 0.74065792E-02 0.22739794E+03</pdfrwt>
<totfact> 0.30696176E+04</totfact>
</mgrwt>
</event>
<event>
 4    1  0.4072310E+000  0.2052300E+03  0.7546771E-02  0.1145400E+00
         21   -1    0    0  503  502  0.00000000000E+00  0.00000000000E+00  0.15079167789E+04  0.15079167789E+04  0.00000000000E+00 0. -1.
         21   -1    0    0  501  503 -0.00000000000E+00 -0.00000000000E+00 -0.30967740969E+02  0.30967740969E+02  0.00000000000E+00 0. -1.
          6    1    1    2  501    0 -0.95911030798E+02 -0.54693861409E+02  0.49757078483E+03  0.53823417786E+03  0.17300000000E+03 0. -1.
         -6    1    1    2    0  502  0.95911030798E+02  0.54693861409E+02  0.97937825305E+03  0.10006503420E+04  0.17300000000E+03 0. -1.
<mgrwt>
<rscale>  2 0.20522998E+03</rscale>
<asrwt>0</asrwt>
<pdfrwt beam="1">  1       21 0.23198714E+00 0.20522998E+03</pdfrwt>
<pdfrwt beam="2">  1       21 0.47642690E-02 0.20522998E+03</pdfrwt>
<totfact> 0.24587062E+04</totfact>
</mgrwt>
</event>
<event>
 4    1  0.4072310E+000  0.2625504E+03  0.7546771E-02  0.1105621E+00
         21   -1    0    0  501  502  0.00000000000E+00  0.00000000000E+00  0.66886337946E+02  0.66886337946E+02  0.00000000000E+00 0. -1.
         21   -1    0    0  502  503 -0.00000000000E+00 -0.00000000000E+00 -0.10554281627E+04  0.10554281627E+04  0.00000000000E+00 0.  1.
          6    1    1    2  501    0  0.16886023352E+03  0.10242036308E+03 -0.58034816090E+03  0.63697464400E+03  0.17300000000E+03 0. -1.
         -6    1    1    2    0  503 -0.16886023352E+03 -0.10242036308E+03 -0.40819366382E+03  0.48533985662E+03  0.17300000000E+03 0.  1.
<mgrwt>
<rscale>  2 0.26255039E+03</rscale>
<asrwt>0</asrwt>
<pdfrwt beam="1">  1       21 0.10290207E-01 0.26255039E+03</pdfrwt>
<pdfrwt beam="2">  1       21 0.16237355E+00 0.26255039E+03</pdfrwt>
<totfact> 0.17864227E+04</totfact>
</mgrwt>
</event>
<event>
 4    1  0.4072310E+000  0.2176170E+03  0.7546771E-02  0.1135672E+00
         21   -1    0    0  503  502  0.00000000000E+00  0.00000000000E+00  0.39481199555E+03  0.39481199555E+03  0.00000000000E+00 0. -1.
         21   -1    0    0  501  503 -0.00000000000E+00 -0.00000000000E+00 -0.14880007787E+03  0.14880007787E+03  0.00000000000E+00 0. -1.
          6    1    1    2  501    0 -0.93245871543E+02  0.93452583581E+02  0.33206225271E+01  0.21764237747E+03  0.17300000000E+03 0. -1.
         -6    1    1    2    0  502  0.93245871543E+02 -0.93452583581E+02  0.24269129514E+03  0.32596969595E+03  0.17300000000E+03 0. -1.
<mgrwt>
<rscale>  2 0.21761704E+03</rscale>
<asrwt>0</asrwt>
<pdfrwt beam="1">  1       21 0.60740307E-01 0.21761704E+03</pdfrwt>
<pdfrwt beam="2">  1       21 0.22892320E-01 0.21761704E+03</pdfrwt>
<totfact> 0.44640582E+04</totfact>
</mgrwt>
</event>
<event>
 4    1  0.4072310E+000  0.1784840E+03  0.7546771E-02  0.1169278E+00
         21   -1    0    0  501  502  0.00000000000E+00  0.00000000000E+00  0.45607360100E+03  0.45607360100E+03  0.00000000000E+00 0.  1.
         21   -1    0    0  502  503 -0.00000000000E+00 -0.00000000000E+00 -0.10822028467E+03  0.10822028467E+03  0.00000000000E+00 0.  1.
          6    1    1    2  501    0  0.14744593572E+02 -0.41353661259E+02  0.34193125420E+03  0.38571169406E+03  0.17300000000E+03 0.  1.
         -6    1    1    2    0  503 -0.14744593572E+02  0.41353661259E+02  0.59220621382E+01  0.17858219161E+03  0.17300000000E+03 0.  1.
<mgrwt>
<rscale>  2 0.17848397E+03</rscale>
<asrwt>0</asrwt>
<pdfrwt beam="1">  1       21 0.70165168E-01 0.17848397E+03</pdfrwt>
<pdfrwt beam="2">  1       21 0.16649275E-01 0.17848397E+03</pdfrwt>
<totfact> 0.60138962E+04</totfact>
</mgrwt>
</event>
<event>
 4    1  0.4072310E+000  0.2256042E+03  0.7546771E-02  0.1129773E+00
         21   -1    0    0  501  502  0.00000000000E+00  0.00000000000E+00  0.11763369628E+03  0.11763369628E+03  0.00000000000E+00 0. -1.
         21   -1    0    0  502  503 -0.00000000000E+00 -0.00000000000E+00 -0.68832224303E+03  0.68832224303E+03  0.00000000000E+00 0.  1.
          6    1    1    2  501    0 -0.14441221483E+03 -0.10646687186E+02 -0.39757269896E+02  0.22908051041E+03  0.17300000000E+03 0. -1.
         -6    1    1    2    0  503  0.14441221483E+03  0.10646687186E+02 -0.53093127685E+03  0.57687542890E+03  0.17300000000E+03 0.  1.
<mgrwt>
<rscale>  2 0.22560417E+03</rscale>
<asrwt>0</asrwt>
<pdfrwt beam="1">  1       21 0.18097492E-01 0.22560417E+03</pdfrwt>
<pdfrwt beam="2">  1       21 0.10589573E+00 0.22560417E+03</pdfrwt>
<totfact> 0.19506956E+04</totfact>
</mgrwt>
</event>
<event>
 4    1  0.4072310E+000  0.1775587E+03  0.7546771E-02  0.1170187E+00
         21   -1    0    0  503  502  0.00000000000E+00  0.00000000000E+00  0.17098778079E+04  0.17098778079E+04  0.00000000000E+00 0. -1.
         21   -1    0    0  501  503 -0.00000000000E+00 -0.00000000000E+00 -0.18767003189E+02  0.18767003189E+02  0.00000000000E+00 0.  1.
          6    1    1    2  501    0  0.47845332701E+01  0.39688957917E+02  0.95995707095E+03  0.97624007458E+03  0.17300000000E+03 0. -1.
         -6    1    1    2    0  502 -0.47845332701E+01 -0.39688957917E+02  0.73115373380E+03  0.75240473655E+03  0.17300000000E+03 0.  1.
<mgrwt>
<rscale>  2 0.17755874E+03</rscale>
<asrwt>0</asrwt>
<pdfrwt beam="1">  1       21 0.26305800E+00 0.17755874E+03</pdfrwt>
<pdfrwt beam="2">  1       21 0.28872326E-02 0.17755874E+03</pdfrwt>
<totfact> 0.38089747E+04</totfact>
</mgrwt>
</event>
<event>
 4    1  0.4072310E+000  0.2769836E+03  0.7546771E-02  0.1097348E+00
         21   -1    0    0  501  502  0.00000000000E+00  0.00000000000E+00  0.33208035736E+03  0.33208035736E+03  0.00000000000E+00 0.  1.
         21   -1    0    0  502  503 -0.00000000000E+00 -0.00000000000E+00 -0.23518733775E+03  0.23518733775E+03  0.00000000000E+00 0. -1.
          6    1    1    2  501    0  0.21242750565E+03 -0.40810101687E+02  0.86165105641E+02  0.29007642956E+03  0.17300000000E+03 0. -1.
         -6    1    1    2    0  503 -0.21242750565E+03  0.40810101687E+02  0.10727913971E+02  0.27719126554E+03  0.17300000000E+03 0. -1.
<mgrwt>
<rscale>  2 0.27698359E+03</rscale>
<asrwt>0</asrwt>
<pdfrwt beam="1">  1       21 0.51089286E-01 0.27698359E+03</pdfrwt>
<pdfrwt beam="2">  1       21 0.36182667E-01 0.27698359E+03</pdfrwt>
<totfact> 0.25747523E+04</totfact>
</mgrwt>
</event>
<event>
 4    1  0.4072310E+000  0.4453051E+03  0.7546771E-02  0.1029131E+00
         21   -1    0    0  503  502  0.00000000000E+00  0.00000000000E+00  0.59432817784E+03  0.59432817784E+03  0.00000000000E+00 0.  1.
         21   -1    0    0  501  503 -0.00000000000E+00 -0.00000000000E+00 -0.37715630672E+03  0.37715630672E+03  0.00000000000E+00 0.  1.
          6    1    1    2  501    0 -0.69412943064E+01 -0.41026752756E+03 -0.56393360946E+02  0.44886171244E+03  0.17300000000E+03 0.  1.
         -6    1    1    2    0  502  0.69412943064E+01  0.41026752756E+03  0.27356523207E+03  0.52262277212E+03  0.17300000000E+03 0.  1.
<mgrwt>
<rscale>  2 0.44530509E+03</rscale>
<asrwt>0</asrwt>
<pdfrwt beam="1">  1       21 0.91435104E-01 0.44530509E+03</pdfrwt>
<pdfrwt beam="2">  1       21 0.58024047E-01 0.44530509E+03</pdfrwt>
<totfact> 0.24473736E+03</totfact>
</mgrwt>
</event>
<event>
 4    1  0.4072310E+000  0.2386954E+03  0.7546771E-02  0.1120665E+00
         21   -1    0    0  501  502  0.00000000000E+00  0.00000000000E+00  0.19048358877E+03  0.19048358877E+03  0.00000000000E+00 0. -1.
         21   -1    0    0  502  503 -0.00000000000E+00 -0.00000000000E+00 -0.29946664366E+03  0.29946664366E+03  0.00000000000E+00 0. -1.
          6    1    1    2  501    0 -0.47149519024E+02  0.15755443878E+03 -0.46033249276E+02  0.24309368228E+03  0.17300000000E+03 0. -1.
         -6    1    1    2    0  503  0.47149519024E+02 -0.15755443878E+03 -0.62949805622E+02  0.24685655015E+03  0.17300000000E+03 0. -1.
<mgrwt>
<rscale>  2 0.23869537E+03</rscale>
<asrwt>0</asrwt>
<pdfrwt beam="1">  1       21 0.29305167E-01 0.23869537E+03</pdfrwt>
<pdfrwt beam="2">  1       21 0.46071791E-01 0.23869537E+03</pdfrwt>
<totfact> 0.49306405E+04</totfact>
</mgrwt>
</event>
<event>
 4    1  0.4072310E+000  0.1756259E+03  0.7546771E-02  0.1172105E+00
         21   -1    0    0  501  502  0.00000000000E+00  0.00000000000E+00  0.66309951576E+03  0.66309951576E+03  0.00000000000E+00 0.  1.
         21   -1    0    0  502  503 -0.00000000000E+00 -0.00000000000E+00 -0.76659620095E+02  0.76659620095E+02  0.00000000000E+00 0.  1.
          6    1    1    2  501    0 -0.29948672830E+02  0.43052771766E+01  0.52516106326E+03  0.55374958310E+03  0.17300000000E+03 0.  1.
         -6    1    1    2    0  503  0.29948672830E+02 -0.43052771766E+01  0.61278832403E+02  0.18600955276E+03  0.17300000000E+03 0.  1.
<mgrwt>
<rscale>  2 0.17562590E+03</rscale>
<asrwt>0</asrwt>
<pdfrwt beam="1">  1       21 0.10201531E+00 0.17562590E+03</pdfrwt>
<pdfrwt beam="2">  1       21 0.11793788E-01 0.17562590E+03</pdfrwt>
<totfact> 0.47799793E+04</totfact>
</mgrwt>
</event>
<event>
 4    1  0.4072310E+000  0.2044249E+03  0.7546771E-02  0.1146058E+00
         21   -1    0    0  503  502  0.00000000000E+00  0.00000000000E+00  0.39626086559E+03  0.39626086559E+03  0.00000000000E+00 0.  1.
         21   -1    0    0  501  503 -0.00000000000E+00 -0.00000000000E+00 -0.10562929368E+03  0.10562929368E+03  0.00000000000E+00 0.  1.
          6    1    1    2  501    0  0.10074153394E+03  0.41372717537E+02  0.15537052048E+03  0.25676751557E+03  0.17300000000E+03 0.  1.
         -6    1    1    2    0  502 -0.10074153394E+03 -0.41372717537E+02  0.13526105144E+03  0.24512264370E+03  0.17300000000E+03 0.  1.
<mgrwt>
<rscale>  2 0.20442495E+03</rscale>
<asrwt>0</asrwt>
<pdfrwt beam="1">  1       21 0.60963209E-01 0.20442495E+03</pdfrwt>
<pdfrwt beam="2">  1       21 0.16250661E-01 0.20442495E+03</pdfrwt>
<totfact> 0.84430864E+04</totfact>
</mgrwt>
</event>
<event>
 4    1  0.4072310E+000  0.1914791E+03  0.7546771E-02  0.1157134E+00
         21   -1    0    0  503  502  0.00000000000E+00  0.00000000000E+00  0.81400870634E+02  0.81400870634E+02  0.00000000000E+00 0.  1.
         21   -1    0    0  501  503 -0.00000000000E+00 -0.00000000000E+00 -0.95784174758E+03  0.95784174758E+03  0.00000000000E+00 0.  1.
          6    1    1    2  501    0 -0.79095989158E+02  0.21887629197E+02 -0.81642466538E+03  0.83857824802E+03  0.17300000000E+03 0.  1.
         -6    1    1    2    0  502  0.79095989158E+02 -0.21887629197E+02 -0.60016211560E+02  0.20066437019E+03  0.17300000000E+03 0.  1.
<mgrwt>
<rscale>  2 0.19147909E+03</rscale>
<asrwt>0</asrwt>
<pdfrwt beam="1">  1       21 0.12523210E-01 0.19147909E+03</pdfrwt>
<pdfrwt beam="2">  1       21 0.14736028E+00 0.19147909E+03</pdfrwt>
<totfact> 0.17038550E+04</totfact>
</mgrwt>
</event>
<event>
 4    1  0.4072310E+000  0.3033168E+03  0.7546771E-02  0.1083594E+00
         21   -1    0    0  503  502  0.00000000000E+00  0.00000000000E+00  0.19144352884E+03  0.19144352884E+03  0.00000000000E+00 0. -1.
         21   -1    0    0  501  503 -0.00000000000E+00 -0.00000000000E+00 -0.55749279246E+03  0.55749279246E+03  0.00000000000E+00 0.  1.
          6    1    1    2  501    0 -0.24891631723E+03  0.10619416921E+02 -0.32212754717E+03  0.44245594317E+03  0.17300000000E+03 0.  1.
         -6    1    1    2    0  502  0.24891631723E+03 -0.10619416921E+02 -0.43921716448E+02  0.30648037813E+03  0.17300000000E+03 0. -1.
<mgrwt>
<rscale>  2 0.30331684E+03</rscale>
<asrwt>0</asrwt>
<pdfrwt beam="1">  1       21 0.29452851E-01 0.30331684E+03</pdfrwt>
<pdfrwt beam="2">  1       21 0.85768121E-01 0.30331684E+03</pdfrwt>
<totfact> 0.12204578E+04</totfact>
</mgrwt>
</event>
<event>
 4    1  0.4072310E+000  0.2678015E+03  0.7546771E-02  0.1102544E+00
         21   -1    0    0  503  502  0.00000000000E+00  0.00000000000E+00  0.19684639697E+03  0.19684639697E+03  0.00000000000E+00 0. -1.
         21   -1    0    0  501  503 -0.00000000000E+00 -0.00000000000E+00 -0.43211003210E+03  0.43211003210E+03  0.00000000000E+00 0.  1.
          6    1    1    2  501    0  0.10754291180E+03  0.17384818480E+03 -0.24217907295E+03  0.36106560707E+03  0.17300000000E+03 0.  1.
         -6    1    1    2    0  502 -0.10754291180E+03 -0.17384818480E+03  0.69154378159E+01  0.26789082201E+03  0.17300000000E+03 0. -1.
<mgrwt>
<rscale>  2 0.26780155E+03</rscale>
<asrwt>0</asrwt>
<pdfrwt beam="1">  1       21 0.30284061E-01 0.26780155E+03</pdfrwt>
<pdfrwt beam="2">  1       21 0.66478467E-01 0.26780155E+03</pdfrwt>
<totfact> 0.20873534E+04</totfact>
</mgrwt>
</event>
<event>
 4    1  0.4072310E+000  0.2818570E+03  0.7546771E-02  0.1094679E+00
         21   -1    0    0  503  502  0.00000000000E+00  0.00000000000E+00  0.39271952812E+03  0.39271952812E+03  0.00000000000E+00 0.  1.
         21   -1    0    0  501  503 -0.00000000000E+00 -0.00000000000E+00 -0.20230209884E+03  0.20230209884E+03  0.00000000000E+00 0.  1.
          6    1    1    2  501    0 -0.19379511431E+03  0.10935193882E+03  0.97470542017E+02  0.29823463819E+03  0.17300000000E+03 0.  1.
         -6    1    1    2    0  502  0.19379511431E+03 -0.10935193882E+03  0.92946887261E+02  0.29678698877E+03  0.17300000000E+03 0.  1.
<mgrwt>
<rscale>  2 0.28185704E+03</rscale>
<asrwt>0</asrwt>
<pdfrwt beam="1">  1       21 0.60418389E-01 0.28185704E+03</pdfrwt>
<pdfrwt beam="2">  1       21 0.31123400E-01 0.28185704E+03</pdfrwt>
<totfact> 0.24230060E+04</totfact>
</mgrwt>
</event>
<event>
 4    1  0.4072310E+000  0.2705651E+03  0.7546771E-02  0.1100957E+00
         21   -1    0    0  501  502  0.00000000000E+00  0.00000000000E+00  0.82140936540E+03  0.82140936540E+03  0.00000000000E+00 0.  1.
         21   -1    0    0  502  503 -0.00000000000E+00 -0.00000000000E+00 -0.11332185057E+03  0.11332185057E+03  0.00000000000E+00 0.  1.
          6    1    1    2  501    0  0.20041481121E+03 -0.55770586556E+02  0.57002117593E+03  0.63097511511E+03  0.17300000000E+03 0.  1.
         -6    1    1    2    0  503 -0.20041481121E+03  0.55770586556E+02  0.13806633889E+03  0.30375610086E+03  0.17300000000E+03 0.  1.
<mgrwt>
<rscale>  2 0.27056507E+03</rscale>
<asrwt>0</asrwt>
<pdfrwt beam="1">  1       21 0.12637067E+00 0.27056507E+03</pdfrwt>
<pdfrwt beam="2">  1       21 0.17434131E-01 0.27056507E+03</pdfrwt>
<totfact> 0.13189652E+04</totfact>
</mgrwt>
</event>
<event>
 4    1  0.4072310E+000  0.1745460E+03  0.7546771E-02  0.1173188E+00
         21   -1    0    0  501  502  0.00000000000E+00  0.00000000000E+00  0.75180948869E+02  0.75180948869E+02  0.00000000000E+00 0. -1.
         21   -1    0    0  502  503 -0.00000000000E+00 -0.00000000000E+00 -0.44582309098E+03  0.44582309098E+03  0.00000000000E+00 0. -1.
          6    1    1    2  501    0 -0.20073724545E+02 -0.11590707929E+02 -0.10672435044E+03  0.20458833277E+03  0.17300000000E+03 0. -1.
         -6    1    1    2    0  503  0.20073724545E+02  0.11590707929E+02 -0.26391779167E+03  0.31641570708E+03  0.17300000000E+03 0. -1.
<mgrwt>
<rscale>  2 0.17454598E+03</rscale>
<asrwt>0</asrwt>
<pdfrwt beam="1">  1       21 0.11566300E-01 0.17454598E+03</pdfrwt>
<pdfrwt beam="2">  1       21 0.68588168E-01 0.17454598E+03</pdfrwt>
<totfact> 0.12225539E+05</totfact>
</mgrwt>
</event>
<event>
 4    1  0.4072310E+000  0.1877367E+03  0.7546771E-02  0.1160519E+00
         21   -1    0    0  503  502  0.00000000000E+00  0.00000000000E+00  0.12535250345E+03  0.12535250345E+03  0.00000000000E+00 0.  1.
         21   -1    0    0  501  503 -0.00000000000E+00 -0.00000000000E+00 -0.71400579313E+03  0.71400579313E+03  0.00000000000E+00 0.  1.
          6    1    1    2  501    0  0.68660469727E+02  0.24531749100E+02 -0.62108695135E+03  0.64884055665E+03  0.17300000000E+03 0.  1.
         -6    1    1    2    0  502 -0.68660469727E+02 -0.24531749100E+02  0.32433661670E+02  0.19051773993E+03  0.17300000000E+03 0.  1.
<mgrwt>
<rscale>  2 0.18773670E+03</rscale>
<asrwt>0</asrwt>
<pdfrwt beam="1">  1       21 0.19285001E-01 0.18773670E+03</pdfrwt>
<pdfrwt beam="2">  1       21 0.10984704E+00 0.18773670E+03</pdfrwt>
<totfact> 0.16240848E+04</totfact>
</mgrwt>
</event>
<event>
 4    1  0.4072310E+000  0.2298033E+03  0.7546771E-02  0.1126778E+00
         21   -1    0    0  503  502  0.00000000000E+00  0.00000000000E+00  0.13147337611E+04  0.13147337611E+04  0.00000000000E+00 0. -1.
         21   -1    0    0  501  503 -0.00000000000E+00 -0.00000000000E+00 -0.54726083332E+02  0.54726083332E+02  0.00000000000E+00 0. -1.
          6    1    1    2  501    0  0.13321637590E+03 -0.71651627795E+02  0.27683547601E+03  0.35978804781E+03  0.17300000000E+03 0. -1.
         -6    1    1    2    0  502 -0.13321637590E+03  0.71651627795E+02  0.98317220181E+03  0.10096717967E+04  0.17300000000E+03 0. -1.
<mgrwt>
<rscale>  2 0.22980330E+03</rscale>
<asrwt>0</asrwt>
<pdfrwt beam="1">  1       21 0.20226671E+00 0.22980330E+03</pdfrwt>
<pdfrwt beam="2">  1       21 0.84193984E-02 0.22980330E+03</pdfrwt>
<totfact> 0.13856543E+04</totfact>
</mgrwt>
</event>
<event>
 4    1  0.4072310E+000  0.2058209E+03  0.7546771E-02  0.1144919E+00
         21   -1    0    0  501  502  0.00000000000E+00  0.00000000000E+00  0.96468180300E+02  0.96468180300E+02  0.00000000000E+00 0. -1.
         21   -1    0    0  502  503 -0.00000000000E+00 -0.00000000000E+00 -0.53830920392E+03  0.53830920392E+03  0.00000000000E+00 0. -1.
          6    1    1    2  501    0 -0.27331423071E+02 -0.10810286038E+03 -0.84687563874E+02  0.22256284188E+03  0.17300000000E+03 0. -1.
         -6    1    1    2    0  503  0.27331423071E+02  0.10810286038E+03 -0.35715345975E+03  0.41221454234E+03  0.17300000000E+03 0. -1.
<mgrwt>
<rscale>  2 0.20582088E+03</rscale>
<asrwt>0</asrwt>
<pdfrwt beam="1">  1       21 0.14841259E-01 0.20582088E+03</pdfrwt>
<pdfrwt beam="2">  1       21 0.82816800E-01 0.20582088E+03</pdfrwt>
<totfact> 0.50523328E+04</totfact>
</mgrwt>
</event>
<event>
 4    1  0.4072310E+000  0.1738031E+03  0.7546771E-02  0.1173939E+00
         21   -1    0    0  503  502  0.00000000000E+00  0.00000000000E+00  0.69701585427E+03  0.69701585427E+03  0.00000000000E+00 0. -1.
         21   -1    0    0  501  503 -0.00000000000E+00 -0.00000000000E+00 -0.44610810279E+02  0.44610810279E+02  0.00000000000E+00 0. -1.
          6    1    1    2  501    0 -0.80944602638E+01  0.14594848226E+02  0.26357658170E+03  0.31572162470E+03  0.17300000000E+03 0. -1.
         -6    1    1    2    0  502  0.80944602638E+01 -0.14594848226E+02  0.38882846229E+03  0.42590503985E+03  0.17300000000E+03 0. -1.
<mgrwt>
<rscale>  2 0.17380314E+03</rscale>
<asrwt>0</asrwt>
<pdfrwt beam="1">  1       21 0.10723320E+00 0.17380314E+03</pdfrwt>
<pdfrwt beam="2">  1       21 0.68632021E-02 0.17380314E+03</pdfrwt>
<totfact> 0.10955000E+05</totfact>
</mgrwt>
</event>
<event>
 4    1  0.4072310E+000  0.2625592E+03  0.7546771E-02  0.1105615E+00
         21   -1    0    0  501  502  0.00000000000E+00  0.00000000000E+00  0.21274570334E+03  0.21274570334E+03  0.00000000000E+00 0. -1.
         21   -1    0    0  502  503 -0.00000000000E+00 -0.00000000000E+00 -0.11704435672E+04  0.11704435672E+04  0.00000000000E+00 0.  1.
          6    1    1    2  501    0  0.18834414094E+03 -0.59454465563E+02  0.10927119985E+03  0.28438977481E+03  0.17300000000E+03 0. -1.
         -6    1    1    2    0  503 -0.18834414094E+03  0.59454465563E+02 -0.10669690637E+04  0.10987994958E+04  0.17300000000E+03 0.  1.
<mgrwt>
<rscale>  2 0.26255923E+03</rscale>
<asrwt>0</asrwt>
<pdfrwt beam="1">  1       21 0.32730108E-01 0.26255923E+03</pdfrwt>
<pdfrwt beam="2">  1       21 0.18006824E+00 0.26255923E+03</pdfrwt>
<totfact> 0.15336937E+03</totfact>
</mgrwt>
</event>
<event>
 4    1  0.4072310E+000  0.1886711E+03  0.7546771E-02  0.1159665E+00
         21   -1    0    0  501  502  0.00000000000E+00  0.00000000000E+00  0.13359404706E+03  0.13359404706E+03  0.00000000000E+00 0.  1.
         21   -1    0    0  502  503 -0.00000000000E+00 -0.00000000000E+00 -0.42486906617E+03  0.42486906617E+03  0.00000000000E+00 0.  1.
          6    1    1    2  501    0 -0.62474087365E+02  0.42009379652E+02  0.24866201140E+02  0.19030272602E+03  0.17300000000E+03 0.  1.
         -6    1    1    2    0  503  0.62474087365E+02 -0.42009379652E+02 -0.31614122025E+03  0.36816038722E+03  0.17300000000E+03 0.  1.
<mgrwt>
<rscale>  2 0.18867114E+03</rscale>
<asrwt>0</asrwt>
<pdfrwt beam="1">  1       21 0.20552931E-01 0.18867114E+03</pdfrwt>
<pdfrwt beam="2">  1       21 0.65364471E-01 0.18867114E+03</pdfrwt>
<totfact> 0.47320223E+04</totfact>
</mgrwt>
</event>
<event>
 4    1  0.4072310E+000  0.1770315E+03  0.7546771E-02  0.1170707E+00
         21   -1    0    0  503  502  0.00000000000E+00  0.00000000000E+00  0.30616565157E+03  0.30616565157E+03  0.00000000000E+00 0.  1.
         21   -1    0    0  501  503 -0.00000000000E+00 -0.00000000000E+00 -0.14382881169E+03  0.14382881169E+03  0.00000000000E+00 0.  1.
          6    1    1    2  501    0  0.37521588690E+02  0.18132455627E+01 -0.39640002187E+02  0.18141523434E+03  0.17300000000E+03 0. -1.
         -6    1    1    2    0  502 -0.37521588690E+02 -0.18132455627E+01  0.20197684207E+03  0.26857922893E+03  0.17300000000E+03 0. -1.
<mgrwt>
<rscale>  2 0.17703152E+03</rscale>
<asrwt>0</asrwt>
<pdfrwt beam="1">  1       21 0.47102408E-01 0.17703152E+03</pdfrwt>
<pdfrwt beam="2">  1       21 0.22127510E-01 0.17703152E+03</pdfrwt>
<totfact> 0.82878725E+04</totfact>
</mgrwt>
</event>
<event>
 4    1  0.4072310E+000  0.1853025E+03  0.7546771E-02  0.1162768E+00
         21   -1    0    0  503  502  0.00000000000E+00  0.00000000000E+00  0.11820844587E+03  0.11820844587E+03  0.00000000000E+00 0.  1.
         21   -1    0    0  501  503 -0.00000000000E+00 -0.00000000000E+00 -0.31883522137E+03  0.31883522137E+03  0.00000000000E+00 0.  1.
          6    1    1    2  501    0  0.60551259068E+02  0.27231543984E+02 -0.16548218466E+03  0.24843785018E+03  0.17300000000E+03 0.  1.
         -6    1    1    2    0  502 -0.60551259068E+02 -0.27231543984E+02 -0.35144590830E+02  0.18860581706E+03  0.17300000000E+03 0.  1.
<mgrwt>
<rscale>  2 0.18530249E+03</rscale>
<asrwt>0</asrwt>
<pdfrwt beam="1">  1       21 0.18185915E-01 0.18530249E+03</pdfrwt>
<pdfrwt beam="2">  1       21 0.49051573E-01 0.18530249E+03</pdfrwt>
<totfact> 0.10952971E+05</totfact>
</mgrwt>
</event>
<event>
 4    1  0.4072310E+000  0.2648974E+03  0.7546771E-02  0.1104236E+00
         21   -1    0    0  503  502  0.00000000000E+00  0.00000000000E+00  0.67166706374E+03  0.67166706374E+03  0.00000000000E+00 0.  1.
         21   -1    0    0  501  503 -0.00000000000E+00 -0.00000000000E+00 -0.10487744201E+03  0.10487744201E+03  0.00000000000E+00 0. -1.
          6    1    1    2  501    0  0.17902708821E+03 -0.90503824495E+02  0.30752545766E+03  0.40588489461E+03  0.17300000000E+03 0.  1.
         -6    1    1    2    0  502 -0.17902708821E+03  0.90503824495E+02  0.25926416406E+03  0.37065961114E+03  0.17300000000E+03 0. -1.
<mgrwt>
<rscale>  2 0.26489742E+03</rscale>
<asrwt>0</asrwt>
<pdfrwt beam="1">  1       21 0.10333339E+00 0.26489742E+03</pdfrwt>
<pdfrwt beam="2">  1       21 0.16134992E-01 0.26489742E+03</pdfrwt>
<totfact> 0.25095815E+04</totfact>
</mgrwt>
</event>
<event>
 4    1  0.4072310E+000  0.1931156E+03  0.7546771E-02  0.1155681E+00
         21   -1    0    0  503  502  0.00000000000E+00  0.00000000000E+00  0.80573668125E+02  0.80573668125E+02  0.00000000000E+00 0. -1.
         21   -1    0    0  501  503 -0.00000000000E+00 -0.00000000000E+00 -0.46361662735E+03  0.46361662735E+03  0.00000000000E+00 0. -1.
          6    1    1    2  501    0  0.76747608874E+02  0.38398610439E+02 -0.18046826928E+03  0.26431504870E+03  0.17300000000E+03 0. -1.
         -6    1    1    2    0  502 -0.76747608874E+02 -0.38398610439E+02 -0.20257468994E+03  0.27987524677E+03  0.17300000000E+03 0. -1.
<mgrwt>
<rscale>  2 0.19311564E+03</rscale>
<asrwt>0</asrwt>
<pdfrwt beam="1">  1       21 0.12395949E-01 0.19311564E+03</pdfrwt>
<pdfrwt beam="2">  1       21 0.71325634E-01 0.19311564E+03</pdfrwt>
<totfact> 0.98415103E+04</totfact>
</mgrwt>
</event>
<event>
 4    1  0.4072310E+000  0.1984634E+03  0.7546771E-02  0.1151042E+00
         21   -1    0    0  503  502  0.00000000000E+00  0.00000000000E+00  0.80726966332E+02  0.80726966332E+02  0.00000000000E+00 0. -1.
         21   -1    0    0  501  503 -0.00000000000E+00 -0.00000000000E+00 -0.70495455207E+03  0.70495455207E+03  0.00000000000E+00 0. -1.
          6    1    1    2  501    0  0.75442982013E+02  0.61376421339E+02 -0.53008933601E+03  0.56602333236E+03  0.17300000000E+03 0. -1.
         -6    1    1    2    0  502 -0.75442982013E+02 -0.61376421339E+02 -0.94138249733E+02  0.21965818604E+03  0.17300000000E+03 0. -1.
<mgrwt>
<rscale>  2 0.19846337E+03</rscale>
<asrwt>0</asrwt>
<pdfrwt beam="1">  1       21 0.12419533E-01 0.19846337E+03</pdfrwt>
<pdfrwt beam="2">  1       21 0.10845455E+00 0.19846337E+03</pdfrwt>
<totfact> 0.37171214E+04</totfact>
</mgrwt>
</event>
<event>
 4    1  0.4072310E+000  0.1756436E+03  0.7546771E-02  0.1172087E+00
         21   -1    0    0  501  502  0.00000000000E+00  0.00000000000E+00  0.74088038318E+02  0.74088038318E+02  0.00000000000E+00 0. -1.
         21   -1    0    0  502  503 -0.00000000000E+00 -0.00000000000E+00 -0.51117844461E+03  0.51117844461E+03  0.00000000000E+00 0. -1.
          6    1    1    2  501    0 -0.29154962861E+02 -0.84655368447E+01 -0.92542676646E+02  0.19853167046E+03  0.17300000000E+03 0. -1.
         -6    1    1    2    0  503  0.29154962861E+02  0.84655368447E+01 -0.34454772964E+03  0.38673481247E+03  0.17300000000E+03 0. -1.
<mgrwt>
<rscale>  2 0.17564361E+03</rscale>
<asrwt>0</asrwt>
<pdfrwt beam="1">  1       21 0.11398160E-01 0.17564361E+03</pdfrwt>
<pdfrwt beam="2">  1       21 0.78642838E-01 0.17564361E+03</pdfrwt>
<totfact> 0.92596724E+04</totfact>
</mgrwt>
</event>
<event>
 4    1  0.4072310E+000  0.1737997E+03  0.7546771E-02  0.1173942E+00
         21   -1    0    0  503  502  0.00000000000E+00  0.00000000000E+00  0.23315861888E+02  0.23315861888E+02  0.00000000000E+00 0.  1.
         21   -1    0    0  501  503 -0.00000000000E+00 -0.00000000000E+00 -0.34801817721E+04  0.34801817721E+04  0.00000000000E+00 0.  1.
          6    1    1    2  501    0 -0.18658528496E+01 -0.16548906698E+02 -0.31163458037E+04  0.31211884781E+04  0.17300000000E+03 0.  1.
         -6    1    1    2    0  502  0.18658528496E+01  0.16548906698E+02 -0.34052010651E+03  0.38230915586E+03  0.17300000000E+03 0.  1.
<mgrwt>
<rscale>  2 0.17379973E+03</rscale>
<asrwt>0</asrwt>
<pdfrwt beam="1">  1       21 0.35870558E-02 0.17379973E+03</pdfrwt>
<pdfrwt beam="2">  1       21 0.53541256E+00 0.17379973E+03</pdfrwt>
<totfact> 0.51181911E+02</totfact>
</mgrwt>
</event>
<event>
 4    1  0.4072310E+000  0.1804638E+03  0.7546771E-02  0.1167355E+00
         21   -1    0    0  503  502  0.00000000000E+00  0.00000000000E+00  0.41719886838E+03  0.41719886838E+03  0.00000000000E+00 0. -1.
         21   -1    0    0  501  503 -0.00000000000E+00 -0.00000000000E+00 -0.94707332217E+02  0.94707332217E+02  0.00000000000E+00 0. -1.
          6    1    1    2  501    0  0.20699522471E+02  0.47007729517E+02  0.53940636259E+02  0.18835283142E+03  0.17300000000E+03 0. -1.
         -6    1    1    2    0  502 -0.20699522471E+02 -0.47007729517E+02  0.26855089990E+03  0.32355336917E+03  0.17300000000E+03 0. -1.
<mgrwt>
<rscale>  2 0.18046384E+03</rscale>
<asrwt>0</asrwt>
<pdfrwt beam="1">  1       21 0.64184440E-01 0.18046384E+03</pdfrwt>
<pdfrwt beam="2">  1       21 0.14570359E-01 0.18046384E+03</pdfrwt>
<totfact> 0.93092866E+04</totfact>
</mgrwt>
</event>
<event>
 4    1  0.4072310E+000  0.2903819E+03  0.7546771E-02  0.1090150E+00
         21   -1    0    0  501  502  0.00000000000E+00  0.00000000000E+00  0.32053957289E+03  0.32053957289E+03  0.00000000000E+00 0.  1.
         21   -1    0    0  502  503 -0.00000000000E+00 -0.00000000000E+00 -0.27622626650E+03  0.27622626650E+03  0.00000000000E+00 0. -1.
          6    1    1    2  501    0 -0.20349545745E+03  0.11393974527E+03  0.87296343712E+02  0.30321991752E+03  0.17300000000E+03 0.  1.
         -6    1    1    2    0  503  0.20349545745E+03 -0.11393974527E+03 -0.42983037323E+02  0.29354592188E+03  0.17300000000E+03 0. -1.
<mgrwt>
<rscale>  2 0.29038193E+03</rscale>
<asrwt>0</asrwt>
<pdfrwt beam="1">  1       21 0.49313781E-01 0.29038193E+03</pdfrwt>
<pdfrwt beam="2">  1       21 0.42496349E-01 0.29038193E+03</pdfrwt>
<totfact> 0.19891088E+04</totfact>
</mgrwt>
</event>
<event>
 4    1  0.4072310E+000  0.2070131E+03  0.7546771E-02  0.1143953E+00
         21   -1    0    0  501  502  0.00000000000E+00  0.00000000000E+00  0.10908824799E+03  0.10908824799E+03  0.00000000000E+00 0. -1.
         21   -1    0    0  502  503 -0.00000000000E+00 -0.00000000000E+00 -0.39511789484E+03  0.39511789484E+03  0.00000000000E+00 0.  1.
          6    1    1    2  501    0  0.11359426111E+03 -0.46664180442E+01 -0.12388094365E+03  0.24124866800E+03  0.17300000000E+03 0.  1.
         -6    1    1    2    0  503 -0.11359426111E+03  0.46664180442E+01 -0.16214870320E+03  0.26295747482E+03  0.17300000000E+03 0. -1.
<mgrwt>
<rscale>  2 0.20701312E+03</rscale>
<asrwt>0</asrwt>
<pdfrwt beam="1">  1       21 0.16782807E-01 0.20701312E+03</pdfrwt>
<pdfrwt beam="2">  1       21 0.60787368E-01 0.20701312E+03</pdfrwt>
<totfact> 0.79984626E+04</totfact>
</mgrwt>
</event>
<event>
 4    1  0.4072310E+000  0.2175143E+03  0.7546771E-02  0.1135750E+00
         21   -1    0    0  503  502  0.00000000000E+00  0.00000000000E+00  0.33963030336E+02  0.33963030336E+02  0.00000000000E+00 0. -1.
         21   -1    0    0  501  503 -0.00000000000E+00 -0.00000000000E+00 -0.14054959331E+04  0.14054959331E+04  0.00000000000E+00 0. -1.
          6    1    1    2  501    0 -0.98905867363E+02 -0.87184167529E+02 -0.75347439580E+03  0.78424238268E+03  0.17300000000E+03 0. -1.
         -6    1    1    2    0  502  0.98905867363E+02  0.87184167529E+02 -0.61805850696E+03  0.65521658076E+03  0.17300000000E+03 0. -1.
<mgrwt>
<rscale>  2 0.21751425E+03</rscale>
<asrwt>0</asrwt>
<pdfrwt beam="1">  1       21 0.52250817E-02 0.21751425E+03</pdfrwt>
<pdfrwt beam="2">  1       21 0.21623014E+00 0.21751425E+03</pdfrwt>
<totfact> 0.26007800E+04</totfact>
</mgrwt>
</event>
<event>
 4    1  0.4072310E+000  0.1730926E+03  0.7546771E-02  0.1174661E+00
         21   -1    0    0  503  502  0.00000000000E+00  0.00000000000E+00  0.96086025053E+02  0.96086025053E+02  0.00000000000E+00 0. -1.
         21   -1    0    0  501  503 -0.00000000000E+00 -0.00000000000E+00 -0.49166914213E+03  0.49166914213E+03  0.00000000000E+00 0. -1.
          6    1    1    2  501    0 -0.38059854193E+01 -0.41911751896E+01 -0.37553368122E+03  0.41350525656E+03  0.17300000000E+03 0. -1.
         -6    1    1    2    0  502  0.38059854193E+01  0.41911751896E+01 -0.20049435862E+02  0.17424991063E+03  0.17300000000E+03 0. -1.
<mgrwt>
<rscale>  2 0.17309261E+03</rscale>
<asrwt>0</asrwt>
<pdfrwt beam="1">  1       21 0.14782466E-01 0.17309261E+03</pdfrwt>
<pdfrwt beam="2">  1       21 0.75641405E-01 0.17309261E+03</pdfrwt>
<totfact> 0.63407442E+04</totfact>
</mgrwt>
</event>
<event>
 4    1  0.4072310E+000  0.2383947E+03  0.7546771E-02  0.1120867E+00
         21   -1    0    0  503  502  0.00000000000E+00  0.00000000000E+00  0.52675356261E+03  0.52675356261E+03  0.00000000000E+00 0. -1.
         21   -1    0    0  501  503 -0.00000000000E+00 -0.00000000000E+00 -0.16463943007E+03  0.16463943007E+03  0.00000000000E+00 0. -1.
          6    1    1    2  501    0 -0.41923235224E+02  0.15857317811E+03 -0.21900231834E+02  0.23939847665E+03  0.17300000000E+03 0. -1.
         -6    1    1    2    0  502  0.41923235224E+02 -0.15857317811E+03  0.38401436437E+03  0.45199451602E+03  0.17300000000E+03 0. -1.
<mgrwt>
<rscale>  2 0.23839465E+03</rscale>
<asrwt>0</asrwt>
<pdfrwt beam="1">  1       21 0.81039009E-01 0.23839465E+03</pdfrwt>
<pdfrwt beam="2">  1       21 0.25329143E-01 0.23839465E+03</pdfrwt>
<totfact> 0.19223623E+04</totfact>
</mgrwt>
</event>
<event>
 4    1  0.4072310E+000  0.3190016E+03  0.7546771E-02  0.1076110E+00
         21   -1    0    0  503  502  0.00000000000E+00  0.00000000000E+00  0.40839503538E+03  0.40839503538E+03  0.00000000000E+00 0.  1.
         21   -1    0    0  501  503 -0.00000000000E+00 -0.00000000000E+00 -0.13463475515E+04  0.13463475515E+04  0.00000000000E+00 0. -1.
          6    1    1    2  501    0 -0.19885016477E+03 -0.17969867208E+03 -0.12610073197E+04  0.13007311256E+04  0.17300000000E+03 0. -1.
         -6    1    1    2    0  502  0.19885016477E+03  0.17969867208E+03  0.32305480363E+03  0.45401146123E+03  0.17300000000E+03 0.  1.
<mgrwt>
<rscale>  2 0.31900157E+03</rscale>
<asrwt>0</asrwt>
<pdfrwt beam="1">  1       21 0.62830006E-01 0.31900157E+03</pdfrwt>
<pdfrwt beam="2">  1       21 0.20713039E+00 0.31900157E+03</pdfrwt>
<totfact> 0.24975436E+02</totfact>
</mgrwt>
</event>
<event>
 4    1  0.4072310E+000  0.1802527E+03  0.7546771E-02  0.1167559E+00
         21   -1    0    0  501  502  0.00000000000E+00  0.00000000000E+00  0.17709619179E+03  0.17709619179E+03  0.00000000000E+00 0.  1.
         21   -1    0    0  502  503 -0.00000000000E+00 -0.00000000000E+00 -0.18368949424E+03  0.18368949424E+03  0.00000000000E+00 0.  1.
          6    1    1    2  501    0 -0.48174245949E+02 -0.15533415411E+02 -0.95957135640E+01  0.18050795740E+03  0.17300000000E+03 0.  1.
         -6    1    1    2    0  503  0.48174245949E+02  0.15533415411E+02  0.30024111204E+01  0.18027772863E+03  0.17300000000E+03 0.  1.
<mgrwt>
<rscale>  2 0.18025273E+03</rscale>
<asrwt>0</asrwt>
<pdfrwt beam="1">  1       21 0.27245568E-01 0.18025273E+03</pdfrwt>
<pdfrwt beam="2">  1       21 0.28259922E-01 0.18025273E+03</pdfrwt>
<totfact> 0.15430867E+05</totfact>
</mgrwt>
</event>
<event>
 4    1  0.4072310E+000  0.2074188E+03  0.7546771E-02  0.1143626E+00
         21   -1    0    0  501  502  0.00000000000E+00  0.00000000000E+00  0.90703337841E+03  0.90703337841E+03  0.00000000000E+00 0. -1.
         21   -1    0    0  502  503 -0.00000000000E+00 -0.00000000000E+00 -0.60088740400E+02  0.60088740400E+02  0.00000000000E+00 0. -1.
          6    1    1    2  501    0  0.11407044786E+03  0.90273644281E+01  0.64540068167E+03  0.67791194140E+03  0.17300000000E+03 0. -1.
         -6    1    1    2    0  503 -0.11407044786E+03 -0.90273644281E+01  0.20154395633E+03  0.28921017741E+03  0.17300000000E+03 0. -1.
<mgrwt>
<rscale>  2 0.20741880E+03</rscale>
<asrwt>0</asrwt>
<pdfrwt beam="1">  1       21 0.13954359E+00 0.20741880E+03</pdfrwt>
<pdfrwt beam="2">  1       21 0.92444223E-02 0.20741880E+03</pdfrwt>
<totfact> 0.33334690E+04</totfact>
</mgrwt>
</event>
<event>
 4    1  0.4072310E+000  0.1844984E+03  0.7546771E-02  0.1163519E+00
         21   -1    0    0  503  502  0.00000000000E+00  0.00000000000E+00  0.62390042355E+02  0.62390042355E+02  0.00000000000E+00 0.  1.
         21   -1    0    0  501  503 -0.00000000000E+00 -0.00000000000E+00 -0.10735326235E+04  0.10735326235E+04  0.00000000000E+00 0.  1.
          6    1    1    2  501    0 -0.48040057622E+02 -0.42459544853E+02 -0.90386430013E+03  0.92250221308E+03  0.17300000000E+03 0.  1.
         -6    1    1    2    0  502  0.48040057622E+02  0.42459544853E+02 -0.10727828101E+03  0.21342045277E+03  0.17300000000E+03 0.  1.
<mgrwt>
<rscale>  2 0.18449840E+03</rscale>
<asrwt>0</asrwt>
<pdfrwt beam="1">  1       21 0.95984685E-02 0.18449840E+03</pdfrwt>
<pdfrwt beam="2">  1       21 0.16515886E+00 0.18449840E+03</pdfrwt>
<totfact> 0.20259857E+04</totfact>
</mgrwt>
</event>
<event>
 4    1  0.4072310E+000  0.2686446E+03  0.7546771E-02  0.1102058E+00
         21   -1    0    0  501  502  0.00000000000E+00  0.00000000000E+00  0.41895167839E+03  0.41895167839E+03  0.00000000000E+00 0. -1.
         21   -1    0    0  502  503 -0.00000000000E+00 -0.00000000000E+00 -0.54037282376E+03  0.54037282376E+03  0.00000000000E+00 0.  1.
          6    1    1    2  501    0  0.37221269475E+02  0.20212739651E+03  0.33518208471E+03  0.42955434724E+03  0.17300000000E+03 0. -1.
         -6    1    1    2    0  503 -0.37221269475E+02 -0.20212739651E+03 -0.45660323007E+03  0.52977015491E+03  0.17300000000E+03 0.  1.
<mgrwt>
<rscale>  2 0.26864457E+03</rscale>
<asrwt>0</asrwt>
<pdfrwt beam="1">  1       21 0.64454105E-01 0.26864457E+03</pdfrwt>
<pdfrwt beam="2">  1       21 0.83134280E-01 0.26864457E+03</pdfrwt>
<totfact> 0.26437246E+03</totfact>
</mgrwt>
</event>
<event>
 4    1  0.4072310E+000  0.1996798E+03  0.7546771E-02  0.1150009E+00
         21   -1    0    0  503  502  0.00000000000E+00  0.00000000000E+00  0.92444372026E+03  0.92444372026E+03  0.00000000000E+00 0.  1.
         21   -1    0    0  501  503 -0.00000000000E+00 -0.00000000000E+00 -0.49885098795E+02  0.49885098795E+02  0.00000000000E+00 0.  1.
          6    1    1    2  501    0  0.84712773091E+02 -0.52599993573E+02  0.25802083007E+03  0.32626179979E+03  0.17300000000E+03 0.  1.
         -6    1    1    2    0  502 -0.84712773091E+02  0.52599993573E+02  0.61653779139E+03  0.64806701927E+03  0.17300000000E+03 0.  1.
<mgrwt>
<rscale>  2 0.19967978E+03</rscale>
<asrwt>0</asrwt>
<pdfrwt beam="1">  1       21 0.14222210E+00 0.19967978E+03</pdfrwt>
<pdfrwt beam="2">  1       21 0.76746313E-02 0.19967978E+03</pdfrwt>
<totfact> 0.44132111E+04</totfact>
</mgrwt>
</event>
<event>
 4    1  0.4072310E+000  0.2159718E+03  0.7546771E-02  0.1136922E+00
         21   -1    0    0  503  502  0.00000000000E+00  0.00000000000E+00  0.17208823558E+04  0.17208823558E+04  0.00000000000E+00 0. -1.
         21   -1    0    0  501  503 -0.00000000000E+00 -0.00000000000E+00 -0.30173386044E+02  0.30173386044E+02  0.00000000000E+00 0.  1.
          6    1    1    2  501    0  0.10874187433E+03  0.69928671921E+02  0.56613751364E+03  0.60593357617E+03  0.17300000000E+03 0.  1.
         -6    1    1    2    0  502 -0.10874187433E+03 -0.69928671921E+02  0.11245714561E+04  0.11451221657E+04  0.17300000000E+03 0. -1.
<mgrwt>
<rscale>  2 0.21597179E+03</rscale>
<asrwt>0</asrwt>
<pdfrwt beam="1">  1       21 0.26475106E+00 0.21597179E+03</pdfrwt>
<pdfrwt beam="2">  1       21 0.46420607E-02 0.21597179E+03</pdfrwt>
<totfact> 0.16287169E+04</totfact>
</mgrwt>
</event>
<event>
 4    1  0.4072310E+000  0.1839903E+03  0.7546771E-02  0.1163996E+00
         21   -1    0    0  501  502  0.00000000000E+00  0.00000000000E+00  0.10525886819E+04  0.10525886819E+04  0.00000000000E+00 0. -1.
         21   -1    0    0  502  503 -0.00000000000E+00 -0.00000000000E+00 -0.42422465680E+02  0.42422465680E+02  0.00000000000E+00 0. -1.
          6    1    1    2  501    0 -0.52922204285E+02 -0.33506332644E+02  0.77435603284E+03  0.79591437958E+03  0.17300000000E+03 0. -1.
         -6    1    1    2    0  503  0.52922204285E+02  0.33506332644E+02  0.23581018333E+03  0.29909676795E+03  0.17300000000E+03 0. -1.
<mgrwt>
<rscale>  2 0.18399031E+03</rscale>
<asrwt>0</asrwt>
<pdfrwt beam="1">  1       21 0.16193670E+00 0.18399031E+03</pdfrwt>
<pdfrwt beam="2">  1       21 0.65265340E-02 0.18399031E+03</pdfrwt>
<totfact> 0.41800608E+04</totfact>
</mgrwt>
</event>
<event>
 4    1  0.4072310E+000  0.1740180E+03  0.7546771E-02  0.1173721E+00
         21   -1    0    0  503  502  0.00000000000E+00  0.00000000000E+00  0.16626188319E+03  0.16626188319E+03  0.00000000000E+00 0. -1.
         21   -1    0    0  501  503 -0.00000000000E+00 -0.00000000000E+00 -0.25219551916E+03  0.25219551916E+03  0.00000000000E+00 0. -1.
          6    1    1    2  501    0 -0.67209258059E+01  0.17552272719E+02 -0.15324422557E+03  0.23187506505E+03  0.17300000000E+03 0. -1.
         -6    1    1    2    0  502  0.67209258059E+01 -0.17552272719E+02  0.67310589601E+02  0.18658233730E+03  0.17300000000E+03 0. -1.
<mgrwt>
<rscale>  2 0.17401797E+03</rscale>
<asrwt>0</asrwt>
<pdfrwt beam="1">  1       21 0.25578751E-01 0.17401797E+03</pdfrwt>
<pdfrwt beam="2">  1       21 0.38799311E-01 0.17401797E+03</pdfrwt>
<totfact> 0.93541743E+04</totfact>
</mgrwt>
</event>
<event>
 4    1  0.4072310E+000  0.2982448E+03  0.7546771E-02  0.1086121E+00
         21   -1    0    0  501  502  0.00000000000E+00  0.00000000000E+00  0.17331070414E+03  0.17331070414E+03  0.00000000000E+00 0.  1.
         21   -1    0    0  502  503 -0.00000000000E+00 -0.00000000000E+00 -0.13502498879E+04  0.13502498879E+04  0.00000000000E+00 0. -1.
          6    1    1    2  501    0 -0.24097598815E+03  0.30847130601E+02  0.11304876673E+02  0.29845899646E+03  0.17300000000E+03 0.  1.
         -6    1    1    2    0  503  0.24097598815E+03 -0.30847130601E+02 -0.11882440605E+04  0.12251015956E+04  0.17300000000E+03 0. -1.
<mgrwt>
<rscale>  2 0.29824482E+03</rscale>
<asrwt>0</asrwt>
<pdfrwt beam="1">  1       21 0.26663185E-01 0.29824482E+03</pdfrwt>
<pdfrwt beam="2">  1       21 0.20773075E+00 0.29824482E+03</pdfrwt>
<totfact> 0.14632656E+03</totfact>
</mgrwt>
</event>
<event>
 4    1  0.4072310E+000  0.2304845E+03  0.7546771E-02  0.1126299E+00
         21   -1    0    0  503  502  0.00000000000E+00  0.00000000000E+00  0.14364128711E+03  0.14364128711E+03  0.00000000000E+00 0. -1.
         21   -1    0    0  501  503 -0.00000000000E+00 -0.00000000000E+00 -0.75470090058E+03  0.75470090058E+03  0.00000000000E+00 0.  1.
          6    1    1    2  501    0  0.12053083774E+03  0.93093498483E+02 -0.62629040844E+03  0.66735504644E+03  0.17300000000E+03 0.  1.
         -6    1    1    2    0  502 -0.12053083774E+03 -0.93093498483E+02  0.15230794970E+02  0.23098714125E+03  0.17300000000E+03 0. -1.
<mgrwt>
<rscale>  2 0.23048445E+03</rscale>
<asrwt>0</asrwt>
<pdfrwt beam="1">  1       21 0.22098659E-01 0.23048445E+03</pdfrwt>
<pdfrwt beam="2">  1       21 0.11610783E+00 0.23048445E+03</pdfrwt>
<totfact> 0.10686848E+04</totfact>
</mgrwt>
</event>
<event>
 4    1  0.4072310E+000  0.1883719E+03  0.7546771E-02  0.1159938E+00
         21   -1    0    0  503  502  0.00000000000E+00  0.00000000000E+00  0.25015934627E+03  0.25015934627E+03  0.00000000000E+00 0.  1.
         21   -1    0    0  501  503 -0.00000000000E+00 -0.00000000000E+00 -0.18177889977E+03  0.18177889977E+03  0.00000000000E+00 0.  1.
          6    1    1    2  501    0 -0.23193187626E+02 -0.70831005954E+02 -0.67034956098E+02  0.19994409393E+03  0.17300000000E+03 0.  1.
         -6    1    1    2    0  502  0.23193187626E+02  0.70831005954E+02  0.13541540259E+03  0.23199415212E+03  0.17300000000E+03 0.  1.
<mgrwt>
<rscale>  2 0.18837185E+03</rscale>
<asrwt>0</asrwt>
<pdfrwt beam="1">  1       21 0.38486053E-01 0.18837185E+03</pdfrwt>
<pdfrwt beam="2">  1       21 0.27965985E-01 0.18837185E+03</pdfrwt>
<totfact> 0.79644798E+04</totfact>
</mgrwt>
</event>
<event>
 4    1  0.4072310E+000  0.1753472E+03  0.7546771E-02  0.1172384E+00
         21   -1    0    0  503  502  0.00000000000E+00  0.00000000000E+00  0.99932922821E+03  0.99932922821E+03  0.00000000000E+00 0. -1.
         21   -1    0    0  501  503 -0.00000000000E+00 -0.00000000000E+00 -0.97253457738E+02  0.97253457738E+02  0.00000000000E+00 0. -1.
          6    1    1    2  501    0 -0.64308935865E+01  0.27861625228E+02 -0.23026963613E+01  0.17536227919E+03  0.17300000000E+03 0. -1.
         -6    1    1    2    0  502  0.64308935865E+01 -0.27861625228E+02  0.90437846683E+03  0.92122040675E+03  0.17300000000E+03 0. -1.
<mgrwt>
<rscale>  2 0.17534716E+03</rscale>
<asrwt>0</asrwt>
<pdfrwt beam="1">  1       21 0.15374295E+00 0.17534716E+03</pdfrwt>
<pdfrwt beam="2">  1       21 0.14962071E-01 0.17534716E+03</pdfrwt>
<totfact> 0.11184680E+04</totfact>
</mgrwt>
</event>
<event>
 4    1  0.4072310E+000  0.2180163E+03  0.7546771E-02  0.1135371E+00
         21   -1    0    0  503  502  0.00000000000E+00  0.00000000000E+00  0.10079906963E+04  0.10079906963E+04  0.00000000000E+00 0.  1.
         21   -1    0    0  501  503 -0.00000000000E+00 -0.00000000000E+00 -0.16991222742E+03  0.16991222742E+03  0.00000000000E+00 0.  1.
          6    1    1    2  501    0 -0.26722579078E+02  0.12995389277E+03 -0.81562021967E+02  0.23277343900E+03  0.17300000000E+03 0.  1.
         -6    1    1    2    0  502  0.26722579078E+02 -0.12995389277E+03  0.91964049087E+03  0.94512948474E+03  0.17300000000E+03 0.  1.
<mgrwt>
<rscale>  2 0.21801631E+03</rscale>
<asrwt>0</asrwt>
<pdfrwt beam="1">  1       21 0.15507549E+00 0.21801631E+03</pdfrwt>
<pdfrwt beam="2">  1       21 0.26140344E-01 0.21801631E+03</pdfrwt>
<totfact> 0.37251844E+03</totfact>
</mgrwt>
</event>
<event>
 4    1  0.4072310E+000  0.2000536E+03  0.7546771E-02  0.1149694E+00
         21   -1    0    0  503  502  0.00000000000E+00  0.00000000000E+00  0.29037336601E+03  0.29037336601E+03  0.00000000000E+00 0.  1.
         21   -1    0    0  501  503 -0.00000000000E+00 -0.00000000000E+00 -0.15849226042E+03  0.15849226042E+03  0.00000000000E+00 0.  1.
          6    1    1    2  501    0  0.81749541531E+02  0.58390409744E+02 -0.15099140061E+02  0.20062255985E+03  0.17300000000E+03 0.  1.
         -6    1    1    2    0  502 -0.81749541531E+02 -0.58390409744E+02  0.14698024566E+03  0.24824306658E+03  0.17300000000E+03 0.  1.
<mgrwt>
<rscale>  2 0.20005356E+03</rscale>
<asrwt>0</asrwt>
<pdfrwt beam="1">  1       21 0.44672825E-01 0.20005356E+03</pdfrwt>
<pdfrwt beam="2">  1       21 0.24383425E-01 0.20005356E+03</pdfrwt>
<totfact> 0.76164723E+04</totfact>
</mgrwt>
</event>
<event>
 4    1  0.4072310E+000  0.2052924E+03  0.7546771E-02  0.1145349E+00
         21   -1    0    0  501  502  0.00000000000E+00  0.00000000000E+00  0.11117832798E+04  0.11117832798E+04  0.00000000000E+00 0.  1.
         21   -1    0    0  502  503 -0.00000000000E+00 -0.00000000000E+00 -0.40199401000E+02  0.40199401000E+02  0.00000000000E+00 0. -1.
          6    1    1    2  501    0  0.95494202948E+02 -0.55649072920E+02  0.67332303413E+03  0.70392390953E+03  0.17300000000E+03 0. -1.
         -6    1    1    2    0  503 -0.95494202948E+02  0.55649072920E+02  0.39826084464E+03  0.44805877124E+03  0.17300000000E+03 0. -1.
<mgrwt>
<rscale>  2 0.20529238E+03</rscale>
<asrwt>0</asrwt>
<pdfrwt beam="1">  1       21 0.17104356E+00 0.20529238E+03</pdfrwt>
<pdfrwt beam="2">  1       21 0.61845241E-02 0.20529238E+03</pdfrwt>
<totfact> 0.38968551E+04</totfact>
</mgrwt>
</event>
<event>
 4    1  0.4072310E+000  0.1842869E+03  0.7546771E-02  0.1163717E+00
         21   -1    0    0  501  502  0.00000000000E+00  0.00000000000E+00  0.11925773312E+03  0.11925773312E+03  0.00000000000E+00 0.  1.
         21   -1    0    0  502  503 -0.00000000000E+00 -0.00000000000E+00 -0.34756564885E+03  0.34756564885E+03  0.00000000000E+00 0.  1.
          6    1    1    2  501    0 -0.56731392277E+02  0.28534443745E+02 -0.14945116120E+02  0.18489191936E+03  0.17300000000E+03 0.  1.
         -6    1    1    2    0  503  0.56731392277E+02 -0.28534443745E+02 -0.21336279961E+03  0.28193146261E+03  0.17300000000E+03 0.  1.
<mgrwt>
<rscale>  2 0.18428691E+03</rscale>
<asrwt>0</asrwt>
<pdfrwt beam="1">  1       21 0.18347343E-01 0.18428691E+03</pdfrwt>
<pdfrwt beam="2">  1       21 0.53471639E-01 0.18428691E+03</pdfrwt>
<totfact> 0.90006132E+04</totfact>
</mgrwt>
</event>
<event>
 4    1  0.4072310E+000  0.2161759E+03  0.7546771E-02  0.1136767E+00
         21   -1    0    0  503  502  0.00000000000E+00  0.00000000000E+00  0.55924261300E+03  0.55924261300E+03  0.00000000000E+00 0. -1.
         21   -1    0    0  501  503 -0.00000000000E+00 -0.00000000000E+00 -0.91551289765E+02  0.91551289765E+02  0.00000000000E+00 0. -1.
          6    1    1    2  501    0 -0.12886949607E+03 -0.13987852095E+02  0.13772708151E+03  0.25632158708E+03  0.17300000000E+03 0. -1.
         -6    1    1    2    0  502  0.12886949607E+03  0.13987852095E+02  0.32996424172E+03  0.39447231568E+03  0.17300000000E+03 0. -1.
<mgrwt>
<rscale>  2 0.21617587E+03</rscale>
<asrwt>0</asrwt>
<pdfrwt beam="1">  1       21 0.86037323E-01 0.21617587E+03</pdfrwt>
<pdfrwt beam="2">  1       21 0.14084814E-01 0.21617587E+03</pdfrwt>
<totfact> 0.50667021E+04</totfact>
</mgrwt>
</event>
<event>
 4    1  0.4072310E+000  0.2210287E+03  0.7546771E-02  0.1133118E+00
         21   -1    0    0  503  502  0.00000000000E+00  0.00000000000E+00  0.19139821086E+03  0.19139821086E+03  0.00000000000E+00 0. -1.
         21   -1    0    0  501  503 -0.00000000000E+00 -0.00000000000E+00 -0.28464096844E+03  0.28464096844E+03  0.00000000000E+00 0.  1.
          6    1    1    2  501    0  0.12525343349E+03  0.56887998728E+02 -0.12311037849E+03  0.25300164484E+03  0.17300000000E+03 0.  1.
         -6    1    1    2    0  502 -0.12525343349E+03 -0.56887998728E+02  0.29867620904E+02  0.22303753446E+03  0.17300000000E+03 0. -1.
<mgrwt>
<rscale>  2 0.22102866E+03</rscale>
<asrwt>0</asrwt>
<pdfrwt beam="1">  1       21 0.29445878E-01 0.22102866E+03</pdfrwt>
<pdfrwt beam="2">  1       21 0.43790918E-01 0.22102866E+03</pdfrwt>
<totfact> 0.54647664E+04</totfact>
</mgrwt>
</event>
<event>
 4    1  0.4072310E+000  0.2937121E+03  0.7546771E-02  0.1088427E+00
         21   -1    0    0  503  502  0.00000000000E+00  0.00000000000E+00  0.86738029503E+02  0.86738029503E+02  0.00000000000E+00 0. -1.
         21   -1    0    0  501  503 -0.00000000000E+00 -0.00000000000E+00 -0.13885782808E+04  0.13885782808E+04  0.00000000000E+00 0.  1.
          6    1    1    2  501    0  0.23039987305E+03 -0.57040951933E+02 -0.10438584206E+04  0.10843925368E+04  0.17300000000E+03 0.  1.
         -6    1    1    2    0  502 -0.23039987305E+03  0.57040951933E+02 -0.25798183074E+03  0.39092377350E+03  0.17300000000E+03 0. -1.
<mgrwt>
<rscale>  2 0.29371206E+03</rscale>
<asrwt>0</asrwt>
<pdfrwt beam="1">  1       21 0.13344313E-01 0.29371206E+03</pdfrwt>
<pdfrwt beam="2">  1       21 0.21362742E+00 0.29371206E+03</pdfrwt>
<totfact> 0.49366208E+03</totfact>
</mgrwt>
</event>
<event>
 4    1  0.4072310E+000  0.2542825E+03  0.7546771E-02  0.1110628E+00
         21   -1    0    0  503  502  0.00000000000E+00  0.00000000000E+00  0.55381493186E+03  0.55381493186E+03  0.00000000000E+00 0. -1.
         21   -1    0    0  501  503 -0.00000000000E+00 -0.00000000000E+00 -0.11741711742E+03  0.11741711742E+03  0.00000000000E+00 0. -1.
          6    1    1    2  501    0  0.10884254122E+03 -0.15127424213E+03  0.19295970739E+03  0.31920689809E+03  0.17300000000E+03 0. -1.
         -6    1    1    2    0  502 -0.10884254122E+03  0.15127424213E+03  0.24343810705E+03  0.35202515120E+03  0.17300000000E+03 0. -1.
<mgrwt>
<rscale>  2 0.25428251E+03</rscale>
<asrwt>0</asrwt>
<pdfrwt beam="1">  1       21 0.85202296E-01 0.25428251E+03</pdfrwt>
<pdfrwt beam="2">  1       21 0.18064172E-01 0.25428251E+03</pdfrwt>
<totfact> 0.32231918E+04</totfact>
</mgrwt>
</event>
<event>
 4    1  0.4072310E+000  0.2274272E+03  0.7546771E-02  0.1128464E+00
         21   -1    0    0  503  502  0.00000000000E+00  0.00000000000E+00  0.48982276231E+02  0.48982276231E+02  0.00000000000E+00 0.  1.
         21   -1    0    0  501  503 -0.00000000000E+00 -0.00000000000E+00 -0.10587662554E+04  0.10587662554E+04  0.00000000000E+00 0.  1.
          6    1    1    2  501    0 -0.14239432358E+03 -0.38961579873E+02 -0.53342536144E+03  0.57988426804E+03  0.17300000000E+03 0. -1.
         -6    1    1    2    0  502  0.14239432358E+03  0.38961579873E+02 -0.47635861775E+03  0.52786426361E+03  0.17300000000E+03 0. -1.
<mgrwt>
<rscale>  2 0.22742724E+03</rscale>
<asrwt>0</asrwt>
<pdfrwt beam="1">  1       21 0.75357357E-02 0.22742724E+03</pdfrwt>
<pdfrwt beam="2">  1       21 0.16288710E+00 0.22742724E+03</pdfrwt>
<totfact> 0.31254252E+04</totfact>
</mgrwt>
</event>
<event>
 4    1  0.4072310E+000  0.1899692E+03  0.7546771E-02  0.1158489E+00
         21   -1    0    0  503  502  0.00000000000E+00  0.00000000000E+00  0.30765095080E+02  0.30765095080E+02  0.00000000000E+00 0.  1.
         21   -1    0    0  501  503 -0.00000000000E+00 -0.00000000000E+00 -0.15264696675E+04  0.15264696675E+04  0.00000000000E+00 0. -1.
          6    1    1    2  501    0 -0.75709202068E+02 -0.20673625802E+02 -0.11225142412E+04  0.11384755175E+04  0.17300000000E+03 0. -1.
         -6    1    1    2    0  502  0.75709202068E+02  0.20673625802E+02 -0.37319033117E+03  0.41875924510E+03  0.17300000000E+03 0. -1.
<mgrwt>
<rscale>  2 0.18996916E+03</rscale>
<asrwt>0</asrwt>
<pdfrwt beam="1">  1       21 0.47330910E-02 0.18996916E+03</pdfrwt>
<pdfrwt beam="2">  1       21 0.23484151E+00 0.18996916E+03</pdfrwt>
<totfact> 0.24193389E+04</totfact>
</mgrwt>
</event>
<event>
 4    1  0.4072310E+000  0.2171478E+03  0.7546771E-02  0.1136028E+00
         21   -1    0    0  503  502  0.00000000000E+00  0.00000000000E+00  0.23288037785E+03  0.23288037785E+03  0.00000000000E+00 0. -1.
         21   -1    0    0  501  503 -0.00000000000E+00 -0.00000000000E+00 -0.23315139611E+03  0.23315139611E+03  0.00000000000E+00 0.  1.
          6    1    1    2  501    0  0.53765308537E+02 -0.11972236813E+03 -0.84653162942E+02  0.23306503777E+03  0.17300000000E+03 0.  1.
         -6    1    1    2    0  502 -0.53765308537E+02  0.11972236813E+03  0.84382144678E+02  0.23296673620E+03  0.17300000000E+03 0.  1.
<mgrwt>
<rscale>  2 0.21714777E+03</rscale>
<asrwt>0</asrwt>
<pdfrwt beam="1">  1       21 0.35827750E-01 0.21714777E+03</pdfrwt>
<pdfrwt beam="2">  1       21 0.35869446E-01 0.21714777E+03</pdfrwt>
<totfact> 0.55666487E+04</totfact>
</mgrwt>
</event>
<event>
 4    1  0.4072310E+000  0.1833097E+03  0.7546771E-02  0.1164638E+00
         21   -1    0    0  503  502  0.00000000000E+00  0.00000000000E+00  0.22556462399E+03  0.22556462399E+03  0.00000000000E+00 0. -1.
         21   -1    0    0  501  503 -0.00000000000E+00 -0.00000000000E+00 -0.15198347024E+03  0.15198347024E+03  0.00000000000E+00 0. -1.
          6    1    1    2  501    0 -0.24198222602E+02 -0.55568818341E+02  0.10210866609E+02  0.18359387067E+03  0.17300000000E+03 0. -1.
         -6    1    1    2    0  502  0.24198222602E+02  0.55568818341E+02  0.63370287140E+02  0.19395422357E+03  0.17300000000E+03 0. -1.
<mgrwt>
<rscale>  2 0.18330970E+03</rscale>
<asrwt>0</asrwt>
<pdfrwt beam="1">  1       21 0.34702250E-01 0.18330970E+03</pdfrwt>
<pdfrwt beam="2">  1       21 0.23382072E-01 0.18330970E+03</pdfrwt>
<totfact> 0.13811753E+05</totfact>
</mgrwt>
</event>
<event>
 4    1  0.4072310E+000  0.2241682E+03  0.7546771E-02  0.1130813E+00
         21   -1    0    0  503  502  0.00000000000E+00  0.00000000000E+00  0.31765410445E+03  0.31765410445E+03  0.00000000000E+00 0. -1.
         21   -1    0    0  501  503 -0.00000000000E+00 -0.00000000000E+00 -0.19531854407E+03  0.19531854407E+03  0.00000000000E+00 0.  1.
          6    1    1    2  501    0 -0.12633466897E+03  0.66045081673E+02 -0.50651104910E+02  0.22981935477E+03  0.17300000000E+03 0.  1.
         -6    1    1    2    0  502  0.12633466897E+03 -0.66045081673E+02  0.17298666529E+03  0.28315329376E+03  0.17300000000E+03 0. -1.
<mgrwt>
<rscale>  2 0.22416824E+03</rscale>
<asrwt>0</asrwt>
<pdfrwt beam="1">  1       21 0.48869862E-01 0.22416824E+03</pdfrwt>
<pdfrwt beam="2">  1       21 0.30049007E-01 0.22416824E+03</pdfrwt>
<totfact> 0.41796832E+04</totfact>
</mgrwt>
</event>
<event>
 4    1  0.4072310E+000  0.1762817E+03  0.7546771E-02  0.1171451E+00
         21   -1    0    0  503  502  0.00000000000E+00  0.00000000000E+00  0.51462028224E+03  0.51462028224E+03  0.00000000000E+00 0.  1.
         21   -1    0    0  501  503 -0.00000000000E+00 -0.00000000000E+00 -0.63954166882E+02  0.63954166882E+02  0.00000000000E+00 0.  1.
          6    1    1    2  501    0 -0.22530181519E+02  0.25271246403E+02  0.15699066617E+03  0.23605362577E+03  0.17300000000E+03 0.  1.
         -6    1    1    2    0  502  0.22530181519E+02 -0.25271246403E+02  0.29367544919E+03  0.34252082335E+03  0.17300000000E+03 0.  1.
<mgrwt>
<rscale>  2 0.17628172E+03</rscale>
<asrwt>0</asrwt>
<pdfrwt beam="1">  1       21 0.79172348E-01 0.17628172E+03</pdfrwt>
<pdfrwt beam="2">  1       21 0.98391029E-02 0.17628172E+03</pdfrwt>
<totfact> 0.11829774E+05</totfact>
</mgrwt>
</event>
<event>
 4    1  0.4072310E+000  0.2079868E+03  0.7546771E-02  0.1143170E+00
         21   -1    0    0  501  502  0.00000000000E+00  0.00000000000E+00  0.10216651261E+04  0.10216651261E+04  0.00000000000E+00 0.  1.
         21   -1    0    0  502  503 -0.00000000000E+00 -0.00000000000E+00 -0.57732954910E+02  0.57732954910E+02  0.00000000000E+00 0. -1.
          6    1    1    2  501    0  0.11498638468E+03 -0.10374264681E+02  0.76063227812E+03  0.78855561411E+03  0.17300000000E+03 0.  1.
         -6    1    1    2    0  503 -0.11498638468E+03  0.10374264681E+02  0.20329989308E+03  0.29084246691E+03  0.17300000000E+03 0. -1.
<mgrwt>
<rscale>  2 0.20798676E+03</rscale>
<asrwt>0</asrwt>
<pdfrwt beam="1">  1       21 0.15717924E+00 0.20798676E+03</pdfrwt>
<pdfrwt beam="2">  1       21 0.88819938E-02 0.20798676E+03</pdfrwt>
<totfact> 0.26133961E+04</totfact>
</mgrwt>
</event>
<event>
 4    1  0.4072310E+000  0.1899579E+03  0.7546771E-02  0.1158499E+00
         21   -1    0    0  503  502  0.00000000000E+00  0.00000000000E+00  0.24200589774E+03  0.24200589774E+03  0.00000000000E+00 0.  1.
         21   -1    0    0  501  503 -0.00000000000E+00 -0.00000000000E+00 -0.19006994999E+03  0.19006994999E+03  0.00000000000E+00 0.  1.
          6    1    1    2  501    0 -0.23256225406E+02 -0.74927724372E+02 -0.74328454896E+02  0.20398219311E+03  0.17300000000E+03 0.  1.
         -6    1    1    2    0  502  0.23256225406E+02  0.74927724372E+02  0.12626440264E+03  0.22809365461E+03  0.17300000000E+03 0.  1.
<mgrwt>
<rscale>  2 0.18995793E+03</rscale>
<asrwt>0</asrwt>
<pdfrwt beam="1">  1       21 0.37231676E-01 0.18995793E+03</pdfrwt>
<pdfrwt beam="2">  1       21 0.29241531E-01 0.18995793E+03</pdfrwt>
<totfact> 0.78016613E+04</totfact>
</mgrwt>
</event>
<event>
 4    1  0.4072310E+000  0.2184903E+03  0.7546771E-02  0.1135014E+00
         21   -1    0    0  501  502  0.00000000000E+00  0.00000000000E+00  0.62754165547E+03  0.62754165547E+03  0.00000000000E+00 0.  1.
         21   -1    0    0  502  503 -0.00000000000E+00 -0.00000000000E+00 -0.77933726410E+02  0.77933726410E+02  0.00000000000E+00 0.  1.
          6    1    1    2  501    0 -0.20053982189E+02 -0.13193502449E+03  0.32933070086E+03  0.39521731163E+03  0.17300000000E+03 0.  1.
         -6    1    1    2    0  503  0.20053982189E+02  0.13193502449E+03  0.22027722820E+03  0.31025807024E+03  0.17300000000E+03 0.  1.
<mgrwt>
<rscale>  2 0.21849030E+03</rscale>
<asrwt>0</asrwt>
<pdfrwt beam="1">  1       21 0.96544867E-01 0.21849030E+03</pdfrwt>
<pdfrwt beam="2">  1       21 0.11989804E-01 0.21849030E+03</pdfrwt>
<totfact> 0.51757245E+04</totfact>
</mgrwt>
</event>
<event>
 4    1  0.4072310E+000  0.5970609E+03  0.7546771E-02  0.9911523E-01
         21   -1    0    0  503  502  0.00000000000E+00  0.00000000000E+00  0.16101790857E+04  0.16101790857E+04  0.00000000000E+00 0. -1.
         21   -1    0    0  501  503 -0.00000000000E+00 -0.00000000000E+00 -0.30236279911E+03  0.30236279911E+03  0.00000000000E+00 0.  1.
          6    1    1    2  501    0  0.19601930451E+03  0.53677666814E+03  0.15905157073E+03  0.61788280551E+03  0.17300000000E+03 0.  1.
         -6    1    1    2    0  502 -0.19601930451E+03 -0.53677666814E+03  0.11487647158E+04  0.12946590793E+04  0.17300000000E+03 0. -1.
<mgrwt>
<rscale>  2 0.59706093E+03</rscale>
<asrwt>0</asrwt>
<pdfrwt beam="1">  1       21 0.24771985E+00 0.59706093E+03</pdfrwt>
<pdfrwt beam="2">  1       21 0.46517355E-01 0.59706093E+03</pdfrwt>
<totfact> 0.22618818E+02</totfact>
</mgrwt>
</event>
<event>
 4    1  0.4072310E+000  0.2238734E+03  0.7546771E-02  0.1131028E+00
         21   -1    0    0  501  502  0.00000000000E+00  0.00000000000E+00  0.18673547715E+03  0.18673547715E+03  0.00000000000E+00 0.  1.
         21   -1    0    0  502  503 -0.00000000000E+00 -0.00000000000E+00 -0.28282875547E+03  0.28282875547E+03  0.00000000000E+00 0.  1.
          6    1    1    2  501    0 -0.11086476417E+03  0.88877998372E+02  0.49878718169E+01  0.22392894720E+03  0.17300000000E+03 0.  1.
         -6    1    1    2    0  503  0.11086476417E+03 -0.88877998372E+02 -0.10108115013E+03  0.24563528542E+03  0.17300000000E+03 0.  1.
<mgrwt>
<rscale>  2 0.22387339E+03</rscale>
<asrwt>0</asrwt>
<pdfrwt beam="1">  1       21 0.28728535E-01 0.22387339E+03</pdfrwt>
<pdfrwt beam="2">  1       21 0.43512116E-01 0.22387339E+03</pdfrwt>
<totfact> 0.58023961E+04</totfact>
</mgrwt>
</event>
<event>
 4    1  0.4072310E+000  0.1831493E+03  0.7546771E-02  0.1164790E+00
         21   -1    0    0  501  502  0.00000000000E+00  0.00000000000E+00  0.59532193518E+03  0.59532193518E+03  0.00000000000E+00 0. -1.
         21   -1    0    0  502  503 -0.00000000000E+00 -0.00000000000E+00 -0.14844464474E+03  0.14844464474E+03  0.00000000000E+00 0.  1.
          6    1    1    2  501    0 -0.52625509011E+02  0.29072465251E+02  0.51636094283E+03  0.54787980043E+03  0.17300000000E+03 0. -1.
         -6    1    1    2    0  503  0.52625509011E+02 -0.29072465251E+02 -0.69483652389E+02  0.19588677950E+03  0.17300000000E+03 0.  1.
<mgrwt>
<rscale>  2 0.18314926E+03</rscale>
<asrwt>0</asrwt>
<pdfrwt beam="1">  1       21 0.91587989E-01 0.18314926E+03</pdfrwt>
<pdfrwt beam="2">  1       21 0.22837638E-01 0.18314926E+03</pdfrwt>
<totfact> 0.18254335E+04</totfact>
</mgrwt>
</event>
<event>
 4    1  0.4072310E+000  0.1733004E+03  0.7546771E-02  0.1174449E+00
         21   -1    0    0  501  502  0.00000000000E+00  0.00000000000E+00  0.11772018967E+04  0.11772018967E+04  0.00000000000E+00 0. -1.
         21   -1    0    0  502  503 -0.00000000000E+00 -0.00000000000E+00 -0.26752051705E+02  0.26752051705E+02  0.00000000000E+00 0. -1.
          6    1    1    2  501    0 -0.98128457808E+01  0.27818032393E+01  0.70481841890E+03  0.72581129365E+03  0.17300000000E+03 0.  1.
         -6    1    1    2    0  503  0.98128457808E+01 -0.27818032393E+01  0.44563142611E+03  0.47814265477E+03  0.17300000000E+03 0.  1.
<mgrwt>
<rscale>  2 0.17330040E+03</rscale>
<asrwt>0</asrwt>
<pdfrwt beam="1">  1       21 0.18110794E+00 0.17330040E+03</pdfrwt>
<pdfrwt beam="2">  1       21 0.41157012E-02 0.17330040E+03</pdfrwt>
<totfact> 0.67571162E+04</totfact>
</mgrwt>
</event>
<event>
 4    1  0.4072310E+000  0.1766967E+03  0.7546771E-02  0.1171039E+00
         21   -1    0    0  501  502  0.00000000000E+00  0.00000000000E+00  0.67312791911E+03  0.67312791911E+03  0.00000000000E+00 0. -1.
         21   -1    0    0  502  503 -0.00000000000E+00 -0.00000000000E+00 -0.52914381775E+02  0.52914381775E+02  0.00000000000E+00 0. -1.
          6    1    1    2  501    0  0.13654235327E+02 -0.33261122553E+02  0.43764641921E+03  0.47197047436E+03  0.17300000000E+03 0. -1.
         -6    1    1    2    0  503 -0.13654235327E+02  0.33261122553E+02  0.18256711812E+03  0.25407182653E+03  0.17300000000E+03 0. -1.
<mgrwt>
<rscale>  2 0.17669675E+03</rscale>
<asrwt>0</asrwt>
<pdfrwt beam="1">  1       21 0.10355814E+00 0.17669675E+03</pdfrwt>
<pdfrwt beam="2">  1       21 0.81406746E-02 0.17669675E+03</pdfrwt>
<totfact> 0.88530030E+04</totfact>
</mgrwt>
</event>
<event>
 4    1  0.4072310E+000  0.1750390E+03  0.7546771E-02  0.1172693E+00
         21   -1    0    0  503  502  0.00000000000E+00  0.00000000000E+00  0.34266290015E+03  0.34266290015E+03  0.00000000000E+00 0.  1.
         21   -1    0    0  501  503 -0.00000000000E+00 -0.00000000000E+00 -0.92784985292E+02  0.92784985292E+02  0.00000000000E+00 0.  1.
          6    1    1    2  501    0  0.23681990002E+02 -0.12199531225E+02  0.83435671128E+02  0.19390764923E+03  0.17300000000E+03 0.  1.
         -6    1    1    2    0  502 -0.23681990002E+02  0.12199531225E+02  0.16644224373E+03  0.24154023622E+03  0.17300000000E+03 0.  1.
<mgrwt>
<rscale>  2 0.17503904E+03</rscale>
<asrwt>0</asrwt>
<pdfrwt beam="1">  1       21 0.52717369E-01 0.17503904E+03</pdfrwt>
<pdfrwt beam="2">  1       21 0.14274613E-01 0.17503904E+03</pdfrwt>
<totfact> 0.14727195E+05</totfact>
</mgrwt>
</event>
<event>
 4    1  0.4072310E+000  0.1762783E+03  0.7546771E-02  0.1171454E+00
         21   -1    0    0  501  502  0.00000000000E+00  0.00000000000E+00  0.82887340711E+03  0.82887340711E+03  0.00000000000E+00 0. -1.
         21   -1    0    0  502  503 -0.00000000000E+00 -0.00000000000E+00 -0.37616147944E+02  0.37616147944E+02  0.00000000000E+00 0. -1.
          6    1    1    2  501    0  0.59517344951E-01  0.33838229058E+02  0.37048735732E+03  0.41028637709E+03  0.17300000000E+03 0. -1.
         -6    1    1    2    0  503 -0.59517344951E-01 -0.33838229058E+02  0.42076990184E+03  0.45620317796E+03  0.17300000000E+03 0. -1.
<mgrwt>
<rscale>  2 0.17627827E+03</rscale>
<asrwt>0</asrwt>
<pdfrwt beam="1">  1       21 0.12751897E+00 0.17627827E+03</pdfrwt>
<pdfrwt beam="2">  1       21 0.57871003E-02 0.17627827E+03</pdfrwt>
<totfact> 0.95875514E+04</totfact>
</mgrwt>
</event>
<event>
 4    1  0.4072310E+000  0.1756185E+03  0.7546771E-02  0.1172112E+00
         21   -1    0    0  501  502  0.00000000000E+00  0.00000000000E+00  0.34095527745E+02  0.34095527745E+02  0.00000000000E+00 0.  1.
         21   -1    0    0  502  503 -0.00000000000E+00 -0.00000000000E+00 -0.10789891704E+04  0.10789891704E+04  0.00000000000E+00 0.  1.
          6    1    1    2  501    0 -0.58657438916E+00  0.30207664234E+02 -0.29868563545E+03  0.34648947440E+03  0.17300000000E+03 0.  1.
         -6    1    1    2    0  503  0.58657438916E+00 -0.30207664234E+02 -0.74620800723E+03  0.76659522377E+03  0.17300000000E+03 0.  1.
<mgrwt>
<rscale>  2 0.17561847E+03</rscale>
<asrwt>0</asrwt>
<pdfrwt beam="1">  1       21 0.52454659E-02 0.17561847E+03</pdfrwt>
<pdfrwt beam="2">  1       21 0.16599833E+00 0.17561847E+03</pdfrwt>
<totfact> 0.57041611E+04</totfact>
</mgrwt>
</event>
<event>
 4    1  0.4072310E+000  0.1732458E+03  0.7546771E-02  0.1174505E+00
         21   -1    0    0  503  502  0.00000000000E+00  0.00000000000E+00  0.51320480188E+02  0.51320480188E+02  0.00000000000E+00 0.  1.
         21   -1    0    0  501  503 -0.00000000000E+00 -0.00000000000E+00 -0.73227577637E+03  0.73227577637E+03  0.00000000000E+00 0.  1.
          6    1    1    2  501    0  0.51281729732E+01  0.76685761609E+01 -0.51628263165E+03  0.54457493604E+03  0.17300000000E+03 0.  1.
         -6    1    1    2    0  502 -0.51281729732E+01 -0.76685761609E+01 -0.16467266453E+03  0.23902132052E+03  0.17300000000E+03 0.  1.
<mgrwt>
<rscale>  2 0.17324579E+03</rscale>
<asrwt>0</asrwt>
<pdfrwt beam="1">  1       21 0.78954593E-02 0.17324579E+03</pdfrwt>
<pdfrwt beam="2">  1       21 0.11265780E+00 0.17324579E+03</pdfrwt>
<totfact> 0.76363602E+04</totfact>
</mgrwt>
</event>
<event>
 4    1  0.4072310E+000  0.1886413E+03  0.7546771E-02  0.1159693E+00
         21   -1    0    0  503  502  0.00000000000E+00  0.00000000000E+00  0.81083664342E+03  0.81083664342E+03  0.00000000000E+00 0. -1.
         21   -1    0    0  501  503 -0.00000000000E+00 -0.00000000000E+00 -0.48571105565E+02  0.48571105565E+02  0.00000000000E+00 0. -1.
          6    1    1    2  501    0 -0.11316994823E+02  0.74353545474E+02  0.24769634870E+03  0.31135029349E+03  0.17300000000E+03 0. -1.
         -6    1    1    2    0  502  0.11316994823E+02 -0.74353545474E+02  0.51456918916E+03  0.54805745550E+03  0.17300000000E+03 0. -1.
<mgrwt>
<rscale>  2 0.18864126E+03</rscale>
<asrwt>0</asrwt>
<pdfrwt beam="1">  1       21 0.12474409E+00 0.18864126E+03</pdfrwt>
<pdfrwt beam="2">  1       21 0.74724783E-02 0.18864126E+03</pdfrwt>
<totfact> 0.64905154E+04</totfact>
</mgrwt>
</event>
<event>
 4    1  0.4072310E+000  0.2011937E+03  0.7546771E-02  0.1148736E+00
         21   -1    0    0  503  502  0.00000000000E+00  0.00000000000E+00  0.14500987896E+04  0.14500987896E+04  0.00000000000E+00 0.  1.
         21   -1    0    0  501  503 -0.00000000000E+00 -0.00000000000E+00 -0.17527190866E+03  0.17527190866E+03  0.00000000000E+00 0. -1.
          6    1    1    2  501    0 -0.10270459265E+03 -0.13002717564E+01 -0.10775099072E+03  0.22823058528E+03  0.17300000000E+03 0. -1.
         -6    1    1    2    0  502  0.10270459265E+03  0.13002717564E+01  0.13825778717E+04  0.13971401130E+04  0.17300000000E+03 0.  1.
<mgrwt>
<rscale>  2 0.20119375E+03</rscale>
<asrwt>0</asrwt>
<pdfrwt beam="1">  1       21 0.22309211E+00 0.20119375E+03</pdfrwt>
<pdfrwt beam="2">  1       21 0.26964910E-01 0.20119375E+03</pdfrwt>
<totfact> 0.12497076E+03</totfact>
</mgrwt>
</event>
<event>
 4    1  0.4072310E+000  0.1799431E+03  0.7546771E-02  0.1167858E+00
         21   -1    0    0  501  502  0.00000000000E+00  0.00000000000E+00  0.13650159223E+03  0.13650159223E+03  0.00000000000E+00 0.  1.
         21   -1    0    0  502  503 -0.00000000000E+00 -0.00000000000E+00 -0.23947879887E+03  0.23947879887E+03  0.00000000000E+00 0.  1.
          6    1    1    2  501    0  0.20708342943E+01 -0.49459444850E+02 -0.69786957980E+02  0.19300192886E+03  0.17300000000E+03 0.  1.
         -6    1    1    2    0  503 -0.20708342943E+01  0.49459444850E+02 -0.33190248661E+02  0.18297846225E+03  0.17300000000E+03 0.  1.
<mgrwt>
<rscale>  2 0.17994312E+03</rscale>
<asrwt>0</asrwt>
<pdfrwt beam="1">  1       21 0.21000245E-01 0.17994312E+03</pdfrwt>
<pdfrwt beam="2">  1       21 0.36842892E-01 0.17994312E+03</pdfrwt>
<totfact> 0.15029793E+05</totfact>
</mgrwt>
</event>
<event>
 4    1  0.4072310E+000  0.1858888E+03  0.7546771E-02  0.1162223E+00
         21   -1    0    0  501  502  0.00000000000E+00  0.00000000000E+00  0.29820386059E+03  0.29820386059E+03  0.00000000000E+00 0.  1.
         21   -1    0    0  502  503 -0.00000000000E+00 -0.00000000000E+00 -0.15204601576E+03  0.15204601576E+03  0.00000000000E+00 0.  1.
          6    1    1    2  501    0  0.67285488890E+02  0.99149756009E+01  0.18288110500E+03  0.26076836910E+03  0.17300000000E+03 0. -1.
         -6    1    1    2    0  503 -0.67285488890E+02 -0.99149756009E+01 -0.36723260168E+02  0.18948150726E+03  0.17300000000E+03 0. -1.
<mgrwt>
<rscale>  2 0.18588879E+03</rscale>
<asrwt>0</asrwt>
<pdfrwt beam="1">  1       21 0.45877517E-01 0.18588879E+03</pdfrwt>
<pdfrwt beam="2">  1       21 0.23391695E-01 0.18588879E+03</pdfrwt>
<totfact> 0.78500080E+04</totfact>
</mgrwt>
</event>
<event>
 4    1  0.4072310E+000  0.3065371E+03  0.7546771E-02  0.1082018E+00
         21   -1    0    0  501  502  0.00000000000E+00  0.00000000000E+00  0.21801183572E+03  0.21801183572E+03  0.00000000000E+00 0. -1.
         21   -1    0    0  502  503 -0.00000000000E+00 -0.00000000000E+00 -0.43781166254E+03  0.43781166254E+03  0.00000000000E+00 0.  1.
          6    1    1    2  501    0 -0.14695883550E+03  0.20600752250E+03 -0.69024491986E+02  0.31421231540E+03  0.17300000000E+03 0. -1.
         -6    1    1    2    0  503  0.14695883550E+03 -0.20600752250E+03 -0.15077533483E+03  0.34161118285E+03  0.17300000000E+03 0.  1.
<mgrwt>
<rscale>  2 0.30653711E+03</rscale>
<asrwt>0</asrwt>
<pdfrwt beam="1">  1       21 0.33540283E-01 0.30653711E+03</pdfrwt>
<pdfrwt beam="2">  1       21 0.67355640E-01 0.30653711E+03</pdfrwt>
<totfact> 0.16292527E+04</totfact>
</mgrwt>
</event>
<event>
 4    1  0.4072310E+000  0.2017221E+03  0.7546771E-02  0.1148294E+00
         21   -1    0    0  503  502  0.00000000000E+00  0.00000000000E+00  0.12566543272E+04  0.12566543272E+04  0.00000000000E+00 0. -1.
         21   -1    0    0  501  503 -0.00000000000E+00 -0.00000000000E+00 -0.34784215360E+02  0.34784215360E+02  0.00000000000E+00 0. -1.
          6    1    1    2  501    0  0.82598010741E+02  0.62772263003E+02  0.44121063247E+03  0.48513772332E+03  0.17300000000E+03 0. -1.
         -6    1    1    2    0  502 -0.82598010741E+02 -0.62772263003E+02  0.78065947937E+03  0.80630081925E+03  0.17300000000E+03 0. -1.
<mgrwt>
<rscale>  2 0.20172206E+03</rscale>
<asrwt>0</asrwt>
<pdfrwt beam="1">  1       21 0.19333140E+00 0.20172206E+03</pdfrwt>
<pdfrwt beam="2">  1       21 0.53514187E-02 0.20172206E+03</pdfrwt>
<totfact> 0.35329225E+04</totfact>
</mgrwt>
</event>
<event>
 4    1  0.4072310E+000  0.1945861E+03  0.7546771E-02  0.1154389E+00
         21   -1    0    0  501  502  0.00000000000E+00  0.00000000000E+00  0.82307848764E+03  0.82307848764E+03  0.00000000000E+00 0.  1.
         21   -1    0    0  502  503 -0.00000000000E+00 -0.00000000000E+00 -0.47892309788E+02  0.47892309788E+02  0.00000000000E+00 0. -1.
          6    1    1    2  501    0 -0.28796995956E+02  0.84294113004E+02  0.47409711175E+03  0.51247618074E+03  0.17300000000E+03 0.  1.
         -6    1    1    2    0  503  0.28796995956E+02 -0.84294113004E+02  0.30108906611E+03  0.35849461669E+03  0.17300000000E+03 0. -1.
<mgrwt>
<rscale>  2 0.19458614E+03</rscale>
<asrwt>0</asrwt>
<pdfrwt beam="1">  1       21 0.12662745E+00 0.19458614E+03</pdfrwt>
<pdfrwt beam="2">  1       21 0.73680483E-02 0.19458614E+03</pdfrwt>
<totfact> 0.63870083E+04</totfact>
</mgrwt>
</event>
<event>
 4    1  0.4072310E+000  0.3247596E+03  0.7546771E-02  0.1073479E+00
         21   -1    0    0  501  502  0.00000000000E+00  0.00000000000E+00  0.45028891721E+03  0.45028891721E+03  0.00000000000E+00 0.  1.
         21   -1    0    0  502  503 -0.00000000000E+00 -0.00000000000E+00 -0.24144923026E+03  0.24144923026E+03  0.00000000000E+00 0.  1.
          6    1    1    2  501    0  0.21684039444E+03  0.16887871220E+03  0.44591865771E+02  0.32780666647E+03  0.17300000000E+03 0.  1.
         -6    1    1    2    0  503 -0.21684039444E+03 -0.16887871220E+03  0.16424782118E+03  0.36393148099E+03  0.17300000000E+03 0.  1.
<mgrwt>
<rscale>  2 0.32475957E+03</rscale>
<asrwt>0</asrwt>
<pdfrwt beam="1">  1       21 0.69275218E-01 0.32475957E+03</pdfrwt>
<pdfrwt beam="2">  1       21 0.37146035E-01 0.32475957E+03</pdfrwt>
<totfact> 0.12373951E+04</totfact>
</mgrwt>
</event>
<event>
 4    1  0.4072310E+000  0.1843474E+03  0.7546771E-02  0.1163661E+00
         21   -1    0    0  501  502  0.00000000000E+00  0.00000000000E+00  0.11329647703E+03  0.11329647703E+03  0.00000000000E+00 0. -1.
         21   -1    0    0  502  503 -0.00000000000E+00 -0.00000000000E+00 -0.61131565856E+03  0.61131565856E+03  0.00000000000E+00 0. -1.
          6    1    1    2  501    0 -0.62390337191E+02  0.12743454126E+02  0.95579884653E+01  0.18459497540E+03  0.17300000000E+03 0. -1.
         -6    1    1    2    0  503  0.62390337191E+02 -0.12743454126E+02 -0.50757717000E+03  0.54001716019E+03  0.17300000000E+03 0. -1.
<mgrwt>
<rscale>  2 0.18434736E+03</rscale>
<asrwt>0</asrwt>
<pdfrwt beam="1">  1       21 0.17430227E-01 0.18434736E+03</pdfrwt>
<pdfrwt beam="2">  1       21 0.94048562E-01 0.18434736E+03</pdfrwt>
<totfact> 0.28389323E+04</totfact>
</mgrwt>
</event>
<event>
 4    1  0.4072310E+000  0.3267415E+03  0.7546771E-02  0.1072588E+00
         21   -1    0    0  501  502  0.00000000000E+00  0.00000000000E+00  0.14061774280E+04  0.14061774280E+04  0.00000000000E+00 0.  1.
         21   -1    0    0  502  503 -0.00000000000E+00 -0.00000000000E+00 -0.92970895746E+02  0.92970895746E+02  0.00000000000E+00 0. -1.
          6    1    1    2  501    0 -0.20942016344E+03 -0.18158796576E+03  0.97759030276E+03  0.10307486571E+04  0.17300000000E+03 0.  1.
         -6    1    1    2    0  503  0.20942016344E+03  0.18158796576E+03  0.33561622949E+03  0.46839966659E+03  0.17300000000E+03 0. -1.
<mgrwt>
<rscale>  2 0.32674148E+03</rscale>
<asrwt>0</asrwt>
<pdfrwt beam="1">  1       21 0.21633497E+00 0.32674148E+03</pdfrwt>
<pdfrwt beam="2">  1       21 0.14303216E-01 0.32674148E+03</pdfrwt>
<totfact> 0.40971516E+03</totfact>
</mgrwt>
</event>
<event>
 4    1  0.4072310E+000  0.1976143E+03  0.7546771E-02  0.1151768E+00
         21   -1    0    0  501  502  0.00000000000E+00  0.00000000000E+00  0.12897239278E+03  0.12897239278E+03  0.00000000000E+00 0. -1.
         21   -1    0    0  502  503 -0.00000000000E+00 -0.00000000000E+00 -0.46965485558E+03  0.46965485558E+03  0.00000000000E+00 0.  1.
          6    1    1    2  501    0 -0.92866506244E+02 -0.22321232230E+02  0.80694209292E+01  0.19777902049E+03  0.17300000000E+03 0. -1.
         -6    1    1    2    0  503  0.92866506244E+02  0.22321232230E+02 -0.34875188372E+03  0.40084822788E+03  0.17300000000E+03 0.  1.
<mgrwt>
<rscale>  2 0.19761433E+03</rscale>
<asrwt>0</asrwt>
<pdfrwt beam="1">  1       21 0.19841907E-01 0.19761433E+03</pdfrwt>
<pdfrwt beam="2">  1       21 0.72254593E-01 0.19761433E+03</pdfrwt>
<totfact> 0.40366615E+04</totfact>
</mgrwt>
</event>
<event>
 4    1  0.4072310E+000  0.1795953E+03  0.7546771E-02  0.1168195E+00
         21   -1    0    0  501  502  0.00000000000E+00  0.00000000000E+00  0.11262740306E+04  0.11262740306E+04  0.00000000000E+00 0.  1.
         21   -1    0    0  502  503 -0.00000000000E+00 -0.00000000000E+00 -0.80933024495E+02  0.80933024495E+02  0.00000000000E+00 0.  1.
          6    1    1    2  501    0 -0.30532732955E+02  0.37325675391E+02  0.10078676798E+04  0.10237439689E+04  0.17300000000E+03 0.  1.
         -6    1    1    2    0  503  0.30532732955E+02 -0.37325675391E+02  0.37473326321E+02  0.18346308623E+03  0.17300000000E+03 0.  1.
<mgrwt>
<rscale>  2 0.17959525E+03</rscale>
<asrwt>0</asrwt>
<pdfrwt beam="1">  1       21 0.17327292E+00 0.17959525E+03</pdfrwt>
<pdfrwt beam="2">  1       21 0.12451235E-01 0.17959525E+03</pdfrwt>
<totfact> 0.11234916E+04</totfact>
</mgrwt>
</event>
<event>
 4    1  0.4072310E+000  0.2843096E+03  0.7546771E-02  0.1093358E+00
         21   -1    0    0  503  502  0.00000000000E+00  0.00000000000E+00  0.29456165191E+03  0.29456165191E+03  0.00000000000E+00 0.  1.
         21   -1    0    0  501  503 -0.00000000000E+00 -0.00000000000E+00 -0.29271473714E+03  0.29271473714E+03  0.00000000000E+00 0. -1.
          6    1    1    2  501    0 -0.20975846446E+03 -0.83092292124E+02 -0.72497570951E+02  0.29340729408E+03  0.17300000000E+03 0. -1.
         -6    1    1    2    0  502  0.20975846446E+03  0.83092292124E+02  0.74344485711E+02  0.29386909497E+03  0.17300000000E+03 0.  1.
<mgrwt>
<rscale>  2 0.28430959E+03</rscale>
<asrwt>0</asrwt>
<pdfrwt beam="1">  1       21 0.45317177E-01 0.28430959E+03</pdfrwt>
<pdfrwt beam="2">  1       21 0.45033036E-01 0.28430959E+03</pdfrwt>
<totfact> 0.21105294E+04</totfact>
</mgrwt>
</event>
<event>
 4    1  0.4072310E+000  0.2222051E+03  0.7546771E-02  0.1132250E+00
         21   -1    0    0  503  502  0.00000000000E+00  0.00000000000E+00  0.17062190360E+03  0.17062190360E+03  0.00000000000E+00 0.  1.
         21   -1    0    0  501  503 -0.00000000000E+00 -0.00000000000E+00 -0.33429660233E+03  0.33429660233E+03  0.00000000000E+00 0.  1.
          6    1    1    2  501    0  0.40703690058E+02 -0.13337651318E+03 -0.17437406409E+03  0.28245601229E+03  0.17300000000E+03 0.  1.
         -6    1    1    2    0  502 -0.40703690058E+02  0.13337651318E+03  0.10699365360E+02  0.22246249363E+03  0.17300000000E+03 0.  1.
<mgrwt>
<rscale>  2 0.22220505E+03</rscale>
<asrwt>0</asrwt>
<pdfrwt beam="1">  1       21 0.26249524E-01 0.22220505E+03</pdfrwt>
<pdfrwt beam="2">  1       21 0.51430246E-01 0.22220505E+03</pdfrwt>
<totfact> 0.48871899E+04</totfact>
</mgrwt>
</event>
<event>
 4    1  0.4072310E+000  0.1789539E+03  0.7546771E-02  0.1168819E+00
         21   -1    0    0  503  502  0.00000000000E+00  0.00000000000E+00  0.37415851271E+02  0.37415851271E+02  0.00000000000E+00 0. -1.
         21   -1    0    0  501  503 -0.00000000000E+00 -0.00000000000E+00 -0.12232433958E+04  0.12232433958E+04  0.00000000000E+00 0.  1.
          6    1    1    2  501    0 -0.56821336528E+01 -0.45422699368E+02 -0.93833017298E+03  0.95524238902E+03  0.17300000000E+03 0.  1.
         -6    1    1    2    0  502  0.56821336528E+01  0.45422699368E+02 -0.24749737158E+03  0.30541685808E+03  0.17300000000E+03 0. -1.
<mgrwt>
<rscale>  2 0.17895393E+03</rscale>
<asrwt>0</asrwt>
<pdfrwt beam="1">  1       21 0.57562838E-02 0.17895393E+03</pdfrwt>
<pdfrwt beam="2">  1       21 0.18819132E+00 0.17895393E+03</pdfrwt>
<totfact> 0.34252579E+04</totfact>
</mgrwt>
</event>
<event>
 4    1  0.4072310E+000  0.3109679E+03  0.7546771E-02  0.1079883E+00
         21   -1    0    0  503  502  0.00000000000E+00  0.00000000000E+00  0.32667980751E+03  0.32667980751E+03  0.00000000000E+00 0.  1.
         21   -1    0    0  501  503 -0.00000000000E+00 -0.00000000000E+00 -0.30341600840E+03  0.30341600840E+03  0.00000000000E+00 0.  1.
          6    1    1    2  501    0 -0.12366169185E+03  0.22689170072E+03 -0.37583210812E+02  0.31323083440E+03  0.17300000000E+03 0.  1.
         -6    1    1    2    0  502  0.12366169185E+03 -0.22689170072E+03  0.60847009924E+02  0.31686498150E+03  0.17300000000E+03 0.  1.
<mgrwt>
<rscale>  2 0.31096794E+03</rscale>
<asrwt>0</asrwt>
<pdfrwt beam="1">  1       21 0.50258432E-01 0.31096794E+03</pdfrwt>
<pdfrwt beam="2">  1       21 0.46679386E-01 0.31096794E+03</pdfrwt>
<totfact> 0.15601138E+04</totfact>
</mgrwt>
</event>
<event>
 4    1  0.4072310E+000  0.1801793E+03  0.7546771E-02  0.1167630E+00
         21   -1    0    0  503  502  0.00000000000E+00  0.00000000000E+00  0.38484590451E+03  0.38484590451E+03  0.00000000000E+00 0.  1.
         21   -1    0    0  501  503 -0.00000000000E+00 -0.00000000000E+00 -0.84818104663E+02  0.84818104663E+02  0.00000000000E+00 0. -1.
          6    1    1    2  501    0 -0.49591960294E+02  0.87304725868E+01  0.13270600772E+03  0.22377548606E+03  0.17300000000E+03 0. -1.
         -6    1    1    2    0  502  0.49591960294E+02 -0.87304725868E+01  0.16732179213E+03  0.24588852312E+03  0.17300000000E+03 0.  1.
<mgrwt>
<rscale>  2 0.18017931E+03</rscale>
<asrwt>0</asrwt>
<pdfrwt beam="1">  1       21 0.59207061E-01 0.18017931E+03</pdfrwt>
<pdfrwt beam="2">  1       21 0.13048939E-01 0.18017931E+03</pdfrwt>
<totfact> 0.13518902E+05</totfact>
</mgrwt>
</event>
<event>
 4    1  0.4072310E+000  0.1908902E+03  0.7546771E-02  0.1157661E+00
         21   -1    0    0  501  502  0.00000000000E+00  0.00000000000E+00  0.11750069668E+04  0.11750069668E+04  0.00000000000E+00 0. -1.
         21   -1    0    0  502  503 -0.00000000000E+00 -0.00000000000E+00 -0.31288890780E+02  0.31288890780E+02  0.00000000000E+00 0.  1.
          6    1    1    2  501    0 -0.26915107923E+02 -0.76063548969E+02  0.62861822308E+03  0.65696267543E+03  0.17300000000E+03 0.  1.
         -6    1    1    2    0  503  0.26915107923E+02  0.76063548969E+02  0.51509985295E+03  0.54933318216E+03  0.17300000000E+03 0.  1.
<mgrwt>
<rscale>  2 0.19089025E+03</rscale>
<asrwt>0</asrwt>
<pdfrwt beam="1">  1       21 0.18077027E+00 0.19089025E+03</pdfrwt>
<pdfrwt beam="2">  1       21 0.48136764E-02 0.19089025E+03</pdfrwt>
<totfact> 0.51627961E+04</totfact>
</mgrwt>
</event>
<event>
 4    1  0.4072310E+000  0.2009223E+03  0.7546771E-02  0.1148963E+00
         21   -1    0    0  501  502  0.00000000000E+00  0.00000000000E+00  0.38428463360E+03  0.38428463360E+03  0.00000000000E+00 0.  1.
         21   -1    0    0  502  503 -0.00000000000E+00 -0.00000000000E+00 -0.10520588627E+03  0.10520588627E+03  0.00000000000E+00 0.  1.
          6    1    1    2  501    0 -0.49381933607E+02 -0.89455100914E+02  0.14890601019E+03  0.25008556599E+03  0.17300000000E+03 0.  1.
         -6    1    1    2    0  503  0.49381933607E+02  0.89455100914E+02  0.13017273714E+03  0.23940495388E+03  0.17300000000E+03 0.  1.
<mgrwt>
<rscale>  2 0.20092235E+03</rscale>
<asrwt>0</asrwt>
<pdfrwt beam="1">  1       21 0.59120712E-01 0.20092235E+03</pdfrwt>
<pdfrwt beam="2">  1       21 0.16185521E-01 0.20092235E+03</pdfrwt>
<totfact> 0.90992206E+04</totfact>
</mgrwt>
</event>
<event>
 4    1  0.4072310E+000  0.1734164E+03  0.7546771E-02  0.1174331E+00
         21   -1    0    0  501  502  0.00000000000E+00  0.00000000000E+00  0.67688422265E+03  0.67688422265E+03  0.00000000000E+00 0. -1.
         21   -1    0    0  502  503 -0.00000000000E+00 -0.00000000000E+00 -0.53996529484E+02  0.53996529484E+02  0.00000000000E+00 0. -1.
          6    1    1    2  501    0  0.45059881055E+01  0.11132250564E+02  0.46527187063E+03  0.49653916716E+03  0.17300000000E+03 0. -1.
         -6    1    1    2    0  503 -0.45059881055E+01 -0.11132250564E+02  0.15761582254E+03  0.23434158497E+03  0.17300000000E+03 0. -1.
<mgrwt>
<rscale>  2 0.17341635E+03</rscale>
<asrwt>0</asrwt>
<pdfrwt beam="1">  1       21 0.10413603E+00 0.17341635E+03</pdfrwt>
<pdfrwt beam="2">  1       21 0.83071589E-02 0.17341635E+03</pdfrwt>
<totfact> 0.84462912E+04</totfact>
</mgrwt>
</event>
<event>
 4    1  0.4072310E+000  0.2148082E+03  0.7546771E-02  0.1137814E+00
         21   -1    0    0  503  502  0.00000000000E+00  0.00000000000E+00  0.25648513085E+03  0.25648513085E+03  0.00000000000E+00 0.  1.
         21   -1    0    0  501  503 -0.00000000000E+00 -0.00000000000E+00 -0.18292955785E+03  0.18292955785E+03  0.00000000000E+00 0. -1.
          6    1    1    2  501    0 -0.10874009807E+03 -0.66250771567E+02  0.65035758286E+02  0.22443757154E+03  0.17300000000E+03 0.  1.
         -6    1    1    2    0  502  0.10874009807E+03  0.66250771567E+02  0.85198147066E+01  0.21497711716E+03  0.17300000000E+03 0.  1.
<mgrwt>
<rscale>  2 0.21480823E+03</rscale>
<asrwt>0</asrwt>
<pdfrwt beam="1">  1       21 0.39459251E-01 0.21480823E+03</pdfrwt>
<pdfrwt beam="2">  1       21 0.28143009E-01 0.21480823E+03</pdfrwt>
<totfact> 0.73981775E+04</totfact>
</mgrwt>
</event>
<event>
 4    1  0.4072310E+000  0.5384306E+03  0.7546771E-02  0.1004208E+00
         21   -1    0    0  503  502  0.00000000000E+00  0.00000000000E+00  0.45257022612E+03  0.45257022612E+03  0.00000000000E+00 0. -1.
         21   -1    0    0  501  503 -0.00000000000E+00 -0.00000000000E+00 -0.64368277128E+03  0.64368277128E+03  0.00000000000E+00 0.  1.
          6    1    1    2  501    0  0.50484438049E+03  0.71489171033E+02 -0.13361042103E+03  0.55476057421E+03  0.17300000000E+03 0. -1.
         -6    1    1    2    0  502 -0.50484438049E+03 -0.71489171033E+02 -0.57502124133E+02  0.54149242319E+03  0.17300000000E+03 0.  1.
<mgrwt>
<rscale>  2 0.53843064E+03</rscale>
<asrwt>0</asrwt>
<pdfrwt beam="1">  1       21 0.69626189E-01 0.53843064E+03</pdfrwt>
<pdfrwt beam="2">  1       21 0.99028119E-01 0.53843064E+03</pdfrwt>
<totfact> 0.13054217E+03</totfact>
</mgrwt>
</event>
<event>
 4    1  0.4072310E+000  0.1810970E+03  0.7546771E-02  0.1166746E+00
         21   -1    0    0  503  502  0.00000000000E+00  0.00000000000E+00  0.13505065944E+03  0.13505065944E+03  0.00000000000E+00 0.  1.
         21   -1    0    0  501  503 -0.00000000000E+00 -0.00000000000E+00 -0.24305254778E+03  0.24305254778E+03  0.00000000000E+00 0.  1.
          6    1    1    2  501    0  0.47233735992E+02  0.25221145881E+02 -0.59549526187E+02  0.19063650774E+03  0.17300000000E+03 0.  1.
         -6    1    1    2    0  502 -0.47233735992E+02 -0.25221145881E+02 -0.48452362151E+02  0.18746669948E+03  0.17300000000E+03 0.  1.
<mgrwt>
<rscale>  2 0.18109702E+03</rscale>
<asrwt>0</asrwt>
<pdfrwt beam="1">  1       21 0.20777025E-01 0.18109702E+03</pdfrwt>
<pdfrwt beam="2">  1       21 0.37392699E-01 0.18109702E+03</pdfrwt>
<totfact> 0.14881205E+05</totfact>
</mgrwt>
</event>
<event>
 4    1  0.4072310E+000  0.2107847E+03  0.7546771E-02  0.1140946E+00
         21   -1    0    0  503  502  0.00000000000E+00  0.00000000000E+00  0.14557421549E+03  0.14557421549E+03  0.00000000000E+00 0. -1.
         21   -1    0    0  501  503 -0.00000000000E+00 -0.00000000000E+00 -0.30620302252E+03  0.30620302252E+03  0.00000000000E+00 0. -1.
          6    1    1    2  501    0  0.83520350706E+02  0.86749837712E+02 -0.93201448345E+02  0.23047059096E+03  0.17300000000E+03 0. -1.
         -6    1    1    2    0  502 -0.83520350706E+02 -0.86749837712E+02 -0.67427358684E+02  0.22130664704E+03  0.17300000000E+03 0. -1.
<mgrwt>
<rscale>  2 0.21078468E+03</rscale>
<asrwt>0</asrwt>
<pdfrwt beam="1">  1       21 0.22396033E-01 0.21078468E+03</pdfrwt>
<pdfrwt beam="2">  1       21 0.47108157E-01 0.21078468E+03</pdfrwt>
<totfact> 0.79860856E+04</totfact>
</mgrwt>
</event>
<event>
 4    1  0.4072310E+000  0.2130232E+03  0.7546771E-02  0.1139194E+00
         21   -1    0    0  503  502  0.00000000000E+00  0.00000000000E+00  0.49193995876E+03  0.49193995876E+03  0.00000000000E+00 0.  1.
         21   -1    0    0  501  503 -0.00000000000E+00 -0.00000000000E+00 -0.93704009542E+02  0.93704009542E+02  0.00000000000E+00 0. -1.
          6    1    1    2  501    0 -0.12151544411E+03  0.26151002646E+02  0.23565986310E+03  0.31767034670E+03  0.17300000000E+03 0.  1.
         -6    1    1    2    0  502  0.12151544411E+03 -0.26151002646E+02  0.16257608611E+03  0.26797362160E+03  0.17300000000E+03 0.  1.
<mgrwt>
<rscale>  2 0.21302319E+03</rscale>
<asrwt>0</asrwt>
<pdfrwt beam="1">  1       21 0.75683069E-01 0.21302319E+03</pdfrwt>
<pdfrwt beam="2">  1       21 0.14416002E-01 0.21302319E+03</pdfrwt>
<totfact> 0.65082767E+04</totfact>
</mgrwt>
</event>
<event>
 4    1  0.4072310E+000  0.2175094E+03  0.7546771E-02  0.1135754E+00
         21   -1    0    0  501  502  0.00000000000E+00  0.00000000000E+00  0.18794780729E+04  0.18794780729E+04  0.00000000000E+00 0.  1.
         21   -1    0    0  502  503 -0.00000000000E+00 -0.00000000000E+00 -0.26348859972E+02  0.26348859972E+02  0.00000000000E+00 0. -1.
          6    1    1    2  501    0  0.94033423070E+02 -0.92406910316E+02  0.11279486978E+04  0.11487291180E+04  0.17300000000E+03 0. -1.
         -6    1    1    2    0  503 -0.94033423070E+02  0.92406910316E+02  0.72518051517E+03  0.75709781489E+03  0.17300000000E+03 0.  1.
<mgrwt>
<rscale>  2 0.21750936E+03</rscale>
<asrwt>0</asrwt>
<pdfrwt beam="1">  1       21 0.28915037E+00 0.21750936E+03</pdfrwt>
<pdfrwt beam="2">  1       21 0.40536722E-02 0.21750936E+03</pdfrwt>
<totfact> 0.14746874E+04</totfact>
</mgrwt>
</event>
<event>
 4    1  0.4072310E+000  0.1940190E+03  0.7546771E-02  0.1154886E+00
         21   -1    0    0  503  502  0.00000000000E+00  0.00000000000E+00  0.31576432488E+03  0.31576432488E+03  0.00000000000E+00 0.  1.
         21   -1    0    0  501  503 -0.00000000000E+00 -0.00000000000E+00 -0.23993428040E+03  0.23993428040E+03  0.00000000000E+00 0.  1.
          6    1    1    2  501    0 -0.56823274598E+02 -0.66973780329E+02 -0.15917024887E+03  0.25095525480E+03  0.17300000000E+03 0.  1.
         -6    1    1    2    0  502  0.56823274598E+02  0.66973780329E+02  0.23500029335E+03  0.30474335048E+03  0.17300000000E+03 0.  1.
<mgrwt>
<rscale>  2 0.19401900E+03</rscale>
<asrwt>0</asrwt>
<pdfrwt beam="1">  1       21 0.48579127E-01 0.19401900E+03</pdfrwt>
<pdfrwt beam="2">  1       21 0.36912966E-01 0.19401900E+03</pdfrwt>
<totfact> 0.28617844E+04</totfact>
</mgrwt>
</event>
<event>
 4    1  0.4072310E+000  0.1926855E+03  0.7546771E-02  0.1156061E+00
         21   -1    0    0  503  502  0.00000000000E+00  0.00000000000E+00  0.94066185076E+02  0.94066185076E+02  0.00000000000E+00 0.  1.
         21   -1    0    0  501  503 -0.00000000000E+00 -0.00000000000E+00 -0.46375500876E+03  0.46375500876E+03  0.00000000000E+00 0.  1.
          6    1    1    2  501    0  0.83316462276E+02 -0.16033529184E+02 -0.29247247667E+03  0.35023971299E+03  0.17300000000E+03 0.  1.
         -6    1    1    2    0  502 -0.83316462276E+02  0.16033529184E+02 -0.77216347009E+02  0.20758148084E+03  0.17300000000E+03 0.  1.
<mgrwt>
<rscale>  2 0.19268551E+03</rscale>
<asrwt>0</asrwt>
<pdfrwt beam="1">  1       21 0.14471721E-01 0.19268551E+03</pdfrwt>
<pdfrwt beam="2">  1       21 0.71346924E-01 0.19268551E+03</pdfrwt>
<totfact> 0.74388513E+04</totfact>
</mgrwt>
</event>
<event>
 4    1  0.4072310E+000  0.2688450E+03  0.7546771E-02  0.1101942E+00
         21   -1    0    0  501  502  0.00000000000E+00  0.00000000000E+00  0.17493249650E+04  0.17493249650E+04  0.00000000000E+00 0. -1.
         21   -1    0    0  502  503 -0.00000000000E+00 -0.00000000000E+00 -0.11599930944E+03  0.11599930944E+03  0.00000000000E+00 0. -1.
          6    1    1    2  501    0  0.94925088915E+02  0.18258657843E+03  0.15650119122E+04  0.15879357407E+04  0.17300000000E+03 0. -1.
         -6    1    1    2    0  503 -0.94925088915E+02 -0.18258657843E+03  0.68313743313E+02  0.27738853375E+03  0.17300000000E+03 0. -1.
<mgrwt>
<rscale>  2 0.26884499E+03</rscale>
<asrwt>0</asrwt>
<pdfrwt beam="1">  1       21 0.26912690E+00 0.26884499E+03</pdfrwt>
<pdfrwt beam="2">  1       21 0.17846049E-01 0.26884499E+03</pdfrwt>
<totfact> 0.13540921E+03</totfact>
</mgrwt>
</event>
<event>
 4    1  0.4072310E+000  0.2945475E+03  0.7546771E-02  0.1087998E+00
         21   -1    0    0  503  502  0.00000000000E+00  0.00000000000E+00  0.37384574806E+03  0.37384574806E+03  0.00000000000E+00 0.  1.
         21   -1    0    0  501  503 -0.00000000000E+00 -0.00000000000E+00 -0.23602692120E+03  0.23602692120E+03  0.00000000000E+00 0. -1.
          6    1    1    2  501    0 -0.16756104672E+03  0.16956567230E+03  0.29424539082E+02  0.29601355560E+03  0.17300000000E+03 0. -1.
         -6    1    1    2    0  502  0.16756104672E+03 -0.16956567230E+03  0.10839428778E+03  0.31385911365E+03  0.17300000000E+03 0. -1.
<mgrwt>
<rscale>  2 0.29454749E+03</rscale>
<asrwt>0</asrwt>
<pdfrwt beam="1">  1       21 0.57514731E-01 0.29454749E+03</pdfrwt>
<pdfrwt beam="2">  1       21 0.36311834E-01 0.29454749E+03</pdfrwt>
<totfact> 0.19716863E+04</totfact>
</mgrwt>
</event>
<event>
 4    1  0.4072310E+000  0.3414285E+03  0.7546771E-02  0.1066189E+00
         21   -1    0    0  501  502  0.00000000000E+00  0.00000000000E+00  0.26548952910E+03  0.26548952910E+03  0.00000000000E+00 0.  1.
         21   -1    0    0  502  503 -0.00000000000E+00 -0.00000000000E+00 -0.50808200204E+03  0.50808200204E+03  0.00000000000E+00 0. -1.
          6    1    1    2  501    0  0.21071454571E+03  0.20553292878E+03  0.21234197409E+02  0.34208814029E+03  0.17300000000E+03 0.  1.
         -6    1    1    2    0  503 -0.21071454571E+03 -0.20553292878E+03 -0.26382667035E+03  0.43148339085E+03  0.17300000000E+03 0. -1.
<mgrwt>
<rscale>  2 0.34142848E+03</rscale>
<asrwt>0</asrwt>
<pdfrwt beam="1">  1       21 0.40844543E-01 0.34142848E+03</pdfrwt>
<pdfrwt beam="2">  1       21 0.78166461E-01 0.34142848E+03</pdfrwt>
<totfact> 0.77115680E+03</totfact>
</mgrwt>
</event>
<event>
 4    1  0.4072310E+000  0.2444201E+03  0.7546771E-02  0.1116883E+00
         21   -1    0    0  503  502  0.00000000000E+00  0.00000000000E+00  0.13419130843E+04  0.13419130843E+04  0.00000000000E+00 0.  1.
         21   -1    0    0  501  503 -0.00000000000E+00 -0.00000000000E+00 -0.11320277481E+03  0.11320277481E+03  0.00000000000E+00 0. -1.
          6    1    1    2  501    0  0.23378185613E+02 -0.17107199537E+03  0.47639967697E+02  0.24901954478E+03  0.17300000000E+03 0. -1.
         -6    1    1    2    0  502 -0.23378185613E+02  0.17107199537E+03  0.11810703418E+04  0.12060963144E+04  0.17300000000E+03 0.  1.
<mgrwt>
<rscale>  2 0.24442006E+03</rscale>
<asrwt>0</asrwt>
<pdfrwt beam="1">  1       21 0.20644815E+00 0.24442006E+03</pdfrwt>
<pdfrwt beam="2">  1       21 0.17415813E-01 0.24442006E+03</pdfrwt>
<totfact> 0.34811970E+03</totfact>
</mgrwt>
</event>
<event>
 4    1  0.4072310E+000  0.2214252E+03  0.7546771E-02  0.1132825E+00
         21   -1    0    0  501  502  0.00000000000E+00  0.00000000000E+00  0.18398942977E+03  0.18398942977E+03  0.00000000000E+00 0.  1.
         21   -1    0    0  502  503 -0.00000000000E+00 -0.00000000000E+00 -0.32221400757E+03  0.32221400757E+03  0.00000000000E+00 0.  1.
          6    1    1    2  501    0 -0.40588720997E+02 -0.13210854637E+03  0.36154481906E+02  0.22435743548E+03  0.17300000000E+03 0.  1.
         -6    1    1    2    0  503  0.40588720997E+02  0.13210854637E+03 -0.17437905970E+03  0.28184600185E+03  0.17300000000E+03 0.  1.
<mgrwt>
<rscale>  2 0.22142518E+03</rscale>
<asrwt>0</asrwt>
<pdfrwt beam="1">  1       21 0.28306066E-01 0.22142518E+03</pdfrwt>
<pdfrwt beam="2">  1       21 0.49571386E-01 0.22142518E+03</pdfrwt>
<totfact> 0.45641347E+04</totfact>
</mgrwt>
</event>
<event>
 4    1  0.4072310E+000  0.2417910E+03  0.7546771E-02  0.1118605E+00
         21   -1    0    0  501  502  0.00000000000E+00  0.00000000000E+00  0.21363963448E+02  0.21363963448E+02  0.00000000000E+00 0. -1.
         21   -1    0    0  502  503 -0.00000000000E+00 -0.00000000000E+00 -0.37910243671E+04  0.37910243671E+04  0.00000000000E+00 0.  1.
          6    1    1    2  501    0 -0.10257314331E+03 -0.13421123499E+03 -0.87948984699E+03  0.91212131665E+03  0.17300000000E+03 0. -1.
         -6    1    1    2    0  503  0.10257314331E+03  0.13421123499E+03 -0.28901705566E+04  0.29002670139E+04  0.17300000000E+03 0.  1.
<mgrwt>
<rscale>  2 0.24179104E+03</rscale>
<asrwt>0</asrwt>
<pdfrwt beam="1">  1       21 0.32867624E-02 0.24179104E+03</pdfrwt>
<pdfrwt beam="2">  1       21 0.58323473E+00 0.24179104E+03</pdfrwt>
<totfact> 0.23256992E+02</totfact>
</mgrwt>
</event>
<event>
 4    1  0.4072310E+000  0.1876798E+03  0.7546771E-02  0.1160571E+00
         21   -1    0    0  501  502  0.00000000000E+00  0.00000000000E+00  0.19682240202E+03  0.19682240202E+03  0.00000000000E+00 0. -1.
         21   -1    0    0  502  503 -0.00000000000E+00 -0.00000000000E+00 -0.21769165300E+03  0.21769165300E+03  0.00000000000E+00 0. -1.
          6    1    1    2  501    0 -0.20488780661E+02 -0.69820734316E+02  0.76985281514E+02  0.20285575822E+03  0.17300000000E+03 0. -1.
         -6    1    1    2    0  503  0.20488780661E+02  0.69820734316E+02 -0.97854532499E+02  0.21165829680E+03  0.17300000000E+03 0. -1.
<mgrwt>
<rscale>  2 0.18767985E+03</rscale>
<asrwt>0</asrwt>
<pdfrwt beam="1">  1       21 0.30280370E-01 0.18767985E+03</pdfrwt>
<pdfrwt beam="2">  1       21 0.33491023E-01 0.18767985E+03</pdfrwt>
<totfact> 0.90031493E+04</totfact>
</mgrwt>
</event>
<event>
 4    1  0.4072310E+000  0.3969341E+03  0.7546771E-02  0.1044846E+00
         21   -1    0    0  503  502  0.00000000000E+00  0.00000000000E+00  0.11988818870E+04  0.11988818870E+04  0.00000000000E+00 0.  1.
         21   -1    0    0  501  503 -0.00000000000E+00 -0.00000000000E+00 -0.13142185659E+03  0.13142185659E+03  0.00000000000E+00 0.  1.
          6    1    1    2  501    0  0.34199240781E+03 -0.10329017584E+03  0.53644031135E+03  0.66732666293E+03  0.17300000000E+03 0.  1.
         -6    1    1    2    0  502 -0.34199240781E+03  0.10329017584E+03  0.53101971905E+03  0.66297708063E+03  0.17300000000E+03 0.  1.
<mgrwt>
<rscale>  2 0.39693408E+03</rscale>
<asrwt>0</asrwt>
<pdfrwt beam="1">  1       21 0.18444336E+00 0.39693408E+03</pdfrwt>
<pdfrwt beam="2">  1       21 0.20218748E-01 0.39693408E+03</pdfrwt>
<totfact> 0.33665865E+03</totfact>
</mgrwt>
</event>
<event>
 4    1  0.4072310E+000  0.1814269E+03  0.7546771E-02  0.1166429E+00
         21   -1    0    0  503  502  0.00000000000E+00  0.00000000000E+00  0.25867274755E+02  0.25867274755E+02  0.00000000000E+00 0. -1.
         21   -1    0    0  501  503 -0.00000000000E+00 -0.00000000000E+00 -0.12807888628E+04  0.12807888628E+04  0.00000000000E+00 0. -1.
          6    1    1    2  501    0 -0.20614551668E+02 -0.50613726436E+02 -0.68006770623E+03  0.70385211096E+03  0.17300000000E+03 0.  1.
         -6    1    1    2    0  502  0.20614551668E+02  0.50613726436E+02 -0.57485388185E+03  0.60280402663E+03  0.17300000000E+03 0.  1.
<mgrwt>
<rscale>  2 0.18142687E+03</rscale>
<asrwt>0</asrwt>
<pdfrwt beam="1">  1       21 0.39795820E-02 0.18142687E+03</pdfrwt>
<pdfrwt beam="2">  1       21 0.19704438E+00 0.18142687E+03</pdfrwt>
<totfact> 0.55845038E+04</totfact>
</mgrwt>
</event>
<event>
 4    1  0.4072310E+000  0.2136779E+03  0.7546771E-02  0.1138686E+00
         21   -1    0    0  501  502  0.00000000000E+00  0.00000000000E+00  0.37648520904E+03  0.37648520904E+03  0.00000000000E+00 0. -1.
         21   -1    0    0  502  503 -0.00000000000E+00 -0.00000000000E+00 -0.12194305170E+03  0.12194305170E+03  0.00000000000E+00 0.  1.
          6    1    1    2  501    0 -0.64600913534E+02 -0.10749870424E+03  0.14571674012E+03  0.25863413888E+03  0.17300000000E+03 0.  1.
         -6    1    1    2    0  503  0.64600913534E+02  0.10749870424E+03  0.10882541723E+03  0.23979412186E+03  0.17300000000E+03 0.  1.
<mgrwt>
<rscale>  2 0.21367791E+03</rscale>
<asrwt>0</asrwt>
<pdfrwt beam="1">  1       21 0.57920801E-01 0.21367791E+03</pdfrwt>
<pdfrwt beam="2">  1       21 0.18760470E-01 0.21367791E+03</pdfrwt>
<totfact> 0.71998035E+04</totfact>
</mgrwt>
</event>
<event>
 4    1  0.4072310E+000  0.2005159E+03  0.7546771E-02  0.1149304E+00
         21   -1    0    0  503  502  0.00000000000E+00  0.00000000000E+00  0.17629126011E+03  0.17629126011E+03  0.00000000000E+00 0.  1.
         21   -1    0    0  501  503 -0.00000000000E+00 -0.00000000000E+00 -0.51549165085E+03  0.51549165085E+03  0.00000000000E+00 0.  1.
          6    1    1    2  501    0  0.94354406185E+02 -0.37079155251E+02 -0.42787932413E+03  0.47253289170E+03  0.17300000000E+03 0.  1.
         -6    1    1    2    0  502 -0.94354406185E+02  0.37079155251E+02  0.88678933392E+02  0.21925001927E+03  0.17300000000E+03 0.  1.
<mgrwt>
<rscale>  2 0.20051588E+03</rscale>
<asrwt>0</asrwt>
<pdfrwt beam="1">  1       21 0.27121733E-01 0.20051588E+03</pdfrwt>
<pdfrwt beam="2">  1       21 0.79306407E-01 0.20051588E+03</pdfrwt>
<totfact> 0.18085043E+04</totfact>
</mgrwt>
</event>
<event>
 4    1  0.4072310E+000  0.2145273E+03  0.7546771E-02  0.1138030E+00
         21   -1    0    0  503  502  0.00000000000E+00  0.00000000000E+00  0.18419413393E+03  0.18419413393E+03  0.00000000000E+00 0. -1.
         21   -1    0    0  501  503 -0.00000000000E+00 -0.00000000000E+00 -0.37894325256E+03  0.37894325256E+03  0.00000000000E+00 0. -1.
          6    1    1    2  501    0  0.90134183808E+02  0.89268148878E+02 -0.26171304618E+03  0.33840167262E+03  0.17300000000E+03 0. -1.
         -6    1    1    2    0  502 -0.90134183808E+02 -0.89268148878E+02  0.66963927541E+02  0.22473571387E+03  0.17300000000E+03 0. -1.
<mgrwt>
<rscale>  2 0.21452733E+03</rscale>
<asrwt>0</asrwt>
<pdfrwt beam="1">  1       21 0.28337559E-01 0.21452733E+03</pdfrwt>
<pdfrwt beam="2">  1       21 0.58298961E-01 0.21452733E+03</pdfrwt>
<totfact> 0.32426439E+04</totfact>
</mgrwt>
</event>
<event>
 4    1  0.4072310E+000  0.4437629E+03  0.7546771E-02  0.1029598E+00
         21   -1    0    0  503  502  0.00000000000E+00  0.00000000000E+00  0.23955000284E+03  0.23955000284E+03  0.00000000000E+00 0.  1.
         21   -1    0    0  501  503 -0.00000000000E+00 -0.00000000000E+00 -0.11602500730E+04  0.11602500730E+04  0.00000000000E+00 0. -1.
          6    1    1    2  501    0  0.24666034769E+03  0.32581467325E+03 -0.83821603820E+03  0.94843642650E+03  0.17300000000E+03 0. -1.
         -6    1    1    2    0  502 -0.24666034769E+03 -0.32581467325E+03 -0.82484031971E+02  0.45136364935E+03  0.17300000000E+03 0.  1.
<mgrwt>
<rscale>  2 0.44376292E+03</rscale>
<asrwt>0</asrwt>
<pdfrwt beam="1">  1       21 0.36853847E-01 0.44376292E+03</pdfrwt>
<pdfrwt beam="2">  1       21 0.17850001E+00 0.44376292E+03</pdfrwt>
<totfact> 0.11156686E+03</totfact>
</mgrwt>
</event>
<event>
 4    1  0.4072310E+000  0.2046247E+03  0.7546771E-02  0.1145895E+00
         21   -1    0    0  503  502  0.00000000000E+00  0.00000000000E+00  0.49317719478E+03  0.49317719478E+03  0.00000000000E+00 0. -1.
         21   -1    0    0  501  503 -0.00000000000E+00 -0.00000000000E+00 -0.31786166293E+03  0.31786166293E+03  0.00000000000E+00 0.  1.
          6    1    1    2  501    0 -0.92875681646E+02  0.57587884021E+02 -0.25950556821E+03  0.33047601511E+03  0.17300000000E+03 0.  1.
         -6    1    1    2    0  502  0.92875681646E+02 -0.57587884021E+02  0.43482110006E+03  0.48056284260E+03  0.17300000000E+03 0. -1.
<mgrwt>
<rscale>  2 0.20462467E+03</rscale>
<asrwt>0</asrwt>
<pdfrwt beam="1">  1       21 0.75873415E-01 0.20462467E+03</pdfrwt>
<pdfrwt beam="2">  1       21 0.48901794E-01 0.20462467E+03</pdfrwt>
<totfact> 0.61274784E+03</totfact>
</mgrwt>
</event>
<event>
 4    1  0.4072310E+000  0.1960510E+03  0.7546771E-02  0.1153114E+00
         21   -1    0    0  501  502  0.00000000000E+00  0.00000000000E+00  0.95368091455E+03  0.95368091455E+03  0.00000000000E+00 0. -1.
         21   -1    0    0  502  503 -0.00000000000E+00 -0.00000000000E+00 -0.42227863303E+02  0.42227863303E+02  0.00000000000E+00 0.  1.
          6    1    1    2  501    0 -0.91560703041E+02 -0.11119187717E+02  0.56204628756E+03  0.59525795084E+03  0.17300000000E+03 0. -1.
         -6    1    1    2    0  503  0.91560703041E+02  0.11119187717E+02  0.34940676368E+03  0.40065082701E+03  0.17300000000E+03 0.  1.
<mgrwt>
<rscale>  2 0.19605101E+03</rscale>
<asrwt>0</asrwt>
<pdfrwt beam="1">  1       21 0.14672012E+00 0.19605101E+03</pdfrwt>
<pdfrwt beam="2">  1       21 0.64965951E-02 0.19605101E+03</pdfrwt>
<totfact> 0.54389688E+04</totfact>
</mgrwt>
</event>
<event>
 4    1  0.4072310E+000  0.1734283E+03  0.7546771E-02  0.1174319E+00
         21   -1    0    0  501  502  0.00000000000E+00  0.00000000000E+00  0.23098078953E+03  0.23098078953E+03  0.00000000000E+00 0. -1.
         21   -1    0    0  502  503 -0.00000000000E+00 -0.00000000000E+00 -0.13605651988E+03  0.13605651988E+03  0.00000000000E+00 0. -1.
          6    1    1    2  501    0  0.13123291800E+01  0.12110498030E+02  0.85485241501E+02  0.19335230251E+03  0.17300000000E+03 0. -1.
         -6    1    1    2    0  503 -0.13123291800E+01 -0.12110498030E+02  0.94390281507E+01  0.17368500690E+03  0.17300000000E+03 0. -1.
<mgrwt>
<rscale>  2 0.17342833E+03</rscale>
<asrwt>0</asrwt>
<pdfrwt beam="1">  1       21 0.35535506E-01 0.17342833E+03</pdfrwt>
<pdfrwt beam="2">  1       21 0.20931772E-01 0.17342833E+03</pdfrwt>
<totfact> 0.16283176E+05</totfact>
</mgrwt>
</event>
<event>
 4    1  0.4072310E+000  0.3243089E+03  0.7546771E-02  0.1073683E+00
         21   -1    0    0  503  502  0.00000000000E+00  0.00000000000E+00  0.10870901048E+03  0.10870901048E+03  0.00000000000E+00 0. -1.
         21   -1    0    0  501  503 -0.00000000000E+00 -0.00000000000E+00 -0.13409652136E+04  0.13409652136E+04  0.00000000000E+00 0.  1.
          6    1    1    2  501    0  0.24747675505E+02 -0.27319377035E+03 -0.99864889974E+03  0.10499885278E+04  0.17300000000E+03 0.  1.
         -6    1    1    2    0  502 -0.24747675505E+02  0.27319377035E+03 -0.23360730335E+03  0.39968569624E+03  0.17300000000E+03 0. -1.
<mgrwt>
<rscale>  2 0.32430893E+03</rscale>
<asrwt>0</asrwt>
<pdfrwt beam="1">  1       21 0.16724464E-01 0.32430893E+03</pdfrwt>
<pdfrwt beam="2">  1       21 0.20630233E+00 0.32430893E+03</pdfrwt>
<totfact> 0.35641102E+03</totfact>
</mgrwt>
</event>
<event>
 4    1  0.4072310E+000  0.2113637E+03  0.7546771E-02  0.1140491E+00
         21   -1    0    0  503  502  0.00000000000E+00  0.00000000000E+00  0.13750324430E+04  0.13750324430E+04  0.00000000000E+00 0.  1.
         21   -1    0    0  501  503 -0.00000000000E+00 -0.00000000000E+00 -0.41280993893E+02  0.41280993893E+02  0.00000000000E+00 0.  1.
          6    1    1    2  501    0  0.10196334946E+03  0.65947546015E+02  0.34007959800E+03  0.40041070969E+03  0.17300000000E+03 0.  1.
         -6    1    1    2    0  502 -0.10196334946E+03 -0.65947546015E+02  0.99367185109E+03  0.10159027272E+04  0.17300000000E+03 0.  1.
<mgrwt>
<rscale>  2 0.21136368E+03</rscale>
<asrwt>0</asrwt>
<pdfrwt beam="1">  1       21 0.21154342E+00 0.21136368E+03</pdfrwt>
<pdfrwt beam="2">  1       21 0.63509232E-02 0.21136368E+03</pdfrwt>
<totfact> 0.20009983E+04</totfact>
</mgrwt>
</event>
<event>
 4    1  0.4072310E+000  0.1905603E+03  0.7546771E-02  0.1157957E+00
         21   -1    0    0  501  502  0.00000000000E+00  0.00000000000E+00  0.28655464398E+03  0.28655464398E+03  0.00000000000E+00 0. -1.
         21   -1    0    0  502  503 -0.00000000000E+00 -0.00000000000E+00 -0.26293815425E+03  0.26293815425E+03  0.00000000000E+00 0. -1.
          6    1    1    2  501    0  0.38818474605E+02 -0.69838102004E+02  0.20955846242E+03  0.28324544769E+03  0.17300000000E+03 0. -1.
         -6    1    1    2    0  503 -0.38818474605E+02  0.69838102004E+02 -0.18594197270E+03  0.26624735054E+03  0.17300000000E+03 0. -1.
<mgrwt>
<rscale>  2 0.19056032E+03</rscale>
<asrwt>0</asrwt>
<pdfrwt beam="1">  1       21 0.44085330E-01 0.19056032E+03</pdfrwt>
<pdfrwt beam="2">  1       21 0.40452024E-01 0.19056032E+03</pdfrwt>
<totfact> 0.29135979E+04</totfact>
</mgrwt>
</event>
<event>
 4    1  0.4072310E+000  0.2037763E+03  0.7546771E-02  0.1146591E+00
         21   -1    0    0  503  502  0.00000000000E+00  0.00000000000E+00  0.14034091827E+04  0.14034091827E+04  0.00000000000E+00 0.  1.
         21   -1    0    0  501  503 -0.00000000000E+00 -0.00000000000E+00 -0.37328247598E+02  0.37328247598E+02  0.00000000000E+00 0. -1.
          6    1    1    2  501    0 -0.58879871826E+02  0.90160704979E+02  0.35502142758E+03  0.40934704844E+03  0.17300000000E+03 0. -1.
         -6    1    1    2    0  502  0.58879871826E+02 -0.90160704979E+02  0.10110595075E+04  0.10313903818E+04  0.17300000000E+03 0.  1.
<mgrwt>
<rscale>  2 0.20377633E+03</rscale>
<asrwt>0</asrwt>
<pdfrwt beam="1">  1       21 0.21590907E+00 0.20377633E+03</pdfrwt>
<pdfrwt beam="2">  1       21 0.57428084E-02 0.20377633E+03</pdfrwt>
<totfact> 0.22461953E+04</totfact>
</mgrwt>
</event>
<event>
 4    1  0.4072310E+000  0.1967128E+03  0.7546771E-02  0.1152542E+00
         21   -1    0    0  501  502  0.00000000000E+00  0.00000000000E+00  0.50081953556E+02  0.50081953556E+02  0.00000000000E+00 0.  1.
         21   -1    0    0  502  503 -0.00000000000E+00 -0.00000000000E+00 -0.77646425698E+03  0.77646425698E+03  0.00000000000E+00 0.  1.
          6    1    1    2  501    0 -0.88853816019E+02  0.29528648354E+02 -0.39214755476E+03  0.43872046499E+03  0.17300000000E+03 0.  1.
         -6    1    1    2    0  503  0.88853816019E+02 -0.29528648354E+02 -0.33423474866E+03  0.38782574554E+03  0.17300000000E+03 0.  1.
<mgrwt>
<rscale>  2 0.19671284E+03</rscale>
<asrwt>0</asrwt>
<pdfrwt beam="1">  1       21 0.77049169E-02 0.19671284E+03</pdfrwt>
<pdfrwt beam="2">  1       21 0.11945603E+00 0.19671284E+03</pdfrwt>
<totfact> 0.68282773E+04</totfact>
</mgrwt>
</event>
<event>
 4    1  0.4072310E+000  0.1888943E+03  0.7546771E-02  0.1159462E+00
         21   -1    0    0  503  502  0.00000000000E+00  0.00000000000E+00  0.31983012522E+03  0.31983012522E+03  0.00000000000E+00 0.  1.
         21   -1    0    0  501  503 -0.00000000000E+00 -0.00000000000E+00 -0.11340421593E+03  0.11340421593E+03  0.00000000000E+00 0. -1.
          6    1    1    2  501    0 -0.63597669079E+02 -0.41320705982E+02  0.75608209941E+02  0.20346416310E+03  0.17300000000E+03 0.  1.
         -6    1    1    2    0  502  0.63597669079E+02  0.41320705982E+02  0.13081769935E+03  0.22977017804E+03  0.17300000000E+03 0.  1.
<mgrwt>
<rscale>  2 0.18889432E+03</rscale>
<asrwt>0</asrwt>
<pdfrwt beam="1">  1       21 0.49204634E-01 0.18889432E+03</pdfrwt>
<pdfrwt beam="2">  1       21 0.17446803E-01 0.18889432E+03</pdfrwt>
<totfact> 0.11733494E+05</totfact>
</mgrwt>
</event>
<event>
 4    1  0.4072310E+000  0.1838934E+03  0.7546771E-02  0.1164087E+00
         21   -1    0    0  503  502  0.00000000000E+00  0.00000000000E+00  0.14546578977E+03  0.14546578977E+03  0.00000000000E+00 0.  1.
         21   -1    0    0  501  503 -0.00000000000E+00 -0.00000000000E+00 -0.23295854136E+03  0.23295854136E+03  0.00000000000E+00 0.  1.
          6    1    1    2  501    0  0.61751253370E+02  0.86357551435E+01 -0.52389151991E+02  0.19121039931E+03  0.17300000000E+03 0. -1.
         -6    1    1    2    0  502 -0.61751253370E+02 -0.86357551435E+01 -0.35103599606E+02  0.18721393181E+03  0.17300000000E+03 0. -1.
<mgrwt>
<rscale>  2 0.18389343E+03</rscale>
<asrwt>0</asrwt>
<pdfrwt beam="1">  1       21 0.22379352E-01 0.18389343E+03</pdfrwt>
<pdfrwt beam="2">  1       21 0.35839776E-01 0.18389343E+03</pdfrwt>
<totfact> 0.14071601E+05</totfact>
</mgrwt>
</event>
<event>
 4    1  0.4072310E+000  0.1853372E+03  0.7546771E-02  0.1162735E+00
         21   -1    0    0  503  502  0.00000000000E+00  0.00000000000E+00  0.14856893270E+03  0.14856893270E+03  0.00000000000E+00 0.  1.
         21   -1    0    0  501  503 -0.00000000000E+00 -0.00000000000E+00 -0.30894523306E+03  0.30894523306E+03  0.00000000000E+00 0. -1.
          6    1    1    2  501    0  0.54706986503E+02  0.37789406629E+02 -0.19493914652E+03  0.26898171773E+03  0.17300000000E+03 0. -1.
         -6    1    1    2    0  502 -0.54706986503E+02 -0.37789406629E+02  0.34562846160E+02  0.18853244803E+03  0.17300000000E+03 0.  1.
<mgrwt>
<rscale>  2 0.18533724E+03</rscale>
<asrwt>0</asrwt>
<pdfrwt beam="1">  1       21 0.22856759E-01 0.18533724E+03</pdfrwt>
<pdfrwt beam="2">  1       21 0.47530035E-01 0.18533724E+03</pdfrwt>
<totfact> 0.76257730E+04</totfact>
</mgrwt>
</event>
<event>
 4    1  0.4072310E+000  0.2123646E+03  0.7546771E-02  0.1139707E+00
         21   -1    0    0  503  502  0.00000000000E+00  0.00000000000E+00  0.24599090761E+03  0.24599090761E+03  0.00000000000E+00 0. -1.
         21   -1    0    0  501  503 -0.00000000000E+00 -0.00000000000E+00 -0.19518417016E+03  0.19518417016E+03  0.00000000000E+00 0. -1.
          6    1    1    2  501    0 -0.27535823173E+02  0.12004794062E+03  0.79753881822E+02  0.22684666907E+03  0.17300000000E+03 0. -1.
         -6    1    1    2    0  502  0.27535823173E+02 -0.12004794062E+03 -0.28947144373E+02  0.21432840869E+03  0.17300000000E+03 0. -1.
<mgrwt>
<rscale>  2 0.21236461E+03</rscale>
<asrwt>0</asrwt>
<pdfrwt beam="1">  1       21 0.37844755E-01 0.21236461E+03</pdfrwt>
<pdfrwt beam="2">  1       21 0.30028334E-01 0.21236461E+03</pdfrwt>
<totfact> 0.71006872E+04</totfact>
</mgrwt>
</event>
<event>
 4    1  0.4072310E+000  0.1835763E+03  0.7546771E-02  0.1164386E+00
         21   -1    0    0  501  502  0.00000000000E+00  0.00000000000E+00  0.32444882974E+02  0.32444882974E+02  0.00000000000E+00 0. -1.
         21   -1    0    0  502  503 -0.00000000000E+00 -0.00000000000E+00 -0.11989303748E+04  0.11989303748E+04  0.00000000000E+00 0. -1.
          6    1    1    2  501    0 -0.35326975171E+02 -0.50232081118E+02 -0.35815802711E+03  0.40246419658E+03  0.17300000000E+03 0. -1.
         -6    1    1    2    0  503  0.35326975171E+02  0.50232081118E+02 -0.80832746472E+03  0.82891106119E+03  0.17300000000E+03 0. -1.
<mgrwt>
<rscale>  2 0.18357630E+03</rscale>
<asrwt>0</asrwt>
<pdfrwt beam="1">  1       21 0.49915214E-02 0.18357630E+03</pdfrwt>
<pdfrwt beam="2">  1       21 0.18445079E+00 0.18357630E+03</pdfrwt>
<totfact> 0.46067207E+04</totfact>
</mgrwt>
</event>
<event>
 4    1  0.4072310E+000  0.1807388E+03  0.7546771E-02  0.1167090E+00
         21   -1    0    0  501  502  0.00000000000E+00  0.00000000000E+00  0.79531273231E+03  0.79531273231E+03  0.00000000000E+00 0.  1.
         21   -1    0    0  502  503 -0.00000000000E+00 -0.00000000000E+00 -0.42350076377E+02  0.42350076377E+02  0.00000000000E+00 0.  1.
          6    1    1    2  501    0 -0.18340129006E+02 -0.49001514059E+02  0.44918997879E+03  0.48418813054E+03  0.17300000000E+03 0.  1.
         -6    1    1    2    0  503  0.18340129006E+02  0.49001514059E+02  0.30377267715E+03  0.35347467815E+03  0.17300000000E+03 0.  1.
<mgrwt>
<rscale>  2 0.18073879E+03</rscale>
<asrwt>0</asrwt>
<pdfrwt beam="1">  1       21 0.12235579E+00 0.18073879E+03</pdfrwt>
<pdfrwt beam="2">  1       21 0.65153970E-02 0.18073879E+03</pdfrwt>
<totfact> 0.86599892E+04</totfact>
</mgrwt>
</event>
<event>
 4    1  0.4072310E+000  0.1756950E+03  0.7546771E-02  0.1172036E+00
         21   -1    0    0  503  502  0.00000000000E+00  0.00000000000E+00  0.60613293028E+02  0.60613293028E+02  0.00000000000E+00 0.  1.
         21   -1    0    0  501  503 -0.00000000000E+00 -0.00000000000E+00 -0.54017164139E+03  0.54017164139E+03  0.00000000000E+00 0.  1.
          6    1    1    2  501    0 -0.99289199012E+01  0.29002773129E+02 -0.31162297134E+03  0.35773959882E+03  0.17300000000E+03 0. -1.
         -6    1    1    2    0  502  0.99289199012E+01 -0.29002773129E+02 -0.16793537703E+03  0.24304533560E+03  0.17300000000E+03 0. -1.
<mgrwt>
<rscale>  2 0.17569503E+03</rscale>
<asrwt>0</asrwt>
<pdfrwt beam="1">  1       21 0.93251223E-02 0.17569503E+03</pdfrwt>
<pdfrwt beam="2">  1       21 0.83103327E-01 0.17569503E+03</pdfrwt>
<totfact> 0.11653689E+05</totfact>
</mgrwt>
</event>
<event>
 4    1  0.4072310E+000  0.1866241E+03  0.7546771E-02  0.1161542E+00
         21   -1    0    0  501  502  0.00000000000E+00  0.00000000000E+00  0.29049161827E+03  0.29049161827E+03  0.00000000000E+00 0.  1.
         21   -1    0    0  502  503 -0.00000000000E+00 -0.00000000000E+00 -0.12175293058E+03  0.12175293058E+03  0.00000000000E+00 0.  1.
          6    1    1    2  501    0 -0.49661611872E+02  0.49328461131E+02  0.58908799402E+02  0.19570084164E+03  0.17300000000E+03 0.  1.
         -6    1    1    2    0  503  0.49661611872E+02 -0.49328461131E+02  0.10982988829E+03  0.21654370721E+03  0.17300000000E+03 0.  1.
<mgrwt>
<rscale>  2 0.18662415E+03</rscale>
<asrwt>0</asrwt>
<pdfrwt beam="1">  1       21 0.44691018E-01 0.18662415E+03</pdfrwt>
<pdfrwt beam="2">  1       21 0.18731220E-01 0.18662415E+03</pdfrwt>
<totfact> 0.12560420E+05</totfact>
</mgrwt>
</event>
<event>
 4    1  0.4072310E+000  0.1814230E+03  0.7546771E-02  0.1166433E+00
         21   -1    0    0  501  502  0.00000000000E+00  0.00000000000E+00  0.17194180152E+03  0.17194180152E+03  0.00000000000E+00 0.  1.
         21   -1    0    0  502  503 -0.00000000000E+00 -0.00000000000E+00 -0.43839755793E+03  0.43839755793E+03  0.00000000000E+00 0.  1.
          6    1    1    2  501    0  0.31435880770E+01 -0.54547415889E+02  0.95821919638E+02  0.20517344616E+03  0.17300000000E+03 0.  1.
         -6    1    1    2    0  503 -0.31435880770E+01  0.54547415889E+02 -0.36227767605E+03  0.40516591329E+03  0.17300000000E+03 0.  1.
<mgrwt>
<rscale>  2 0.18142299E+03</rscale>
<asrwt>0</asrwt>
<pdfrwt beam="1">  1       21 0.26452585E-01 0.18142299E+03</pdfrwt>
<pdfrwt beam="2">  1       21 0.67445778E-01 0.18142299E+03</pdfrwt>
<totfact> 0.27503919E+04</totfact>
</mgrwt>
</event>
<event>
 4    1  0.4072310E+000  0.1935618E+03  0.7546771E-02  0.1155287E+00
         21   -1    0    0  501  502  0.00000000000E+00  0.00000000000E+00  0.12607688299E+03  0.12607688299E+03  0.00000000000E+00 0.  1.
         21   -1    0    0  502  503 -0.00000000000E+00 -0.00000000000E+00 -0.20077579708E+04  0.20077579708E+04  0.00000000000E+00 0.  1.
          6    1    1    2  501    0 -0.58475371777E+01  0.86619769819E+02  0.43959197942E+02  0.19849077887E+03  0.17300000000E+03 0.  1.
         -6    1    1    2    0  503  0.58475371777E+01 -0.86619769819E+02 -0.19256402857E+04  0.19353440749E+04  0.17300000000E+03 0.  1.
<mgrwt>
<rscale>  2 0.19356182E+03</rscale>
<asrwt>0</asrwt>
<pdfrwt beam="1">  1       21 0.19396444E-01 0.19356182E+03</pdfrwt>
<pdfrwt beam="2">  1       21 0.30888583E+00 0.19356182E+03</pdfrwt>
<totfact> 0.74057887E+02</totfact>
</mgrwt>
</event>
<event>
 4    1  0.4072310E+000  0.2212427E+03  0.7546771E-02  0.1132960E+00
         21   -1    0    0  501  502  0.00000000000E+00  0.00000000000E+00  0.68741694453E+02  0.68741694453E+02  0.00000000000E+00 0.  1.
         21   -1    0    0  502  503 -0.00000000000E+00 -0.00000000000E+00 -0.72239486112E+03  0.72239486112E+03  0.00000000000E+00 0.  1.
          6    1    1    2  501    0 -0.13499474109E+03  0.28208914103E+02 -0.27951666289E+03  0.35647985607E+03  0.17300000000E+03 0.  1.
         -6    1    1    2    0  503  0.13499474109E+03 -0.28208914103E+02 -0.37413650378E+03  0.43465669949E+03  0.17300000000E+03 0.  1.
<mgrwt>
<rscale>  2 0.22124268E+03</rscale>
<asrwt>0</asrwt>
<pdfrwt beam="1">  1       21 0.10575645E-01 0.22124268E+03</pdfrwt>
<pdfrwt beam="2">  1       21 0.11113768E+00 0.22124268E+03</pdfrwt>
<totfact> 0.46131362E+04</totfact>
</mgrwt>
</event>
<event>
 4    1  0.4072310E+000  0.2050597E+03  0.7546771E-02  0.1145539E+00
         21   -1    0    0  501  502  0.00000000000E+00  0.00000000000E+00  0.14995204977E+03  0.14995204977E+03  0.00000000000E+00 0.  1.
         21   -1    0    0  502  503 -0.00000000000E+00 -0.00000000000E+00 -0.28987709348E+03  0.28987709348E+03  0.00000000000E+00 0.  1.
          6    1    1    2  501    0 -0.75067472559E+02 -0.80531803555E+02 -0.30240200266E+02  0.20727751092E+03  0.17300000000E+03 0.  1.
         -6    1    1    2    0  503  0.75067472559E+02  0.80531803555E+02 -0.10968484344E+03  0.23255163233E+03  0.17300000000E+03 0.  1.
<mgrwt>
<rscale>  2 0.20505974E+03</rscale>
<asrwt>0</asrwt>
<pdfrwt beam="1">  1       21 0.23069547E-01 0.20505974E+03</pdfrwt>
<pdfrwt beam="2">  1       21 0.44596475E-01 0.20505974E+03</pdfrwt>
<totfact> 0.84738389E+04</totfact>
</mgrwt>
</event>
<event>
 4    1  0.4072310E+000  0.1830852E+03  0.7546771E-02  0.1164850E+00
         21   -1    0    0  501  502  0.00000000000E+00  0.00000000000E+00  0.46171054853E+02  0.46171054853E+02  0.00000000000E+00 0. -1.
         21   -1    0    0  502  503 -0.00000000000E+00 -0.00000000000E+00 -0.73632949714E+03  0.73632949714E+03  0.00000000000E+00 0. -1.
          6    1    1    2  501    0 -0.25818981236E+02  0.54079327635E+02 -0.29873936663E+03  0.35037894150E+03  0.17300000000E+03 0. -1.
         -6    1    1    2    0  503  0.25818981236E+02 -0.54079327635E+02 -0.39141907565E+03  0.43212161049E+03  0.17300000000E+03 0. -1.
<mgrwt>
<rscale>  2 0.18308521E+03</rscale>
<asrwt>0</asrwt>
<pdfrwt beam="1">  1       21 0.71032391E-02 0.18308521E+03</pdfrwt>
<pdfrwt beam="2">  1       21 0.11328146E+00 0.18308521E+03</pdfrwt>
<totfact> 0.90070213E+04</totfact>
</mgrwt>
</event>
<event>
 4    1  0.4072310E+000  0.2597666E+03  0.7546771E-02  0.1107284E+00
         21   -1    0    0  501  502  0.00000000000E+00  0.00000000000E+00  0.22804317232E+03  0.22804317232E+03  0.00000000000E+00 0. -1.
         21   -1    0    0  502  503 -0.00000000000E+00 -0.00000000000E+00 -0.30739641570E+03  0.30739641570E+03  0.00000000000E+00 0.  1.
          6    1    1    2  501    0  0.82576695856E+02 -0.17530196621E+03  0.12090384840E+02  0.26004781764E+03  0.17300000000E+03 0. -1.
         -6    1    1    2    0  503 -0.82576695856E+02  0.17530196621E+03 -0.91443628223E+02  0.27539177039E+03  0.17300000000E+03 0.  1.
<mgrwt>
<rscale>  2 0.25976661E+03</rscale>
<asrwt>0</asrwt>
<pdfrwt beam="1">  1       21 0.35083565E-01 0.25976661E+03</pdfrwt>
<pdfrwt beam="2">  1       21 0.47291756E-01 0.25976661E+03</pdfrwt>
<totfact> 0.32437310E+04</totfact>
</mgrwt>
</event>
<event>
 4    1  0.4072310E+000  0.1761181E+03  0.7546771E-02  0.1171614E+00
         21   -1    0    0  501  502  0.00000000000E+00  0.00000000000E+00  0.56747309434E+02  0.56747309434E+02  0.00000000000E+00 0.  1.
         21   -1    0    0  502  503 -0.00000000000E+00 -0.00000000000E+00 -0.57722951103E+03  0.57722951103E+03  0.00000000000E+00 0.  1.
          6    1    1    2  501    0 -0.27224771119E+01  0.32881201077E+02 -0.18721117350E+03  0.25703231071E+03  0.17300000000E+03 0. -1.
         -6    1    1    2    0  503  0.27224771119E+01 -0.32881201077E+02 -0.33327102809E+03  0.37694450975E+03  0.17300000000E+03 0. -1.
<mgrwt>
<rscale>  2 0.17611810E+03</rscale>
<asrwt>0</asrwt>
<pdfrwt beam="1">  1       21 0.87303555E-02 0.17611810E+03</pdfrwt>
<pdfrwt beam="2">  1       21 0.88804538E-01 0.17611810E+03</pdfrwt>
<totfact> 0.11235972E+05</totfact>
</mgrwt>
</event>
<event>
 4    1  0.4072310E+000  0.2169290E+03  0.7546771E-02  0.1136194E+00
         21   -1    0    0  501  502  0.00000000000E+00  0.00000000000E+00  0.11366145870E+04  0.11366145870E+04  0.00000000000E+00 0. -1.
         21   -1    0    0  502  503 -0.00000000000E+00 -0.00000000000E+00 -0.53626724497E+02  0.53626724497E+02  0.00000000000E+00 0.  1.
          6    1    1    2  501    0 -0.12080874489E+03  0.50343154338E+02  0.82563424262E+03  0.85365689162E+03  0.17300000000E+03 0. -1.
         -6    1    1    2    0  503  0.12080874489E+03 -0.50343154338E+02  0.25735361985E+03  0.33658441984E+03  0.17300000000E+03 0.  1.
<mgrwt>
<rscale>  2 0.21692899E+03</rscale>
<asrwt>0</asrwt>
<pdfrwt beam="1">  1       21 0.17486376E+00 0.21692899E+03</pdfrwt>
<pdfrwt beam="2">  1       21 0.82502662E-02 0.21692899E+03</pdfrwt>
<totfact> 0.22076133E+04</totfact>
</mgrwt>
</event>
<event>
 4    1  0.4072310E+000  0.1909374E+03  0.7546771E-02  0.1157619E+00
         21   -1    0    0  503  502  0.00000000000E+00  0.00000000000E+00  0.36795482798E+03  0.36795482798E+03  0.00000000000E+00 0. -1.
         21   -1    0    0  501  503 -0.00000000000E+00 -0.00000000000E+00 -0.16366931209E+03  0.16366931209E+03  0.00000000000E+00 0. -1.
          6    1    1    2  501    0 -0.62351018675E+02  0.51385287785E+02 -0.64839443982E+02  0.20164635089E+03  0.17300000000E+03 0. -1.
         -6    1    1    2    0  502  0.62351018675E+02 -0.51385287785E+02  0.26912495987E+03  0.32997778919E+03  0.17300000000E+03 0. -1.
<mgrwt>
<rscale>  2 0.19093742E+03</rscale>
<asrwt>0</asrwt>
<pdfrwt beam="1">  1       21 0.56608435E-01 0.19093742E+03</pdfrwt>
<pdfrwt beam="2">  1       21 0.25179894E-01 0.19093742E+03</pdfrwt>
<totfact> 0.43878120E+04</totfact>
</mgrwt>
</event>
<event>
 4    1  0.4072310E+000  0.3021038E+03  0.7546771E-02  0.1084194E+00
         21   -1    0    0  503  502  0.00000000000E+00  0.00000000000E+00  0.11520493022E+04  0.11520493022E+04  0.00000000000E+00 0.  1.
         21   -1    0    0  501  503 -0.00000000000E+00 -0.00000000000E+00 -0.85087514143E+02  0.85087514143E+02  0.00000000000E+00 0.  1.
          6    1    1    2  501    0  0.22818068635E+03 -0.96287441138E+02  0.37106127803E+03  0.47849051087E+03  0.17300000000E+03 0.  1.
         -6    1    1    2    0  502 -0.22818068635E+03  0.96287441138E+02  0.69590050999E+03  0.75864630543E+03  0.17300000000E+03 0.  1.
<mgrwt>
<rscale>  2 0.30210379E+03</rscale>
<asrwt>0</asrwt>
<pdfrwt beam="1">  1       21 0.17723834E+00 0.30210379E+03</pdfrwt>
<pdfrwt beam="2">  1       21 0.13090388E-01 0.30210379E+03</pdfrwt>
<totfact> 0.88768826E+03</totfact>
</mgrwt>
</event>
<event>
 4    1  0.4072310E+000  0.2082301E+03  0.7546771E-02  0.1142975E+00
         21   -1    0    0  501  502  0.00000000000E+00  0.00000000000E+00  0.11273603807E+03  0.11273603807E+03  0.00000000000E+00 0.  1.
         21   -1    0    0  502  503 -0.00000000000E+00 -0.00000000000E+00 -0.39914799158E+03  0.39914799158E+03  0.00000000000E+00 0.  1.
          6    1    1    2  501    0 -0.71147891316E+02  0.91480966809E+02 -0.94365917434E+02  0.22861477664E+03  0.17300000000E+03 0.  1.
         -6    1    1    2    0  503  0.71147891316E+02 -0.91480966809E+02 -0.19204603608E+03  0.28326925301E+03  0.17300000000E+03 0.  1.
<mgrwt>
<rscale>  2 0.20823014E+03</rscale>
<asrwt>0</asrwt>
<pdfrwt beam="1">  1       21 0.17344006E-01 0.20823014E+03</pdfrwt>
<pdfrwt beam="2">  1       21 0.61407383E-01 0.20823014E+03</pdfrwt>
<totfact> 0.73609593E+04</totfact>
</mgrwt>
</event>
<event>
 4    1  0.4072310E+000  0.2238714E+03  0.7546771E-02  0.1131029E+00
         21   -1    0    0  501  502  0.00000000000E+00  0.00000000000E+00  0.85776809843E+02  0.85776809843E+02  0.00000000000E+00 0.  1.
         21   -1    0    0  502  503 -0.00000000000E+00 -0.00000000000E+00 -0.75862395636E+03  0.75862395636E+03  0.00000000000E+00 0. -1.
          6    1    1    2  501    0  0.56166325821E+02  0.13051719895E+03 -0.13402925023E+03  0.26092572755E+03  0.17300000000E+03 0.  1.
         -6    1    1    2    0  503 -0.56166325821E+02 -0.13051719895E+03 -0.53881789629E+03  0.58347503866E+03  0.17300000000E+03 0. -1.
<mgrwt>
<rscale>  2 0.22387138E+03</rscale>
<asrwt>0</asrwt>
<pdfrwt beam="1">  1       21 0.13196432E-01 0.22387138E+03</pdfrwt>
<pdfrwt beam="2">  1       21 0.11671138E+00 0.22387138E+03</pdfrwt>
<totfact> 0.27480411E+04</totfact>
</mgrwt>
</event>
<event>
 4    1  0.4072310E+000  0.1794249E+03  0.7546771E-02  0.1168361E+00
         21   -1    0    0  503  502  0.00000000000E+00  0.00000000000E+00  0.65223108580E+03  0.65223108580E+03  0.00000000000E+00 0.  1.
         21   -1    0    0  501  503 -0.00000000000E+00 -0.00000000000E+00 -0.10302694274E+03  0.10302694274E+03  0.00000000000E+00 0.  1.
          6    1    1    2  501    0 -0.19461120812E+02 -0.43422977913E+02  0.20505796973E+01  0.17943660471E+03  0.17300000000E+03 0.  1.
         -6    1    1    2    0  502  0.19461120812E+02  0.43422977913E+02  0.54715356337E+03  0.57582142383E+03  0.17300000000E+03 0.  1.
<mgrwt>
<rscale>  2 0.17942489E+03</rscale>
<asrwt>0</asrwt>
<pdfrwt beam="1">  1       21 0.10034324E+00 0.17942489E+03</pdfrwt>
<pdfrwt beam="2">  1       21 0.15850299E-01 0.17942489E+03</pdfrwt>
<totfact> 0.29104913E+04</totfact>
</mgrwt>
</event>
<event>
 4    1  0.4072310E+000  0.1957158E+03  0.7546771E-02  0.1153405E+00
         21   -1    0    0  503  502  0.00000000000E+00  0.00000000000E+00  0.37545970141E+03  0.37545970141E+03  0.00000000000E+00 0.  1.
         21   -1    0    0  501  503 -0.00000000000E+00 -0.00000000000E+00 -0.10202109561E+03  0.10202109561E+03  0.00000000000E+00 0. -1.
          6    1    1    2  501    0  0.72960304241E+02 -0.55249193613E+02  0.13716030703E+03  0.23899294804E+03  0.17300000000E+03 0.  1.
         -6    1    1    2    0  502 -0.72960304241E+02  0.55249193613E+02  0.13627829877E+03  0.23848784897E+03  0.17300000000E+03 0. -1.
<mgrwt>
<rscale>  2 0.19571581E+03</rscale>
<asrwt>0</asrwt>
<pdfrwt beam="1">  1       21 0.57763030E-01 0.19571581E+03</pdfrwt>
<pdfrwt beam="2">  1       21 0.15695553E-01 0.19571581E+03</pdfrwt>
<totfact> 0.10138843E+05</totfact>
</mgrwt>
</event>
<event>
 4    1  0.4072310E+000  0.3725498E+03  0.7546771E-02  0.1053722E+00
         21   -1    0    0  501  502  0.00000000000E+00  0.00000000000E+00  0.67467625058E+03  0.67467625058E+03  0.00000000000E+00 0. -1.
         21   -1    0    0  502  503 -0.00000000000E+00 -0.00000000000E+00 -0.24746756613E+03  0.24746756613E+03  0.00000000000E+00 0. -1.
          6    1    1    2  501    0 -0.32905102705E+03 -0.24284960939E+02  0.40298397763E+03  0.54880727396E+03  0.17300000000E+03 0. -1.
         -6    1    1    2    0  503  0.32905102705E+03  0.24284960939E+02  0.24224706820E+02  0.37333654275E+03  0.17300000000E+03 0. -1.
<mgrwt>
<rscale>  2 0.37254978E+03</rscale>
<asrwt>0</asrwt>
<pdfrwt beam="1">  1       21 0.10379635E+00 0.37254978E+03</pdfrwt>
<pdfrwt beam="2">  1       21 0.38071934E-01 0.37254978E+03</pdfrwt>
<totfact> 0.45047086E+03</totfact>
</mgrwt>
</event>
<event>
 4    1  0.4072310E+000  0.2938294E+03  0.7546771E-02  0.1088367E+00
         21   -1    0    0  503  502  0.00000000000E+00  0.00000000000E+00  0.12708620009E+03  0.12708620009E+03  0.00000000000E+00 0. -1.
         21   -1    0    0  501  503 -0.00000000000E+00 -0.00000000000E+00 -0.73457257858E+03  0.73457257858E+03  0.00000000000E+00 0.  1.
          6    1    1    2  501    0  0.23728267482E+03  0.10179750663E+02 -0.42187205949E+03  0.51411256518E+03  0.17300000000E+03 0.  1.
         -6    1    1    2    0  502 -0.23728267482E+03 -0.10179750663E+02 -0.18561431900E+03  0.34754621349E+03  0.17300000000E+03 0. -1.
<mgrwt>
<rscale>  2 0.29382936E+03</rscale>
<asrwt>0</asrwt>
<pdfrwt beam="1">  1       21 0.19551724E-01 0.29382936E+03</pdfrwt>
<pdfrwt beam="2">  1       21 0.11301116E+00 0.29382936E+03</pdfrwt>
<totfact> 0.13919199E+04</totfact>
</mgrwt>
</event>
<event>
 4    1  0.4072310E+000  0.1751766E+03  0.7546771E-02  0.1172554E+00
         21   -1    0    0  503  502  0.00000000000E+00  0.00000000000E+00  0.13586562451E+03  0.13586562451E+03  0.00000000000E+00 0.  1.
         21   -1    0    0  501  503 -0.00000000000E+00 -0.00000000000E+00 -0.24640648147E+03  0.24640648147E+03  0.00000000000E+00 0.  1.
          6    1    1    2  501    0  0.17270207314E+02 -0.21437993753E+02 -0.11046124136E+03  0.20709546948E+03  0.17300000000E+03 0.  1.
         -6    1    1    2    0  502 -0.17270207314E+02  0.21437993753E+02 -0.79615596174E-01  0.17517663650E+03  0.17300000000E+03 0.  1.
<mgrwt>
<rscale>  2 0.17517662E+03</rscale>
<asrwt>0</asrwt>
<pdfrwt beam="1">  1       21 0.20902404E-01 0.17517662E+03</pdfrwt>
<pdfrwt beam="2">  1       21 0.37908689E-01 0.17517662E+03</pdfrwt>
<totfact> 0.14345271E+05</totfact>
</mgrwt>
</event>
<event>
 4    1  0.4072310E+000  0.1808589E+03  0.7546771E-02  0.1166974E+00
         21   -1    0    0  501  502  0.00000000000E+00  0.00000000000E+00  0.76179717647E+02  0.76179717647E+02  0.00000000000E+00 0.  1.
         21   -1    0    0  502  503 -0.00000000000E+00 -0.00000000000E+00 -0.60868610304E+03  0.60868610304E+03  0.00000000000E+00 0.  1.
          6    1    1    2  501    0  0.66335862348E+01  0.52315609687E+02 -0.80396483925E+02  0.19792302067E+03  0.17300000000E+03 0.  1.
         -6    1    1    2    0  503 -0.66335862348E+01 -0.52315609687E+02 -0.45210990147E+03  0.48694280002E+03  0.17300000000E+03 0.  1.
<mgrwt>
<rscale>  2 0.18085886E+03</rscale>
<asrwt>0</asrwt>
<pdfrwt beam="1">  1       21 0.11719957E-01 0.18085886E+03</pdfrwt>
<pdfrwt beam="2">  1       21 0.93644014E-01 0.18085886E+03</pdfrwt>
<totfact> 0.58968806E+04</totfact>
</mgrwt>
</event>
<event>
 4    1  0.4072310E+000  0.2871569E+03  0.7546771E-02  0.1091843E+00
         21   -1    0    0  501  502  0.00000000000E+00  0.00000000000E+00  0.11073812993E+03  0.11073812993E+03  0.00000000000E+00 0. -1.
         21   -1    0    0  502  503 -0.00000000000E+00 -0.00000000000E+00 -0.25716691051E+04  0.25716691051E+04  0.00000000000E+00 0.  1.
          6    1    1    2  501    0 -0.14868213998E+03  0.17442398219E+03 -0.99990622450E+02  0.30406780312E+03  0.17300000000E+03 0. -1.
         -6    1    1    2    0  503  0.14868213998E+03 -0.17442398219E+03 -0.23609403527E+04  0.23783394319E+04  0.17300000000E+03 0.  1.
<mgrwt>
<rscale>  2 0.28715693E+03</rscale>
<asrwt>0</asrwt>
<pdfrwt beam="1">  1       21 0.17036638E-01 0.28715693E+03</pdfrwt>
<pdfrwt beam="2">  1       21 0.39564134E+00 0.28715693E+03</pdfrwt>
<totfact> 0.25307785E+02</totfact>
</mgrwt>
</event>
<event>
 4    1  0.4072310E+000  0.1756417E+03  0.7546771E-02  0.1172089E+00
         21   -1    0    0  501  502  0.00000000000E+00  0.00000000000E+00  0.30940095822E+03  0.30940095822E+03  0.00000000000E+00 0. -1.
         21   -1    0    0  502  503 -0.00000000000E+00 -0.00000000000E+00 -0.10591091838E+03  0.10591091838E+03  0.00000000000E+00 0. -1.
          6    1    1    2  501    0  0.28229243701E+02  0.11141047892E+02  0.15199574460E+03  0.23227724711E+03  0.17300000000E+03 0. -1.
         -6    1    1    2    0  503 -0.28229243701E+02 -0.11141047892E+02  0.51494295244E+02  0.18303462949E+03  0.17300000000E+03 0. -1.
<mgrwt>
<rscale>  2 0.17564172E+03</rscale>
<asrwt>0</asrwt>
<pdfrwt beam="1">  1       21 0.47600147E-01 0.17564172E+03</pdfrwt>
<pdfrwt beam="2">  1       21 0.16293988E-01 0.17564172E+03</pdfrwt>
<totfact> 0.14314046E+05</totfact>
</mgrwt>
</event>
<event>
 4    1  0.4072310E+000  0.1791690E+03  0.7546771E-02  0.1168610E+00
         21   -1    0    0  501  502  0.00000000000E+00  0.00000000000E+00  0.14226887534E+04  0.14226887534E+04  0.00000000000E+00 0.  1.
         21   -1    0    0  502  503 -0.00000000000E+00 -0.00000000000E+00 -0.51213888419E+02  0.51213888419E+02  0.00000000000E+00 0.  1.
          6    1    1    2  501    0 -0.45668841390E+02  0.93220979189E+01  0.12369338895E+04  0.12498427867E+04  0.17300000000E+03 0.  1.
         -6    1    1    2    0  503  0.45668841390E+02 -0.93220979189E+01  0.13454097554E+03  0.22405985514E+03  0.17300000000E+03 0.  1.
<mgrwt>
<rscale>  2 0.17916904E+03</rscale>
<asrwt>0</asrwt>
<pdfrwt beam="1">  1       21 0.21887516E+00 0.17916904E+03</pdfrwt>
<pdfrwt beam="2">  1       21 0.78790608E-02 0.17916904E+03</pdfrwt>
<totfact> 0.12744250E+04</totfact>
</mgrwt>
</event>
<event>
 4    1  0.4072310E+000  0.2201666E+03  0.7546771E-02  0.1133759E+00
         21   -1    0    0  503  502  0.00000000000E+00  0.00000000000E+00  0.11001305937E+03  0.11001305937E+03  0.00000000000E+00 0. -1.
         21   -1    0    0  501  503 -0.00000000000E+00 -0.00000000000E+00 -0.51447153881E+03  0.51447153881E+03  0.00000000000E+00 0. -1.
          6    1    1    2  501    0  0.13187144891E+03  0.33974368547E+02 -0.32053539362E+03  0.38886536915E+03  0.17300000000E+03 0. -1.
         -6    1    1    2    0  502 -0.13187144891E+03 -0.33974368547E+02 -0.83923085819E+02  0.23561922903E+03  0.17300000000E+03 0. -1.
<mgrwt>
<rscale>  2 0.22016661E+03</rscale>
<asrwt>0</asrwt>
<pdfrwt beam="1">  1       21 0.16925086E-01 0.22016661E+03</pdfrwt>
<pdfrwt beam="2">  1       21 0.79149466E-01 0.22016661E+03</pdfrwt>
<totfact> 0.43708122E+04</totfact>
</mgrwt>
</event>
<event>
 4    1  0.4072310E+000  0.2195099E+03  0.7546771E-02  0.1134249E+00
         21   -1    0    0  501  502  0.00000000000E+00  0.00000000000E+00  0.15420499423E+03  0.15420499423E+03  0.00000000000E+00 0.  1.
         21   -1    0    0  502  503 -0.00000000000E+00 -0.00000000000E+00 -0.32871640800E+03  0.32871640800E+03  0.00000000000E+00 0. -1.
          6    1    1    2  501    0 -0.29282571001E+02 -0.13190190909E+03 -0.33577053526E+02  0.22206305661E+03  0.17300000000E+03 0. -1.
         -6    1    1    2    0  503  0.29282571001E+02  0.13190190909E+03 -0.14093436024E+03  0.26085834563E+03  0.17300000000E+03 0.  1.
<mgrwt>
<rscale>  2 0.21950987E+03</rscale>
<asrwt>0</asrwt>
<pdfrwt beam="1">  1       21 0.23723846E-01 0.21950987E+03</pdfrwt>
<pdfrwt beam="2">  1       21 0.50571755E-01 0.21950987E+03</pdfrwt>
<totfact> 0.61525172E+04</totfact>
</mgrwt>
</event>
<event>
 4    1  0.4072310E+000  0.1735859E+03  0.7546771E-02  0.1174159E+00
         21   -1    0    0  503  502  0.00000000000E+00  0.00000000000E+00  0.61178120917E+03  0.61178120917E+03  0.00000000000E+00 0. -1.
         21   -1    0    0  501  503 -0.00000000000E+00 -0.00000000000E+00 -0.90781883768E+02  0.90781883768E+02  0.00000000000E+00 0. -1.
          6    1    1    2  501    0 -0.11979532272E+02 -0.77166659814E+01  0.22908161215E+02  0.17509094773E+03  0.17300000000E+03 0. -1.
         -6    1    1    2    0  502  0.11979532272E+02  0.77166659814E+01  0.49809116419E+03  0.52747214521E+03  0.17300000000E+03 0. -1.
<mgrwt>
<rscale>  2 0.17358588E+03</rscale>
<asrwt>0</asrwt>
<pdfrwt beam="1">  1       21 0.94120184E-01 0.17358588E+03</pdfrwt>
<pdfrwt beam="2">  1       21 0.13966444E-01 0.17358588E+03</pdfrwt>
<totfact> 0.42701636E+04</totfact>
</mgrwt>
</event>
<event>
 4    1  0.4072310E+000  0.2426410E+03  0.7546771E-02  0.1118046E+00
         21   -1    0    0  503  502  0.00000000000E+00  0.00000000000E+00  0.98491861239E+03  0.98491861239E+03  0.00000000000E+00 0. -1.
         21   -1    0    0  501  503 -0.00000000000E+00 -0.00000000000E+00 -0.60742830360E+02  0.60742830360E+02  0.00000000000E+00 0. -1.
          6    1    1    2  501    0  0.13646689588E+03  0.10159931890E+03  0.39613152323E+03  0.46453720946E+03  0.17300000000E+03 0. -1.
         -6    1    1    2    0  502 -0.13646689588E+03 -0.10159931890E+03  0.52804425880E+03  0.58112423330E+03  0.17300000000E+03 0. -1.
<mgrwt>
<rscale>  2 0.24264096E+03</rscale>
<asrwt>0</asrwt>
<pdfrwt beam="1">  1       21 0.15152593E+00 0.24264096E+03</pdfrwt>
<pdfrwt beam="2">  1       21 0.93450516E-02 0.24264096E+03</pdfrwt>
<totfact> 0.25828820E+04</totfact>
</mgrwt>
</event>
<event>
 4    1  0.4072310E+000  0.1916684E+03  0.7546771E-02  0.1156965E+00
         21   -1    0    0  503  502  0.00000000000E+00  0.00000000000E+00  0.24544706159E+04  0.24544706159E+04  0.00000000000E+00 0. -1.
         21   -1    0    0  501  503 -0.00000000000E+00 -0.00000000000E+00 -0.17647626378E+02  0.17647626378E+02  0.00000000000E+00 0. -1.
          6    1    1    2  501    0  0.78653945878E+02  0.24926408368E+02  0.73669569469E+03  0.76122093745E+03  0.17300000000E+03 0. -1.
         -6    1    1    2    0  502 -0.78653945878E+02 -0.24926408368E+02  0.17001272949E+04  0.17108973048E+04  0.17300000000E+03 0. -1.
<mgrwt>
<rscale>  2 0.19166838E+03</rscale>
<asrwt>0</asrwt>
<pdfrwt beam="1">  1       21 0.37761059E+00 0.19166838E+03</pdfrwt>
<pdfrwt beam="2">  1       21 0.27150214E-02 0.19166838E+03</pdfrwt>
<totfact> 0.89318940E+03</totfact>
</mgrwt>
</event>
<event>
 4    1  0.4072310E+000  0.1761966E+03  0.7546771E-02  0.1171536E+00
         21   -1    0    0  501  502  0.00000000000E+00  0.00000000000E+00  0.33995065675E+02  0.33995065675E+02  0.00000000000E+00 0. -1.
         21   -1    0    0  502  503 -0.00000000000E+00 -0.00000000000E+00 -0.15112302508E+04  0.15112302508E+04  0.00000000000E+00 0. -1.
          6    1    1    2  501    0  0.32870715699E+02  0.59785283921E+01 -0.25260433839E+03  0.30798405564E+03  0.17300000000E+03 0. -1.
         -6    1    1    2    0  503 -0.32870715699E+02 -0.59785283921E+01 -0.12246308467E+04  0.12372412608E+04  0.17300000000E+03 0. -1.
<mgrwt>
<rscale>  2 0.17619656E+03</rscale>
<asrwt>0</asrwt>
<pdfrwt beam="1">  1       21 0.52300101E-02 0.17619656E+03</pdfrwt>
<pdfrwt beam="2">  1       21 0.23249696E+00 0.17619656E+03</pdfrwt>
<totfact> 0.21349387E+04</totfact>
</mgrwt>
</event>
<event>
 4    1  0.4072310E+000  0.1985458E+03  0.7546771E-02  0.1150972E+00
         21   -1    0    0  501  502  0.00000000000E+00  0.00000000000E+00  0.14410147904E+04  0.14410147904E+04  0.00000000000E+00 0. -1.
         21   -1    0    0  502  503 -0.00000000000E+00 -0.00000000000E+00 -0.29611473890E+02  0.29611473890E+02  0.00000000000E+00 0.  1.
          6    1    1    2  501    0  0.36301517941E+02 -0.90408167417E+02  0.90863751267E+03  0.93007664542E+03  0.17300000000E+03 0. -1.
         -6    1    1    2    0  503 -0.36301517941E+02  0.90408167417E+02  0.50276580386E+03  0.54054961888E+03  0.17300000000E+03 0.  1.
<mgrwt>
<rscale>  2 0.19854581E+03</rscale>
<asrwt>0</asrwt>
<pdfrwt beam="1">  1       21 0.22169453E+00 0.19854581E+03</pdfrwt>
<pdfrwt beam="2">  1       21 0.45556125E-02 0.19854581E+03</pdfrwt>
<totfact> 0.30787759E+04</totfact>
</mgrwt>
</event>
<event>
 4    1  0.4072310E+000  0.1814501E+03  0.7546771E-02  0.1166407E+00
         21   -1    0    0  503  502  0.00000000000E+00  0.00000000000E+00  0.37920343393E+02  0.37920343393E+02  0.00000000000E+00 0.  1.
         21   -1    0    0  501  503 -0.00000000000E+00 -0.00000000000E+00 -0.12263549453E+04  0.12263549453E+04  0.00000000000E+00 0.  1.
          6    1    1    2  501    0  0.51830544659E+02  0.17570925285E+02 -0.93581256729E+03  0.95324147197E+03  0.17300000000E+03 0.  1.
         -6    1    1    2    0  502 -0.51830544659E+02 -0.17570925285E+02 -0.25262203462E+03  0.31103381673E+03  0.17300000000E+03 0.  1.
<mgrwt>
<rscale>  2 0.18145011E+03</rscale>
<asrwt>0</asrwt>
<pdfrwt beam="1">  1       21 0.58338984E-02 0.18145011E+03</pdfrwt>
<pdfrwt beam="2">  1       21 0.18867001E+00 0.18145011E+03</pdfrwt>
<totfact> 0.33178484E+04</totfact>
</mgrwt>
</event>
<event>
 4    1  0.4072310E+000  0.1856445E+03  0.7546771E-02  0.1162449E+00
         21   -1    0    0  501  502  0.00000000000E+00  0.00000000000E+00  0.61487296711E+02  0.61487296711E+02  0.00000000000E+00 0. -1.
         21   -1    0    0  502  503 -0.00000000000E+00 -0.00000000000E+00 -0.10373042484E+04  0.10373042484E+04  0.00000000000E+00 0. -1.
          6    1    1    2  501    0  0.27204333161E+02 -0.61602079657E+02 -0.11543071190E+03  0.21860498899E+03  0.17300000000E+03 0. -1.
         -6    1    1    2    0  503 -0.27204333161E+02  0.61602079657E+02 -0.86038623975E+03  0.88018655609E+03  0.17300000000E+03 0. -1.
<mgrwt>
<rscale>  2 0.18564453E+03</rscale>
<asrwt>0</asrwt>
<pdfrwt beam="1">  1       21 0.94595840E-02 0.18564453E+03</pdfrwt>
<pdfrwt beam="2">  1       21 0.15958527E+00 0.18564453E+03</pdfrwt>
<totfact> 0.22790981E+04</totfact>
</mgrwt>
</event>
<event>
 4    1  0.4072310E+000  0.3146385E+03  0.7546771E-02  0.1078144E+00
         21   -1    0    0  503  502  0.00000000000E+00  0.00000000000E+00  0.65217777010E+03  0.65217777010E+03  0.00000000000E+00 0.  1.
         21   -1    0    0  501  503 -0.00000000000E+00 -0.00000000000E+00 -0.17290931286E+03  0.17290931286E+03  0.00000000000E+00 0. -1.
          6    1    1    2  501    0 -0.25009735848E+03  0.80744751589E+02  0.95473214022E+02  0.32880471138E+03  0.17300000000E+03 0. -1.
         -6    1    1    2    0  502  0.25009735848E+03 -0.80744751589E+02  0.38379524322E+03  0.49628237158E+03  0.17300000000E+03 0.  1.
<mgrwt>
<rscale>  2 0.31463853E+03</rscale>
<asrwt>0</asrwt>
<pdfrwt beam="1">  1       21 0.10033504E+00 0.31463853E+03</pdfrwt>
<pdfrwt beam="2">  1       21 0.26601433E-01 0.31463853E+03</pdfrwt>
<totfact> 0.10231983E+04</totfact>
</mgrwt>
</event>
<event>
 4    1  0.4072310E+000  0.2349656E+03  0.7546771E-02  0.1123193E+00
         21   -1    0    0  501  502  0.00000000000E+00  0.00000000000E+00  0.68058639201E+03  0.68058639201E+03  0.00000000000E+00 0.  1.
         21   -1    0    0  502  503 -0.00000000000E+00 -0.00000000000E+00 -0.11734683510E+03  0.11734683510E+03  0.00000000000E+00 0.  1.
          6    1    1    2  501    0 -0.90890719148E+02  0.13045580151E+03  0.50329592324E+03  0.55544182893E+03  0.17300000000E+03 0.  1.
         -6    1    1    2    0  503  0.90890719148E+02 -0.13045580151E+03  0.59943633672E+02  0.24249139818E+03  0.17300000000E+03 0.  1.
<mgrwt>
<rscale>  2 0.23496561E+03</rscale>
<asrwt>0</asrwt>
<pdfrwt beam="1">  1       21 0.10470560E+00 0.23496561E+03</pdfrwt>
<pdfrwt beam="2">  1       21 0.18053360E-01 0.23496561E+03</pdfrwt>
<totfact> 0.20034649E+04</totfact>
</mgrwt>
</event>
<event>
 4    1  0.4072310E+000  0.1866178E+03  0.7546771E-02  0.1161548E+00
         21   -1    0    0  503  502  0.00000000000E+00  0.00000000000E+00  0.87957467657E+02  0.87957467657E+02  0.00000000000E+00 0.  1.
         21   -1    0    0  501  503 -0.00000000000E+00 -0.00000000000E+00 -0.44016133987E+03  0.44016133987E+03  0.00000000000E+00 0.  1.
          6    1    1    2  501    0  0.42391781161E+02  0.55678913891E+02 -0.25979577812E+03  0.31987505512E+03  0.17300000000E+03 0.  1.
         -6    1    1    2    0  502 -0.42391781161E+02 -0.55678913891E+02 -0.92408094099E+02  0.20824375241E+03  0.17300000000E+03 0.  1.
<mgrwt>
<rscale>  2 0.18661780E+03</rscale>
<asrwt>0</asrwt>
<pdfrwt beam="1">  1       21 0.13531918E-01 0.18661780E+03</pdfrwt>
<pdfrwt beam="2">  1       21 0.67717129E-01 0.18661780E+03</pdfrwt>
<totfact> 0.94462423E+04</totfact>
</mgrwt>
</event>
<event>
 4    1  0.4072310E+000  0.1772006E+03  0.7546771E-02  0.1170540E+00
         21   -1    0    0  501  502  0.00000000000E+00  0.00000000000E+00  0.89234352762E+02  0.89234352762E+02  0.00000000000E+00 0.  1.
         21   -1    0    0  502  503 -0.00000000000E+00 -0.00000000000E+00 -0.36424451186E+03  0.36424451186E+03  0.00000000000E+00 0.  1.
          6    1    1    2  501    0 -0.36473845152E+02  0.11861917587E+02 -0.95734800009E+02  0.20140803957E+03  0.17300000000E+03 0. -1.
         -6    1    1    2    0  503  0.36473845152E+02 -0.11861917587E+02 -0.17927535909E+03  0.25207082506E+03  0.17300000000E+03 0. -1.
<mgrwt>
<rscale>  2 0.17720058E+03</rscale>
<asrwt>0</asrwt>
<pdfrwt beam="1">  1       21 0.13728362E-01 0.17720058E+03</pdfrwt>
<pdfrwt beam="2">  1       21 0.56037615E-01 0.17720058E+03</pdfrwt>
<totfact> 0.13884542E+05</totfact>
</mgrwt>
</event>
<event>
 4    1  0.4072310E+000  0.4271345E+03  0.7546771E-02  0.1034769E+00
         21   -1    0    0  501  502  0.00000000000E+00  0.00000000000E+00  0.19958560883E+03  0.19958560883E+03  0.00000000000E+00 0. -1.
         21   -1    0    0  502  503 -0.00000000000E+00 -0.00000000000E+00 -0.99712352225E+03  0.99712352225E+03  0.00000000000E+00 0.  1.
          6    1    1    2  501    0 -0.11740882039E+02 -0.39035499910E+03 -0.22612565552E+03  0.48329771954E+03  0.17300000000E+03 0.  1.
         -6    1    1    2    0  503  0.11740882039E+02  0.39035499910E+03 -0.57141225790E+03  0.71341141154E+03  0.17300000000E+03 0. -1.
<mgrwt>
<rscale>  2 0.42713449E+03</rscale>
<asrwt>0</asrwt>
<pdfrwt beam="1">  1       21 0.30705478E-01 0.42713449E+03</pdfrwt>
<pdfrwt beam="2">  1       21 0.15340362E+00 0.42713449E+03</pdfrwt>
<totfact> 0.24867456E+03</totfact>
</mgrwt>
</event>
<event>
 4    1  0.4072310E+000  0.2427968E+03  0.7546771E-02  0.1117944E+00
         21   -1    0    0  501  502  0.00000000000E+00  0.00000000000E+00  0.18095773828E+03  0.18095773828E+03  0.00000000000E+00 0. -1.
         21   -1    0    0  502  503 -0.00000000000E+00 -0.00000000000E+00 -0.40084079497E+03  0.40084079497E+03  0.00000000000E+00 0.  1.
          6    1    1    2  501    0 -0.16652900425E+03 -0.35907891555E+02  0.15950211329E+02  0.24332014954E+03  0.17300000000E+03 0. -1.
         -6    1    1    2    0  503  0.16652900425E+03  0.35907891555E+02 -0.23583326802E+03  0.33847838371E+03  0.17300000000E+03 0.  1.
<mgrwt>
<rscale>  2 0.24279680E+03</rscale>
<asrwt>0</asrwt>
<pdfrwt beam="1">  1       21 0.27839653E-01 0.24279680E+03</pdfrwt>
<pdfrwt beam="2">  1       21 0.61667814E-01 0.24279680E+03</pdfrwt>
<totfact> 0.29328931E+04</totfact>
</mgrwt>
</event>
<event>
 4    1  0.4072310E+000  0.2028028E+03  0.7546771E-02  0.1147396E+00
         21   -1    0    0  501  502  0.00000000000E+00  0.00000000000E+00  0.30465259310E+03  0.30465259310E+03  0.00000000000E+00 0. -1.
         21   -1    0    0  502  503 -0.00000000000E+00 -0.00000000000E+00 -0.75705627700E+03  0.75705627700E+03  0.00000000000E+00 0. -1.
          6    1    1    2  501    0 -0.92612258294E+02 -0.51214684354E+02  0.25499769904E+03  0.32581098937E+03  0.17300000000E+03 0. -1.
         -6    1    1    2    0  503  0.92612258294E+02  0.51214684354E+02 -0.70740138294E+03  0.73589788073E+03  0.17300000000E+03 0. -1.
<mgrwt>
<rscale>  2 0.20280280E+03</rscale>
<asrwt>0</asrwt>
<pdfrwt beam="1">  1       21 0.46869630E-01 0.20280280E+03</pdfrwt>
<pdfrwt beam="2">  1       21 0.11647020E+00 0.20280280E+03</pdfrwt>
<totfact> 0.24543922E+03</totfact>
</mgrwt>
</event>
<event>
 4    1  0.4072310E+000  0.1876691E+03  0.7546771E-02  0.1160581E+00
         21   -1    0    0  503  502  0.00000000000E+00  0.00000000000E+00  0.26951318678E+03  0.26951318678E+03  0.00000000000E+00 0.  1.
         21   -1    0    0  501  503 -0.00000000000E+00 -0.00000000000E+00 -0.13279487619E+03  0.13279487619E+03  0.00000000000E+00 0.  1.
          6    1    1    2  501    0  0.36900753456E+01  0.72643559883E+02  0.42967727379E+02  0.19252513873E+03  0.17300000000E+03 0.  1.
         -6    1    1    2    0  502 -0.36900753456E+01 -0.72643559883E+02  0.93750583211E+02  0.20978292424E+03  0.17300000000E+03 0.  1.
<mgrwt>
<rscale>  2 0.18766913E+03</rscale>
<asrwt>0</asrwt>
<pdfrwt beam="1">  1       21 0.41463567E-01 0.18766913E+03</pdfrwt>
<pdfrwt beam="2">  1       21 0.20429981E-01 0.18766913E+03</pdfrwt>
<totfact> 0.12445505E+05</totfact>
</mgrwt>
</event>
<event>
 4    1  0.4072310E+000  0.1986313E+03  0.7546771E-02  0.1150899E+00
         21   -1    0    0  501  502  0.00000000000E+00  0.00000000000E+00  0.13699371704E+03  0.13699371704E+03  0.00000000000E+00 0.  1.
         21   -1    0    0  502  503 -0.00000000000E+00 -0.00000000000E+00 -0.32959634914E+03  0.32959634914E+03  0.00000000000E+00 0.  1.
          6    1    1    2  501    0  0.44652635375E+02 -0.86784327232E+02 -0.13424170298E+02  0.19908436816E+03  0.17300000000E+03 0.  1.
         -6    1    1    2    0  503 -0.44652635375E+02  0.86784327232E+02 -0.17917846179E+03  0.26750569801E+03  0.17300000000E+03 0.  1.
<mgrwt>
<rscale>  2 0.19863126E+03</rscale>
<asrwt>0</asrwt>
<pdfrwt beam="1">  1       21 0.21075956E-01 0.19863126E+03</pdfrwt>
<pdfrwt beam="2">  1       21 0.50707131E-01 0.19863126E+03</pdfrwt>
<totfact> 0.77231325E+04</totfact>
</mgrwt>
</event>
<event>
 4    1  0.4072310E+000  0.1776006E+03  0.7546771E-02  0.1170146E+00
         21   -1    0    0  501  502  0.00000000000E+00  0.00000000000E+00  0.22001303069E+03  0.22001303069E+03  0.00000000000E+00 0.  1.
         21   -1    0    0  502  503 -0.00000000000E+00 -0.00000000000E+00 -0.14829491025E+03  0.14829491025E+03  0.00000000000E+00 0. -1.
          6    1    1    2  501    0 -0.13441329276E+01 -0.40139199263E+02  0.69438908914E+02  0.19069274785E+03  0.17300000000E+03 0.  1.
         -6    1    1    2    0  503  0.13441329276E+01  0.40139199263E+02  0.22792115332E+01  0.17761519309E+03  0.17300000000E+03 0. -1.
<mgrwt>
<rscale>  2 0.17760057E+03</rscale>
<asrwt>0</asrwt>
<pdfrwt beam="1">  1       21 0.33848158E-01 0.17760057E+03</pdfrwt>
<pdfrwt beam="2">  1       21 0.22814602E-01 0.17760057E+03</pdfrwt>
<totfact> 0.15227694E+05</totfact>
</mgrwt>
</event>
<event>
 4    1  0.4072310E+000  0.1935761E+03  0.7546771E-02  0.1155275E+00
         21   -1    0    0  501  502  0.00000000000E+00  0.00000000000E+00  0.38489896420E+03  0.38489896420E+03  0.00000000000E+00 0.  1.
         21   -1    0    0  502  503 -0.00000000000E+00 -0.00000000000E+00 -0.97535913345E+02  0.97535913345E+02  0.00000000000E+00 0.  1.
          6    1    1    2  501    0 -0.74063212101E+02 -0.45357792574E+02  0.13328163515E+03  0.23502272869E+03  0.17300000000E+03 0.  1.
         -6    1    1    2    0  503  0.74063212101E+02  0.45357792574E+02  0.15408141570E+03  0.24741214885E+03  0.17300000000E+03 0.  1.
<mgrwt>
<rscale>  2 0.19357605E+03</rscale>
<asrwt>0</asrwt>
<pdfrwt beam="1">  1       21 0.59215224E-01 0.19357605E+03</pdfrwt>
<pdfrwt beam="2">  1       21 0.15005525E-01 0.19357605E+03</pdfrwt>
<totfact> 0.10445828E+05</totfact>
</mgrwt>
</event>
<event>
 4    1  0.4072310E+000  0.2031701E+03  0.7546771E-02  0.1147092E+00
         21   -1    0    0  503  502  0.00000000000E+00  0.00000000000E+00  0.25788134422E+04  0.25788134422E+04  0.00000000000E+00 0. -1.
         21   -1    0    0  501  503 -0.00000000000E+00 -0.00000000000E+00 -0.19649804650E+02  0.19649804650E+02  0.00000000000E+00 0.  1.
          6    1    1    2  501    0 -0.79334323271E+02 -0.71099468143E+02  0.72014832717E+03  0.74825910107E+03  0.17300000000E+03 0.  1.
         -6    1    1    2    0  502  0.79334323271E+02  0.71099468143E+02  0.18390153103E+04  0.18502041457E+04  0.17300000000E+03 0. -1.
<mgrwt>
<rscale>  2 0.20317005E+03</rscale>
<asrwt>0</asrwt>
<pdfrwt beam="1">  1       21 0.39674026E+00 0.20317005E+03</pdfrwt>
<pdfrwt beam="2">  1       21 0.30230489E-02 0.20317005E+03</pdfrwt>
<totfact> 0.56252578E+03</totfact>
</mgrwt>
</event>
<event>
 4    1  0.4072310E+000  0.1782613E+03  0.7546771E-02  0.1169496E+00
         21   -1    0    0  503  502  0.00000000000E+00  0.00000000000E+00  0.84112151994E+03  0.84112151994E+03  0.00000000000E+00 0. -1.
         21   -1    0    0  501  503 -0.00000000000E+00 -0.00000000000E+00 -0.39122052906E+02  0.39122052906E+02  0.00000000000E+00 0. -1.
          6    1    1    2  501    0  0.18055327967E+02  0.39013889812E+02  0.31946519875E+03  0.36583478741E+03  0.17300000000E+03 0. -1.
         -6    1    1    2    0  502 -0.18055327967E+02 -0.39013889812E+02  0.48253426828E+03  0.51440878543E+03  0.17300000000E+03 0. -1.
<mgrwt>
<rscale>  2 0.17826126E+03</rscale>
<asrwt>0</asrwt>
<pdfrwt beam="1">  1       21 0.12940330E+00 0.17826126E+03</pdfrwt>
<pdfrwt beam="2">  1       21 0.60187780E-02 0.17826126E+03</pdfrwt>
<totfact> 0.86341537E+04</totfact>
</mgrwt>
</event>
<event>
 4    1  0.4072310E+000  0.3799623E+03  0.7546771E-02  0.1050948E+00
         21   -1    0    0  501  502  0.00000000000E+00  0.00000000000E+00  0.38952577201E+03  0.38952577201E+03  0.00000000000E+00 0. -1.
         21   -1    0    0  502  503 -0.00000000000E+00 -0.00000000000E+00 -0.18035354224E+04  0.18035354224E+04  0.00000000000E+00 0.  1.
          6    1    1    2  501    0 -0.30781644468E+03  0.14032590698E+03  0.27038235833E+03  0.46634530498E+03  0.17300000000E+03 0. -1.
         -6    1    1    2    0  503  0.30781644468E+03 -0.14032590698E+03 -0.16843920087E+04  0.17267158894E+04  0.17300000000E+03 0.  1.
<mgrwt>
<rscale>  2 0.37996227E+03</rscale>
<asrwt>0</asrwt>
<pdfrwt beam="1">  1       21 0.59927042E-01 0.37996227E+03</pdfrwt>
<pdfrwt beam="2">  1       21 0.27746699E+00 0.37996227E+03</pdfrwt>
<totfact> 0.97567794E+01</totfact>
</mgrwt>
</event>
<event>
 4    1  0.4072310E+000  0.2348961E+03  0.7546771E-02  0.1123240E+00
         21   -1    0    0  501  502  0.00000000000E+00  0.00000000000E+00  0.27800361585E+03  0.27800361585E+03  0.00000000000E+00 0. -1.
         21   -1    0    0  502  503 -0.00000000000E+00 -0.00000000000E+00 -0.19900575408E+03  0.19900575408E+03  0.00000000000E+00 0. -1.
          6    1    1    2  501    0  0.15887255536E+03 -0.25882695846E+01  0.27157594858E+02  0.23646082751E+03  0.17300000000E+03 0. -1.
         -6    1    1    2    0  503 -0.15887255536E+03  0.25882695846E+01  0.51840266919E+02  0.24054854242E+03  0.17300000000E+03 0. -1.
<mgrwt>
<rscale>  2 0.23489612E+03</rscale>
<asrwt>0</asrwt>
<pdfrwt beam="1">  1       21 0.42769787E-01 0.23489612E+03</pdfrwt>
<pdfrwt beam="2">  1       21 0.30616270E-01 0.23489612E+03</pdfrwt>
<totfact> 0.52832363E+04</totfact>
</mgrwt>
</event>
<event>
 4    1  0.4072310E+000  0.1846723E+03  0.7546771E-02  0.1163356E+00
         21   -1    0    0  501  502  0.00000000000E+00  0.00000000000E+00  0.22803936440E+03  0.22803936440E+03  0.00000000000E+00 0. -1.
         21   -1    0    0  502  503 -0.00000000000E+00 -0.00000000000E+00 -0.15646994598E+03  0.15646994598E+03  0.00000000000E+00 0.  1.
          6    1    1    2  501    0 -0.23489525320E+02  0.60192234697E+02  0.76208168665E+02  0.19977874734E+03  0.17300000000E+03 0. -1.
         -6    1    1    2    0  503  0.23489525320E+02 -0.60192234697E+02 -0.46387502430E+01  0.18473056304E+03  0.17300000000E+03 0.  1.
<mgrwt>
<rscale>  2 0.18467231E+03</rscale>
<asrwt>0</asrwt>
<pdfrwt beam="1">  1       21 0.35082979E-01 0.18467231E+03</pdfrwt>
<pdfrwt beam="2">  1       21 0.24072299E-01 0.18467231E+03</pdfrwt>
<totfact> 0.12784779E+05</totfact>
</mgrwt>
</event>
<event>
 4    1  0.4072310E+000  0.1739766E+03  0.7546771E-02  0.1173763E+00
         21   -1    0    0  501  502  0.00000000000E+00  0.00000000000E+00  0.39175207680E+03  0.39175207680E+03  0.00000000000E+00 0. -1.
         21   -1    0    0  502  503 -0.00000000000E+00 -0.00000000000E+00 -0.21678810719E+03  0.21678810719E+03  0.00000000000E+00 0. -1.
          6    1    1    2  501    0 -0.35990563252E+01 -0.18052981349E+02  0.33158212499E+03  0.37445235873E+03  0.17300000000E+03 0. -1.
         -6    1    1    2    0  503  0.35990563252E+01  0.18052981349E+02 -0.15661815538E+03  0.23408782526E+03  0.17300000000E+03 0. -1.
<mgrwt>
<rscale>  2 0.17397662E+03</rscale>
<asrwt>0</asrwt>
<pdfrwt beam="1">  1       21 0.60269550E-01 0.17397662E+03</pdfrwt>
<pdfrwt beam="2">  1       21 0.33352017E-01 0.17397662E+03</pdfrwt>
<totfact> 0.22464662E+04</totfact>
</mgrwt>
</event>
<event>
 4    1  0.4072310E+000  0.1784576E+03  0.7546771E-02  0.1169304E+00
         21   -1    0    0  503  502  0.00000000000E+00  0.00000000000E+00  0.32291990407E+03  0.32291990407E+03  0.00000000000E+00 0. -1.
         21   -1    0    0  501  503 -0.00000000000E+00 -0.00000000000E+00 -0.14589198737E+03  0.14589198737E+03  0.00000000000E+00 0. -1.
          6    1    1    2  501    0  0.30679006269E+02 -0.31255365802E+02 -0.44913228616E+02  0.18402254596E+03  0.17300000000E+03 0. -1.
         -6    1    1    2    0  502 -0.30679006269E+02  0.31255365802E+02  0.22194114532E+03  0.28478934549E+03  0.17300000000E+03 0. -1.
<mgrwt>
<rscale>  2 0.17845756E+03</rscale>
<asrwt>0</asrwt>
<pdfrwt beam="1">  1       21 0.49679985E-01 0.17845756E+03</pdfrwt>
<pdfrwt beam="2">  1       21 0.22444921E-01 0.17845756E+03</pdfrwt>
<totfact> 0.72213140E+04</totfact>
</mgrwt>
</event>
<event>
 4    1  0.4072310E+000  0.1870145E+03  0.7546771E-02  0.1161182E+00
         21   -1    0    0  501  502  0.00000000000E+00  0.00000000000E+00  0.18311346621E+03  0.18311346621E+03  0.00000000000E+00 0. -1.
         21   -1    0    0  502  503 -0.00000000000E+00 -0.00000000000E+00 -0.25401939854E+03  0.25401939854E+03  0.00000000000E+00 0. -1.
          6    1    1    2  501    0  0.28804927543E+02  0.64928298784E+02  0.73412997294E+02  0.20090763053E+03  0.17300000000E+03 0. -1.
         -6    1    1    2    0  503 -0.28804927543E+02 -0.64928298784E+02 -0.14431892963E+03  0.23622523422E+03  0.17300000000E+03 0. -1.
<mgrwt>
<rscale>  2 0.18701446E+03</rscale>
<asrwt>0</asrwt>
<pdfrwt beam="1">  1       21 0.28171302E-01 0.18701446E+03</pdfrwt>
<pdfrwt beam="2">  1       21 0.39079907E-01 0.18701446E+03</pdfrwt>
<totfact> 0.76188476E+04</totfact>
</mgrwt>
</event>
<event>
 4    1  0.4072310E+000  0.1815965E+03  0.7546771E-02  0.1166267E+00
         21   -1    0    0  503  502  0.00000000000E+00  0.00000000000E+00  0.11017034654E+03  0.11017034654E+03  0.00000000000E+00 0.  1.
         21   -1    0    0  501  503 -0.00000000000E+00 -0.00000000000E+00 -0.29967360185E+03  0.29967360185E+03  0.00000000000E+00 0.  1.
          6    1    1    2  501    0 -0.49975803587E+02 -0.23467181111E+02 -0.10169057741E+03  0.20813039919E+03  0.17300000000E+03 0.  1.
         -6    1    1    2    0  502  0.49975803587E+02  0.23467181111E+02 -0.87812677902E+02  0.20171354921E+03  0.17300000000E+03 0.  1.
<mgrwt>
<rscale>  2 0.18159650E+03</rscale>
<asrwt>0</asrwt>
<pdfrwt beam="1">  1       21 0.16949284E-01 0.18159650E+03</pdfrwt>
<pdfrwt beam="2">  1       21 0.46103631E-01 0.18159650E+03</pdfrwt>
<totfact> 0.14193712E+05</totfact>
</mgrwt>
</event>
<event>
 4    1  0.4072310E+000  0.2450515E+03  0.7546771E-02  0.1116473E+00
         21   -1    0    0  501  502  0.00000000000E+00  0.00000000000E+00  0.21903418351E+03  0.21903418351E+03  0.00000000000E+00 0. -1.
         21   -1    0    0  502  503 -0.00000000000E+00 -0.00000000000E+00 -0.28980560059E+03  0.28980560059E+03  0.00000000000E+00 0. -1.
          6    1    1    2  501    0 -0.14555809765E+03 -0.94520357195E+02  0.23730089494E+02  0.24619783684E+03  0.17300000000E+03 0. -1.
         -6    1    1    2    0  503  0.14555809765E+03  0.94520357195E+02 -0.94501506569E+02  0.26264194726E+03  0.17300000000E+03 0. -1.
<mgrwt>
<rscale>  2 0.24505154E+03</rscale>
<asrwt>0</asrwt>
<pdfrwt beam="1">  1       21 0.33697567E-01 0.24505154E+03</pdfrwt>
<pdfrwt beam="2">  1       21 0.44585477E-01 0.24505154E+03</pdfrwt>
<totfact> 0.39965383E+04</totfact>
</mgrwt>
</event>
<event>
 4    1  0.4072310E+000  0.1906998E+03  0.7546771E-02  0.1157832E+00
         21   -1    0    0  503  502  0.00000000000E+00  0.00000000000E+00  0.15195136016E+03  0.15195136016E+03  0.00000000000E+00 0. -1.
         21   -1    0    0  501  503 -0.00000000000E+00 -0.00000000000E+00 -0.89728742882E+03  0.89728742882E+03  0.00000000000E+00 0. -1.
          6    1    1    2  501    0 -0.58323019383E+02  0.55098507752E+02 -0.82190725212E+03  0.84374045253E+03  0.17300000000E+03 0. -1.
         -6    1    1    2    0  502  0.58323019383E+02 -0.55098507752E+02  0.76571183463E+02  0.20549833645E+03  0.17300000000E+03 0. -1.
<mgrwt>
<rscale>  2 0.19069982E+03</rscale>
<asrwt>0</asrwt>
<pdfrwt beam="1">  1       21 0.23377133E-01 0.19069982E+03</pdfrwt>
<pdfrwt beam="2">  1       21 0.13804422E+00 0.19069982E+03</pdfrwt>
<totfact> 0.63959423E+03</totfact>
</mgrwt>
</event>
<event>
 4    1  0.4072310E+000  0.1738362E+03  0.7546771E-02  0.1173905E+00
         21   -1    0    0  503  502  0.00000000000E+00  0.00000000000E+00  0.10624392469E+03  0.10624392469E+03  0.00000000000E+00 0.  1.
         21   -1    0    0  501  503 -0.00000000000E+00 -0.00000000000E+00 -0.31632765117E+03  0.31632765117E+03  0.00000000000E+00 0.  1.
          6    1    1    2  501    0 -0.16753910194E+02  0.30539104105E+01 -0.17213486001E+03  0.24464143130E+03  0.17300000000E+03 0.  1.
         -6    1    1    2    0  502  0.16753910194E+02 -0.30539104105E+01 -0.37948866468E+02  0.17793014456E+03  0.17300000000E+03 0.  1.
<mgrwt>
<rscale>  2 0.17383619E+03</rscale>
<asrwt>0</asrwt>
<pdfrwt beam="1">  1       21 0.16345219E-01 0.17383619E+03</pdfrwt>
<pdfrwt beam="2">  1       21 0.48665792E-01 0.17383619E+03</pdfrwt>
<totfact> 0.13603670E+05</totfact>
</mgrwt>
</event>
<event>
 4    1  0.4072310E+000  0.2527354E+03  0.7546771E-02  0.1111588E+00
         21   -1    0    0  501  502  0.00000000000E+00  0.00000000000E+00  0.48141758438E+03  0.48141758438E+03  0.00000000000E+00 0.  1.
         21   -1    0    0  502  503 -0.00000000000E+00 -0.00000000000E+00 -0.21498594399E+03  0.21498594399E+03  0.00000000000E+00 0. -1.
          6    1    1    2  501    0  0.63897103869E+02 -0.17281014441E+03  0.34866145225E+03  0.43062744244E+03  0.17300000000E+03 0.  1.
         -6    1    1    2    0  503 -0.63897103869E+02  0.17281014441E+03 -0.82229811865E+02  0.26577608593E+03  0.17300000000E+03 0. -1.
<mgrwt>
<rscale>  2 0.25273541E+03</rscale>
<asrwt>0</asrwt>
<pdfrwt beam="1">  1       21 0.74064244E-01 0.25273541E+03</pdfrwt>
<pdfrwt beam="2">  1       21 0.33074761E-01 0.25273541E+03</pdfrwt>
<totfact> 0.13892612E+04</totfact>
</mgrwt>
</event>
<event>
 4    1  0.4072310E+000  0.2009118E+03  0.7546771E-02  0.1148972E+00
         21   -1    0    0  501  502  0.00000000000E+00  0.00000000000E+00  0.10756036424E+03  0.10756036424E+03  0.00000000000E+00 0. -1.
         21   -1    0    0  502  503 -0.00000000000E+00 -0.00000000000E+00 -0.84980890173E+03  0.84980890173E+03  0.00000000000E+00 0. -1.
          6    1    1    2  501    0  0.16594090714E+02 -0.10080276934E+03 -0.13424327384E+02  0.20135981406E+03  0.17300000000E+03 0. -1.
         -6    1    1    2    0  503 -0.16594090714E+02  0.10080276934E+03 -0.72882421010E+03  0.75600945192E+03  0.17300000000E+03 0. -1.
<mgrwt>
<rscale>  2 0.20091183E+03</rscale>
<asrwt>0</asrwt>
<pdfrwt beam="1">  1       21 0.16547749E-01 0.20091183E+03</pdfrwt>
<pdfrwt beam="2">  1       21 0.13073983E+00 0.20091183E+03</pdfrwt>
<totfact> 0.13888542E+04</totfact>
</mgrwt>
</event>
<event>
 4    1  0.4072310E+000  0.2051442E+03  0.7546771E-02  0.1145470E+00
         21   -1    0    0  501  502  0.00000000000E+00  0.00000000000E+00  0.88882762651E+02  0.88882762651E+02  0.00000000000E+00 0. -1.
         21   -1    0    0  502  503 -0.00000000000E+00 -0.00000000000E+00 -0.55967187241E+03  0.55967187241E+03  0.00000000000E+00 0.  1.
          6    1    1    2  501    0 -0.10377683402E+03 -0.37222555845E+02 -0.10813666894E+03  0.23190017058E+03  0.17300000000E+03 0. -1.
         -6    1    1    2    0  503  0.10377683402E+03  0.37222555845E+02 -0.36265244082E+03  0.41665446448E+03  0.17300000000E+03 0.  1.
<mgrwt>
<rscale>  2 0.20514422E+03</rscale>
<asrwt>0</asrwt>
<pdfrwt beam="1">  1       21 0.13674271E-01 0.20514422E+03</pdfrwt>
<pdfrwt beam="2">  1       21 0.86103363E-01 0.20514422E+03</pdfrwt>
<totfact> 0.53647184E+04</totfact>
</mgrwt>
</event>
<event>
 4    1  0.4072310E+000  0.2847960E+03  0.7546771E-02  0.1093098E+00
         21   -1    0    0  503  502  0.00000000000E+00  0.00000000000E+00  0.79958174403E+03  0.79958174403E+03  0.00000000000E+00 0.  1.
         21   -1    0    0  501  503 -0.00000000000E+00 -0.00000000000E+00 -0.10154443756E+03  0.10154443756E+03  0.00000000000E+00 0. -1.
          6    1    1    2  501    0 -0.31142654911E+02 -0.22407568292E+03  0.33450039031E+03  0.43931684209E+03  0.17300000000E+03 0. -1.
         -6    1    1    2    0  502  0.31142654911E+02  0.22407568292E+03  0.36353691616E+03  0.46180933949E+03  0.17300000000E+03 0.  1.
<mgrwt>
<rscale>  2 0.28479603E+03</rscale>
<asrwt>0</asrwt>
<pdfrwt beam="1">  1       21 0.12301257E+00 0.28479603E+03</pdfrwt>
<pdfrwt beam="2">  1       21 0.15622222E-01 0.28479603E+03</pdfrwt>
<totfact> 0.17180752E+04</totfact>
</mgrwt>
</event>
<event>
 4    1  0.4072310E+000  0.1733177E+03  0.7546771E-02  0.1174431E+00
         21   -1    0    0  501  502  0.00000000000E+00  0.00000000000E+00  0.32198657959E+03  0.32198657959E+03  0.00000000000E+00 0. -1.
         21   -1    0    0  502  503 -0.00000000000E+00 -0.00000000000E+00 -0.10744016563E+03  0.10744016563E+03  0.00000000000E+00 0. -1.
          6    1    1    2  501    0  0.42555473732E+01  0.95880605045E+01  0.18518676239E+03  0.25363985797E+03  0.17300000000E+03 0. -1.
         -6    1    1    2    0  503 -0.42555473732E+01 -0.95880605045E+01  0.29359651572E+02  0.17578688725E+03  0.17300000000E+03 0. -1.
<mgrwt>
<rscale>  2 0.17331774E+03</rscale>
<asrwt>0</asrwt>
<pdfrwt beam="1">  1       21 0.49536396E-01 0.17331774E+03</pdfrwt>
<pdfrwt beam="2">  1       21 0.16529256E-01 0.17331774E+03</pdfrwt>
<totfact> 0.12848984E+05</totfact>
</mgrwt>
</event>
<event>
 4    1  0.4072310E+000  0.2617371E+03  0.7546771E-02  0.1106104E+00
         21   -1    0    0  501  502  0.00000000000E+00  0.00000000000E+00  0.15221279340E+03  0.15221279340E+03  0.00000000000E+00 0. -1.
         21   -1    0    0  502  503 -0.00000000000E+00 -0.00000000000E+00 -0.68261578545E+03  0.68261578545E+03  0.00000000000E+00 0.  1.
          6    1    1    2  501    0  0.27258138985E+02  0.19451043659E+03 -0.21569696427E+02  0.26262438555E+03  0.17300000000E+03 0. -1.
         -6    1    1    2    0  503 -0.27258138985E+02 -0.19451043659E+03 -0.50883329562E+03  0.57220419329E+03  0.17300000000E+03 0.  1.
<mgrwt>
<rscale>  2 0.26173711E+03</rscale>
<asrwt>0</asrwt>
<pdfrwt beam="1">  1       21 0.23417352E-01 0.26173711E+03</pdfrwt>
<pdfrwt beam="2">  1       21 0.10501781E+00 0.26173711E+03</pdfrwt>
<totfact> 0.12013912E+04</totfact>
</mgrwt>
</event>
<event>
 4    1  0.4072310E+000  0.1918669E+03  0.7546771E-02  0.1156788E+00
         21   -1    0    0  501  502  0.00000000000E+00  0.00000000000E+00  0.64593829220E+02  0.64593829220E+02  0.00000000000E+00 0. -1.
         21   -1    0    0  502  503 -0.00000000000E+00 -0.00000000000E+00 -0.60877545960E+03  0.60877545960E+03  0.00000000000E+00 0. -1.
          6    1    1    2  501    0  0.61846218137E+02 -0.55307759381E+02 -0.18702473396E+03  0.26793871325E+03  0.17300000000E+03 0. -1.
         -6    1    1    2    0  503 -0.61846218137E+02  0.55307759381E+02 -0.35715689641E+03  0.40543057556E+03  0.17300000000E+03 0. -1.
<mgrwt>
<rscale>  2 0.19186689E+03</rscale>
<asrwt>0</asrwt>
<pdfrwt beam="1">  1       21 0.99375121E-02 0.19186689E+03</pdfrwt>
<pdfrwt beam="2">  1       21 0.93657764E-01 0.19186689E+03</pdfrwt>
<totfact> 0.78606250E+04</totfact>
</mgrwt>
</event>
<event>
 4    1  0.4072310E+000  0.3943842E+03  0.7546771E-02  0.1045742E+00
         21   -1    0    0  503  502  0.00000000000E+00  0.00000000000E+00  0.27358301392E+03  0.27358301392E+03  0.00000000000E+00 0. -1.
         21   -1    0    0  501  503 -0.00000000000E+00 -0.00000000000E+00 -0.11453106946E+04  0.11453106946E+04  0.00000000000E+00 0.  1.
          6    1    1    2  501    0 -0.35411056923E+03 -0.14684338604E+02 -0.93932416798E+03  0.10187584687E+04  0.17300000000E+03 0.  1.
         -6    1    1    2    0  502  0.35411056923E+03  0.14684338604E+02  0.67596487299E+02  0.40013523980E+03  0.17300000000E+03 0. -1.
<mgrwt>
<rscale>  2 0.39438424E+03</rscale>
<asrwt>0</asrwt>
<pdfrwt beam="1">  1       21 0.42089695E-01 0.39438424E+03</pdfrwt>
<pdfrwt beam="2">  1       21 0.17620164E+00 0.39438424E+03</pdfrwt>
<totfact> 0.90307761E+02</totfact>
</mgrwt>
</event>
<event>
 4    1  0.4072310E+000  0.2001897E+03  0.7546771E-02  0.1149579E+00
         21   -1    0    0  501  502  0.00000000000E+00  0.00000000000E+00  0.78674325093E+02  0.78674325093E+02  0.00000000000E+00 0. -1.
         21   -1    0    0  502  503 -0.00000000000E+00 -0.00000000000E+00 -0.13411509097E+04  0.13411509097E+04  0.00000000000E+00 0. -1.
          6    1    1    2  501    0 -0.39162954915E+02  0.92807304143E+02 -0.72169483469E+02  0.21280123845E+03  0.17300000000E+03 0. -1.
         -6    1    1    2    0  503  0.39162954915E+02 -0.92807304143E+02 -0.11903071011E+04  0.12070239964E+04  0.17300000000E+03 0. -1.
<mgrwt>
<rscale>  2 0.20018974E+03</rscale>
<asrwt>0</asrwt>
<pdfrwt beam="1">  1       21 0.12103743E-01 0.20018974E+03</pdfrwt>
<pdfrwt beam="2">  1       21 0.20633091E+00 0.20018974E+03</pdfrwt>
<totfact> 0.70236837E+03</totfact>
</mgrwt>
</event>
<event>
 4    1  0.4072310E+000  0.2113323E+03  0.7546771E-02  0.1140515E+00
         21   -1    0    0  501  502  0.00000000000E+00  0.00000000000E+00  0.47912669271E+02  0.47912669271E+02  0.00000000000E+00 0. -1.
         21   -1    0    0  502  503 -0.00000000000E+00 -0.00000000000E+00 -0.10059634881E+04  0.10059634881E+04  0.00000000000E+00 0. -1.
          6    1    1    2  501    0  0.85535821169E+02 -0.86115939256E+02 -0.33627914134E+03  0.39717123838E+03  0.17300000000E+03 0. -1.
         -6    1    1    2    0  503 -0.85535821169E+02  0.86115939256E+02 -0.62177167747E+03  0.65670491897E+03  0.17300000000E+03 0. -1.
<mgrwt>
<rscale>  2 0.21133228E+03</rscale>
<asrwt>0</asrwt>
<pdfrwt beam="1">  1       21 0.73711804E-02 0.21133228E+03</pdfrwt>
<pdfrwt beam="2">  1       21 0.15476360E+00 0.21133228E+03</pdfrwt>
<totfact> 0.37644128E+04</totfact>
</mgrwt>
</event>
<event>
 4    1  0.4072310E+000  0.1994458E+03  0.7546771E-02  0.1150207E+00
         21   -1    0    0  503  502  0.00000000000E+00  0.00000000000E+00  0.80110470174E+02  0.80110470174E+02  0.00000000000E+00 0.  1.
         21   -1    0    0  501  503 -0.00000000000E+00 -0.00000000000E+00 -0.50251597552E+03  0.50251597552E+03  0.00000000000E+00 0. -1.
          6    1    1    2  501    0  0.67217784286E+02  0.73016469776E+02 -0.24295140417E+03  0.31433106778E+03  0.17300000000E+03 0. -1.
         -6    1    1    2    0  502 -0.67217784286E+02 -0.73016469776E+02 -0.17945410118E+03  0.26829537792E+03  0.17300000000E+03 0.  1.
<mgrwt>
<rscale>  2 0.19944582E+03</rscale>
<asrwt>0</asrwt>
<pdfrwt beam="1">  1       21 0.12324688E-01 0.19944582E+03</pdfrwt>
<pdfrwt beam="2">  1       21 0.77310151E-01 0.19944582E+03</pdfrwt>
<totfact> 0.82855907E+04</totfact>
</mgrwt>
</event>
<event>
 4    1  0.4072310E+000  0.1979952E+03  0.7546771E-02  0.1151442E+00
         21   -1    0    0  503  502  0.00000000000E+00  0.00000000000E+00  0.46807718807E+02  0.46807718807E+02  0.00000000000E+00 0. -1.
         21   -1    0    0  501  503 -0.00000000000E+00 -0.00000000000E+00 -0.21372190195E+04  0.21372190195E+04  0.00000000000E+00 0.  1.
          6    1    1    2  501    0  0.42791014115E+01  0.96201865729E+02 -0.18967864763E+04  0.19070923015E+04  0.17300000000E+03 0.  1.
         -6    1    1    2    0  502 -0.42791014115E+01 -0.96201865729E+02 -0.19362482438E+03  0.27693443682E+03  0.17300000000E+03 0. -1.
<mgrwt>
<rscale>  2 0.19799523E+03</rscale>
<asrwt>0</asrwt>
<pdfrwt beam="1">  1       21 0.72011875E-02 0.19799523E+03</pdfrwt>
<pdfrwt beam="2">  1       21 0.32880293E+00 0.19799523E+03</pdfrwt>
<totfact> 0.33292486E+03</totfact>
</mgrwt>
</event>
<event>
 4    1  0.4072310E+000  0.1926708E+03  0.7546771E-02  0.1156074E+00
         21   -1    0    0  501  502  0.00000000000E+00  0.00000000000E+00  0.53183055926E+03  0.53183055926E+03  0.00000000000E+00 0. -1.
         21   -1    0    0  502  503 -0.00000000000E+00 -0.00000000000E+00 -0.79557211342E+02  0.79557211342E+02  0.00000000000E+00 0. -1.
          6    1    1    2  501    0  0.77090003934E+02 -0.35357858699E+02  0.33318955812E+03  0.38488612409E+03  0.17300000000E+03 0. -1.
         -6    1    1    2    0  503 -0.77090003934E+02  0.35357858699E+02  0.11908378980E+03  0.22650164651E+03  0.17300000000E+03 0. -1.
<mgrwt>
<rscale>  2 0.19267083E+03</rscale>
<asrwt>0</asrwt>
<pdfrwt beam="1">  1       21 0.81820084E-01 0.19267083E+03</pdfrwt>
<pdfrwt beam="2">  1       21 0.12239571E-01 0.19267083E+03</pdfrwt>
<totfact> 0.74035852E+04</totfact>
</mgrwt>
</event>
<event>
 4    1  0.4072310E+000  0.3194025E+03  0.7546771E-02  0.1075925E+00
         21   -1    0    0  501  502  0.00000000000E+00  0.00000000000E+00  0.28809931020E+03  0.28809931020E+03  0.00000000000E+00 0. -1.
         21   -1    0    0  502  503 -0.00000000000E+00 -0.00000000000E+00 -0.40005673686E+03  0.40005673686E+03  0.00000000000E+00 0. -1.
          6    1    1    2  501    0 -0.12188219970E+03 -0.23923557638E+03  0.60632009881E+02  0.32510640140E+03  0.17300000000E+03 0. -1.
         -6    1    1    2    0  503  0.12188219970E+03  0.23923557638E+03 -0.17258943655E+03  0.36304964566E+03  0.17300000000E+03 0. -1.
<mgrwt>
<rscale>  2 0.31940246E+03</rscale>
<asrwt>0</asrwt>
<pdfrwt beam="1">  1       21 0.44322971E-01 0.31940246E+03</pdfrwt>
<pdfrwt beam="2">  1       21 0.61547190E-01 0.31940246E+03</pdfrwt>
<totfact> 0.11210203E+04</totfact>
</mgrwt>
</event>
<event>
 4    1  0.4072310E+000  0.2288324E+03  0.7546771E-02  0.1127464E+00
         21   -1    0    0  501  502  0.00000000000E+00  0.00000000000E+00  0.28928132734E+03  0.28928132734E+03  0.00000000000E+00 0.  1.
         21   -1    0    0  502  503 -0.00000000000E+00 -0.00000000000E+00 -0.82692637582E+03  0.82692637582E+03  0.00000000000E+00 0. -1.
          6    1    1    2  501    0 -0.10827885574E+03  0.10349383490E+03  0.22442854469E+03  0.32051904176E+03  0.17300000000E+03 0.  1.
         -6    1    1    2    0  503  0.10827885574E+03 -0.10349383490E+03 -0.76207359317E+03  0.79568866139E+03  0.17300000000E+03 0. -1.
<mgrwt>
<rscale>  2 0.22883244E+03</rscale>
<asrwt>0</asrwt>
<pdfrwt beam="1">  1       21 0.44504820E-01 0.22883244E+03</pdfrwt>
<pdfrwt beam="2">  1       21 0.12721944E+00 0.22883244E+03</pdfrwt>
<totfact> 0.21440625E+03</totfact>
</mgrwt>
</event>
<event>
 4    1  0.4072310E+000  0.2399842E+03  0.7546771E-02  0.1119803E+00
         21   -1    0    0  503  502  0.00000000000E+00  0.00000000000E+00  0.19116784428E+04  0.19116784428E+04  0.00000000000E+00 0.  1.
         21   -1    0    0  501  503 -0.00000000000E+00 -0.00000000000E+00 -0.34071611496E+02  0.34071611496E+02  0.00000000000E+00 0.  1.
          6    1    1    2  501    0  0.16567674983E+03 -0.14650161998E+02  0.60776097375E+03  0.65342621152E+03  0.17300000000E+03 0.  1.
         -6    1    1    2    0  502 -0.16567674983E+03  0.14650161998E+02  0.12698458575E+04  0.12923238428E+04  0.17300000000E+03 0.  1.
<mgrwt>
<rscale>  2 0.23998419E+03</rscale>
<asrwt>0</asrwt>
<pdfrwt beam="1">  1       21 0.29410429E+00 0.23998419E+03</pdfrwt>
<pdfrwt beam="2">  1       21 0.52417879E-02 0.23998419E+03</pdfrwt>
<totfact> 0.87484402E+03</totfact>
</mgrwt>
</event>
<event>
 4    1  0.4072310E+000  0.1911082E+03  0.7546771E-02  0.1157466E+00
         21   -1    0    0  501  502  0.00000000000E+00  0.00000000000E+00  0.33773912384E+02  0.33773912384E+02  0.00000000000E+00 0.  1.
         21   -1    0    0  502  503 -0.00000000000E+00 -0.00000000000E+00 -0.10834824355E+04  0.10834824355E+04  0.00000000000E+00 0. -1.
          6    1    1    2  501    0 -0.50722425953E+02  0.63408110262E+02 -0.54947602010E+03  0.58176133389E+03  0.17300000000E+03 0. -1.
         -6    1    1    2    0  503  0.50722425953E+02 -0.63408110262E+02 -0.50023250303E+03  0.53549501401E+03  0.17300000000E+03 0.  1.
<mgrwt>
<rscale>  2 0.19110822E+03</rscale>
<asrwt>0</asrwt>
<pdfrwt beam="1">  1       21 0.51959866E-02 0.19110822E+03</pdfrwt>
<pdfrwt beam="2">  1       21 0.16668960E+00 0.19110822E+03</pdfrwt>
<totfact> 0.56802127E+04</totfact>
</mgrwt>
</event>
<event>
 4    1  0.4072310E+000  0.1951811E+03  0.7546771E-02  0.1153870E+00
         21   -1    0    0  503  502  0.00000000000E+00  0.00000000000E+00  0.50204249743E+02  0.50204249743E+02  0.00000000000E+00 0.  1.
         21   -1    0    0  501  503 -0.00000000000E+00 -0.00000000000E+00 -0.76008870400E+03  0.76008870400E+03  0.00000000000E+00 0. -1.
          6    1    1    2  501    0  0.84326142077E+01  0.89975394575E+02 -0.33834986592E+03  0.39061017956E+03  0.17300000000E+03 0.  1.
         -6    1    1    2    0  502 -0.84326142077E+01 -0.89975394575E+02 -0.37153458834E+03  0.41968277418E+03  0.17300000000E+03 0.  1.
<mgrwt>
<rscale>  2 0.19518115E+03</rscale>
<asrwt>0</asrwt>
<pdfrwt beam="1">  1       21 0.77237308E-02 0.19518115E+03</pdfrwt>
<pdfrwt beam="2">  1       21 0.11693672E+00 0.19518115E+03</pdfrwt>
<totfact> 0.71711664E+04</totfact>
</mgrwt>
</event>
<event>
 4    1  0.4072310E+000  0.1801177E+03  0.7546771E-02  0.1167689E+00
         21   -1    0    0  501  502  0.00000000000E+00  0.00000000000E+00  0.11938228685E+03  0.11938228685E+03  0.00000000000E+00 0.  1.
         21   -1    0    0  502  503 -0.00000000000E+00 -0.00000000000E+00 -0.29597797668E+03  0.29597797668E+03  0.00000000000E+00 0. -1.
          6    1    1    2  501    0 -0.42745073311E+02 -0.26196187858E+02 -0.28881569502E+02  0.18241854787E+03  0.17300000000E+03 0.  1.
         -6    1    1    2    0  503  0.42745073311E+02  0.26196187858E+02 -0.14771412033E+03  0.23294171566E+03  0.17300000000E+03 0. -1.
<mgrwt>
<rscale>  2 0.18011769E+03</rscale>
<asrwt>0</asrwt>
<pdfrwt beam="1">  1       21 0.18366506E-01 0.18011769E+03</pdfrwt>
<pdfrwt beam="2">  1       21 0.45535073E-01 0.18011769E+03</pdfrwt>
<totfact> 0.12563907E+05</totfact>
</mgrwt>
</event>
<event>
 4    1  0.4072310E+000  0.1949619E+03  0.7546771E-02  0.1154061E+00
         21   -1    0    0  501  502  0.00000000000E+00  0.00000000000E+00  0.10513036223E+04  0.10513036223E+04  0.00000000000E+00 0. -1.
         21   -1    0    0  502  503 -0.00000000000E+00 -0.00000000000E+00 -0.42109128276E+02  0.42109128276E+02  0.00000000000E+00 0. -1.
          6    1    1    2  501    0  0.65269091346E+02 -0.61814900393E+02  0.71017035607E+03  0.73644556543E+03  0.17300000000E+03 0. -1.
         -6    1    1    2    0  503 -0.65269091346E+02  0.61814900393E+02  0.29902413796E+03  0.35696718515E+03  0.17300000000E+03 0. -1.
<mgrwt>
<rscale>  2 0.19496188E+03</rscale>
<asrwt>0</asrwt>
<pdfrwt beam="1">  1       21 0.16173900E+00 0.19496188E+03</pdfrwt>
<pdfrwt beam="2">  1       21 0.64783282E-02 0.19496188E+03</pdfrwt>
<totfact> 0.42198563E+04</totfact>
</mgrwt>
</event>
<event>
 4    1  0.4072310E+000  0.2005014E+03  0.7546771E-02  0.1149317E+00
         21   -1    0    0  503  502  0.00000000000E+00  0.00000000000E+00  0.45457642028E+03  0.45457642028E+03  0.00000000000E+00 0. -1.
         21   -1    0    0  501  503 -0.00000000000E+00 -0.00000000000E+00 -0.17893547218E+03  0.17893547218E+03  0.00000000000E+00 0. -1.
          6    1    1    2  501    0 -0.33635630863E+02  0.95605749022E+02 -0.87447853089E+02  0.21874172423E+03  0.17300000000E+03 0. -1.
         -6    1    1    2    0  502  0.33635630863E+02 -0.95605749022E+02  0.36308880118E+03  0.41477016823E+03  0.17300000000E+03 0. -1.
<mgrwt>
<rscale>  2 0.20050141E+03</rscale>
<asrwt>0</asrwt>
<pdfrwt beam="1">  1       21 0.69934833E-01 0.20050141E+03</pdfrwt>
<pdfrwt beam="2">  1       21 0.27528534E-01 0.20050141E+03</pdfrwt>
<totfact> 0.23268248E+04</totfact>
</mgrwt>
</event>
<event>
 4    1  0.4072310E+000  0.3983024E+03  0.7546771E-02  0.1044369E+00
         21   -1    0    0  501  502  0.00000000000E+00  0.00000000000E+00  0.25752720545E+03  0.25752720545E+03  0.00000000000E+00 0.  1.
         21   -1    0    0  502  503 -0.00000000000E+00 -0.00000000000E+00 -0.61824352889E+03  0.61824352889E+03  0.00000000000E+00 0.  1.
          6    1    1    2  501    0 -0.14695612399E+03  0.32729150213E+03 -0.15416477606E+03  0.42709671963E+03  0.17300000000E+03 0.  1.
         -6    1    1    2    0  503  0.14695612399E+03 -0.32729150213E+03 -0.20655154738E+03  0.44867401471E+03  0.17300000000E+03 0.  1.
<mgrwt>
<rscale>  2 0.39830244E+03</rscale>
<asrwt>0</asrwt>
<pdfrwt beam="1">  1       21 0.39619570E-01 0.39830244E+03</pdfrwt>
<pdfrwt beam="2">  1       21 0.95114388E-01 0.39830244E+03</pdfrwt>
<totfact> 0.50757351E+03</totfact>
</mgrwt>
</event>
<event>
 4    1  0.4072310E+000  0.1995752E+03  0.7546771E-02  0.1150098E+00
         21   -1    0    0  501  502  0.00000000000E+00  0.00000000000E+00  0.72601122555E+02  0.72601122555E+02  0.00000000000E+00 0.  1.
         21   -1    0    0  502  503 -0.00000000000E+00 -0.00000000000E+00 -0.57913360366E+03  0.57913360366E+03  0.00000000000E+00 0.  1.
          6    1    1    2  501    0  0.48475467196E+02 -0.86898634056E+02 -0.17846370795E+03  0.26773034676E+03  0.17300000000E+03 0.  1.
         -6    1    1    2    0  503 -0.48475467196E+02  0.86898634056E+02 -0.32806877315E+03  0.38400437945E+03  0.17300000000E+03 0.  1.
<mgrwt>
<rscale>  2 0.19957516E+03</rscale>
<asrwt>0</asrwt>
<pdfrwt beam="1">  1       21 0.11169403E-01 0.19957516E+03</pdfrwt>
<pdfrwt beam="2">  1       21 0.89097477E-01 0.19957516E+03</pdfrwt>
<totfact> 0.71490923E+04</totfact>
</mgrwt>
</event>
<event>
 4    1  0.4072310E+000  0.2215730E+03  0.7546771E-02  0.1132716E+00
         21   -1    0    0  501  502  0.00000000000E+00  0.00000000000E+00  0.86410710842E+02  0.86410710842E+02  0.00000000000E+00 0. -1.
         21   -1    0    0  502  503 -0.00000000000E+00 -0.00000000000E+00 -0.10868015293E+04  0.10868015293E+04  0.00000000000E+00 0.  1.
          6    1    1    2  501    0  0.59128237815E+02 -0.12517760677E+03 -0.94959734938E+02  0.24106416781E+03  0.17300000000E+03 0. -1.
         -6    1    1    2    0  503 -0.59128237815E+02  0.12517760677E+03 -0.90543108357E+03  0.93214807238E+03  0.17300000000E+03 0.  1.
<mgrwt>
<rscale>  2 0.22157297E+03</rscale>
<asrwt>0</asrwt>
<pdfrwt beam="1">  1       21 0.13293956E-01 0.22157297E+03</pdfrwt>
<pdfrwt beam="2">  1       21 0.16720022E+00 0.22157297E+03</pdfrwt>
<totfact> 0.10671069E+04</totfact>
</mgrwt>
</event>
<event>
 4    1  0.4072310E+000  0.1886067E+03  0.7546771E-02  0.1159724E+00
         21   -1    0    0  501  502  0.00000000000E+00  0.00000000000E+00  0.38852185370E+03  0.38852185370E+03  0.00000000000E+00 0.  1.
         21   -1    0    0  502  503 -0.00000000000E+00 -0.00000000000E+00 -0.18826087886E+03  0.18826087886E+03  0.00000000000E+00 0.  1.
          6    1    1    2  501    0  0.10515335930E+02 -0.74383604914E+02  0.30682107832E+03  0.36015505976E+03  0.17300000000E+03 0.  1.
         -6    1    1    2    0  503 -0.10515335930E+02  0.74383604914E+02 -0.10656010348E+03  0.21662767280E+03  0.17300000000E+03 0.  1.
<mgrwt>
<rscale>  2 0.18860672E+03</rscale>
<asrwt>0</asrwt>
<pdfrwt beam="1">  1       21 0.59772593E-01 0.18860672E+03</pdfrwt>
<pdfrwt beam="2">  1       21 0.28963212E-01 0.18860672E+03</pdfrwt>
<totfact> 0.29874873E+04</totfact>
</mgrwt>
</event>
<event>
 4    1  0.4072310E+000  0.1883843E+03  0.7546771E-02  0.1159927E+00
         21   -1    0    0  501  502  0.00000000000E+00  0.00000000000E+00  0.39898351575E+03  0.39898351575E+03  0.00000000000E+00 0.  1.
         21   -1    0    0  502  503 -0.00000000000E+00 -0.00000000000E+00 -0.14733859967E+03  0.14733859967E+03  0.00000000000E+00 0. -1.
          6    1    1    2  501    0 -0.60540947591E+02 -0.43525358109E+02  0.29778471141E+03  0.35236968866E+03  0.17300000000E+03 0.  1.
         -6    1    1    2    0  503  0.60540947591E+02  0.43525358109E+02 -0.46139795329E+02  0.19395242676E+03  0.17300000000E+03 0. -1.
<mgrwt>
<rscale>  2 0.18838435E+03</rscale>
<asrwt>0</asrwt>
<pdfrwt beam="1">  1       21 0.61382079E-01 0.18838435E+03</pdfrwt>
<pdfrwt beam="2">  1       21 0.22667477E-01 0.18838435E+03</pdfrwt>
<totfact> 0.45107978E+04</totfact>
</mgrwt>
</event>
<event>
 4    1  0.4072310E+000  0.1933964E+03  0.7546771E-02  0.1155433E+00
         21   -1    0    0  501  502  0.00000000000E+00  0.00000000000E+00  0.33646009161E+03  0.33646009161E+03  0.00000000000E+00 0. -1.
         21   -1    0    0  502  503 -0.00000000000E+00 -0.00000000000E+00 -0.11630621454E+03  0.11630621454E+03  0.00000000000E+00 0.  1.
          6    1    1    2  501    0  0.58676652723E+01 -0.86248214639E+02  0.15767902327E+03  0.24952927364E+03  0.17300000000E+03 0.  1.
         -6    1    1    2    0  503 -0.58676652723E+01  0.86248214639E+02  0.62474853801E+02  0.20323703251E+03  0.17300000000E+03 0.  1.
<mgrwt>
<rscale>  2 0.19339644E+03</rscale>
<asrwt>0</asrwt>
<pdfrwt beam="1">  1       21 0.51763091E-01 0.19339644E+03</pdfrwt>
<pdfrwt beam="2">  1       21 0.17893264E-01 0.19339644E+03</pdfrwt>
<totfact> 0.10058128E+05</totfact>
</mgrwt>
</event>
<event>
 4    1  0.4072310E+000  0.1751285E+03  0.7546771E-02  0.1172603E+00
         21   -1    0    0  501  502  0.00000000000E+00  0.00000000000E+00  0.22098803071E+03  0.22098803071E+03  0.00000000000E+00 0. -1.
         21   -1    0    0  502  503 -0.00000000000E+00 -0.00000000000E+00 -0.14108680143E+03  0.14108680143E+03  0.00000000000E+00 0. -1.
          6    1    1    2  501    0  0.27209211903E+02 -0.81500064370E+00  0.16830949418E+02  0.17593546060E+03  0.17300000000E+03 0.  1.
         -6    1    1    2    0  503 -0.27209211903E+02  0.81500064370E+00  0.63070279862E+02  0.18613937155E+03  0.17300000000E+03 0.  1.
<mgrwt>
<rscale>  2 0.17512854E+03</rscale>
<asrwt>0</asrwt>
<pdfrwt beam="1">  1       21 0.33998159E-01 0.17512854E+03</pdfrwt>
<pdfrwt beam="2">  1       21 0.21705662E-01 0.17512854E+03</pdfrwt>
<totfact> 0.16593550E+05</totfact>
</mgrwt>
</event>
<event>
 4    1  0.4072310E+000  0.2368088E+03  0.7546771E-02  0.1121937E+00
         21   -1    0    0  503  502  0.00000000000E+00  0.00000000000E+00  0.22630377328E+03  0.22630377328E+03  0.00000000000E+00 0. -1.
         21   -1    0    0  501  503 -0.00000000000E+00 -0.00000000000E+00 -0.25015061080E+03  0.25015061080E+03  0.00000000000E+00 0. -1.
          6    1    1    2  501    0 -0.39106911737E+02  0.15690780660E+03 -0.35009169208E+02  0.23938264817E+03  0.17300000000E+03 0. -1.
         -6    1    1    2    0  502  0.39106911737E+02 -0.15690780660E+03  0.11162331685E+02  0.23707173591E+03  0.17300000000E+03 0. -1.
<mgrwt>
<rscale>  2 0.23680881E+03</rscale>
<asrwt>0</asrwt>
<pdfrwt beam="1">  1       21 0.34815965E-01 0.23680881E+03</pdfrwt>
<pdfrwt beam="2">  1       21 0.38484709E-01 0.23680881E+03</pdfrwt>
<totfact> 0.50746049E+04</totfact>
</mgrwt>
</event>
<event>
 4    1  0.4072310E+000  0.1840718E+03  0.7546771E-02  0.1163920E+00
         21   -1    0    0  501  502  0.00000000000E+00  0.00000000000E+00  0.14631424483E+04  0.14631424483E+04  0.00000000000E+00 0.  1.
         21   -1    0    0  502  503 -0.00000000000E+00 -0.00000000000E+00 -0.29159049391E+02  0.29159049391E+02  0.00000000000E+00 0.  1.
          6    1    1    2  501    0 -0.10799796500E+02  0.61941769479E+02  0.10555076051E+04  0.10714376896E+04  0.17300000000E+03 0.  1.
         -6    1    1    2    0  503  0.10799796500E+02 -0.61941769479E+02  0.37847579386E+03  0.42086380807E+03  0.17300000000E+03 0.  1.
<mgrwt>
<rscale>  2 0.18407178E+03</rscale>
<asrwt>0</asrwt>
<pdfrwt beam="1">  1       21 0.22509878E+00 0.18407178E+03</pdfrwt>
<pdfrwt beam="2">  1       21 0.44860087E-02 0.18407178E+03</pdfrwt>
<totfact> 0.30459742E+04</totfact>
</mgrwt>
</event>
<event>
 4    1  0.4072310E+000  0.1740163E+03  0.7546771E-02  0.1173723E+00
         21   -1    0    0  503  502  0.00000000000E+00  0.00000000000E+00  0.26005542959E+03  0.26005542959E+03  0.00000000000E+00 0. -1.
         21   -1    0    0  501  503 -0.00000000000E+00 -0.00000000000E+00 -0.13491274336E+03  0.13491274336E+03  0.00000000000E+00 0. -1.
          6    1    1    2  501    0  0.16722802497E+02 -0.85448935881E+01 -0.10497891760E+02  0.17433265059E+03  0.17300000000E+03 0. -1.
         -6    1    1    2    0  502 -0.16722802497E+02  0.85448935881E+01  0.13564057799E+03  0.22063552236E+03  0.17300000000E+03 0. -1.
<mgrwt>
<rscale>  2 0.17401628E+03</rscale>
<asrwt>0</asrwt>
<pdfrwt beam="1">  1       21 0.40008527E-01 0.17401628E+03</pdfrwt>
<pdfrwt beam="2">  1       21 0.20755807E-01 0.17401628E+03</pdfrwt>
<totfact> 0.13049798E+05</totfact>
</mgrwt>
</event>
<event>
 4    1  0.4072310E+000  0.2031399E+03  0.7546771E-02  0.1147117E+00
         21   -1    0    0  503  502  0.00000000000E+00  0.00000000000E+00  0.53929799043E+03  0.53929799043E+03  0.00000000000E+00 0.  1.
         21   -1    0    0  501  503 -0.00000000000E+00 -0.00000000000E+00 -0.21157230796E+03  0.21157230796E+03  0.00000000000E+00 0.  1.
          6    1    1    2  501    0  0.68977313379E+02 -0.81110761830E+02 -0.13609503518E+03  0.24451520207E+03  0.17300000000E+03 0.  1.
         -6    1    1    2    0  502 -0.68977313379E+02  0.81110761830E+02  0.46382071765E+03  0.50635509632E+03  0.17300000000E+03 0.  1.
<mgrwt>
<rscale>  2 0.20313992E+03</rscale>
<asrwt>0</asrwt>
<pdfrwt beam="1">  1       21 0.82968921E-01 0.20313992E+03</pdfrwt>
<pdfrwt beam="2">  1       21 0.32549586E-01 0.20313992E+03</pdfrwt>
<totfact> 0.11419913E+04</totfact>
</mgrwt>
</event>
<event>
 4    1  0.4072310E+000  0.2220246E+03  0.7546771E-02  0.1132383E+00
         21   -1    0    0  501  502  0.00000000000E+00  0.00000000000E+00  0.11080906563E+04  0.11080906563E+04  0.00000000000E+00 0. -1.
         21   -1    0    0  502  503 -0.00000000000E+00 -0.00000000000E+00 -0.44725460639E+02  0.44725460639E+02  0.00000000000E+00 0.  1.
          6    1    1    2  501    0  0.98371103166E+02 -0.98433058999E+02  0.48953958021E+03  0.53753506084E+03  0.17300000000E+03 0.  1.
         -6    1    1    2    0  503 -0.98371103166E+02  0.98433058999E+02  0.57382561541E+03  0.61528105606E+03  0.17300000000E+03 0. -1.
<mgrwt>
<rscale>  2 0.22202464E+03</rscale>
<asrwt>0</asrwt>
<pdfrwt beam="1">  1       21 0.17047546E+00 0.22202464E+03</pdfrwt>
<pdfrwt beam="2">  1       21 0.68808410E-02 0.22202464E+03</pdfrwt>
<totfact> 0.32391032E+04</totfact>
</mgrwt>
</event>
<event>
 4    1  0.4072310E+000  0.1793276E+03  0.7546771E-02  0.1168455E+00
         21   -1    0    0  501  502  0.00000000000E+00  0.00000000000E+00  0.10513394825E+04  0.10513394825E+04  0.00000000000E+00 0.  1.
         21   -1    0    0  502  503 -0.00000000000E+00 -0.00000000000E+00 -0.30895256060E+02  0.30895256060E+02  0.00000000000E+00 0.  1.
          6    1    1    2  501    0  0.35681089174E+02  0.30923360311E+02  0.56418321990E+03  0.59199755064E+03  0.17300000000E+03 0.  1.
         -6    1    1    2    0  503 -0.35681089174E+02 -0.30923360311E+02  0.45626100654E+03  0.49023718792E+03  0.17300000000E+03 0.  1.
<mgrwt>
<rscale>  2 0.17932762E+03</rscale>
<asrwt>0</asrwt>
<pdfrwt beam="1">  1       21 0.16174451E+00 0.17932762E+03</pdfrwt>
<pdfrwt beam="2">  1       21 0.47531171E-02 0.17932762E+03</pdfrwt>
<totfact> 0.72149948E+04</totfact>
</mgrwt>
</event>
<event>
 4    1  0.4072310E+000  0.2158337E+03  0.7546771E-02  0.1137028E+00
         21   -1    0    0  501  502  0.00000000000E+00  0.00000000000E+00  0.29860889178E+02  0.29860889178E+02  0.00000000000E+00 0. -1.
         21   -1    0    0  502  503 -0.00000000000E+00 -0.00000000000E+00 -0.27551072650E+04  0.27551072650E+04  0.00000000000E+00 0.  1.
          6    1    1    2  501    0  0.12552815761E+03 -0.29964708383E+02 -0.44552247303E+03  0.49504997331E+03  0.17300000000E+03 0. -1.
         -6    1    1    2    0  503 -0.12552815761E+03  0.29964708383E+02 -0.22797239027E+04  0.22899181808E+04  0.17300000000E+03 0.  1.
<mgrwt>
<rscale>  2 0.21583374E+03</rscale>
<asrwt>0</asrwt>
<pdfrwt beam="1">  1       21 0.45939824E-02 0.21583374E+03</pdfrwt>
<pdfrwt beam="2">  1       21 0.42386271E+00 0.21583374E+03</pdfrwt>
<totfact> 0.18499561E+03</totfact>
</mgrwt>
</event>
<event>
 4    1  0.4072310E+000  0.2016700E+03  0.7546771E-02  0.1148338E+00
         21   -1    0    0  501  502  0.00000000000E+00  0.00000000000E+00  0.90336883165E+02  0.90336883165E+02  0.00000000000E+00 0.  1.
         21   -1    0    0  502  503 -0.00000000000E+00 -0.00000000000E+00 -0.69593276579E+03  0.69593276579E+03  0.00000000000E+00 0.  1.
          6    1    1    2  501    0  0.10354475308E+03  0.45023206286E+01 -0.69194932206E+02  0.21321051903E+03  0.17300000000E+03 0. -1.
         -6    1    1    2    0  503 -0.10354475308E+03 -0.45023206286E+01 -0.53640095042E+03  0.57305912992E+03  0.17300000000E+03 0. -1.
<mgrwt>
<rscale>  2 0.20166999E+03</rscale>
<asrwt>0</asrwt>
<pdfrwt beam="1">  1       21 0.13897982E-01 0.20166999E+03</pdfrwt>
<pdfrwt beam="2">  1       21 0.10706658E+00 0.20166999E+03</pdfrwt>
<totfact> 0.31249009E+04</totfact>
</mgrwt>
</event>
<event>
 4    1  0.4072310E+000  0.1964669E+03  0.7546771E-02  0.1152755E+00
         21   -1    0    0  501  502  0.00000000000E+00  0.00000000000E+00  0.16704056965E+04  0.16704056965E+04  0.00000000000E+00 0.  1.
         21   -1    0    0  502  503 -0.00000000000E+00 -0.00000000000E+00 -0.44691247575E+02  0.44691247575E+02  0.00000000000E+00 0.  1.
          6    1    1    2  501    0  0.55644918379E+02 -0.74658476616E+02  0.14088057977E+04  0.14224391096E+04  0.17300000000E+03 0.  1.
         -6    1    1    2    0  503 -0.55644918379E+02  0.74658476616E+02  0.21690865127E+03  0.29265783446E+03  0.17300000000E+03 0.  1.
<mgrwt>
<rscale>  2 0.19646691E+03</rscale>
<asrwt>0</asrwt>
<pdfrwt beam="1">  1       21 0.25698544E+00 0.19646691E+03</pdfrwt>
<pdfrwt beam="2">  1       21 0.68755778E-02 0.19646691E+03</pdfrwt>
<totfact> 0.94058772E+03</totfact>
</mgrwt>
</event>
<event>
 4    1  0.4072310E+000  0.2107214E+03  0.7546771E-02  0.1140996E+00
         21   -1    0    0  503  502  0.00000000000E+00  0.00000000000E+00  0.23247749845E+03  0.23247749845E+03  0.00000000000E+00 0.  1.
         21   -1    0    0  501  503 -0.00000000000E+00 -0.00000000000E+00 -0.30366759446E+03  0.30366759446E+03  0.00000000000E+00 0. -1.
          6    1    1    2  501    0 -0.86703982568E+02 -0.83408267739E+02 -0.19888144035E+03  0.28975394222E+03  0.17300000000E+03 0. -1.
         -6    1    1    2    0  502  0.86703982568E+02  0.83408267739E+02  0.12769134434E+03  0.24639115069E+03  0.17300000000E+03 0.  1.
<mgrwt>
<rscale>  2 0.21072143E+03</rscale>
<asrwt>0</asrwt>
<pdfrwt beam="1">  1       21 0.35765769E-01 0.21072143E+03</pdfrwt>
<pdfrwt beam="2">  1       21 0.46718091E-01 0.21072143E+03</pdfrwt>
<totfact> 0.32750742E+04</totfact>
</mgrwt>
</event>
<event>
 4    1  0.4072310E+000  0.1752647E+03  0.7546771E-02  0.1172466E+00
         21   -1    0    0  501  502  0.00000000000E+00  0.00000000000E+00  0.72707660106E+03  0.72707660106E+03  0.00000000000E+00 0. -1.
         21   -1    0    0  502  503 -0.00000000000E+00 -0.00000000000E+00 -0.51986291814E+02  0.51986291814E+02  0.00000000000E+00 0. -1.
          6    1    1    2  501    0  0.26339968276E+01 -0.27960299932E+02  0.50613594642E+03  0.53562236003E+03  0.17300000000E+03 0. -1.
         -6    1    1    2    0  503 -0.26339968276E+01  0.27960299932E+02  0.16895436283E+03  0.24344053284E+03  0.17300000000E+03 0. -1.
<mgrwt>
<rscale>  2 0.17526470E+03</rscale>
<asrwt>0</asrwt>
<pdfrwt beam="1">  1       21 0.11185793E+00 0.17526470E+03</pdfrwt>
<pdfrwt beam="2">  1       21 0.79978916E-02 0.17526470E+03</pdfrwt>
<totfact> 0.75898978E+04</totfact>
</mgrwt>
</event>
<event>
 4    1  0.4072310E+000  0.2022224E+03  0.7546771E-02  0.1147877E+00
         21   -1    0    0  503  502  0.00000000000E+00  0.00000000000E+00  0.22782370489E+03  0.22782370489E+03  0.00000000000E+00 0.  1.
         21   -1    0    0  501  503 -0.00000000000E+00 -0.00000000000E+00 -0.44570892897E+03  0.44570892897E+03  0.00000000000E+00 0.  1.
          6    1    1    2  501    0  0.40487665633E+02 -0.96569373201E+02 -0.36920771251E+03  0.42096107882E+03  0.17300000000E+03 0.  1.
         -6    1    1    2    0  502 -0.40487665633E+02  0.96569373201E+02  0.15132248843E+03  0.25257155504E+03  0.17300000000E+03 0.  1.
<mgrwt>
<rscale>  2 0.20222239E+03</rscale>
<asrwt>0</asrwt>
<pdfrwt beam="1">  1       21 0.35049801E-01 0.20222239E+03</pdfrwt>
<pdfrwt beam="2">  1       21 0.68570605E-01 0.20222239E+03</pdfrwt>
<totfact> 0.15122740E+04</totfact>
</mgrwt>
</event>
<event>
 4    1  0.4072310E+000  0.1867336E+03  0.7546771E-02  0.1161441E+00
         21   -1    0    0  503  502  0.00000000000E+00  0.00000000000E+00  0.57903262596E+02  0.57903262596E+02  0.00000000000E+00 0. -1.
         21   -1    0    0  501  503 -0.00000000000E+00 -0.00000000000E+00 -0.64631581358E+03  0.64631581358E+03  0.00000000000E+00 0. -1.
          6    1    1    2  501    0 -0.52591479210E+02 -0.46632306511E+02 -0.38619716378E+03  0.42897282549E+03  0.17300000000E+03 0. -1.
         -6    1    1    2    0  502  0.52591479210E+02  0.46632306511E+02 -0.20221538721E+03  0.27524625069E+03  0.17300000000E+03 0. -1.
<mgrwt>
<rscale>  2 0.18673360E+03</rscale>
<asrwt>0</asrwt>
<pdfrwt beam="1">  1       21 0.89081941E-02 0.18673360E+03</pdfrwt>
<pdfrwt beam="2">  1       21 0.99433204E-01 0.18673360E+03</pdfrwt>
<totfact> 0.82967288E+04</totfact>
</mgrwt>
</event>
<event>
 4    1  0.4072310E+000  0.1912455E+03  0.7546771E-02  0.1157343E+00
         21   -1    0    0  503  502  0.00000000000E+00  0.00000000000E+00  0.47350490793E+02  0.47350490793E+02  0.00000000000E+00 0.  1.
         21   -1    0    0  501  503 -0.00000000000E+00 -0.00000000000E+00 -0.10447953598E+04  0.10447953598E+04  0.00000000000E+00 0.  1.
          6    1    1    2  501    0  0.66178435926E+02 -0.47605344832E+02 -0.77753503698E+03  0.80070942793E+03  0.17300000000E+03 0.  1.
         -6    1    1    2    0  502 -0.66178435926E+02  0.47605344832E+02 -0.21990983205E+03  0.29143642269E+03  0.17300000000E+03 0.  1.
<mgrwt>
<rscale>  2 0.19124553E+03</rscale>
<asrwt>0</asrwt>
<pdfrwt beam="1">  1       21 0.72846925E-02 0.19124553E+03</pdfrwt>
<pdfrwt beam="2">  1       21 0.16073771E+00 0.19124553E+03</pdfrwt>
<totfact> 0.35129664E+04</totfact>
</mgrwt>
</event>
<event>
 4    1  0.4072310E+000  0.1869415E+03  0.7546771E-02  0.1161249E+00
         21   -1    0    0  503  502  0.00000000000E+00  0.00000000000E+00  0.13443786230E+04  0.13443786230E+04  0.00000000000E+00 0.  1.
         21   -1    0    0  501  503 -0.00000000000E+00 -0.00000000000E+00 -0.30023570659E+02  0.30023570659E+02  0.00000000000E+00 0. -1.
          6    1    1    2  501    0  0.68313984787E+02  0.18743934362E+02  0.40545178202E+03  0.44647316060E+03  0.17300000000E+03 0. -1.
         -6    1    1    2    0  502 -0.68313984787E+02 -0.18743934362E+02  0.90890327029E+03  0.92792903302E+03  0.17300000000E+03 0.  1.
<mgrwt>
<rscale>  2 0.18694153E+03</rscale>
<asrwt>0</asrwt>
<pdfrwt beam="1">  1       21 0.20682743E+00 0.18694153E+03</pdfrwt>
<pdfrwt beam="2">  1       21 0.46190119E-02 0.18694153E+03</pdfrwt>
<totfact> 0.37519887E+04</totfact>
</mgrwt>
</event>
<event>
 4    1  0.4072310E+000  0.2417041E+03  0.7546771E-02  0.1118663E+00
         21   -1    0    0  503  502  0.00000000000E+00  0.00000000000E+00  0.10281561376E+04  0.10281561376E+04  0.00000000000E+00 0. -1.
         21   -1    0    0  501  503 -0.00000000000E+00 -0.00000000000E+00 -0.61581850332E+02  0.61581850332E+02  0.00000000000E+00 0.  1.
          6    1    1    2  501    0 -0.16629912328E+03  0.28922010560E+02  0.33178909058E+03  0.41049346125E+03  0.17300000000E+03 0.  1.
         -6    1    1    2    0  502  0.16629912328E+03 -0.28922010560E+02  0.63478519672E+03  0.67924452672E+03  0.17300000000E+03 0.  1.
<mgrwt>
<rscale>  2 0.24170412E+03</rscale>
<asrwt>0</asrwt>
<pdfrwt beam="1">  1       21 0.15817785E+00 0.24170412E+03</pdfrwt>
<pdfrwt beam="2">  1       21 0.94741316E-02 0.24170412E+03</pdfrwt>
<totfact> 0.22473021E+04</totfact>
</mgrwt>
</event>
<event>
 4    1  0.4072310E+000  0.2379515E+03  0.7546771E-02  0.1121165E+00
         21   -1    0    0  501  502  0.00000000000E+00  0.00000000000E+00  0.23934794389E+03  0.23934794389E+03  0.00000000000E+00 0. -1.
         21   -1    0    0  502  503 -0.00000000000E+00 -0.00000000000E+00 -0.13524627802E+04  0.13524627802E+04  0.00000000000E+00 0. -1.
          6    1    1    2  501    0 -0.12749406370E+03 -0.10216252008E+03  0.16639768154E+03  0.29036030240E+03  0.17300000000E+03 0. -1.
         -6    1    1    2    0  503  0.12749406370E+03  0.10216252008E+03 -0.12795125179E+04  0.13014504217E+04  0.17300000000E+03 0. -1.
<mgrwt>
<rscale>  2 0.23795150E+03</rscale>
<asrwt>0</asrwt>
<pdfrwt beam="1">  1       21 0.36822762E-01 0.23795150E+03</pdfrwt>
<pdfrwt beam="2">  1       21 0.20807119E+00 0.23795150E+03</pdfrwt>
<totfact> 0.80857618E+02</totfact>
</mgrwt>
</event>
<event>
 4    1  0.4072310E+000  0.1879569E+03  0.7546771E-02  0.1160317E+00
         21   -1    0    0  501  502  0.00000000000E+00  0.00000000000E+00  0.17858700981E+03  0.17858700981E+03  0.00000000000E+00 0. -1.
         21   -1    0    0  502  503 -0.00000000000E+00 -0.00000000000E+00 -0.27053627875E+03  0.27053627875E+03  0.00000000000E+00 0.  1.
          6    1    1    2  501    0 -0.72019623799E+02  0.14559077675E+02  0.70449625043E+02  0.20072603873E+03  0.17300000000E+03 0. -1.
         -6    1    1    2    0  503  0.72019623799E+02 -0.14559077675E+02 -0.16239889398E+03  0.24839724983E+03  0.17300000000E+03 0.  1.
<mgrwt>
<rscale>  2 0.18795689E+03</rscale>
<asrwt>0</asrwt>
<pdfrwt beam="1">  1       21 0.27474925E-01 0.18795689E+03</pdfrwt>
<pdfrwt beam="2">  1       21 0.41620966E-01 0.18795689E+03</pdfrwt>
<totfact> 0.70374461E+04</totfact>
</mgrwt>
</event>
<event>
 4    1  0.4072310E+000  0.1867653E+03  0.7546771E-02  0.1161412E+00
         21   -1    0    0  501  502  0.00000000000E+00  0.00000000000E+00  0.81002194241E+02  0.81002194241E+02  0.00000000000E+00 0.  1.
         21   -1    0    0  502  503 -0.00000000000E+00 -0.00000000000E+00 -0.46914174801E+03  0.46914174801E+03  0.00000000000E+00 0.  1.
          6    1    1    2  501    0  0.76334293207E+01 -0.69957259445E+02 -0.11524935300E+03  0.21946229918E+03  0.17300000000E+03 0.  1.
         -6    1    1    2    0  503 -0.76334293207E+01  0.69957259445E+02 -0.27289020076E+03  0.33068164307E+03  0.17300000000E+03 0.  1.
<mgrwt>
<rscale>  2 0.18676533E+03</rscale>
<asrwt>0</asrwt>
<pdfrwt beam="1">  1       21 0.12461876E-01 0.18676533E+03</pdfrwt>
<pdfrwt beam="2">  1       21 0.72175654E-01 0.18676533E+03</pdfrwt>
<totfact> 0.95190468E+04</totfact>
</mgrwt>
</event>
<event>
 4    1  0.4072310E+000  0.1789647E+03  0.7546771E-02  0.1168809E+00
         21   -1    0    0  501  502  0.00000000000E+00  0.00000000000E+00  0.86916662252E+02  0.86916662252E+02  0.00000000000E+00 0. -1.
         21   -1    0    0  502  503 -0.00000000000E+00 -0.00000000000E+00 -0.14601025767E+04  0.14601025767E+04  0.00000000000E+00 0. -1.
          6    1    1    2  501    0 -0.38534239207E+02  0.24788958798E+02 -0.17776040054E+02  0.17984539936E+03  0.17300000000E+03 0. -1.
         -6    1    1    2    0  503  0.38534239207E+02 -0.24788958798E+02 -0.13554098744E+04  0.13671738396E+04  0.17300000000E+03 0. -1.
<mgrwt>
<rscale>  2 0.17896475E+03</rscale>
<asrwt>0</asrwt>
<pdfrwt beam="1">  1       21 0.13371796E-01 0.17896475E+03</pdfrwt>
<pdfrwt beam="2">  1       21 0.22463113E+00 0.17896475E+03</pdfrwt>
<totfact> 0.46174160E+03</totfact>
</mgrwt>
</event>
<event>
 4    1  0.4072310E+000  0.1888302E+03  0.7546771E-02  0.1159521E+00
         21   -1    0    0  503  502  0.00000000000E+00  0.00000000000E+00  0.48506388226E+03  0.48506388226E+03  0.00000000000E+00 0.  1.
         21   -1    0    0  501  503 -0.00000000000E+00 -0.00000000000E+00 -0.77676755676E+02  0.77676755676E+02  0.00000000000E+00 0.  1.
          6    1    1    2  501    0  0.75146707640E+02  0.89906822206E+01  0.13852296039E+03  0.23419109844E+03  0.17300000000E+03 0.  1.
         -6    1    1    2    0  502 -0.75146707640E+02 -0.89906822206E+01  0.26886416620E+03  0.32854953949E+03  0.17300000000E+03 0.  1.
<mgrwt>
<rscale>  2 0.18883024E+03</rscale>
<asrwt>0</asrwt>
<pdfrwt beam="1">  1       21 0.74625211E-01 0.18883024E+03</pdfrwt>
<pdfrwt beam="2">  1       21 0.11950270E-01 0.18883024E+03</pdfrwt>
<totfact> 0.95197358E+04</totfact>
</mgrwt>
</event>
<event>
 4    1  0.4072310E+000  0.2320080E+03  0.7546771E-02  0.1125234E+00
         21   -1    0    0  501  502  0.00000000000E+00  0.00000000000E+00  0.65834983499E+02  0.65834983499E+02  0.00000000000E+00 0. -1.
         21   -1    0    0  502  503 -0.00000000000E+00 -0.00000000000E+00 -0.82017117193E+03  0.82017117193E+03  0.00000000000E+00 0.  1.
          6    1    1    2  501    0  0.49818405246E+02 -0.14634498062E+03 -0.35244082305E+03  0.42195054285E+03  0.17300000000E+03 0.  1.
         -6    1    1    2    0  503 -0.49818405246E+02  0.14634498062E+03 -0.40189536538E+03  0.46405561258E+03  0.17300000000E+03 0. -1.
<mgrwt>
<rscale>  2 0.23200803E+03</rscale>
<asrwt>0</asrwt>
<pdfrwt beam="1">  1       21 0.10128459E-01 0.23200803E+03</pdfrwt>
<pdfrwt beam="2">  1       21 0.12618018E+00 0.23200803E+03</pdfrwt>
<totfact> 0.36179281E+04</totfact>
</mgrwt>
</event>
<event>
 4    1  0.4072310E+000  0.2423478E+03  0.7546771E-02  0.1118239E+00
         21   -1    0    0  503  502  0.00000000000E+00  0.00000000000E+00  0.80027128697E+02  0.80027128697E+02  0.00000000000E+00 0.  1.
         21   -1    0    0  501  503 -0.00000000000E+00 -0.00000000000E+00 -0.11844896186E+04  0.11844896186E+04  0.00000000000E+00 0.  1.
          6    1    1    2  501    0  0.52445841315E+01 -0.16963479961E+03 -0.94218775234E+03  0.97285673743E+03  0.17300000000E+03 0.  1.
         -6    1    1    2    0  502 -0.52445841315E+01  0.16963479961E+03 -0.16227473755E+03  0.29166000986E+03  0.17300000000E+03 0.  1.
<mgrwt>
<rscale>  2 0.24234783E+03</rscale>
<asrwt>0</asrwt>
<pdfrwt beam="1">  1       21 0.12311866E-01 0.24234783E+03</pdfrwt>
<pdfrwt beam="2">  1       21 0.18222917E+00 0.24234783E+03</pdfrwt>
<totfact> 0.94908193E+03</totfact>
</mgrwt>
</event>
<event>
 4    1  0.4072310E+000  0.3075756E+03  0.7546771E-02  0.1081514E+00
         21   -1    0    0  501  502  0.00000000000E+00  0.00000000000E+00  0.27672896161E+03  0.27672896161E+03  0.00000000000E+00 0.  1.
         21   -1    0    0  502  503 -0.00000000000E+00 -0.00000000000E+00 -0.48015577079E+03  0.48015577079E+03  0.00000000000E+00 0. -1.
          6    1    1    2  501    0 -0.16647033625E+03  0.19225338584E+03  0.10138762867E+03  0.32385519675E+03  0.17300000000E+03 0.  1.
         -6    1    1    2    0  503  0.16647033625E+03 -0.19225338584E+03 -0.30481443785E+03  0.43302953564E+03  0.17300000000E+03 0. -1.
<mgrwt>
<rscale>  2 0.30757558E+03</rscale>
<asrwt>0</asrwt>
<pdfrwt beam="1">  1       21 0.42573686E-01 0.30757558E+03</pdfrwt>
<pdfrwt beam="2">  1       21 0.73870119E-01 0.30757558E+03</pdfrwt>
<totfact> 0.81697824E+03</totfact>
</mgrwt>
</event>
<event>
 4    1  0.4072310E+000  0.1848796E+03  0.7546771E-02  0.1163162E+00
         21   -1    0    0  501  502  0.00000000000E+00  0.00000000000E+00  0.44302833228E+02  0.44302833228E+02  0.00000000000E+00 0. -1.
         21   -1    0    0  502  503 -0.00000000000E+00 -0.00000000000E+00 -0.79103952703E+03  0.79103952703E+03  0.00000000000E+00 0. -1.
          6    1    1    2  501    0  0.55267320342E+02 -0.34597558754E+02 -0.43898040366E+03  0.47632369516E+03  0.17300000000E+03 0. -1.
         -6    1    1    2    0  503 -0.55267320342E+02  0.34597558754E+02 -0.30775629015E+03  0.35901866510E+03  0.17300000000E+03 0. -1.
<mgrwt>
<rscale>  2 0.18487960E+03</rscale>
<asrwt>0</asrwt>
<pdfrwt beam="1">  1       21 0.68158207E-02 0.18487960E+03</pdfrwt>
<pdfrwt beam="2">  1       21 0.12169839E+00 0.18487960E+03</pdfrwt>
<totfact> 0.81063676E+04</totfact>
</mgrwt>
</event>
<event>
 4    1  0.4072310E+000  0.1852310E+03  0.7546771E-02  0.1162834E+00
         21   -1    0    0  503  502  0.00000000000E+00  0.00000000000E+00  0.97716078150E+02  0.97716078150E+02  0.00000000000E+00 0.  1.
         21   -1    0    0  501  503 -0.00000000000E+00 -0.00000000000E+00 -0.43644223282E+03  0.43644223282E+03  0.00000000000E+00 0.  1.
          6    1    1    2  501    0  0.20499450043E+02  0.62938680123E+02 -0.28744852265E+03  0.34196075518E+03  0.17300000000E+03 0.  1.
         -6    1    1    2    0  502 -0.20499450043E+02 -0.62938680123E+02 -0.51277632021E+02  0.19219755579E+03  0.17300000000E+03 0.  1.
<mgrwt>
<rscale>  2 0.18523095E+03</rscale>
<asrwt>0</asrwt>
<pdfrwt beam="1">  1       21 0.15033243E-01 0.18523095E+03</pdfrwt>
<pdfrwt beam="2">  1       21 0.67144959E-01 0.18523095E+03</pdfrwt>
<totfact> 0.79572773E+04</totfact>
</mgrwt>
</event>
<event>
 4    1  0.4072310E+000  0.2029704E+03  0.7546771E-02  0.1147257E+00
         21   -1    0    0  503  502  0.00000000000E+00  0.00000000000E+00  0.46706332832E+03  0.46706332832E+03  0.00000000000E+00 0.  1.
         21   -1    0    0  501  503 -0.00000000000E+00 -0.00000000000E+00 -0.12252376002E+03  0.12252376002E+03  0.00000000000E+00 0.  1.
          6    1    1    2  501    0 -0.89589652506E+01 -0.10577202158E+03  0.16250538658E+02  0.20361989985E+03  0.17300000000E+03 0.  1.
         -6    1    1    2    0  502  0.89589652506E+01  0.10577202158E+03  0.32828902965E+03  0.38596718849E+03  0.17300000000E+03 0.  1.
<mgrwt>
<rscale>  2 0.20297040E+03</rscale>
<asrwt>0</asrwt>
<pdfrwt beam="1">  1       21 0.71855896E-01 0.20297040E+03</pdfrwt>
<pdfrwt beam="2">  1       21 0.18849810E-01 0.20297040E+03</pdfrwt>
<totfact> 0.44840340E+04</totfact>
</mgrwt>
</event>
<event>
 4    1  0.4072310E+000  0.1796609E+03  0.7546771E-02  0.1168132E+00
         21   -1    0    0  501  502  0.00000000000E+00  0.00000000000E+00  0.78948188998E+03  0.78948188998E+03  0.00000000000E+00 0.  1.
         21   -1    0    0  502  503 -0.00000000000E+00 -0.00000000000E+00 -0.48988064519E+02  0.48988064519E+02  0.00000000000E+00 0.  1.
          6    1    1    2  501    0 -0.46951637323E+02 -0.12024563542E+02  0.54075081584E+03  0.56981531324E+03  0.17300000000E+03 0.  1.
         -6    1    1    2    0  503  0.46951637323E+02  0.12024563542E+02  0.19974300963E+03  0.26865464126E+03  0.17300000000E+03 0.  1.
<mgrwt>
<rscale>  2 0.17966092E+03</rscale>
<asrwt>0</asrwt>
<pdfrwt beam="1">  1       21 0.12145874E+00 0.17966092E+03</pdfrwt>
<pdfrwt beam="2">  1       21 0.75366259E-02 0.17966092E+03</pdfrwt>
<totfact> 0.68646570E+04</totfact>
</mgrwt>
</event>
<event>
 4    1  0.4072310E+000  0.2666080E+03  0.7546771E-02  0.1103237E+00
         21   -1    0    0  503  502  0.00000000000E+00  0.00000000000E+00  0.73340151159E+03  0.73340151159E+03  0.00000000000E+00 0.  1.
         21   -1    0    0  501  503 -0.00000000000E+00 -0.00000000000E+00 -0.21365505406E+03  0.21365505406E+03  0.00000000000E+00 0.  1.
          6    1    1    2  501    0 -0.20281802156E+03 -0.39625524101E+01 -0.90147360327E+02  0.28143631298E+03  0.17300000000E+03 0.  1.
         -6    1    1    2    0  502  0.20281802156E+03  0.39625524101E+01  0.60989381786E+03  0.66562025266E+03  0.17300000000E+03 0.  1.
<mgrwt>
<rscale>  2 0.26660805E+03</rscale>
<asrwt>0</asrwt>
<pdfrwt beam="1">  1       21 0.11283100E+00 0.26660805E+03</pdfrwt>
<pdfrwt beam="2">  1       21 0.32870009E-01 0.26660805E+03</pdfrwt>
<totfact> 0.51980518E+03</totfact>
</mgrwt>
</event>
<event>
 4    1  0.4072310E+000  0.2297234E+03  0.7546771E-02  0.1126835E+00
         21   -1    0    0  501  502  0.00000000000E+00  0.00000000000E+00  0.34624067924E+03  0.34624067924E+03  0.00000000000E+00 0. -1.
         21   -1    0    0  502  503 -0.00000000000E+00 -0.00000000000E+00 -0.15798740182E+03  0.15798740182E+03  0.00000000000E+00 0. -1.
          6    1    1    2  501    0  0.27349628514E+02  0.14864661855E+03  0.14146852177E+03  0.26978910659E+03  0.17300000000E+03 0. -1.
         -6    1    1    2    0  503 -0.27349628514E+02 -0.14864661855E+03  0.46784755649E+02  0.23443897446E+03  0.17300000000E+03 0. -1.
<mgrwt>
<rscale>  2 0.22972335E+03</rscale>
<asrwt>0</asrwt>
<pdfrwt beam="1">  1       21 0.53267797E-01 0.22972335E+03</pdfrwt>
<pdfrwt beam="2">  1       21 0.24305754E-01 0.22972335E+03</pdfrwt>
<totfact> 0.52432008E+04</totfact>
</mgrwt>
</event>
<event>
 4    1  0.4072310E+000  0.1948910E+03  0.7546771E-02  0.1154122E+00
         21   -1    0    0  501  502  0.00000000000E+00  0.00000000000E+00  0.61851352031E+03  0.61851352031E+03  0.00000000000E+00 0. -1.
         21   -1    0    0  502  503 -0.00000000000E+00 -0.00000000000E+00 -0.10771767217E+03  0.10771767217E+03  0.00000000000E+00 0. -1.
          6    1    1    2  501    0 -0.37965435775E+02  0.81315086996E+02  0.49348230890E+03  0.53057262169E+03  0.17300000000E+03 0. -1.
         -6    1    1    2    0  503  0.37965435775E+02 -0.81315086996E+02  0.17313539240E+02  0.19565857080E+03  0.17300000000E+03 0. -1.
<mgrwt>
<rscale>  2 0.19489104E+03</rscale>
<asrwt>0</asrwt>
<pdfrwt beam="1">  1       21 0.95155924E-01 0.19489104E+03</pdfrwt>
<pdfrwt beam="2">  1       21 0.16571950E-01 0.19489104E+03</pdfrwt>
<totfact> 0.30132578E+04</totfact>
</mgrwt>
</event>
<event>
 4    1  0.4072310E+000  0.1981188E+03  0.7546771E-02  0.1151336E+00
         21   -1    0    0  501  502  0.00000000000E+00  0.00000000000E+00  0.30665518253E+03  0.30665518253E+03  0.00000000000E+00 0. -1.
         21   -1    0    0  502  503 -0.00000000000E+00 -0.00000000000E+00 -0.14584300426E+03  0.14584300426E+03  0.00000000000E+00 0. -1.
          6    1    1    2  501    0 -0.55521876896E+02  0.78989669729E+02  0.15954871259E+03  0.25437538880E+03  0.17300000000E+03 0. -1.
         -6    1    1    2    0  503  0.55521876896E+02 -0.78989669729E+02  0.12634656853E+01  0.19812279799E+03  0.17300000000E+03 0. -1.
<mgrwt>
<rscale>  2 0.19811877E+03</rscale>
<asrwt>0</asrwt>
<pdfrwt beam="1">  1       21 0.47177720E-01 0.19811877E+03</pdfrwt>
<pdfrwt beam="2">  1       21 0.22437385E-01 0.19811877E+03</pdfrwt>
<totfact> 0.79770289E+04</totfact>
</mgrwt>
</event>
<event>
 4    1  0.4072310E+000  0.3301325E+03  0.7546771E-02  0.1071078E+00
         21   -1    0    0  501  502  0.00000000000E+00  0.00000000000E+00  0.15576739485E+04  0.15576739485E+04  0.00000000000E+00 0.  1.
         21   -1    0    0  502  503 -0.00000000000E+00 -0.00000000000E+00 -0.95040320870E+02  0.95040320870E+02  0.00000000000E+00 0.  1.
          6    1    1    2  501    0  0.23881085686E+03  0.14841785028E+03  0.11557508984E+04  0.12019765484E+04  0.17300000000E+03 0.  1.
         -6    1    1    2    0  503 -0.23881085686E+03 -0.14841785028E+03  0.30688272919E+03  0.45073772098E+03  0.17300000000E+03 0.  1.
<mgrwt>
<rscale>  2 0.33013252E+03</rscale>
<asrwt>0</asrwt>
<pdfrwt beam="1">  1       21 0.23964213E+00 0.33013252E+03</pdfrwt>
<pdfrwt beam="2">  1       21 0.14621589E-01 0.33013252E+03</pdfrwt>
<totfact> 0.28116007E+03</totfact>
</mgrwt>
</event>
<event>
 4    1  0.4072310E+000  0.3206244E+03  0.7546771E-02  0.1075362E+00
         21   -1    0    0  503  502  0.00000000000E+00  0.00000000000E+00  0.41804645421E+03  0.41804645421E+03  0.00000000000E+00 0.  1.
         21   -1    0    0  501  503 -0.00000000000E+00 -0.00000000000E+00 -0.25897086146E+03  0.25897086146E+03  0.00000000000E+00 0. -1.
          6    1    1    2  501    0  0.26165863517E+03 -0.66376155394E+02  0.35050721509E+01  0.32064360417E+03  0.17300000000E+03 0. -1.
         -6    1    1    2    0  502 -0.26165863517E+03  0.66376155394E+02  0.15557052060E+03  0.35637371149E+03  0.17300000000E+03 0.  1.
<mgrwt>
<rscale>  2 0.32062445E+03</rscale>
<asrwt>0</asrwt>
<pdfrwt beam="1">  1       21 0.64314839E-01 0.32062445E+03</pdfrwt>
<pdfrwt beam="2">  1       21 0.39841671E-01 0.32062445E+03</pdfrwt>
<totfact> 0.12671905E+04</totfact>
</mgrwt>
</event>
