<event>
 4    1  0.1429937E+004  0.3698523E+02  0.7546771E-02  0.1531646E+00
          2   -1    0    0  501    0  0.00000000000E+00  0.00000000000E+00  0.12604364634E+02  0.12604364634E+02  0.00000000000E+00 0. -1.
         -2   -1    0    0    0  501 -0.00000000000E+00 -0.00000000000E+00 -0.12634190927E+03  0.12634190927E+03  0.00000000000E+00 0. -1.
          2    1    1    2  502    0  0.19839015774E+02  0.31214108601E+02 -0.30780727372E+02  0.48118190948E+02  0.00000000000E+00 0. -1.
         -2    1    1    2    0  502 -0.19839015774E+02 -0.31214108601E+02 -0.82956817261E+02  0.90828082952E+02  0.00000000000E+00 0. -1.
<mgrwt>
<rscale>  2 0.36985228E+02</rscale>
<asrwt>0</asrwt>
<pdfrwt beam="1">  1        2 0.19391330E-02 0.36985228E+02</pdfrwt>
<pdfrwt beam="2">  1       -2 0.19437217E-01 0.36985228E+02</pdfrwt>
<totfact> 0.88935627E+04</totfact>
</mgrwt>
</event>
<event>
 4    1  0.1429937E+004  0.5832839E+02  0.7546771E-02  0.1404984E+00
         -2   -1    0    0    0  501 -0.00000000000E+00  0.00000000000E+00  0.28613756715E+02  0.28613756715E+02  0.00000000000E+00 0. -1.
          2   -1    0    0  501    0  0.00000000000E+00 -0.00000000000E+00 -0.75190777478E+03  0.75190777478E+03  0.00000000000E+00 0.  1.
          2    1    1    2  502    0  0.37599615589E+02  0.44592261241E+02 -0.71972433760E+03  0.72208401380E+03  0.00000000000E+00 0.  1.
         -2    1    1    2    0  502 -0.37599615589E+02 -0.44592261241E+02 -0.35696804614E+01  0.58437517689E+02  0.00000000000E+00 0. -1.
<mgrwt>
<rscale>  2 0.58328388E+02</rscale>
<asrwt>0</asrwt>
<pdfrwt beam="2">  1        2 0.11567814E+00 0.58328388E+02</pdfrwt>
<pdfrwt beam="1">  1       -2 0.44021156E-02 0.58328388E+02</pdfrwt>
<totfact> 0.82714596E+03</totfact>
</mgrwt>
</event>
<event>
 4    1  0.1429937E+004  0.3109727E+02  0.7546771E-02  0.1586267E+00
         -2   -1    0    0    0  501 -0.00000000000E+00  0.00000000000E+00  0.11918840861E+03  0.11918840861E+03  0.00000000000E+00 0.  1.
          2   -1    0    0  501    0  0.00000000000E+00 -0.00000000000E+00 -0.82375267405E+01  0.82375267405E+01  0.00000000000E+00 0.  1.
          2    1    1    2  502    0  0.22417297604E+02 -0.21552349685E+02  0.63292266812E+02  0.70519146670E+02  0.00000000000E+00 0.  1.
         -2    1    1    2    0  502 -0.22417297604E+02  0.21552349685E+02  0.47658615056E+02  0.56906788680E+02  0.00000000000E+00 0.  1.
<mgrwt>
<rscale>  2 0.31097266E+02</rscale>
<asrwt>0</asrwt>
<pdfrwt beam="2">  1        2 0.12673119E-02 0.31097266E+02</pdfrwt>
<pdfrwt beam="1">  1       -2 0.18336677E-01 0.31097266E+02</pdfrwt>
<totfact> 0.16371616E+05</totfact>
</mgrwt>
</event>
<event>
 4    1  0.1429937E+004  0.2035601E+02  0.7546771E-02  0.1738340E+00
          2   -1    0    0  501    0  0.00000000000E+00  0.00000000000E+00  0.92895374074E+02  0.92895374074E+02  0.00000000000E+00 0.  1.
         -2   -1    0    0    0  501 -0.00000000000E+00 -0.00000000000E+00 -0.84789945474E+02  0.84789945474E+02  0.00000000000E+00 0.  1.
          2    1    1    2  502    0  0.24083425531E+01  0.20213043016E+02  0.90526912323E+02  0.92787332522E+02  0.00000000000E+00 0.  1.
         -2    1    1    2    0  502 -0.24083425531E+01 -0.20213043016E+02 -0.82421483724E+02  0.84897987026E+02  0.00000000000E+00 0.  1.
<mgrwt>
<rscale>  2 0.20356012E+02</rscale>
<asrwt>0</asrwt>
<pdfrwt beam="1">  1        2 0.14291596E-01 0.20356012E+02</pdfrwt>
<pdfrwt beam="2">  1       -2 0.13044607E-01 0.20356012E+02</pdfrwt>
<totfact> 0.12944300E+04</totfact>
</mgrwt>
</event>
<event>
 4    1  0.1429937E+004  0.6158438E+02  0.7546771E-02  0.1391301E+00
         -2   -1    0    0    0  501 -0.00000000000E+00  0.00000000000E+00  0.74397538116E+02  0.74397538116E+02  0.00000000000E+00 0.  1.
          2   -1    0    0  501    0  0.00000000000E+00 -0.00000000000E+00 -0.54942566553E+02  0.54942566553E+02  0.00000000000E+00 0. -1.
          2    1    1    2  502    0  0.52526879394E+02  0.32149067980E+02 -0.76444461578E+01  0.62057015622E+02  0.00000000000E+00 0. -1.
         -2    1    1    2    0  502 -0.52526879394E+02 -0.32149067980E+02  0.27099417721E+02  0.67283089047E+02  0.00000000000E+00 0.  1.
<mgrwt>
<rscale>  2 0.61584378E+02</rscale>
<asrwt>0</asrwt>
<pdfrwt beam="2">  1        2 0.84527026E-02 0.61584378E+02</pdfrwt>
<pdfrwt beam="1">  1       -2 0.11445775E-01 0.61584378E+02</pdfrwt>
<totfact> 0.34779727E+04</totfact>
</mgrwt>
</event>
<event>
 4    1  0.1429937E+004  0.3861847E+02  0.7546771E-02  0.1518631E+00
          2   -1    0    0  501    0  0.00000000000E+00  0.00000000000E+00  0.14981489928E+03  0.14981489928E+03  0.00000000000E+00 0.  1.
         -2   -1    0    0    0  501 -0.00000000000E+00 -0.00000000000E+00 -0.21727299312E+03  0.21727299312E+03  0.00000000000E+00 0.  1.
          2    1    1    2  502    0  0.31671281805E+01 -0.38488382956E+02  0.14556085767E+03  0.15059664541E+03  0.00000000000E+00 0.  1.
         -2    1    1    2    0  502 -0.31671281805E+01  0.38488382956E+02 -0.21301895151E+03  0.21649124700E+03  0.00000000000E+00 0.  1.
<mgrwt>
<rscale>  2 0.38618471E+02</rscale>
<asrwt>0</asrwt>
<pdfrwt beam="1">  1        2 0.23048446E-01 0.38618471E+02</pdfrwt>
<pdfrwt beam="2">  1       -2 0.33426614E-01 0.38618471E+02</pdfrwt>
<totfact> 0.17891039E+03</totfact>
</mgrwt>
</event>
<event>
 4    1  0.1429937E+004  0.3217268E+02  0.7546771E-02  0.1575244E+00
         -2   -1    0    0    0  501 -0.00000000000E+00  0.00000000000E+00  0.19000350995E+01  0.19000350995E+01  0.00000000000E+00 0. -1.
          2   -1    0    0  501    0  0.00000000000E+00 -0.00000000000E+00 -0.55377422068E+03  0.55377422068E+03  0.00000000000E+00 0.  1.
          2    1    1    2  502    0 -0.65936879573E+01  0.31489755332E+02 -0.31136585529E+03  0.31302360494E+03  0.00000000000E+00 0.  1.
         -2    1    1    2    0  502  0.65936879573E+01 -0.31489755332E+02 -0.24050833029E+03  0.24265065083E+03  0.00000000000E+00 0. -1.
<mgrwt>
<rscale>  2 0.32172681E+02</rscale>
<asrwt>0</asrwt>
<pdfrwt beam="2">  1        2 0.85196098E-01 0.32172681E+02</pdfrwt>
<pdfrwt beam="1">  1       -2 0.29231287E-03 0.32172681E+02</pdfrwt>
<totfact> 0.45785059E+05</totfact>
</mgrwt>
</event>
<event>
 4    1  0.1429937E+004  0.2658724E+02  0.7546771E-02  0.1639198E+00
         -2   -1    0    0    0  501 -0.00000000000E+00  0.00000000000E+00  0.84635755471E+03  0.84635755471E+03  0.00000000000E+00 0. -1.
          2   -1    0    0  501    0  0.00000000000E+00 -0.00000000000E+00 -0.18342361223E+01  0.18342361223E+01  0.00000000000E+00 0. -1.
          2    1    1    2  502    0 -0.92709536922E+01 -0.24918465112E+02  0.73524870425E+03  0.73572925563E+03  0.00000000000E+00 0. -1.
         -2    1    1    2    0  502  0.92709536922E+01  0.24918465112E+02  0.10927461434E+03  0.11246253520E+03  0.00000000000E+00 0. -1.
<mgrwt>
<rscale>  2 0.26587237E+02</rscale>
<asrwt>0</asrwt>
<pdfrwt beam="2">  1        2 0.28219085E-03 0.26587237E+02</pdfrwt>
<pdfrwt beam="1">  1       -2 0.13020854E+00 0.26587237E+02</pdfrwt>
<totfact> 0.26017838E+04</totfact>
</mgrwt>
</event>
<event>
 4    1  0.1429937E+004  0.2767981E+02  0.7546771E-02  0.1625249E+00
          2   -1    0    0  501    0  0.00000000000E+00  0.00000000000E+00  0.99535107935E+03  0.99535107935E+03  0.00000000000E+00 0.  1.
         -2   -1    0    0    0  501 -0.00000000000E+00 -0.00000000000E+00 -0.79668199860E+00  0.79668199860E+00  0.00000000000E+00 0. -1.
          2    1    1    2  502    0  0.22133579740E+02  0.16621576210E+02  0.58885290043E+03  0.58950310474E+03  0.00000000000E+00 0.  1.
         -2    1    1    2    0  502 -0.22133579740E+02 -0.16621576210E+02  0.40570149692E+03  0.40664465661E+03  0.00000000000E+00 0. -1.
<mgrwt>
<rscale>  2 0.27679815E+02</rscale>
<asrwt>0</asrwt>
<pdfrwt beam="1">  1        2 0.15312994E+00 0.27679815E+02</pdfrwt>
<pdfrwt beam="2">  1       -2 0.12256726E-03 0.27679815E+02</pdfrwt>
<totfact> 0.72450078E+05</totfact>
</mgrwt>
</event>
<event>
 4    1  0.1429937E+004  0.2100945E+02  0.7546771E-02  0.1725968E+00
          2   -1    0    0  501    0  0.00000000000E+00  0.00000000000E+00  0.10922673576E+04  0.10922673576E+04  0.00000000000E+00 0. -1.
         -2   -1    0    0    0  501 -0.00000000000E+00 -0.00000000000E+00 -0.43364850627E+01  0.43364850627E+01  0.00000000000E+00 0.  1.
          2    1    1    2  502    0 -0.97992631481E+01 -0.18584171573E+02  0.10660949769E+04  0.10663019726E+04  0.00000000000E+00 0. -1.
         -2    1    1    2    0  502  0.97992631481E+01  0.18584171573E+02  0.21835895640E+02  0.30301870069E+02  0.00000000000E+00 0.  1.
<mgrwt>
<rscale>  2 0.21009450E+02</rscale>
<asrwt>0</asrwt>
<pdfrwt beam="1">  1        2 0.16804091E+00 0.21009450E+02</pdfrwt>
<pdfrwt beam="2">  1       -2 0.66715242E-03 0.21009450E+02</pdfrwt>
<totfact> 0.62999931E+04</totfact>
</mgrwt>
</event>
<event>
 4    1  0.1429937E+004  0.4912611E+02  0.7546771E-02  0.1450113E+00
         -2   -1    0    0    0  501 -0.00000000000E+00  0.00000000000E+00  0.16937691640E+04  0.16937691640E+04  0.00000000000E+00 0.  1.
          2   -1    0    0  501    0  0.00000000000E+00 -0.00000000000E+00 -0.11456544024E+02  0.11456544024E+02  0.00000000000E+00 0. -1.
          2    1    1    2  502    0  0.34281212548E+02 -0.35187688711E+02  0.43323121333E+02  0.65500135974E+02  0.00000000000E+00 0. -1.
         -2    1    1    2    0  502 -0.34281212548E+02  0.35187688711E+02  0.16389894986E+04  0.16397255721E+04  0.00000000000E+00 0.  1.
<mgrwt>
<rscale>  2 0.49126113E+02</rscale>
<asrwt>0</asrwt>
<pdfrwt beam="2">  1        2 0.17625466E-02 0.49126113E+02</pdfrwt>
<pdfrwt beam="1">  1       -2 0.26057967E+00 0.49126113E+02</pdfrwt>
<totfact> 0.38305252E+02</totfact>
</mgrwt>
</event>
<event>
 4    1  0.1429937E+004  0.2943829E+02  0.7546771E-02  0.1604382E+00
          2   -1    0    0  501    0  0.00000000000E+00  0.00000000000E+00  0.11830072615E+04  0.11830072615E+04  0.00000000000E+00 0.  1.
         -2   -1    0    0    0  501 -0.00000000000E+00 -0.00000000000E+00 -0.42132052473E+01  0.42132052473E+01  0.00000000000E+00 0. -1.
          2    1    1    2  502    0 -0.28465843005E+02  0.75039092396E+01  0.11289393644E+04  0.11293231164E+04  0.00000000000E+00 0.  1.
         -2    1    1    2    0  502  0.28465843005E+02 -0.75039092396E+01  0.49854691909E+02  0.57897350347E+02  0.00000000000E+00 0. -1.
<mgrwt>
<rscale>  2 0.29438289E+02</rscale>
<asrwt>0</asrwt>
<pdfrwt beam="1">  1        2 0.18200085E+00 0.29438289E+02</pdfrwt>
<pdfrwt beam="2">  1       -2 0.64818637E-03 0.29438289E+02</pdfrwt>
<totfact> 0.62542314E+04</totfact>
</mgrwt>
</event>
<event>
 4    1  0.1429937E+004  0.2341765E+02  0.7546771E-02  0.1684828E+00
         -2   -1    0    0    0  501 -0.00000000000E+00  0.00000000000E+00  0.27162358100E+00  0.27162358100E+00  0.00000000000E+00 0.  1.
          2   -1    0    0  501    0  0.00000000000E+00 -0.00000000000E+00 -0.20269446853E+04  0.20269446853E+04  0.00000000000E+00 0. -1.
          2    1    1    2  502    0 -0.79118344656E+01 -0.22040621749E+02 -0.10771155657E+04  0.10773700980E+04  0.00000000000E+00 0. -1.
         -2    1    1    2    0  502  0.79118344656E+01  0.22040621749E+02 -0.94955749600E+03  0.94984621089E+03  0.00000000000E+00 0.  1.
<mgrwt>
<rscale>  2 0.23417646E+02</rscale>
<asrwt>0</asrwt>
<pdfrwt beam="2">  1        2 0.31183971E+00 0.23417646E+02</pdfrwt>
<pdfrwt beam="1">  1       -2 0.41787967E-04 0.23417646E+02</pdfrwt>
<totfact> 0.90531554E+05</totfact>
</mgrwt>
</event>
<event>
 4    1  0.1429937E+004  0.2580273E+02  0.7546771E-02  0.1649733E+00
         -2   -1    0    0    0  501 -0.00000000000E+00  0.00000000000E+00  0.71078778116E+03  0.71078778116E+03  0.00000000000E+00 0. -1.
          2   -1    0    0  501    0  0.00000000000E+00 -0.00000000000E+00 -0.23499995801E+01  0.23499995801E+01  0.00000000000E+00 0. -1.
          2    1    1    2  502    0  0.17638605435E+02 -0.18832428185E+02  0.77696862786E+02  0.81869305847E+02  0.00000000000E+00 0. -1.
         -2    1    1    2    0  502 -0.17638605435E+02  0.18832428185E+02  0.63074091880E+03  0.63126847490E+03  0.00000000000E+00 0. -1.
<mgrwt>
<rscale>  2 0.25802728E+02</rscale>
<asrwt>0</asrwt>
<pdfrwt beam="2">  1        2 0.36153896E-03 0.25802728E+02</pdfrwt>
<pdfrwt beam="1">  1       -2 0.10935179E+00 0.25802728E+02</pdfrwt>
<totfact> 0.27883825E+04</totfact>
</mgrwt>
</event>
<event>
 4    1  0.1429937E+004  0.2510418E+02  0.7546771E-02  0.1659510E+00
          2   -1    0    0  501    0  0.00000000000E+00  0.00000000000E+00  0.18912827441E+04  0.18912827441E+04  0.00000000000E+00 0. -1.
         -2   -1    0    0    0  501 -0.00000000000E+00 -0.00000000000E+00 -0.67346003352E+00  0.67346003352E+00  0.00000000000E+00 0. -1.
          2    1    1    2  502    0 -0.25070200547E+02  0.13056253236E+01  0.16176860926E+04  0.16178808714E+04  0.00000000000E+00 0. -1.
         -2    1    1    2    0  502  0.25070200547E+02 -0.13056253236E+01  0.27292319144E+03  0.27407533278E+03  0.00000000000E+00 0. -1.
<mgrwt>
<rscale>  2 0.25104175E+02</rscale>
<asrwt>0</asrwt>
<pdfrwt beam="1">  1        2 0.29096232E+00 0.25104175E+02</pdfrwt>
<pdfrwt beam="2">  1       -2 0.10361075E-03 0.25104175E+02</pdfrwt>
<totfact> 0.32233383E+05</totfact>
</mgrwt>
</event>
<event>
 4    1  0.1429937E+004  0.3035045E+02  0.7546771E-02  0.1594247E+00
         -2   -1    0    0    0  501 -0.00000000000E+00  0.00000000000E+00  0.24245975161E+03  0.24245975161E+03  0.00000000000E+00 0. -1.
          2   -1    0    0  501    0  0.00000000000E+00 -0.00000000000E+00 -0.18230973945E+02  0.18230973945E+02  0.00000000000E+00 0. -1.
          2    1    1    2  502    0 -0.19494176764E+02 -0.23262132235E+02 -0.38569624478E+01  0.30594540087E+02  0.00000000000E+00 0. -1.
         -2    1    1    2    0  502  0.19494176764E+02  0.23262132235E+02  0.22808574012E+03  0.23009618547E+03  0.00000000000E+00 0. -1.
<mgrwt>
<rscale>  2 0.30350448E+02</rscale>
<asrwt>0</asrwt>
<pdfrwt beam="2">  1        2 0.28047654E-02 0.30350448E+02</pdfrwt>
<pdfrwt beam="1">  1       -2 0.37301498E-01 0.30350448E+02</pdfrwt>
<totfact> 0.17398329E+04</totfact>
</mgrwt>
</event>
<event>
 4    1  0.1429937E+004  0.2131059E+02  0.7546771E-02  0.1720455E+00
          2   -1    0    0  501    0  0.00000000000E+00  0.00000000000E+00  0.80968509187E+03  0.80968509187E+03  0.00000000000E+00 0.  1.
         -2   -1    0    0    0  501 -0.00000000000E+00 -0.00000000000E+00 -0.60066858560E+00  0.60066858560E+00  0.00000000000E+00 0.  1.
          2    1    1    2  502    0  0.57176919815E+01  0.20529215570E+02  0.30027697352E+03  0.30103222671E+03  0.00000000000E+00 0.  1.
         -2    1    1    2    0  502 -0.57176919815E+01 -0.20529215570E+02  0.50880744976E+03  0.50925353374E+03  0.00000000000E+00 0.  1.
<mgrwt>
<rscale>  2 0.21310588E+02</rscale>
<asrwt>0</asrwt>
<pdfrwt beam="1">  1        2 0.12456606E+00 0.21310588E+02</pdfrwt>
<pdfrwt beam="2">  1       -2 0.92411200E-04 0.21310588E+02</pdfrwt>
<totfact> 0.12443447E+06</totfact>
</mgrwt>
</event>
<event>
 4    1  0.1429937E+004  0.2639902E+02  0.7546771E-02  0.1641684E+00
          2   -1    0    0  501    0  0.00000000000E+00  0.00000000000E+00  0.13050193803E+04  0.13050193803E+04  0.00000000000E+00 0.  1.
         -2   -1    0    0    0  501 -0.00000000000E+00 -0.00000000000E+00 -0.89312634083E+00  0.89312634083E+00  0.00000000000E+00 0. -1.
          2    1    1    2  502    0  0.13922481821E+02  0.22429283186E+02  0.10660993532E+04  0.10664261527E+04  0.00000000000E+00 0.  1.
         -2    1    1    2    0  502 -0.13922481821E+02 -0.22429283186E+02  0.23802690072E+03  0.23948635391E+03  0.00000000000E+00 0. -1.
<mgrwt>
<rscale>  2 0.26399020E+02</rscale>
<asrwt>0</asrwt>
<pdfrwt beam="1">  1        2 0.20077069E+00 0.26399020E+02</pdfrwt>
<pdfrwt beam="2">  1       -2 0.13740510E-03 0.26399020E+02</pdfrwt>
<totfact> 0.42541009E+05</totfact>
</mgrwt>
</event>
<event>
 4    1  0.1429937E+004  0.1214255E+03  0.7546771E-02  0.1240764E+00
         -2   -1    0    0    0  501 -0.00000000000E+00  0.00000000000E+00  0.42349459771E+02  0.42349459771E+02  0.00000000000E+00 0. -1.
          2   -1    0    0  501    0  0.00000000000E+00 -0.00000000000E+00 -0.49825221071E+03  0.49825221071E+03  0.00000000000E+00 0. -1.
          2    1    1    2  502    0  0.93516123413E+02  0.77452514713E+02 -0.37630894961E+03  0.39541444451E+03  0.00000000000E+00 0. -1.
         -2    1    1    2    0  502 -0.93516123413E+02 -0.77452514713E+02 -0.79593801327E+02  0.14518722596E+03  0.00000000000E+00 0. -1.
<mgrwt>
<rscale>  2 0.12142552E+03</rscale>
<asrwt>0</asrwt>
<pdfrwt beam="2">  1        2 0.76654184E-01 0.12142552E+03</pdfrwt>
<pdfrwt beam="1">  1       -2 0.65153017E-02 0.12142552E+03</pdfrwt>
<totfact> 0.77325353E+03</totfact>
</mgrwt>
</event>
<event>
 4    1  0.1429937E+004  0.2551220E+02  0.7546771E-02  0.1653752E+00
          2   -1    0    0  501    0  0.00000000000E+00  0.00000000000E+00  0.43540382403E+02  0.43540382403E+02  0.00000000000E+00 0.  1.
         -2   -1    0    0    0  501 -0.00000000000E+00 -0.00000000000E+00 -0.27322638605E+03  0.27322638605E+03  0.00000000000E+00 0. -1.
          2    1    1    2  502    0 -0.10477658882E+02  0.23261361149E+02  0.39146722037E+02  0.46726203617E+02  0.00000000000E+00 0.  1.
         -2    1    1    2    0  502  0.10477658882E+02 -0.23261361149E+02 -0.26883272568E+03  0.27004056483E+03  0.00000000000E+00 0. -1.
<mgrwt>
<rscale>  2 0.25512198E+02</rscale>
<asrwt>0</asrwt>
<pdfrwt beam="1">  1        2 0.66985202E-02 0.25512198E+02</pdfrwt>
<pdfrwt beam="2">  1       -2 0.42034830E-01 0.25512198E+02</pdfrwt>
<totfact> 0.46087348E+03</totfact>
</mgrwt>
</event>
<event>
 4    1  0.1429937E+004  0.2472287E+02  0.7546771E-02  0.1665015E+00
          2   -1    0    0  501    0  0.00000000000E+00  0.00000000000E+00  0.12502114361E+04  0.12502114361E+04  0.00000000000E+00 0. -1.
         -2   -1    0    0    0  501 -0.00000000000E+00 -0.00000000000E+00 -0.15706922684E+01  0.15706922684E+01  0.00000000000E+00 0. -1.
          2    1    1    2  502    0  0.16377638014E+02  0.18520078220E+02  0.11437496517E+04  0.11440168207E+04  0.00000000000E+00 0. -1.
         -2    1    1    2    0  502 -0.16377638014E+02 -0.18520078220E+02  0.10489109213E+03  0.10776530765E+03  0.00000000000E+00 0. -1.
<mgrwt>
<rscale>  2 0.24722870E+02</rscale>
<asrwt>0</asrwt>
<pdfrwt beam="1">  1        2 0.19233942E+00 0.24722870E+02</pdfrwt>
<pdfrwt beam="2">  1       -2 0.24164596E-03 0.24722870E+02</pdfrwt>
<totfact> 0.21051767E+05</totfact>
</mgrwt>
</event>
<event>
 4    1  0.1429937E+004  0.2052292E+02  0.7546771E-02  0.1735125E+00
          2   -1    0    0  501    0  0.00000000000E+00  0.00000000000E+00  0.76231382921E+03  0.76231382921E+03  0.00000000000E+00 0. -1.
         -2   -1    0    0    0  501 -0.00000000000E+00 -0.00000000000E+00 -0.47473573257E+02  0.47473573257E+02  0.00000000000E+00 0.  1.
          2    1    1    2  502    0 -0.46660600778E+00  0.20517610780E+02  0.75995078088E+03  0.76022784706E+03  0.00000000000E+00 0. -1.
         -2    1    1    2    0  502  0.46660600778E+00 -0.20517610780E+02 -0.45110524929E+02  0.49559555413E+02  0.00000000000E+00 0.  1.
<mgrwt>
<rscale>  2 0.20522916E+02</rscale>
<asrwt>0</asrwt>
<pdfrwt beam="1">  1        2 0.11727904E+00 0.20522916E+02</pdfrwt>
<pdfrwt beam="2">  1       -2 0.73036272E-02 0.20522916E+02</pdfrwt>
<totfact> 0.35669793E+03</totfact>
</mgrwt>
</event>
<event>
 4    1  0.1429937E+004  0.3727898E+02  0.7546771E-02  0.1529246E+00
         -2   -1    0    0    0  501 -0.00000000000E+00  0.00000000000E+00  0.15378428977E+01  0.15378428977E+01  0.00000000000E+00 0.  1.
          2   -1    0    0  501    0  0.00000000000E+00 -0.00000000000E+00 -0.15127614279E+04  0.15127614279E+04  0.00000000000E+00 0.  1.
          2    1    1    2  502    0 -0.26935949185E+02  0.25771631146E+02 -0.12360451358E+04  0.12366071729E+04  0.00000000000E+00 0.  1.
         -2    1    1    2    0  502  0.26935949185E+02 -0.25771631146E+02 -0.27517844927E+03  0.27769209797E+03  0.00000000000E+00 0.  1.
<mgrwt>
<rscale>  2 0.37278980E+02</rscale>
<asrwt>0</asrwt>
<pdfrwt beam="2">  1        2 0.23273246E+00 0.37278980E+02</pdfrwt>
<pdfrwt beam="1">  1       -2 0.23659129E-03 0.37278980E+02</pdfrwt>
<totfact> 0.17499226E+05</totfact>
</mgrwt>
</event>
<event>
 4    1  0.1429937E+004  0.2117447E+02  0.7546771E-02  0.1722933E+00
         -2   -1    0    0    0  501 -0.00000000000E+00  0.00000000000E+00  0.10750184178E+02  0.10750184178E+02  0.00000000000E+00 0.  1.
          2   -1    0    0  501    0  0.00000000000E+00 -0.00000000000E+00 -0.92062434809E+02  0.92062434809E+02  0.00000000000E+00 0. -1.
          2    1    1    2  502    0 -0.20837285233E+02 -0.37637292471E+01 -0.78674916157E+02  0.81474539250E+02  0.00000000000E+00 0. -1.
         -2    1    1    2    0  502  0.20837285233E+02  0.37637292471E+01 -0.26373344740E+01  0.21338079737E+02  0.00000000000E+00 0.  1.
<mgrwt>
<rscale>  2 0.21174468E+02</rscale>
<asrwt>0</asrwt>
<pdfrwt beam="2">  1        2 0.14163451E-01 0.21174468E+02</pdfrwt>
<pdfrwt beam="1">  1       -2 0.16538745E-02 0.21174468E+02</pdfrwt>
<totfact> 0.24761463E+05</totfact>
</mgrwt>
</event>
<event>
 4    1  0.1429937E+004  0.2717694E+02  0.7546771E-02  0.1631569E+00
         -2   -1    0    0    0  501 -0.00000000000E+00  0.00000000000E+00  0.26595529577E+01  0.26595529577E+01  0.00000000000E+00 0. -1.
          2   -1    0    0  501    0  0.00000000000E+00 -0.00000000000E+00 -0.93593671585E+03  0.93593671585E+03  0.00000000000E+00 0. -1.
          2    1    1    2  502    0 -0.26821371215E+02 -0.43817878274E+01 -0.86020056779E+03  0.86062977106E+03  0.00000000000E+00 0. -1.
         -2    1    1    2    0  502  0.26821371215E+02  0.43817878274E+01 -0.73076595103E+02  0.77966497742E+02  0.00000000000E+00 0. -1.
<mgrwt>
<rscale>  2 0.27176939E+02</rscale>
<asrwt>0</asrwt>
<pdfrwt beam="2">  1        2 0.14399015E+00 0.27176939E+02</pdfrwt>
<pdfrwt beam="1">  1       -2 0.40916233E-03 0.27176939E+02</pdfrwt>
<totfact> 0.15554281E+05</totfact>
</mgrwt>
</event>
<event>
 4    1  0.1429937E+004  0.4228188E+02  0.7546771E-02  0.1492061E+00
          2   -1    0    0  501    0  0.00000000000E+00  0.00000000000E+00  0.71116171664E+02  0.71116171664E+02  0.00000000000E+00 0. -1.
         -2   -1    0    0    0  501 -0.00000000000E+00 -0.00000000000E+00 -0.33602742672E+02  0.33602742672E+02  0.00000000000E+00 0. -1.
          2    1    1    2  502    0 -0.35524941012E+01  0.42132377070E+02  0.45035213294E+02  0.61773196844E+02  0.00000000000E+00 0. -1.
         -2    1    1    2    0  502  0.35524941012E+01 -0.42132377070E+02 -0.75217843016E+01  0.42945717493E+02  0.00000000000E+00 0. -1.
<mgrwt>
<rscale>  2 0.42281880E+02</rscale>
<asrwt>0</asrwt>
<pdfrwt beam="1">  1        2 0.10940950E-01 0.42281880E+02</pdfrwt>
<pdfrwt beam="2">  1       -2 0.51696527E-02 0.42281880E+02</pdfrwt>
<totfact> 0.79061198E+04</totfact>
</mgrwt>
</event>
<event>
 4    1  0.1429937E+004  0.2140280E+02  0.7546771E-02  0.1718790E+00
         -2   -1    0    0    0  501 -0.00000000000E+00  0.00000000000E+00  0.35503522661E+03  0.35503522661E+03  0.00000000000E+00 0. -1.
          2   -1    0    0  501    0  0.00000000000E+00 -0.00000000000E+00 -0.60651731279E+03  0.60651731279E+03  0.00000000000E+00 0. -1.
          2    1    1    2  502    0  0.91239393665E+01 -0.19360615227E+02 -0.60600566563E+03  0.60638349785E+03  0.00000000000E+00 0. -1.
         -2    1    1    2    0  502 -0.91239393665E+01  0.19360615227E+02  0.35452357944E+03  0.35516904155E+03  0.00000000000E+00 0. -1.
<mgrwt>
<rscale>  2 0.21402796E+02</rscale>
<asrwt>0</asrwt>
<pdfrwt beam="2">  1        2 0.93310355E-01 0.21402796E+02</pdfrwt>
<pdfrwt beam="1">  1       -2 0.54620804E-01 0.21402796E+02</pdfrwt>
<totfact> 0.17053359E+02</totfact>
</mgrwt>
</event>
<event>
 4    1  0.1429937E+004  0.2179576E+02  0.7546771E-02  0.1711808E+00
          2   -1    0    0  501    0  0.00000000000E+00  0.00000000000E+00  0.11712086415E+04  0.11712086415E+04  0.00000000000E+00 0. -1.
         -2   -1    0    0    0  501 -0.00000000000E+00 -0.00000000000E+00 -0.94616435756E+00  0.94616435756E+00  0.00000000000E+00 0.  1.
          2    1    1    2  502    0  0.13976620870E+02 -0.16724515414E+02  0.10281181428E+04  0.10283491484E+04  0.00000000000E+00 0. -1.
         -2    1    1    2    0  502 -0.13976620870E+02  0.16724515414E+02  0.14214433426E+03  0.14380565743E+03  0.00000000000E+00 0.  1.
<mgrwt>
<rscale>  2 0.21795764E+02</rscale>
<asrwt>0</asrwt>
<pdfrwt beam="1">  1        2 0.18018478E+00 0.21795764E+02</pdfrwt>
<pdfrwt beam="2">  1       -2 0.14556468E-03 0.21795764E+02</pdfrwt>
<totfact> 0.43744895E+05</totfact>
</mgrwt>
</event>
<event>
 4    1  0.1429937E+004  0.2097987E+02  0.7546771E-02  0.1726516E+00
          2   -1    0    0  501    0  0.00000000000E+00  0.00000000000E+00  0.15913307897E+04  0.15913307897E+04  0.00000000000E+00 0. -1.
         -2   -1    0    0    0  501 -0.00000000000E+00 -0.00000000000E+00 -0.16648966184E+01  0.16648966184E+01  0.00000000000E+00 0.  1.
          2    1    1    2  502    0 -0.19244516015E+02  0.83548601211E+01  0.15221651061E+04  0.15223096811E+04  0.00000000000E+00 0. -1.
         -2    1    1    2    0  502  0.19244516015E+02 -0.83548601211E+01  0.67500787027E+02  0.70686005217E+02  0.00000000000E+00 0.  1.
<mgrwt>
<rscale>  2 0.20979873E+02</rscale>
<asrwt>0</asrwt>
<pdfrwt beam="1">  1        2 0.24481891E+00 0.20979873E+02</pdfrwt>
<pdfrwt beam="2">  1       -2 0.25613921E-03 0.20979873E+02</pdfrwt>
<totfact> 0.12919886E+05</totfact>
</mgrwt>
</event>
<event>
 4    1  0.1429937E+004  0.2465576E+02  0.7546771E-02  0.1665996E+00
          2   -1    0    0  501    0  0.00000000000E+00  0.00000000000E+00  0.30681669627E+02  0.30681669627E+02  0.00000000000E+00 0.  1.
         -2   -1    0    0    0  501 -0.00000000000E+00 -0.00000000000E+00 -0.24678974830E+02  0.24678974830E+02  0.00000000000E+00 0.  1.
          2    1    1    2  502    0  0.20230479594E+02 -0.14093760298E+02  0.15292066506E+02  0.29012991607E+02  0.00000000000E+00 0.  1.
         -2    1    1    2    0  502 -0.20230479594E+02  0.14093760298E+02 -0.92893717093E+01  0.26347652850E+02  0.00000000000E+00 0.  1.
<mgrwt>
<rscale>  2 0.24655758E+02</rscale>
<asrwt>0</asrwt>
<pdfrwt beam="1">  1        2 0.47202568E-02 0.24655758E+02</pdfrwt>
<pdfrwt beam="2">  1       -2 0.37967654E-02 0.24655758E+02</pdfrwt>
<totfact> 0.29731234E+05</totfact>
</mgrwt>
</event>
<event>
 4    1  0.1429937E+004  0.3636396E+02  0.7546771E-02  0.1536811E+00
         -2   -1    0    0    0  501 -0.00000000000E+00  0.00000000000E+00  0.81731839610E+02  0.81731839610E+02  0.00000000000E+00 0.  1.
          2   -1    0    0  501    0  0.00000000000E+00 -0.00000000000E+00 -0.36434971527E+03  0.36434971527E+03  0.00000000000E+00 0. -1.
          2    1    1    2  502    0 -0.36077322542E+02 -0.45567994822E+01 -0.35934141379E+03  0.36117667323E+03  0.00000000000E+00 0. -1.
         -2    1    1    2    0  502  0.36077322542E+02  0.45567994822E+01  0.76723538133E+02  0.84904881644E+02  0.00000000000E+00 0.  1.
<mgrwt>
<rscale>  2 0.36363961E+02</rscale>
<asrwt>0</asrwt>
<pdfrwt beam="2">  1        2 0.56053802E-01 0.36363961E+02</pdfrwt>
<pdfrwt beam="1">  1       -2 0.12574129E-01 0.36363961E+02</pdfrwt>
<totfact> 0.35870373E+03</totfact>
</mgrwt>
</event>
<event>
 4    1  0.1429937E+004  0.2243393E+02  0.7546771E-02  0.1700854E+00
         -2   -1    0    0    0  501 -0.00000000000E+00  0.00000000000E+00  0.86126548880E+02  0.86126548880E+02  0.00000000000E+00 0. -1.
          2   -1    0    0  501    0  0.00000000000E+00 -0.00000000000E+00 -0.11330925805E+02  0.11330925805E+02  0.00000000000E+00 0. -1.
          2    1    1    2  502    0 -0.20069323493E+02 -0.10025143390E+02  0.34871358837E+01  0.22703333723E+02  0.00000000000E+00 0. -1.
         -2    1    1    2    0  502  0.20069323493E+02  0.10025143390E+02  0.71308487191E+02  0.74754140962E+02  0.00000000000E+00 0. -1.
<mgrwt>
<rscale>  2 0.22433931E+02</rscale>
<asrwt>0</asrwt>
<pdfrwt beam="2">  1        2 0.17432194E-02 0.22433931E+02</pdfrwt>
<pdfrwt beam="1">  1       -2 0.13250238E-01 0.22433931E+02</pdfrwt>
<totfact> 0.16467684E+05</totfact>
</mgrwt>
</event>
<event>
 4    1  0.1429937E+004  0.2035301E+02  0.7546771E-02  0.1738398E+00
         -2   -1    0    0    0  501 -0.00000000000E+00  0.00000000000E+00  0.50566384047E+00  0.50566384047E+00  0.00000000000E+00 0.  1.
          2   -1    0    0  501    0  0.00000000000E+00 -0.00000000000E+00 -0.84746533971E+03  0.84746533971E+03  0.00000000000E+00 0.  1.
          2    1    1    2  502    0  0.18918245109E+02 -0.75063275535E+01 -0.50089733677E+03  0.50131066908E+03  0.00000000000E+00 0.  1.
         -2    1    1    2    0  502 -0.18918245109E+02  0.75063275535E+01 -0.34606233910E+03  0.34666033447E+03  0.00000000000E+00 0.  1.
<mgrwt>
<rscale>  2 0.20353008E+02</rscale>
<asrwt>0</asrwt>
<pdfrwt beam="2">  1        2 0.13037822E+00 0.20353008E+02</pdfrwt>
<pdfrwt beam="1">  1       -2 0.77795074E-04 0.20353008E+02</pdfrwt>
<totfact> 0.14575011E+06</totfact>
</mgrwt>
</event>
<event>
 4    1  0.1429937E+004  0.2490981E+02  0.7546771E-02  0.1662301E+00
         -2   -1    0    0    0  501 -0.00000000000E+00  0.00000000000E+00  0.53683230994E+03  0.53683230994E+03  0.00000000000E+00 0. -1.
          2   -1    0    0  501    0  0.00000000000E+00 -0.00000000000E+00 -0.30003811952E+01  0.30003811952E+01  0.00000000000E+00 0. -1.
          2    1    1    2  502    0 -0.13479231889E+02 -0.20947765313E+02  0.55282781136E+02  0.60635669816E+02  0.00000000000E+00 0. -1.
         -2    1    1    2    0  502  0.13479231889E+02  0.20947765313E+02  0.47854914761E+03  0.47919702132E+03  0.00000000000E+00 0. -1.
<mgrwt>
<rscale>  2 0.24909809E+02</rscale>
<asrwt>0</asrwt>
<pdfrwt beam="2">  1        2 0.46159753E-03 0.24909809E+02</pdfrwt>
<pdfrwt beam="1">  1       -2 0.82589510E-01 0.24909809E+02</pdfrwt>
<totfact> 0.37117400E+04</totfact>
</mgrwt>
</event>
<event>
 4    1  0.1429937E+004  0.2274730E+02  0.7546771E-02  0.1695639E+00
         -2   -1    0    0    0  501 -0.00000000000E+00  0.00000000000E+00  0.96808590705E+00  0.96808590705E+00  0.00000000000E+00 0.  1.
          2   -1    0    0  501    0  0.00000000000E+00 -0.00000000000E+00 -0.56618723399E+03  0.56618723399E+03  0.00000000000E+00 0. -1.
          2    1    1    2  502    0  0.12642596830E+02  0.18910418278E+02 -0.21552022755E+03  0.21671734508E+03  0.00000000000E+00 0. -1.
         -2    1    1    2    0  502 -0.12642596830E+02 -0.18910418278E+02 -0.34969892053E+03  0.35043797482E+03  0.00000000000E+00 0.  1.
<mgrwt>
<rscale>  2 0.22747301E+02</rscale>
<asrwt>0</asrwt>
<pdfrwt beam="2">  1        2 0.87105858E-01 0.22747301E+02</pdfrwt>
<pdfrwt beam="1">  1       -2 0.14893607E-03 0.22747301E+02</pdfrwt>
<totfact> 0.99618286E+05</totfact>
</mgrwt>
</event>
<event>
 4    1  0.1429937E+004  0.2513234E+02  0.7546771E-02  0.1659108E+00
          2   -1    0    0  501    0  0.00000000000E+00  0.00000000000E+00  0.85524713680E+01  0.85524713680E+01  0.00000000000E+00 0.  1.
         -2   -1    0    0    0  501 -0.00000000000E+00 -0.00000000000E+00 -0.13892110317E+03  0.13892110317E+03  0.00000000000E+00 0. -1.
          2    1    1    2  502    0  0.24642263112E+02 -0.49389859464E+01 -0.14720435390E+02  0.29126035287E+02  0.00000000000E+00 0.  1.
         -2    1    1    2    0  502 -0.24642263112E+02  0.49389859464E+01 -0.11564819641E+03  0.11834753925E+03  0.00000000000E+00 0. -1.
<mgrwt>
<rscale>  2 0.25132344E+02</rscale>
<asrwt>0</asrwt>
<pdfrwt beam="1">  1        2 0.13157650E-02 0.25132344E+02</pdfrwt>
<pdfrwt beam="2">  1       -2 0.21372475E-01 0.25132344E+02</pdfrwt>
<totfact> 0.11502198E+05</totfact>
</mgrwt>
</event>
<event>
 4    1  0.1429937E+004  0.2232291E+02  0.7546771E-02  0.1702727E+00
         -2   -1    0    0    0  501 -0.00000000000E+00  0.00000000000E+00  0.12113308803E+03  0.12113308803E+03  0.00000000000E+00 0.  1.
          2   -1    0    0  501    0  0.00000000000E+00 -0.00000000000E+00 -0.48680765493E+01  0.48680765493E+01  0.00000000000E+00 0. -1.
          2    1    1    2  502    0  0.12348438804E+02 -0.18596457192E+02  0.33332980075E+02  0.40117324458E+02  0.00000000000E+00 0. -1.
         -2    1    1    2    0  502 -0.12348438804E+02  0.18596457192E+02  0.82932031409E+02  0.85883840125E+02  0.00000000000E+00 0.  1.
<mgrwt>
<rscale>  2 0.22322907E+02</rscale>
<asrwt>0</asrwt>
<pdfrwt beam="2">  1        2 0.74893495E-03 0.22322907E+02</pdfrwt>
<pdfrwt beam="1">  1       -2 0.18635857E-01 0.22322907E+02</pdfrwt>
<totfact> 0.28894889E+05</totfact>
</mgrwt>
</event>
<event>
 4    1  0.1429937E+004  0.4132182E+02  0.7546771E-02  0.1498704E+00
          2   -1    0    0  501    0  0.00000000000E+00  0.00000000000E+00  0.15037579554E+04  0.15037579554E+04  0.00000000000E+00 0.  1.
         -2   -1    0    0    0  501 -0.00000000000E+00 -0.00000000000E+00 -0.15366269503E+02  0.15366269503E+02  0.00000000000E+00 0.  1.
          2    1    1    2  502    0  0.40644147879E+02  0.74529337518E+01  0.14751556686E+04  0.14757343052E+04  0.00000000000E+00 0.  1.
         -2    1    1    2    0  502 -0.40644147879E+02 -0.74529337518E+01  0.13236017321E+02  0.43389919715E+02  0.00000000000E+00 0.  1.
<mgrwt>
<rscale>  2 0.41321822E+02</rscale>
<asrwt>0</asrwt>
<pdfrwt beam="1">  1        2 0.23134726E+00 0.41321822E+02</pdfrwt>
<pdfrwt beam="2">  1       -2 0.23640426E-02 0.41321822E+02</pdfrwt>
<totfact> 0.75523001E+03</totfact>
</mgrwt>
</event>
<event>
 4    1  0.1429937E+004  0.2016817E+02  0.7546771E-02  0.1742004E+00
         -2   -1    0    0    0  501 -0.00000000000E+00  0.00000000000E+00  0.49128780273E+00  0.49128780273E+00  0.00000000000E+00 0. -1.
          2   -1    0    0  501    0  0.00000000000E+00 -0.00000000000E+00 -0.11754421889E+04  0.11754421889E+04  0.00000000000E+00 0. -1.
          2    1    1    2  502    0 -0.17057295756E+02  0.10761222891E+02 -0.90716827335E+03  0.90739243519E+03  0.00000000000E+00 0. -1.
         -2    1    1    2    0  502  0.17057295756E+02 -0.10761222891E+02 -0.26778262772E+03  0.26854104149E+03  0.00000000000E+00 0. -1.
<mgrwt>
<rscale>  2 0.20168174E+02</rscale>
<asrwt>0</asrwt>
<pdfrwt beam="2">  1        2 0.18083863E+00 0.20168174E+02</pdfrwt>
<pdfrwt beam="1">  1       -2 0.75582168E-04 0.20168174E+02</pdfrwt>
<totfact> 0.10054268E+06</totfact>
</mgrwt>
</event>
<event>
 4    1  0.1429937E+004  0.2016764E+02  0.7546771E-02  0.1742015E+00
         -2   -1    0    0    0  501 -0.00000000000E+00  0.00000000000E+00  0.18592815404E+03  0.18592815404E+03  0.00000000000E+00 0. -1.
          2   -1    0    0  501    0  0.00000000000E+00 -0.00000000000E+00 -0.32428287452E+01  0.32428287452E+01  0.00000000000E+00 0.  1.
          2    1    1    2  502    0  0.99091529138E+01  0.17565371621E+02  0.37386759651E+02  0.42479446664E+02  0.00000000000E+00 0.  1.
         -2    1    1    2    0  502 -0.99091529138E+01 -0.17565371621E+02  0.14529856565E+03  0.14669153613E+03  0.00000000000E+00 0. -1.
<mgrwt>
<rscale>  2 0.20167637E+02</rscale>
<asrwt>0</asrwt>
<pdfrwt beam="2">  1        2 0.49889688E-03 0.20167637E+02</pdfrwt>
<pdfrwt beam="1">  1       -2 0.28604323E-01 0.20167637E+02</pdfrwt>
<totfact> 0.23530459E+05</totfact>
</mgrwt>
</event>
<event>
 4    1  0.1429937E+004  0.2542711E+02  0.7546771E-02  0.1654942E+00
         -2   -1    0    0    0  501 -0.00000000000E+00  0.00000000000E+00  0.43386818755E+03  0.43386818755E+03  0.00000000000E+00 0. -1.
          2   -1    0    0  501    0  0.00000000000E+00 -0.00000000000E+00 -0.40298552804E+01  0.40298552804E+01  0.00000000000E+00 0. -1.
          2    1    1    2  502    0  0.13196325746E+02 -0.21734643486E+02  0.41103803532E+02  0.48332808790E+02  0.00000000000E+00 0. -1.
         -2    1    1    2    0  502 -0.13196325746E+02  0.21734643486E+02  0.38873452874E+03  0.38956523404E+03  0.00000000000E+00 0. -1.
<mgrwt>
<rscale>  2 0.25427106E+02</rscale>
<asrwt>0</asrwt>
<pdfrwt beam="2">  1        2 0.61997808E-03 0.25427106E+02</pdfrwt>
<pdfrwt beam="1">  1       -2 0.66748915E-01 0.25427106E+02</pdfrwt>
<totfact> 0.39392240E+04</totfact>
</mgrwt>
</event>
<event>
 4    1  0.1429937E+004  0.2498821E+02  0.7546771E-02  0.1661171E+00
          2   -1    0    0  501    0  0.00000000000E+00  0.00000000000E+00  0.34820036956E+02  0.34820036956E+02  0.00000000000E+00 0.  1.
         -2   -1    0    0    0  501 -0.00000000000E+00 -0.00000000000E+00 -0.17932979890E+02  0.17932979890E+02  0.00000000000E+00 0. -1.
          2    1    1    2  502    0  0.17435019136E+01  0.24927308222E+02  0.85792322413E+01  0.26419949280E+02  0.00000000000E+00 0.  1.
         -2    1    1    2    0  502 -0.17435019136E+01 -0.24927308222E+02  0.83078248250E+01  0.26333067566E+02  0.00000000000E+00 0. -1.
<mgrwt>
<rscale>  2 0.24988207E+02</rscale>
<asrwt>0</asrwt>
<pdfrwt beam="1">  1        2 0.53569287E-02 0.24988207E+02</pdfrwt>
<pdfrwt beam="2">  1       -2 0.27589200E-02 0.24988207E+02</pdfrwt>
<totfact> 0.39926139E+05</totfact>
</mgrwt>
</event>
<event>
 4    1  0.1429937E+004  0.3646773E+02  0.7546771E-02  0.1535940E+00
          2   -1    0    0  501    0  0.00000000000E+00  0.00000000000E+00  0.43787395515E+02  0.43787395515E+02  0.00000000000E+00 0. -1.
         -2   -1    0    0    0  501 -0.00000000000E+00 -0.00000000000E+00 -0.30670698752E+02  0.30670698752E+02  0.00000000000E+00 0.  1.
          2    1    1    2  502    0 -0.16693412092E+01 -0.36429480174E+02  0.28819743539E+01  0.36581409240E+02  0.00000000000E+00 0. -1.
         -2    1    1    2    0  502  0.16693412092E+01  0.36429480174E+02  0.10234722410E+02  0.37876685027E+02  0.00000000000E+00 0.  1.
<mgrwt>
<rscale>  2 0.36467726E+02</rscale>
<asrwt>0</asrwt>
<pdfrwt beam="1">  1        2 0.67365224E-02 0.36467726E+02</pdfrwt>
<pdfrwt beam="2">  1       -2 0.47185690E-02 0.36467726E+02</pdfrwt>
<totfact> 0.15609244E+05</totfact>
</mgrwt>
</event>
<event>
 4    1  0.1429937E+004  0.2343304E+02  0.7546771E-02  0.1684585E+00
          2   -1    0    0  501    0  0.00000000000E+00  0.00000000000E+00  0.32872425003E+02  0.32872425003E+02  0.00000000000E+00 0. -1.
         -2   -1    0    0    0  501 -0.00000000000E+00 -0.00000000000E+00 -0.20180504183E+02  0.20180504183E+02  0.00000000000E+00 0. -1.
          2    1    1    2  502    0 -0.22402478284E+02  0.68728819882E+01  0.17355579467E+02  0.29160309990E+02  0.00000000000E+00 0. -1.
         -2    1    1    2    0  502  0.22402478284E+02 -0.68728819882E+01 -0.46636586467E+01  0.23892619196E+02  0.00000000000E+00 0. -1.
<mgrwt>
<rscale>  2 0.23433044E+02</rscale>
<asrwt>0</asrwt>
<pdfrwt beam="1">  1        2 0.50572962E-02 0.23433044E+02</pdfrwt>
<pdfrwt beam="2">  1       -2 0.31046929E-02 0.23433044E+02</pdfrwt>
<totfact> 0.35654855E+05</totfact>
</mgrwt>
</event>
<event>
 4    1  0.1429937E+004  0.2649883E+02  0.7546771E-02  0.1640362E+00
         -2   -1    0    0    0  501 -0.00000000000E+00  0.00000000000E+00  0.76548409312E+01  0.76548409312E+01  0.00000000000E+00 0.  1.
          2   -1    0    0  501    0  0.00000000000E+00 -0.00000000000E+00 -0.57675573291E+03  0.57675573291E+03  0.00000000000E+00 0. -1.
          2    1    1    2  502    0 -0.72152452086E+01  0.25497609108E+02 -0.55251290667E+03  0.55314799093E+03  0.00000000000E+00 0. -1.
         -2    1    1    2    0  502  0.72152452086E+01 -0.25497609108E+02 -0.16587985310E+02  0.31262582911E+02  0.00000000000E+00 0.  1.
<mgrwt>
<rscale>  2 0.26498827E+02</rscale>
<asrwt>0</asrwt>
<pdfrwt beam="2">  1        2 0.88731626E-01 0.26498827E+02</pdfrwt>
<pdfrwt beam="1">  1       -2 0.11776682E-02 0.26498827E+02</pdfrwt>
<totfact> 0.63570802E+04</totfact>
</mgrwt>
</event>
<event>
 4    1  0.1429937E+004  0.4639361E+02  0.7546771E-02  0.1465825E+00
         -2   -1    0    0    0  501 -0.00000000000E+00  0.00000000000E+00  0.18805151881E+03  0.18805151881E+03  0.00000000000E+00 0. -1.
          2   -1    0    0  501    0  0.00000000000E+00 -0.00000000000E+00 -0.55272261192E+02  0.55272261192E+02  0.00000000000E+00 0.  1.
          2    1    1    2  502    0 -0.12750195977E+02 -0.44607166667E+02 -0.41945678964E+02  0.62544438596E+02  0.00000000000E+00 0.  1.
         -2    1    1    2    0  502  0.12750195977E+02  0.44607166667E+02  0.17472493659E+03  0.18077934141E+03  0.00000000000E+00 0. -1.
<mgrwt>
<rscale>  2 0.46393607E+02</rscale>
<asrwt>0</asrwt>
<pdfrwt beam="2">  1        2 0.85034249E-02 0.46393607E+02</pdfrwt>
<pdfrwt beam="1">  1       -2 0.28931003E-01 0.46393607E+02</pdfrwt>
<totfact> 0.72799169E+03</totfact>
</mgrwt>
</event>
<event>
 4    1  0.1429937E+004  0.2049710E+02  0.7546771E-02  0.1735619E+00
         -2   -1    0    0    0  501 -0.00000000000E+00  0.00000000000E+00  0.12210565035E+03  0.12210565035E+03  0.00000000000E+00 0. -1.
          2   -1    0    0  501    0  0.00000000000E+00 -0.00000000000E+00 -0.16033159212E+03  0.16033159212E+03  0.00000000000E+00 0. -1.
          2    1    1    2  502    0  0.12707366147E+02 -0.16082727428E+02 -0.15880809693E+03  0.16012539750E+03  0.00000000000E+00 0. -1.
         -2    1    1    2    0  502 -0.12707366147E+02  0.16082727428E+02  0.12058215516E+03  0.12231184497E+03  0.00000000000E+00 0. -1.
<mgrwt>
<rscale>  2 0.20497104E+02</rscale>
<asrwt>0</asrwt>
<pdfrwt beam="2">  1        2 0.24666399E-01 0.20497104E+02</pdfrwt>
<pdfrwt beam="1">  1       -2 0.18785485E-01 0.20497104E+02</pdfrwt>
<totfact> 0.41177726E+03</totfact>
</mgrwt>
</event>
<event>
 4    1  0.1429937E+004  0.2793621E+02  0.7546771E-02  0.1622089E+00
         -2   -1    0    0    0  501 -0.00000000000E+00  0.00000000000E+00  0.47150796204E+00  0.47150796204E+00  0.00000000000E+00 0. -1.
          2   -1    0    0  501    0  0.00000000000E+00 -0.00000000000E+00 -0.16703069632E+04  0.16703069632E+04  0.00000000000E+00 0.  1.
          2    1    1    2  502    0  0.15045318281E+02  0.23538699087E+02 -0.91440978308E+03  0.91483642436E+03  0.00000000000E+00 0.  1.
         -2    1    1    2    0  502 -0.15045318281E+02 -0.23538699087E+02 -0.75542567221E+03  0.75594204684E+03  0.00000000000E+00 0. -1.
<mgrwt>
<rscale>  2 0.27936212E+02</rscale>
<asrwt>0</asrwt>
<pdfrwt beam="2">  1        2 0.25697489E+00 0.27936212E+02</pdfrwt>
<pdfrwt beam="1">  1       -2 0.72538392E-04 0.27936212E+02</pdfrwt>
<totfact> 0.67188850E+05</totfact>
</mgrwt>
</event>
<event>
 4    1  0.1429937E+004  0.2027373E+02  0.7546771E-02  0.1739939E+00
         -2   -1    0    0    0  501 -0.00000000000E+00  0.00000000000E+00  0.38247654412E+02  0.38247654412E+02  0.00000000000E+00 0.  1.
          2   -1    0    0  501    0  0.00000000000E+00 -0.00000000000E+00 -0.46061025849E+02  0.46061025849E+02  0.00000000000E+00 0. -1.
          2    1    1    2  502    0 -0.20230690957E+02  0.13203502804E+01 -0.40817435156E+02  0.45575072070E+02  0.00000000000E+00 0. -1.
         -2    1    1    2    0  502  0.20230690957E+02 -0.13203502804E+01  0.33004063720E+02  0.38733608191E+02  0.00000000000E+00 0.  1.
<mgrwt>
<rscale>  2 0.20273731E+02</rscale>
<asrwt>0</asrwt>
<pdfrwt beam="2">  1        2 0.70863117E-02 0.20273731E+02</pdfrwt>
<pdfrwt beam="1">  1       -2 0.58842545E-02 0.20273731E+02</pdfrwt>
<totfact> 0.92763410E+04</totfact>
</mgrwt>
</event>
<event>
 4    1  0.1429937E+004  0.2256418E+02  0.7546771E-02  0.1698674E+00
         -2   -1    0    0    0  501 -0.00000000000E+00  0.00000000000E+00  0.75181079068E+01  0.75181079068E+01  0.00000000000E+00 0. -1.
          2   -1    0    0  501    0  0.00000000000E+00 -0.00000000000E+00 -0.67847239114E+03  0.67847239114E+03  0.00000000000E+00 0. -1.
          2    1    1    2  502    0 -0.35473652343E+01 -0.22283593087E+02 -0.66090433751E+03  0.66128941142E+03  0.00000000000E+00 0. -1.
         -2    1    1    2    0  502  0.35473652343E+01  0.22283593087E+02 -0.10049945730E+02  0.24701087631E+02  0.00000000000E+00 0. -1.
<mgrwt>
<rscale>  2 0.22564182E+02</rscale>
<asrwt>0</asrwt>
<pdfrwt beam="2">  1        2 0.10438039E+00 0.22564182E+02</pdfrwt>
<pdfrwt beam="1">  1       -2 0.11566318E-02 0.22564182E+02</pdfrwt>
<totfact> 0.53153364E+04</totfact>
</mgrwt>
</event>
<event>
 4    1  0.1429937E+004  0.2947877E+02  0.7546771E-02  0.1603923E+00
         -2   -1    0    0    0  501 -0.00000000000E+00  0.00000000000E+00  0.42767223783E+01  0.42767223783E+01  0.00000000000E+00 0. -1.
          2   -1    0    0  501    0  0.00000000000E+00 -0.00000000000E+00 -0.36190703747E+03  0.36190703747E+03  0.00000000000E+00 0.  1.
          2    1    1    2  502    0 -0.28421567996E+02  0.78238439969E+01 -0.30006435579E+03  0.30150889817E+03  0.00000000000E+00 0.  1.
         -2    1    1    2    0  502  0.28421567996E+02 -0.78238439969E+01 -0.57565959297E+02  0.64674861670E+02  0.00000000000E+00 0. -1.
<mgrwt>
<rscale>  2 0.29478773E+02</rscale>
<asrwt>0</asrwt>
<pdfrwt beam="2">  1        2 0.55678027E-01 0.29478773E+02</pdfrwt>
<pdfrwt beam="1">  1       -2 0.65795704E-03 0.29478773E+02</pdfrwt>
<totfact> 0.23040707E+05</totfact>
</mgrwt>
</event>
<event>
 4    1  0.1429937E+004  0.2080836E+02  0.7546771E-02  0.1729715E+00
          2   -1    0    0  501    0  0.00000000000E+00  0.00000000000E+00  0.38021699870E+03  0.38021699870E+03  0.00000000000E+00 0.  1.
         -2   -1    0    0    0  501 -0.00000000000E+00 -0.00000000000E+00 -0.29528455193E+02  0.29528455193E+02  0.00000000000E+00 0.  1.
          2    1    1    2  502    0 -0.26333824503E+00  0.20806697865E+02  0.37622760490E+03  0.37680259914E+03  0.00000000000E+00 0.  1.
         -2    1    1    2    0  502  0.26333824503E+00 -0.20806697865E+02 -0.25539061393E+02  0.32942854762E+02  0.00000000000E+00 0.  1.
<mgrwt>
<rscale>  2 0.20808364E+02</rscale>
<asrwt>0</asrwt>
<pdfrwt beam="1">  1        2 0.58494919E-01 0.20808364E+02</pdfrwt>
<pdfrwt beam="2">  1       -2 0.45428395E-02 0.20808364E+02</pdfrwt>
<totfact> 0.14342723E+04</totfact>
</mgrwt>
</event>
<event>
 4    1  0.1429937E+004  0.2492880E+02  0.7546771E-02  0.1662027E+00
          2   -1    0    0  501    0  0.00000000000E+00  0.00000000000E+00  0.11514591423E+04  0.11514591423E+04  0.00000000000E+00 0.  1.
         -2   -1    0    0    0  501 -0.00000000000E+00 -0.00000000000E+00 -0.81975621043E+02  0.81975621043E+02  0.00000000000E+00 0. -1.
          2    1    1    2  502    0  0.14833244497E+02  0.20035463970E+02  0.11494256516E+04  0.11496959483E+04  0.00000000000E+00 0.  1.
         -2    1    1    2    0  502 -0.14833244497E+02 -0.20035463970E+02 -0.79942130293E+02  0.83738815102E+02  0.00000000000E+00 0. -1.
<mgrwt>
<rscale>  2 0.24928798E+02</rscale>
<asrwt>0</asrwt>
<pdfrwt beam="1">  1        2 0.17714755E+00 0.24928798E+02</pdfrwt>
<pdfrwt beam="2">  1       -2 0.12611635E-01 0.24928798E+02</pdfrwt>
<totfact> 0.97115141E+02</totfact>
</mgrwt>
</event>
<event>
 4    1  0.1429937E+004  0.3549039E+02  0.7546771E-02  0.1544288E+00
          2   -1    0    0  501    0  0.00000000000E+00  0.00000000000E+00  0.24767107167E+02  0.24767107167E+02  0.00000000000E+00 0.  1.
         -2   -1    0    0    0  501 -0.00000000000E+00 -0.00000000000E+00 -0.19825217313E+03  0.19825217313E+03  0.00000000000E+00 0.  1.
          2    1    1    2  502    0  0.20805823601E+02  0.28752143590E+02  0.94066997685E+01  0.36715855666E+02  0.00000000000E+00 0.  1.
         -2    1    1    2    0  502 -0.20805823601E+02 -0.28752143590E+02 -0.18289176573E+03  0.18630342463E+03  0.00000000000E+00 0.  1.
<mgrwt>
<rscale>  2 0.35490394E+02</rscale>
<asrwt>0</asrwt>
<pdfrwt beam="1">  1        2 0.38103242E-02 0.35490394E+02</pdfrwt>
<pdfrwt beam="2">  1       -2 0.30500334E-01 0.35490394E+02</pdfrwt>
<totfact> 0.17291640E+04</totfact>
</mgrwt>
</event>
<event>
 4    1  0.1429937E+004  0.3124716E+02  0.7546771E-02  0.1584698E+00
         -2   -1    0    0    0  501 -0.00000000000E+00  0.00000000000E+00  0.29393777169E+01  0.29393777169E+01  0.00000000000E+00 0. -1.
          2   -1    0    0  501    0  0.00000000000E+00 -0.00000000000E+00 -0.90826403218E+03  0.90826403218E+03  0.00000000000E+00 0. -1.
          2    1    1    2  502    0 -0.31754361883E+01 -0.31085393503E+02 -0.81551007641E+03  0.81610849145E+03  0.00000000000E+00 0. -1.
         -2    1    1    2    0  502  0.31754361883E+01  0.31085393503E+02 -0.89814578049E+02  0.95094918447E+02  0.00000000000E+00 0. -1.
<mgrwt>
<rscale>  2 0.31247161E+02</rscale>
<asrwt>0</asrwt>
<pdfrwt beam="2">  1        2 0.13973316E+00 0.31247161E+02</pdfrwt>
<pdfrwt beam="1">  1       -2 0.45221120E-03 0.31247161E+02</pdfrwt>
<totfact> 0.14517085E+05</totfact>
</mgrwt>
</event>
<event>
 4    1  0.1429937E+004  0.2111869E+02  0.7546771E-02  0.1723955E+00
          2   -1    0    0  501    0  0.00000000000E+00  0.00000000000E+00  0.26787831381E+02  0.26787831381E+02  0.00000000000E+00 0. -1.
         -2   -1    0    0    0  501 -0.00000000000E+00 -0.00000000000E+00 -0.90221083718E+02  0.90221083718E+02  0.00000000000E+00 0.  1.
          2    1    1    2  502    0 -0.20833732175E+02  0.34575655689E+01  0.21114579660E+02  0.29863432994E+02  0.00000000000E+00 0. -1.
         -2    1    1    2    0  502  0.20833732175E+02 -0.34575655689E+01 -0.84547831997E+02  0.87145482105E+02  0.00000000000E+00 0.  1.
<mgrwt>
<rscale>  2 0.21118692E+02</rscale>
<asrwt>0</asrwt>
<pdfrwt beam="1">  1        2 0.41212048E-02 0.21118692E+02</pdfrwt>
<pdfrwt beam="2">  1       -2 0.13880167E-01 0.21118692E+02</pdfrwt>
<totfact> 0.50959558E+04</totfact>
</mgrwt>
</event>
<event>
 4    1  0.1429937E+004  0.2849944E+02  0.7546771E-02  0.1615293E+00
         -2   -1    0    0    0  501 -0.00000000000E+00  0.00000000000E+00  0.94333718438E+02  0.94333718438E+02  0.00000000000E+00 0. -1.
          2   -1    0    0  501    0  0.00000000000E+00 -0.00000000000E+00 -0.15402810086E+04  0.15402810086E+04  0.00000000000E+00 0. -1.
          2    1    1    2  502    0  0.84733394837E+00 -0.28486841757E+02 -0.15379934650E+04  0.15382574936E+04  0.00000000000E+00 0. -1.
         -2    1    1    2    0  502 -0.84733394837E+00  0.28486841757E+02  0.92046174870E+02  0.96357233441E+02  0.00000000000E+00 0. -1.
<mgrwt>
<rscale>  2 0.28499441E+02</rscale>
<asrwt>0</asrwt>
<pdfrwt beam="2">  1        2 0.23696630E+00 0.28499441E+02</pdfrwt>
<pdfrwt beam="1">  1       -2 0.14512880E-01 0.28499441E+02</pdfrwt>
<totfact> 0.50441473E+02</totfact>
</mgrwt>
</event>
<event>
 4    1  0.1429937E+004  0.3873827E+02  0.7546771E-02  0.1517707E+00
          2   -1    0    0  501    0  0.00000000000E+00  0.00000000000E+00  0.31222790765E+03  0.31222790765E+03  0.00000000000E+00 0. -1.
         -2   -1    0    0    0  501 -0.00000000000E+00 -0.00000000000E+00 -0.37306327833E+02  0.37306327833E+02  0.00000000000E+00 0.  1.
          2    1    1    2  502    0  0.32625634547E+02 -0.20885908867E+02  0.30058202668E+03  0.30306799234E+03  0.00000000000E+00 0. -1.
         -2    1    1    2    0  502 -0.32625634547E+02  0.20885908867E+02 -0.25660446861E+02  0.46466243144E+02  0.00000000000E+00 0.  1.
<mgrwt>
<rscale>  2 0.38738266E+02</rscale>
<asrwt>0</asrwt>
<pdfrwt beam="1">  1        2 0.48035061E-01 0.38738266E+02</pdfrwt>
<pdfrwt beam="2">  1       -2 0.57394353E-02 0.38738266E+02</pdfrwt>
<totfact> 0.13655798E+04</totfact>
</mgrwt>
</event>
<event>
 4    1  0.1429937E+004  0.2415288E+02  0.7546771E-02  0.1673476E+00
         -2   -1    0    0    0  501 -0.00000000000E+00  0.00000000000E+00  0.51272239727E+01  0.51272239727E+01  0.00000000000E+00 0. -1.
          2   -1    0    0  501    0  0.00000000000E+00 -0.00000000000E+00 -0.16595045877E+03  0.16595045877E+03  0.00000000000E+00 0.  1.
          2    1    1    2  502    0  0.44408998639E+01  0.23741108260E+02 -0.12837365319E+03  0.13062601826E+03  0.00000000000E+00 0.  1.
         -2    1    1    2    0  502 -0.44408998639E+01 -0.23741108260E+02 -0.32449581612E+02  0.40451664488E+02  0.00000000000E+00 0. -1.
<mgrwt>
<rscale>  2 0.24152884E+02</rscale>
<asrwt>0</asrwt>
<pdfrwt beam="2">  1        2 0.25530842E-01 0.24152884E+02</pdfrwt>
<pdfrwt beam="1">  1       -2 0.78880363E-03 0.24152884E+02</pdfrwt>
<totfact> 0.37438098E+05</totfact>
</mgrwt>
</event>
<event>
 4    1  0.1429937E+004  0.2190165E+02  0.7546771E-02  0.1709958E+00
          2   -1    0    0  501    0  0.00000000000E+00  0.00000000000E+00  0.40110001382E+03  0.40110001382E+03  0.00000000000E+00 0. -1.
         -2   -1    0    0    0  501 -0.00000000000E+00 -0.00000000000E+00 -0.92760804483E+02  0.92760804483E+02  0.00000000000E+00 0. -1.
          2    1    1    2  502    0  0.13465250902E+02  0.17273368140E+02  0.39950307740E+03  0.40010297559E+03  0.00000000000E+00 0. -1.
         -2    1    1    2    0  502 -0.13465250902E+02 -0.17273368140E+02 -0.91163868063E+02  0.93757842706E+02  0.00000000000E+00 0. -1.
<mgrwt>
<rscale>  2 0.21901649E+02</rscale>
<asrwt>0</asrwt>
<pdfrwt beam="1">  1        2 0.61707693E-01 0.21901649E+02</pdfrwt>
<pdfrwt beam="2">  1       -2 0.14270893E-01 0.21901649E+02</pdfrwt>
<totfact> 0.25623830E+03</totfact>
</mgrwt>
</event>
<event>
 4    1  0.1429937E+004  0.2285939E+02  0.7546771E-02  0.1693800E+00
          2   -1    0    0  501    0  0.00000000000E+00  0.00000000000E+00  0.32521927711E+03  0.32521927711E+03  0.00000000000E+00 0. -1.
         -2   -1    0    0    0  501 -0.00000000000E+00 -0.00000000000E+00 -0.38334998710E+01  0.38334998710E+01  0.00000000000E+00 0.  1.
          2    1    1    2  502    0  0.22827118971E+02 -0.12141653848E+01  0.28608548977E+03  0.28699731534E+03  0.00000000000E+00 0. -1.
         -2    1    1    2    0  502 -0.22827118971E+02  0.12141653848E+01  0.35300287471E+02  0.42055461638E+02  0.00000000000E+00 0.  1.
<mgrwt>
<rscale>  2 0.22859387E+02</rscale>
<asrwt>0</asrwt>
<pdfrwt beam="1">  1        2 0.50033713E-01 0.22859387E+02</pdfrwt>
<pdfrwt beam="2">  1       -2 0.58976947E-03 0.22859387E+02</pdfrwt>
<totfact> 0.27788440E+05</totfact>
</mgrwt>
</event>
<event>
 4    1  0.1429937E+004  0.2110947E+02  0.7546771E-02  0.1724124E+00
          2   -1    0    0  501    0  0.00000000000E+00  0.00000000000E+00  0.29832658683E+01  0.29832658683E+01  0.00000000000E+00 0.  1.
         -2   -1    0    0    0  501 -0.00000000000E+00 -0.00000000000E+00 -0.14949394875E+03  0.14949394875E+03  0.00000000000E+00 0.  1.
          2    1    1    2  502    0 -0.96157585594E+01  0.18792194498E+02 -0.75453665811E+02  0.78350909829E+02  0.00000000000E+00 0.  1.
         -2    1    1    2    0  502  0.96157585594E+01 -0.18792194498E+02 -0.71057017074E+02  0.74126304792E+02  0.00000000000E+00 0.  1.
<mgrwt>
<rscale>  2 0.21109473E+02</rscale>
<asrwt>0</asrwt>
<pdfrwt beam="1">  1        2 0.45896415E-03 0.21109473E+02</pdfrwt>
<pdfrwt beam="2">  1       -2 0.22999060E-01 0.21109473E+02</pdfrwt>
<totfact> 0.38318153E+05</totfact>
</mgrwt>
</event>
<event>
 4    1  0.1429937E+004  0.3648832E+02  0.7546771E-02  0.1535768E+00
          2   -1    0    0  501    0  0.00000000000E+00  0.00000000000E+00  0.14753959234E+04  0.14753959234E+04  0.00000000000E+00 0. -1.
         -2   -1    0    0    0  501 -0.00000000000E+00 -0.00000000000E+00 -0.33555431638E+02  0.33555431638E+02  0.00000000000E+00 0. -1.
          2    1    1    2  502    0 -0.18222831792E+02 -0.31612115790E+02  0.14651817951E+04  0.14656360702E+04  0.00000000000E+00 0. -1.
         -2    1    1    2    0  502  0.18222831792E+02  0.31612115790E+02 -0.23341303333E+02  0.43315284883E+02  0.00000000000E+00 0. -1.
<mgrwt>
<rscale>  2 0.36488320E+02</rscale>
<asrwt>0</asrwt>
<pdfrwt beam="1">  1        2 0.22698394E+00 0.36488320E+02</pdfrwt>
<pdfrwt beam="2">  1       -2 0.51623752E-02 0.36488320E+02</pdfrwt>
<totfact> 0.25448646E+03</totfact>
</mgrwt>
</event>
<event>
 4    1  0.1429937E+004  0.2771278E+02  0.7546771E-02  0.1624840E+00
          2   -1    0    0  501    0  0.00000000000E+00  0.00000000000E+00  0.37036667977E+03  0.37036667977E+03  0.00000000000E+00 0.  1.
         -2   -1    0    0    0  501 -0.00000000000E+00 -0.00000000000E+00 -0.76780669811E+02  0.76780669811E+02  0.00000000000E+00 0. -1.
          2    1    1    2  502    0  0.16574206460E+02  0.22210221391E+02  0.36732698836E+03  0.36837089276E+03  0.00000000000E+00 0.  1.
         -2    1    1    2    0  502 -0.16574206460E+02 -0.22210221391E+02 -0.73740978401E+02  0.78776456823E+02  0.00000000000E+00 0. -1.
<mgrwt>
<rscale>  2 0.27712781E+02</rscale>
<asrwt>0</asrwt>
<pdfrwt beam="1">  1        2 0.56979488E-01 0.27712781E+02</pdfrwt>
<pdfrwt beam="2">  1       -2 0.11812411E-01 0.27712781E+02</pdfrwt>
<totfact> 0.37882524E+03</totfact>
</mgrwt>
</event>
<event>
 4    1  0.1429937E+004  0.2744119E+02  0.7546771E-02  0.1628227E+00
          2   -1    0    0  501    0  0.00000000000E+00  0.00000000000E+00  0.40774933084E+03  0.40774933084E+03  0.00000000000E+00 0.  1.
         -2   -1    0    0    0  501 -0.00000000000E+00 -0.00000000000E+00 -0.14723360922E+02  0.14723360922E+02  0.00000000000E+00 0.  1.
          2    1    1    2  502    0  0.17048900863E+02  0.21502413709E+02  0.39405779923E+03  0.39501211115E+03  0.00000000000E+00 0.  1.
         -2    1    1    2    0  502 -0.17048900863E+02 -0.21502413709E+02 -0.10318293158E+01  0.27460580614E+02  0.00000000000E+00 0.  1.
<mgrwt>
<rscale>  2 0.27441188E+02</rscale>
<asrwt>0</asrwt>
<pdfrwt beam="1">  1        2 0.62730658E-01 0.27441188E+02</pdfrwt>
<pdfrwt beam="2">  1       -2 0.22651328E-02 0.27441188E+02</pdfrwt>
<totfact> 0.37066215E+04</totfact>
</mgrwt>
</event>
<event>
 4    1  0.1429937E+004  0.3829595E+02  0.7546771E-02  0.1521139E+00
          2   -1    0    0  501    0  0.00000000000E+00  0.00000000000E+00  0.84954278512E+03  0.84954278512E+03  0.00000000000E+00 0.  1.
         -2   -1    0    0    0  501 -0.00000000000E+00 -0.00000000000E+00 -0.53153127578E+01  0.53153127578E+01  0.00000000000E+00 0. -1.
          2    1    1    2  502    0 -0.71814242301E+01 -0.37616576649E+02  0.77333930751E+03  0.77428693921E+03  0.00000000000E+00 0.  1.
         -2    1    1    2    0  502  0.71814242301E+01  0.37616576649E+02  0.70888164851E+02  0.80571158666E+02  0.00000000000E+00 0. -1.
<mgrwt>
<rscale>  2 0.38295949E+02</rscale>
<asrwt>0</asrwt>
<pdfrwt beam="1">  1        2 0.13069878E+00 0.38295949E+02</pdfrwt>
<pdfrwt beam="2">  1       -2 0.81774110E-03 0.38295949E+02</pdfrwt>
<totfact> 0.72875835E+04</totfact>
</mgrwt>
</event>
<event>
 4    1  0.1429937E+004  0.2065693E+02  0.7546771E-02  0.1732571E+00
         -2   -1    0    0    0  501 -0.00000000000E+00  0.00000000000E+00  0.32876007467E+02  0.32876007467E+02  0.00000000000E+00 0. -1.
          2   -1    0    0  501    0  0.00000000000E+00 -0.00000000000E+00 -0.37669024376E+03  0.37669024376E+03  0.00000000000E+00 0.  1.
          2    1    1    2  502    0 -0.13839511845E+02  0.15335469516E+02 -0.37313128819E+03  0.37370264508E+03  0.00000000000E+00 0.  1.
         -2    1    1    2    0  502  0.13839511845E+02 -0.15335469516E+02  0.29317051902E+02  0.35863606143E+02  0.00000000000E+00 0. -1.
<mgrwt>
<rscale>  2 0.20656929E+02</rscale>
<asrwt>0</asrwt>
<pdfrwt beam="2">  1        2 0.57952347E-01 0.20656929E+02</pdfrwt>
<pdfrwt beam="1">  1       -2 0.50578471E-02 0.20656929E+02</pdfrwt>
<totfact> 0.12423941E+04</totfact>
</mgrwt>
</event>
<event>
 4    1  0.1429937E+004  0.3641330E+02  0.7546771E-02  0.1536397E+00
         -2   -1    0    0    0  501 -0.00000000000E+00  0.00000000000E+00  0.34761080246E+03  0.34761080246E+03  0.00000000000E+00 0.  1.
          2   -1    0    0  501    0  0.00000000000E+00 -0.00000000000E+00 -0.95862017747E+01  0.95862017747E+01  0.00000000000E+00 0.  1.
          2    1    1    2  502    0  0.37127421569E-01 -0.36413278268E+02  0.30429266950E+02  0.47453856532E+02  0.00000000000E+00 0.  1.
         -2    1    1    2    0  502 -0.37127421569E-01  0.36413278268E+02  0.30759533373E+03  0.30974314770E+03  0.00000000000E+00 0.  1.
<mgrwt>
<rscale>  2 0.36413297E+02</rscale>
<asrwt>0</asrwt>
<pdfrwt beam="2">  1        2 0.14748005E-02 0.36413297E+02</pdfrwt>
<pdfrwt beam="1">  1       -2 0.53478575E-01 0.36413297E+02</pdfrwt>
<totfact> 0.21124139E+04</totfact>
</mgrwt>
</event>
<event>
 4    1  0.1429937E+004  0.2106544E+02  0.7546771E-02  0.1724935E+00
          2   -1    0    0  501    0  0.00000000000E+00  0.00000000000E+00  0.66915780981E+03  0.66915780981E+03  0.00000000000E+00 0.  1.
         -2   -1    0    0    0  501 -0.00000000000E+00 -0.00000000000E+00 -0.18694229129E+02  0.18694229129E+02  0.00000000000E+00 0. -1.
          2    1    1    2  502    0 -0.43879689929E+01  0.20603361235E+02  0.66300258723E+03  0.66333715669E+03  0.00000000000E+00 0.  1.
         -2    1    1    2    0  502  0.43879689929E+01 -0.20603361235E+02 -0.12539006557E+02  0.24514882246E+02  0.00000000000E+00 0. -1.
<mgrwt>
<rscale>  2 0.21065440E+02</rscale>
<asrwt>0</asrwt>
<pdfrwt beam="1">  1        2 0.10294734E+00 0.21065440E+02</pdfrwt>
<pdfrwt beam="2">  1       -2 0.28760358E-02 0.21065440E+02</pdfrwt>
<totfact> 0.15346279E+04</totfact>
</mgrwt>
</event>
<event>
 4    1  0.1429937E+004  0.2457217E+02  0.7546771E-02  0.1667224E+00
         -2   -1    0    0    0  501 -0.00000000000E+00  0.00000000000E+00  0.44741885290E+00  0.44741885290E+00  0.00000000000E+00 0.  1.
          2   -1    0    0  501    0  0.00000000000E+00 -0.00000000000E+00 -0.15410713861E+04  0.15410713861E+04  0.00000000000E+00 0.  1.
          2    1    1    2  502    0 -0.21101799659E+02 -0.12589904934E+02 -0.10420641369E+04  0.10423538061E+04  0.00000000000E+00 0.  1.
         -2    1    1    2    0  502  0.21101799659E+02  0.12589904934E+02 -0.49855983036E+03  0.49916499888E+03  0.00000000000E+00 0.  1.
<mgrwt>
<rscale>  2 0.24572172E+02</rscale>
<asrwt>0</asrwt>
<pdfrwt beam="2">  1        2 0.23708101E+00 0.24572172E+02</pdfrwt>
<pdfrwt beam="1">  1       -2 0.68835671E-04 0.24572172E+02</pdfrwt>
<totfact> 0.80148789E+05</totfact>
</mgrwt>
</event>
<event>
 4    1  0.1429937E+004  0.3453085E+02  0.7546771E-02  0.1552807E+00
         -2   -1    0    0    0  501 -0.00000000000E+00  0.00000000000E+00  0.83083885460E+02  0.83083885460E+02  0.00000000000E+00 0. -1.
          2   -1    0    0  501    0  0.00000000000E+00 -0.00000000000E+00 -0.58572397290E+03  0.58572397290E+03  0.00000000000E+00 0.  1.
          2    1    1    2  502    0  0.14467746840E+02 -0.31353854363E+02 -0.58160175171E+03  0.58262593272E+03  0.00000000000E+00 0.  1.
         -2    1    1    2    0  502 -0.14467746840E+02  0.31353854363E+02  0.78961664274E+02  0.86181925640E+02  0.00000000000E+00 0. -1.
<mgrwt>
<rscale>  2 0.34530854E+02</rscale>
<asrwt>0</asrwt>
<pdfrwt beam="2">  1        2 0.90111384E-01 0.34530854E+02</pdfrwt>
<pdfrwt beam="1">  1       -2 0.12782136E-01 0.34530854E+02</pdfrwt>
<totfact> 0.21389589E+03</totfact>
</mgrwt>
</event>
<event>
 4    1  0.1429937E+004  0.2996823E+02  0.7546771E-02  0.1598440E+00
         -2   -1    0    0    0  501 -0.00000000000E+00  0.00000000000E+00  0.23203043557E+03  0.23203043557E+03  0.00000000000E+00 0. -1.
          2   -1    0    0  501    0  0.00000000000E+00 -0.00000000000E+00 -0.38712109450E+01  0.38712109450E+01  0.00000000000E+00 0. -1.
          2    1    1    2  502    0  0.16159989788E+02 -0.25237863860E+02  0.11258763204E+03  0.11650781060E+03  0.00000000000E+00 0. -1.
         -2    1    1    2    0  502 -0.16159989788E+02  0.25237863860E+02  0.11557159259E+03  0.11939383592E+03  0.00000000000E+00 0. -1.
<mgrwt>
<rscale>  2 0.29968234E+02</rscale>
<asrwt>0</asrwt>
<pdfrwt beam="2">  1        2 0.59557109E-03 0.29968234E+02</pdfrwt>
<pdfrwt beam="1">  1       -2 0.35696979E-01 0.29968234E+02</pdfrwt>
<totfact> 0.14252685E+05</totfact>
</mgrwt>
</event>
<event>
 4    1  0.1429937E+004  0.2116365E+02  0.7546771E-02  0.1723131E+00
          2   -1    0    0  501    0  0.00000000000E+00  0.00000000000E+00  0.50475101285E+03  0.50475101285E+03  0.00000000000E+00 0.  1.
         -2   -1    0    0    0  501 -0.00000000000E+00 -0.00000000000E+00 -0.62717614942E+01  0.62717614942E+01  0.00000000000E+00 0.  1.
          2    1    1    2  502    0 -0.20615605518E+02 -0.47850883883E+01  0.48598628463E+03  0.48644688210E+03  0.00000000000E+00 0.  1.
         -2    1    1    2    0  502  0.20615605518E+02  0.47850883883E+01  0.12492966727E+02  0.24575892240E+02  0.00000000000E+00 0.  1.
<mgrwt>
<rscale>  2 0.21163654E+02</rscale>
<asrwt>0</asrwt>
<pdfrwt beam="1">  1        2 0.77653970E-01 0.21163654E+02</pdfrwt>
<pdfrwt beam="2">  1       -2 0.96488678E-03 0.21163654E+02</pdfrwt>
<totfact> 0.90990494E+04</totfact>
</mgrwt>
</event>
<event>
 4    1  0.1429937E+004  0.2420030E+02  0.7546771E-02  0.1672761E+00
          2   -1    0    0  501    0  0.00000000000E+00  0.00000000000E+00  0.10269576845E+04  0.10269576845E+04  0.00000000000E+00 0.  1.
         -2   -1    0    0    0  501 -0.00000000000E+00 -0.00000000000E+00 -0.57028352555E+00  0.57028352555E+00  0.00000000000E+00 0. -1.
          2    1    1    2  502    0 -0.23747136239E+02 -0.46612901329E+01  0.51204187956E+03  0.51261344162E+03  0.00000000000E+00 0.  1.
         -2    1    1    2    0  502  0.23747136239E+02  0.46612901329E+01  0.51434552144E+03  0.51491452644E+03  0.00000000000E+00 0. -1.
<mgrwt>
<rscale>  2 0.24200304E+02</rscale>
<asrwt>0</asrwt>
<pdfrwt beam="1">  1        2 0.15799201E+00 0.24200304E+02</pdfrwt>
<pdfrwt beam="2">  1       -2 0.87736749E-04 0.24200304E+02</pdfrwt>
<totfact> 0.10429608E+06</totfact>
</mgrwt>
</event>
<event>
 4    1  0.1429937E+004  0.2372903E+02  0.7546771E-02  0.1679958E+00
          2   -1    0    0  501    0  0.00000000000E+00  0.00000000000E+00  0.85741909996E+03  0.85741909996E+03  0.00000000000E+00 0.  1.
         -2   -1    0    0    0  501 -0.00000000000E+00 -0.00000000000E+00 -0.77256306220E+02  0.77256306220E+02  0.00000000000E+00 0.  1.
          2    1    1    2  502    0  0.11143381793E+02  0.20949743118E+02  0.85542861257E+03  0.85575766307E+03  0.00000000000E+00 0.  1.
         -2    1    1    2    0  502 -0.11143381793E+02 -0.20949743118E+02 -0.75265818828E+02  0.78917743115E+02  0.00000000000E+00 0.  1.
<mgrwt>
<rscale>  2 0.23729026E+02</rscale>
<asrwt>0</asrwt>
<pdfrwt beam="1">  1        2 0.13191062E+00 0.23729026E+02</pdfrwt>
<pdfrwt beam="2">  1       -2 0.11885586E-01 0.23729026E+02</pdfrwt>
<totfact> 0.15349389E+03</totfact>
</mgrwt>
</event>
<event>
 4    1  0.1632957E+004  0.2418194E+02  0.7546771E-02  0.1673038E+00
          2   -1    0    0  501    0  0.00000000000E+00  0.00000000000E+00  0.13579807986E+04  0.13579807986E+04  0.00000000000E+00 0.  1.
         -2   -1    0    0    0  501 -0.00000000000E+00 -0.00000000000E+00 -0.85647378466E+03  0.85647378466E+03  0.00000000000E+00 0. -1.
          2    1    1    2  502    0 -0.21271928456E+02  0.11500933822E+02  0.13577024198E+04  0.13579177542E+04  0.00000000000E+00 0.  1.
         -2    1    1    2    0  502  0.21271928456E+02 -0.11500933822E+02 -0.85619540589E+03  0.85653682903E+03  0.00000000000E+00 0. -1.
<mgrwt>
<rscale>  2 0.24181944E+02</rscale>
<asrwt>0</asrwt>
<pdfrwt beam="1">  1        2 0.20892012E+00 0.24181944E+02</pdfrwt>
<pdfrwt beam="2">  1       -2 0.13176520E+00 0.24181944E+02</pdfrwt>
<totfact> 0.96210745E+00</totfact>
</mgrwt>
</event>
<event>
 4    1  0.1429937E+004  0.4238626E+02  0.7546771E-02  0.1491351E+00
         -2   -1    0    0    0  501 -0.00000000000E+00  0.00000000000E+00  0.23194179366E+02  0.23194179366E+02  0.00000000000E+00 0. -1.
          2   -1    0    0  501    0  0.00000000000E+00 -0.00000000000E+00 -0.87607474422E+03  0.87607474422E+03  0.00000000000E+00 0. -1.
          2    1    1    2  502    0  0.37192955880E+02  0.20329263992E+02 -0.85573740612E+03  0.85678649801E+03  0.00000000000E+00 0. -1.
         -2    1    1    2    0  502 -0.37192955880E+02 -0.20329263992E+02  0.28568412573E+01  0.42482425584E+02  0.00000000000E+00 0. -1.
<mgrwt>
<rscale>  2 0.42386259E+02</rscale>
<asrwt>0</asrwt>
<pdfrwt beam="2">  1        2 0.13478071E+00 0.42386259E+02</pdfrwt>
<pdfrwt beam="1">  1       -2 0.35683359E-02 0.42386259E+02</pdfrwt>
<totfact> 0.90807552E+03</totfact>
</mgrwt>
</event>
<event>
 4    1  0.1429937E+004  0.9943832E+02  0.7546771E-02  0.1281482E+00
         -2   -1    0    0    0  501 -0.00000000000E+00  0.00000000000E+00  0.42653413491E+03  0.42653413491E+03  0.00000000000E+00 0.  1.
          2   -1    0    0  501    0  0.00000000000E+00 -0.00000000000E+00 -0.10482974126E+03  0.10482974126E+03  0.00000000000E+00 0. -1.
          2    1    1    2  502    0 -0.32594062034E+02  0.93944703192E+02 -0.73620053029E+02  0.12372506757E+03  0.00000000000E+00 0. -1.
         -2    1    1    2    0  502  0.32594062034E+02 -0.93944703192E+02  0.39532444667E+03  0.40763880860E+03  0.00000000000E+00 0.  1.
<mgrwt>
<rscale>  2 0.99438323E+02</rscale>
<asrwt>0</asrwt>
<pdfrwt beam="2">  1        2 0.16127653E-01 0.99438323E+02</pdfrwt>
<pdfrwt beam="1">  1       -2 0.65620635E-01 0.99438323E+02</pdfrwt>
<totfact> 0.76340934E+02</totfact>
</mgrwt>
</event>
<event>
 4    1  0.1429937E+004  0.2296654E+02  0.7546771E-02  0.1692053E+00
          2   -1    0    0  501    0  0.00000000000E+00  0.00000000000E+00  0.20962428174E+03  0.20962428174E+03  0.00000000000E+00 0. -1.
         -2   -1    0    0    0  501 -0.00000000000E+00 -0.00000000000E+00 -0.17397398377E+03  0.17397398377E+03  0.00000000000E+00 0. -1.
          2    1    1    2  502    0  0.19461873651E+02 -0.12194157401E+02  0.20823221250E+03  0.20949490763E+03  0.00000000000E+00 0. -1.
         -2    1    1    2    0  502 -0.19461873651E+02  0.12194157401E+02 -0.17258191453E+03  0.17410335788E+03  0.00000000000E+00 0. -1.
<mgrwt>
<rscale>  2 0.22966541E+02</rscale>
<asrwt>0</asrwt>
<pdfrwt beam="1">  1        2 0.32249889E-01 0.22966541E+02</pdfrwt>
<pdfrwt beam="2">  1       -2 0.26765228E-01 0.22966541E+02</pdfrwt>
<totfact> 0.17794074E+03</totfact>
</mgrwt>
</event>
<event>
 4    1  0.1429937E+004  0.2037302E+02  0.7546771E-02  0.1738010E+00
         -2   -1    0    0    0  501 -0.00000000000E+00  0.00000000000E+00  0.44616124735E+02  0.44616124735E+02  0.00000000000E+00 0.  1.
          2   -1    0    0  501    0  0.00000000000E+00 -0.00000000000E+00 -0.23694121221E+02  0.23694121221E+02  0.00000000000E+00 0.  1.
          2    1    1    2  502    0  0.18808671771E+02  0.78290386426E+01 -0.16157533934E+02  0.26002420708E+02  0.00000000000E+00 0.  1.
         -2    1    1    2    0  502 -0.18808671771E+02 -0.78290386426E+01  0.37079537447E+02  0.42307825247E+02  0.00000000000E+00 0.  1.
<mgrwt>
<rscale>  2 0.20373021E+02</rscale>
<asrwt>0</asrwt>
<pdfrwt beam="2">  1        2 0.36452494E-02 0.20373021E+02</pdfrwt>
<pdfrwt beam="1">  1       -2 0.68640192E-02 0.20373021E+02</pdfrwt>
<totfact> 0.16695219E+05</totfact>
</mgrwt>
</event>
<event>
 4    1  0.1429937E+004  0.2096309E+02  0.7546771E-02  0.1726827E+00
         -2   -1    0    0    0  501 -0.00000000000E+00  0.00000000000E+00  0.12384661639E+02  0.12384661639E+02  0.00000000000E+00 0.  1.
          2   -1    0    0  501    0  0.00000000000E+00 -0.00000000000E+00 -0.70907569502E+02  0.70907569502E+02  0.00000000000E+00 0.  1.
          2    1    1    2  502    0  0.14136605826E+02  0.15479256575E+02 -0.58697365648E+02  0.62328418418E+02  0.00000000000E+00 0.  1.
         -2    1    1    2    0  502 -0.14136605826E+02 -0.15479256575E+02  0.17445778485E+00  0.20963812723E+02  0.00000000000E+00 0.  1.
<mgrwt>
<rscale>  2 0.20963087E+02</rscale>
<asrwt>0</asrwt>
<pdfrwt beam="2">  1        2 0.10908857E-01 0.20963087E+02</pdfrwt>
<pdfrwt beam="1">  1       -2 0.19053326E-02 0.20963087E+02</pdfrwt>
<totfact> 0.27254711E+05</totfact>
</mgrwt>
</event>
<event>
 4    1  0.1429937E+004  0.2002892E+02  0.7546771E-02  0.1744754E+00
         -2   -1    0    0    0  501 -0.00000000000E+00  0.00000000000E+00  0.45833587129E+02  0.45833587129E+02  0.00000000000E+00 0. -1.
          2   -1    0    0  501    0  0.00000000000E+00 -0.00000000000E+00 -0.69939658271E+03  0.69939658271E+03  0.00000000000E+00 0. -1.
          2    1    1    2  502    0 -0.16312388033E+02 -0.11621685901E+02 -0.69705772802E+03  0.69734541927E+03  0.00000000000E+00 0. -1.
         -2    1    1    2    0  502  0.16312388033E+02  0.11621685901E+02  0.43494732442E+02  0.47884750566E+02  0.00000000000E+00 0. -1.
<mgrwt>
<rscale>  2 0.20028919E+02</rscale>
<asrwt>0</asrwt>
<pdfrwt beam="2">  1        2 0.10759947E+00 0.20028919E+02</pdfrwt>
<pdfrwt beam="1">  1       -2 0.70513211E-02 0.20028919E+02</pdfrwt>
<totfact> 0.41123239E+03</totfact>
</mgrwt>
</event>
<event>
 4    1  0.1429937E+004  0.4358509E+02  0.7546771E-02  0.1483373E+00
         -2   -1    0    0    0  501 -0.00000000000E+00  0.00000000000E+00  0.12864636473E+02  0.12864636473E+02  0.00000000000E+00 0.  1.
          2   -1    0    0  501    0  0.00000000000E+00 -0.00000000000E+00 -0.88602383960E+03  0.88602383960E+03  0.00000000000E+00 0.  1.
          2    1    1    2  502    0 -0.40732058176E+02  0.15509986242E+02 -0.84686566801E+03  0.84798650926E+03  0.00000000000E+00 0.  1.
         -2    1    1    2    0  502  0.40732058176E+02 -0.15509986242E+02 -0.26293535121E+02  0.50901966815E+02  0.00000000000E+00 0.  1.
<mgrwt>
<rscale>  2 0.43585092E+02</rscale>
<asrwt>0</asrwt>
<pdfrwt beam="2">  1        2 0.13631139E+00 0.43585092E+02</pdfrwt>
<pdfrwt beam="1">  1       -2 0.19791744E-02 0.43585092E+02</pdfrwt>
<totfact> 0.20693367E+04</totfact>
</mgrwt>
</event>
<event>
 4    1  0.1429937E+004  0.2427358E+02  0.7546771E-02  0.1671660E+00
         -2   -1    0    0    0  501 -0.00000000000E+00  0.00000000000E+00  0.67691542638E+00  0.67691542638E+00  0.00000000000E+00 0.  1.
          2   -1    0    0  501    0  0.00000000000E+00 -0.00000000000E+00 -0.97405412008E+03  0.97405412008E+03  0.00000000000E+00 0.  1.
          2    1    1    2  502    0 -0.71878995356E+01  0.23184908825E+02 -0.32772465868E+03  0.32862236352E+03  0.00000000000E+00 0.  1.
         -2    1    1    2    0  502  0.71878995356E+01 -0.23184908825E+02 -0.64565254597E+03  0.64610867199E+03  0.00000000000E+00 0.  1.
<mgrwt>
<rscale>  2 0.24273576E+02</rscale>
<asrwt>0</asrwt>
<pdfrwt beam="2">  1        2 0.14985454E+00 0.24273576E+02</pdfrwt>
<pdfrwt beam="1">  1       -2 0.10414079E-03 0.24273576E+02</pdfrwt>
<totfact> 0.88981308E+05</totfact>
</mgrwt>
</event>
<event>
 4    1  0.1429937E+004  0.2032031E+02  0.7546771E-02  0.1739032E+00
         -2   -1    0    0    0  501 -0.00000000000E+00  0.00000000000E+00  0.26711498854E+03  0.26711498854E+03  0.00000000000E+00 0. -1.
          2   -1    0    0  501    0  0.00000000000E+00 -0.00000000000E+00 -0.11995182450E+03  0.11995182450E+03  0.00000000000E+00 0. -1.
          2    1    1    2  502    0  0.14552062089E+02 -0.14182824570E+02 -0.11870073746E+03  0.12042748896E+03  0.00000000000E+00 0. -1.
         -2    1    1    2    0  502 -0.14552062089E+02  0.14182824570E+02  0.26586390151E+03  0.26663932408E+03  0.00000000000E+00 0. -1.
<mgrwt>
<rscale>  2 0.20320311E+02</rscale>
<asrwt>0</asrwt>
<pdfrwt beam="2">  1        2 0.18454127E-01 0.20320311E+02</pdfrwt>
<pdfrwt beam="1">  1       -2 0.41094614E-01 0.20320311E+02</pdfrwt>
<totfact> 0.14800229E+03</totfact>
</mgrwt>
</event>
<event>
 4    1  0.1429937E+004  0.4725258E+02  0.7546771E-02  0.1460750E+00
          2   -1    0    0  501    0  0.00000000000E+00  0.00000000000E+00  0.17223019090E+03  0.17223019090E+03  0.00000000000E+00 0.  1.
         -2   -1    0    0    0  501 -0.00000000000E+00 -0.00000000000E+00 -0.51382326602E+02  0.51382326602E+02  0.00000000000E+00 0. -1.
          2    1    1    2  502    0 -0.21510146534E+02  0.42072787771E+02  0.15710200971E+03  0.16405440357E+03  0.00000000000E+00 0.  1.
         -2    1    1    2    0  502  0.21510146534E+02 -0.42072787771E+02 -0.36254145418E+02  0.59558113929E+02  0.00000000000E+00 0. -1.
<mgrwt>
<rscale>  2 0.47252575E+02</rscale>
<asrwt>0</asrwt>
<pdfrwt beam="1">  1        2 0.26496952E-01 0.47252575E+02</pdfrwt>
<pdfrwt beam="2">  1       -2 0.79049734E-02 0.47252575E+02</pdfrwt>
<totfact> 0.16094397E+04</totfact>
</mgrwt>
</event>
<event>
 4    1  0.1429937E+004  0.2910098E+02  0.7546771E-02  0.1608244E+00
          2   -1    0    0  501    0  0.00000000000E+00  0.00000000000E+00  0.10788782566E+02  0.10788782566E+02  0.00000000000E+00 0. -1.
         -2   -1    0    0    0  501 -0.00000000000E+00 -0.00000000000E+00 -0.96136317823E+02  0.96136317823E+02  0.00000000000E+00 0.  1.
          2    1    1    2  502    0  0.15592807982E+01 -0.29059173016E+02 -0.19771956031E+02  0.35182341285E+02  0.00000000000E+00 0. -1.
         -2    1    1    2    0  502 -0.15592807982E+01  0.29059173016E+02 -0.65575579226E+02  0.71742759104E+02  0.00000000000E+00 0.  1.
<mgrwt>
<rscale>  2 0.29100978E+02</rscale>
<asrwt>0</asrwt>
<pdfrwt beam="1">  1        2 0.16598126E-02 0.29100978E+02</pdfrwt>
<pdfrwt beam="2">  1       -2 0.14790203E-01 0.29100978E+02</pdfrwt>
<totfact> 0.15896587E+05</totfact>
</mgrwt>
</event>
<event>
 4    1  0.1429937E+004  0.2906104E+02  0.7546771E-02  0.1608706E+00
         -2   -1    0    0    0  501 -0.00000000000E+00  0.00000000000E+00  0.25943338363E+03  0.25943338363E+03  0.00000000000E+00 0.  1.
          2   -1    0    0  501    0  0.00000000000E+00 -0.00000000000E+00 -0.80678805433E+02  0.80678805433E+02  0.00000000000E+00 0. -1.
          2    1    1    2  502    0  0.17375114028E+02  0.23294840451E+02 -0.77212650647E+02  0.82500530901E+02  0.00000000000E+00 0. -1.
         -2    1    1    2    0  502 -0.17375114028E+02 -0.23294840451E+02  0.25596722884E+03  0.25761165816E+03  0.00000000000E+00 0.  1.
<mgrwt>
<rscale>  2 0.29061042E+02</rscale>
<asrwt>0</asrwt>
<pdfrwt beam="2">  1        2 0.12412124E-01 0.29061042E+02</pdfrwt>
<pdfrwt beam="1">  1       -2 0.39912828E-01 0.29061042E+02</pdfrwt>
<totfact> 0.25031350E+03</totfact>
</mgrwt>
</event>
<event>
 4    1  0.1429937E+004  0.5342395E+02  0.7546771E-02  0.1427703E+00
          2   -1    0    0  501    0  0.00000000000E+00  0.00000000000E+00  0.11104653600E+04  0.11104653600E+04  0.00000000000E+00 0.  1.
         -2   -1    0    0    0  501 -0.00000000000E+00 -0.00000000000E+00 -0.37649934937E+02  0.37649934937E+02  0.00000000000E+00 0.  1.
          2    1    1    2  502    0 -0.14625020834E+02  0.51383141538E+02  0.10905247979E+04  0.10918326123E+04  0.00000000000E+00 0.  1.
         -2    1    1    2    0  502  0.14625020834E+02 -0.51383141538E+02 -0.17709372895E+02  0.56282682568E+02  0.00000000000E+00 0.  1.
<mgrwt>
<rscale>  2 0.53423950E+02</rscale>
<asrwt>0</asrwt>
<pdfrwt beam="1">  1        2 0.17084080E+00 0.53423950E+02</pdfrwt>
<pdfrwt beam="2">  1       -2 0.57922985E-02 0.53423950E+02</pdfrwt>
<totfact> 0.33570582E+03</totfact>
</mgrwt>
</event>
<event>
 4    1  0.1429937E+004  0.2712141E+02  0.7546771E-02  0.1632277E+00
          2   -1    0    0  501    0  0.00000000000E+00  0.00000000000E+00  0.11294220747E+03  0.11294220747E+03  0.00000000000E+00 0. -1.
         -2   -1    0    0    0  501 -0.00000000000E+00 -0.00000000000E+00 -0.77372589407E+01  0.77372589407E+01  0.00000000000E+00 0.  1.
          2    1    1    2  502    0 -0.22646436734E+02  0.14923460445E+02  0.76606315213E+02  0.81265603418E+02  0.00000000000E+00 0. -1.
         -2    1    1    2    0  502  0.22646436734E+02 -0.14923460445E+02  0.28598633316E+02  0.39413862992E+02  0.00000000000E+00 0.  1.
<mgrwt>
<rscale>  2 0.27121408E+02</rscale>
<asrwt>0</asrwt>
<pdfrwt beam="1">  1        2 0.17375723E-01 0.27121408E+02</pdfrwt>
<pdfrwt beam="2">  1       -2 0.11903476E-02 0.27121408E+02</pdfrwt>
<totfact> 0.33246344E+05</totfact>
</mgrwt>
</event>
<event>
 4    1  0.1429937E+004  0.3241937E+02  0.7546771E-02  0.1572789E+00
          2   -1    0    0  501    0  0.00000000000E+00  0.00000000000E+00  0.22493812683E+03  0.22493812683E+03  0.00000000000E+00 0. -1.
         -2   -1    0    0    0  501 -0.00000000000E+00 -0.00000000000E+00 -0.46773924892E+01  0.46773924892E+01  0.00000000000E+00 0. -1.
          2    1    1    2  502    0  0.21529547263E+02  0.24238284672E+02  0.11385615912E+03  0.11838175881E+03  0.00000000000E+00 0. -1.
         -2    1    1    2    0  502 -0.21529547263E+02 -0.24238284672E+02  0.10640457522E+03  0.11123376050E+03  0.00000000000E+00 0. -1.
<mgrwt>
<rscale>  2 0.32419375E+02</rscale>
<asrwt>0</asrwt>
<pdfrwt beam="1">  1        2 0.34605857E-01 0.32419375E+02</pdfrwt>
<pdfrwt beam="2">  1       -2 0.71959902E-03 0.32419375E+02</pdfrwt>
<totfact> 0.33653225E+05</totfact>
</mgrwt>
</event>
<event>
 4    1  0.1429937E+004  0.3180223E+02  0.7546771E-02  0.1578981E+00
          2   -1    0    0  501    0  0.00000000000E+00  0.00000000000E+00  0.42216647753E+03  0.42216647753E+03  0.00000000000E+00 0. -1.
         -2   -1    0    0    0  501 -0.00000000000E+00 -0.00000000000E+00 -0.22634125636E+02  0.22634125636E+02  0.00000000000E+00 0. -1.
          2    1    1    2  502    0 -0.24300891682E+02 -0.20514590369E+02  0.41006746578E+03  0.41129880652E+03  0.00000000000E+00 0. -1.
         -2    1    1    2    0  502  0.24300891682E+02  0.20514590369E+02 -0.10535113878E+02  0.33501796653E+02  0.00000000000E+00 0. -1.
<mgrwt>
<rscale>  2 0.31802229E+02</rscale>
<asrwt>0</asrwt>
<pdfrwt beam="1">  1        2 0.64948683E-01 0.31802229E+02</pdfrwt>
<pdfrwt beam="2">  1       -2 0.34821735E-02 0.31802229E+02</pdfrwt>
<totfact> 0.20087882E+04</totfact>
</mgrwt>
</event>
<event>
 4    1  0.1429937E+004  0.3008291E+02  0.7546771E-02  0.1597174E+00
         -2   -1    0    0    0  501 -0.00000000000E+00  0.00000000000E+00  0.43448438673E+01  0.43448438673E+01  0.00000000000E+00 0. -1.
          2   -1    0    0  501    0  0.00000000000E+00 -0.00000000000E+00 -0.18648741070E+04  0.18648741070E+04  0.00000000000E+00 0. -1.
          2    1    1    2  502    0  0.22928421238E+02  0.19474824627E+02 -0.18111357151E+04  0.18113855360E+04  0.00000000000E+00 0. -1.
         -2    1    1    2    0  502 -0.22928421238E+02 -0.19474824627E+02 -0.49393548009E+02  0.57833414905E+02  0.00000000000E+00 0. -1.
<mgrwt>
<rscale>  2 0.30082907E+02</rscale>
<asrwt>0</asrwt>
<pdfrwt beam="2">  1        2 0.28690412E+00 0.30082907E+02</pdfrwt>
<pdfrwt beam="1">  1       -2 0.66843656E-03 0.30082907E+02</pdfrwt>
<totfact> 0.28187352E+04</totfact>
</mgrwt>
</event>
<event>
 4    1  0.1429937E+004  0.5581143E+02  0.7546771E-02  0.1416300E+00
         -2   -1    0    0    0  501 -0.00000000000E+00  0.00000000000E+00  0.17402669014E+02  0.17402669014E+02  0.00000000000E+00 0. -1.
          2   -1    0    0  501    0  0.00000000000E+00 -0.00000000000E+00 -0.11136902184E+04  0.11136902184E+04  0.00000000000E+00 0.  1.
          2    1    1    2  502    0 -0.50203421721E+02 -0.24383036300E+02 -0.10662539018E+04  0.10677135848E+04  0.00000000000E+00 0.  1.
         -2    1    1    2    0  502  0.50203421721E+02  0.24383036300E+02 -0.30033647526E+02  0.63379302579E+02  0.00000000000E+00 0. -1.
<mgrwt>
<rscale>  2 0.55811433E+02</rscale>
<asrwt>0</asrwt>
<pdfrwt beam="2">  1        2 0.17133701E+00 0.55811433E+02</pdfrwt>
<pdfrwt beam="1">  1       -2 0.26773328E-02 0.55811433E+02</pdfrwt>
<totfact> 0.10252910E+04</totfact>
</mgrwt>
</event>
<event>
 4    1  0.1509263E+004  0.2509155E+02  0.7546771E-02  0.1659690E+00
         -2   -1    0    0    0  501 -0.00000000000E+00  0.00000000000E+00  0.22396673916E+03  0.22396673916E+03  0.00000000000E+00 0. -1.
          2   -1    0    0  501    0  0.00000000000E+00 -0.00000000000E+00 -0.95799261385E+03  0.95799261385E+03  0.00000000000E+00 0.  1.
          2    1    1    2  502    0  0.11150021927E+02  0.22478054216E+02 -0.95712491143E+03  0.95745374927E+03  0.00000000000E+00 0.  1.
         -2    1    1    2    0  502 -0.11150021927E+02 -0.22478054216E+02  0.22309903675E+03  0.22450560374E+03  0.00000000000E+00 0. -1.
<mgrwt>
<rscale>  2 0.25091551E+02</rscale>
<asrwt>0</asrwt>
<pdfrwt beam="2">  1        2 0.14738348E+00 0.25091551E+02</pdfrwt>
<pdfrwt beam="1">  1       -2 0.34456421E-01 0.25091551E+02</pdfrwt>
<totfact> 0.23876515E+02</totfact>
</mgrwt>
</event>
<event>
 4    1  0.1429937E+004  0.2312170E+02  0.7546771E-02  0.1689545E+00
         -2   -1    0    0    0  501 -0.00000000000E+00  0.00000000000E+00  0.32860262389E+03  0.32860262389E+03  0.00000000000E+00 0. -1.
          2   -1    0    0  501    0  0.00000000000E+00 -0.00000000000E+00 -0.93586112979E+01  0.93586112979E+01  0.00000000000E+00 0.  1.
          2    1    1    2  502    0 -0.13042592890E+02 -0.19091985784E+02  0.60301507011E+01  0.23895101338E+02  0.00000000000E+00 0.  1.
         -2    1    1    2    0  502  0.13042592890E+02  0.19091985784E+02  0.31321386189E+03  0.31406613385E+03  0.00000000000E+00 0. -1.
<mgrwt>
<rscale>  2 0.23121703E+02</rscale>
<asrwt>0</asrwt>
<pdfrwt beam="2">  1        2 0.14397866E-02 0.23121703E+02</pdfrwt>
<pdfrwt beam="1">  1       -2 0.50554241E-01 0.23121703E+02</pdfrwt>
<totfact> 0.22132593E+04</totfact>
</mgrwt>
</event>
<event>
 4    1  0.1429937E+004  0.2320622E+02  0.7546771E-02  0.1688189E+00
          2   -1    0    0  501    0  0.00000000000E+00  0.00000000000E+00  0.11010673484E+04  0.11010673484E+04  0.00000000000E+00 0. -1.
         -2   -1    0    0    0  501 -0.00000000000E+00 -0.00000000000E+00 -0.12433134938E+01  0.12433134938E+01  0.00000000000E+00 0. -1.
          2    1    1    2  502    0  0.16096230720E+02 -0.16716465083E+02  0.97918313852E+03  0.97945808875E+03  0.00000000000E+00 0. -1.
         -2    1    1    2    0  502 -0.16096230720E+02  0.16716465083E+02  0.12064089642E+03  0.12285257318E+03  0.00000000000E+00 0. -1.
<mgrwt>
<rscale>  2 0.23206224E+02</rscale>
<asrwt>0</asrwt>
<pdfrwt beam="1">  1        2 0.16939420E+00 0.23206224E+02</pdfrwt>
<pdfrwt beam="2">  1       -2 0.19127988E-03 0.23206224E+02</pdfrwt>
<totfact> 0.33663911E+05</totfact>
</mgrwt>
</event>
<event>
 4    1  0.1429937E+004  0.4854848E+02  0.7546771E-02  0.1453332E+00
          2   -1    0    0  501    0  0.00000000000E+00  0.00000000000E+00  0.10510742651E+04  0.10510742651E+04  0.00000000000E+00 0. -1.
         -2   -1    0    0    0  501 -0.00000000000E+00 -0.00000000000E+00 -0.16301510226E+02  0.16301510226E+02  0.00000000000E+00 0. -1.
          2    1    1    2  502    0  0.47523743042E+02  0.99221432047E+01  0.10130099567E+04  0.10141726320E+04  0.00000000000E+00 0. -1.
         -2    1    1    2    0  502 -0.47523743042E+02 -0.99221432047E+01  0.21762798184E+02  0.53203143359E+02  0.00000000000E+00 0. -1.
<mgrwt>
<rscale>  2 0.48548482E+02</rscale>
<asrwt>0</asrwt>
<pdfrwt beam="1">  1        2 0.16170368E+00 0.48548482E+02</pdfrwt>
<pdfrwt beam="2">  1       -2 0.25079255E-02 0.48548482E+02</pdfrwt>
<totfact> 0.12037795E+04</totfact>
</mgrwt>
</event>
<event>
 4    1  0.1429937E+004  0.2576670E+02  0.7546771E-02  0.1650228E+00
          2   -1    0    0  501    0  0.00000000000E+00  0.00000000000E+00  0.10277122335E+04  0.10277122335E+04  0.00000000000E+00 0.  1.
         -2   -1    0    0    0  501 -0.00000000000E+00 -0.00000000000E+00 -0.27045831579E+02  0.27045831579E+02  0.00000000000E+00 0.  1.
          2    1    1    2  502    0  0.37985900607E+01 -0.25485160172E+02  0.10213756459E+04  0.10217006081E+04  0.00000000000E+00 0.  1.
         -2    1    1    2    0  502 -0.37985900607E+01  0.25485160172E+02 -0.20709243945E+02  0.33057456954E+02  0.00000000000E+00 0.  1.
<mgrwt>
<rscale>  2 0.25766697E+02</rscale>
<asrwt>0</asrwt>
<pdfrwt beam="1">  1        2 0.15810954E+00 0.25766697E+02</pdfrwt>
<pdfrwt beam="2">  1       -2 0.41608980E-02 0.25766697E+02</pdfrwt>
<totfact> 0.57159933E+03</totfact>
</mgrwt>
</event>
<event>
 4    1  0.1429937E+004  0.2250639E+02  0.7546771E-02  0.1699639E+00
         -2   -1    0    0    0  501 -0.00000000000E+00  0.00000000000E+00  0.34182184617E+01  0.34182184617E+01  0.00000000000E+00 0. -1.
          2   -1    0    0  501    0  0.00000000000E+00 -0.00000000000E+00 -0.37814526080E+03  0.37814526080E+03  0.00000000000E+00 0. -1.
          2    1    1    2  502    0 -0.55068491661E+01 -0.21822290365E+02 -0.33613900527E+03  0.33689162739E+03  0.00000000000E+00 0. -1.
         -2    1    1    2    0  502  0.55068491661E+01  0.21822290365E+02 -0.38588037070E+02  0.44671851869E+02  0.00000000000E+00 0. -1.
<mgrwt>
<rscale>  2 0.22506393E+02</rscale>
<asrwt>0</asrwt>
<pdfrwt beam="2">  1        2 0.58176175E-01 0.22506393E+02</pdfrwt>
<pdfrwt beam="1">  1       -2 0.52587993E-03 0.22506393E+02</pdfrwt>
<totfact> 0.27814757E+05</totfact>
</mgrwt>
</event>
<event>
 4    1  0.1429937E+004  0.3980039E+02  0.7546771E-02  0.1509686E+00
         -2   -1    0    0    0  501 -0.00000000000E+00  0.00000000000E+00  0.11980764289E+01  0.11980764289E+01  0.00000000000E+00 0.  1.
          2   -1    0    0  501    0  0.00000000000E+00 -0.00000000000E+00 -0.14167525673E+04  0.14167525673E+04  0.00000000000E+00 0.  1.
          2    1    1    2  502    0  0.10597155856E+02 -0.38363675168E+02 -0.89095359599E+03  0.89184212812E+03  0.00000000000E+00 0.  1.
         -2    1    1    2    0  502 -0.10597155856E+02  0.38363675168E+02 -0.52460089490E+03  0.52610851563E+03  0.00000000000E+00 0.  1.
<mgrwt>
<rscale>  2 0.39800393E+02</rscale>
<asrwt>0</asrwt>
<pdfrwt beam="2">  1        2 0.21796173E+00 0.39800393E+02</pdfrwt>
<pdfrwt beam="1">  1       -2 0.18431962E-03 0.39800393E+02</pdfrwt>
<totfact> 0.27661073E+05</totfact>
</mgrwt>
</event>
<event>
 4    1  0.1429937E+004  0.4942617E+02  0.7546771E-02  0.1448461E+00
         -2   -1    0    0    0  501 -0.00000000000E+00  0.00000000000E+00  0.11269620389E+03  0.11269620389E+03  0.00000000000E+00 0. -1.
          2   -1    0    0  501    0  0.00000000000E+00 -0.00000000000E+00 -0.39230548427E+03  0.39230548427E+03  0.00000000000E+00 0. -1.
          2    1    1    2  502    0 -0.46699851410E+02 -0.16188569629E+02 -0.38523025284E+03  0.38838807089E+03  0.00000000000E+00 0. -1.
         -2    1    1    2    0  502  0.46699851410E+02  0.16188569629E+02  0.10562097246E+03  0.11661361726E+03  0.00000000000E+00 0. -1.
<mgrwt>
<rscale>  2 0.49426166E+02</rscale>
<asrwt>0</asrwt>
<pdfrwt beam="2">  1        2 0.60354690E-01 0.49426166E+02</pdfrwt>
<pdfrwt beam="1">  1       -2 0.17337877E-01 0.49426166E+02</pdfrwt>
<totfact> 0.20457676E+03</totfact>
</mgrwt>
</event>
<event>
 4    1  0.1429937E+004  0.2585710E+02  0.7546771E-02  0.1648988E+00
         -2   -1    0    0    0  501 -0.00000000000E+00  0.00000000000E+00  0.10562570241E+03  0.10562570241E+03  0.00000000000E+00 0. -1.
          2   -1    0    0  501    0  0.00000000000E+00 -0.00000000000E+00 -0.69904849233E+01  0.69904849233E+01  0.00000000000E+00 0.  1.
          2    1    1    2  502    0 -0.20680001537E+02 -0.15521821980E+02  0.32006900470E+02  0.41146459129E+02  0.00000000000E+00 0.  1.
         -2    1    1    2    0  502  0.20680001537E+02  0.15521821980E+02  0.66628317019E+02  0.71469728207E+02  0.00000000000E+00 0. -1.
<mgrwt>
<rscale>  2 0.25857096E+02</rscale>
<asrwt>0</asrwt>
<pdfrwt beam="2">  1        2 0.10754593E-02 0.25857096E+02</pdfrwt>
<pdfrwt beam="1">  1       -2 0.16250107E-01 0.25857096E+02</pdfrwt>
<totfact> 0.23384200E+05</totfact>
</mgrwt>
</event>
<event>
 4    1  0.1429937E+004  0.2147787E+02  0.7546771E-02  0.1717442E+00
         -2   -1    0    0    0  501 -0.00000000000E+00  0.00000000000E+00  0.21132107289E+01  0.21132107289E+01  0.00000000000E+00 0. -1.
          2   -1    0    0  501    0  0.00000000000E+00 -0.00000000000E+00 -0.49534266348E+03  0.49534266348E+03  0.00000000000E+00 0. -1.
          2    1    1    2  502    0 -0.20618713214E+02  0.60139346848E+01 -0.43263087537E+03  0.43316367931E+03  0.00000000000E+00 0. -1.
         -2    1    1    2    0  502  0.20618713214E+02 -0.60139346848E+01 -0.60598577375E+02  0.64292194899E+02  0.00000000000E+00 0. -1.
<mgrwt>
<rscale>  2 0.21477866E+02</rscale>
<asrwt>0</asrwt>
<pdfrwt beam="2">  1        2 0.76206492E-01 0.21477866E+02</pdfrwt>
<pdfrwt beam="1">  1       -2 0.32510965E-03 0.21477866E+02</pdfrwt>
<totfact> 0.39879235E+05</totfact>
</mgrwt>
</event>
<event>
 4    1  0.1429937E+004  0.2277523E+02  0.7546771E-02  0.1695180E+00
         -2   -1    0    0    0  501 -0.00000000000E+00  0.00000000000E+00  0.77653557193E+02  0.77653557193E+02  0.00000000000E+00 0.  1.
          2   -1    0    0  501    0  0.00000000000E+00 -0.00000000000E+00 -0.55914913482E+02  0.55914913482E+02  0.00000000000E+00 0. -1.
          2    1    1    2  502    0 -0.22370986397E+02 -0.42720001944E+01 -0.51798926533E+02  0.56584801917E+02  0.00000000000E+00 0. -1.
         -2    1    1    2    0  502  0.22370986397E+02  0.42720001944E+01  0.73537570244E+02  0.76983668758E+02  0.00000000000E+00 0.  1.
<mgrwt>
<rscale>  2 0.22775228E+02</rscale>
<asrwt>0</asrwt>
<pdfrwt beam="2">  1        2 0.86022944E-02 0.22775228E+02</pdfrwt>
<pdfrwt beam="1">  1       -2 0.11946701E-01 0.22775228E+02</pdfrwt>
<totfact> 0.26851316E+04</totfact>
</mgrwt>
</event>
<event>
 4    1  0.1429937E+004  0.2419465E+02  0.7546771E-02  0.1672846E+00
          2   -1    0    0  501    0  0.00000000000E+00  0.00000000000E+00  0.37876401640E+02  0.37876401640E+02  0.00000000000E+00 0. -1.
         -2   -1    0    0    0  501 -0.00000000000E+00 -0.00000000000E+00 -0.18083665782E+03  0.18083665782E+03  0.00000000000E+00 0.  1.
          2    1    1    2  502    0  0.12403591944E+02 -0.20773344786E+02  0.33099023554E+02  0.40999101294E+02  0.00000000000E+00 0. -1.
         -2    1    1    2    0  502 -0.12403591944E+02  0.20773344786E+02 -0.17605927973E+03  0.17771395816E+03  0.00000000000E+00 0.  1.
<mgrwt>
<rscale>  2 0.24194647E+02</rscale>
<asrwt>0</asrwt>
<pdfrwt beam="1">  1        2 0.58271387E-02 0.24194647E+02</pdfrwt>
<pdfrwt beam="2">  1       -2 0.27821024E-01 0.24194647E+02</pdfrwt>
<totfact> 0.11203472E+04</totfact>
</mgrwt>
</event>
<event>
 4    1  0.1429937E+004  0.2893416E+02  0.7546771E-02  0.1610178E+00
         -2   -1    0    0    0  501 -0.00000000000E+00  0.00000000000E+00  0.12634245805E+02  0.12634245805E+02  0.00000000000E+00 0. -1.
          2   -1    0    0  501    0  0.00000000000E+00 -0.00000000000E+00 -0.66352078510E+02  0.66352078510E+02  0.00000000000E+00 0.  1.
          2    1    1    2  502    0 -0.10516869898E+02 -0.26955148993E+02 -0.25412890470E+02  0.38509733987E+02  0.00000000000E+00 0.  1.
         -2    1    1    2    0  502  0.10516869898E+02  0.26955148993E+02 -0.28304942235E+02  0.40476590328E+02  0.00000000000E+00 0. -1.
<mgrwt>
<rscale>  2 0.28934157E+02</rscale>
<asrwt>0</asrwt>
<pdfrwt beam="2">  1        2 0.10208012E-01 0.28934157E+02</pdfrwt>
<pdfrwt beam="1">  1       -2 0.19437301E-02 0.28934157E+02</pdfrwt>
<totfact> 0.31351638E+05</totfact>
</mgrwt>
</event>
<event>
 4    1  0.1429937E+004  0.2117670E+02  0.7546771E-02  0.1722892E+00
         -2   -1    0    0    0  501 -0.00000000000E+00  0.00000000000E+00  0.33996410316E+01  0.33996410316E+01  0.00000000000E+00 0.  1.
          2   -1    0    0  501    0  0.00000000000E+00 -0.00000000000E+00 -0.26959398997E+03  0.26959398997E+03  0.00000000000E+00 0.  1.
          2    1    1    2  502    0  0.19224373698E+02  0.88812222133E+01 -0.23064247531E+03  0.23161261639E+03  0.00000000000E+00 0.  1.
         -2    1    1    2    0  502 -0.19224373698E+02 -0.88812222133E+01 -0.35551873626E+02  0.41381014613E+02  0.00000000000E+00 0.  1.
<mgrwt>
<rscale>  2 0.21176701E+02</rscale>
<asrwt>0</asrwt>
<pdfrwt beam="2">  1        2 0.41476005E-01 0.21176701E+02</pdfrwt>
<pdfrwt beam="1">  1       -2 0.52302161E-03 0.21176701E+02</pdfrwt>
<totfact> 0.38392068E+05</totfact>
</mgrwt>
</event>
<event>
 4    1  0.1429937E+004  0.2325693E+02  0.7546771E-02  0.1687379E+00
          2   -1    0    0  501    0  0.00000000000E+00  0.00000000000E+00  0.49108237539E+03  0.49108237539E+03  0.00000000000E+00 0. -1.
         -2   -1    0    0    0  501 -0.00000000000E+00 -0.00000000000E+00 -0.11144069421E+01  0.11144069421E+01  0.00000000000E+00 0. -1.
          2    1    1    2  502    0 -0.23157834901E+02  0.21446203398E+01  0.27155758950E+03  0.27255166323E+03  0.00000000000E+00 0. -1.
         -2    1    1    2    0  502  0.23157834901E+02 -0.21446203398E+01  0.21841037894E+03  0.21964511910E+03  0.00000000000E+00 0. -1.
<mgrwt>
<rscale>  2 0.23256928E+02</rscale>
<asrwt>0</asrwt>
<pdfrwt beam="1">  1        2 0.75550962E-01 0.23256928E+02</pdfrwt>
<pdfrwt beam="2">  1       -2 0.17144761E-03 0.23256928E+02</pdfrwt>
<totfact> 0.96284213E+05</totfact>
</mgrwt>
</event>
<event>
 4    1  0.1429937E+004  0.3463957E+02  0.7546771E-02  0.1551825E+00
         -2   -1    0    0    0  501 -0.00000000000E+00  0.00000000000E+00  0.54245095750E+01  0.54245095750E+01  0.00000000000E+00 0. -1.
          2   -1    0    0  501    0  0.00000000000E+00 -0.00000000000E+00 -0.49436365152E+03  0.49436365152E+03  0.00000000000E+00 0.  1.
          2    1    1    2  502    0  0.34391035481E+02 -0.41420593116E+01 -0.43022622671E+03  0.43161847287E+03  0.00000000000E+00 0.  1.
         -2    1    1    2    0  502 -0.34391035481E+02  0.41420593116E+01 -0.58712915235E+02  0.68169688221E+02  0.00000000000E+00 0. -1.
<mgrwt>
<rscale>  2 0.34639572E+02</rscale>
<asrwt>0</asrwt>
<pdfrwt beam="2">  1        2 0.76055941E-01 0.34639572E+02</pdfrwt>
<pdfrwt beam="1">  1       -2 0.83454000E-03 0.34639572E+02</pdfrwt>
<totfact> 0.12605108E+05</totfact>
</mgrwt>
</event>
<event>
 4    1  0.1429937E+004  0.2151971E+02  0.7546771E-02  0.1716693E+00
          2   -1    0    0  501    0  0.00000000000E+00  0.00000000000E+00  0.25668112273E+03  0.25668112273E+03  0.00000000000E+00 0.  1.
         -2   -1    0    0    0  501 -0.00000000000E+00 -0.00000000000E+00 -0.17033775280E+02  0.17033775280E+02  0.00000000000E+00 0.  1.
          2    1    1    2  502    0 -0.21519486975E+02  0.98144773110E-01  0.24923051017E+03  0.25015784048E+03  0.00000000000E+00 0.  1.
         -2    1    1    2    0  502  0.21519486975E+02 -0.98144773110E-01 -0.95831627179E+01  0.23557057535E+02  0.00000000000E+00 0.  1.
<mgrwt>
<rscale>  2 0.21519711E+02</rscale>
<asrwt>0</asrwt>
<pdfrwt beam="1">  1        2 0.39489401E-01 0.21519711E+02</pdfrwt>
<pdfrwt beam="2">  1       -2 0.26205810E-02 0.21519711E+02</pdfrwt>
<totfact> 0.45659001E+04</totfact>
</mgrwt>
</event>
<event>
 4    1  0.1429937E+004  0.2710433E+02  0.7546771E-02  0.1632495E+00
         -2   -1    0    0    0  501 -0.00000000000E+00  0.00000000000E+00  0.17918181742E+02  0.17918181742E+02  0.00000000000E+00 0.  1.
          2   -1    0    0  501    0  0.00000000000E+00 -0.00000000000E+00 -0.41144130379E+02  0.41144130379E+02  0.00000000000E+00 0.  1.
          2    1    1    2  502    0 -0.16814896758E+02  0.21258028656E+02 -0.13361134734E+02  0.30218611098E+02  0.00000000000E+00 0.  1.
         -2    1    1    2    0  502  0.16814896758E+02 -0.21258028656E+02 -0.98648139034E+01  0.28843701022E+02  0.00000000000E+00 0.  1.
<mgrwt>
<rscale>  2 0.27104327E+02</rscale>
<asrwt>0</asrwt>
<pdfrwt beam="2">  1        2 0.63298662E-02 0.27104327E+02</pdfrwt>
<pdfrwt beam="1">  1       -2 0.27566433E-02 0.27104327E+02</pdfrwt>
<totfact> 0.33404300E+05</totfact>
</mgrwt>
</event>
<event>
 4    1  0.1429937E+004  0.2104003E+02  0.7546771E-02  0.1725403E+00
          2   -1    0    0  501    0  0.00000000000E+00  0.00000000000E+00  0.16416188201E+04  0.16416188201E+04  0.00000000000E+00 0.  1.
         -2   -1    0    0    0  501 -0.00000000000E+00 -0.00000000000E+00 -0.26966590364E+00  0.26966590364E+00  0.00000000000E+00 0. -1.
          2    1    1    2  502    0 -0.11774328103E+02 -0.17436958221E+02  0.81757558324E+03  0.81784626711E+03  0.00000000000E+00 0.  1.
         -2    1    1    2    0  502  0.11774328103E+02  0.17436958221E+02  0.82377357099E+03  0.82404221893E+03  0.00000000000E+00 0. -1.
<mgrwt>
<rscale>  2 0.21040027E+02</rscale>
<asrwt>0</asrwt>
<pdfrwt beam="1">  1        2 0.25254874E+00 0.21040027E+02</pdfrwt>
<pdfrwt beam="2">  1       -2 0.41488377E-04 0.21040027E+02</pdfrwt>
<totfact> 0.13378303E+06</totfact>
</mgrwt>
</event>
<event>
 4    1  0.1429937E+004  0.2920942E+02  0.7546771E-02  0.1606996E+00
          2   -1    0    0  501    0  0.00000000000E+00  0.00000000000E+00  0.73212309135E+02  0.73212309135E+02  0.00000000000E+00 0. -1.
         -2   -1    0    0    0  501 -0.00000000000E+00 -0.00000000000E+00 -0.53490337016E+02  0.53490337016E+02  0.00000000000E+00 0.  1.
          2    1    1    2  502    0  0.27598428713E+02  0.95664344178E+01  0.65887901675E+02  0.72072224345E+02  0.00000000000E+00 0. -1.
         -2    1    1    2    0  502 -0.27598428713E+02 -0.95664344178E+01 -0.46165929556E+02  0.54630421806E+02  0.00000000000E+00 0.  1.
<mgrwt>
<rscale>  2 0.29209415E+02</rscale>
<asrwt>0</asrwt>
<pdfrwt beam="1">  1        2 0.11263432E-01 0.29209415E+02</pdfrwt>
<pdfrwt beam="2">  1       -2 0.82292826E-02 0.29209415E+02</pdfrwt>
<totfact> 0.36032131E+04</totfact>
</mgrwt>
</event>
<event>
 4    1  0.1429937E+004  0.2285057E+02  0.7546771E-02  0.1693944E+00
         -2   -1    0    0    0  501 -0.00000000000E+00  0.00000000000E+00  0.36119704420E+02  0.36119704420E+02  0.00000000000E+00 0.  1.
          2   -1    0    0  501    0  0.00000000000E+00 -0.00000000000E+00 -0.47657872801E+02  0.47657872801E+02  0.00000000000E+00 0.  1.
          2    1    1    2  502    0 -0.10805007105E+02  0.20134560678E+02 -0.40732298703E+02  0.46704056247E+02  0.00000000000E+00 0.  1.
         -2    1    1    2    0  502  0.10805007105E+02 -0.20134560678E+02  0.29194130322E+02  0.37073520975E+02  0.00000000000E+00 0.  1.
<mgrwt>
<rscale>  2 0.22850574E+02</rscale>
<asrwt>0</asrwt>
<pdfrwt beam="2">  1        2 0.73319804E-02 0.22850574E+02</pdfrwt>
<pdfrwt beam="1">  1       -2 0.55568776E-02 0.22850574E+02</pdfrwt>
<totfact> 0.99654973E+04</totfact>
</mgrwt>
</event>
<event>
 4    1  0.1429937E+004  0.2464718E+02  0.7546771E-02  0.1666122E+00
         -2   -1    0    0    0  501 -0.00000000000E+00  0.00000000000E+00  0.10570936790E+02  0.10570936790E+02  0.00000000000E+00 0. -1.
          2   -1    0    0  501    0  0.00000000000E+00 -0.00000000000E+00 -0.97597785092E+02  0.97597785092E+02  0.00000000000E+00 0. -1.
          2    1    1    2  502    0  0.23290147325E+02 -0.80655128447E+01 -0.78194198925E+02  0.81986683098E+02  0.00000000000E+00 0. -1.
         -2    1    1    2    0  502 -0.23290147325E+02  0.80655128447E+01 -0.88326493769E+01  0.26182038784E+02  0.00000000000E+00 0. -1.
<mgrwt>
<rscale>  2 0.24647180E+02</rscale>
<asrwt>0</asrwt>
<pdfrwt beam="2">  1        2 0.15015044E-01 0.24647180E+02</pdfrwt>
<pdfrwt beam="1">  1       -2 0.16262979E-02 0.24647180E+02</pdfrwt>
<totfact> 0.24800073E+05</totfact>
</mgrwt>
</event>
<event>
 4    1  0.1429937E+004  0.3448269E+02  0.7546771E-02  0.1553243E+00
         -2   -1    0    0    0  501 -0.00000000000E+00  0.00000000000E+00  0.37495713232E+00  0.37495713232E+00  0.00000000000E+00 0. -1.
          2   -1    0    0  501    0  0.00000000000E+00 -0.00000000000E+00 -0.32349576366E+04  0.32349576366E+04  0.00000000000E+00 0.  1.
          2    1    1    2  502    0  0.11693058559E+02 -0.32439606839E+02 -0.18444328738E+04  0.18447551820E+04  0.00000000000E+00 0.  1.
         -2    1    1    2    0  502 -0.11693058559E+02  0.32439606839E+02 -0.13901498057E+04  0.13905774118E+04  0.00000000000E+00 0. -1.
<mgrwt>
<rscale>  2 0.34482687E+02</rscale>
<asrwt>0</asrwt>
<pdfrwt beam="2">  1        2 0.49768174E+00 0.34482687E+02</pdfrwt>
<pdfrwt beam="1">  1       -2 0.57686182E-04 0.34482687E+02</pdfrwt>
<totfact> 0.15458245E+05</totfact>
</mgrwt>
</event>
<event>
 4    1  0.1429937E+004  0.5198436E+02  0.7546771E-02  0.1434923E+00
         -2   -1    0    0    0  501 -0.00000000000E+00  0.00000000000E+00  0.58761494059E+01  0.58761494059E+01  0.00000000000E+00 0.  1.
          2   -1    0    0  501    0  0.00000000000E+00 -0.00000000000E+00 -0.56017922226E+03  0.56017922226E+03  0.00000000000E+00 0. -1.
          2    1    1    2  502    0  0.35934301436E+02 -0.37564609483E+02 -0.39690709084E+03  0.40029690564E+03  0.00000000000E+00 0. -1.
         -2    1    1    2    0  502 -0.35934301436E+02  0.37564609483E+02 -0.15739598201E+03  0.16575846603E+03  0.00000000000E+00 0.  1.
<mgrwt>
<rscale>  2 0.51984362E+02</rscale>
<asrwt>0</asrwt>
<pdfrwt beam="2">  1        2 0.86181404E-01 0.51984362E+02</pdfrwt>
<pdfrwt beam="1">  1       -2 0.90402314E-03 0.51984362E+02</pdfrwt>
<totfact> 0.10686099E+05</totfact>
</mgrwt>
</event>
<event>
 4    1  0.1429937E+004  0.2553886E+02  0.7546771E-02  0.1653381E+00
          2   -1    0    0  501    0  0.00000000000E+00  0.00000000000E+00  0.18991665559E+04  0.18991665559E+04  0.00000000000E+00 0.  1.
         -2   -1    0    0    0  501 -0.00000000000E+00 -0.00000000000E+00 -0.14496865392E+01  0.14496865392E+01  0.00000000000E+00 0.  1.
          2    1    1    2  502    0  0.23966052200E+02  0.88239382070E+01  0.17790054797E+04  0.17791887843E+04  0.00000000000E+00 0.  1.
         -2    1    1    2    0  502 -0.23966052200E+02 -0.88239382070E+01  0.11871138967E+03  0.12142745810E+03  0.00000000000E+00 0.  1.
<mgrwt>
<rscale>  2 0.25538863E+02</rscale>
<asrwt>0</asrwt>
<pdfrwt beam="1">  1        2 0.29217748E+00 0.25538863E+02</pdfrwt>
<pdfrwt beam="2">  1       -2 0.22303022E-03 0.25538863E+02</pdfrwt>
<totfact> 0.11603234E+05</totfact>
</mgrwt>
</event>
<event>
 4    1  0.1429937E+004  0.2201635E+02  0.7546771E-02  0.1707969E+00
         -2   -1    0    0    0  501 -0.00000000000E+00  0.00000000000E+00  0.23991541967E+01  0.23991541967E+01  0.00000000000E+00 0. -1.
          2   -1    0    0  501    0  0.00000000000E+00 -0.00000000000E+00 -0.10490808193E+04  0.10490808193E+04  0.00000000000E+00 0.  1.
          2    1    1    2  502    0  0.10842147866E+02  0.19161616766E+02 -0.99575104981E+03  0.99599441411E+03  0.00000000000E+00 0.  1.
         -2    1    1    2    0  502 -0.10842147866E+02 -0.19161616766E+02 -0.50930615334E+02  0.55485559434E+02  0.00000000000E+00 0. -1.
<mgrwt>
<rscale>  2 0.22016351E+02</rscale>
<asrwt>0</asrwt>
<pdfrwt beam="2">  1        2 0.16139719E+00 0.22016351E+02</pdfrwt>
<pdfrwt beam="1">  1       -2 0.36910032E-03 0.22016351E+02</pdfrwt>
<totfact> 0.14777272E+05</totfact>
</mgrwt>
</event>
<event>
 4    1  0.1429937E+004  0.2056670E+02  0.7546771E-02  0.1734288E+00
          2   -1    0    0  501    0  0.00000000000E+00  0.00000000000E+00  0.10755253732E+04  0.10755253732E+04  0.00000000000E+00 0.  1.
         -2   -1    0    0    0  501 -0.00000000000E+00 -0.00000000000E+00 -0.13710971401E+02  0.13710971401E+02  0.00000000000E+00 0.  1.
          2    1    1    2  502    0 -0.17469971339E+02 -0.10853066422E+02  0.10676576216E+04  0.10678556953E+04  0.00000000000E+00 0.  1.
         -2    1    1    2    0  502  0.17469971339E+02  0.10853066422E+02 -0.58432197841E+01  0.21380649354E+02  0.00000000000E+00 0.  1.
<mgrwt>
<rscale>  2 0.20566695E+02</rscale>
<asrwt>0</asrwt>
<pdfrwt beam="1">  1        2 0.16546538E+00 0.20566695E+02</pdfrwt>
<pdfrwt beam="2">  1       -2 0.21093811E-02 0.20566695E+02</pdfrwt>
<totfact> 0.13511979E+04</totfact>
</mgrwt>
</event>
<event>
 4    1  0.1429937E+004  0.2090900E+02  0.7546771E-02  0.1727833E+00
          2   -1    0    0  501    0  0.00000000000E+00  0.00000000000E+00  0.46458784476E+03  0.46458784476E+03  0.00000000000E+00 0. -1.
         -2   -1    0    0    0  501 -0.00000000000E+00 -0.00000000000E+00 -0.19774536622E+01  0.19774536622E+01  0.00000000000E+00 0.  1.
          2    1    1    2  502    0 -0.20381253948E+02  0.46680413633E+01  0.40019373702E+03  0.40073958286E+03  0.00000000000E+00 0. -1.
         -2    1    1    2    0  502  0.20381253948E+02 -0.46680413633E+01  0.62416654075E+02  0.65825715557E+02  0.00000000000E+00 0.  1.
<mgrwt>
<rscale>  2 0.20908996E+02</rscale>
<asrwt>0</asrwt>
<pdfrwt beam="1">  1        2 0.71474966E-01 0.20908996E+02</pdfrwt>
<pdfrwt beam="2">  1       -2 0.30422401E-03 0.20908996E+02</pdfrwt>
<totfact> 0.46073614E+05</totfact>
</mgrwt>
</event>
<event>
 4    1  0.1429937E+004  0.7287544E+02  0.7546771E-02  0.1350579E+00
         -2   -1    0    0    0  501 -0.00000000000E+00  0.00000000000E+00  0.21692976769E+02  0.21692976769E+02  0.00000000000E+00 0. -1.
          2   -1    0    0  501    0  0.00000000000E+00 -0.00000000000E+00 -0.18330879590E+04  0.18330879590E+04  0.00000000000E+00 0. -1.
          2    1    1    2  502    0  0.63839844482E+01  0.72595280196E+02 -0.17689406473E+04  0.17704411437E+04  0.00000000000E+00 0. -1.
         -2    1    1    2    0  502 -0.63839844482E+01 -0.72595280196E+02 -0.42454335028E+02  0.84339792072E+02  0.00000000000E+00 0. -1.
<mgrwt>
<rscale>  2 0.72875441E+02</rscale>
<asrwt>0</asrwt>
<pdfrwt beam="2">  1        2 0.28201361E+00 0.72875441E+02</pdfrwt>
<pdfrwt beam="1">  1       -2 0.33373801E-02 0.72875441E+02</pdfrwt>
<totfact> 0.32538461E+03</totfact>
</mgrwt>
</event>
<event>
 4    1  0.1429937E+004  0.1033767E+03  0.7546771E-02  0.1273351E+00
          2   -1    0    0  501    0  0.00000000000E+00  0.00000000000E+00  0.18238808829E+04  0.18238808829E+04  0.00000000000E+00 0.  1.
         -2   -1    0    0    0  501 -0.00000000000E+00 -0.00000000000E+00 -0.41137427708E+02  0.41137427708E+02  0.00000000000E+00 0. -1.
          2    1    1    2  502    0 -0.23366061479E+02  0.10070139739E+03  0.17549208272E+04  0.17579629843E+04  0.00000000000E+00 0.  1.
         -2    1    1    2    0  502  0.23366061479E+02 -0.10070139739E+03  0.27822627950E+02  0.10705532631E+03  0.00000000000E+00 0. -1.
<mgrwt>
<rscale>  2 0.10337671E+03</rscale>
<asrwt>0</asrwt>
<pdfrwt beam="1">  1        2 0.28059700E+00 0.10337671E+03</pdfrwt>
<pdfrwt beam="2">  1       -2 0.63288364E-02 0.10337671E+03</pdfrwt>
<totfact> 0.12771428E+03</totfact>
</mgrwt>
</event>
<event>
 4    1  0.1429937E+004  0.2256652E+02  0.7546771E-02  0.1698635E+00
         -2   -1    0    0    0  501 -0.00000000000E+00  0.00000000000E+00  0.23357825833E+01  0.23357825833E+01  0.00000000000E+00 0. -1.
          2   -1    0    0  501    0  0.00000000000E+00 -0.00000000000E+00 -0.94661420062E+03  0.94661420062E+03  0.00000000000E+00 0. -1.
          2    1    1    2  502    0 -0.10088654491E+02 -0.20185810588E+02 -0.88840392506E+03  0.88869048716E+03  0.00000000000E+00 0. -1.
         -2    1    1    2    0  502  0.10088654491E+02  0.20185810588E+02 -0.55874492977E+02  0.60259496048E+02  0.00000000000E+00 0. -1.
<mgrwt>
<rscale>  2 0.22566522E+02</rscale>
<asrwt>0</asrwt>
<pdfrwt beam="2">  1        2 0.14563307E+00 0.22566522E+02</pdfrwt>
<pdfrwt beam="1">  1       -2 0.35935088E-03 0.22566522E+02</pdfrwt>
<totfact> 0.17501815E+05</totfact>
</mgrwt>
</event>
<event>
 4    1  0.1429937E+004  0.3970784E+02  0.7546771E-02  0.1510373E+00
         -2   -1    0    0    0  501 -0.00000000000E+00  0.00000000000E+00  0.78809621944E+02  0.78809621944E+02  0.00000000000E+00 0.  1.
          2   -1    0    0  501    0  0.00000000000E+00 -0.00000000000E+00 -0.36428761121E+02  0.36428761121E+02  0.00000000000E+00 0. -1.
          2    1    1    2  502    0 -0.13477089633E+02 -0.37350780206E+02 -0.17496127398E+02  0.43391556793E+02  0.00000000000E+00 0. -1.
         -2    1    1    2    0  502  0.13477089633E+02  0.37350780206E+02  0.59876988222E+02  0.71846826273E+02  0.00000000000E+00 0.  1.
<mgrwt>
<rscale>  2 0.39707842E+02</rscale>
<asrwt>0</asrwt>
<pdfrwt beam="2">  1        2 0.56044248E-02 0.39707842E+02</pdfrwt>
<pdfrwt beam="1">  1       -2 0.12124557E-01 0.39707842E+02</pdfrwt>
<totfact> 0.49004222E+04</totfact>
</mgrwt>
</event>
<event>
 4    1  0.1429937E+004  0.3907399E+02  0.7546771E-02  0.1515139E+00
          2   -1    0    0  501    0  0.00000000000E+00  0.00000000000E+00  0.12373625524E+04  0.12373625524E+04  0.00000000000E+00 0.  1.
         -2   -1    0    0    0  501 -0.00000000000E+00 -0.00000000000E+00 -0.13743121119E+01  0.13743121119E+01  0.00000000000E+00 0.  1.
          2    1    1    2  502    0  0.86293513374E+01 -0.38109197054E+02  0.81597122797E+03  0.81690625012E+03  0.00000000000E+00 0.  1.
         -2    1    1    2    0  502 -0.86293513374E+01  0.38109197054E+02  0.42001701233E+03  0.42183061441E+03  0.00000000000E+00 0.  1.
<mgrwt>
<rscale>  2 0.39073989E+02</rscale>
<asrwt>0</asrwt>
<pdfrwt beam="1">  1        2 0.19036258E+00 0.39073989E+02</pdfrwt>
<pdfrwt beam="2">  1       -2 0.21143362E-03 0.39073989E+02</pdfrwt>
<totfact> 0.28180838E+05</totfact>
</mgrwt>
</event>
<event>
 4    1  0.1429937E+004  0.2387103E+02  0.7546771E-02  0.1677768E+00
          2   -1    0    0  501    0  0.00000000000E+00  0.00000000000E+00  0.50429826268E+02  0.50429826268E+02  0.00000000000E+00 0.  1.
         -2   -1    0    0    0  501 -0.00000000000E+00 -0.00000000000E+00 -0.14404638561E+02  0.14404638561E+02  0.00000000000E+00 0. -1.
          2    1    1    2  502    0 -0.18509219595E+02 -0.15074311834E+02  0.33063865581E+02  0.40780452357E+02  0.00000000000E+00 0.  1.
         -2    1    1    2    0  502  0.18509219595E+02  0.15074311834E+02  0.29613221259E+01  0.24054012472E+02  0.00000000000E+00 0. -1.
<mgrwt>
<rscale>  2 0.23871030E+02</rscale>
<asrwt>0</asrwt>
<pdfrwt beam="1">  1        2 0.77584347E-02 0.23871030E+02</pdfrwt>
<pdfrwt beam="2">  1       -2 0.22160983E-02 0.23871030E+02</pdfrwt>
<totfact> 0.34163868E+05</totfact>
</mgrwt>
</event>
<event>
 4    1  0.1429937E+004  0.3041982E+02  0.7546771E-02  0.1593494E+00
          2   -1    0    0  501    0  0.00000000000E+00  0.00000000000E+00  0.17806135069E+04  0.17806135069E+04  0.00000000000E+00 0.  1.
         -2   -1    0    0    0  501 -0.00000000000E+00 -0.00000000000E+00 -0.16824995921E+01  0.16824995921E+01  0.00000000000E+00 0.  1.
          2    1    1    2  502    0 -0.29574557563E+01 -0.30275715868E+02  0.16303095865E+04  0.16305933624E+04  0.00000000000E+00 0.  1.
         -2    1    1    2    0  502  0.29574557563E+01  0.30275715868E+02  0.14862142082E+03  0.15170264415E+03  0.00000000000E+00 0.  1.
<mgrwt>
<rscale>  2 0.30419821E+02</rscale>
<asrwt>0</asrwt>
<pdfrwt beam="1">  1        2 0.27393903E+00 0.30419821E+02</pdfrwt>
<pdfrwt beam="2">  1       -2 0.25884752E-03 0.30419821E+02</pdfrwt>
<totfact> 0.11141785E+05</totfact>
</mgrwt>
</event>
<event>
 4    1  0.1429937E+004  0.2905229E+02  0.7546771E-02  0.1608807E+00
         -2   -1    0    0    0  501 -0.00000000000E+00  0.00000000000E+00  0.85067354681E+01  0.85067354681E+01  0.00000000000E+00 0.  1.
          2   -1    0    0  501    0  0.00000000000E+00 -0.00000000000E+00 -0.15414247058E+03  0.15414247058E+03  0.00000000000E+00 0.  1.
          2    1    1    2  502    0  0.28209652741E+02 -0.69463027415E+01 -0.12136203584E+03  0.12479094267E+03  0.00000000000E+00 0.  1.
         -2    1    1    2    0  502 -0.28209652741E+02  0.69463027415E+01 -0.24273699272E+02  0.37858263377E+02  0.00000000000E+00 0.  1.
<mgrwt>
<rscale>  2 0.29052291E+02</rscale>
<asrwt>0</asrwt>
<pdfrwt beam="2">  1        2 0.23714227E-01 0.29052291E+02</pdfrwt>
<pdfrwt beam="1">  1       -2 0.13087285E-02 0.29052291E+02</pdfrwt>
<totfact> 0.21340864E+05</totfact>
</mgrwt>
</event>
<event>
 4    1  0.1429937E+004  0.3715885E+02  0.7546771E-02  0.1530225E+00
         -2   -1    0    0    0  501 -0.00000000000E+00  0.00000000000E+00  0.10534714716E+01  0.10534714716E+01  0.00000000000E+00 0.  1.
          2   -1    0    0  501    0  0.00000000000E+00 -0.00000000000E+00 -0.13634536883E+04  0.13634536883E+04  0.00000000000E+00 0. -1.
          2    1    1    2  502    0  0.27368870661E+02  0.25134116563E+02 -0.54699281612E+03  0.54825351780E+03  0.00000000000E+00 0.  1.
         -2    1    1    2    0  502 -0.27368870661E+02 -0.25134116563E+02 -0.81540740068E+03  0.81625364194E+03  0.00000000000E+00 0. -1.
<mgrwt>
<rscale>  2 0.37158852E+02</rscale>
<asrwt>0</asrwt>
<pdfrwt beam="2">  1        2 0.20976292E+00 0.37158852E+02</pdfrwt>
<pdfrwt beam="1">  1       -2 0.16207191E-03 0.37158852E+02</pdfrwt>
<totfact> 0.34482204E+05</totfact>
</mgrwt>
</event>
<event>
 4    1  0.1429937E+004  0.5645974E+02  0.7546771E-02  0.1413319E+00
          2   -1    0    0  501    0  0.00000000000E+00  0.00000000000E+00  0.14450855911E+02  0.14450855911E+02  0.00000000000E+00 0.  1.
         -2   -1    0    0    0  501 -0.00000000000E+00 -0.00000000000E+00 -0.24509104947E+03  0.24509104947E+03  0.00000000000E+00 0. -1.
          2    1    1    2  502    0 -0.33222896646E+02  0.45650204991E+02 -0.74288954247E+02  0.93308899899E+02  0.00000000000E+00 0.  1.
         -2    1    1    2    0  502  0.33222896646E+02 -0.45650204991E+02 -0.15635123931E+03  0.16623300548E+03  0.00000000000E+00 0. -1.
<mgrwt>
<rscale>  2 0.56459739E+02</rscale>
<asrwt>0</asrwt>
<pdfrwt beam="1">  1        2 0.22232088E-02 0.56459739E+02</pdfrwt>
<pdfrwt beam="2">  1       -2 0.37706312E-01 0.56459739E+02</pdfrwt>
<totfact> 0.25663882E+04</totfact>
</mgrwt>
</event>
<event>
 4    1  0.1429937E+004  0.2782555E+02  0.7546771E-02  0.1623448E+00
          2   -1    0    0  501    0  0.00000000000E+00  0.00000000000E+00  0.10679752867E+04  0.10679752867E+04  0.00000000000E+00 0.  1.
         -2   -1    0    0    0  501 -0.00000000000E+00 -0.00000000000E+00 -0.20166402612E+01  0.20166402612E+01  0.00000000000E+00 0.  1.
          2    1    1    2  502    0 -0.15903217768E+02 -0.22833065419E+02  0.96114353214E+03  0.96154622905E+03  0.00000000000E+00 0.  1.
         -2    1    1    2    0  502  0.15903217768E+02  0.22833065419E+02  0.10481511433E+03  0.10844569795E+03  0.00000000000E+00 0.  1.
<mgrwt>
<rscale>  2 0.27825550E+02</rscale>
<asrwt>0</asrwt>
<pdfrwt beam="1">  1        2 0.16430344E+00 0.27825550E+02</pdfrwt>
<pdfrwt beam="2">  1       -2 0.31025320E-03 0.27825550E+02</pdfrwt>
<totfact> 0.19190704E+05</totfact>
</mgrwt>
</event>
<event>
 4    1  0.1429937E+004  0.3525730E+02  0.7546771E-02  0.1546327E+00
         -2   -1    0    0    0  501 -0.00000000000E+00  0.00000000000E+00  0.91808102862E+02  0.91808102862E+02  0.00000000000E+00 0. -1.
          2   -1    0    0  501    0  0.00000000000E+00 -0.00000000000E+00 -0.13703264070E+02  0.13703264070E+02  0.00000000000E+00 0. -1.
          2    1    1    2  502    0  0.32598759495E+02  0.13431192283E+02  0.44811917225E+02  0.57019154432E+02  0.00000000000E+00 0. -1.
         -2    1    1    2    0  502 -0.32598759495E+02 -0.13431192283E+02  0.33292921567E+02  0.48492212501E+02  0.00000000000E+00 0. -1.
<mgrwt>
<rscale>  2 0.35257301E+02</rscale>
<asrwt>0</asrwt>
<pdfrwt beam="2">  1        2 0.21081945E-02 0.35257301E+02</pdfrwt>
<pdfrwt beam="1">  1       -2 0.14124323E-01 0.35257301E+02</pdfrwt>
<totfact> 0.13126313E+05</totfact>
</mgrwt>
</event>
<event>
 4    1  0.1429937E+004  0.2041625E+02  0.7546771E-02  0.1737175E+00
         -2   -1    0    0    0  501 -0.00000000000E+00  0.00000000000E+00  0.61562675234E+00  0.61562675234E+00  0.00000000000E+00 0.  1.
          2   -1    0    0  501    0  0.00000000000E+00 -0.00000000000E+00 -0.70864599063E+03  0.70864599063E+03  0.00000000000E+00 0. -1.
          2    1    1    2  502    0  0.10285978609E+01 -0.20390320653E+02 -0.42887202742E+03  0.42935770530E+03  0.00000000000E+00 0. -1.
         -2    1    1    2    0  502 -0.10285978609E+01  0.20390320653E+02 -0.27915833646E+03  0.27990391209E+03  0.00000000000E+00 0.  1.
<mgrwt>
<rscale>  2 0.20416248E+02</rscale>
<asrwt>0</asrwt>
<pdfrwt beam="2">  1        2 0.10902233E+00 0.20416248E+02</pdfrwt>
<pdfrwt beam="1">  1       -2 0.94711925E-04 0.20416248E+02</pdfrwt>
<totfact> 0.13762202E+06</totfact>
</mgrwt>
</event>
<event>
 4    1  0.1429937E+004  0.2374470E+02  0.7546771E-02  0.1679715E+00
          2   -1    0    0  501    0  0.00000000000E+00  0.00000000000E+00  0.70505445777E+02  0.70505445777E+02  0.00000000000E+00 0.  1.
         -2   -1    0    0    0  501 -0.00000000000E+00 -0.00000000000E+00 -0.12759633272E+02  0.12759633272E+02  0.00000000000E+00 0.  1.
          2    1    1    2  502    0  0.12538282377E+02 -0.20164385919E+02  0.54309034129E+02  0.59272946379E+02  0.00000000000E+00 0.  1.
         -2    1    1    2    0  502 -0.12538282377E+02  0.20164385919E+02  0.34367783754E+01  0.23992132670E+02  0.00000000000E+00 0.  1.
<mgrwt>
<rscale>  2 0.23744704E+02</rscale>
<asrwt>0</asrwt>
<pdfrwt beam="1">  1        2 0.10846991E-01 0.23744704E+02</pdfrwt>
<pdfrwt beam="2">  1       -2 0.19630205E-02 0.23744704E+02</pdfrwt>
<totfact> 0.27302483E+05</totfact>
</mgrwt>
</event>
<event>
 4    1  0.1429937E+004  0.3141618E+02  0.7546771E-02  0.1582942E+00
         -2   -1    0    0    0  501 -0.00000000000E+00  0.00000000000E+00  0.18660746080E+01  0.18660746080E+01  0.00000000000E+00 0.  1.
          2   -1    0    0  501    0  0.00000000000E+00 -0.00000000000E+00 -0.75901687366E+03  0.75901687366E+03  0.00000000000E+00 0. -1.
          2    1    1    2  502    0 -0.13733856421E+02  0.28255221882E+02 -0.58805009178E+03  0.58888868797E+03  0.00000000000E+00 0. -1.
         -2    1    1    2    0  502  0.13733856421E+02 -0.28255221882E+02 -0.16910070727E+03  0.17199426030E+03  0.00000000000E+00 0.  1.
<mgrwt>
<rscale>  2 0.31416180E+02</rscale>
<asrwt>0</asrwt>
<pdfrwt beam="2">  1        2 0.11677194E+00 0.31416180E+02</pdfrwt>
<pdfrwt beam="1">  1       -2 0.28708811E-03 0.31416180E+02</pdfrwt>
<totfact> 0.33126268E+05</totfact>
</mgrwt>
</event>
<event>
 4    1  0.1429937E+004  0.2189686E+02  0.7546771E-02  0.1710042E+00
         -2   -1    0    0    0  501 -0.00000000000E+00  0.00000000000E+00  0.55029291275E+01  0.55029291275E+01  0.00000000000E+00 0.  1.
          2   -1    0    0  501    0  0.00000000000E+00 -0.00000000000E+00 -0.12632919943E+04  0.12632919943E+04  0.00000000000E+00 0. -1.
          2    1    1    2  502    0 -0.19844580027E+02  0.92555548177E+01 -0.12410236720E+04  0.12412168332E+04  0.00000000000E+00 0. -1.
         -2    1    1    2    0  502  0.19844580027E+02 -0.92555548177E+01 -0.16765393228E+02  0.27578090244E+02  0.00000000000E+00 0.  1.
<mgrwt>
<rscale>  2 0.21896864E+02</rscale>
<asrwt>0</asrwt>
<pdfrwt beam="2">  1        2 0.19435250E+00 0.21896864E+02</pdfrwt>
<pdfrwt beam="1">  1       -2 0.84660497E-03 0.21896864E+02</pdfrwt>
<totfact> 0.37816873E+04</totfact>
</mgrwt>
</event>
<event>
 4    1  0.1429937E+004  0.2029847E+02  0.7546771E-02  0.1739457E+00
         -2   -1    0    0    0  501 -0.00000000000E+00  0.00000000000E+00  0.44972680660E+02  0.44972680660E+02  0.00000000000E+00 0. -1.
          2   -1    0    0  501    0  0.00000000000E+00 -0.00000000000E+00 -0.14168095700E+03  0.14168095700E+03  0.00000000000E+00 0.  1.
          2    1    1    2  502    0  0.20283652931E+02 -0.77553637069E+00 -0.13861306206E+03  0.14009143089E+03  0.00000000000E+00 0.  1.
         -2    1    1    2    0  502 -0.20283652931E+02  0.77553637069E+00  0.41904785726E+02  0.46562206773E+02  0.00000000000E+00 0. -1.
<mgrwt>
<rscale>  2 0.20298474E+02</rscale>
<asrwt>0</asrwt>
<pdfrwt beam="2">  1        2 0.21797070E-01 0.20298474E+02</pdfrwt>
<pdfrwt beam="1">  1       -2 0.69188741E-02 0.20298474E+02</pdfrwt>
<totfact> 0.21026637E+04</totfact>
</mgrwt>
</event>
<event>
 4    1  0.1429937E+004  0.3080218E+02  0.7546771E-02  0.1589387E+00
         -2   -1    0    0    0  501 -0.00000000000E+00  0.00000000000E+00  0.66351912938E+01  0.66351912938E+01  0.00000000000E+00 0.  1.
          2   -1    0    0  501    0  0.00000000000E+00 -0.00000000000E+00 -0.56948325174E+03  0.56948325174E+03  0.00000000000E+00 0. -1.
          2    1    1    2  502    0  0.19984206556E+02 -0.23439408075E+02 -0.53070937357E+03  0.53160249581E+03  0.00000000000E+00 0. -1.
         -2    1    1    2    0  502 -0.19984206556E+02  0.23439408075E+02 -0.32138686877E+02  0.44515947219E+02  0.00000000000E+00 0.  1.
<mgrwt>
<rscale>  2 0.30802181E+02</rscale>
<asrwt>0</asrwt>
<pdfrwt beam="2">  1        2 0.87612789E-01 0.30802181E+02</pdfrwt>
<pdfrwt beam="1">  1       -2 0.10207989E-02 0.30802181E+02</pdfrwt>
<totfact> 0.80659832E+04</totfact>
</mgrwt>
</event>
<event>
 4    1  0.1429937E+004  0.2169748E+02  0.7546771E-02  0.1713537E+00
          2   -1    0    0  501    0  0.00000000000E+00  0.00000000000E+00  0.15790852970E+03  0.15790852970E+03  0.00000000000E+00 0. -1.
         -2   -1    0    0    0  501 -0.00000000000E+00 -0.00000000000E+00 -0.37625557095E+01  0.37625557095E+01  0.00000000000E+00 0. -1.
          2    1    1    2  502    0 -0.15163479069E+02 -0.15519315876E+02  0.40239386089E+02  0.45716391541E+02  0.00000000000E+00 0. -1.
         -2    1    1    2    0  502  0.15163479069E+02  0.15519315876E+02  0.11390658790E+03  0.11595469387E+03  0.00000000000E+00 0. -1.
<mgrwt>
<rscale>  2 0.21697482E+02</rscale>
<asrwt>0</asrwt>
<pdfrwt beam="1">  1        2 0.24293615E-01 0.21697482E+02</pdfrwt>
<pdfrwt beam="2">  1       -2 0.57885485E-03 0.21697482E+02</pdfrwt>
<totfact> 0.57825230E+05</totfact>
</mgrwt>
</event>
<event>
 4    1  0.1429937E+004  0.2832113E+02  0.7546771E-02  0.1617424E+00
         -2   -1    0    0    0  501 -0.00000000000E+00  0.00000000000E+00  0.15359565056E+01  0.15359565056E+01  0.00000000000E+00 0. -1.
          2   -1    0    0  501    0  0.00000000000E+00 -0.00000000000E+00 -0.14847664012E+04  0.14847664012E+04  0.00000000000E+00 0.  1.
          2    1    1    2  502    0 -0.16796286021E+02 -0.22802873442E+02 -0.13399744859E+04  0.13402737441E+04  0.00000000000E+00 0.  1.
         -2    1    1    2    0  502  0.16796286021E+02  0.22802873442E+02 -0.14325595878E+03  0.14602861359E+03  0.00000000000E+00 0. -1.
<mgrwt>
<rscale>  2 0.28321127E+02</rscale>
<asrwt>0</asrwt>
<pdfrwt beam="2">  1        2 0.22842707E+00 0.28321127E+02</pdfrwt>
<pdfrwt beam="1">  1       -2 0.23629948E-03 0.28321127E+02</pdfrwt>
<totfact> 0.17165415E+05</totfact>
</mgrwt>
</event>
<event>
 4    1  0.1429937E+004  0.2722266E+02  0.7546771E-02  0.1630987E+00
          2   -1    0    0  501    0  0.00000000000E+00  0.00000000000E+00  0.19645114726E+03  0.19645114726E+03  0.00000000000E+00 0. -1.
         -2   -1    0    0    0  501 -0.00000000000E+00 -0.00000000000E+00 -0.44901042905E+01  0.44901042905E+01  0.00000000000E+00 0. -1.
          2    1    1    2  502    0  0.24490675403E+02  0.11886134054E+02  0.13615153948E+03  0.13884637218E+03  0.00000000000E+00 0. -1.
         -2    1    1    2    0  502 -0.24490675403E+02 -0.11886134054E+02  0.55809503490E+02  0.62094879372E+02  0.00000000000E+00 0. -1.
<mgrwt>
<rscale>  2 0.27222663E+02</rscale>
<asrwt>0</asrwt>
<pdfrwt beam="1">  1        2 0.30223247E-01 0.27222663E+02</pdfrwt>
<pdfrwt beam="2">  1       -2 0.69078543E-03 0.27222663E+02</pdfrwt>
<totfact> 0.38972309E+05</totfact>
</mgrwt>
</event>
<event>
 4    1  0.1429937E+004  0.2139762E+02  0.7546771E-02  0.1718883E+00
         -2   -1    0    0    0  501 -0.00000000000E+00  0.00000000000E+00  0.40437172992E+00  0.40437172992E+00  0.00000000000E+00 0.  1.
          2   -1    0    0  501    0  0.00000000000E+00 -0.00000000000E+00 -0.11819755334E+04  0.11819755334E+04  0.00000000000E+00 0.  1.
          2    1    1    2  502    0 -0.21360631871E+02  0.12576577726E+01 -0.71201882613E+03  0.71234027477E+03  0.00000000000E+00 0.  1.
         -2    1    1    2    0  502  0.21360631871E+02 -0.12576577726E+01 -0.46955233553E+03  0.47003963035E+03  0.00000000000E+00 0.  1.
<mgrwt>
<rscale>  2 0.21397624E+02</rscale>
<asrwt>0</asrwt>
<pdfrwt beam="2">  1        2 0.18184315E+00 0.21397624E+02</pdfrwt>
<pdfrwt beam="1">  1       -2 0.62210775E-04 0.21397624E+02</pdfrwt>
<totfact> 0.13114857E+06</totfact>
</mgrwt>
</event>
<event>
 4    1  0.1429937E+004  0.2340405E+02  0.7546771E-02  0.1685043E+00
         -2   -1    0    0    0  501 -0.00000000000E+00  0.00000000000E+00  0.22506554305E+02  0.22506554305E+02  0.00000000000E+00 0. -1.
          2   -1    0    0  501    0  0.00000000000E+00 -0.00000000000E+00 -0.24373912410E+02  0.24373912410E+02  0.00000000000E+00 0. -1.
          2    1    1    2  502    0  0.10812206012E+02 -0.20756812581E+02 -0.25370235017E-01  0.23404053303E+02  0.00000000000E+00 0. -1.
         -2    1    1    2    0  502 -0.10812206012E+02  0.20756812581E+02 -0.18419878699E+01  0.23476413412E+02  0.00000000000E+00 0. -1.
<mgrwt>
<rscale>  2 0.23404051E+02</rscale>
<asrwt>0</asrwt>
<pdfrwt beam="2">  1        2 0.37498327E-02 0.23404051E+02</pdfrwt>
<pdfrwt beam="1">  1       -2 0.34625468E-02 0.23404051E+02</pdfrwt>
<totfact> 0.44299748E+05</totfact>
</mgrwt>
</event>
<event>
 4    1  0.1429937E+004  0.2113605E+02  0.7546771E-02  0.1723636E+00
         -2   -1    0    0    0  501 -0.00000000000E+00  0.00000000000E+00  0.25986080897E+02  0.25986080897E+02  0.00000000000E+00 0.  1.
          2   -1    0    0  501    0  0.00000000000E+00 -0.00000000000E+00 -0.99423075852E+03  0.99423075852E+03  0.00000000000E+00 0. -1.
          2    1    1    2  502    0 -0.17481223373E+02 -0.11880219766E+02 -0.98980138827E+03  0.99002703044E+03  0.00000000000E+00 0. -1.
         -2    1    1    2    0  502  0.17481223373E+02  0.11880219766E+02  0.21556710642E+02  0.30189808976E+02  0.00000000000E+00 0.  1.
<mgrwt>
<rscale>  2 0.21136054E+02</rscale>
<asrwt>0</asrwt>
<pdfrwt beam="2">  1        2 0.15295860E+00 0.21136054E+02</pdfrwt>
<pdfrwt beam="1">  1       -2 0.39978581E-02 0.21136054E+02</pdfrwt>
<totfact> 0.61827410E+03</totfact>
</mgrwt>
</event>
<event>
 4    1  0.1429937E+004  0.3165540E+02  0.7546771E-02  0.1580480E+00
         -2   -1    0    0    0  501 -0.00000000000E+00  0.00000000000E+00  0.23566966256E+02  0.23566966256E+02  0.00000000000E+00 0. -1.
          2   -1    0    0  501    0  0.00000000000E+00 -0.00000000000E+00 -0.62838088663E+03  0.62838088663E+03  0.00000000000E+00 0.  1.
          2    1    1    2  502    0  0.57768027482E+01 -0.31123829383E+02 -0.61715909394E+03  0.61797039689E+03  0.00000000000E+00 0.  1.
         -2    1    1    2    0  502 -0.57768027482E+01  0.31123829383E+02  0.12345173565E+02  0.33977455993E+02  0.00000000000E+00 0. -1.
<mgrwt>
<rscale>  2 0.31655398E+02</rscale>
<asrwt>0</asrwt>
<pdfrwt beam="2">  1        2 0.96673998E-01 0.31655398E+02</pdfrwt>
<pdfrwt beam="1">  1       -2 0.36256865E-02 0.31655398E+02</pdfrwt>
<totfact> 0.12557395E+04</totfact>
</mgrwt>
</event>
<event>
 4    1  0.1429937E+004  0.3510482E+02  0.7546771E-02  0.1547672E+00
         -2   -1    0    0    0  501 -0.00000000000E+00  0.00000000000E+00  0.29796232883E+03  0.29796232883E+03  0.00000000000E+00 0. -1.
          2   -1    0    0  501    0  0.00000000000E+00 -0.00000000000E+00 -0.53260050757E+03  0.53260050757E+03  0.00000000000E+00 0.  1.
          2    1    1    2  502    0 -0.35097578094E+02  0.71288787467E+00 -0.53098492709E+03  0.53214409796E+03  0.00000000000E+00 0.  1.
         -2    1    1    2    0  502  0.35097578094E+02 -0.71288787467E+00  0.29634674834E+03  0.29841873844E+03  0.00000000000E+00 0. -1.
<mgrwt>
<rscale>  2 0.35104817E+02</rscale>
<asrwt>0</asrwt>
<pdfrwt beam="2">  1        2 0.81938540E-01 0.35104817E+02</pdfrwt>
<pdfrwt beam="1">  1       -2 0.45840358E-01 0.35104817E+02</pdfrwt>
<totfact> 0.27287410E+02</totfact>
</mgrwt>
</event>
<event>
 4    1  0.1429937E+004  0.2442597E+02  0.7546771E-02  0.1669386E+00
         -2   -1    0    0    0  501 -0.00000000000E+00  0.00000000000E+00  0.41304985603E+01  0.41304985603E+01  0.00000000000E+00 0.  1.
          2   -1    0    0  501    0  0.00000000000E+00 -0.00000000000E+00 -0.23606793366E+03  0.23606793366E+03  0.00000000000E+00 0. -1.
          2    1    1    2  502    0  0.22682438324E+02  0.90628273095E+01 -0.19078996206E+03  0.19234717953E+03  0.00000000000E+00 0. -1.
         -2    1    1    2    0  502 -0.22682438324E+02 -0.90628273095E+01 -0.41147473033E+02  0.47851252692E+02  0.00000000000E+00 0.  1.
<mgrwt>
<rscale>  2 0.24425967E+02</rscale>
<asrwt>0</asrwt>
<pdfrwt beam="2">  1        2 0.36318150E-01 0.24425967E+02</pdfrwt>
<pdfrwt beam="1">  1       -2 0.63546121E-03 0.24425967E+02</pdfrwt>
<totfact> 0.35159860E+05</totfact>
</mgrwt>
</event>
<event>
 4    1  0.1429937E+004  0.2795945E+02  0.7546771E-02  0.1621805E+00
         -2   -1    0    0    0  501 -0.00000000000E+00  0.00000000000E+00  0.65658664169E+03  0.65658664169E+03  0.00000000000E+00 0.  1.
          2   -1    0    0  501    0  0.00000000000E+00 -0.00000000000E+00 -0.23197034853E+02  0.23197034853E+02  0.00000000000E+00 0. -1.
          2    1    1    2  502    0 -0.27500315878E+02  0.50461168289E+01 -0.14359596806E+02  0.31431332915E+02  0.00000000000E+00 0. -1.
         -2    1    1    2    0  502  0.27500315878E+02 -0.50461168289E+01  0.64774920364E+03  0.64835234362E+03  0.00000000000E+00 0.  1.
<mgrwt>
<rscale>  2 0.27959447E+02</rscale>
<asrwt>0</asrwt>
<pdfrwt beam="2">  1        2 0.35687751E-02 0.27959447E+02</pdfrwt>
<pdfrwt beam="1">  1       -2 0.10101332E+00 0.27959447E+02</pdfrwt>
<totfact> 0.17162645E+03</totfact>
</mgrwt>
</event>
<event>
 4    1  0.1429937E+004  0.3843590E+02  0.7546771E-02  0.1520047E+00
          2   -1    0    0  501    0  0.00000000000E+00  0.00000000000E+00  0.98388279466E+03  0.98388279466E+03  0.00000000000E+00 0.  1.
         -2   -1    0    0    0  501 -0.00000000000E+00 -0.00000000000E+00 -0.18817072503E+03  0.18817072503E+03  0.00000000000E+00 0. -1.
          2    1    1    2  502    0  0.22146132576E+02 -0.31414444334E+02  0.98153999508E+03  0.98229225816E+03  0.00000000000E+00 0.  1.
         -2    1    1    2    0  502 -0.22146132576E+02  0.31414444334E+02 -0.18582792545E+03  0.18976126153E+03  0.00000000000E+00 0. -1.
<mgrwt>
<rscale>  2 0.38435901E+02</rscale>
<asrwt>0</asrwt>
<pdfrwt beam="1">  1        2 0.15136658E+00 0.38435901E+02</pdfrwt>
<pdfrwt beam="2">  1       -2 0.28949343E-01 0.38435901E+02</pdfrwt>
<totfact> 0.31107700E+02</totfact>
</mgrwt>
</event>
<event>
 4    1  0.1429937E+004  0.2345002E+02  0.7546771E-02  0.1684318E+00
          2   -1    0    0  501    0  0.00000000000E+00  0.00000000000E+00  0.45766729787E+03  0.45766729787E+03  0.00000000000E+00 0.  1.
         -2   -1    0    0    0  501 -0.00000000000E+00 -0.00000000000E+00 -0.12042830242E+01  0.12042830242E+01  0.00000000000E+00 0.  1.
          2    1    1    2  502    0  0.22927044462E+02 -0.49248209861E+01  0.23919162749E+03  0.24033838206E+03  0.00000000000E+00 0.  1.
         -2    1    1    2    0  502 -0.22927044462E+02  0.49248209861E+01  0.21727138735E+03  0.21853319883E+03  0.00000000000E+00 0.  1.
<mgrwt>
<rscale>  2 0.23450016E+02</rscale>
<asrwt>0</asrwt>
<pdfrwt beam="1">  1        2 0.70410215E-01 0.23450016E+02</pdfrwt>
<pdfrwt beam="2">  1       -2 0.18527468E-03 0.23450016E+02</pdfrwt>
<totfact> 0.93506044E+05</totfact>
</mgrwt>
</event>
<event>
 4    1  0.1429937E+004  0.2653924E+02  0.7546771E-02  0.1639829E+00
         -2   -1    0    0    0  501 -0.00000000000E+00  0.00000000000E+00  0.94008905817E+01  0.94008905817E+01  0.00000000000E+00 0. -1.
          2   -1    0    0  501    0  0.00000000000E+00 -0.00000000000E+00 -0.15264218961E+03  0.15264218961E+03  0.00000000000E+00 0.  1.
          2    1    1    2  502    0 -0.22053268544E+02 -0.14764297434E+02 -0.12943435919E+03  0.13212715267E+03  0.00000000000E+00 0.  1.
         -2    1    1    2    0  502  0.22053268544E+02  0.14764297434E+02 -0.13806939840E+02  0.29915927530E+02  0.00000000000E+00 0. -1.
<mgrwt>
<rscale>  2 0.26539238E+02</rscale>
<asrwt>0</asrwt>
<pdfrwt beam="2">  1        2 0.23483411E-01 0.26539238E+02</pdfrwt>
<pdfrwt beam="1">  1       -2 0.14462911E-02 0.26539238E+02</pdfrwt>
<totfact> 0.18375549E+05</totfact>
</mgrwt>
</event>
<event>
 4    1  0.1429937E+004  0.2182127E+02  0.7546771E-02  0.1711361E+00
          2   -1    0    0  501    0  0.00000000000E+00  0.00000000000E+00  0.31566323760E+01  0.31566323760E+01  0.00000000000E+00 0. -1.
         -2   -1    0    0    0  501 -0.00000000000E+00 -0.00000000000E+00 -0.20695672065E+03  0.20695672065E+03  0.00000000000E+00 0.  1.
          2    1    1    2  502    0 -0.21566155898E+02 -0.33269857938E+01 -0.47197982951E+02  0.51998245252E+02  0.00000000000E+00 0. -1.
         -2    1    1    2    0  502  0.21566155898E+02  0.33269857938E+01 -0.15660210532E+03  0.15811510777E+03  0.00000000000E+00 0.  1.
<mgrwt>
<rscale>  2 0.21821272E+02</rscale>
<asrwt>0</asrwt>
<pdfrwt beam="1">  1        2 0.48563569E-03 0.21821272E+02</pdfrwt>
<pdfrwt beam="2">  1       -2 0.31839499E-01 0.21821272E+02</pdfrwt>
<totfact> 0.20798699E+05</totfact>
</mgrwt>
</event>
<event>
 4    1  0.1429937E+004  0.2905807E+02  0.7546771E-02  0.1608740E+00
          2   -1    0    0  501    0  0.00000000000E+00  0.00000000000E+00  0.55381786575E+01  0.55381786575E+01  0.00000000000E+00 0.  1.
         -2   -1    0    0    0  501 -0.00000000000E+00 -0.00000000000E+00 -0.78743994093E+03  0.78743994093E+03  0.00000000000E+00 0. -1.
          2    1    1    2  502    0 -0.26107801446E+02 -0.12757510327E+02 -0.34908893576E+02  0.45420284199E+02  0.00000000000E+00 0.  1.
         -2    1    1    2    0  502  0.26107801446E+02  0.12757510327E+02 -0.74699286869E+03  0.74755783538E+03  0.00000000000E+00 0. -1.
<mgrwt>
<rscale>  2 0.29058069E+02</rscale>
<asrwt>0</asrwt>
<pdfrwt beam="1">  1        2 0.85202756E-03 0.29058069E+02</pdfrwt>
<pdfrwt beam="2">  1       -2 0.12114460E+00 0.29058069E+02</pdfrwt>
<totfact> 0.72934542E+03</totfact>
</mgrwt>
</event>
<event>
 4    1  0.1429937E+004  0.2349506E+02  0.7546771E-02  0.1683609E+00
         -2   -1    0    0    0  501 -0.00000000000E+00  0.00000000000E+00  0.21834512633E+02  0.21834512633E+02  0.00000000000E+00 0. -1.
          2   -1    0    0  501    0  0.00000000000E+00 -0.00000000000E+00 -0.40817955683E+03  0.40817955683E+03  0.00000000000E+00 0. -1.
          2    1    1    2  502    0  0.12402645479E+02 -0.19954748814E+02 -0.40141456141E+03  0.40210156394E+03  0.00000000000E+00 0. -1.
         -2    1    1    2    0  502 -0.12402645479E+02  0.19954748814E+02  0.15069517215E+02  0.27912505516E+02  0.00000000000E+00 0. -1.
<mgrwt>
<rscale>  2 0.23495055E+02</rscale>
<asrwt>0</asrwt>
<pdfrwt beam="2">  1        2 0.62796849E-01 0.23495055E+02</pdfrwt>
<pdfrwt beam="1">  1       -2 0.33591561E-02 0.23495055E+02</pdfrwt>
<totfact> 0.20833384E+04</totfact>
</mgrwt>
</event>
<event>
 4    1  0.1429937E+004  0.2081799E+02  0.7546771E-02  0.1729534E+00
         -2   -1    0    0    0  501 -0.00000000000E+00  0.00000000000E+00  0.16637381992E+02  0.16637381992E+02  0.00000000000E+00 0. -1.
          2   -1    0    0  501    0  0.00000000000E+00 -0.00000000000E+00 -0.69736486998E+02  0.69736486998E+02  0.00000000000E+00 0.  1.
          2    1    1    2  502    0  0.18957218117E+02 -0.86030475379E+01 -0.60731788167E+02  0.64200768217E+02  0.00000000000E+00 0.  1.
         -2    1    1    2    0  502 -0.18957218117E+02  0.86030475379E+01  0.76326831615E+01  0.22173100774E+02  0.00000000000E+00 0. -1.
<mgrwt>
<rscale>  2 0.20817986E+02</rscale>
<asrwt>0</asrwt>
<pdfrwt beam="2">  1        2 0.10728690E-01 0.20817986E+02</pdfrwt>
<pdfrwt beam="1">  1       -2 0.25595972E-02 0.20817986E+02</pdfrwt>
<totfact> 0.18495680E+05</totfact>
</mgrwt>
</event>
<event>
 4    1  0.1429937E+004  0.2814493E+02  0.7546771E-02  0.1619548E+00
          2   -1    0    0  501    0  0.00000000000E+00  0.00000000000E+00  0.14883182816E+02  0.14883182816E+02  0.00000000000E+00 0. -1.
         -2   -1    0    0    0  501 -0.00000000000E+00 -0.00000000000E+00 -0.11435791507E+03  0.11435791507E+03  0.00000000000E+00 0.  1.
          2    1    1    2  502    0  0.23821190886E+02 -0.14989600946E+02 -0.24897516178E+01  0.28254842680E+02  0.00000000000E+00 0. -1.
         -2    1    1    2    0  502 -0.23821190886E+02  0.14989600946E+02 -0.96984980640E+02  0.10098625521E+03  0.00000000000E+00 0.  1.
<mgrwt>
<rscale>  2 0.28144933E+02</rscale>
<asrwt>0</asrwt>
<pdfrwt beam="1">  1        2 0.22897206E-02 0.28144933E+02</pdfrwt>
<pdfrwt beam="2">  1       -2 0.17593524E-01 0.28144933E+02</pdfrwt>
<totfact> 0.79061319E+04</totfact>
</mgrwt>
</event>
<event>
 4    1  0.1429937E+004  0.7234244E+02  0.7546771E-02  0.1352304E+00
         -2   -1    0    0    0  501 -0.00000000000E+00  0.00000000000E+00  0.66242351350E+01  0.66242351350E+01  0.00000000000E+00 0. -1.
          2   -1    0    0  501    0  0.00000000000E+00 -0.00000000000E+00 -0.29542749799E+04  0.29542749799E+04  0.00000000000E+00 0.  1.
          2    1    1    2  502    0  0.69552684607E+02  0.19896063842E+02 -0.27409522290E+04  0.27419067364E+04  0.00000000000E+00 0.  1.
         -2    1    1    2    0  502 -0.69552684607E+02 -0.19896063842E+02 -0.20669851577E+03  0.21899247867E+03  0.00000000000E+00 0. -1.
<mgrwt>
<rscale>  2 0.72342445E+02</rscale>
<asrwt>0</asrwt>
<pdfrwt beam="2">  1        2 0.45450305E+00 0.72342445E+02</pdfrwt>
<pdfrwt beam="1">  1       -2 0.10191149E-02 0.72342445E+02</pdfrwt>
<totfact> 0.46388125E+03</totfact>
</mgrwt>
</event>
<event>
 4    1  0.1429937E+004  0.2566043E+02  0.7546771E-02  0.1651693E+00
         -2   -1    0    0    0  501 -0.00000000000E+00  0.00000000000E+00  0.10009750011E+02  0.10009750011E+02  0.00000000000E+00 0. -1.
          2   -1    0    0  501    0  0.00000000000E+00 -0.00000000000E+00 -0.90637794517E+02  0.90637794517E+02  0.00000000000E+00 0.  1.
          2    1    1    2  502    0  0.21469227146E+02 -0.14054540020E+02 -0.66667349850E+02  0.71435238822E+02  0.00000000000E+00 0.  1.
         -2    1    1    2    0  502 -0.21469227146E+02  0.14054540020E+02 -0.13960694656E+02  0.29212305706E+02  0.00000000000E+00 0. -1.
<mgrwt>
<rscale>  2 0.25660433E+02</rscale>
<asrwt>0</asrwt>
<pdfrwt beam="2">  1        2 0.13944276E-01 0.25660433E+02</pdfrwt>
<pdfrwt beam="1">  1       -2 0.15399615E-02 0.25660433E+02</pdfrwt>
<totfact> 0.29323869E+05</totfact>
</mgrwt>
</event>
<event>
 4    1  0.1429937E+004  0.3667156E+02  0.7546771E-02  0.1534239E+00
         -2   -1    0    0    0  501 -0.00000000000E+00  0.00000000000E+00  0.11673143485E+02  0.11673143485E+02  0.00000000000E+00 0. -1.
          2   -1    0    0  501    0  0.00000000000E+00 -0.00000000000E+00 -0.20772101924E+04  0.20772101924E+04  0.00000000000E+00 0.  1.
          2    1    1    2  502    0 -0.34854864008E+02 -0.11399185794E+02 -0.20478340022E+04  0.20481623236E+04  0.00000000000E+00 0.  1.
         -2    1    1    2    0  502  0.34854864008E+02  0.11399185794E+02 -0.17703046670E+02  0.40721012305E+02  0.00000000000E+00 0. -1.
<mgrwt>
<rscale>  2 0.36671555E+02</rscale>
<asrwt>0</asrwt>
<pdfrwt beam="2">  1        2 0.31957110E+00 0.36671555E+02</pdfrwt>
<pdfrwt beam="1">  1       -2 0.17958665E-02 0.36671555E+02</pdfrwt>
<totfact> 0.58380767E+03</totfact>
</mgrwt>
</event>
<event>
 4    1  0.1429937E+004  0.2747806E+02  0.7546771E-02  0.1627764E+00
          2   -1    0    0  501    0  0.00000000000E+00  0.00000000000E+00  0.47471200401E+03  0.47471200401E+03  0.00000000000E+00 0.  1.
         -2   -1    0    0    0  501 -0.00000000000E+00 -0.00000000000E+00 -0.43331585807E+01  0.43331585807E+01  0.00000000000E+00 0. -1.
          2    1    1    2  502    0  0.20704580352E+02 -0.18065550779E+02  0.42574762877E+03  0.42663343420E+03  0.00000000000E+00 0.  1.
         -2    1    1    2    0  502 -0.20704580352E+02  0.18065550779E+02  0.44631216656E+02  0.52411728389E+02  0.00000000000E+00 0. -1.
<mgrwt>
<rscale>  2 0.27478060E+02</rscale>
<asrwt>0</asrwt>
<pdfrwt beam="1">  1        2 0.73032575E-01 0.27478060E+02</pdfrwt>
<pdfrwt beam="2">  1       -2 0.66664016E-03 0.27478060E+02</pdfrwt>
<totfact> 0.16951077E+05</totfact>
</mgrwt>
</event>
<event>
 4    1  0.1429937E+004  0.2864710E+02  0.7546771E-02  0.1613543E+00
         -2   -1    0    0    0  501 -0.00000000000E+00  0.00000000000E+00  0.10413086948E+03  0.10413086948E+03  0.00000000000E+00 0. -1.
          2   -1    0    0  501    0  0.00000000000E+00 -0.00000000000E+00 -0.82426965103E+01  0.82426965103E+01  0.00000000000E+00 0. -1.
          2    1    1    2  502    0 -0.74333087889E+01  0.27665908890E+02  0.36174405692E+02  0.46143734368E+02  0.00000000000E+00 0. -1.
         -2    1    1    2    0  502  0.74333087889E+01 -0.27665908890E+02  0.59713767280E+02  0.66229831624E+02  0.00000000000E+00 0. -1.
<mgrwt>
<rscale>  2 0.28647104E+02</rscale>
<asrwt>0</asrwt>
<pdfrwt beam="2">  1        2 0.12681072E-02 0.28647104E+02</pdfrwt>
<pdfrwt beam="1">  1       -2 0.16020133E-01 0.28647104E+02</pdfrwt>
<totfact> 0.19842722E+05</totfact>
</mgrwt>
</event>
<event>
 4    1  0.1429937E+004  0.2862361E+02  0.7546771E-02  0.1613821E+00
          2   -1    0    0  501    0  0.00000000000E+00  0.00000000000E+00  0.20134251650E+03  0.20134251650E+03  0.00000000000E+00 0.  1.
         -2   -1    0    0    0  501 -0.00000000000E+00 -0.00000000000E+00 -0.14881751361E+03  0.14881751361E+03  0.00000000000E+00 0. -1.
          2    1    1    2  502    0  0.11366585143E+02 -0.26269975363E+02  0.19893224765E+03  0.20098096930E+03  0.00000000000E+00 0.  1.
         -2    1    1    2    0  502 -0.11366585143E+02  0.26269975363E+02 -0.14640724477E+03  0.14917906081E+03  0.00000000000E+00 0. -1.
<mgrwt>
<rscale>  2 0.28623607E+02</rscale>
<asrwt>0</asrwt>
<pdfrwt beam="1">  1        2 0.30975772E-01 0.28623607E+02</pdfrwt>
<pdfrwt beam="2">  1       -2 0.22895002E-01 0.28623607E+02</pdfrwt>
<totfact> 0.24538654E+03</totfact>
</mgrwt>
</event>
<event>
 4    1  0.1429937E+004  0.2305067E+02  0.7546771E-02  0.1690690E+00
         -2   -1    0    0    0  501 -0.00000000000E+00  0.00000000000E+00  0.48903395069E+01  0.48903395069E+01  0.00000000000E+00 0. -1.
          2   -1    0    0  501    0  0.00000000000E+00 -0.00000000000E+00 -0.14315068983E+03  0.14315068983E+03  0.00000000000E+00 0.  1.
          2    1    1    2  502    0  0.17834049336E+02  0.14604116460E+02 -0.10546906485E+03  0.10795859008E+03  0.00000000000E+00 0.  1.
         -2    1    1    2    0  502 -0.17834049336E+02 -0.14604116460E+02 -0.32791285479E+02  0.40082439256E+02  0.00000000000E+00 0. -1.
<mgrwt>
<rscale>  2 0.23050673E+02</rscale>
<asrwt>0</asrwt>
<pdfrwt beam="2">  1        2 0.22023182E-01 0.23050673E+02</pdfrwt>
<pdfrwt beam="1">  1       -2 0.75235997E-03 0.23050673E+02</pdfrwt>
<totfact> 0.45889238E+05</totfact>
</mgrwt>
</event>
<event>
 4    1  0.1429937E+004  0.3611440E+02  0.7546771E-02  0.1538921E+00
         -2   -1    0    0    0  501 -0.00000000000E+00  0.00000000000E+00  0.49816207039E+01  0.49816207039E+01  0.00000000000E+00 0. -1.
          2   -1    0    0  501    0  0.00000000000E+00 -0.00000000000E+00 -0.34432546251E+03  0.34432546251E+03  0.00000000000E+00 0. -1.
          2    1    1    2  502    0  0.19986242527E+02 -0.30079890005E+02 -0.25516961289E+03  0.25771259382E+03  0.00000000000E+00 0. -1.
         -2    1    1    2    0  502 -0.19986242527E+02  0.30079890005E+02 -0.84174228919E+02  0.91594489393E+02  0.00000000000E+00 0. -1.
<mgrwt>
<rscale>  2 0.36114397E+02</rscale>
<asrwt>0</asrwt>
<pdfrwt beam="2">  1        2 0.52973174E-01 0.36114397E+02</pdfrwt>
<pdfrwt beam="1">  1       -2 0.76640281E-03 0.36114397E+02</pdfrwt>
<totfact> 0.20633948E+05</totfact>
</mgrwt>
</event>
<event>
 4    1  0.1429937E+004  0.3014447E+02  0.7546771E-02  0.1596497E+00
         -2   -1    0    0    0  501 -0.00000000000E+00  0.00000000000E+00  0.58321536267E+01  0.58321536267E+01  0.00000000000E+00 0.  1.
          2   -1    0    0  501    0  0.00000000000E+00 -0.00000000000E+00 -0.69976950767E+03  0.69976950767E+03  0.00000000000E+00 0.  1.
          2    1    1    2  502    0 -0.28207642521E+02  0.10630991184E+02 -0.65802330246E+03  0.65871340934E+03  0.00000000000E+00 0.  1.
         -2    1    1    2    0  502  0.28207642521E+02 -0.10630991184E+02 -0.35914051591E+02  0.46888251960E+02  0.00000000000E+00 0.  1.
<mgrwt>
<rscale>  2 0.30144470E+02</rscale>
<asrwt>0</asrwt>
<pdfrwt beam="2">  1        2 0.10765678E+00 0.30144470E+02</pdfrwt>
<pdfrwt beam="1">  1       -2 0.89725493E-03 0.30144470E+02</pdfrwt>
<totfact> 0.76791181E+04</totfact>
</mgrwt>
</event>
<event>
 4    1  0.1429937E+004  0.2319049E+02  0.7546771E-02  0.1688441E+00
          2   -1    0    0  501    0  0.00000000000E+00  0.00000000000E+00  0.89228631538E+03  0.89228631538E+03  0.00000000000E+00 0. -1.
         -2   -1    0    0    0  501 -0.00000000000E+00 -0.00000000000E+00 -0.84385742410E+00  0.84385742410E+00  0.00000000000E+00 0.  1.
          2    1    1    2  502    0 -0.37410380603E+01  0.22886751552E+02  0.68443780837E+03  0.68483057195E+03  0.00000000000E+00 0. -1.
         -2    1    1    2    0  502  0.37410380603E+01 -0.22886751552E+02  0.20700464959E+03  0.20829960085E+03  0.00000000000E+00 0.  1.
<mgrwt>
<rscale>  2 0.23190489E+02</rscale>
<asrwt>0</asrwt>
<pdfrwt beam="1">  1        2 0.13727406E+00 0.23190489E+02</pdfrwt>
<pdfrwt beam="2">  1       -2 0.12982493E-03 0.23190489E+02</pdfrwt>
<totfact> 0.72995791E+05</totfact>
</mgrwt>
</event>
<event>
 4    1  0.1429937E+004  0.2300243E+02  0.7546771E-02  0.1691471E+00
          2   -1    0    0  501    0  0.00000000000E+00  0.00000000000E+00  0.95715648186E+03  0.95715648186E+03  0.00000000000E+00 0.  1.
         -2   -1    0    0    0  501 -0.00000000000E+00 -0.00000000000E+00 -0.20844889651E+01  0.20844889651E+01  0.00000000000E+00 0.  1.
          2    1    1    2  502    0  0.18234348926E+01  0.22930045095E+02  0.88867041995E+03  0.88896806870E+03  0.00000000000E+00 0.  1.
         -2    1    1    2    0  502 -0.18234348926E+01 -0.22930045095E+02  0.66401572950E+02  0.70272902126E+02  0.00000000000E+00 0.  1.
<mgrwt>
<rscale>  2 0.23002432E+02</rscale>
<asrwt>0</asrwt>
<pdfrwt beam="1">  1        2 0.14725449E+00 0.23002432E+02</pdfrwt>
<pdfrwt beam="2">  1       -2 0.32069137E-03 0.23002432E+02</pdfrwt>
<totfact> 0.20187597E+05</totfact>
</mgrwt>
</event>
<event>
 4    1  0.1429937E+004  0.3179238E+02  0.7546771E-02  0.1579081E+00
          2   -1    0    0  501    0  0.00000000000E+00  0.00000000000E+00  0.91639254353E+02  0.91639254353E+02  0.00000000000E+00 0. -1.
         -2   -1    0    0    0  501 -0.00000000000E+00 -0.00000000000E+00 -0.91675999334E+03  0.91675999334E+03  0.00000000000E+00 0. -1.
          2    1    1    2  502    0 -0.27902428080E+02  0.15238438557E+02  0.88597013175E+02  0.94128562328E+02  0.00000000000E+00 0. -1.
         -2    1    1    2    0  502  0.27902428080E+02 -0.15238438557E+02 -0.91371775216E+03  0.91427068536E+03  0.00000000000E+00 0. -1.
<mgrwt>
<rscale>  2 0.31792381E+02</rscale>
<asrwt>0</asrwt>
<pdfrwt beam="1">  1        2 0.14098346E-01 0.31792381E+02</pdfrwt>
<pdfrwt beam="2">  1       -2 0.14104001E+00 0.31792381E+02</pdfrwt>
<totfact> 0.15361447E+02</totfact>
</mgrwt>
</event>
<event>
 4    1  0.1429937E+004  0.2720959E+02  0.7546771E-02  0.1631153E+00
         -2   -1    0    0    0  501 -0.00000000000E+00  0.00000000000E+00  0.71760856793E+00  0.71760856793E+00  0.00000000000E+00 0.  1.
          2   -1    0    0  501    0  0.00000000000E+00 -0.00000000000E+00 -0.12065152693E+04  0.12065152693E+04  0.00000000000E+00 0.  1.
          2    1    1    2  502    0  0.25882973823E+02 -0.83924593728E+01 -0.83265953960E+03  0.83310399747E+03  0.00000000000E+00 0.  1.
         -2    1    1    2    0  502 -0.25882973823E+02  0.83924593728E+01 -0.37313812115E+03  0.37412888042E+03  0.00000000000E+00 0.  1.
<mgrwt>
<rscale>  2 0.27209589E+02</rscale>
<asrwt>0</asrwt>
<pdfrwt beam="2">  1        2 0.18561753E+00 0.27209589E+02</pdfrwt>
<pdfrwt beam="1">  1       -2 0.11040144E-03 0.27209589E+02</pdfrwt>
<totfact> 0.64160376E+05</totfact>
</mgrwt>
</event>
<event>
 4    1  0.1429937E+004  0.2850482E+02  0.7546771E-02  0.1615229E+00
         -2   -1    0    0    0  501 -0.00000000000E+00  0.00000000000E+00  0.47716223799E+03  0.47716223799E+03  0.00000000000E+00 0. -1.
          2   -1    0    0  501    0  0.00000000000E+00 -0.00000000000E+00 -0.23306178840E+01  0.23306178840E+01  0.00000000000E+00 0. -1.
          2    1    1    2  502    0 -0.20315956541E+02 -0.19994665269E+02  0.11298609124E+03  0.11652631266E+03  0.00000000000E+00 0. -1.
         -2    1    1    2    0  502  0.20315956541E+02  0.19994665269E+02  0.36184552887E+03  0.36296654322E+03  0.00000000000E+00 0. -1.
<mgrwt>
<rscale>  2 0.28504819E+02</rscale>
<asrwt>0</asrwt>
<pdfrwt beam="2">  1        2 0.35855698E-03 0.28504819E+02</pdfrwt>
<pdfrwt beam="1">  1       -2 0.73409497E-01 0.28504819E+02</pdfrwt>
<totfact> 0.68791149E+04</totfact>
</mgrwt>
</event>
<event>
 4    1  0.1429937E+004  0.2725741E+02  0.7546771E-02  0.1630546E+00
         -2   -1    0    0    0  501 -0.00000000000E+00  0.00000000000E+00  0.27166254242E+00  0.27166254242E+00  0.00000000000E+00 0.  1.
          2   -1    0    0  501    0  0.00000000000E+00 -0.00000000000E+00 -0.29519565242E+04  0.29519565242E+04  0.00000000000E+00 0.  1.
          2    1    1    2  502    0  0.34962748324E+01 -0.27032251551E+02 -0.18761221782E+04  0.18763201737E+04  0.00000000000E+00 0.  1.
         -2    1    1    2    0  502 -0.34962748324E+01  0.27032251551E+02 -0.10755626835E+04  0.10759080131E+04  0.00000000000E+00 0.  1.
<mgrwt>
<rscale>  2 0.27257413E+02</rscale>
<asrwt>0</asrwt>
<pdfrwt beam="2">  1        2 0.45412392E+00 0.27257413E+02</pdfrwt>
<pdfrwt beam="1">  1       -2 0.41796376E-04 0.27257413E+02</pdfrwt>
<totfact> 0.32708565E+05</totfact>
</mgrwt>
</event>
<event>
 4    1  0.1429937E+004  0.2231992E+02  0.7546771E-02  0.1702777E+00
          2   -1    0    0  501    0  0.00000000000E+00  0.00000000000E+00  0.64339512598E+03  0.64339512598E+03  0.00000000000E+00 0. -1.
         -2   -1    0    0    0  501 -0.00000000000E+00 -0.00000000000E+00 -0.63326123129E+01  0.63326123129E+01  0.00000000000E+00 0.  1.
          2    1    1    2  502    0  0.92262771974E+01 -0.20323740493E+02  0.62288704813E+03  0.62328681468E+03  0.00000000000E+00 0. -1.
         -2    1    1    2    0  502 -0.92262771974E+01  0.20323740493E+02  0.14175465535E+02  0.26440923616E+02  0.00000000000E+00 0.  1.
<mgrwt>
<rscale>  2 0.22319915E+02</rscale>
<asrwt>0</asrwt>
<pdfrwt beam="1">  1        2 0.98983814E-01 0.22319915E+02</pdfrwt>
<pdfrwt beam="2">  1       -2 0.97424855E-03 0.22319915E+02</pdfrwt>
<totfact> 0.70780631E+04</totfact>
</mgrwt>
</event>
<event>
 4    1  0.1429937E+004  0.2900903E+02  0.7546771E-02  0.1609308E+00
          2   -1    0    0  501    0  0.00000000000E+00  0.00000000000E+00  0.33730407142E+03  0.33730407142E+03  0.00000000000E+00 0.  1.
         -2   -1    0    0    0  501 -0.00000000000E+00 -0.00000000000E+00 -0.10130527316E+03  0.10130527316E+03  0.00000000000E+00 0.  1.
          2    1    1    2  502    0  0.16060537798E+02 -0.24157458514E+02  0.33458682216E+03  0.33584202423E+03  0.00000000000E+00 0.  1.
         -2    1    1    2    0  502 -0.16060537798E+02  0.24157458514E+02 -0.98588023903E+02  0.10276732036E+03  0.00000000000E+00 0.  1.
<mgrwt>
<rscale>  2 0.29009027E+02</rscale>
<asrwt>0</asrwt>
<pdfrwt beam="1">  1        2 0.51892934E-01 0.29009027E+02</pdfrwt>
<pdfrwt beam="2">  1       -2 0.15585427E-01 0.29009027E+02</pdfrwt>
<totfact> 0.27202569E+03</totfact>
</mgrwt>
</event>
<event>
 4    1  0.1429937E+004  0.2658720E+02  0.7546771E-02  0.1639198E+00
         -2   -1    0    0    0  501 -0.00000000000E+00  0.00000000000E+00  0.11713658495E+02  0.11713658495E+02  0.00000000000E+00 0. -1.
          2   -1    0    0  501    0  0.00000000000E+00 -0.00000000000E+00 -0.27013870084E+03  0.27013870084E+03  0.00000000000E+00 0. -1.
          2    1    1    2  502    0  0.22540428435E+02 -0.14099947857E+02 -0.25340429874E+03  0.25479524734E+03  0.00000000000E+00 0. -1.
         -2    1    1    2    0  502 -0.22540428435E+02  0.14099947857E+02 -0.50207436057E+01  0.27057112003E+02  0.00000000000E+00 0. -1.
<mgrwt>
<rscale>  2 0.26587205E+02</rscale>
<asrwt>0</asrwt>
<pdfrwt beam="2">  1        2 0.41559798E-01 0.26587205E+02</pdfrwt>
<pdfrwt beam="1">  1       -2 0.18021014E-02 0.26587205E+02</pdfrwt>
<totfact> 0.76052112E+04</totfact>
</mgrwt>
</event>
<event>
 4    1  0.1429937E+004  0.2071512E+02  0.7546771E-02  0.1731470E+00
          2   -1    0    0  501    0  0.00000000000E+00  0.00000000000E+00  0.34618843869E+02  0.34618843869E+02  0.00000000000E+00 0. -1.
         -2   -1    0    0    0  501 -0.00000000000E+00 -0.00000000000E+00 -0.12428342442E+02  0.12428342442E+02  0.00000000000E+00 0. -1.
          2    1    1    2  502    0  0.15950365783E+02  0.13217493517E+02  0.12305334672E+02  0.24094347156E+02  0.00000000000E+00 0. -1.
         -2    1    1    2    0  502 -0.15950365783E+02 -0.13217493517E+02  0.98851667558E+01  0.22952839155E+02  0.00000000000E+00 0. -1.
<mgrwt>
<rscale>  2 0.20715123E+02</rscale>
<asrwt>0</asrwt>
<pdfrwt beam="1">  1        2 0.53259759E-02 0.20715123E+02</pdfrwt>
<pdfrwt beam="2">  1       -2 0.19120527E-02 0.20715123E+02</pdfrwt>
<totfact> 0.62770324E+05</totfact>
</mgrwt>
</event>
<event>
 4    1  0.1429937E+004  0.2923000E+02  0.7546771E-02  0.1606759E+00
          2   -1    0    0  501    0  0.00000000000E+00  0.00000000000E+00  0.39801045483E+02  0.39801045483E+02  0.00000000000E+00 0.  1.
         -2   -1    0    0    0  501 -0.00000000000E+00 -0.00000000000E+00 -0.66389668543E+02  0.66389668543E+02  0.00000000000E+00 0.  1.
          2    1    1    2  502    0 -0.24588550906E+02 -0.15804943866E+02  0.30381502338E+02  0.42159563216E+02  0.00000000000E+00 0.  1.
         -2    1    1    2    0  502  0.24588550906E+02  0.15804943866E+02 -0.56970125398E+02  0.64031150810E+02  0.00000000000E+00 0.  1.
<mgrwt>
<rscale>  2 0.29230003E+02</rscale>
<asrwt>0</asrwt>
<pdfrwt beam="1">  1        2 0.61232378E-02 0.29230003E+02</pdfrwt>
<pdfrwt beam="2">  1       -2 0.10213795E-01 0.29230003E+02</pdfrwt>
<totfact> 0.53725385E+04</totfact>
</mgrwt>
</event>
<event>
 4    1  0.1429937E+004  0.3425791E+02  0.7546771E-02  0.1555291E+00
          2   -1    0    0  501    0  0.00000000000E+00  0.00000000000E+00  0.96293043926E+03  0.96293043926E+03  0.00000000000E+00 0. -1.
         -2   -1    0    0    0  501 -0.00000000000E+00 -0.00000000000E+00 -0.15715784232E+01  0.15715784232E+01  0.00000000000E+00 0. -1.
          2    1    1    2  502    0 -0.11900536642E+02 -0.32124472671E+02  0.70916868311E+03  0.70999565183E+03  0.00000000000E+00 0. -1.
         -2    1    1    2    0  502  0.11900536642E+02  0.32124472671E+02  0.25219017773E+03  0.25450636586E+03  0.00000000000E+00 0. -1.
<mgrwt>
<rscale>  2 0.34257912E+02</rscale>
<asrwt>0</asrwt>
<pdfrwt beam="1">  1        2 0.14814267E+00 0.34257912E+02</pdfrwt>
<pdfrwt beam="2">  1       -2 0.24178206E-03 0.34257912E+02</pdfrwt>
<totfact> 0.32087810E+05</totfact>
</mgrwt>
</event>
<event>
 4    1  0.1429937E+004  0.4394745E+02  0.7546771E-02  0.1481022E+00
         -2   -1    0    0    0  501 -0.00000000000E+00  0.00000000000E+00  0.20881012290E+02  0.20881012290E+02  0.00000000000E+00 0. -1.
          2   -1    0    0  501    0  0.00000000000E+00 -0.00000000000E+00 -0.84001816628E+03  0.84001816628E+03  0.00000000000E+00 0. -1.
          2    1    1    2  502    0  0.36694495778E+02  0.24184541433E+02 -0.81562879379E+03  0.81681191674E+03  0.00000000000E+00 0. -1.
         -2    1    1    2    0  502 -0.36694495778E+02 -0.24184541433E+02 -0.35083602007E+01  0.44087261834E+02  0.00000000000E+00 0. -1.
<mgrwt>
<rscale>  2 0.43947447E+02</rscale>
<asrwt>0</asrwt>
<pdfrwt beam="2">  1        2 0.12923357E+00 0.43947447E+02</pdfrwt>
<pdfrwt beam="1">  1       -2 0.32124633E-02 0.43947447E+02</pdfrwt>
<totfact> 0.11138354E+04</totfact>
</mgrwt>
</event>
<event>
 4    1  0.1429937E+004  0.3415738E+02  0.7546771E-02  0.1556213E+00
          2   -1    0    0  501    0  0.00000000000E+00  0.00000000000E+00  0.84710320787E+03  0.84710320787E+03  0.00000000000E+00 0. -1.
         -2   -1    0    0    0  501 -0.00000000000E+00 -0.00000000000E+00 -0.46702918776E+02  0.46702918776E+02  0.00000000000E+00 0.  1.
          2    1    1    2  502    0  0.21271962003E+02  0.26725080216E+02  0.84046409722E+03  0.84115790729E+03  0.00000000000E+00 0. -1.
         -2    1    1    2    0  502 -0.21271962003E+02 -0.26725080216E+02 -0.40063808126E+02  0.52648219358E+02  0.00000000000E+00 0.  1.
<mgrwt>
<rscale>  2 0.34157375E+02</rscale>
<asrwt>0</asrwt>
<pdfrwt beam="1">  1        2 0.13032356E+00 0.34157375E+02</pdfrwt>
<pdfrwt beam="2">  1       -2 0.71850650E-02 0.34157375E+02</pdfrwt>
<totfact> 0.33717301E+03</totfact>
</mgrwt>
</event>
<event>
 4    1  0.1429937E+004  0.6089040E+02  0.7546771E-02  0.1394133E+00
          2   -1    0    0  501    0  0.00000000000E+00  0.00000000000E+00  0.18287263018E+04  0.18287263018E+04  0.00000000000E+00 0.  1.
         -2   -1    0    0    0  501 -0.00000000000E+00 -0.00000000000E+00 -0.43001468255E+01  0.43001468255E+01  0.00000000000E+00 0.  1.
          2    1    1    2  502    0 -0.39361990894E+02 -0.46457232487E+02  0.15785108902E+04  0.15796848646E+04  0.00000000000E+00 0.  1.
         -2    1    1    2    0  502  0.39361990894E+02  0.46457232487E+02  0.24591526476E+03  0.25334158407E+03  0.00000000000E+00 0.  1.
<mgrwt>
<rscale>  2 0.60890400E+02</rscale>
<asrwt>0</asrwt>
<pdfrwt beam="1">  1        2 0.28134189E+00 0.60890400E+02</pdfrwt>
<pdfrwt beam="2">  1       -2 0.66156251E-03 0.60890400E+02</pdfrwt>
<totfact> 0.32016395E+04</totfact>
</mgrwt>
</event>
<event>
 4    1  0.1429937E+004  0.2057011E+02  0.7546771E-02  0.1734223E+00
         -2   -1    0    0    0  501 -0.00000000000E+00  0.00000000000E+00  0.22409137215E+01  0.22409137215E+01  0.00000000000E+00 0.  1.
          2   -1    0    0  501    0  0.00000000000E+00 -0.00000000000E+00 -0.60389393527E+03  0.60389393527E+03  0.00000000000E+00 0. -1.
          2    1    1    2  502    0  0.88121087848E+01 -0.18586990053E+02 -0.55208550951E+03  0.55246858669E+03  0.00000000000E+00 0. -1.
         -2    1    1    2    0  502 -0.88121087848E+01  0.18586990053E+02 -0.49567512034E+02  0.53666262304E+02  0.00000000000E+00 0.  1.
<mgrwt>
<rscale>  2 0.20570111E+02</rscale>
<asrwt>0</asrwt>
<pdfrwt beam="2">  1        2 0.92906849E-01 0.20570111E+02</pdfrwt>
<pdfrwt beam="1">  1       -2 0.34475562E-03 0.20570111E+02</pdfrwt>
<totfact> 0.29773202E+05</totfact>
</mgrwt>
</event>
<event>
 4    1  0.1429937E+004  0.2063478E+02  0.7546771E-02  0.1732992E+00
         -2   -1    0    0    0  501 -0.00000000000E+00  0.00000000000E+00  0.13502635551E+01  0.13502635551E+01  0.00000000000E+00 0. -1.
          2   -1    0    0  501    0  0.00000000000E+00 -0.00000000000E+00 -0.44506015408E+03  0.44506015408E+03  0.00000000000E+00 0. -1.
          2    1    1    2  502    0  0.42978242358E+01  0.20182240575E+02 -0.34235748327E+03  0.34297877555E+03  0.00000000000E+00 0. -1.
         -2    1    1    2    0  502 -0.42978242358E+01 -0.20182240575E+02 -0.10135240726E+03  0.10343164209E+03  0.00000000000E+00 0. -1.
<mgrwt>
<rscale>  2 0.20634780E+02</rscale>
<asrwt>0</asrwt>
<pdfrwt beam="2">  1        2 0.68470841E-01 0.20634780E+02</pdfrwt>
<pdfrwt beam="1">  1       -2 0.20773271E-03 0.20634780E+02</pdfrwt>
<totfact> 0.79326759E+05</totfact>
</mgrwt>
</event>
<event>
 4    1  0.1429937E+004  0.2114728E+02  0.7546771E-02  0.1723431E+00
          2   -1    0    0  501    0  0.00000000000E+00  0.00000000000E+00  0.69719116843E+02  0.69719116843E+02  0.00000000000E+00 0. -1.
         -2   -1    0    0    0  501 -0.00000000000E+00 -0.00000000000E+00 -0.15303187575E+02  0.15303187575E+02  0.00000000000E+00 0.  1.
          2    1    1    2  502    0 -0.21143826824E+02 -0.38220398887E+00  0.59607051651E+02  0.63247198351E+02  0.00000000000E+00 0. -1.
         -2    1    1    2    0  502  0.21143826824E+02  0.38220398887E+00 -0.51911223825E+01  0.21775106068E+02  0.00000000000E+00 0.  1.
<mgrwt>
<rscale>  2 0.21147281E+02</rscale>
<asrwt>0</asrwt>
<pdfrwt beam="1">  1        2 0.10726018E-01 0.21147281E+02</pdfrwt>
<pdfrwt beam="2">  1       -2 0.23543366E-02 0.21147281E+02</pdfrwt>
<totfact> 0.20846016E+05</totfact>
</mgrwt>
</event>
<event>
 4    1  0.1429937E+004  0.3619316E+02  0.7546771E-02  0.1538253E+00
          2   -1    0    0  501    0  0.00000000000E+00  0.00000000000E+00  0.74001969838E+02  0.74001969838E+02  0.00000000000E+00 0.  1.
         -2   -1    0    0    0  501 -0.00000000000E+00 -0.00000000000E+00 -0.11439799636E+04  0.11439799636E+04  0.00000000000E+00 0.  1.
          2    1    1    2  502    0 -0.28332796062E+02  0.22521046661E+02  0.69271960101E+02  0.78157209083E+02  0.00000000000E+00 0.  1.
         -2    1    1    2    0  502  0.28332796062E+02 -0.22521046661E+02 -0.11392499538E+04  0.11398247243E+04  0.00000000000E+00 0.  1.
<mgrwt>
<rscale>  2 0.36193161E+02</rscale>
<asrwt>0</asrwt>
<pdfrwt beam="1">  1        2 0.11384919E-01 0.36193161E+02</pdfrwt>
<pdfrwt beam="2">  1       -2 0.17599691E+00 0.36193161E+02</pdfrwt>
<totfact> 0.11289169E+02</totfact>
</mgrwt>
</event>
<event>
 4    1  0.1429937E+004  0.3221067E+02  0.7546771E-02  0.1574864E+00
         -2   -1    0    0    0  501 -0.00000000000E+00  0.00000000000E+00  0.13419272608E+02  0.13419272608E+02  0.00000000000E+00 0. -1.
          2   -1    0    0  501    0  0.00000000000E+00 -0.00000000000E+00 -0.23881621601E+04  0.23881621601E+04  0.00000000000E+00 0. -1.
          2    1    1    2  502    0  0.16493518016E+02  0.27667506013E+02 -0.23685645795E+04  0.23687835896E+04  0.00000000000E+00 0. -1.
         -2    1    1    2    0  502 -0.16493518016E+02 -0.27667506013E+02 -0.61783080238E+01  0.32797843154E+02  0.00000000000E+00 0. -1.
<mgrwt>
<rscale>  2 0.32210666E+02</rscale>
<asrwt>0</asrwt>
<pdfrwt beam="2">  1        2 0.36740917E+00 0.32210666E+02</pdfrwt>
<pdfrwt beam="1">  1       -2 0.20645057E-02 0.32210666E+02</pdfrwt>
<totfact> 0.33807123E+03</totfact>
</mgrwt>
</event>
<event>
 4    1  0.1429937E+004  0.3932572E+02  0.7546771E-02  0.1513233E+00
         -2   -1    0    0    0  501 -0.00000000000E+00  0.00000000000E+00  0.86639976588E+01  0.86639976588E+01  0.00000000000E+00 0.  1.
          2   -1    0    0  501    0  0.00000000000E+00 -0.00000000000E+00 -0.59420820257E+03  0.59420820257E+03  0.00000000000E+00 0.  1.
          2    1    1    2  502    0  0.14303640280E+02 -0.36632205873E+02 -0.54489999760E+03  0.54631723386E+03  0.00000000000E+00 0.  1.
         -2    1    1    2    0  502 -0.14303640280E+02  0.36632205873E+02 -0.40644207306E+02  0.56554966359E+02  0.00000000000E+00 0.  1.
<mgrwt>
<rscale>  2 0.39325725E+02</rscale>
<asrwt>0</asrwt>
<pdfrwt beam="2">  1        2 0.91416644E-01 0.39325725E+02</pdfrwt>
<pdfrwt beam="1">  1       -2 0.13329228E-02 0.39325725E+02</pdfrwt>
<totfact> 0.55805462E+04</totfact>
</mgrwt>
</event>
<event>
 4    1  0.1429937E+004  0.4125743E+02  0.7546771E-02  0.1499157E+00
         -2   -1    0    0    0  501 -0.00000000000E+00  0.00000000000E+00  0.34998799948E+03  0.34998799948E+03  0.00000000000E+00 0. -1.
          2   -1    0    0  501    0  0.00000000000E+00 -0.00000000000E+00 -0.57183570099E+02  0.57183570099E+02  0.00000000000E+00 0.  1.
          2    1    1    2  502    0 -0.30005878424E+02 -0.28316474602E+02 -0.48333617720E+02  0.63547730689E+02  0.00000000000E+00 0.  1.
         -2    1    1    2    0  502  0.30005878424E+02  0.28316474602E+02  0.34113804710E+03  0.34362383889E+03  0.00000000000E+00 0. -1.
<mgrwt>
<rscale>  2 0.41257429E+02</rscale>
<asrwt>0</asrwt>
<pdfrwt beam="2">  1        2 0.87974725E-02 0.41257429E+02</pdfrwt>
<pdfrwt beam="1">  1       -2 0.53844306E-01 0.41257429E+02</pdfrwt>
<totfact> 0.21967030E+03</totfact>
</mgrwt>
</event>
<event>
 4    1  0.1429937E+004  0.2210936E+02  0.7546771E-02  0.1706368E+00
          2   -1    0    0  501    0  0.00000000000E+00  0.00000000000E+00  0.80907347849E+03  0.80907347849E+03  0.00000000000E+00 0. -1.
         -2   -1    0    0    0  501 -0.00000000000E+00 -0.00000000000E+00 -0.13075032815E+02  0.13075032815E+02  0.00000000000E+00 0. -1.
          2    1    1    2  502    0 -0.11291117531E+02 -0.19008798377E+02  0.79946359577E+03  0.79976925717E+03  0.00000000000E+00 0. -1.
         -2    1    1    2    0  502  0.11291117531E+02  0.19008798377E+02 -0.34651500898E+01  0.22379254142E+02  0.00000000000E+00 0. -1.
<mgrwt>
<rscale>  2 0.22109359E+02</rscale>
<asrwt>0</asrwt>
<pdfrwt beam="1">  1        2 0.12447280E+00 0.22109359E+02</pdfrwt>
<pdfrwt beam="2">  1       -2 0.20115441E-02 0.22109359E+02</pdfrwt>
<totfact> 0.20529852E+04</totfact>
</mgrwt>
</event>
<event>
 4    1  0.1429937E+004  0.2282322E+02  0.7546771E-02  0.1694392E+00
          2   -1    0    0  501    0  0.00000000000E+00  0.00000000000E+00  0.11193733136E+04  0.11193733136E+04  0.00000000000E+00 0. -1.
         -2   -1    0    0    0  501 -0.00000000000E+00 -0.00000000000E+00 -0.46671064901E+00  0.46671064901E+00  0.00000000000E+00 0.  1.
          2    1    1    2  502    0  0.18591361621E+02  0.13238608300E+02  0.58969475996E+03  0.59013626342E+03  0.00000000000E+00 0. -1.
         -2    1    1    2    0  502 -0.18591361621E+02 -0.13238608300E+02  0.52921184297E+03  0.52970376081E+03  0.00000000000E+00 0.  1.
<mgrwt>
<rscale>  2 0.22823222E+02</rscale>
<asrwt>0</asrwt>
<pdfrwt beam="1">  1        2 0.17220913E+00 0.22823222E+02</pdfrwt>
<pdfrwt beam="2">  1       -2 0.71802534E-04 0.22823222E+02</pdfrwt>
<totfact> 0.11928864E+06</totfact>
</mgrwt>
</event>
<event>
 4    1  0.1429937E+004  0.2839787E+02  0.7546771E-02  0.1616505E+00
          2   -1    0    0  501    0  0.00000000000E+00  0.00000000000E+00  0.70032755813E+03  0.70032755813E+03  0.00000000000E+00 0.  1.
         -2   -1    0    0    0  501 -0.00000000000E+00 -0.00000000000E+00 -0.10097912821E+02  0.10097912821E+02  0.00000000000E+00 0. -1.
          2    1    1    2  502    0  0.80102501295E+01 -0.27244726864E+02  0.67946131294E+03  0.68005449417E+03  0.00000000000E+00 0.  1.
         -2    1    1    2    0  502 -0.80102501295E+01  0.27244726864E+02  0.10768332369E+02  0.30370976788E+02  0.00000000000E+00 0. -1.
<mgrwt>
<rscale>  2 0.28397874E+02</rscale>
<asrwt>0</asrwt>
<pdfrwt beam="1">  1        2 0.10774266E+00 0.28397874E+02</pdfrwt>
<pdfrwt beam="2">  1       -2 0.15535256E-02 0.28397874E+02</pdfrwt>
<totfact> 0.35802663E+04</totfact>
</mgrwt>
</event>
<event>
 4    1  0.1429937E+004  0.2114816E+02  0.7546771E-02  0.1723415E+00
         -2   -1    0    0    0  501 -0.00000000000E+00  0.00000000000E+00  0.44004085186E+02  0.44004085186E+02  0.00000000000E+00 0. -1.
          2   -1    0    0  501    0  0.00000000000E+00 -0.00000000000E+00 -0.43179465486E+03  0.43179465486E+03  0.00000000000E+00 0. -1.
          2    1    1    2  502    0  0.12993308369E+02  0.16685877647E+02 -0.42897811038E+03  0.42949908470E+03  0.00000000000E+00 0. -1.
         -2    1    1    2    0  502 -0.12993308369E+02 -0.16685877647E+02  0.41187540708E+02  0.46299655342E+02  0.00000000000E+00 0. -1.
<mgrwt>
<rscale>  2 0.21148158E+02</rscale>
<asrwt>0</asrwt>
<pdfrwt beam="2">  1        2 0.66429946E-01 0.21148158E+02</pdfrwt>
<pdfrwt beam="1">  1       -2 0.67698593E-02 0.21148158E+02</pdfrwt>
<totfact> 0.71880312E+03</totfact>
</mgrwt>
</event>
<event>
 4    1  0.1429937E+004  0.2314801E+02  0.7546771E-02  0.1689122E+00
          2   -1    0    0  501    0  0.00000000000E+00  0.00000000000E+00  0.71383686475E+03  0.71383686475E+03  0.00000000000E+00 0. -1.
         -2   -1    0    0    0  501 -0.00000000000E+00 -0.00000000000E+00 -0.48015203329E+01  0.48015203329E+01  0.00000000000E+00 0.  1.
          2    1    1    2  502    0  0.93518137327E+01 -0.21174845606E+02  0.68455726002E+03  0.68494851832E+03  0.00000000000E+00 0. -1.
         -2    1    1    2    0  502 -0.93518137327E+01  0.21174845606E+02  0.24478084396E+02  0.33689866759E+02  0.00000000000E+00 0.  1.
<mgrwt>
<rscale>  2 0.23148013E+02</rscale>
<asrwt>0</asrwt>
<pdfrwt beam="1">  1        2 0.10982097E+00 0.23148013E+02</pdfrwt>
<pdfrwt beam="2">  1       -2 0.73869600E-03 0.23148013E+02</pdfrwt>
<totfact> 0.92664433E+04</totfact>
</mgrwt>
</event>
<event>
 4    1  0.1429937E+004  0.5162181E+02  0.7546771E-02  0.1436785E+00
         -2   -1    0    0    0  501 -0.00000000000E+00  0.00000000000E+00  0.17855693913E+02  0.17855693913E+02  0.00000000000E+00 0. -1.
          2   -1    0    0  501    0  0.00000000000E+00 -0.00000000000E+00 -0.16235995028E+04  0.16235995028E+04  0.00000000000E+00 0.  1.
          2    1    1    2  502    0 -0.55913315480E+01  0.51318107383E+02 -0.15849696853E+04  0.15858101130E+04  0.00000000000E+00 0.  1.
         -2    1    1    2    0  502  0.55913315480E+01 -0.51318107383E+02 -0.20774123613E+02  0.55645083751E+02  0.00000000000E+00 0. -1.
<mgrwt>
<rscale>  2 0.51621809E+02</rscale>
<asrwt>0</asrwt>
<pdfrwt beam="2">  1        2 0.24978461E+00 0.51621809E+02</pdfrwt>
<pdfrwt beam="1">  1       -2 0.27470291E-02 0.51621809E+02</pdfrwt>
<totfact> 0.54009818E+03</totfact>
</mgrwt>
</event>
<event>
 4    1  0.1429937E+004  0.2512938E+02  0.7546771E-02  0.1659151E+00
         -2   -1    0    0    0  501 -0.00000000000E+00  0.00000000000E+00  0.19568656823E+01  0.19568656823E+01  0.00000000000E+00 0. -1.
          2   -1    0    0  501    0  0.00000000000E+00 -0.00000000000E+00 -0.16627630017E+04  0.16627630017E+04  0.00000000000E+00 0. -1.
          2    1    1    2  502    0  0.11524232599E+02  0.22331094684E+02 -0.15776397286E+04  0.15778398521E+04  0.00000000000E+00 0. -1.
         -2    1    1    2    0  502 -0.11524232599E+02 -0.22331094684E+02 -0.83166407432E+02  0.86880015262E+02  0.00000000000E+00 0. -1.
<mgrwt>
<rscale>  2 0.25129380E+02</rscale>
<asrwt>0</asrwt>
<pdfrwt beam="2">  1        2 0.25580931E+00 0.25129380E+02</pdfrwt>
<pdfrwt beam="1">  1       -2 0.30105670E-03 0.25129380E+02</pdfrwt>
<totfact> 0.99972329E+04</totfact>
</mgrwt>
</event>
<event>
 4    1  0.1429937E+004  0.2763554E+02  0.7546771E-02  0.1625798E+00
          2   -1    0    0  501    0  0.00000000000E+00  0.00000000000E+00  0.75609800790E+03  0.75609800790E+03  0.00000000000E+00 0.  1.
         -2   -1    0    0    0  501 -0.00000000000E+00 -0.00000000000E+00 -0.16722048652E+02  0.16722048652E+02  0.00000000000E+00 0.  1.
          2    1    1    2  502    0 -0.23071979007E+02 -0.15212066994E+02  0.74424581068E+03  0.74475871926E+03  0.00000000000E+00 0.  1.
         -2    1    1    2    0  502  0.23071979007E+02  0.15212066994E+02 -0.48698514342E+01  0.28061337291E+02  0.00000000000E+00 0.  1.
<mgrwt>
<rscale>  2 0.27635542E+02</rscale>
<asrwt>0</asrwt>
<pdfrwt beam="1">  1        2 0.11632274E+00 0.27635542E+02</pdfrwt>
<pdfrwt beam="2">  1       -2 0.25726235E-02 0.27635542E+02</pdfrwt>
<totfact> 0.16301709E+04</totfact>
</mgrwt>
</event>
<event>
 4    1  0.1429937E+004  0.3030872E+02  0.7546771E-02  0.1594701E+00
         -2   -1    0    0    0  501 -0.00000000000E+00  0.00000000000E+00  0.41926101689E+01  0.41926101689E+01  0.00000000000E+00 0.  1.
          2   -1    0    0  501    0  0.00000000000E+00 -0.00000000000E+00 -0.40163589948E+03  0.40163589948E+03  0.00000000000E+00 0. -1.
          2    1    1    2  502    0  0.28950661932E+02 -0.89709507141E+01 -0.33551511355E+03  0.33688129987E+03  0.00000000000E+00 0. -1.
         -2    1    1    2    0  502 -0.28950661932E+02  0.89709507141E+01 -0.61928175768E+02  0.68947209784E+02  0.00000000000E+00 0.  1.
<mgrwt>
<rscale>  2 0.30308725E+02</rscale>
<asrwt>0</asrwt>
<pdfrwt beam="2">  1        2 0.61790123E-01 0.30308725E+02</pdfrwt>
<pdfrwt beam="1">  1       -2 0.64501711E-03 0.30308725E+02</pdfrwt>
<totfact> 0.21471795E+05</totfact>
</mgrwt>
</event>
<event>
 4    1  0.1429937E+004  0.2575992E+02  0.7546771E-02  0.1650321E+00
          2   -1    0    0  501    0  0.00000000000E+00  0.00000000000E+00  0.20590270703E+01  0.20590270703E+01  0.00000000000E+00 0.  1.
         -2   -1    0    0    0  501 -0.00000000000E+00 -0.00000000000E+00 -0.48915188174E+03  0.48915188174E+03  0.00000000000E+00 0. -1.
          2    1    1    2  502    0 -0.24579658488E+02 -0.77080256039E+01 -0.10009197619E+03  0.10335365000E+03  0.00000000000E+00 0.  1.
         -2    1    1    2    0  502  0.24579658488E+02  0.77080256039E+01 -0.38700087848E+03  0.38785725881E+03  0.00000000000E+00 0. -1.
<mgrwt>
<rscale>  2 0.25759916E+02</rscale>
<asrwt>0</asrwt>
<pdfrwt beam="1">  1        2 0.31677326E-03 0.25759916E+02</pdfrwt>
<pdfrwt beam="2">  1       -2 0.75254168E-01 0.25759916E+02</pdfrwt>
<totfact> 0.74881598E+04</totfact>
</mgrwt>
</event>
<event>
 4    1  0.1429937E+004  0.3767453E+02  0.7546771E-02  0.1526057E+00
          2   -1    0    0  501    0  0.00000000000E+00  0.00000000000E+00  0.19095267344E+04  0.19095267344E+04  0.00000000000E+00 0. -1.
         -2   -1    0    0    0  501 -0.00000000000E+00 -0.00000000000E+00 -0.27810075127E+01  0.27810075127E+01  0.00000000000E+00 0.  1.
          2    1    1    2  502    0 -0.37353629962E+02  0.49067648924E+01  0.17718312086E+04  0.17722317009E+04  0.00000000000E+00 0. -1.
         -2    1    1    2    0  502  0.37353629962E+02 -0.49067648924E+01  0.13491451832E+03  0.14007604102E+03  0.00000000000E+00 0.  1.
<mgrwt>
<rscale>  2 0.37674527E+02</rscale>
<asrwt>0</asrwt>
<pdfrwt beam="1">  1        2 0.29377230E+00 0.37674527E+02</pdfrwt>
<pdfrwt beam="2">  1       -2 0.42784884E-03 0.37674527E+02</pdfrwt>
<totfact> 0.50607071E+04</totfact>
</mgrwt>
</event>
<event>
 4    1  0.1429937E+004  0.2474443E+02  0.7546771E-02  0.1664700E+00
          2   -1    0    0  501    0  0.00000000000E+00  0.00000000000E+00  0.87257826519E+03  0.87257826519E+03  0.00000000000E+00 0. -1.
         -2   -1    0    0    0  501 -0.00000000000E+00 -0.00000000000E+00 -0.95060553055E+00  0.95060553055E+00  0.00000000000E+00 0.  1.
          2    1    1    2  502    0 -0.15135511145E+02 -0.19575574133E+02  0.65930776410E+03  0.65977194136E+03  0.00000000000E+00 0. -1.
         -2    1    1    2    0  502  0.15135511145E+02  0.19575574133E+02  0.21231989555E+03  0.21375692935E+03  0.00000000000E+00 0.  1.
<mgrwt>
<rscale>  2 0.24744430E+02</rscale>
<asrwt>0</asrwt>
<pdfrwt beam="1">  1        2 0.13424217E+00 0.24744430E+02</pdfrwt>
<pdfrwt beam="2">  1       -2 0.14624770E-03 0.24744430E+02</pdfrwt>
<totfact> 0.65228513E+05</totfact>
</mgrwt>
</event>
<event>
 4    1  0.1429937E+004  0.2000764E+02  0.7546771E-02  0.1745176E+00
          2   -1    0    0  501    0  0.00000000000E+00  0.00000000000E+00  0.11608125462E+03  0.11608125462E+03  0.00000000000E+00 0.  1.
         -2   -1    0    0    0  501 -0.00000000000E+00 -0.00000000000E+00 -0.10874938088E+02  0.10874938088E+02  0.00000000000E+00 0.  1.
          2    1    1    2  502    0  0.66434612120E+01 -0.18872473046E+02  0.10505984769E+03  0.10694801266E+03  0.00000000000E+00 0.  1.
         -2    1    1    2    0  502 -0.66434612120E+01  0.18872473046E+02  0.14646884436E+00  0.20008180049E+02  0.00000000000E+00 0.  1.
<mgrwt>
<rscale>  2 0.20007644E+02</rscale>
<asrwt>0</asrwt>
<pdfrwt beam="1">  1        2 0.17858654E-01 0.20007644E+02</pdfrwt>
<pdfrwt beam="2">  1       -2 0.16730675E-02 0.20007644E+02</pdfrwt>
<totfact> 0.18657255E+05</totfact>
</mgrwt>
</event>
<event>
 4    1  0.1429937E+004  0.2526939E+02  0.7546771E-02  0.1657162E+00
         -2   -1    0    0    0  501 -0.00000000000E+00  0.00000000000E+00  0.65745122791E+01  0.65745122791E+01  0.00000000000E+00 0. -1.
          2   -1    0    0  501    0  0.00000000000E+00 -0.00000000000E+00 -0.74430719642E+03  0.74430719642E+03  0.00000000000E+00 0. -1.
          2    1    1    2  502    0  0.80840927240E+01 -0.23941375070E+02 -0.71895584131E+03  0.71939978020E+03  0.00000000000E+00 0. -1.
         -2    1    1    2    0  502 -0.80840927240E+01  0.23941375070E+02 -0.18776842830E+02  0.31481928500E+02  0.00000000000E+00 0. -1.
<mgrwt>
<rscale>  2 0.25269389E+02</rscale>
<asrwt>0</asrwt>
<pdfrwt beam="2">  1        2 0.11450883E+00 0.25269389E+02</pdfrwt>
<pdfrwt beam="1">  1       -2 0.10114632E-02 0.25269389E+02</pdfrwt>
<totfact> 0.58909855E+04</totfact>
</mgrwt>
</event>
<event>
 4    1  0.1429937E+004  0.3404773E+02  0.7546771E-02  0.1557223E+00
         -2   -1    0    0    0  501 -0.00000000000E+00  0.00000000000E+00  0.36823027546E+02  0.36823027546E+02  0.00000000000E+00 0.  1.
          2   -1    0    0  501    0  0.00000000000E+00 -0.00000000000E+00 -0.48325374541E+03  0.48325374541E+03  0.00000000000E+00 0. -1.
          2    1    1    2  502    0 -0.98737905776E+01 -0.32584595594E+02 -0.47464100587E+03  0.47586062252E+03  0.00000000000E+00 0. -1.
         -2    1    1    2    0  502  0.98737905776E+01  0.32584595594E+02  0.28210288005E+02  0.44216150440E+02  0.00000000000E+00 0.  1.
<mgrwt>
<rscale>  2 0.34047725E+02</rscale>
<asrwt>0</asrwt>
<pdfrwt beam="2">  1        2 0.74346722E-01 0.34047725E+02</pdfrwt>
<pdfrwt beam="1">  1       -2 0.56650818E-02 0.34047725E+02</pdfrwt>
<totfact> 0.88010931E+03</totfact>
</mgrwt>
</event>
<event>
 4    1  0.1429937E+004  0.2125132E+02  0.7546771E-02  0.1721531E+00
          2   -1    0    0  501    0  0.00000000000E+00  0.00000000000E+00  0.58455564072E+03  0.58455564072E+03  0.00000000000E+00 0.  1.
         -2   -1    0    0    0  501 -0.00000000000E+00 -0.00000000000E+00 -0.19815039185E+02  0.19815039185E+02  0.00000000000E+00 0. -1.
          2    1    1    2  502    0 -0.20875605695E+02 -0.39784236236E+01  0.57860599476E+03  0.57899612774E+03  0.00000000000E+00 0.  1.
         -2    1    1    2    0  502  0.20875605695E+02  0.39784236236E+01 -0.13865393233E+02  0.25374552157E+02  0.00000000000E+00 0. -1.
<mgrwt>
<rscale>  2 0.21251324E+02</rscale>
<asrwt>0</asrwt>
<pdfrwt beam="1">  1        2 0.89931624E-01 0.21251324E+02</pdfrwt>
<pdfrwt beam="2">  1       -2 0.30484680E-02 0.21251324E+02</pdfrwt>
<totfact> 0.16333957E+04</totfact>
</mgrwt>
</event>
<event>
 4    1  0.1429937E+004  0.2077140E+02  0.7546771E-02  0.1730409E+00
          2   -1    0    0  501    0  0.00000000000E+00  0.00000000000E+00  0.54738432923E+03  0.54738432923E+03  0.00000000000E+00 0.  1.
         -2   -1    0    0    0  501 -0.00000000000E+00 -0.00000000000E+00 -0.15658030281E+01  0.15658030281E+01  0.00000000000E+00 0.  1.
          2    1    1    2  502    0 -0.20296114406E+02 -0.44179944780E+01  0.46633398260E+03  0.46679635202E+03  0.00000000000E+00 0.  1.
         -2    1    1    2    0  502  0.20296114406E+02  0.44179944780E+01  0.79484543608E+02  0.82153780240E+02  0.00000000000E+00 0.  1.
<mgrwt>
<rscale>  2 0.20771397E+02</rscale>
<asrwt>0</asrwt>
<pdfrwt beam="1">  1        2 0.84212821E-01 0.20771397E+02</pdfrwt>
<pdfrwt beam="2">  1       -2 0.24089321E-03 0.20771397E+02</pdfrwt>
<totfact> 0.53107937E+05</totfact>
</mgrwt>
</event>
<event>
 4    1  0.1429937E+004  0.2074659E+02  0.7546771E-02  0.1730876E+00
          2   -1    0    0  501    0  0.00000000000E+00  0.00000000000E+00  0.37737894077E+03  0.37737894077E+03  0.00000000000E+00 0. -1.
         -2   -1    0    0    0  501 -0.00000000000E+00 -0.00000000000E+00 -0.19236634639E+01  0.19236634639E+01  0.00000000000E+00 0.  1.
          2    1    1    2  502    0  0.62213654160E+01 -0.19791807139E+02  0.30873242478E+03  0.30942871736E+03  0.00000000000E+00 0. -1.
         -2    1    1    2    0  502 -0.62213654160E+01  0.19791807139E+02  0.66722852533E+02  0.69873886880E+02  0.00000000000E+00 0.  1.
<mgrwt>
<rscale>  2 0.20746591E+02</rscale>
<asrwt>0</asrwt>
<pdfrwt beam="1">  1        2 0.58058240E-01 0.20746591E+02</pdfrwt>
<pdfrwt beam="2">  1       -2 0.29594853E-03 0.20746591E+02</pdfrwt>
<totfact> 0.58528864E+05</totfact>
</mgrwt>
</event>
<event>
 4    1  0.1429937E+004  0.2234073E+02  0.7546771E-02  0.1702425E+00
         -2   -1    0    0    0  501 -0.00000000000E+00  0.00000000000E+00  0.79767223050E+01  0.79767223050E+01  0.00000000000E+00 0.  1.
          2   -1    0    0  501    0  0.00000000000E+00 -0.00000000000E+00 -0.29222975498E+03  0.29222975498E+03  0.00000000000E+00 0.  1.
          2    1    1    2  502    0 -0.41234164982E+01 -0.21956902189E+02 -0.27519332727E+03  0.27609866985E+03  0.00000000000E+00 0.  1.
         -2    1    1    2    0  502  0.41234164982E+01  0.21956902189E+02 -0.90597054028E+01  0.24107807436E+02  0.00000000000E+00 0.  1.
<mgrwt>
<rscale>  2 0.22340728E+02</rscale>
<asrwt>0</asrwt>
<pdfrwt beam="2">  1        2 0.44958411E-01 0.22340728E+02</pdfrwt>
<pdfrwt beam="1">  1       -2 0.12271884E-02 0.22340728E+02</pdfrwt>
<totfact> 0.11426833E+05</totfact>
</mgrwt>
</event>
<event>
 4    1  0.1429937E+004  0.2332086E+02  0.7546771E-02  0.1686361E+00
         -2   -1    0    0    0  501 -0.00000000000E+00  0.00000000000E+00  0.15774309985E+01  0.15774309985E+01  0.00000000000E+00 0.  1.
          2   -1    0    0  501    0  0.00000000000E+00 -0.00000000000E+00 -0.43361237465E+03  0.43361237465E+03  0.00000000000E+00 0.  1.
          2    1    1    2  502    0  0.15955853731E+02 -0.17008031985E+02 -0.31450700731E+03  0.31537044894E+03  0.00000000000E+00 0.  1.
         -2    1    1    2    0  502 -0.15955853731E+02  0.17008031985E+02 -0.11752793634E+03  0.11981935670E+03  0.00000000000E+00 0.  1.
<mgrwt>
<rscale>  2 0.23320858E+02</rscale>
<asrwt>0</asrwt>
<pdfrwt beam="2">  1        2 0.66709611E-01 0.23320858E+02</pdfrwt>
<pdfrwt beam="1">  1       -2 0.24268164E-03 0.23320858E+02</pdfrwt>
<totfact> 0.68858674E+05</totfact>
</mgrwt>
</event>
<event>
 4    1  0.1429937E+004  0.2522892E+02  0.7546771E-02  0.1657736E+00
          2   -1    0    0  501    0  0.00000000000E+00  0.00000000000E+00  0.22772458791E+03  0.22772458791E+03  0.00000000000E+00 0. -1.
         -2   -1    0    0    0  501 -0.00000000000E+00 -0.00000000000E+00 -0.80937541618E+01  0.80937541618E+01  0.00000000000E+00 0. -1.
          2    1    1    2  502    0  0.82999127545E+01 -0.23824559267E+02  0.20521753909E+03  0.20676251238E+03  0.00000000000E+00 0. -1.
         -2    1    1    2    0  502 -0.82999127545E+01  0.23824559267E+02  0.14413294654E+02  0.29055829686E+02  0.00000000000E+00 0. -1.
<mgrwt>
<rscale>  2 0.25228915E+02</rscale>
<asrwt>0</asrwt>
<pdfrwt beam="1">  1        2 0.35034547E-01 0.25228915E+02</pdfrwt>
<pdfrwt beam="2">  1       -2 0.12451931E-02 0.25228915E+02</pdfrwt>
<totfact> 0.14784557E+05</totfact>
</mgrwt>
</event>
<event>
 4    1  0.1429937E+004  0.2341420E+02  0.7546771E-02  0.1684883E+00
         -2   -1    0    0    0  501 -0.00000000000E+00  0.00000000000E+00  0.35473353232E+01  0.35473353232E+01  0.00000000000E+00 0. -1.
          2   -1    0    0  501    0  0.00000000000E+00 -0.00000000000E+00 -0.10783619662E+04  0.10783619662E+04  0.00000000000E+00 0.  1.
          2    1    1    2  502    0  0.21377616024E+02 -0.95510387490E+01 -0.10381002016E+04  0.10383642200E+04  0.00000000000E+00 0.  1.
         -2    1    1    2    0  502 -0.21377616024E+02  0.95510387490E+01 -0.36714429281E+02  0.43545081530E+02  0.00000000000E+00 0. -1.
<mgrwt>
<rscale>  2 0.23414201E+02</rscale>
<asrwt>0</asrwt>
<pdfrwt beam="2">  1        2 0.16590194E+00 0.23414201E+02</pdfrwt>
<pdfrwt beam="1">  1       -2 0.54574357E-03 0.23414201E+02</pdfrwt>
<totfact> 0.85670487E+04</totfact>
</mgrwt>
</event>
<event>
 4    1  0.1429937E+004  0.2992649E+02  0.7546771E-02  0.1598903E+00
         -2   -1    0    0    0  501 -0.00000000000E+00  0.00000000000E+00  0.18221492984E+02  0.18221492984E+02  0.00000000000E+00 0. -1.
          2   -1    0    0  501    0  0.00000000000E+00 -0.00000000000E+00 -0.25292081321E+03  0.25292081321E+03  0.00000000000E+00 0. -1.
          2    1    1    2  502    0 -0.25592814600E+02 -0.15511362910E+02 -0.23903703361E+03  0.24090308835E+03  0.00000000000E+00 0. -1.
         -2    1    1    2    0  502  0.25592814600E+02  0.15511362910E+02  0.43377133851E+01  0.30239217845E+02  0.00000000000E+00 0. -1.
<mgrwt>
<rscale>  2 0.29926486E+02</rscale>
<asrwt>0</asrwt>
<pdfrwt beam="2">  1        2 0.38910894E-01 0.29926486E+02</pdfrwt>
<pdfrwt beam="1">  1       -2 0.28033066E-02 0.29926486E+02</pdfrwt>
<totfact> 0.45060064E+04</totfact>
</mgrwt>
</event>
<event>
 4    1  0.1429937E+004  0.2102568E+02  0.7546771E-02  0.1725668E+00
          2   -1    0    0  501    0  0.00000000000E+00  0.00000000000E+00  0.16201113454E+02  0.16201113454E+02  0.00000000000E+00 0.  1.
         -2   -1    0    0    0  501 -0.00000000000E+00 -0.00000000000E+00 -0.13358309053E+03  0.13358309053E+03  0.00000000000E+00 0. -1.
          2    1    1    2  502    0  0.21024581905E+02 -0.21462637976E+00  0.81155557539E+01  0.22537554303E+02  0.00000000000E+00 0.  1.
         -2    1    1    2    0  502 -0.21024581905E+02  0.21462637976E+00 -0.12549753283E+03  0.12724664968E+03  0.00000000000E+00 0. -1.
<mgrwt>
<rscale>  2 0.21025677E+02</rscale>
<asrwt>0</asrwt>
<pdfrwt beam="1">  1        2 0.24924790E-02 0.21025677E+02</pdfrwt>
<pdfrwt beam="2">  1       -2 0.20551244E-01 0.21025677E+02</pdfrwt>
<totfact> 0.51547281E+04</totfact>
</mgrwt>
</event>
<event>
 4    1  0.1429937E+004  0.3705988E+02  0.7546771E-02  0.1531034E+00
          2   -1    0    0  501    0  0.00000000000E+00  0.00000000000E+00  0.75516991315E+02  0.75516991315E+02  0.00000000000E+00 0. -1.
         -2   -1    0    0    0  501 -0.00000000000E+00 -0.00000000000E+00 -0.14174332614E+03  0.14174332614E+03  0.00000000000E+00 0. -1.
          2    1    1    2  502    0 -0.31111562140E+01 -0.36929062043E+02  0.68308658596E+02  0.77714269961E+02  0.00000000000E+00 0. -1.
         -2    1    1    2    0  502  0.31111562140E+01  0.36929062043E+02 -0.13453499342E+03  0.13954604749E+03  0.00000000000E+00 0. -1.
<mgrwt>
<rscale>  2 0.37059883E+02</rscale>
<asrwt>0</asrwt>
<pdfrwt beam="1">  1        2 0.11617999E-01 0.37059883E+02</pdfrwt>
<pdfrwt beam="2">  1       -2 0.21806665E-01 0.37059883E+02</pdfrwt>
<totfact> 0.79197204E+03</totfact>
</mgrwt>
</event>
<event>
 4    1  0.1429937E+004  0.2121389E+02  0.7546771E-02  0.1722213E+00
         -2   -1    0    0    0  501 -0.00000000000E+00  0.00000000000E+00  0.18229561628E+02  0.18229561628E+02  0.00000000000E+00 0.  1.
          2   -1    0    0  501    0  0.00000000000E+00 -0.00000000000E+00 -0.36570040992E+02  0.36570040992E+02  0.00000000000E+00 0.  1.
          2    1    1    2  502    0 -0.89999696647E+00 -0.21194794613E+02 -0.24789208995E+02  0.32627200245E+02  0.00000000000E+00 0.  1.
         -2    1    1    2    0  502  0.89999696647E+00  0.21194794613E+02  0.64487296311E+01  0.22172402375E+02  0.00000000000E+00 0.  1.
<mgrwt>
<rscale>  2 0.21213894E+02</rscale>
<asrwt>0</asrwt>
<pdfrwt beam="2">  1        2 0.56261601E-02 0.21213894E+02</pdfrwt>
<pdfrwt beam="1">  1       -2 0.28045480E-02 0.21213894E+02</pdfrwt>
<totfact> 0.34983189E+05</totfact>
</mgrwt>
</event>
<event>
 4    1  0.1429937E+004  0.2639197E+02  0.7546771E-02  0.1641778E+00
          2   -1    0    0  501    0  0.00000000000E+00  0.00000000000E+00  0.51960366707E+03  0.51960366707E+03  0.00000000000E+00 0.  1.
         -2   -1    0    0    0  501 -0.00000000000E+00 -0.00000000000E+00 -0.16784529541E+03  0.16784529541E+03  0.00000000000E+00 0. -1.
          2    1    1    2  502    0  0.21505864640E+02 -0.15298166398E+02  0.51822831949E+03  0.51889992024E+03  0.00000000000E+00 0.  1.
         -2    1    1    2    0  502 -0.21505864640E+02  0.15298166398E+02 -0.16646994783E+03  0.16854904224E+03  0.00000000000E+00 0. -1.
<mgrwt>
<rscale>  2 0.26391971E+02</rscale>
<asrwt>0</asrwt>
<pdfrwt beam="1">  1        2 0.79939025E-01 0.26391971E+02</pdfrwt>
<pdfrwt beam="2">  1       -2 0.25822353E-01 0.26391971E+02</pdfrwt>
<totfact> 0.77198583E+02</totfact>
</mgrwt>
</event>
<event>
 4    1  0.1429937E+004  0.6212554E+02  0.7546771E-02  0.1389122E+00
         -2   -1    0    0    0  501 -0.00000000000E+00  0.00000000000E+00  0.17601304231E+02  0.17601304231E+02  0.00000000000E+00 0. -1.
          2   -1    0    0  501    0  0.00000000000E+00 -0.00000000000E+00 -0.50363379912E+03  0.50363379912E+03  0.00000000000E+00 0. -1.
          2    1    1    2  502    0 -0.36049756681E+02  0.50596420686E+02 -0.43884528964E+03  0.44322090540E+03  0.00000000000E+00 0. -1.
         -2    1    1    2    0  502  0.36049756681E+02 -0.50596420686E+02 -0.47187205251E+02  0.78014197954E+02  0.00000000000E+00 0. -1.
<mgrwt>
<rscale>  2 0.62125540E+02</rscale>
<asrwt>0</asrwt>
<pdfrwt beam="2">  1        2 0.77482106E-01 0.62125540E+02</pdfrwt>
<pdfrwt beam="1">  1       -2 0.27078936E-02 0.62125540E+02</pdfrwt>
<totfact> 0.26192339E+04</totfact>
</mgrwt>
</event>
<event>
 4    1  0.1429937E+004  0.2426654E+02  0.7546771E-02  0.1671766E+00
         -2   -1    0    0    0  501 -0.00000000000E+00  0.00000000000E+00  0.36207793231E+02  0.36207793231E+02  0.00000000000E+00 0.  1.
          2   -1    0    0  501    0  0.00000000000E+00 -0.00000000000E+00 -0.10554590661E+03  0.10554590661E+03  0.00000000000E+00 0.  1.
          2    1    1    2  502    0  0.23905574968E+02  0.41699653240E+01 -0.99856909394E+02  0.10276316207E+03  0.00000000000E+00 0.  1.
         -2    1    1    2    0  502 -0.23905574968E+02 -0.41699653240E+01  0.30518796015E+02  0.38990537770E+02  0.00000000000E+00 0.  1.
<mgrwt>
<rscale>  2 0.24266543E+02</rscale>
<asrwt>0</asrwt>
<pdfrwt beam="2">  1        2 0.16237831E-01 0.24266543E+02</pdfrwt>
<pdfrwt beam="1">  1       -2 0.55704299E-02 0.24266543E+02</pdfrwt>
<totfact> 0.40698367E+04</totfact>
</mgrwt>
</event>
<event>
 4    1  0.1429937E+004  0.2335637E+02  0.7546771E-02  0.1685798E+00
          2   -1    0    0  501    0  0.00000000000E+00  0.00000000000E+00  0.22053424533E+01  0.22053424533E+01  0.00000000000E+00 0. -1.
         -2   -1    0    0    0  501 -0.00000000000E+00 -0.00000000000E+00 -0.52210589172E+03  0.52210589172E+03  0.00000000000E+00 0.  1.
          2    1    1    2  502    0  0.14879265004E+02 -0.18003546844E+02 -0.69779810287E+02  0.73584931539E+02  0.00000000000E+00 0. -1.
         -2    1    1    2    0  502 -0.14879265004E+02  0.18003546844E+02 -0.45012073898E+03  0.45072630264E+03  0.00000000000E+00 0.  1.
<mgrwt>
<rscale>  2 0.23356374E+02</rscale>
<asrwt>0</asrwt>
<pdfrwt beam="1">  1        2 0.33928343E-03 0.23356374E+02</pdfrwt>
<pdfrwt beam="2">  1       -2 0.80323988E-01 0.23356374E+02</pdfrwt>
<totfact> 0.58042858E+04</totfact>
</mgrwt>
</event>
<event>
 4    1  0.1429937E+004  0.3320531E+02  0.7546771E-02  0.1565141E+00
          2   -1    0    0  501    0  0.00000000000E+00  0.00000000000E+00  0.14495107838E+04  0.14495107838E+04  0.00000000000E+00 0.  1.
         -2   -1    0    0    0  501 -0.00000000000E+00 -0.00000000000E+00 -0.89177724855E+00  0.89177724855E+00  0.00000000000E+00 0. -1.
          2    1    1    2  502    0 -0.14213110918E+02  0.30009663621E+02  0.10023779073E+04  0.10029277449E+04  0.00000000000E+00 0.  1.
         -2    1    1    2    0  502  0.14213110918E+02 -0.30009663621E+02  0.44624109932E+03  0.44747481622E+03  0.00000000000E+00 0. -1.
<mgrwt>
<rscale>  2 0.33205307E+02</rscale>
<asrwt>0</asrwt>
<pdfrwt beam="1">  1        2 0.22299977E+00 0.33205307E+02</pdfrwt>
<pdfrwt beam="2">  1       -2 0.13719766E-03 0.33205307E+02</pdfrwt>
<totfact> 0.38197431E+05</totfact>
</mgrwt>
</event>
<event>
 4    1  0.1429937E+004  0.4194906E+02  0.7546771E-02  0.1494339E+00
         -2   -1    0    0    0  501 -0.00000000000E+00  0.00000000000E+00  0.37200895183E+01  0.37200895183E+01  0.00000000000E+00 0. -1.
          2   -1    0    0  501    0  0.00000000000E+00 -0.00000000000E+00 -0.48779236679E+03  0.48779236679E+03  0.00000000000E+00 0. -1.
          2    1    1    2  502    0  0.89914193411E+00 -0.41939404909E+02 -0.19928648299E+03  0.20365368753E+03  0.00000000000E+00 0. -1.
         -2    1    1    2    0  502 -0.89914193411E+00  0.41939404909E+02 -0.28478579428E+03  0.28785876878E+03  0.00000000000E+00 0. -1.
<mgrwt>
<rscale>  2 0.41949063E+02</rscale>
<asrwt>0</asrwt>
<pdfrwt beam="2">  1        2 0.75044947E-01 0.41949063E+02</pdfrwt>
<pdfrwt beam="1">  1       -2 0.57232171E-03 0.41949063E+02</pdfrwt>
<totfact> 0.22307111E+05</totfact>
</mgrwt>
</event>
<event>
 4    1  0.1429937E+004  0.2464605E+02  0.7546771E-02  0.1666138E+00
         -2   -1    0    0    0  501 -0.00000000000E+00  0.00000000000E+00  0.34340326346E+01  0.34340326346E+01  0.00000000000E+00 0. -1.
          2   -1    0    0  501    0  0.00000000000E+00 -0.00000000000E+00 -0.20358611084E+03  0.20358611084E+03  0.00000000000E+00 0.  1.
          2    1    1    2  502    0  0.84935986910E+01  0.23136259633E+02 -0.13756262486E+03  0.13975300886E+03  0.00000000000E+00 0.  1.
         -2    1    1    2    0  502 -0.84935986910E+01 -0.23136259633E+02 -0.62589453350E+02  0.67267134614E+02  0.00000000000E+00 0. -1.
<mgrwt>
<rscale>  2 0.24646049E+02</rscale>
<asrwt>0</asrwt>
<pdfrwt beam="2">  1        2 0.31320948E-01 0.24646049E+02</pdfrwt>
<pdfrwt beam="1">  1       -2 0.52831257E-03 0.24646049E+02</pdfrwt>
<totfact> 0.52443077E+05</totfact>
</mgrwt>
</event>
<event>
 4    1  0.1429937E+004  0.6755038E+02  0.7546771E-02  0.1368627E+00
         -2   -1    0    0    0  501 -0.00000000000E+00  0.00000000000E+00  0.32173429672E+01  0.32173429672E+01  0.00000000000E+00 0.  1.
          2   -1    0    0  501    0  0.00000000000E+00 -0.00000000000E+00 -0.20785694664E+04  0.20785694664E+04  0.00000000000E+00 0.  1.
          2    1    1    2  502    0  0.45832633952E+02 -0.49622807133E+02 -0.16243479034E+04  0.16257518768E+04  0.00000000000E+00 0.  1.
         -2    1    1    2    0  502 -0.45832633952E+02  0.49622807133E+02 -0.45100422001E+03  0.45603493264E+03  0.00000000000E+00 0.  1.
<mgrwt>
<rscale>  2 0.67550376E+02</rscale>
<asrwt>0</asrwt>
<pdfrwt beam="2">  1        2 0.31978119E+00 0.67550376E+02</pdfrwt>
<pdfrwt beam="1">  1       -2 0.49497388E-03 0.67550376E+02</pdfrwt>
<totfact> 0.36399589E+04</totfact>
</mgrwt>
</event>
<event>
 4    1  0.1429937E+004  0.2384864E+02  0.7546771E-02  0.1678112E+00
          2   -1    0    0  501    0  0.00000000000E+00  0.00000000000E+00  0.54749139855E+02  0.54749139855E+02  0.00000000000E+00 0. -1.
         -2   -1    0    0    0  501 -0.00000000000E+00 -0.00000000000E+00 -0.18963946542E+02  0.18963946542E+02  0.00000000000E+00 0. -1.
          2    1    1    2  502    0  0.13078276003E+02  0.19942826550E+02  0.42677108577E+02  0.48888579755E+02  0.00000000000E+00 0. -1.
         -2    1    1    2    0  502 -0.13078276003E+02 -0.19942826550E+02 -0.68919152643E+01  0.24824506642E+02  0.00000000000E+00 0. -1.
<mgrwt>
<rscale>  2 0.23848640E+02</rscale>
<asrwt>0</asrwt>
<pdfrwt beam="1">  1        2 0.84229445E-02 0.23848640E+02</pdfrwt>
<pdfrwt beam="2">  1       -2 0.29175303E-02 0.23848640E+02</pdfrwt>
<totfact> 0.21192245E+05</totfact>
</mgrwt>
</event>
<event>
 4    1  0.1429937E+004  0.2136625E+02  0.7546771E-02  0.1719449E+00
         -2   -1    0    0    0  501 -0.00000000000E+00  0.00000000000E+00  0.70350145698E+01  0.70350145698E+01  0.00000000000E+00 0. -1.
          2   -1    0    0  501    0  0.00000000000E+00 -0.00000000000E+00 -0.65628621287E+02  0.65628621287E+02  0.00000000000E+00 0. -1.
          2    1    1    2  502    0 -0.18905969132E+02  0.99539405825E+01 -0.33145771636E+02  0.39435501509E+02  0.00000000000E+00 0. -1.
         -2    1    1    2    0  502  0.18905969132E+02 -0.99539405825E+01 -0.25447835081E+02  0.33228134348E+02  0.00000000000E+00 0. -1.
<mgrwt>
<rscale>  2 0.21366249E+02</rscale>
<asrwt>0</asrwt>
<pdfrwt beam="2">  1        2 0.10096711E-01 0.21366249E+02</pdfrwt>
<pdfrwt beam="1">  1       -2 0.10823100E-02 0.21366249E+02</pdfrwt>
<totfact> 0.64512821E+05</totfact>
</mgrwt>
</event>
<event>
 4    1  0.1429937E+004  0.2181214E+02  0.7546771E-02  0.1711521E+00
         -2   -1    0    0    0  501 -0.00000000000E+00  0.00000000000E+00  0.24205644617E+02  0.24205644617E+02  0.00000000000E+00 0.  1.
          2   -1    0    0  501    0  0.00000000000E+00 -0.00000000000E+00 -0.26839073422E+03  0.26839073422E+03  0.00000000000E+00 0.  1.
          2    1    1    2  502    0  0.20061871652E+02 -0.85610063341E+01 -0.26293189407E+03  0.26383508190E+03  0.00000000000E+00 0.  1.
         -2    1    1    2    0  502 -0.20061871652E+02  0.85610063341E+01  0.18746804466E+02  0.28761296934E+02  0.00000000000E+00 0.  1.
<mgrwt>
<rscale>  2 0.21812142E+02</rscale>
<asrwt>0</asrwt>
<pdfrwt beam="2">  1        2 0.41290881E-01 0.21812142E+02</pdfrwt>
<pdfrwt beam="1">  1       -2 0.37239454E-02 0.21812142E+02</pdfrwt>
<totfact> 0.26898981E+04</totfact>
</mgrwt>
</event>
<event>
 4    1  0.1429937E+004  0.3712232E+02  0.7546771E-02  0.1530523E+00
         -2   -1    0    0    0  501 -0.00000000000E+00  0.00000000000E+00  0.21569775230E+02  0.21569775230E+02  0.00000000000E+00 0.  1.
          2   -1    0    0  501    0  0.00000000000E+00 -0.00000000000E+00 -0.16928299252E+03  0.16928299252E+03  0.00000000000E+00 0.  1.
          2    1    1    2  502    0  0.15915374615E+02  0.33537552019E+02 -0.14915231160E+03  0.15370256536E+03  0.00000000000E+00 0.  1.
         -2    1    1    2    0  502 -0.15915374615E+02 -0.33537552019E+02  0.14390943109E+01  0.37150202382E+02  0.00000000000E+00 0.  1.
<mgrwt>
<rscale>  2 0.37122319E+02</rscale>
<asrwt>0</asrwt>
<pdfrwt beam="2">  1        2 0.26043538E-01 0.37122319E+02</pdfrwt>
<pdfrwt beam="1">  1       -2 0.33184268E-02 0.37122319E+02</pdfrwt>
<totfact> 0.55799549E+04</totfact>
</mgrwt>
</event>
<event>
 4    1  0.1429937E+004  0.2290189E+02  0.7546771E-02  0.1693105E+00
          2   -1    0    0  501    0  0.00000000000E+00  0.00000000000E+00  0.56125081029E+03  0.56125081029E+03  0.00000000000E+00 0.  1.
         -2   -1    0    0    0  501 -0.00000000000E+00 -0.00000000000E+00 -0.91118564772E+02  0.91118564772E+02  0.00000000000E+00 0.  1.
          2    1    1    2  502    0  0.22874193747E+02 -0.11260338146E+01  0.55957382089E+03  0.56004228208E+03  0.00000000000E+00 0.  1.
         -2    1    1    2    0  502 -0.22874193747E+02  0.11260338146E+01 -0.89441575376E+02  0.92327092977E+02  0.00000000000E+00 0.  1.
<mgrwt>
<rscale>  2 0.22901893E+02</rscale>
<asrwt>0</asrwt>
<pdfrwt beam="1">  1        2 0.86346277E-01 0.22901893E+02</pdfrwt>
<pdfrwt beam="2">  1       -2 0.14018241E-01 0.22901893E+02</pdfrwt>
<totfact> 0.18868302E+03</totfact>
</mgrwt>
</event>
<event>
 4    1  0.1429937E+004  0.2518140E+02  0.7546771E-02  0.1658410E+00
          2   -1    0    0  501    0  0.00000000000E+00  0.00000000000E+00  0.14221730192E+04  0.14221730192E+04  0.00000000000E+00 0. -1.
         -2   -1    0    0    0  501 -0.00000000000E+00 -0.00000000000E+00 -0.45157965188E+00  0.45157965188E+00  0.00000000000E+00 0. -1.
          2    1    1    2  502    0 -0.24816671150E+02  0.42703606615E+01  0.79084936701E+03  0.79125016553E+03  0.00000000000E+00 0. -1.
         -2    1    1    2    0  502  0.24816671150E+02 -0.42703606615E+01  0.63087207254E+03  0.63137443332E+03  0.00000000000E+00 0. -1.
<mgrwt>
<rscale>  2 0.25181405E+02</rscale>
<asrwt>0</asrwt>
<pdfrwt beam="1">  1        2 0.21879226E+00 0.25181405E+02</pdfrwt>
<pdfrwt beam="2">  1       -2 0.69474931E-04 0.25181405E+02</pdfrwt>
<totfact> 0.90793636E+05</totfact>
</mgrwt>
</event>
<event>
 4    1  0.1429937E+004  0.2150458E+02  0.7546771E-02  0.1716964E+00
         -2   -1    0    0    0  501 -0.00000000000E+00  0.00000000000E+00  0.34301679814E+00  0.34301679814E+00  0.00000000000E+00 0.  1.
          2   -1    0    0  501    0  0.00000000000E+00 -0.00000000000E+00 -0.16323794193E+04  0.16323794193E+04  0.00000000000E+00 0.  1.
          2    1    1    2  502    0 -0.14980519432E+02 -0.15428254241E+02 -0.11566510379E+04  0.11568509284E+04  0.00000000000E+00 0.  1.
         -2    1    1    2    0  502  0.14980519432E+02  0.15428254241E+02 -0.47538536453E+03  0.47587150766E+03  0.00000000000E+00 0.  1.
<mgrwt>
<rscale>  2 0.21504581E+02</rscale>
<asrwt>0</asrwt>
<pdfrwt beam="2">  1        2 0.25114026E+00 0.21504581E+02</pdfrwt>
<pdfrwt beam="1">  1       -2 0.52770772E-04 0.21504581E+02</pdfrwt>
<totfact> 0.99245317E+05</totfact>
</mgrwt>
</event>
<event>
 4    1  0.1429937E+004  0.6169818E+02  0.7546771E-02  0.1390840E+00
         -2   -1    0    0    0  501 -0.00000000000E+00  0.00000000000E+00  0.12414416262E+03  0.12414416262E+03  0.00000000000E+00 0. -1.
          2   -1    0    0  501    0  0.00000000000E+00 -0.00000000000E+00 -0.35393770965E+02  0.35393770965E+02  0.00000000000E+00 0.  1.
          2    1    1    2  502    0 -0.48009665800E+02 -0.38752256912E+02  0.15212724799E+02  0.63545986670E+02  0.00000000000E+00 0.  1.
         -2    1    1    2    0  502  0.48009665800E+02  0.38752256912E+02  0.73537666856E+02  0.95991946916E+02  0.00000000000E+00 0. -1.
<mgrwt>
<rscale>  2 0.61698180E+02</rscale>
<asrwt>0</asrwt>
<pdfrwt beam="2">  1        2 0.54451956E-02 0.61698180E+02</pdfrwt>
<pdfrwt beam="1">  1       -2 0.19099102E-01 0.61698180E+02</pdfrwt>
<totfact> 0.26480452E+04</totfact>
</mgrwt>
</event>
<event>
 4    1  0.1429937E+004  0.2302916E+02  0.7546771E-02  0.1691038E+00
         -2   -1    0    0    0  501 -0.00000000000E+00  0.00000000000E+00  0.85665146551E+01  0.85665146551E+01  0.00000000000E+00 0. -1.
          2   -1    0    0  501    0  0.00000000000E+00 -0.00000000000E+00 -0.70737250671E+03  0.70737250671E+03  0.00000000000E+00 0.  1.
          2    1    1    2  502    0 -0.55338712488E+01  0.22354383971E+02 -0.69134927383E+03  0.69173272342E+03  0.00000000000E+00 0.  1.
         -2    1    1    2    0  502  0.55338712488E+01 -0.22354383971E+02 -0.74567182197E+01  0.24206297948E+02  0.00000000000E+00 0. -1.
<mgrwt>
<rscale>  2 0.23029160E+02</rscale>
<asrwt>0</asrwt>
<pdfrwt beam="2">  1        2 0.10882657E+00 0.23029160E+02</pdfrwt>
<pdfrwt beam="1">  1       -2 0.13179250E-02 0.23029160E+02</pdfrwt>
<totfact> 0.42730286E+04</totfact>
</mgrwt>
</event>
<event>
 4    1  0.1429937E+004  0.2157868E+02  0.7546771E-02  0.1715642E+00
         -2   -1    0    0    0  501 -0.00000000000E+00  0.00000000000E+00  0.17406124893E+02  0.17406124893E+02  0.00000000000E+00 0. -1.
          2   -1    0    0  501    0  0.00000000000E+00 -0.00000000000E+00 -0.13867056386E+04  0.13867056386E+04  0.00000000000E+00 0.  1.
          2    1    1    2  502    0  0.21398132650E+02 -0.27855475628E+01 -0.13799008468E+04  0.13800695586E+04  0.00000000000E+00 0.  1.
         -2    1    1    2    0  502 -0.21398132650E+02  0.27855475628E+01  0.10601333099E+02  0.24042204966E+02  0.00000000000E+00 0. -1.
<mgrwt>
<rscale>  2 0.21578678E+02</rscale>
<asrwt>0</asrwt>
<pdfrwt beam="2">  1        2 0.21333937E+00 0.21578678E+02</pdfrwt>
<pdfrwt beam="1">  1       -2 0.26778649E-02 0.21578678E+02</pdfrwt>
<totfact> 0.68636777E+03</totfact>
</mgrwt>
</event>
<event>
 4    1  0.1429937E+004  0.2015860E+02  0.7546771E-02  0.1742192E+00
         -2   -1    0    0    0  501 -0.00000000000E+00  0.00000000000E+00  0.14433628522E+04  0.14433628522E+04  0.00000000000E+00 0. -1.
          2   -1    0    0  501    0  0.00000000000E+00 -0.00000000000E+00 -0.93775926088E+03  0.93775926088E+03  0.00000000000E+00 0.  1.
          2    1    1    2  502    0  0.87463459369E+01 -0.18162344198E+02 -0.93758052641E+03  0.93779721306E+03  0.00000000000E+00 0.  1.
         -2    1    1    2    0  502 -0.87463459369E+01  0.18162344198E+02  0.14431841178E+04  0.14433249001E+04  0.00000000000E+00 0. -1.
<mgrwt>
<rscale>  2 0.20158604E+02</rscale>
<asrwt>0</asrwt>
<pdfrwt beam="2">  1        2 0.14427066E+00 0.20158604E+02</pdfrwt>
<pdfrwt beam="1">  1       -2 0.22205582E+00 0.20158604E+02</pdfrwt>
<totfact> 0.42465410E+00</totfact>
</mgrwt>
</event>
<event>
 4    1  0.1429937E+004  0.2099965E+02  0.7546771E-02  0.1726150E+00
          2   -1    0    0  501    0  0.00000000000E+00  0.00000000000E+00  0.46383360984E+03  0.46383360984E+03  0.00000000000E+00 0.  1.
         -2   -1    0    0    0  501 -0.00000000000E+00 -0.00000000000E+00 -0.59831968020E+01  0.59831968020E+01  0.00000000000E+00 0.  1.
          2    1    1    2  502    0  0.17409565258E+02  0.11742749463E+02  0.44436302380E+03  0.44485894624E+03  0.00000000000E+00 0.  1.
         -2    1    1    2    0  502 -0.17409565258E+02 -0.11742749463E+02  0.13487389236E+02  0.24957860402E+02  0.00000000000E+00 0.  1.
<mgrwt>
<rscale>  2 0.20999646E+02</rscale>
<asrwt>0</asrwt>
<pdfrwt beam="1">  1        2 0.71358989E-01 0.20999646E+02</pdfrwt>
<pdfrwt beam="2">  1       -2 0.92049218E-03 0.20999646E+02</pdfrwt>
<totfact> 0.10532068E+05</totfact>
</mgrwt>
</event>
<event>
 4    1  0.1429937E+004  0.4663233E+02  0.7546771E-02  0.1464401E+00
          2   -1    0    0  501    0  0.00000000000E+00  0.00000000000E+00  0.50275528090E+04  0.50275528090E+04  0.00000000000E+00 0. -1.
         -2   -1    0    0    0  501 -0.00000000000E+00 -0.00000000000E+00 -0.46202549678E+00  0.46202549678E+00  0.00000000000E+00 0. -1.
          2    1    1    2  502    0  0.45551719345E+01  0.46409317436E+02  0.31487319629E+04  0.31490772535E+04  0.00000000000E+00 0. -1.
         -2    1    1    2    0  502 -0.45551719345E+01 -0.46409317436E+02  0.18783588206E+04  0.18789375810E+04  0.00000000000E+00 0. -1.
<mgrwt>
<rscale>  2 0.46632331E+02</rscale>
<asrwt>0</asrwt>
<pdfrwt beam="1">  1        2 0.77342585E+00 0.46632331E+02</pdfrwt>
<pdfrwt beam="2">  1       -2 0.71084872E-04 0.46632331E+02</pdfrwt>
<totfact> 0.46539838E+03</totfact>
</mgrwt>
</event>
<event>
 4    1  0.1429937E+004  0.2131244E+02  0.7546771E-02  0.1720422E+00
          2   -1    0    0  501    0  0.00000000000E+00  0.00000000000E+00  0.59666119788E+03  0.59666119788E+03  0.00000000000E+00 0. -1.
         -2   -1    0    0    0  501 -0.00000000000E+00 -0.00000000000E+00 -0.92049930753E+00  0.92049930753E+00  0.00000000000E+00 0.  1.
          2    1    1    2  502    0 -0.21148556490E+02  0.26379362239E+01  0.42214064687E+03  0.42267830071E+03  0.00000000000E+00 0. -1.
         -2    1    1    2    0  502  0.21148556490E+02 -0.26379362239E+01  0.17360005170E+03  0.17490339648E+03  0.00000000000E+00 0.  1.
<mgrwt>
<rscale>  2 0.21312441E+02</rscale>
<asrwt>0</asrwt>
<pdfrwt beam="1">  1        2 0.91793721E-01 0.21312441E+02</pdfrwt>
<pdfrwt beam="2">  1       -2 0.14161575E-03 0.21312441E+02</pdfrwt>
<totfact> 0.98759677E+05</totfact>
</mgrwt>
</event>
<event>
 4    1  0.1429937E+004  0.2556230E+02  0.7546771E-02  0.1653054E+00
          2   -1    0    0  501    0  0.00000000000E+00  0.00000000000E+00  0.10702489828E+04  0.10702489828E+04  0.00000000000E+00 0. -1.
         -2   -1    0    0    0  501 -0.00000000000E+00 -0.00000000000E+00 -0.64236131169E+00  0.64236131169E+00  0.00000000000E+00 0. -1.
          2    1    1    2  502    0 -0.17776352524E+02  0.18369336052E+02  0.65397574838E+03  0.65447514138E+03  0.00000000000E+00 0. -1.
         -2    1    1    2    0  502  0.17776352524E+02 -0.18369336052E+02  0.41563087306E+03  0.41641620268E+03  0.00000000000E+00 0. -1.
<mgrwt>
<rscale>  2 0.25562301E+02</rscale>
<asrwt>0</asrwt>
<pdfrwt beam="1">  1        2 0.16465226E+00 0.25562301E+02</pdfrwt>
<pdfrwt beam="2">  1       -2 0.98825674E-04 0.25562301E+02</pdfrwt>
<totfact> 0.85889755E+05</totfact>
</mgrwt>
</event>
<event>
 4    1  0.1429937E+004  0.2040362E+02  0.7546771E-02  0.1737419E+00
         -2   -1    0    0    0  501 -0.00000000000E+00  0.00000000000E+00  0.38498426739E+03  0.38498426739E+03  0.00000000000E+00 0. -1.
          2   -1    0    0  501    0  0.00000000000E+00 -0.00000000000E+00 -0.16876574582E+01  0.16876574582E+01  0.00000000000E+00 0.  1.
          2    1    1    2  502    0 -0.42877450537E+01 -0.19948009488E+02  0.75767313736E+02  0.78466513054E+02  0.00000000000E+00 0.  1.
         -2    1    1    2    0  502  0.42877450537E+01  0.19948009488E+02  0.30752929619E+03  0.30820541179E+03  0.00000000000E+00 0. -1.
<mgrwt>
<rscale>  2 0.20403623E+02</rscale>
<asrwt>0</asrwt>
<pdfrwt beam="2">  1        2 0.25963992E-03 0.20403623E+02</pdfrwt>
<pdfrwt beam="1">  1       -2 0.59228279E-01 0.20403623E+02</pdfrwt>
<totfact> 0.14729451E+05</totfact>
</mgrwt>
</event>
<event>
 4    1  0.1429937E+004  0.3802630E+02  0.7546771E-02  0.1523259E+00
         -2   -1    0    0    0  501 -0.00000000000E+00  0.00000000000E+00  0.23029016272E+01  0.23029016272E+01  0.00000000000E+00 0.  1.
          2   -1    0    0  501    0  0.00000000000E+00 -0.00000000000E+00 -0.89314764709E+03  0.89314764709E+03  0.00000000000E+00 0. -1.
          2    1    1    2  502    0  0.29832600847E+02  0.23579976865E+02 -0.68941297751E+03  0.69046089892E+03  0.00000000000E+00 0. -1.
         -2    1    1    2    0  502 -0.29832600847E+02 -0.23579976865E+02 -0.20143176796E+03  0.20498964980E+03  0.00000000000E+00 0.  1.
<mgrwt>
<rscale>  2 0.38026299E+02</rscale>
<asrwt>0</asrwt>
<pdfrwt beam="2">  1        2 0.13740737E+00 0.38026299E+02</pdfrwt>
<pdfrwt beam="1">  1       -2 0.35429246E-03 0.38026299E+02</pdfrwt>
<totfact> 0.21475162E+05</totfact>
</mgrwt>
</event>
<event>
 4    1  0.1429937E+004  0.2465826E+02  0.7546771E-02  0.1665959E+00
          2   -1    0    0  501    0  0.00000000000E+00  0.00000000000E+00  0.88230897799E+03  0.88230897799E+03  0.00000000000E+00 0. -1.
         -2   -1    0    0    0  501 -0.00000000000E+00 -0.00000000000E+00 -0.76981944380E+00  0.76981944380E+00  0.00000000000E+00 0. -1.
          2    1    1    2  502    0  0.22448423151E+02  0.10202856090E+02  0.58371491836E+03  0.58423551406E+03  0.00000000000E+00 0. -1.
         -2    1    1    2    0  502 -0.22448423151E+02 -0.10202856090E+02  0.29782424018E+03  0.29884328337E+03  0.00000000000E+00 0. -1.
<mgrwt>
<rscale>  2 0.24658264E+02</rscale>
<asrwt>0</asrwt>
<pdfrwt beam="1">  1        2 0.13573903E+00 0.24658264E+02</pdfrwt>
<pdfrwt beam="2">  1       -2 0.11843447E-03 0.24658264E+02</pdfrwt>
<totfact> 0.85013133E+05</totfact>
</mgrwt>
</event>
<event>
 4    1  0.1429937E+004  0.2476468E+02  0.7546771E-02  0.1664405E+00
         -2   -1    0    0    0  501 -0.00000000000E+00  0.00000000000E+00  0.48146831123E+02  0.48146831123E+02  0.00000000000E+00 0.  1.
          2   -1    0    0  501    0  0.00000000000E+00 -0.00000000000E+00 -0.40905951516E+02  0.40905951516E+02  0.00000000000E+00 0. -1.
          2    1    1    2  502    0  0.17387122012E+02 -0.17634544353E+02 -0.33328561894E+02  0.41522068883E+02  0.00000000000E+00 0. -1.
         -2    1    1    2    0  502 -0.17387122012E+02  0.17634544353E+02  0.40569441501E+02  0.47530713755E+02  0.00000000000E+00 0.  1.
<mgrwt>
<rscale>  2 0.24764676E+02</rscale>
<asrwt>0</asrwt>
<pdfrwt beam="2">  1        2 0.62932234E-02 0.24764676E+02</pdfrwt>
<pdfrwt beam="1">  1       -2 0.74072047E-02 0.24764676E+02</pdfrwt>
<totfact> 0.80598525E+04</totfact>
</mgrwt>
</event>
<event>
 4    1  0.1429937E+004  0.4094183E+02  0.7546771E-02  0.1501393E+00
          2   -1    0    0  501    0  0.00000000000E+00  0.00000000000E+00  0.70638205959E+03  0.70638205959E+03  0.00000000000E+00 0. -1.
         -2   -1    0    0    0  501 -0.00000000000E+00 -0.00000000000E+00 -0.46803002376E+01  0.46803002376E+01  0.00000000000E+00 0.  1.
          2    1    1    2  502    0  0.11620576040E+02  0.39258068859E+02  0.60047947958E+03  0.60187360729E+03  0.00000000000E+00 0. -1.
         -2    1    1    2    0  502 -0.11620576040E+02 -0.39258068859E+02  0.10122227978E+03  0.10918875254E+03  0.00000000000E+00 0.  1.
<mgrwt>
<rscale>  2 0.40941834E+02</rscale>
<asrwt>0</asrwt>
<pdfrwt beam="1">  1        2 0.10867408E+00 0.40941834E+02</pdfrwt>
<pdfrwt beam="2">  1       -2 0.72004675E-03 0.40941834E+02</pdfrwt>
<totfact> 0.10875079E+05</totfact>
</mgrwt>
</event>
<event>
 4    1  0.1429937E+004  0.2797510E+02  0.7546771E-02  0.1621614E+00
         -2   -1    0    0    0  501 -0.00000000000E+00  0.00000000000E+00  0.10599509058E+02  0.10599509058E+02  0.00000000000E+00 0. -1.
          2   -1    0    0  501    0  0.00000000000E+00 -0.00000000000E+00 -0.89883262726E+02  0.89883262726E+02  0.00000000000E+00 0. -1.
          2    1    1    2  502    0 -0.27970156009E+02 -0.52595243574E+00 -0.60871733269E+02  0.66992344072E+02  0.00000000000E+00 0. -1.
         -2    1    1    2    0  502  0.27970156009E+02  0.52595243574E+00 -0.18412020399E+02  0.33490427712E+02  0.00000000000E+00 0. -1.
<mgrwt>
<rscale>  2 0.27975101E+02</rscale>
<asrwt>0</asrwt>
<pdfrwt beam="2">  1        2 0.13828194E-01 0.27975101E+02</pdfrwt>
<pdfrwt beam="1">  1       -2 0.16306937E-02 0.27975101E+02</pdfrwt>
<totfact> 0.28013819E+05</totfact>
</mgrwt>
</event>
<event>
 4    1  0.1429937E+004  0.2616423E+02  0.7546771E-02  0.1644822E+00
          2   -1    0    0  501    0  0.00000000000E+00  0.00000000000E+00  0.40419763520E+03  0.40419763520E+03  0.00000000000E+00 0. -1.
         -2   -1    0    0    0  501 -0.00000000000E+00 -0.00000000000E+00 -0.75275172850E+02  0.75275172850E+02  0.00000000000E+00 0.  1.
          2    1    1    2  502    0 -0.60169754985E-01 -0.26164161825E+02  0.40148533272E+03  0.40233697241E+03  0.00000000000E+00 0. -1.
         -2    1    1    2    0  502  0.60169754985E-01  0.26164161825E+02 -0.72562870364E+02  0.77135835639E+02  0.00000000000E+00 0.  1.
<mgrwt>
<rscale>  2 0.26164231E+02</rscale>
<asrwt>0</asrwt>
<pdfrwt beam="1">  1        2 0.62184251E-01 0.26164231E+02</pdfrwt>
<pdfrwt beam="2">  1       -2 0.11580796E-01 0.26164231E+02</pdfrwt>
<totfact> 0.35588599E+03</totfact>
</mgrwt>
</event>
<event>
 4    1  0.1429937E+004  0.3142707E+02  0.7546771E-02  0.1582830E+00
          2   -1    0    0  501    0  0.00000000000E+00  0.00000000000E+00  0.83772128013E+03  0.83772128013E+03  0.00000000000E+00 0. -1.
         -2   -1    0    0    0  501 -0.00000000000E+00 -0.00000000000E+00 -0.88344818176E+01  0.88344818176E+01  0.00000000000E+00 0.  1.
          2    1    1    2  502    0  0.84673050831E+01  0.30264917289E+02  0.80846654651E+03  0.80907713927E+03  0.00000000000E+00 0. -1.
         -2    1    1    2    0  502 -0.84673050831E+01 -0.30264917289E+02  0.20420251810E+02  0.37478622678E+02  0.00000000000E+00 0.  1.
<mgrwt>
<rscale>  2 0.31427066E+02</rscale>
<asrwt>0</asrwt>
<pdfrwt beam="1">  1        2 0.12888013E+00 0.31427066E+02</pdfrwt>
<pdfrwt beam="2">  1       -2 0.13591517E-02 0.31427066E+02</pdfrwt>
<totfact> 0.35690224E+04</totfact>
</mgrwt>
</event>
<event>
 4    1  0.1429937E+004  0.2193968E+02  0.7546771E-02  0.1709297E+00
         -2   -1    0    0    0  501 -0.00000000000E+00  0.00000000000E+00  0.13487525643E+01  0.13487525643E+01  0.00000000000E+00 0.  1.
          2   -1    0    0  501    0  0.00000000000E+00 -0.00000000000E+00 -0.11202053569E+04  0.11202053569E+04  0.00000000000E+00 0.  1.
          2    1    1    2  502    0 -0.41993776918E+01 -0.21534036788E+02 -0.10223364709E+04  0.10225718602E+04  0.00000000000E+00 0.  1.
         -2    1    1    2    0  502  0.41993776918E+01  0.21534036788E+02 -0.96520133387E+02  0.98982249229E+02  0.00000000000E+00 0.  1.
<mgrwt>
<rscale>  2 0.21939679E+02</rscale>
<asrwt>0</asrwt>
<pdfrwt beam="2">  1        2 0.17233931E+00 0.21939679E+02</pdfrwt>
<pdfrwt beam="1">  1       -2 0.20750036E-03 0.21939679E+02</pdfrwt>
<totfact> 0.29128382E+05</totfact>
</mgrwt>
</event>
<event>
 4    1  0.1429937E+004  0.2141556E+02  0.7546771E-02  0.1718560E+00
          2   -1    0    0  501    0  0.00000000000E+00  0.00000000000E+00  0.63647157108E+02  0.63647157108E+02  0.00000000000E+00 0. -1.
         -2   -1    0    0    0  501 -0.00000000000E+00 -0.00000000000E+00 -0.37180887172E+02  0.37180887172E+02  0.00000000000E+00 0.  1.
          2    1    1    2  502    0  0.15846117078E+02 -0.14405790557E+02  0.58499120539E+02  0.62295853248E+02  0.00000000000E+00 0. -1.
         -2    1    1    2    0  502 -0.15846117078E+02  0.14405790557E+02 -0.32032850602E+02  0.38532191032E+02  0.00000000000E+00 0.  1.
<mgrwt>
<rscale>  2 0.21415560E+02</rscale>
<asrwt>0</asrwt>
<pdfrwt beam="1">  1        2 0.97918703E-02 0.21415560E+02</pdfrwt>
<pdfrwt beam="2">  1       -2 0.57201365E-02 0.21415560E+02</pdfrwt>
<totfact> 0.67133341E+04</totfact>
</mgrwt>
</event>
<event>
 4    1  0.1429937E+004  0.2555343E+02  0.7546771E-02  0.1653178E+00
         -2   -1    0    0    0  501 -0.00000000000E+00  0.00000000000E+00  0.43149337469E+01  0.43149337469E+01  0.00000000000E+00 0. -1.
          2   -1    0    0  501    0  0.00000000000E+00 -0.00000000000E+00 -0.37359616358E+03  0.37359616358E+03  0.00000000000E+00 0. -1.
          2    1    1    2  502    0 -0.17844369789E+02  0.18290878761E+02 -0.33038619110E+03  0.33137292142E+03  0.00000000000E+00 0. -1.
         -2    1    1    2    0  502  0.17844369789E+02 -0.18290878761E+02 -0.38895038737E+02  0.46538175914E+02  0.00000000000E+00 0. -1.
<mgrwt>
<rscale>  2 0.25553430E+02</rscale>
<asrwt>0</asrwt>
<pdfrwt beam="2">  1        2 0.57476355E-01 0.25553430E+02</pdfrwt>
<pdfrwt beam="1">  1       -2 0.66383571E-03 0.25553430E+02</pdfrwt>
<totfact> 0.21283191E+05</totfact>
</mgrwt>
</event>
<event>
 4    1  0.1429937E+004  0.2167375E+02  0.7546771E-02  0.1713956E+00
         -2   -1    0    0    0  501 -0.00000000000E+00  0.00000000000E+00  0.51854062641E+02  0.51854062641E+02  0.00000000000E+00 0.  1.
          2   -1    0    0  501    0  0.00000000000E+00 -0.00000000000E+00 -0.41768094414E+02  0.41768094414E+02  0.00000000000E+00 0.  1.
          2    1    1    2  502    0 -0.21673674531E+02  0.57491423405E-01 -0.36381763395E+02  0.42348366919E+02  0.00000000000E+00 0.  1.
         -2    1    1    2    0  502  0.21673674531E+02 -0.57491423405E-01  0.46467731622E+02  0.51273790137E+02  0.00000000000E+00 0.  1.
<mgrwt>
<rscale>  2 0.21673751E+02</rscale>
<asrwt>0</asrwt>
<pdfrwt beam="2">  1        2 0.64258607E-02 0.21673751E+02</pdfrwt>
<pdfrwt beam="1">  1       -2 0.79775481E-02 0.21673751E+02</pdfrwt>
<totfact> 0.68312107E+04</totfact>
</mgrwt>
</event>
<event>
 4    1  0.1429937E+004  0.2253018E+02  0.7546771E-02  0.1699241E+00
         -2   -1    0    0    0  501 -0.00000000000E+00  0.00000000000E+00  0.22942847619E+01  0.22942847619E+01  0.00000000000E+00 0.  1.
          2   -1    0    0  501    0  0.00000000000E+00 -0.00000000000E+00 -0.10624860614E+04  0.10624860614E+04  0.00000000000E+00 0. -1.
          2    1    1    2  502    0  0.21384790169E+02  0.70922409368E+01 -0.10038221978E+04  0.10040750041E+04  0.00000000000E+00 0. -1.
         -2    1    1    2    0  502 -0.21384790169E+02 -0.70922409368E+01 -0.56369578819E+02  0.60705342009E+02  0.00000000000E+00 0.  1.
<mgrwt>
<rscale>  2 0.22530183E+02</rscale>
<asrwt>0</asrwt>
<pdfrwt beam="2">  1        2 0.16345979E+00 0.22530183E+02</pdfrwt>
<pdfrwt beam="1">  1       -2 0.35296604E-03 0.22530183E+02</pdfrwt>
<totfact> 0.15512212E+05</totfact>
</mgrwt>
</event>
<event>
 4    1  0.1429937E+004  0.2386498E+02  0.7546771E-02  0.1677861E+00
          2   -1    0    0  501    0  0.00000000000E+00  0.00000000000E+00  0.31441373435E+01  0.31441373435E+01  0.00000000000E+00 0.  1.
         -2   -1    0    0    0  501 -0.00000000000E+00 -0.00000000000E+00 -0.60296580977E+03  0.60296580977E+03  0.00000000000E+00 0.  1.
          2    1    1    2  502    0 -0.33986522403E+01  0.23621735436E+02 -0.46432815708E+02  0.52206738997E+02  0.00000000000E+00 0.  1.
         -2    1    1    2    0  502  0.33986522403E+01 -0.23621735436E+02 -0.55338885672E+03  0.55390320812E+03  0.00000000000E+00 0.  1.
<mgrwt>
<rscale>  2 0.23864979E+02</rscale>
<asrwt>0</asrwt>
<pdfrwt beam="1">  1        2 0.48371308E-03 0.23864979E+02</pdfrwt>
<pdfrwt beam="2">  1       -2 0.92764040E-01 0.23864979E+02</pdfrwt>
<totfact> 0.26877130E+04</totfact>
</mgrwt>
</event>
<event>
 4    1  0.1429937E+004  0.2506562E+02  0.7546771E-02  0.1660061E+00
          2   -1    0    0  501    0  0.00000000000E+00  0.00000000000E+00  0.25998901918E+02  0.25998901918E+02  0.00000000000E+00 0.  1.
         -2   -1    0    0    0  501 -0.00000000000E+00 -0.00000000000E+00 -0.37406053957E+02  0.37406053957E+02  0.00000000000E+00 0.  1.
          2    1    1    2  502    0  0.18569360003E+02  0.16836400884E+02  0.13157637117E+02  0.28309167069E+02  0.00000000000E+00 0.  1.
         -2    1    1    2    0  502 -0.18569360003E+02 -0.16836400884E+02 -0.24564789156E+02  0.35095788806E+02  0.00000000000E+00 0.  1.
<mgrwt>
<rscale>  2 0.25065624E+02</rscale>
<asrwt>0</asrwt>
<pdfrwt beam="1">  1        2 0.39998311E-02 0.25065624E+02</pdfrwt>
<pdfrwt beam="2">  1       -2 0.57547775E-02 0.25065624E+02</pdfrwt>
<totfact> 0.20316461E+05</totfact>
</mgrwt>
</event>
<event>
 4    1  0.1429937E+004  0.2641223E+02  0.7546771E-02  0.1641509E+00
          2   -1    0    0  501    0  0.00000000000E+00  0.00000000000E+00  0.28091448653E+02  0.28091448653E+02  0.00000000000E+00 0. -1.
         -2   -1    0    0    0  501 -0.00000000000E+00 -0.00000000000E+00 -0.69259880091E+02  0.69259880091E+02  0.00000000000E+00 0. -1.
          2    1    1    2  502    0 -0.24812442046E+02 -0.90525387240E+01  0.18400291606E+02  0.32189695072E+02  0.00000000000E+00 0. -1.
         -2    1    1    2    0  502  0.24812442046E+02  0.90525387240E+01 -0.59568723044E+02  0.65161633671E+02  0.00000000000E+00 0. -1.
<mgrwt>
<rscale>  2 0.26412227E+02</rscale>
<asrwt>0</asrwt>
<pdfrwt beam="1">  1        2 0.43217614E-02 0.26412227E+02</pdfrwt>
<pdfrwt beam="2">  1       -2 0.10655366E-01 0.26412227E+02</pdfrwt>
<totfact> 0.75678971E+04</totfact>
</mgrwt>
</event>
<event>
 4    1  0.1429937E+004  0.2739389E+02  0.7546771E-02  0.1628822E+00
          2   -1    0    0  501    0  0.00000000000E+00  0.00000000000E+00  0.26652260724E+03  0.26652260724E+03  0.00000000000E+00 0.  1.
         -2   -1    0    0    0  501 -0.00000000000E+00 -0.00000000000E+00 -0.32529855181E+01  0.32529855181E+01  0.00000000000E+00 0. -1.
          2    1    1    2  502    0  0.24457359351E+02 -0.12339487339E+02  0.18109499683E+03  0.18315518899E+03  0.00000000000E+00 0.  1.
         -2    1    1    2    0  502 -0.24457359351E+02  0.12339487339E+02  0.82174624890E+02  0.86620403774E+02  0.00000000000E+00 0. -1.
<mgrwt>
<rscale>  2 0.27393893E+02</rscale>
<asrwt>0</asrwt>
<pdfrwt beam="1">  1        2 0.41003461E-01 0.27393893E+02</pdfrwt>
<pdfrwt beam="2">  1       -2 0.50045952E-03 0.27393893E+02</pdfrwt>
<totfact> 0.44375334E+05</totfact>
</mgrwt>
</event>
<event>
 4    1  0.1429937E+004  0.2062703E+02  0.7546771E-02  0.1733139E+00
          2   -1    0    0  501    0  0.00000000000E+00  0.00000000000E+00  0.17809619496E+04  0.17809619496E+04  0.00000000000E+00 0.  1.
         -2   -1    0    0    0  501 -0.00000000000E+00 -0.00000000000E+00 -0.35236182240E+00  0.35236182240E+00  0.00000000000E+00 0.  1.
          2    1    1    2  502    0 -0.20500178593E+02 -0.22840975421E+01  0.13957082482E+04  0.13958606623E+04  0.00000000000E+00 0.  1.
         -2    1    1    2    0  502  0.20500178593E+02  0.22840975421E+01  0.38490133954E+03  0.38545364910E+03  0.00000000000E+00 0.  1.
<mgrwt>
<rscale>  2 0.20627031E+02</rscale>
<asrwt>0</asrwt>
<pdfrwt beam="1">  1        2 0.27398694E+00 0.20627031E+02</pdfrwt>
<pdfrwt beam="2">  1       -2 0.54210937E-04 0.20627031E+02</pdfrwt>
<totfact> 0.80844476E+05</totfact>
</mgrwt>
</event>
<event>
 4    1  0.1429937E+004  0.2109064E+02  0.7546771E-02  0.1724471E+00
         -2   -1    0    0    0  501 -0.00000000000E+00  0.00000000000E+00  0.72838996834E+01  0.72838996834E+01  0.00000000000E+00 0.  1.
          2   -1    0    0  501    0  0.00000000000E+00 -0.00000000000E+00 -0.11639619023E+04  0.11639619023E+04  0.00000000000E+00 0. -1.
          2    1    1    2  502    0  0.12061515611E+02  0.17301294070E+02 -0.11483923344E+04  0.11485859866E+04  0.00000000000E+00 0. -1.
         -2    1    1    2    0  502 -0.12061515611E+02 -0.17301294070E+02 -0.82856682334E+01  0.22659815387E+02  0.00000000000E+00 0.  1.
<mgrwt>
<rscale>  2 0.21090636E+02</rscale>
<asrwt>0</asrwt>
<pdfrwt beam="2">  1        2 0.17907098E+00 0.21090636E+02</pdfrwt>
<pdfrwt beam="1">  1       -2 0.11206005E-02 0.21090636E+02</pdfrwt>
<totfact> 0.28855841E+04</totfact>
</mgrwt>
</event>
<event>
 4    1  0.1429937E+004  0.2095981E+02  0.7546771E-02  0.1726888E+00
          2   -1    0    0  501    0  0.00000000000E+00  0.00000000000E+00  0.90469762310E+03  0.90469762310E+03  0.00000000000E+00 0. -1.
         -2   -1    0    0    0  501 -0.00000000000E+00 -0.00000000000E+00 -0.57839886356E+02  0.57839886356E+02  0.00000000000E+00 0. -1.
          2    1    1    2  502    0  0.12554470428E+02  0.16783882627E+02  0.90267313284E+03  0.90291644032E+03  0.00000000000E+00 0. -1.
         -2    1    1    2    0  502 -0.12554470428E+02 -0.16783882627E+02 -0.55815396097E+02  0.59621069138E+02  0.00000000000E+00 0. -1.
<mgrwt>
<rscale>  2 0.20959805E+02</rscale>
<asrwt>0</asrwt>
<pdfrwt beam="1">  1        2 0.13918424E+00 0.20959805E+02</pdfrwt>
<pdfrwt beam="2">  1       -2 0.88984447E-02 0.20959805E+02</pdfrwt>
<totfact> 0.22030562E+03</totfact>
</mgrwt>
</event>
<event>
 4    1  0.1429937E+004  0.2213952E+02  0.7546771E-02  0.1705850E+00
         -2   -1    0    0    0  501 -0.00000000000E+00  0.00000000000E+00  0.66505064539E+02  0.66505064539E+02  0.00000000000E+00 0. -1.
          2   -1    0    0  501    0  0.00000000000E+00 -0.00000000000E+00 -0.26275204345E+03  0.26275204345E+03  0.00000000000E+00 0. -1.
          2    1    1    2  502    0  0.22111996002E+02 -0.11035419855E+01 -0.26042669176E+03  0.26136606503E+03  0.00000000000E+00 0. -1.
         -2    1    1    2    0  502 -0.22111996002E+02  0.11035419855E+01  0.64179712847E+02  0.67891042953E+02  0.00000000000E+00 0. -1.
<mgrwt>
<rscale>  2 0.22139516E+02</rscale>
<asrwt>0</asrwt>
<pdfrwt beam="2">  1        2 0.40423391E-01 0.22139516E+02</pdfrwt>
<pdfrwt beam="1">  1       -2 0.10231548E-01 0.22139516E+02</pdfrwt>
<totfact> 0.64366330E+03</totfact>
</mgrwt>
</event>
<event>
 4    1  0.1429937E+004  0.2066693E+02  0.7546771E-02  0.1732381E+00
          2   -1    0    0  501    0  0.00000000000E+00  0.00000000000E+00  0.17525376457E+04  0.17525376457E+04  0.00000000000E+00 0. -1.
         -2   -1    0    0    0  501 -0.00000000000E+00 -0.00000000000E+00 -0.32967866758E+00  0.32967866758E+00  0.00000000000E+00 0. -1.
          2    1    1    2  502    0  0.20375514978E+02 -0.34584055263E+01  0.13236395329E+04  0.13238008669E+04  0.00000000000E+00 0. -1.
         -2    1    1    2    0  502 -0.20375514978E+02  0.34584055263E+01  0.42856843415E+03  0.42906645748E+03  0.00000000000E+00 0. -1.
<mgrwt>
<rscale>  2 0.20666934E+02</rscale>
<asrwt>0</asrwt>
<pdfrwt beam="1">  1        2 0.26961372E+00 0.20666934E+02</pdfrwt>
<pdfrwt beam="2">  1       -2 0.50721198E-04 0.20666934E+02</pdfrwt>
<totfact> 0.90939884E+05</totfact>
</mgrwt>
</event>
<event>
 4    1  0.1429937E+004  0.2197351E+02  0.7546771E-02  0.1708711E+00
          2   -1    0    0  501    0  0.00000000000E+00  0.00000000000E+00  0.12887595642E+02  0.12887595642E+02  0.00000000000E+00 0. -1.
         -2   -1    0    0    0  501 -0.00000000000E+00 -0.00000000000E+00 -0.38492427939E+02  0.38492427939E+02  0.00000000000E+00 0. -1.
          2    1    1    2  502    0  0.33839612818E+01  0.21711364351E+02 -0.16999424053E+02  0.27781557805E+02  0.00000000000E+00 0. -1.
         -2    1    1    2    0  502 -0.33839612818E+01 -0.21711364351E+02 -0.86054082443E+01  0.23598465776E+02  0.00000000000E+00 0. -1.
<mgrwt>
<rscale>  2 0.21973507E+02</rscale>
<asrwt>0</asrwt>
<pdfrwt beam="1">  1        2 0.19827070E-02 0.21973507E+02</pdfrwt>
<pdfrwt beam="2">  1       -2 0.59219120E-02 0.21973507E+02</pdfrwt>
<totfact> 0.45515865E+05</totfact>
</mgrwt>
</event>
<event>
 4    1  0.1429937E+004  0.2129489E+02  0.7546771E-02  0.1720740E+00
         -2   -1    0    0    0  501 -0.00000000000E+00  0.00000000000E+00  0.88428150724E+00  0.88428150724E+00  0.00000000000E+00 0.  1.
          2   -1    0    0  501    0  0.00000000000E+00 -0.00000000000E+00 -0.86055753269E+03  0.86055753269E+03  0.00000000000E+00 0.  1.
          2    1    1    2  502    0 -0.38839088778E+01 -0.20937705677E+02 -0.70363779282E+03  0.70395995323E+03  0.00000000000E+00 0.  1.
         -2    1    1    2    0  502  0.38839088778E+01  0.20937705677E+02 -0.15603545836E+03  0.15748186096E+03  0.00000000000E+00 0.  1.
<mgrwt>
<rscale>  2 0.21294888E+02</rscale>
<asrwt>0</asrwt>
<pdfrwt beam="2">  1        2 0.13239321E+00 0.21294888E+02</pdfrwt>
<pdfrwt beam="1">  1       -2 0.13604357E-03 0.21294888E+02</pdfrwt>
<totfact> 0.69819487E+05</totfact>
</mgrwt>
</event>
<event>
 4    1  0.1429937E+004  0.2168635E+02  0.7546771E-02  0.1713734E+00
          2   -1    0    0  501    0  0.00000000000E+00  0.00000000000E+00  0.15866556485E+03  0.15866556485E+03  0.00000000000E+00 0.  1.
         -2   -1    0    0    0  501 -0.00000000000E+00 -0.00000000000E+00 -0.29647005238E+01  0.29647005238E+01  0.00000000000E+00 0.  1.
          2    1    1    2  502    0 -0.46852247863E+00  0.21681275777E+02  0.76680095595E+02  0.79687729878E+02  0.00000000000E+00 0.  1.
         -2    1    1    2    0  502  0.46852247863E+00 -0.21681275777E+02  0.79020768733E+02  0.81942535498E+02  0.00000000000E+00 0.  1.
<mgrwt>
<rscale>  2 0.21686348E+02</rscale>
<asrwt>0</asrwt>
<pdfrwt beam="1">  1        2 0.24410080E-01 0.21686348E+02</pdfrwt>
<pdfrwt beam="2">  1       -2 0.45610790E-03 0.21686348E+02</pdfrwt>
<totfact> 0.79113302E+05</totfact>
</mgrwt>
</event>
<event>
 4    1  0.1429937E+004  0.2660073E+02  0.7546771E-02  0.1639020E+00
          2   -1    0    0  501    0  0.00000000000E+00  0.00000000000E+00  0.43945096401E+02  0.43945096401E+02  0.00000000000E+00 0. -1.
         -2   -1    0    0    0  501 -0.00000000000E+00 -0.00000000000E+00 -0.10924689554E+03  0.10924689554E+03  0.00000000000E+00 0. -1.
          2    1    1    2  502    0  0.16661648961E+02  0.20736163828E+02  0.38075460162E+02  0.46447171097E+02  0.00000000000E+00 0. -1.
         -2    1    1    2    0  502 -0.16661648961E+02 -0.20736163828E+02 -0.10337725930E+03  0.10674482084E+03  0.00000000000E+00 0. -1.
<mgrwt>
<rscale>  2 0.26600734E+02</rscale>
<asrwt>0</asrwt>
<pdfrwt beam="1">  1        2 0.67607841E-02 0.26600734E+02</pdfrwt>
<pdfrwt beam="2">  1       -2 0.16807215E-01 0.26600734E+02</pdfrwt>
<totfact> 0.21712986E+04</totfact>
</mgrwt>
</event>
<event>
 4    1  0.1429937E+004  0.3171352E+02  0.7546771E-02  0.1579885E+00
          2   -1    0    0  501    0  0.00000000000E+00  0.00000000000E+00  0.92108824175E+02  0.92108824175E+02  0.00000000000E+00 0. -1.
         -2   -1    0    0    0  501 -0.00000000000E+00 -0.00000000000E+00 -0.58283935571E+02  0.58283935571E+02  0.00000000000E+00 0.  1.
          2    1    1    2  502    0 -0.55620446109E+01  0.31221964570E+02  0.84700069317E+02  0.90442518509E+02  0.00000000000E+00 0. -1.
         -2    1    1    2    0  502  0.55620446109E+01 -0.31221964570E+02 -0.50875180713E+02  0.59950241237E+02  0.00000000000E+00 0.  1.
<mgrwt>
<rscale>  2 0.31713521E+02</rscale>
<asrwt>0</asrwt>
<pdfrwt beam="1">  1        2 0.14170588E-01 0.31713521E+02</pdfrwt>
<pdfrwt beam="2">  1       -2 0.89667593E-02 0.31713521E+02</pdfrwt>
<totfact> 0.24810701E+04</totfact>
</mgrwt>
</event>
<event>
 4    1  0.1429937E+004  0.2638347E+02  0.7546771E-02  0.1641890E+00
         -2   -1    0    0    0  501 -0.00000000000E+00  0.00000000000E+00  0.34015609751E+02  0.34015609751E+02  0.00000000000E+00 0. -1.
          2   -1    0    0  501    0  0.00000000000E+00 -0.00000000000E+00 -0.30838435448E+03  0.30838435448E+03  0.00000000000E+00 0.  1.
          2    1    1    2  502    0 -0.51240817589E+01 -0.25881101978E+02 -0.30260661470E+03  0.30375458995E+03  0.00000000000E+00 0.  1.
         -2    1    1    2    0  502  0.51240817589E+01  0.25881101978E+02  0.28237869968E+02  0.38645374287E+02  0.00000000000E+00 0. -1.
<mgrwt>
<rscale>  2 0.26383473E+02</rscale>
<asrwt>0</asrwt>
<pdfrwt beam="2">  1        2 0.47443746E-01 0.26383473E+02</pdfrwt>
<pdfrwt beam="1">  1       -2 0.52331708E-02 0.26383473E+02</pdfrwt>
<totfact> 0.14971705E+04</totfact>
</mgrwt>
</event>
<event>
 4    1  0.1429937E+004  0.2250594E+02  0.7546771E-02  0.1699646E+00
          2   -1    0    0  501    0  0.00000000000E+00  0.00000000000E+00  0.13797188111E+01  0.13797188111E+01  0.00000000000E+00 0.  1.
         -2   -1    0    0    0  501 -0.00000000000E+00 -0.00000000000E+00 -0.75903778230E+03  0.75903778230E+03  0.00000000000E+00 0.  1.
          2    1    1    2  502    0 -0.12924113098E+02 -0.18425112740E+02 -0.10562326659E+03  0.10799440691E+03  0.00000000000E+00 0.  1.
         -2    1    1    2    0  502  0.12924113098E+02  0.18425112740E+02 -0.65203479690E+03  0.65242309420E+03  0.00000000000E+00 0.  1.
<mgrwt>
<rscale>  2 0.22505943E+02</rscale>
<asrwt>0</asrwt>
<pdfrwt beam="1">  1        2 0.21226428E-03 0.22505943E+02</pdfrwt>
<pdfrwt beam="2">  1       -2 0.11677512E+00 0.22505943E+02</pdfrwt>
<totfact> 0.46647812E+04</totfact>
</mgrwt>
</event>
<event>
 4    1  0.1429937E+004  0.6059764E+02  0.7546771E-02  0.1395341E+00
          2   -1    0    0  501    0  0.00000000000E+00  0.00000000000E+00  0.24026674052E+04  0.24026674052E+04  0.00000000000E+00 0.  1.
         -2   -1    0    0    0  501 -0.00000000000E+00 -0.00000000000E+00 -0.61566318631E+01  0.61566318631E+01  0.00000000000E+00 0. -1.
          2    1    1    2  502    0  0.44867040658E+02  0.40731098930E+02  0.22425288132E+04  0.22433473988E+04  0.00000000000E+00 0.  1.
         -2    1    1    2    0  502 -0.44867040658E+02 -0.40731098930E+02  0.15398196016E+03  0.16547663827E+03  0.00000000000E+00 0. -1.
<mgrwt>
<rscale>  2 0.60597638E+02</rscale>
<asrwt>0</asrwt>
<pdfrwt beam="1">  1        2 0.36964039E+00 0.60597638E+02</pdfrwt>
<pdfrwt beam="2">  1       -2 0.94717605E-03 0.60597638E+02</pdfrwt>
<totfact> 0.10059758E+04</totfact>
</mgrwt>
</event>
<event>
 4    1  0.1429937E+004  0.2355574E+02  0.7546771E-02  0.1682657E+00
         -2   -1    0    0    0  501 -0.00000000000E+00  0.00000000000E+00  0.53804388530E+00  0.53804388530E+00  0.00000000000E+00 0. -1.
          2   -1    0    0  501    0  0.00000000000E+00 -0.00000000000E+00 -0.10563062484E+04  0.10563062484E+04  0.00000000000E+00 0. -1.
          2    1    1    2  502    0  0.78927317748E+00 -0.23542515613E+02 -0.60922304951E+03  0.60967827339E+03  0.00000000000E+00 0. -1.
         -2    1    1    2    0  502 -0.78927317748E+00  0.23542515613E+02 -0.44654515496E+03  0.44716601884E+03  0.00000000000E+00 0. -1.
<mgrwt>
<rscale>  2 0.23555742E+02</rscale>
<asrwt>0</asrwt>
<pdfrwt beam="2">  1        2 0.16250780E+00 0.23555742E+02</pdfrwt>
<pdfrwt beam="1">  1       -2 0.82776419E-04 0.23555742E+02</pdfrwt>
<totfact> 0.10775375E+06</totfact>
</mgrwt>
</event>
<event>
 4    1  0.1429937E+004  0.2993555E+02  0.7546771E-02  0.1598802E+00
         -2   -1    0    0    0  501 -0.00000000000E+00  0.00000000000E+00  0.10892100457E+01  0.10892100457E+01  0.00000000000E+00 0. -1.
          2   -1    0    0  501    0  0.00000000000E+00 -0.00000000000E+00 -0.15702045025E+04  0.15702045025E+04  0.00000000000E+00 0.  1.
          2    1    1    2  502    0  0.28155086477E+02 -0.10169973416E+02 -0.13266139499E+04  0.13269516605E+04  0.00000000000E+00 0.  1.
         -2    1    1    2    0  502 -0.28155086477E+02  0.10169973416E+02 -0.24250134259E+03  0.24434205207E+03  0.00000000000E+00 0. -1.
<mgrwt>
<rscale>  2 0.29935552E+02</rscale>
<asrwt>0</asrwt>
<pdfrwt beam="2">  1        2 0.24156779E+00 0.29935552E+02</pdfrwt>
<pdfrwt beam="1">  1       -2 0.16757226E-03 0.29935552E+02</pdfrwt>
<totfact> 0.25018992E+05</totfact>
</mgrwt>
</event>
<event>
 4    1  0.1429937E+004  0.2434597E+02  0.7546771E-02  0.1670578E+00
          2   -1    0    0  501    0  0.00000000000E+00  0.00000000000E+00  0.58760489092E+03  0.58760489092E+03  0.00000000000E+00 0.  1.
         -2   -1    0    0    0  501 -0.00000000000E+00 -0.00000000000E+00 -0.16653181668E+01  0.16653181668E+01  0.00000000000E+00 0.  1.
          2    1    1    2  502    0 -0.48613939784E+01 -0.23855674898E+02  0.47797632606E+03  0.47859596179E+03  0.00000000000E+00 0.  1.
         -2    1    1    2    0  502  0.48613939784E+01  0.23855674898E+02  0.10796324670E+03  0.11067424729E+03  0.00000000000E+00 0.  1.
<mgrwt>
<rscale>  2 0.24345972E+02</rscale>
<asrwt>0</asrwt>
<pdfrwt beam="1">  1        2 0.90400587E-01 0.24345972E+02</pdfrwt>
<pdfrwt beam="2">  1       -2 0.25620326E-03 0.24345972E+02</pdfrwt>
<totfact> 0.47653353E+05</totfact>
</mgrwt>
</event>
<event>
 4    1  0.1429937E+004  0.5073805E+02  0.7546771E-02  0.1441401E+00
         -2   -1    0    0    0  501 -0.00000000000E+00  0.00000000000E+00  0.35472840226E+02  0.35472840226E+02  0.00000000000E+00 0. -1.
          2   -1    0    0  501    0  0.00000000000E+00 -0.00000000000E+00 -0.30038755347E+03  0.30038755347E+03  0.00000000000E+00 0. -1.
          2    1    1    2  502    0  0.11653108796E+02 -0.49381721252E+02 -0.27870171766E+03  0.28328253876E+03  0.00000000000E+00 0. -1.
         -2    1    1    2    0  502 -0.11653108796E+02  0.49381721252E+02  0.13787004421E+02  0.52577854932E+02  0.00000000000E+00 0. -1.
<mgrwt>
<rscale>  2 0.50738046E+02</rscale>
<asrwt>0</asrwt>
<pdfrwt beam="2">  1        2 0.46213472E-01 0.50738046E+02</pdfrwt>
<pdfrwt beam="1">  1       -2 0.54573598E-02 0.50738046E+02</pdfrwt>
<totfact> 0.15813432E+04</totfact>
</mgrwt>
</event>
<event>
 4    1  0.1429937E+004  0.2160637E+02  0.7546771E-02  0.1715150E+00
          2   -1    0    0  501    0  0.00000000000E+00  0.00000000000E+00  0.24498789687E+04  0.24498789687E+04  0.00000000000E+00 0. -1.
         -2   -1    0    0    0  501 -0.00000000000E+00 -0.00000000000E+00 -0.19753513469E+00  0.19753513469E+00  0.00000000000E+00 0. -1.
          2    1    1    2  502    0 -0.81861239145E+00  0.21590857067E+02  0.14551321637E+04  0.14552925648E+04  0.00000000000E+00 0. -1.
         -2    1    1    2    0  502  0.81861239145E+00 -0.21590857067E+02  0.99454926981E+03  0.99478393902E+03  0.00000000000E+00 0. -1.
<mgrwt>
<rscale>  2 0.21606370E+02</rscale>
<asrwt>0</asrwt>
<pdfrwt beam="1">  1        2 0.37688012E+00 0.21606370E+02</pdfrwt>
<pdfrwt beam="2">  1       -2 0.30391983E-04 0.21606370E+02</pdfrwt>
<totfact> 0.84920693E+05</totfact>
</mgrwt>
</event>
<event>
 4    1  0.1429937E+004  0.2458036E+02  0.7546771E-02  0.1667104E+00
         -2   -1    0    0    0  501 -0.00000000000E+00  0.00000000000E+00  0.46212442734E+01  0.46212442734E+01  0.00000000000E+00 0.  1.
          2   -1    0    0  501    0  0.00000000000E+00 -0.00000000000E+00 -0.17354533347E+03  0.17354533347E+03  0.00000000000E+00 0.  1.
          2    1    1    2  502    0  0.24287691574E+02  0.37817853594E+01 -0.12870306319E+03  0.13102928046E+03  0.00000000000E+00 0.  1.
         -2    1    1    2    0  502 -0.24287691574E+02 -0.37817853594E+01 -0.40221026006E+02  0.47137297286E+02  0.00000000000E+00 0.  1.
<mgrwt>
<rscale>  2 0.24580355E+02</rscale>
<asrwt>0</asrwt>
<pdfrwt beam="2">  1        2 0.26699283E-01 0.24580355E+02</pdfrwt>
<pdfrwt beam="1">  1       -2 0.71096064E-03 0.24580355E+02</pdfrwt>
<totfact> 0.41341899E+05</totfact>
</mgrwt>
</event>
<event>
 4    1  0.1429937E+004  0.2058890E+02  0.7546771E-02  0.1733864E+00
          2   -1    0    0  501    0  0.00000000000E+00  0.00000000000E+00  0.95491173302E+02  0.95491173302E+02  0.00000000000E+00 0.  1.
         -2   -1    0    0    0  501 -0.00000000000E+00 -0.00000000000E+00 -0.88239619517E+01  0.88239619517E+01  0.00000000000E+00 0. -1.
          2    1    1    2  502    0  0.11289421245E+02 -0.17217773932E+02  0.80100705986E+02  0.82704448917E+02  0.00000000000E+00 0.  1.
         -2    1    1    2    0  502 -0.11289421245E+02  0.17217773932E+02  0.65665053634E+01  0.21610686336E+02  0.00000000000E+00 0. -1.
<mgrwt>
<rscale>  2 0.20588899E+02</rscale>
<asrwt>0</asrwt>
<pdfrwt beam="1">  1        2 0.14690949E-01 0.20588899E+02</pdfrwt>
<pdfrwt beam="2">  1       -2 0.13575327E-02 0.20588899E+02</pdfrwt>
<totfact> 0.30845019E+05</totfact>
</mgrwt>
</event>
<event>
 4    1  0.1429937E+004  0.2502027E+02  0.7546771E-02  0.1660711E+00
          2   -1    0    0  501    0  0.00000000000E+00  0.00000000000E+00  0.45938386680E+02  0.45938386680E+02  0.00000000000E+00 0. -1.
         -2   -1    0    0    0  501 -0.00000000000E+00 -0.00000000000E+00 -0.20665004162E+03  0.20665004162E+03  0.00000000000E+00 0.  1.
          2    1    1    2  502    0  0.11526193365E+02 -0.22207218814E+02  0.41703228564E+02  0.48633044050E+02  0.00000000000E+00 0. -1.
         -2    1    1    2    0  502 -0.11526193365E+02  0.22207218814E+02 -0.20241488350E+03  0.20395538425E+03  0.00000000000E+00 0.  1.
<mgrwt>
<rscale>  2 0.25020266E+02</rscale>
<asrwt>0</asrwt>
<pdfrwt beam="1">  1        2 0.70674441E-02 0.25020266E+02</pdfrwt>
<pdfrwt beam="2">  1       -2 0.31792314E-01 0.25020266E+02</pdfrwt>
<totfact> 0.70990221E+03</totfact>
</mgrwt>
</event>
<event>
 4    1  0.1429937E+004  0.3537081E+02  0.7546771E-02  0.1545332E+00
         -2   -1    0    0    0  501 -0.00000000000E+00  0.00000000000E+00  0.21138847918E+01  0.21138847918E+01  0.00000000000E+00 0. -1.
          2   -1    0    0  501    0  0.00000000000E+00 -0.00000000000E+00 -0.16310149362E+04  0.16310149362E+04  0.00000000000E+00 0.  1.
          2    1    1    2  502    0  0.33752282342E+02  0.10577211973E+02 -0.14662358600E+04  0.14666624326E+04  0.00000000000E+00 0.  1.
         -2    1    1    2    0  502 -0.33752282342E+02 -0.10577211973E+02 -0.16266519137E+03  0.16646638838E+03  0.00000000000E+00 0. -1.
<mgrwt>
<rscale>  2 0.35370807E+02</rscale>
<asrwt>0</asrwt>
<pdfrwt beam="2">  1        2 0.25092574E+00 0.35370807E+02</pdfrwt>
<pdfrwt beam="1">  1       -2 0.32521257E-03 0.35370807E+02</pdfrwt>
<totfact> 0.98890304E+04</totfact>
</mgrwt>
</event>
<event>
 4    1  0.1429937E+004  0.4117716E+02  0.7546771E-02  0.1499723E+00
          2   -1    0    0  501    0  0.00000000000E+00  0.00000000000E+00  0.23277886549E+03  0.23277886549E+03  0.00000000000E+00 0.  1.
         -2   -1    0    0    0  501 -0.00000000000E+00 -0.00000000000E+00 -0.70802900595E+02  0.70802900595E+02  0.00000000000E+00 0. -1.
          2    1    1    2  502    0 -0.16060059920E+01  0.41145825325E+02  0.22475911496E+03  0.22849992988E+03  0.00000000000E+00 0.  1.
         -2    1    1    2    0  502  0.16060059920E+01 -0.41145825325E+02 -0.62783150062E+02  0.75081836210E+02  0.00000000000E+00 0. -1.
<mgrwt>
<rscale>  2 0.41177156E+02</rscale>
<asrwt>0</asrwt>
<pdfrwt beam="1">  1        2 0.35812133E-01 0.41177156E+02</pdfrwt>
<pdfrwt beam="2">  1       -2 0.10892754E-01 0.41177156E+02</pdfrwt>
<totfact> 0.71253676E+03</totfact>
</mgrwt>
</event>
<event>
 4    1  0.1429937E+004  0.4765196E+02  0.7546771E-02  0.1458434E+00
          2   -1    0    0  501    0  0.00000000000E+00  0.00000000000E+00  0.99388961561E+03  0.99388961561E+03  0.00000000000E+00 0. -1.
         -2   -1    0    0    0  501 -0.00000000000E+00 -0.00000000000E+00 -0.22859405980E+01  0.22859405980E+01  0.00000000000E+00 0.  1.
          2    1    1    2  502    0  0.37982780762E+02 -0.28775255842E+02  0.48404584565E+03  0.48638573959E+03  0.00000000000E+00 0. -1.
         -2    1    1    2    0  502 -0.37982780762E+02  0.28775255842E+02  0.50755782936E+03  0.50978981662E+03  0.00000000000E+00 0.  1.
<mgrwt>
<rscale>  2 0.47651960E+02</rscale>
<asrwt>0</asrwt>
<pdfrwt beam="1">  1        2 0.15290575E+00 0.47651960E+02</pdfrwt>
<pdfrwt beam="2">  1       -2 0.35168396E-03 0.47651960E+02</pdfrwt>
<totfact> 0.19809150E+05</totfact>
</mgrwt>
</event>
<event>
 4    1  0.1429937E+004  0.3747060E+02  0.7546771E-02  0.1527695E+00
          2   -1    0    0  501    0  0.00000000000E+00  0.00000000000E+00  0.86584997527E+02  0.86584997527E+02  0.00000000000E+00 0. -1.
         -2   -1    0    0    0  501 -0.00000000000E+00 -0.00000000000E+00 -0.22973229773E+02  0.22973229773E+02  0.00000000000E+00 0.  1.
          2    1    1    2  502    0 -0.32597939283E+02  0.18477558919E+02  0.61515321882E+02  0.72029026478E+02  0.00000000000E+00 0. -1.
         -2    1    1    2    0  502  0.32597939283E+02 -0.18477558919E+02  0.20964458723E+01  0.37529200823E+02  0.00000000000E+00 0.  1.
<mgrwt>
<rscale>  2 0.37470600E+02</rscale>
<asrwt>0</asrwt>
<pdfrwt beam="1">  1        2 0.13320769E-01 0.37470600E+02</pdfrwt>
<pdfrwt beam="2">  1       -2 0.35343431E-02 0.37470600E+02</pdfrwt>
<totfact> 0.10625363E+05</totfact>
</mgrwt>
</event>
<event>
 4    1  0.1429937E+004  0.2699699E+02  0.7546771E-02  0.1633871E+00
          2   -1    0    0  501    0  0.00000000000E+00  0.00000000000E+00  0.35078961056E+02  0.35078961056E+02  0.00000000000E+00 0. -1.
         -2   -1    0    0    0  501 -0.00000000000E+00 -0.00000000000E+00 -0.57121741822E+02  0.57121741822E+02  0.00000000000E+00 0. -1.
          2    1    1    2  502    0 -0.24034922678E+02 -0.12294710087E+02  0.25751180815E+02  0.37308989770E+02  0.00000000000E+00 0. -1.
         -2    1    1    2    0  502  0.24034922678E+02  0.12294710087E+02 -0.47793961582E+02  0.54891713108E+02  0.00000000000E+00 0. -1.
<mgrwt>
<rscale>  2 0.26996989E+02</rscale>
<asrwt>0</asrwt>
<pdfrwt beam="1">  1        2 0.53967633E-02 0.26996989E+02</pdfrwt>
<pdfrwt beam="2">  1       -2 0.87879602E-02 0.26996989E+02</pdfrwt>
<totfact> 0.77098934E+04</totfact>
</mgrwt>
</event>
<event>
 4    1  0.1429937E+004  0.2489972E+02  0.7546771E-02  0.1662446E+00
         -2   -1    0    0    0  501 -0.00000000000E+00  0.00000000000E+00  0.22498850221E+02  0.22498850221E+02  0.00000000000E+00 0.  1.
          2   -1    0    0  501    0  0.00000000000E+00 -0.00000000000E+00 -0.13670393804E+03  0.13670393804E+03  0.00000000000E+00 0. -1.
          2    1    1    2  502    0 -0.24798169595E+02  0.22465428423E+01 -0.12822984837E+03  0.13062499831E+03  0.00000000000E+00 0. -1.
         -2    1    1    2    0  502  0.24798169595E+02 -0.22465428423E+01  0.14024760552E+02  0.28577789952E+02  0.00000000000E+00 0.  1.
<mgrwt>
<rscale>  2 0.24899722E+02</rscale>
<asrwt>0</asrwt>
<pdfrwt beam="2">  1        2 0.21031375E-01 0.24899722E+02</pdfrwt>
<pdfrwt beam="1">  1       -2 0.34613616E-02 0.24899722E+02</pdfrwt>
<totfact> 0.60796409E+04</totfact>
</mgrwt>
</event>
<event>
 4    1  0.1429937E+004  0.2139629E+02  0.7546771E-02  0.1718907E+00
          2   -1    0    0  501    0  0.00000000000E+00  0.00000000000E+00  0.12349967033E+04  0.12349967033E+04  0.00000000000E+00 0. -1.
         -2   -1    0    0    0  501 -0.00000000000E+00 -0.00000000000E+00 -0.50979086899E+00  0.50979086899E+00  0.00000000000E+00 0.  1.
          2    1    1    2  502    0 -0.20235326366E+02 -0.69521672917E+01  0.93993215910E+03  0.94017565634E+03  0.00000000000E+00 0. -1.
         -2    1    1    2    0  502  0.20235326366E+02  0.69521672917E+01  0.29455475336E+03  0.29533083786E+03  0.00000000000E+00 0.  1.
<mgrwt>
<rscale>  2 0.21396286E+02</rscale>
<asrwt>0</asrwt>
<pdfrwt beam="1">  1        2 0.18999710E+00 0.21396286E+02</pdfrwt>
<pdfrwt beam="2">  1       -2 0.78430353E-04 0.21396286E+02</pdfrwt>
<totfact> 0.91119139E+05</totfact>
</mgrwt>
</event>
<event>
 4    1  0.1429937E+004  0.2856423E+02  0.7546771E-02  0.1614524E+00
         -2   -1    0    0    0  501 -0.00000000000E+00  0.00000000000E+00  0.46366499965E+02  0.46366499965E+02  0.00000000000E+00 0. -1.
          2   -1    0    0  501    0  0.00000000000E+00 -0.00000000000E+00 -0.81270922400E+03  0.81270922400E+03  0.00000000000E+00 0. -1.
          2    1    1    2  502    0 -0.21696841772E+02  0.18578545360E+02 -0.80803351770E+03  0.80853823721E+03  0.00000000000E+00 0. -1.
         -2    1    1    2    0  502  0.21696841772E+02 -0.18578545360E+02  0.41690793673E+02  0.50537486756E+02  0.00000000000E+00 0. -1.
<mgrwt>
<rscale>  2 0.28564231E+02</rscale>
<asrwt>0</asrwt>
<pdfrwt beam="2">  1        2 0.12503219E+00 0.28564231E+02</pdfrwt>
<pdfrwt beam="1">  1       -2 0.71333077E-02 0.28564231E+02</pdfrwt>
<totfact> 0.35314542E+03</totfact>
</mgrwt>
</event>
<event>
 4    1  0.1429937E+004  0.2369867E+02  0.7546771E-02  0.1680429E+00
         -2   -1    0    0    0  501 -0.00000000000E+00  0.00000000000E+00  0.68239810920E+02  0.68239810920E+02  0.00000000000E+00 0. -1.
          2   -1    0    0  501    0  0.00000000000E+00 -0.00000000000E+00 -0.32039489486E+02  0.32039489486E+02  0.00000000000E+00 0. -1.
          2    1    1    2  502    0 -0.23621190110E+02 -0.19148251036E+01 -0.25122524010E+02  0.34536479120E+02  0.00000000000E+00 0. -1.
         -2    1    1    2    0  502  0.23621190110E+02  0.19148251036E+01  0.61322845444E+02  0.65742821286E+02  0.00000000000E+00 0. -1.
<mgrwt>
<rscale>  2 0.23698675E+02</rscale>
<asrwt>0</asrwt>
<pdfrwt beam="2">  1        2 0.49291522E-02 0.23698675E+02</pdfrwt>
<pdfrwt beam="1">  1       -2 0.10498432E-01 0.23698675E+02</pdfrwt>
<totfact> 0.64139384E+04</totfact>
</mgrwt>
</event>
<event>
 4    1  0.1429937E+004  0.2110488E+02  0.7546771E-02  0.1724209E+00
         -2   -1    0    0    0  501 -0.00000000000E+00  0.00000000000E+00  0.50131599039E+02  0.50131599039E+02  0.00000000000E+00 0. -1.
          2   -1    0    0  501    0  0.00000000000E+00 -0.00000000000E+00 -0.13589161568E+03  0.13589161568E+03  0.00000000000E+00 0. -1.
          2    1    1    2  502    0 -0.20976538246E+02 -0.23239950648E+01 -0.13279955269E+03  0.13446611955E+03  0.00000000000E+00 0. -1.
         -2    1    1    2    0  502  0.20976538246E+02  0.23239950648E+01  0.47039536057E+02  0.51557095170E+02  0.00000000000E+00 0. -1.
<mgrwt>
<rscale>  2 0.21104884E+02</rscale>
<asrwt>0</asrwt>
<pdfrwt beam="2">  1        2 0.20906402E-01 0.21104884E+02</pdfrwt>
<pdfrwt beam="1">  1       -2 0.77125539E-02 0.21104884E+02</pdfrwt>
<totfact> 0.18904364E+04</totfact>
</mgrwt>
</event>
<event>
 4    1  0.1429937E+004  0.2469674E+02  0.7546771E-02  0.1665396E+00
          2   -1    0    0  501    0  0.00000000000E+00  0.00000000000E+00  0.11819811266E+04  0.11819811266E+04  0.00000000000E+00 0.  1.
         -2   -1    0    0    0  501 -0.00000000000E+00 -0.00000000000E+00 -0.14550525508E+02  0.14550525508E+02  0.00000000000E+00 0.  1.
          2    1    1    2  502    0 -0.24692879655E+02  0.43656827892E+00  0.11712768603E+04  0.11715372006E+04  0.00000000000E+00 0.  1.
         -2    1    1    2    0  502  0.24692879655E+02 -0.43656827892E+00 -0.38462591929E+01  0.24994451530E+02  0.00000000000E+00 0.  1.
<mgrwt>
<rscale>  2 0.24696739E+02</rscale>
<asrwt>0</asrwt>
<pdfrwt beam="1">  1        2 0.18184317E+00 0.24696739E+02</pdfrwt>
<pdfrwt beam="2">  1       -2 0.22385433E-02 0.24696739E+02</pdfrwt>
<totfact> 0.11233832E+04</totfact>
</mgrwt>
</event>
<event>
 4    1  0.1429937E+004  0.3059448E+02  0.7546771E-02  0.1591609E+00
          2   -1    0    0  501    0  0.00000000000E+00  0.00000000000E+00  0.72462971334E+03  0.72462971334E+03  0.00000000000E+00 0. -1.
         -2   -1    0    0    0  501 -0.00000000000E+00 -0.00000000000E+00 -0.15457470987E+03  0.15457470987E+03  0.00000000000E+00 0.  1.
          2    1    1    2  502    0 -0.28938899741E+02 -0.99278637549E+01  0.72278906128E+03  0.72343627881E+03  0.00000000000E+00 0. -1.
         -2    1    1    2    0  502  0.28938899741E+02  0.99278637549E+01 -0.15273405780E+03  0.15576814440E+03  0.00000000000E+00 0.  1.
<mgrwt>
<rscale>  2 0.30594483E+02</rscale>
<asrwt>0</asrwt>
<pdfrwt beam="1">  1        2 0.11148149E+00 0.30594483E+02</pdfrwt>
<pdfrwt beam="2">  1       -2 0.23780725E-01 0.30594483E+02</pdfrwt>
<totfact> 0.62484063E+02</totfact>
</mgrwt>
</event>
<event>
 4    1  0.1429937E+004  0.2003861E+02  0.7546771E-02  0.1744561E+00
         -2   -1    0    0    0  501 -0.00000000000E+00  0.00000000000E+00  0.34055975998E+00  0.34055975998E+00  0.00000000000E+00 0. -1.
          2   -1    0    0  501    0  0.00000000000E+00 -0.00000000000E+00 -0.17269807509E+04  0.17269807509E+04  0.00000000000E+00 0. -1.
          2    1    1    2  502    0 -0.16561838810E+02 -0.11280577357E+02 -0.13497853367E+04  0.13499340729E+04  0.00000000000E+00 0. -1.
         -2    1    1    2    0  502  0.16561838810E+02  0.11280577357E+02 -0.37685485444E+03  0.37738723779E+03  0.00000000000E+00 0. -1.
<mgrwt>
<rscale>  2 0.20038611E+02</rscale>
<asrwt>0</asrwt>
<pdfrwt beam="2">  1        2 0.26569695E+00 0.20038611E+02</pdfrwt>
<pdfrwt beam="1">  1       -2 0.52392310E-04 0.20038611E+02</pdfrwt>
<totfact> 0.88761481E+05</totfact>
</mgrwt>
</event>
<event>
 4    1  0.1429937E+004  0.2980814E+02  0.7546771E-02  0.1600219E+00
         -2   -1    0    0    0  501 -0.00000000000E+00  0.00000000000E+00  0.86004214109E+02  0.86004214109E+02  0.00000000000E+00 0.  1.
          2   -1    0    0  501    0  0.00000000000E+00 -0.00000000000E+00 -0.13388234589E+03  0.13388234589E+03  0.00000000000E+00 0.  1.
          2    1    1    2  502    0  0.29291279944E+02  0.55268406479E+01 -0.12955524599E+03  0.13294016252E+03  0.00000000000E+00 0.  1.
         -2    1    1    2    0  502 -0.29291279944E+02 -0.55268406479E+01  0.81677114209E+02  0.86946397475E+02  0.00000000000E+00 0.  1.
<mgrwt>
<rscale>  2 0.29808137E+02</rscale>
<asrwt>0</asrwt>
<pdfrwt beam="2">  1        2 0.20597284E-01 0.29808137E+02</pdfrwt>
<pdfrwt beam="1">  1       -2 0.13231418E-01 0.29808137E+02</pdfrwt>
<totfact> 0.90477057E+03</totfact>
</mgrwt>
</event>
<event>
 4    1  0.1429937E+004  0.4146319E+02  0.7546771E-02  0.1497712E+00
         -2   -1    0    0    0  501 -0.00000000000E+00  0.00000000000E+00  0.28594996289E+03  0.28594996289E+03  0.00000000000E+00 0. -1.
          2   -1    0    0  501    0  0.00000000000E+00 -0.00000000000E+00 -0.12610420349E+03  0.12610420349E+03  0.00000000000E+00 0. -1.
          2    1    1    2  502    0 -0.39665437712E+02 -0.12076811830E+02 -0.12113288378E+03  0.12803269843E+03  0.00000000000E+00 0. -1.
         -2    1    1    2    0  502  0.39665437712E+02  0.12076811830E+02  0.28097864318E+03  0.28402146795E+03  0.00000000000E+00 0. -1.
<mgrwt>
<rscale>  2 0.41463193E+02</rscale>
<asrwt>0</asrwt>
<pdfrwt beam="2">  1        2 0.19400647E-01 0.41463193E+02</pdfrwt>
<pdfrwt beam="1">  1       -2 0.43992302E-01 0.41463193E+02</pdfrwt>
<totfact> 0.13110004E+03</totfact>
</mgrwt>
</event>
<event>
 4    1  0.1429937E+004  0.2049462E+02  0.7546771E-02  0.1735667E+00
         -2   -1    0    0    0  501 -0.00000000000E+00  0.00000000000E+00  0.11592964476E+03  0.11592964476E+03  0.00000000000E+00 0. -1.
          2   -1    0    0  501    0  0.00000000000E+00 -0.00000000000E+00 -0.42299850647E+02  0.42299850647E+02  0.00000000000E+00 0. -1.
          2    1    1    2  502    0  0.57658169146E+01  0.19666848543E+02 -0.38835773934E+02  0.43911808358E+02  0.00000000000E+00 0. -1.
         -2    1    1    2    0  502 -0.57658169146E+01 -0.19666848543E+02  0.11246556804E+03  0.11431768704E+03  0.00000000000E+00 0. -1.
<mgrwt>
<rscale>  2 0.20494623E+02</rscale>
<asrwt>0</asrwt>
<pdfrwt beam="2">  1        2 0.65076694E-02 0.20494623E+02</pdfrwt>
<pdfrwt beam="1">  1       -2 0.17835330E-01 0.20494623E+02</pdfrwt>
<totfact> 0.19681965E+04</totfact>
</mgrwt>
</event>
<event>
 4    1  0.1429937E+004  0.2853158E+02  0.7546771E-02  0.1614911E+00
          2   -1    0    0  501    0  0.00000000000E+00  0.00000000000E+00  0.32498992094E+03  0.32498992094E+03  0.00000000000E+00 0.  1.
         -2   -1    0    0    0  501 -0.00000000000E+00 -0.00000000000E+00 -0.16724123227E+02  0.16724123227E+02  0.00000000000E+00 0. -1.
          2    1    1    2  502    0  0.28038156074E+02 -0.52832444065E+01  0.31167617022E+03  0.31297936985E+03  0.00000000000E+00 0.  1.
         -2    1    1    2    0  502 -0.28038156074E+02  0.52832444065E+01 -0.34103725085E+01  0.28734674318E+02  0.00000000000E+00 0. -1.
<mgrwt>
<rscale>  2 0.28531577E+02</rscale>
<asrwt>0</asrwt>
<pdfrwt beam="1">  1        2 0.49998445E-01 0.28531577E+02</pdfrwt>
<pdfrwt beam="2">  1       -2 0.25729423E-02 0.28531577E+02</pdfrwt>
<totfact> 0.39200100E+04</totfact>
</mgrwt>
</event>
<event>
 4    1  0.1429937E+004  0.2241986E+02  0.7546771E-02  0.1701090E+00
          2   -1    0    0  501    0  0.00000000000E+00  0.00000000000E+00  0.35108355803E+03  0.35108355803E+03  0.00000000000E+00 0.  1.
         -2   -1    0    0    0  501 -0.00000000000E+00 -0.00000000000E+00 -0.33628470494E+01  0.33628470494E+01  0.00000000000E+00 0. -1.
          2    1    1    2  502    0 -0.20748103178E+01 -0.22323644382E+02  0.30815959091E+03  0.30897408210E+03  0.00000000000E+00 0.  1.
         -2    1    1    2    0  502  0.20748103178E+01  0.22323644382E+02  0.39561120065E+02  0.45472322980E+02  0.00000000000E+00 0. -1.
<mgrwt>
<rscale>  2 0.22419856E+02</rscale>
<asrwt>0</asrwt>
<pdfrwt beam="1">  1        2 0.54012826E-01 0.22419856E+02</pdfrwt>
<pdfrwt beam="2">  1       -2 0.51736136E-03 0.22419856E+02</pdfrwt>
<totfact> 0.30553249E+05</totfact>
</mgrwt>
</event>
<event>
 4    1  0.1429937E+004  0.2746865E+02  0.7546771E-02  0.1627882E+00
          2   -1    0    0  501    0  0.00000000000E+00  0.00000000000E+00  0.91944408627E+02  0.91944408627E+02  0.00000000000E+00 0. -1.
         -2   -1    0    0    0  501 -0.00000000000E+00 -0.00000000000E+00 -0.46321862561E+02  0.46321862561E+02  0.00000000000E+00 0.  1.
          2    1    1    2  502    0  0.46506430101E+01 -0.27072091890E+02  0.85522343566E+02  0.89825374414E+02  0.00000000000E+00 0. -1.
         -2    1    1    2    0  502 -0.46506430101E+01  0.27072091890E+02 -0.39899797500E+02  0.48440896774E+02  0.00000000000E+00 0.  1.
<mgrwt>
<rscale>  2 0.27468648E+02</rscale>
<asrwt>0</asrwt>
<pdfrwt beam="1">  1        2 0.14145294E-01 0.27468648E+02</pdfrwt>
<pdfrwt beam="2">  1       -2 0.71264404E-02 0.27468648E+02</pdfrwt>
<totfact> 0.34002062E+04</totfact>
</mgrwt>
</event>
<event>
 4    1  0.1429937E+004  0.2113802E+02  0.7546771E-02  0.1723600E+00
         -2   -1    0    0    0  501 -0.00000000000E+00  0.00000000000E+00  0.93551843326E+00  0.93551843326E+00  0.00000000000E+00 0.  1.
          2   -1    0    0  501    0  0.00000000000E+00 -0.00000000000E+00 -0.79833486865E+03  0.79833486865E+03  0.00000000000E+00 0.  1.
          2    1    1    2  502    0 -0.12922225983E+02 -0.16728175444E+02 -0.65199983014E+03  0.65234239038E+03  0.00000000000E+00 0.  1.
         -2    1    1    2    0  502  0.12922225983E+02  0.16728175444E+02 -0.14539952007E+03  0.14692799671E+03  0.00000000000E+00 0.  1.
<mgrwt>
<rscale>  2 0.21138017E+02</rscale>
<asrwt>0</asrwt>
<pdfrwt beam="2">  1        2 0.12282086E+00 0.21138017E+02</pdfrwt>
<pdfrwt beam="1">  1       -2 0.14392578E-03 0.21138017E+02</pdfrwt>
<totfact> 0.70477561E+05</totfact>
</mgrwt>
</event>
<event>
 4    1  0.1429937E+004  0.5424691E+02  0.7546771E-02  0.1423694E+00
          2   -1    0    0  501    0  0.00000000000E+00  0.00000000000E+00  0.34539765519E+03  0.34539765519E+03  0.00000000000E+00 0.  1.
         -2   -1    0    0    0  501 -0.00000000000E+00 -0.00000000000E+00 -0.18322650574E+02  0.18322650574E+02  0.00000000000E+00 0. -1.
          2    1    1    2  502    0 -0.32515174022E+02  0.43422239392E+02  0.29655814754E+03  0.30147879244E+03  0.00000000000E+00 0.  1.
         -2    1    1    2    0  502  0.32515174022E+02 -0.43422239392E+02  0.30516857073E+02  0.62241513327E+02  0.00000000000E+00 0. -1.
<mgrwt>
<rscale>  2 0.54246912E+02</rscale>
<asrwt>0</asrwt>
<pdfrwt beam="1">  1        2 0.53138096E-01 0.54246912E+02</pdfrwt>
<pdfrwt beam="2">  1       -2 0.28188696E-02 0.54246912E+02</pdfrwt>
<totfact> 0.35952364E+04</totfact>
</mgrwt>
</event>
<event>
 4    1  0.1429937E+004  0.2009482E+02  0.7546771E-02  0.1743449E+00
         -2   -1    0    0    0  501 -0.00000000000E+00  0.00000000000E+00  0.14259194374E+01  0.14259194374E+01  0.00000000000E+00 0.  1.
          2   -1    0    0  501    0  0.00000000000E+00 -0.00000000000E+00 -0.50545188469E+03  0.50545188469E+03  0.00000000000E+00 0.  1.
          2    1    1    2  502    0  0.20092664238E+02  0.29415526266E+00 -0.42007474295E+03  0.42055509906E+03  0.00000000000E+00 0.  1.
         -2    1    1    2    0  502 -0.20092664238E+02 -0.29415526266E+00 -0.83951222302E+02  0.86322705064E+02  0.00000000000E+00 0.  1.
<mgrwt>
<rscale>  2 0.20094817E+02</rscale>
<asrwt>0</asrwt>
<pdfrwt beam="2">  1        2 0.77761940E-01 0.20094817E+02</pdfrwt>
<pdfrwt beam="1">  1       -2 0.21937191E-03 0.20094817E+02</pdfrwt>
<totfact> 0.64474169E+05</totfact>
</mgrwt>
</event>
<event>
 4    1  0.1429937E+004  0.2647613E+02  0.7546771E-02  0.1640662E+00
          2   -1    0    0  501    0  0.00000000000E+00  0.00000000000E+00  0.13117428061E+04  0.13117428061E+04  0.00000000000E+00 0. -1.
         -2   -1    0    0    0  501 -0.00000000000E+00 -0.00000000000E+00 -0.12120693638E+02  0.12120693638E+02  0.00000000000E+00 0.  1.
          2    1    1    2  502    0  0.22606673887E+02  0.13781273300E+02  0.12969862855E+04  0.12972564935E+04  0.00000000000E+00 0. -1.
         -2    1    1    2    0  502 -0.22606673887E+02 -0.13781273300E+02  0.26358269983E+01  0.26607006257E+02  0.00000000000E+00 0.  1.
<mgrwt>
<rscale>  2 0.26476125E+02</rscale>
<asrwt>0</asrwt>
<pdfrwt beam="1">  1        2 0.20180647E+00 0.26476125E+02</pdfrwt>
<pdfrwt beam="2">  1       -2 0.18647231E-02 0.26476125E+02</pdfrwt>
<totfact> 0.12549080E+04</totfact>
</mgrwt>
</event>
<event>
 4    1  0.1429937E+004  0.5837874E+02  0.7546771E-02  0.1404764E+00
          2   -1    0    0  501    0  0.00000000000E+00  0.00000000000E+00  0.14143945476E+03  0.14143945476E+03  0.00000000000E+00 0. -1.
         -2   -1    0    0    0  501 -0.00000000000E+00 -0.00000000000E+00 -0.25747818974E+02  0.25747818974E+02  0.00000000000E+00 0.  1.
          2    1    1    2  502    0  0.25608882216E+02 -0.52461971639E+02  0.36670382540E+02  0.68940483551E+02  0.00000000000E+00 0.  1.
         -2    1    1    2    0  502 -0.25608882216E+02  0.52461971639E+02  0.79021253243E+02  0.98246790180E+02  0.00000000000E+00 0. -1.
<mgrwt>
<rscale>  2 0.58378735E+02</rscale>
<asrwt>0</asrwt>
<pdfrwt beam="1">  1        2 0.21759916E-01 0.58378735E+02</pdfrwt>
<pdfrwt beam="2">  1       -2 0.39612030E-02 0.58378735E+02</pdfrwt>
<totfact> 0.56687924E+04</totfact>
</mgrwt>
</event>
<event>
 4    1  0.1429937E+004  0.3065388E+02  0.7546771E-02  0.1590971E+00
         -2   -1    0    0    0  501 -0.00000000000E+00  0.00000000000E+00  0.24311397532E+01  0.24311397532E+01  0.00000000000E+00 0.  1.
          2   -1    0    0  501    0  0.00000000000E+00 -0.00000000000E+00 -0.15696217023E+04  0.15696217023E+04  0.00000000000E+00 0. -1.
          2    1    1    2  502    0  0.30623219084E+02 -0.13705945014E+01 -0.14660164703E+04  0.14663369160E+04  0.00000000000E+00 0. -1.
         -2    1    1    2    0  502 -0.30623219084E+02  0.13705945014E+01 -0.10117409226E+03  0.10571592605E+03  0.00000000000E+00 0.  1.
<mgrwt>
<rscale>  2 0.30653875E+02</rscale>
<asrwt>0</asrwt>
<pdfrwt beam="2">  1        2 0.24148095E+00 0.30653875E+02</pdfrwt>
<pdfrwt beam="1">  1       -2 0.37402044E-03 0.30653875E+02</pdfrwt>
<totfact> 0.85572987E+04</totfact>
</mgrwt>
</event>
<event>
 4    1  0.1429937E+004  0.2564773E+02  0.7546771E-02  0.1651869E+00
          2   -1    0    0  501    0  0.00000000000E+00  0.00000000000E+00  0.85763945247E+03  0.85763945247E+03  0.00000000000E+00 0. -1.
         -2   -1    0    0    0  501 -0.00000000000E+00 -0.00000000000E+00 -0.38334928818E+01  0.38334928818E+01  0.00000000000E+00 0.  1.
          2    1    1    2  502    0 -0.24648148907E+02 -0.70904712892E+01  0.81214671105E+03  0.81255158993E+03  0.00000000000E+00 0. -1.
         -2    1    1    2    0  502  0.24648148907E+02  0.70904712892E+01  0.41659248542E+02  0.48921355426E+02  0.00000000000E+00 0.  1.
<mgrwt>
<rscale>  2 0.25647729E+02</rscale>
<asrwt>0</asrwt>
<pdfrwt beam="1">  1        2 0.13194438E+00 0.25647729E+02</pdfrwt>
<pdfrwt beam="2">  1       -2 0.58976882E-03 0.25647729E+02</pdfrwt>
<totfact> 0.10425993E+05</totfact>
</mgrwt>
</event>
<event>
 4    1  0.1429937E+004  0.2276325E+02  0.7546771E-02  0.1695377E+00
         -2   -1    0    0    0  501 -0.00000000000E+00  0.00000000000E+00  0.58425346406E+02  0.58425346406E+02  0.00000000000E+00 0.  1.
          2   -1    0    0  501    0  0.00000000000E+00 -0.00000000000E+00 -0.94582696562E+01  0.94582696562E+01  0.00000000000E+00 0.  1.
          2    1    1    2  502    0  0.67364552578E+01 -0.21743632464E+02  0.16010424974E+02  0.27829823751E+02  0.00000000000E+00 0.  1.
         -2    1    1    2    0  502 -0.67364552578E+01  0.21743632464E+02  0.32956651776E+02  0.40053792311E+02  0.00000000000E+00 0.  1.
<mgrwt>
<rscale>  2 0.22763246E+02</rscale>
<asrwt>0</asrwt>
<pdfrwt beam="2">  1        2 0.14551184E-02 0.22763246E+02</pdfrwt>
<pdfrwt beam="1">  1       -2 0.89885146E-02 0.22763246E+02</pdfrwt>
<totfact> 0.37376994E+05</totfact>
</mgrwt>
</event>
<event>
 4    1  0.1429937E+004  0.2149676E+02  0.7546771E-02  0.1717103E+00
          2   -1    0    0  501    0  0.00000000000E+00  0.00000000000E+00  0.12536294546E+04  0.12536294546E+04  0.00000000000E+00 0. -1.
         -2   -1    0    0    0  501 -0.00000000000E+00 -0.00000000000E+00 -0.27730251919E+01  0.27730251919E+01  0.00000000000E+00 0. -1.
          2    1    1    2  502    0  0.18905612569E+02  0.10231738538E+02  0.12103878122E+04  0.12105786908E+04  0.00000000000E+00 0. -1.
         -2    1    1    2    0  502 -0.18905612569E+02 -0.10231738538E+02  0.40468617200E+02  0.45823788999E+02  0.00000000000E+00 0. -1.
<mgrwt>
<rscale>  2 0.21496759E+02</rscale>
<asrwt>0</asrwt>
<pdfrwt beam="1">  1        2 0.19286562E+00 0.21496759E+02</pdfrwt>
<pdfrwt beam="2">  1       -2 0.42662026E-03 0.21496759E+02</pdfrwt>
<totfact> 0.95412874E+04</totfact>
</mgrwt>
</event>
<event>
 4    1  0.1429937E+004  0.4983648E+02  0.7546771E-02  0.1446226E+00
         -2   -1    0    0    0  501 -0.00000000000E+00  0.00000000000E+00  0.10626412204E+01  0.10626412204E+01  0.00000000000E+00 0.  1.
          2   -1    0    0  501    0  0.00000000000E+00 -0.00000000000E+00 -0.24585813833E+04  0.24585813833E+04  0.00000000000E+00 0.  1.
          2    1    1    2  502    0  0.48579928693E+02  0.11120466561E+02 -0.15019460378E+04  0.15027726291E+04  0.00000000000E+00 0.  1.
         -2    1    1    2    0  502 -0.48579928693E+02 -0.11120466561E+02 -0.95557270425E+03  0.95687139541E+03  0.00000000000E+00 0.  1.
<mgrwt>
<rscale>  2 0.49836475E+02</rscale>
<asrwt>0</asrwt>
<pdfrwt beam="2">  1        2 0.37823630E+00 0.49836475E+02</pdfrwt>
<pdfrwt beam="1">  1       -2 0.16348629E-03 0.49836475E+02</pdfrwt>
<totfact> 0.10423848E+05</totfact>
</mgrwt>
</event>
<event>
 4    1  0.1429937E+004  0.2912224E+02  0.7546771E-02  0.1607999E+00
         -2   -1    0    0    0  501 -0.00000000000E+00  0.00000000000E+00  0.18462884906E+01  0.18462884906E+01  0.00000000000E+00 0. -1.
          2   -1    0    0  501    0  0.00000000000E+00 -0.00000000000E+00 -0.50366575088E+03  0.50366575088E+03  0.00000000000E+00 0.  1.
          2    1    1    2  502    0  0.22037705539E+02 -0.19037970522E+02 -0.32587792637E+03  0.32717660015E+03  0.00000000000E+00 0.  1.
         -2    1    1    2    0  502 -0.22037705539E+02  0.19037970522E+02 -0.17594153602E+03  0.17833543923E+03  0.00000000000E+00 0. -1.
<mgrwt>
<rscale>  2 0.29122239E+02</rscale>
<asrwt>0</asrwt>
<pdfrwt beam="2">  1        2 0.77487082E-01 0.29122239E+02</pdfrwt>
<pdfrwt beam="1">  1       -2 0.28404422E-03 0.29122239E+02</pdfrwt>
<totfact> 0.51140587E+05</totfact>
</mgrwt>
</event>
<event>
 4    1  0.1429937E+004  0.2747556E+02  0.7546771E-02  0.1627796E+00
          2   -1    0    0  501    0  0.00000000000E+00  0.00000000000E+00  0.15100108512E+04  0.15100108512E+04  0.00000000000E+00 0. -1.
         -2   -1    0    0    0  501 -0.00000000000E+00 -0.00000000000E+00 -0.11802041514E+02  0.11802041514E+02  0.00000000000E+00 0.  1.
          2    1    1    2  502    0  0.22736718029E+02  0.15425557857E+02  0.14937204775E+04  0.14939731494E+04  0.00000000000E+00 0. -1.
         -2    1    1    2    0  502 -0.22736718029E+02 -0.15425557857E+02  0.44883321668E+01  0.27839743310E+02  0.00000000000E+00 0.  1.
<mgrwt>
<rscale>  2 0.27475556E+02</rscale>
<asrwt>0</asrwt>
<pdfrwt beam="1">  1        2 0.23230921E+00 0.27475556E+02</pdfrwt>
<pdfrwt beam="2">  1       -2 0.18156999E-02 0.27475556E+02</pdfrwt>
<totfact> 0.10480711E+04</totfact>
</mgrwt>
</event>
<event>
 4    1  0.1429937E+004  0.2534535E+02  0.7546771E-02  0.1656090E+00
          2   -1    0    0  501    0  0.00000000000E+00  0.00000000000E+00  0.38291795542E+03  0.38291795542E+03  0.00000000000E+00 0. -1.
         -2   -1    0    0    0  501 -0.00000000000E+00 -0.00000000000E+00 -0.54972634609E+01  0.54972634609E+01  0.00000000000E+00 0.  1.
          2    1    1    2  502    0  0.21950295816E+02 -0.12671674676E+02  0.35059473591E+03  0.35150968077E+03  0.00000000000E+00 0. -1.
         -2    1    1    2    0  502 -0.21950295816E+02  0.12671674676E+02  0.26825956049E+02  0.36905538113E+02  0.00000000000E+00 0.  1.
<mgrwt>
<rscale>  2 0.25345351E+02</rscale>
<asrwt>0</asrwt>
<pdfrwt beam="1">  1        2 0.58910434E-01 0.25345351E+02</pdfrwt>
<pdfrwt beam="2">  1       -2 0.84573314E-03 0.25345351E+02</pdfrwt>
<totfact> 0.14941572E+05</totfact>
</mgrwt>
</event>
<event>
 4    1  0.1429937E+004  0.2050264E+02  0.7546771E-02  0.1735513E+00
         -2   -1    0    0    0  501 -0.00000000000E+00  0.00000000000E+00  0.49239874455E+02  0.49239874455E+02  0.00000000000E+00 0.  1.
          2   -1    0    0  501    0  0.00000000000E+00 -0.00000000000E+00 -0.73949727432E+03  0.73949727432E+03  0.00000000000E+00 0.  1.
          2    1    1    2  502    0 -0.22345525060E+00 -0.20501427010E+02 -0.73721431892E+03  0.73749936303E+03  0.00000000000E+00 0.  1.
         -2    1    1    2    0  502  0.22345525060E+00  0.20501427010E+02  0.46956919053E+02  0.51237785751E+02  0.00000000000E+00 0.  1.
<mgrwt>
<rscale>  2 0.20502645E+02</rscale>
<asrwt>0</asrwt>
<pdfrwt beam="2">  1        2 0.11376881E+00 0.20502645E+02</pdfrwt>
<pdfrwt beam="1">  1       -2 0.75753652E-02 0.20502645E+02</pdfrwt>
<totfact> 0.34977871E+03</totfact>
</mgrwt>
</event>
<event>
 4    1  0.1429937E+004  0.3068833E+02  0.7546771E-02  0.1590602E+00
          2   -1    0    0  501    0  0.00000000000E+00  0.00000000000E+00  0.27457686158E+01  0.27457686158E+01  0.00000000000E+00 0. -1.
         -2   -1    0    0    0  501 -0.00000000000E+00 -0.00000000000E+00 -0.77345795742E+03  0.77345795742E+03  0.00000000000E+00 0.  1.
          2    1    1    2  502    0 -0.16433428773E+01 -0.30644284807E+02 -0.67488871039E+03  0.67558607459E+03  0.00000000000E+00 0.  1.
         -2    1    1    2    0  502  0.16433428773E+01  0.30644284807E+02 -0.95823478410E+02  0.10061765144E+03  0.00000000000E+00 0. -1.
<mgrwt>
<rscale>  2 0.30688332E+02</rscale>
<asrwt>0</asrwt>
<pdfrwt beam="1">  1        2 0.42242535E-03 0.30688332E+02</pdfrwt>
<pdfrwt beam="2">  1       -2 0.11899370E+00 0.30688332E+02</pdfrwt>
<totfact> 0.19482587E+04</totfact>
</mgrwt>
</event>
<event>
 4    1  0.1429937E+004  0.3133322E+02  0.7546771E-02  0.1583803E+00
         -2   -1    0    0    0  501 -0.00000000000E+00  0.00000000000E+00  0.16631293612E+03  0.16631293612E+03  0.00000000000E+00 0.  1.
          2   -1    0    0  501    0  0.00000000000E+00 -0.00000000000E+00 -0.68377917729E+02  0.68377917729E+02  0.00000000000E+00 0.  1.
          2    1    1    2  502    0 -0.15235332238E+02 -0.27379837453E+02 -0.63198313326E+02  0.70539334095E+02  0.00000000000E+00 0.  1.
         -2    1    1    2    0  502  0.15235332238E+02  0.27379837453E+02  0.16113333171E+03  0.16415151975E+03  0.00000000000E+00 0.  1.
<mgrwt>
<rscale>  2 0.31333223E+02</rscale>
<asrwt>0</asrwt>
<pdfrwt beam="2">  1        2 0.10519680E-01 0.31333223E+02</pdfrwt>
<pdfrwt beam="1">  1       -2 0.25586605E-01 0.31333223E+02</pdfrwt>
<totfact> 0.66549693E+03</totfact>
</mgrwt>
</event>
<event>
 4    1  0.1429937E+004  0.3489712E+02  0.7546771E-02  0.1549516E+00
         -2   -1    0    0    0  501 -0.00000000000E+00  0.00000000000E+00  0.39805093528E+02  0.39805093528E+02  0.00000000000E+00 0. -1.
          2   -1    0    0  501    0  0.00000000000E+00 -0.00000000000E+00 -0.19968911633E+04  0.19968911633E+04  0.00000000000E+00 0.  1.
          2    1    1    2  502    0  0.21507696700E+02 -0.27481413733E+02 -0.19890600133E+04  0.19893661166E+04  0.00000000000E+00 0.  1.
         -2    1    1    2    0  502 -0.21507696700E+02  0.27481413733E+02  0.31973943510E+02  0.47330140309E+02  0.00000000000E+00 0. -1.
<mgrwt>
<rscale>  2 0.34897122E+02</rscale>
<asrwt>0</asrwt>
<pdfrwt beam="2">  1        2 0.30721404E+00 0.34897122E+02</pdfrwt>
<pdfrwt beam="1">  1       -2 0.61238603E-02 0.34897122E+02</pdfrwt>
<totfact> 0.11163677E+03</totfact>
</mgrwt>
</event>
<event>
 4    1  0.1429937E+004  0.2750117E+02  0.7546771E-02  0.1627475E+00
          2   -1    0    0  501    0  0.00000000000E+00  0.00000000000E+00  0.35369604353E+03  0.35369604353E+03  0.00000000000E+00 0. -1.
         -2   -1    0    0    0  501 -0.00000000000E+00 -0.00000000000E+00 -0.15470169474E+03  0.15470169474E+03  0.00000000000E+00 0.  1.
          2    1    1    2  502    0 -0.27325797143E+02 -0.31008634072E+01  0.35193313669E+03  0.35300601588E+03  0.00000000000E+00 0. -1.
         -2    1    1    2    0  502  0.27325797143E+02  0.31008634072E+01 -0.15293878790E+03  0.15539172240E+03  0.00000000000E+00 0.  1.
<mgrwt>
<rscale>  2 0.27501173E+02</rscale>
<asrwt>0</asrwt>
<pdfrwt beam="1">  1        2 0.54414776E-01 0.27501173E+02</pdfrwt>
<pdfrwt beam="2">  1       -2 0.23800261E-01 0.27501173E+02</pdfrwt>
<totfact> 0.13047064E+03</totfact>
</mgrwt>
</event>
<event>
 4    1  0.1429937E+004  0.2158945E+02  0.7546771E-02  0.1715451E+00
         -2   -1    0    0    0  501 -0.00000000000E+00  0.00000000000E+00  0.85121729941E+01  0.85121729941E+01  0.00000000000E+00 0. -1.
          2   -1    0    0  501    0  0.00000000000E+00 -0.00000000000E+00 -0.11513600329E+03  0.11513600329E+03  0.00000000000E+00 0.  1.
          2    1    1    2  502    0  0.10349715913E+02  0.18946967819E+02 -0.98082604625E+02  0.10043058070E+03  0.00000000000E+00 0.  1.
         -2    1    1    2    0  502 -0.10349715913E+02 -0.18946967819E+02 -0.85412256750E+01  0.23217595592E+02  0.00000000000E+00 0. -1.
<mgrwt>
<rscale>  2 0.21589447E+02</rscale>
<asrwt>0</asrwt>
<pdfrwt beam="2">  1        2 0.17713230E-01 0.21589447E+02</pdfrwt>
<pdfrwt beam="1">  1       -2 0.13095651E-02 0.21589447E+02</pdfrwt>
<totfact> 0.26814858E+05</totfact>
</mgrwt>
</event>
<event>
 4    1  0.1429937E+004  0.2539374E+02  0.7546771E-02  0.1655410E+00
         -2   -1    0    0    0  501 -0.00000000000E+00  0.00000000000E+00  0.20359252058E+03  0.20359252058E+03  0.00000000000E+00 0.  1.
          2   -1    0    0  501    0  0.00000000000E+00 -0.00000000000E+00 -0.12655723893E+02  0.12655723893E+02  0.00000000000E+00 0.  1.
          2    1    1    2  502    0 -0.20867974994E+02 -0.14469616331E+02  0.18468681387E+01  0.25460814972E+02  0.00000000000E+00 0.  1.
         -2    1    1    2    0  502  0.20867974994E+02  0.14469616331E+02  0.18908992855E+03  0.19078742950E+03  0.00000000000E+00 0.  1.
<mgrwt>
<rscale>  2 0.25393743E+02</rscale>
<asrwt>0</asrwt>
<pdfrwt beam="2">  1        2 0.19470346E-02 0.25393743E+02</pdfrwt>
<pdfrwt beam="1">  1       -2 0.31321924E-01 0.25393743E+02</pdfrwt>
<totfact> 0.36521355E+04</totfact>
</mgrwt>
</event>
<event>
 4    1  0.1429937E+004  0.2510542E+02  0.7546771E-02  0.1659492E+00
          2   -1    0    0  501    0  0.00000000000E+00  0.00000000000E+00  0.26068068214E+02  0.26068068214E+02  0.00000000000E+00 0. -1.
         -2   -1    0    0    0  501 -0.00000000000E+00 -0.00000000000E+00 -0.89113519085E+02  0.89113519085E+02  0.00000000000E+00 0. -1.
          2    1    1    2  502    0  0.23447038770E+02  0.89732219566E+01  0.17638344158E+02  0.30682136888E+02  0.00000000000E+00 0. -1.
         -2    1    1    2    0  502 -0.23447038770E+02 -0.89732219566E+01 -0.80683795030E+02  0.84499450411E+02  0.00000000000E+00 0. -1.
<mgrwt>
<rscale>  2 0.25105425E+02</rscale>
<asrwt>0</asrwt>
<pdfrwt beam="1">  1        2 0.40104720E-02 0.25105425E+02</pdfrwt>
<pdfrwt beam="2">  1       -2 0.13709772E-01 0.25105425E+02</pdfrwt>
<totfact> 0.55933396E+04</totfact>
</mgrwt>
</event>
<event>
 4    1  0.1429937E+004  0.3115658E+02  0.7546771E-02  0.1585645E+00
          2   -1    0    0  501    0  0.00000000000E+00  0.00000000000E+00  0.12894002732E+04  0.12894002732E+04  0.00000000000E+00 0. -1.
         -2   -1    0    0    0  501 -0.00000000000E+00 -0.00000000000E+00 -0.80218502523E+00  0.80218502523E+00  0.00000000000E+00 0. -1.
          2    1    1    2  502    0 -0.14144555300E+02  0.27760833998E+02  0.80427074749E+03  0.80487400729E+03  0.00000000000E+00 0. -1.
         -2    1    1    2    0  502  0.14144555300E+02 -0.27760833998E+02  0.48432734073E+03  0.48532845098E+03  0.00000000000E+00 0. -1.
<mgrwt>
<rscale>  2 0.31156578E+02</rscale>
<asrwt>0</asrwt>
<pdfrwt beam="1">  1        2 0.19836761E+00 0.31156578E+02</pdfrwt>
<pdfrwt beam="2">  1       -2 0.12341411E-03 0.31156578E+02</pdfrwt>
<totfact> 0.51994329E+05</totfact>
</mgrwt>
</event>
<event>
 4    1  0.1429937E+004  0.2301734E+02  0.7546771E-02  0.1691229E+00
         -2   -1    0    0    0  501 -0.00000000000E+00  0.00000000000E+00  0.14688718909E+03  0.14688718909E+03  0.00000000000E+00 0.  1.
          2   -1    0    0  501    0  0.00000000000E+00 -0.00000000000E+00 -0.26681624349E+02  0.26681624349E+02  0.00000000000E+00 0.  1.
          2    1    1    2  502    0  0.79236521067E+01 -0.21610503779E+02 -0.20602957007E+02  0.30891422332E+02  0.00000000000E+00 0.  1.
         -2    1    1    2    0  502 -0.79236521067E+01  0.21610503779E+02  0.14080852175E+03  0.14267739111E+03  0.00000000000E+00 0.  1.
<mgrwt>
<rscale>  2 0.23017344E+02</rscale>
<asrwt>0</asrwt>
<pdfrwt beam="2">  1        2 0.41048654E-02 0.23017344E+02</pdfrwt>
<pdfrwt beam="1">  1       -2 0.22598029E-01 0.23017344E+02</pdfrwt>
<totfact> 0.24124276E+04</totfact>
</mgrwt>
</event>
<event>
 4    1  0.1429937E+004  0.2368799E+02  0.7546771E-02  0.1680595E+00
         -2   -1    0    0    0  501 -0.00000000000E+00  0.00000000000E+00  0.53045423153E+02  0.53045423153E+02  0.00000000000E+00 0. -1.
          2   -1    0    0  501    0  0.00000000000E+00 -0.00000000000E+00 -0.26151024728E+03  0.26151024728E+03  0.00000000000E+00 0. -1.
          2    1    1    2  502    0 -0.12239993369E+02  0.20280613635E+02 -0.25829645961E+03  0.25938038048E+03  0.00000000000E+00 0. -1.
         -2    1    1    2    0  502  0.12239993369E+02 -0.20280613635E+02  0.49831635484E+02  0.55175289960E+02  0.00000000000E+00 0. -1.
<mgrwt>
<rscale>  2 0.23687987E+02</rscale>
<asrwt>0</asrwt>
<pdfrwt beam="2">  1        2 0.40232345E-01 0.23687987E+02</pdfrwt>
<pdfrwt beam="1">  1       -2 0.81608346E-02 0.23687987E+02</pdfrwt>
<totfact> 0.91187554E+03</totfact>
</mgrwt>
</event>
<event>
 4    1  0.1429937E+004  0.3102597E+02  0.7546771E-02  0.1587017E+00
         -2   -1    0    0    0  501 -0.00000000000E+00  0.00000000000E+00  0.38511361823E+01  0.38511361823E+01  0.00000000000E+00 0.  1.
          2   -1    0    0  501    0  0.00000000000E+00 -0.00000000000E+00 -0.62540958948E+03  0.62540958948E+03  0.00000000000E+00 0. -1.
          2    1    1    2  502    0 -0.22814250013E+02  0.21026669181E+02 -0.55455865840E+03  0.55542588743E+03  0.00000000000E+00 0. -1.
         -2    1    1    2    0  502  0.22814250013E+02 -0.21026669181E+02 -0.66999794897E+02  0.73834838232E+02  0.00000000000E+00 0.  1.
<mgrwt>
<rscale>  2 0.31025970E+02</rscale>
<asrwt>0</asrwt>
<pdfrwt beam="2">  1        2 0.96216816E-01 0.31025970E+02</pdfrwt>
<pdfrwt beam="1">  1       -2 0.59248276E-03 0.31025970E+02</pdfrwt>
<totfact> 0.15349311E+05</totfact>
</mgrwt>
</event>
<event>
 4    1  0.1429937E+004  0.2167275E+02  0.7546771E-02  0.1713974E+00
         -2   -1    0    0    0  501 -0.00000000000E+00  0.00000000000E+00  0.51000723635E+02  0.51000723635E+02  0.00000000000E+00 0.  1.
          2   -1    0    0  501    0  0.00000000000E+00 -0.00000000000E+00 -0.36687940164E+02  0.36687940164E+02  0.00000000000E+00 0. -1.
          2    1    1    2  502    0  0.10434132015E+02 -0.18995709876E+02 -0.30787791183E+02  0.37650978613E+02  0.00000000000E+00 0. -1.
         -2    1    1    2    0  502 -0.10434132015E+02  0.18995709876E+02  0.45100574654E+02  0.50037685186E+02  0.00000000000E+00 0.  1.
<mgrwt>
<rscale>  2 0.21672750E+02</rscale>
<asrwt>0</asrwt>
<pdfrwt beam="2">  1        2 0.56442985E-02 0.21672750E+02</pdfrwt>
<pdfrwt beam="1">  1       -2 0.78462651E-02 0.21672750E+02</pdfrwt>
<totfact> 0.81802923E+04</totfact>
</mgrwt>
</event>
<event>
 4    1  0.1429937E+004  0.2146520E+02  0.7546771E-02  0.1717669E+00
          2   -1    0    0  501    0  0.00000000000E+00  0.00000000000E+00  0.10417810737E+03  0.10417810737E+03  0.00000000000E+00 0. -1.
         -2   -1    0    0    0  501 -0.00000000000E+00 -0.00000000000E+00 -0.21748502325E+02  0.21748502325E+02  0.00000000000E+00 0.  1.
          2    1    1    2  502    0 -0.21228633546E+02 -0.31780059859E+01  0.97412533727E+02  0.99749467826E+02  0.00000000000E+00 0. -1.
         -2    1    1    2    0  502  0.21228633546E+02  0.31780059859E+01 -0.14982928685E+02  0.26177141866E+02  0.00000000000E+00 0.  1.
<mgrwt>
<rscale>  2 0.21465195E+02</rscale>
<asrwt>0</asrwt>
<pdfrwt beam="1">  1        2 0.16027401E-01 0.21465195E+02</pdfrwt>
<pdfrwt beam="2">  1       -2 0.33459235E-02 0.21465195E+02</pdfrwt>
<totfact> 0.82403407E+04</totfact>
</mgrwt>
</event>
<event>
 4    1  0.1429937E+004  0.2015821E+02  0.7546771E-02  0.1742200E+00
         -2   -1    0    0    0  501 -0.00000000000E+00  0.00000000000E+00  0.16139457191E+01  0.16139457191E+01  0.00000000000E+00 0. -1.
          2   -1    0    0  501    0  0.00000000000E+00 -0.00000000000E+00 -0.76910457060E+03  0.76910457060E+03  0.00000000000E+00 0.  1.
          2    1    1    2  502    0  0.11307804217E+02 -0.16687931468E+02 -0.69979557264E+03  0.70008584972E+03  0.00000000000E+00 0.  1.
         -2    1    1    2    0  502 -0.11307804217E+02  0.16687931468E+02 -0.67695052241E+02  0.70632666599E+02  0.00000000000E+00 0. -1.
<mgrwt>
<rscale>  2 0.20158212E+02</rscale>
<asrwt>0</asrwt>
<pdfrwt beam="2">  1        2 0.11832389E+00 0.20158212E+02</pdfrwt>
<pdfrwt beam="1">  1       -2 0.24829912E-03 0.20158212E+02</pdfrwt>
<totfact> 0.35304402E+05</totfact>
</mgrwt>
</event>
<event>
 4    1  0.1429937E+004  0.2743368E+02  0.7546771E-02  0.1628321E+00
          2   -1    0    0  501    0  0.00000000000E+00  0.00000000000E+00  0.15779389305E+03  0.15779389305E+03  0.00000000000E+00 0. -1.
         -2   -1    0    0    0  501 -0.00000000000E+00 -0.00000000000E+00 -0.20463224969E+02  0.20463224969E+02  0.00000000000E+00 0. -1.
          2    1    1    2  502    0 -0.16712296999E+02 -0.21755600790E+02  0.14671877788E+03  0.14926153831E+03  0.00000000000E+00 0. -1.
         -2    1    1    2    0  502  0.16712296999E+02  0.21755600790E+02 -0.93881098013E+01  0.28995579704E+02  0.00000000000E+00 0. -1.
<mgrwt>
<rscale>  2 0.27433684E+02</rscale>
<asrwt>0</asrwt>
<pdfrwt beam="1">  1        2 0.24275983E-01 0.27433684E+02</pdfrwt>
<pdfrwt beam="2">  1       -2 0.31481886E-02 0.27433684E+02</pdfrwt>
<totfact> 0.60962291E+04</totfact>
</mgrwt>
</event>
<event>
 4    1  0.1429937E+004  0.2258915E+02  0.7546771E-02  0.1698258E+00
          2   -1    0    0  501    0  0.00000000000E+00  0.00000000000E+00  0.90465624074E+02  0.90465624074E+02  0.00000000000E+00 0.  1.
         -2   -1    0    0    0  501 -0.00000000000E+00 -0.00000000000E+00 -0.10204773810E+02  0.10204773810E+02  0.00000000000E+00 0. -1.
          2    1    1    2  502    0  0.21946069774E+02  0.53516136326E+01  0.73793732866E+02  0.77173731005E+02  0.00000000000E+00 0.  1.
         -2    1    1    2    0  502 -0.21946069774E+02 -0.53516136326E+01  0.64671173983E+01  0.23496666879E+02  0.00000000000E+00 0. -1.
<mgrwt>
<rscale>  2 0.22589151E+02</rscale>
<asrwt>0</asrwt>
<pdfrwt beam="1">  1        2 0.13917788E-01 0.22589151E+02</pdfrwt>
<pdfrwt beam="2">  1       -2 0.15699653E-02 0.22589151E+02</pdfrwt>
<totfact> 0.27608378E+05</totfact>
</mgrwt>
</event>
<event>
 4    1  0.1429937E+004  0.2719664E+02  0.7546771E-02  0.1631318E+00
         -2   -1    0    0    0  501 -0.00000000000E+00  0.00000000000E+00  0.14509720009E+02  0.14509720009E+02  0.00000000000E+00 0. -1.
          2   -1    0    0  501    0  0.00000000000E+00 -0.00000000000E+00 -0.58856810485E+02  0.58856810485E+02  0.00000000000E+00 0.  1.
          2    1    1    2  502    0 -0.23330858887E+02  0.13975996710E+02 -0.35596129107E+02  0.44796672509E+02  0.00000000000E+00 0.  1.
         -2    1    1    2    0  502  0.23330858887E+02 -0.13975996710E+02 -0.87509613686E+01  0.28569857986E+02  0.00000000000E+00 0. -1.
<mgrwt>
<rscale>  2 0.27196644E+02</rscale>
<asrwt>0</asrwt>
<pdfrwt beam="2">  1        2 0.90548937E-02 0.27196644E+02</pdfrwt>
<pdfrwt beam="1">  1       -2 0.22322647E-02 0.27196644E+02</pdfrwt>
<totfact> 0.29262775E+05</totfact>
</mgrwt>
</event>
<event>
 4    1  0.1429937E+004  0.8578829E+02  0.7546771E-02  0.1313384E+00
         -2   -1    0    0    0  501 -0.00000000000E+00  0.00000000000E+00  0.63106406417E+02  0.63106406417E+02  0.00000000000E+00 0. -1.
          2   -1    0    0  501    0  0.00000000000E+00 -0.00000000000E+00 -0.56448936947E+03  0.56448936947E+03  0.00000000000E+00 0.  1.
          2    1    1    2  502    0 -0.10661717883E+02  0.85123195077E+02 -0.53020098106E+03  0.53709655639E+03  0.00000000000E+00 0.  1.
         -2    1    1    2    0  502  0.10661717883E+02 -0.85123195077E+02  0.28818018005E+02  0.90499219500E+02  0.00000000000E+00 0. -1.
<mgrwt>
<rscale>  2 0.85788289E+02</rscale>
<asrwt>0</asrwt>
<pdfrwt beam="2">  1        2 0.86844517E-01 0.85788289E+02</pdfrwt>
<pdfrwt beam="1">  1       -2 0.97086781E-02 0.85788289E+02</pdfrwt>
<totfact> 0.35850703E+03</totfact>
</mgrwt>
</event>
<event>
 4    1  0.1429937E+004  0.2776294E+02  0.7546771E-02  0.1624220E+00
         -2   -1    0    0    0  501 -0.00000000000E+00  0.00000000000E+00  0.10145097723E+04  0.10145097723E+04  0.00000000000E+00 0.  1.
          2   -1    0    0  501    0  0.00000000000E+00 -0.00000000000E+00 -0.37857445343E+01  0.37857445343E+01  0.00000000000E+00 0.  1.
          2    1    1    2  502    0  0.22915456267E+02 -0.15673624473E+02  0.50162520713E+02  0.57332879958E+02  0.00000000000E+00 0.  1.
         -2    1    1    2    0  502 -0.22915456267E+02  0.15673624473E+02  0.96056150709E+03  0.96096263691E+03  0.00000000000E+00 0.  1.
<mgrwt>
<rscale>  2 0.27762936E+02</rscale>
<asrwt>0</asrwt>
<pdfrwt beam="2">  1        2 0.58242304E-03 0.27762936E+02</pdfrwt>
<pdfrwt beam="1">  1       -2 0.15607821E+00 0.27762936E+02</pdfrwt>
<totfact> 0.64985353E+03</totfact>
</mgrwt>
</event>
<event>
 4    1  0.1429937E+004  0.2019949E+02  0.7546771E-02  0.1741390E+00
          2   -1    0    0  501    0  0.00000000000E+00  0.00000000000E+00  0.22441438689E+01  0.22441438689E+01  0.00000000000E+00 0.  1.
         -2   -1    0    0    0  501 -0.00000000000E+00 -0.00000000000E+00 -0.12693638580E+04  0.12693638580E+04  0.00000000000E+00 0. -1.
          2    1    1    2  502    0  0.11067170514E+01 -0.20169149340E+02 -0.45048909910E+02  0.49370271336E+02  0.00000000000E+00 0.  1.
         -2    1    1    2    0  502 -0.11067170514E+01  0.20169149340E+02 -0.12220708042E+04  0.12222377305E+04  0.00000000000E+00 0. -1.
<mgrwt>
<rscale>  2 0.20199490E+02</rscale>
<asrwt>0</asrwt>
<pdfrwt beam="1">  1        2 0.34525171E-03 0.20199490E+02</pdfrwt>
<pdfrwt beam="2">  1       -2 0.19528742E+00 0.20199490E+02</pdfrwt>
<totfact> 0.67877175E+03</totfact>
</mgrwt>
</event>
<event>
 4    1  0.1429937E+004  0.2068607E+02  0.7546771E-02  0.1732019E+00
          2   -1    0    0  501    0  0.00000000000E+00  0.00000000000E+00  0.48706763742E+03  0.48706763742E+03  0.00000000000E+00 0.  1.
         -2   -1    0    0    0  501 -0.00000000000E+00 -0.00000000000E+00 -0.27614757467E+01  0.27614757467E+01  0.00000000000E+00 0.  1.
          2    1    1    2  502    0  0.19905078636E+02  0.56303943837E+01  0.44439003959E+03  0.44487124068E+03  0.00000000000E+00 0.  1.
         -2    1    1    2    0  502 -0.19905078636E+02 -0.56303943837E+01  0.39916122082E+02  0.44957872486E+02  0.00000000000E+00 0.  1.
<mgrwt>
<rscale>  2 0.20686070E+02</rscale>
<asrwt>0</asrwt>
<pdfrwt beam="1">  1        2 0.74933414E-01 0.20686070E+02</pdfrwt>
<pdfrwt beam="2">  1       -2 0.42484281E-03 0.20686070E+02</pdfrwt>
<totfact> 0.28112325E+05</totfact>
</mgrwt>
</event>
<event>
 4    1  0.1429937E+004  0.2095769E+02  0.7546771E-02  0.1726928E+00
         -2   -1    0    0    0  501 -0.00000000000E+00  0.00000000000E+00  0.19328401796E+02  0.19328401796E+02  0.00000000000E+00 0.  1.
          2   -1    0    0  501    0  0.00000000000E+00 -0.00000000000E+00 -0.21072288281E+03  0.21072288281E+03  0.00000000000E+00 0. -1.
          2    1    1    2  502    0  0.16192451937E+02  0.13305239533E+02 -0.20434382437E+03  0.20541573323E+03  0.00000000000E+00 0. -1.
         -2    1    1    2    0  502 -0.16192451937E+02 -0.13305239533E+02  0.12949343351E+02  0.24635551384E+02  0.00000000000E+00 0.  1.
<mgrwt>
<rscale>  2 0.20957693E+02</rscale>
<asrwt>0</asrwt>
<pdfrwt beam="2">  1        2 0.32418906E-01 0.20957693E+02</pdfrwt>
<pdfrwt beam="1">  1       -2 0.29736002E-02 0.20957693E+02</pdfrwt>
<totfact> 0.46393354E+04</totfact>
</mgrwt>
</event>
<event>
 4    1  0.1429937E+004  0.2970567E+02  0.7546771E-02  0.1601365E+00
         -2   -1    0    0    0  501 -0.00000000000E+00  0.00000000000E+00  0.14205533166E+02  0.14205533166E+02  0.00000000000E+00 0. -1.
          2   -1    0    0  501    0  0.00000000000E+00 -0.00000000000E+00 -0.10641716895E+03  0.10641716895E+03  0.00000000000E+00 0.  1.
          2    1    1    2  502    0  0.19192073121E+02  0.22673571953E+02 -0.85018261356E+02  0.90058488216E+02  0.00000000000E+00 0.  1.
         -2    1    1    2    0  502 -0.19192073121E+02 -0.22673571953E+02 -0.71933744310E+01  0.30564213903E+02  0.00000000000E+00 0. -1.
<mgrwt>
<rscale>  2 0.29705665E+02</rscale>
<asrwt>0</asrwt>
<pdfrwt beam="2">  1        2 0.16371872E-01 0.29705665E+02</pdfrwt>
<pdfrwt beam="1">  1       -2 0.21854667E-02 0.29705665E+02</pdfrwt>
<totfact> 0.15741394E+05</totfact>
</mgrwt>
</event>
<event>
 4    1  0.1429937E+004  0.3041094E+02  0.7546771E-02  0.1593590E+00
         -2   -1    0    0    0  501 -0.00000000000E+00  0.00000000000E+00  0.10422791671E+01  0.10422791671E+01  0.00000000000E+00 0. -1.
          2   -1    0    0  501    0  0.00000000000E+00 -0.00000000000E+00 -0.21658244758E+04  0.21658244758E+04  0.00000000000E+00 0. -1.
          2    1    1    2  502    0  0.31004206798E+01  0.30252485479E+02 -0.19148125881E+04  0.19150540653E+04  0.00000000000E+00 0. -1.
         -2    1    1    2    0  502 -0.31004206798E+01 -0.30252485479E+02 -0.24996960857E+03  0.25181268970E+03  0.00000000000E+00 0. -1.
<mgrwt>
<rscale>  2 0.30410944E+02</rscale>
<asrwt>0</asrwt>
<pdfrwt beam="2">  1        2 0.33320199E+00 0.30410944E+02</pdfrwt>
<pdfrwt beam="1">  1       -2 0.16035149E-03 0.30410944E+02</pdfrwt>
<totfact> 0.13894654E+05</totfact>
</mgrwt>
</event>
<event>
 4    1  0.1429937E+004  0.3459736E+02  0.7546771E-02  0.1552205E+00
          2   -1    0    0  501    0  0.00000000000E+00  0.00000000000E+00  0.26038864986E+03  0.26038864986E+03  0.00000000000E+00 0. -1.
         -2   -1    0    0    0  501 -0.00000000000E+00 -0.00000000000E+00 -0.48326873399E+01  0.48326873399E+01  0.00000000000E+00 0.  1.
          2    1    1    2  502    0  0.32692918881E+02  0.11320359368E+02  0.15707040667E+03  0.16083559970E+03  0.00000000000E+00 0. -1.
         -2    1    1    2    0  502 -0.32692918881E+02 -0.11320359368E+02  0.98485555854E+02  0.10438573750E+03  0.00000000000E+00 0.  1.
<mgrwt>
<rscale>  2 0.34597362E+02</rscale>
<asrwt>0</asrwt>
<pdfrwt beam="1">  1        2 0.40059781E-01 0.34597362E+02</pdfrwt>
<pdfrwt beam="2">  1       -2 0.74349056E-03 0.34597362E+02</pdfrwt>
<totfact> 0.28205992E+05</totfact>
</mgrwt>
</event>
<event>
 4    1  0.1429937E+004  0.2204911E+02  0.7546771E-02  0.1707404E+00
         -2   -1    0    0    0  501 -0.00000000000E+00  0.00000000000E+00  0.52672351587E+01  0.52672351587E+01  0.00000000000E+00 0.  1.
          2   -1    0    0  501    0  0.00000000000E+00 -0.00000000000E+00 -0.33435465837E+03  0.33435465837E+03  0.00000000000E+00 0.  1.
          2    1    1    2  502    0 -0.45689069096E+00 -0.22044379115E+02 -0.30902750200E+03  0.30981310559E+03  0.00000000000E+00 0.  1.
         -2    1    1    2    0  502  0.45689069096E+00  0.22044379115E+02 -0.20059921211E+02  0.29808787944E+02  0.00000000000E+00 0.  1.
<mgrwt>
<rscale>  2 0.22049113E+02</rscale>
<asrwt>0</asrwt>
<pdfrwt beam="2">  1        2 0.51439186E-01 0.22049113E+02</pdfrwt>
<pdfrwt beam="1">  1       -2 0.81034375E-03 0.22049113E+02</pdfrwt>
<totfact> 0.17475381E+05</totfact>
</mgrwt>
</event>
<event>
 4    1  0.1429937E+004  0.3367568E+02  0.7546771E-02  0.1560685E+00
         -2   -1    0    0    0  501 -0.00000000000E+00  0.00000000000E+00  0.74447797150E+01  0.74447797150E+01  0.00000000000E+00 0.  1.
          2   -1    0    0  501    0  0.00000000000E+00 -0.00000000000E+00 -0.29992405711E+03  0.29992405711E+03  0.00000000000E+00 0. -1.
          2    1    1    2  502    0 -0.31713324040E+02  0.11327688969E+02 -0.25405011411E+03  0.25627233940E+03  0.00000000000E+00 0. -1.
         -2    1    1    2    0  502  0.31713324040E+02 -0.11327688969E+02 -0.38429163287E+02  0.51096497434E+02  0.00000000000E+00 0.  1.
<mgrwt>
<rscale>  2 0.33675681E+02</rscale>
<asrwt>0</asrwt>
<pdfrwt beam="2">  1        2 0.46142162E-01 0.33675681E+02</pdfrwt>
<pdfrwt beam="1">  1       -2 0.11453507E-02 0.33675681E+02</pdfrwt>
<totfact> 0.13447931E+05</totfact>
</mgrwt>
</event>
<event>
 4    1  0.1429937E+004  0.1247703E+03  0.7546771E-02  0.1235429E+00
         -2   -1    0    0    0  501 -0.00000000000E+00  0.00000000000E+00  0.12783933246E+02  0.12783933246E+02  0.00000000000E+00 0. -1.
          2   -1    0    0  501    0  0.00000000000E+00 -0.00000000000E+00 -0.33551846907E+04  0.33551846907E+04  0.00000000000E+00 0. -1.
          2    1    1    2  502    0 -0.92915402178E+02  0.83272836200E+02 -0.30152838256E+04  0.30178641762E+04  0.00000000000E+00 0. -1.
         -2    1    1    2    0  502  0.92915402178E+02 -0.83272836200E+02 -0.32711693188E+03  0.35010444775E+03  0.00000000000E+00 0. -1.
<mgrwt>
<rscale>  2 0.12477034E+03</rscale>
<asrwt>0</asrwt>
<pdfrwt beam="2">  1        2 0.51618202E+00 0.12477034E+03</pdfrwt>
<pdfrwt beam="1">  1       -2 0.19667599E-02 0.12477034E+03</pdfrwt>
<totfact> 0.10401897E+03</totfact>
</mgrwt>
</event>
<event>
 4    1  0.1429937E+004  0.2313444E+02  0.7546771E-02  0.1689340E+00
          2   -1    0    0  501    0  0.00000000000E+00  0.00000000000E+00  0.61590237790E+03  0.61590237790E+03  0.00000000000E+00 0.  1.
         -2   -1    0    0    0  501 -0.00000000000E+00 -0.00000000000E+00 -0.56857879996E+02  0.56857879996E+02  0.00000000000E+00 0.  1.
          2    1    1    2  502    0  0.15351497522E+02 -0.17307050948E+02  0.61332199077E+03  0.61375815013E+03  0.00000000000E+00 0.  1.
         -2    1    1    2    0  502 -0.15351497522E+02  0.17307050948E+02 -0.54277492868E+02  0.59002107765E+02  0.00000000000E+00 0.  1.
<mgrwt>
<rscale>  2 0.23134444E+02</rscale>
<asrwt>0</asrwt>
<pdfrwt beam="1">  1        2 0.94754207E-01 0.23134444E+02</pdfrwt>
<pdfrwt beam="2">  1       -2 0.87473666E-02 0.23134444E+02</pdfrwt>
<totfact> 0.34861212E+03</totfact>
</mgrwt>
</event>
<event>
 4    1  0.1429937E+004  0.2645993E+02  0.7546771E-02  0.1640877E+00
         -2   -1    0    0    0  501 -0.00000000000E+00  0.00000000000E+00  0.19381524687E+01  0.19381524687E+01  0.00000000000E+00 0.  1.
          2   -1    0    0  501    0  0.00000000000E+00 -0.00000000000E+00 -0.64401361235E+03  0.64401361235E+03  0.00000000000E+00 0. -1.
          2    1    1    2  502    0 -0.14417692599E+01 -0.26420616073E+02 -0.53505370301E+03  0.53570756272E+03  0.00000000000E+00 0. -1.
         -2    1    1    2    0  502  0.14417692599E+01  0.26420616073E+02 -0.10702175688E+03  0.11024420210E+03  0.00000000000E+00 0.  1.
<mgrwt>
<rscale>  2 0.26459925E+02</rscale>
<asrwt>0</asrwt>
<pdfrwt beam="2">  1        2 0.99079106E-01 0.26459925E+02</pdfrwt>
<pdfrwt beam="1">  1       -2 0.29817704E-03 0.26459925E+02</pdfrwt>
<totfact> 0.36134508E+05</totfact>
</mgrwt>
</event>
<event>
 4    1  0.1429937E+004  0.2319052E+02  0.7546771E-02  0.1688440E+00
         -2   -1    0    0    0  501 -0.00000000000E+00  0.00000000000E+00  0.13146119669E+01  0.13146119669E+01  0.00000000000E+00 0. -1.
          2   -1    0    0  501    0  0.00000000000E+00 -0.00000000000E+00 -0.41765895878E+03  0.41765895878E+03  0.00000000000E+00 0.  1.
          2    1    1    2  502    0  0.76654902482E+01  0.21886996080E+02 -0.23817065708E+03  0.23929701677E+03  0.00000000000E+00 0. -1.
         -2    1    1    2    0  502 -0.76654902482E+01 -0.21886996080E+02 -0.17817368972E+03  0.17967655397E+03  0.00000000000E+00 0.  1.
<mgrwt>
<rscale>  2 0.23190523E+02</rscale>
<asrwt>0</asrwt>
<pdfrwt beam="2">  1        2 0.64255340E-01 0.23190523E+02</pdfrwt>
<pdfrwt beam="1">  1       -2 0.20224763E-03 0.23190523E+02</pdfrwt>
<totfact> 0.90871374E+05</totfact>
</mgrwt>
</event>
<event>
 4    1  0.1429937E+004  0.4287972E+02  0.7546771E-02  0.1488029E+00
         -2   -1    0    0    0  501 -0.00000000000E+00  0.00000000000E+00  0.26854277949E+02  0.26854277949E+02  0.00000000000E+00 0. -1.
          2   -1    0    0  501    0  0.00000000000E+00 -0.00000000000E+00 -0.14118696859E+04  0.14118696859E+04  0.00000000000E+00 0. -1.
          2    1    1    2  502    0  0.31274954154E+02  0.29335093299E+02 -0.13942102441E+04  0.13948694832E+04  0.00000000000E+00 0. -1.
         -2    1    1    2    0  502 -0.31274954154E+02 -0.29335093299E+02  0.91948361828E+01  0.43854480599E+02  0.00000000000E+00 0. -1.
<mgrwt>
<rscale>  2 0.42879721E+02</rscale>
<asrwt>0</asrwt>
<pdfrwt beam="2">  1        2 0.21721067E+00 0.42879721E+02</pdfrwt>
<pdfrwt beam="1">  1       -2 0.41314284E-02 0.42879721E+02</pdfrwt>
<totfact> 0.37963395E+03</totfact>
</mgrwt>
</event>
<event>
 4    1  0.1429937E+004  0.3194964E+02  0.7546771E-02  0.1577487E+00
         -2   -1    0    0    0  501 -0.00000000000E+00  0.00000000000E+00  0.63917346430E+01  0.63917346430E+01  0.00000000000E+00 0.  1.
          2   -1    0    0  501    0  0.00000000000E+00 -0.00000000000E+00 -0.20726334088E+04  0.20726334088E+04  0.00000000000E+00 0.  1.
          2    1    1    2  502    0 -0.18410068334E+01  0.31896554585E+02 -0.20317818117E+04  0.20320329992E+04  0.00000000000E+00 0.  1.
         -2    1    1    2    0  502  0.18410068334E+01 -0.31896554585E+02 -0.34459862495E+02  0.46992144277E+02  0.00000000000E+00 0.  1.
<mgrwt>
<rscale>  2 0.31949640E+02</rscale>
<asrwt>0</asrwt>
<pdfrwt beam="2">  1        2 0.31886691E+00 0.31949640E+02</pdfrwt>
<pdfrwt beam="1">  1       -2 0.98334308E-03 0.31949640E+02</pdfrwt>
<totfact> 0.13353903E+04</totfact>
</mgrwt>
</event>
<event>
 4    1  0.1429937E+004  0.4096582E+02  0.7546771E-02  0.1501222E+00
         -2   -1    0    0    0  501 -0.00000000000E+00  0.00000000000E+00  0.17438658803E+01  0.17438658803E+01  0.00000000000E+00 0. -1.
          2   -1    0    0  501    0  0.00000000000E+00 -0.00000000000E+00 -0.21866055618E+04  0.21866055618E+04  0.00000000000E+00 0.  1.
          2    1    1    2  502    0 -0.21637369311E+02  0.34785380623E+02 -0.19111568789E+04  0.19115958815E+04  0.00000000000E+00 0.  1.
         -2    1    1    2    0  502  0.21637369311E+02 -0.34785380623E+02 -0.27370481704E+03  0.27675354619E+03  0.00000000000E+00 0. -1.
<mgrwt>
<rscale>  2 0.40965821E+02</rscale>
<asrwt>0</asrwt>
<pdfrwt beam="2">  1        2 0.33640215E+00 0.40965821E+02</pdfrwt>
<pdfrwt beam="1">  1       -2 0.26828603E-03 0.40965821E+02</pdfrwt>
<totfact> 0.70890359E+04</totfact>
</mgrwt>
</event>
<event>
 4    1  0.1429937E+004  0.3499655E+02  0.7546771E-02  0.1548631E+00
         -2   -1    0    0    0  501 -0.00000000000E+00  0.00000000000E+00  0.30127937623E+02  0.30127937623E+02  0.00000000000E+00 0. -1.
          2   -1    0    0  501    0  0.00000000000E+00 -0.00000000000E+00 -0.10397390038E+03  0.10397390038E+03  0.00000000000E+00 0. -1.
          2    1    1    2  502    0 -0.78669973030E+01 -0.34100864977E+02 -0.89249253625E+02  0.95865467774E+02  0.00000000000E+00 0. -1.
         -2    1    1    2    0  502  0.78669973030E+01  0.34100864977E+02  0.15403290868E+02  0.38236370230E+02  0.00000000000E+00 0. -1.
<mgrwt>
<rscale>  2 0.34996552E+02</rscale>
<asrwt>0</asrwt>
<pdfrwt beam="2">  1        2 0.15995985E-01 0.34996552E+02</pdfrwt>
<pdfrwt beam="1">  1       -2 0.46350673E-02 0.34996552E+02</pdfrwt>
<totfact> 0.57921856E+04</totfact>
</mgrwt>
</event>
<event>
 4    1  0.1429937E+004  0.2182617E+02  0.7546771E-02  0.1711276E+00
          2   -1    0    0  501    0  0.00000000000E+00  0.00000000000E+00  0.86378378945E+02  0.86378378945E+02  0.00000000000E+00 0. -1.
         -2   -1    0    0    0  501 -0.00000000000E+00 -0.00000000000E+00 -0.49405892780E+02  0.49405892780E+02  0.00000000000E+00 0. -1.
          2    1    1    2  502    0  0.21447770530E+02 -0.40465903148E+01  0.82476966110E+02  0.85316069369E+02  0.00000000000E+00 0. -1.
         -2    1    1    2    0  502 -0.21447770530E+02  0.40465903148E+01 -0.45504479946E+02  0.50468202356E+02  0.00000000000E+00 0. -1.
<mgrwt>
<rscale>  2 0.21826171E+02</rscale>
<asrwt>0</asrwt>
<pdfrwt beam="1">  1        2 0.13288981E-01 0.21826171E+02</pdfrwt>
<pdfrwt beam="2">  1       -2 0.76009066E-02 0.21826171E+02</pdfrwt>
<totfact> 0.31700938E+04</totfact>
</mgrwt>
</event>
<event>
 4    1  0.1429937E+004  0.2083354E+02  0.7546771E-02  0.1729243E+00
         -2   -1    0    0    0  501 -0.00000000000E+00  0.00000000000E+00  0.25113683570E+03  0.25113683570E+03  0.00000000000E+00 0. -1.
          2   -1    0    0  501    0  0.00000000000E+00 -0.00000000000E+00 -0.30712422653E+03  0.30712422653E+03  0.00000000000E+00 0. -1.
          2    1    1    2  502    0 -0.55293031394E+01  0.20086393303E+02 -0.30633774004E+03  0.30704535066E+03  0.00000000000E+00 0. -1.
         -2    1    1    2    0  502  0.55293031394E+01 -0.20086393303E+02  0.25035034922E+03  0.25121571157E+03  0.00000000000E+00 0. -1.
<mgrwt>
<rscale>  2 0.20833540E+02</rscale>
<asrwt>0</asrwt>
<pdfrwt beam="2">  1        2 0.47249881E-01 0.20833540E+02</pdfrwt>
<pdfrwt beam="1">  1       -2 0.38636436E-01 0.20833540E+02</pdfrwt>
<totfact> 0.63968296E+02</totfact>
</mgrwt>
</event>
<event>
 4    1  0.1429937E+004  0.2109246E+02  0.7546771E-02  0.1724437E+00
          2   -1    0    0  501    0  0.00000000000E+00  0.00000000000E+00  0.64668707459E+03  0.64668707459E+03  0.00000000000E+00 0. -1.
         -2   -1    0    0    0  501 -0.00000000000E+00 -0.00000000000E+00 -0.13962993590E+01  0.13962993590E+01  0.00000000000E+00 0. -1.
          2    1    1    2  502    0 -0.11358579748E+02  0.17772856833E+02  0.55344429875E+03  0.55384608295E+03  0.00000000000E+00 0. -1.
         -2    1    1    2    0  502  0.11358579748E+02 -0.17772856833E+02  0.91846476482E+02  0.94237291005E+02  0.00000000000E+00 0. -1.
<mgrwt>
<rscale>  2 0.21092458E+02</rscale>
<asrwt>0</asrwt>
<pdfrwt beam="1">  1        2 0.99490080E-01 0.21092458E+02</pdfrwt>
<pdfrwt beam="2">  1       -2 0.21481580E-03 0.21092458E+02</pdfrwt>
<totfact> 0.52237474E+05</totfact>
</mgrwt>
</event>
<event>
 4    1  0.1429937E+004  0.2025712E+02  0.7546771E-02  0.1740263E+00
         -2   -1    0    0    0  501 -0.00000000000E+00  0.00000000000E+00  0.43423575341E+01  0.43423575341E+01  0.00000000000E+00 0.  1.
          2   -1    0    0  501    0  0.00000000000E+00 -0.00000000000E+00 -0.21352296225E+03  0.21352296225E+03  0.00000000000E+00 0. -1.
          2    1    1    2  502    0  0.19476743599E+02 -0.55684190105E+01 -0.18592053495E+03  0.18702084415E+03  0.00000000000E+00 0. -1.
         -2    1    1    2    0  502 -0.19476743599E+02  0.55684190105E+01 -0.23260069769E+02  0.30844475634E+02  0.00000000000E+00 0.  1.
<mgrwt>
<rscale>  2 0.20257118E+02</rscale>
<asrwt>0</asrwt>
<pdfrwt beam="2">  1        2 0.32849691E-01 0.20257118E+02</pdfrwt>
<pdfrwt beam="1">  1       -2 0.66805492E-03 0.20257118E+02</pdfrwt>
<totfact> 0.34414941E+05</totfact>
</mgrwt>
</event>
<event>
 4    1  0.1429937E+004  0.3332651E+02  0.7546771E-02  0.1563984E+00
          2   -1    0    0  501    0  0.00000000000E+00  0.00000000000E+00  0.77770351882E+01  0.77770351882E+01  0.00000000000E+00 0. -1.
         -2   -1    0    0    0  501 -0.00000000000E+00 -0.00000000000E+00 -0.23320465869E+03  0.23320465869E+03  0.00000000000E+00 0. -1.
          2    1    1    2  502    0  0.32488994311E+02  0.74243750567E+01 -0.37698250477E+02  0.50317136101E+02  0.00000000000E+00 0. -1.
         -2    1    1    2    0  502 -0.32488994311E+02 -0.74243750567E+01 -0.18772937302E+03  0.19066455778E+03  0.00000000000E+00 0. -1.
<mgrwt>
<rscale>  2 0.33326507E+02</rscale>
<asrwt>0</asrwt>
<pdfrwt beam="1">  1        2 0.11964670E-02 0.33326507E+02</pdfrwt>
<pdfrwt beam="2">  1       -2 0.35877639E-01 0.33326507E+02</pdfrwt>
<totfact> 0.57616698E+04</totfact>
</mgrwt>
</event>
<event>
 4    1  0.1429937E+004  0.3124959E+02  0.7546771E-02  0.1584673E+00
         -2   -1    0    0    0  501 -0.00000000000E+00  0.00000000000E+00  0.45633748356E+02  0.45633748356E+02  0.00000000000E+00 0. -1.
          2   -1    0    0  501    0  0.00000000000E+00 -0.00000000000E+00 -0.22120533050E+02  0.22120533050E+02  0.00000000000E+00 0. -1.
          2    1    1    2  502    0  0.12377602625E+01  0.31225069485E+02  0.56401176978E+01  0.31754494838E+02  0.00000000000E+00 0. -1.
         -2    1    1    2    0  502 -0.12377602625E+01 -0.31225069485E+02  0.17873097609E+02  0.35999786568E+02  0.00000000000E+00 0. -1.
<mgrwt>
<rscale>  2 0.31249592E+02</rscale>
<asrwt>0</asrwt>
<pdfrwt beam="2">  1        2 0.34031589E-02 0.31249592E+02</pdfrwt>
<pdfrwt beam="1">  1       -2 0.70205767E-02 0.31249592E+02</pdfrwt>
<totfact> 0.19779018E+05</totfact>
</mgrwt>
</event>
<event>
 4    1  0.1429937E+004  0.2621163E+02  0.7546771E-02  0.1644185E+00
          2   -1    0    0  501    0  0.00000000000E+00  0.00000000000E+00  0.11246578696E+04  0.11246578696E+04  0.00000000000E+00 0.  1.
         -2   -1    0    0    0  501 -0.00000000000E+00 -0.00000000000E+00 -0.20231815516E+02  0.20231815516E+02  0.00000000000E+00 0. -1.
          2    1    1    2  502    0  0.25277462576E+02  0.69353690401E+01  0.11159491865E+04  0.11162569759E+04  0.00000000000E+00 0.  1.
         -2    1    1    2    0  502 -0.25277462576E+02 -0.69353690401E+01 -0.11523132376E+02  0.28632709228E+02  0.00000000000E+00 0. -1.
<mgrwt>
<rscale>  2 0.26211628E+02</rscale>
<asrwt>0</asrwt>
<pdfrwt beam="1">  1        2 0.17302424E+00 0.26211628E+02</pdfrwt>
<pdfrwt beam="2">  1       -2 0.31125879E-02 0.26211628E+02</pdfrwt>
<totfact> 0.76523292E+03</totfact>
</mgrwt>
</event>
<event>
 4    1  0.1429937E+004  0.2773044E+02  0.7546771E-02  0.1624622E+00
          2   -1    0    0  501    0  0.00000000000E+00  0.00000000000E+00  0.45771548921E+03  0.45771548921E+03  0.00000000000E+00 0.  1.
         -2   -1    0    0    0  501 -0.00000000000E+00 -0.00000000000E+00 -0.42173396005E+01  0.42173396005E+01  0.00000000000E+00 0. -1.
          2    1    1    2  502    0 -0.42264947618E+01  0.27406455642E+02  0.40589875231E+03  0.40684490190E+03  0.00000000000E+00 0.  1.
         -2    1    1    2    0  502  0.42264947618E+01 -0.27406455642E+02  0.47599397296E+02  0.55087926915E+02  0.00000000000E+00 0. -1.
<mgrwt>
<rscale>  2 0.27730436E+02</rscale>
<asrwt>0</asrwt>
<pdfrwt beam="1">  1        2 0.70417728E-01 0.27730436E+02</pdfrwt>
<pdfrwt beam="2">  1       -2 0.64882184E-03 0.27730436E+02</pdfrwt>
<totfact> 0.18284722E+05</totfact>
</mgrwt>
</event>
<event>
 4    1  0.1429937E+004  0.2177253E+02  0.7546771E-02  0.1712216E+00
         -2   -1    0    0    0  501 -0.00000000000E+00  0.00000000000E+00  0.63332706844E+02  0.63332706844E+02  0.00000000000E+00 0.  1.
          2   -1    0    0  501    0  0.00000000000E+00 -0.00000000000E+00 -0.27070870103E+02  0.27070870103E+02  0.00000000000E+00 0.  1.
          2    1    1    2  502    0  0.11228002898E+02 -0.18654083836E+02 -0.20317313216E+02  0.29779793639E+02  0.00000000000E+00 0.  1.
         -2    1    1    2    0  502 -0.11228002898E+02  0.18654083836E+02  0.56579149957E+02  0.60623783309E+02  0.00000000000E+00 0.  1.
<mgrwt>
<rscale>  2 0.21772526E+02</rscale>
<asrwt>0</asrwt>
<pdfrwt beam="2">  1        2 0.41647493E-02 0.21772526E+02</pdfrwt>
<pdfrwt beam="1">  1       -2 0.97434933E-02 0.21772526E+02</pdfrwt>
<totfact> 0.86389637E+04</totfact>
</mgrwt>
</event>
<event>
 4    1  0.1429937E+004  0.2452086E+02  0.7546771E-02  0.1667981E+00
         -2   -1    0    0    0  501 -0.00000000000E+00  0.00000000000E+00  0.32278655740E+02  0.32278655740E+02  0.00000000000E+00 0.  1.
          2   -1    0    0  501    0  0.00000000000E+00 -0.00000000000E+00 -0.12465831195E+03  0.12465831195E+03  0.00000000000E+00 0. -1.
          2    1    1    2  502    0 -0.23857553706E+02 -0.56647578206E+01 -0.11855849571E+03  0.12106770526E+03  0.00000000000E+00 0. -1.
         -2    1    1    2    0  502  0.23857553706E+02  0.56647578206E+01  0.26178839502E+02  0.35869262436E+02  0.00000000000E+00 0.  1.
<mgrwt>
<rscale>  2 0.24520855E+02</rscale>
<asrwt>0</asrwt>
<pdfrwt beam="2">  1        2 0.19178202E-01 0.24520855E+02</pdfrwt>
<pdfrwt beam="1">  1       -2 0.49659469E-02 0.24520855E+02</pdfrwt>
<totfact> 0.40156097E+04</totfact>
</mgrwt>
</event>
<event>
 4    1  0.1429937E+004  0.2590514E+02  0.7546771E-02  0.1648331E+00
         -2   -1    0    0    0  501 -0.00000000000E+00  0.00000000000E+00  0.10975591602E+04  0.10975591602E+04  0.00000000000E+00 0.  1.
          2   -1    0    0  501    0  0.00000000000E+00 -0.00000000000E+00 -0.36607526022E+01  0.36607526022E+01  0.00000000000E+00 0.  1.
          2    1    1    2  502    0 -0.17284050704E+02  0.19296059567E+02  0.44420545195E+02  0.51422379943E+02  0.00000000000E+00 0.  1.
         -2    1    1    2    0  502  0.17284050704E+02 -0.19296059567E+02  0.10494778624E+04  0.10497975328E+04  0.00000000000E+00 0.  1.
<mgrwt>
<rscale>  2 0.25905141E+02</rscale>
<asrwt>0</asrwt>
<pdfrwt beam="2">  1        2 0.56319358E-03 0.25905141E+02</pdfrwt>
<pdfrwt beam="1">  1       -2 0.16885499E+00 0.25905141E+02</pdfrwt>
<totfact> 0.54979390E+03</totfact>
</mgrwt>
</event>
<event>
 4    1  0.1429937E+004  0.4667026E+02  0.7546771E-02  0.1464176E+00
          2   -1    0    0  501    0  0.00000000000E+00  0.00000000000E+00  0.35427006458E+02  0.35427006458E+02  0.00000000000E+00 0. -1.
         -2   -1    0    0    0  501 -0.00000000000E+00 -0.00000000000E+00 -0.18855407416E+03  0.18855407416E+03  0.00000000000E+00 0.  1.
          2    1    1    2  502    0  0.42816952173E+02 -0.18569388496E+02  0.15373164537E+02  0.49137030541E+02  0.00000000000E+00 0. -1.
         -2    1    1    2    0  502 -0.42816952173E+02  0.18569388496E+02 -0.16850023224E+03  0.17484405007E+03  0.00000000000E+00 0.  1.
<mgrwt>
<rscale>  2 0.46670264E+02</rscale>
<asrwt>0</asrwt>
<pdfrwt beam="1">  1        2 0.54503086E-02 0.46670264E+02</pdfrwt>
<pdfrwt beam="2">  1       -2 0.29008320E-01 0.46670264E+02</pdfrwt>
<totfact> 0.12527568E+04</totfact>
</mgrwt>
</event>
<event>
 4    1  0.1429937E+004  0.2048635E+02  0.7546771E-02  0.1735826E+00
          2   -1    0    0  501    0  0.00000000000E+00  0.00000000000E+00  0.79832943924E+03  0.79832943924E+03  0.00000000000E+00 0.  1.
         -2   -1    0    0    0  501 -0.00000000000E+00 -0.00000000000E+00 -0.42464219957E+01  0.42464219957E+01  0.00000000000E+00 0.  1.
          2    1    1    2  502    0  0.16437380176E+02  0.12227138595E+02  0.77266911660E+03  0.77294065369E+03  0.00000000000E+00 0.  1.
         -2    1    1    2    0  502 -0.16437380176E+02 -0.12227138595E+02  0.21413900645E+02  0.29635207542E+02  0.00000000000E+00 0.  1.
<mgrwt>
<rscale>  2 0.20486346E+02</rscale>
<asrwt>0</asrwt>
<pdfrwt beam="1">  1        2 0.12281979E+00 0.20486346E+02</pdfrwt>
<pdfrwt beam="2">  1       -2 0.65329633E-03 0.20486346E+02</pdfrwt>
<totfact> 0.93984371E+04</totfact>
</mgrwt>
</event>
<event>
 4    1  0.1429937E+004  0.5670648E+02  0.7546771E-02  0.1412197E+00
         -2   -1    0    0    0  501 -0.00000000000E+00  0.00000000000E+00  0.98714398112E+00  0.98714398112E+00  0.00000000000E+00 0. -1.
          2   -1    0    0  501    0  0.00000000000E+00 -0.00000000000E+00 -0.32915715806E+04  0.32915715806E+04  0.00000000000E+00 0. -1.
          2    1    1    2  502    0 -0.28602325907E+01  0.56634301066E+02 -0.18127771048E+04  0.18136638213E+04  0.00000000000E+00 0. -1.
         -2    1    1    2    0  502  0.28602325907E+01 -0.56634301066E+02 -0.14778073319E+04  0.14788949033E+04  0.00000000000E+00 0. -1.
<mgrwt>
<rscale>  2 0.56706481E+02</rscale>
<asrwt>0</asrwt>
<pdfrwt beam="2">  1        2 0.50639684E+00 0.56706481E+02</pdfrwt>
<pdfrwt beam="1">  1       -2 0.15186794E-03 0.56706481E+02</pdfrwt>
<totfact> 0.40958977E+04</totfact>
</mgrwt>
</event>
<event>
 4    1  0.1429937E+004  0.2683010E+02  0.7546771E-02  0.1636027E+00
          2   -1    0    0  501    0  0.00000000000E+00  0.00000000000E+00  0.15442061883E+04  0.15442061883E+04  0.00000000000E+00 0. -1.
         -2   -1    0    0    0  501 -0.00000000000E+00 -0.00000000000E+00 -0.13276500223E+01  0.13276500223E+01  0.00000000000E+00 0. -1.
          2    1    1    2  502    0  0.63815837877E+01 -0.26060113920E+02  0.13939268673E+04  0.13941850542E+04  0.00000000000E+00 0. -1.
         -2    1    1    2    0  502 -0.63815837877E+01  0.26060113920E+02  0.14895167097E+03  0.15134878405E+03  0.00000000000E+00 0. -1.
<mgrwt>
<rscale>  2 0.26830098E+02</rscale>
<asrwt>0</asrwt>
<pdfrwt beam="1">  1        2 0.23756875E+00 0.26830098E+02</pdfrwt>
<pdfrwt beam="2">  1       -2 0.20425509E-03 0.26830098E+02</pdfrwt>
<totfact> 0.19325694E+05</totfact>
</mgrwt>
</event>
<event>
 4    1  0.1429937E+004  0.3124197E+02  0.7546771E-02  0.1584753E+00
          2   -1    0    0  501    0  0.00000000000E+00  0.00000000000E+00  0.10947525309E+03  0.10947525309E+03  0.00000000000E+00 0.  1.
         -2   -1    0    0    0  501 -0.00000000000E+00 -0.00000000000E+00 -0.16617955963E+02  0.16617955963E+02  0.00000000000E+00 0.  1.
          2    1    1    2  502    0  0.31237075908E+02  0.55299718987E+00  0.89350528062E+02  0.94655045201E+02  0.00000000000E+00 0.  1.
         -2    1    1    2    0  502 -0.31237075908E+02 -0.55299718987E+00  0.35067690662E+01  0.31438163853E+02  0.00000000000E+00 0.  1.
<mgrwt>
<rscale>  2 0.31241970E+02</rscale>
<asrwt>0</asrwt>
<pdfrwt beam="1">  1        2 0.16842346E-01 0.31241970E+02</pdfrwt>
<pdfrwt beam="2">  1       -2 0.25566087E-02 0.31241970E+02</pdfrwt>
<totfact> 0.12407813E+05</totfact>
</mgrwt>
</event>
<event>
 4    1  0.1429937E+004  0.2848203E+02  0.7546771E-02  0.1615500E+00
         -2   -1    0    0    0  501 -0.00000000000E+00  0.00000000000E+00  0.53110951676E+00  0.53110951676E+00  0.00000000000E+00 0. -1.
          2   -1    0    0  501    0  0.00000000000E+00 -0.00000000000E+00 -0.15552564183E+04  0.15552564183E+04  0.00000000000E+00 0. -1.
          2    1    1    2  502    0  0.13170742963E+02 -0.25253867816E+02 -0.88143623108E+03  0.88189628402E+03  0.00000000000E+00 0. -1.
         -2    1    1    2    0  502 -0.13170742963E+02  0.25253867816E+02 -0.67328907771E+03  0.67389124380E+03  0.00000000000E+00 0. -1.
<mgrwt>
<rscale>  2 0.28482035E+02</rscale>
<asrwt>0</asrwt>
<pdfrwt beam="2">  1        2 0.23927147E+00 0.28482035E+02</pdfrwt>
<pdfrwt beam="1">  1       -2 0.81708728E-04 0.28482035E+02</pdfrwt>
<totfact> 0.65364576E+05</totfact>
</mgrwt>
</event>
<event>
 4    1  0.1429937E+004  0.2502333E+02  0.7546771E-02  0.1660667E+00
         -2   -1    0    0    0  501 -0.00000000000E+00  0.00000000000E+00  0.23216626079E+01  0.23216626079E+01  0.00000000000E+00 0. -1.
          2   -1    0    0  501    0  0.00000000000E+00 -0.00000000000E+00 -0.36678696978E+03  0.36678696978E+03  0.00000000000E+00 0.  1.
          2    1    1    2  502    0  0.24133470276E+02  0.66138185417E+01 -0.27718018677E+03  0.27830742520E+03  0.00000000000E+00 0.  1.
         -2    1    1    2    0  502 -0.24133470276E+02 -0.66138185417E+01 -0.87285120402E+02  0.90801207188E+02  0.00000000000E+00 0. -1.
<mgrwt>
<rscale>  2 0.25023329E+02</rscale>
<asrwt>0</asrwt>
<pdfrwt beam="2">  1        2 0.56428775E-01 0.25023329E+02</pdfrwt>
<pdfrwt beam="1">  1       -2 0.35717880E-03 0.25023329E+02</pdfrwt>
<totfact> 0.49573493E+05</totfact>
</mgrwt>
</event>
<event>
 4    1  0.1429937E+004  0.4430337E+02  0.7546771E-02  0.1478738E+00
         -2   -1    0    0    0  501 -0.00000000000E+00  0.00000000000E+00  0.58928863178E+01  0.58928863178E+01  0.00000000000E+00 0. -1.
          2   -1    0    0  501    0  0.00000000000E+00 -0.00000000000E+00 -0.33383403568E+03  0.33383403568E+03  0.00000000000E+00 0. -1.
          2    1    1    2  502    0 -0.27704570820E+02 -0.34572324280E+02 -0.17205595165E+03  0.17766834087E+03  0.00000000000E+00 0. -1.
         -2    1    1    2    0  502  0.27704570820E+02  0.34572324280E+02 -0.15588519772E+03  0.16205858113E+03  0.00000000000E+00 0. -1.
<mgrwt>
<rscale>  2 0.44303373E+02</rscale>
<asrwt>0</asrwt>
<pdfrwt beam="2">  1        2 0.51359111E-01 0.44303373E+02</pdfrwt>
<pdfrwt beam="1">  1       -2 0.90659740E-03 0.44303373E+02</pdfrwt>
<totfact> 0.17657010E+05</totfact>
</mgrwt>
</event>
<event>
 4    1  0.1429937E+004  0.2072066E+02  0.7546771E-02  0.1731365E+00
          2   -1    0    0  501    0  0.00000000000E+00  0.00000000000E+00  0.34991129471E+03  0.34991129471E+03  0.00000000000E+00 0. -1.
         -2   -1    0    0    0  501 -0.00000000000E+00 -0.00000000000E+00 -0.13974482339E+01  0.13974482339E+01  0.00000000000E+00 0. -1.
          2    1    1    2  502    0 -0.20321573287E+02  0.40471454885E+01  0.23560072892E+03  0.23651014607E+03  0.00000000000E+00 0. -1.
         -2    1    1    2    0  502  0.20321573287E+02 -0.40471454885E+01  0.11291311755E+03  0.11479859687E+03  0.00000000000E+00 0. -1.
<mgrwt>
<rscale>  2 0.20720659E+02</rscale>
<asrwt>0</asrwt>
<pdfrwt beam="1">  1        2 0.53832437E-01 0.20720659E+02</pdfrwt>
<pdfrwt beam="2">  1       -2 0.21499232E-03 0.20720659E+02</pdfrwt>
<totfact> 0.96163556E+05</totfact>
</mgrwt>
</event>
<event>
 4    1  0.1429937E+004  0.4715414E+02  0.7546771E-02  0.1461325E+00
         -2   -1    0    0    0  501 -0.00000000000E+00  0.00000000000E+00  0.29194578023E+02  0.29194578023E+02  0.00000000000E+00 0.  1.
          2   -1    0    0  501    0  0.00000000000E+00 -0.00000000000E+00 -0.95798651824E+02  0.95798651824E+02  0.00000000000E+00 0.  1.
          2    1    1    2  502    0 -0.38569819214E+02  0.27127149093E+02 -0.61597195782E+02  0.77574014337E+02  0.00000000000E+00 0.  1.
         -2    1    1    2    0  502  0.38569819214E+02 -0.27127149093E+02 -0.50068780196E+01  0.47419215511E+02  0.00000000000E+00 0.  1.
<mgrwt>
<rscale>  2 0.47154143E+02</rscale>
<asrwt>0</asrwt>
<pdfrwt beam="2">  1        2 0.14738254E-01 0.47154143E+02</pdfrwt>
<pdfrwt beam="1">  1       -2 0.44914736E-02 0.47154143E+02</pdfrwt>
<totfact> 0.70233118E+04</totfact>
</mgrwt>
</event>
<event>
 4    1  0.1429937E+004  0.2451928E+02  0.7546771E-02  0.1668004E+00
         -2   -1    0    0    0  501 -0.00000000000E+00  0.00000000000E+00  0.15689831433E+01  0.15689831433E+01  0.00000000000E+00 0.  1.
          2   -1    0    0  501    0  0.00000000000E+00 -0.00000000000E+00 -0.48645198956E+03  0.48645198956E+03  0.00000000000E+00 0.  1.
          2    1    1    2  502    0 -0.12295295348E+02  0.21213688062E+02 -0.35487368581E+03  0.35571973199E+03  0.00000000000E+00 0.  1.
         -2    1    1    2    0  502  0.12295295348E+02 -0.21213688062E+02 -0.13000932061E+03  0.13230124071E+03  0.00000000000E+00 0.  1.
<mgrwt>
<rscale>  2 0.24519275E+02</rscale>
<asrwt>0</asrwt>
<pdfrwt beam="2">  1        2 0.74838817E-01 0.24519275E+02</pdfrwt>
<pdfrwt beam="1">  1       -2 0.24138186E-03 0.24519275E+02</pdfrwt>
<totfact> 0.62737633E+05</totfact>
</mgrwt>
</event>
<event>
 4    1  0.1429937E+004  0.3713227E+02  0.7546771E-02  0.1530442E+00
          2   -1    0    0  501    0  0.00000000000E+00  0.00000000000E+00  0.56971894435E+02  0.56971894435E+02  0.00000000000E+00 0.  1.
         -2   -1    0    0    0  501 -0.00000000000E+00 -0.00000000000E+00 -0.40433860503E+02  0.40433860503E+02  0.00000000000E+00 0. -1.
          2    1    1    2  502    0  0.33263200384E+02 -0.16503483503E+02  0.39127375301E+02  0.53942163151E+02  0.00000000000E+00 0.  1.
         -2    1    1    2    0  502 -0.33263200384E+02  0.16503483503E+02 -0.22589341369E+02  0.43463591786E+02  0.00000000000E+00 0. -1.
<mgrwt>
<rscale>  2 0.37132270E+02</rscale>
<asrwt>0</asrwt>
<pdfrwt beam="1">  1        2 0.87649069E-02 0.37132270E+02</pdfrwt>
<pdfrwt beam="2">  1       -2 0.62205939E-02 0.37132270E+02</pdfrwt>
<totfact> 0.76408748E+04</totfact>
</mgrwt>
</event>
<event>
 4    1  0.1429937E+004  0.2122676E+02  0.7546771E-02  0.1721978E+00
          2   -1    0    0  501    0  0.00000000000E+00  0.00000000000E+00  0.13732221960E+04  0.13732221960E+04  0.00000000000E+00 0. -1.
         -2   -1    0    0    0  501 -0.00000000000E+00 -0.00000000000E+00 -0.14952198176E+01  0.14952198176E+01  0.00000000000E+00 0. -1.
          2    1    1    2  502    0  0.65478940400E+01  0.20191593712E+02  0.12931390019E+04  0.12933132078E+04  0.00000000000E+00 0. -1.
         -2    1    1    2    0  502 -0.65478940400E+01 -0.20191593712E+02  0.78587974377E+02  0.81404208058E+02  0.00000000000E+00 0. -1.
<mgrwt>
<rscale>  2 0.21226761E+02</rscale>
<asrwt>0</asrwt>
<pdfrwt beam="1">  1        2 0.21126394E+00 0.21226761E+02</pdfrwt>
<pdfrwt beam="2">  1       -2 0.23003492E-03 0.21226761E+02</pdfrwt>
<totfact> 0.18912520E+05</totfact>
</mgrwt>
</event>
<event>
 4    1  0.1429937E+004  0.2233452E+02  0.7546771E-02  0.1702530E+00
          2   -1    0    0  501    0  0.00000000000E+00  0.00000000000E+00  0.78726258823E+03  0.78726258823E+03  0.00000000000E+00 0.  1.
         -2   -1    0    0    0  501 -0.00000000000E+00 -0.00000000000E+00 -0.24710679674E+01  0.24710679674E+01  0.00000000000E+00 0.  1.
          2    1    1    2  502    0 -0.17825414185E+02 -0.13456800248E+02  0.73289409972E+03  0.73323433653E+03  0.00000000000E+00 0.  1.
         -2    1    1    2    0  502  0.17825414185E+02  0.13456800248E+02  0.51897420543E+02  0.56499319666E+02  0.00000000000E+00 0.  1.
<mgrwt>
<rscale>  2 0.22334522E+02</rscale>
<asrwt>0</asrwt>
<pdfrwt beam="1">  1        2 0.12111712E+00 0.22334522E+02</pdfrwt>
<pdfrwt beam="2">  1       -2 0.38016493E-03 0.22334522E+02</pdfrwt>
<totfact> 0.20079243E+05</totfact>
</mgrwt>
</event>
<event>
 4    1  0.1429937E+004  0.2589050E+02  0.7546771E-02  0.1648531E+00
         -2   -1    0    0    0  501 -0.00000000000E+00  0.00000000000E+00  0.18860698344E+02  0.18860698344E+02  0.00000000000E+00 0. -1.
          2   -1    0    0  501    0  0.00000000000E+00 -0.00000000000E+00 -0.49525826784E+02  0.49525826784E+02  0.00000000000E+00 0. -1.
          2    1    1    2  502    0 -0.24876845451E+02 -0.71735969101E+01 -0.33502842297E+02  0.42340977483E+02  0.00000000000E+00 0. -1.
         -2    1    1    2    0  502  0.24876845451E+02  0.71735969101E+01  0.28377138566E+01  0.26045547645E+02  0.00000000000E+00 0. -1.
<mgrwt>
<rscale>  2 0.25890499E+02</rscale>
<asrwt>0</asrwt>
<pdfrwt beam="2">  1        2 0.76193578E-02 0.25890499E+02</pdfrwt>
<pdfrwt beam="1">  1       -2 0.29016460E-02 0.25890499E+02</pdfrwt>
<totfact> 0.24583658E+05</totfact>
</mgrwt>
</event>
<event>
 4    1  0.1429937E+004  0.8018151E+02  0.7546771E-02  0.1328537E+00
         -2   -1    0    0    0  501 -0.00000000000E+00  0.00000000000E+00  0.24958761743E+01  0.24958761743E+01  0.00000000000E+00 0.  1.
          2   -1    0    0  501    0  0.00000000000E+00 -0.00000000000E+00 -0.37073905263E+04  0.37073905263E+04  0.00000000000E+00 0.  1.
          2    1    1    2  502    0 -0.38277081644E+02  0.70455225356E+02 -0.28772164601E+04  0.28783334817E+04  0.00000000000E+00 0.  1.
         -2    1    1    2    0  502  0.38277081644E+02 -0.70455225356E+02 -0.82767819000E+03  0.83155292073E+03  0.00000000000E+00 0.  1.
<mgrwt>
<rscale>  2 0.80181505E+02</rscale>
<asrwt>0</asrwt>
<pdfrwt beam="2">  1        2 0.57036232E+00 0.80181505E+02</pdfrwt>
<pdfrwt beam="1">  1       -2 0.38398462E-03 0.80181505E+02</pdfrwt>
<totfact> 0.63109284E+03</totfact>
</mgrwt>
</event>
<event>
 4    1  0.1429937E+004  0.2750546E+02  0.7546771E-02  0.1627421E+00
         -2   -1    0    0    0  501 -0.00000000000E+00  0.00000000000E+00  0.12534893904E+02  0.12534893904E+02  0.00000000000E+00 0.  1.
          2   -1    0    0  501    0  0.00000000000E+00 -0.00000000000E+00 -0.35896661995E+03  0.35896661995E+03  0.00000000000E+00 0.  1.
          2    1    1    2  502    0  0.26140643819E+02 -0.85567111269E+01 -0.34263267398E+03  0.34373492672E+03  0.00000000000E+00 0.  1.
         -2    1    1    2    0  502 -0.26140643819E+02  0.85567111269E+01 -0.37990520619E+01  0.27766587136E+02  0.00000000000E+00 0.  1.
<mgrwt>
<rscale>  2 0.27505464E+02</rscale>
<asrwt>0</asrwt>
<pdfrwt beam="2">  1        2 0.55225647E-01 0.27505464E+02</pdfrwt>
<pdfrwt beam="1">  1       -2 0.19284448E-02 0.27505464E+02</pdfrwt>
<totfact> 0.52596156E+04</totfact>
</mgrwt>
</event>
<event>
 4    1  0.1429937E+004  0.3396196E+02  0.7546771E-02  0.1558017E+00
         -2   -1    0    0    0  501 -0.00000000000E+00  0.00000000000E+00  0.14525118554E+01  0.14525118554E+01  0.00000000000E+00 0.  1.
          2   -1    0    0  501    0  0.00000000000E+00 -0.00000000000E+00 -0.80317988560E+03  0.80317988560E+03  0.00000000000E+00 0.  1.
          2    1    1    2  502    0  0.32005166776E+02  0.11361523954E+02 -0.44367989567E+03  0.44497782501E+03  0.00000000000E+00 0.  1.
         -2    1    1    2    0  502 -0.32005166776E+02 -0.11361523954E+02 -0.35804747808E+03  0.35965457245E+03  0.00000000000E+00 0.  1.
<mgrwt>
<rscale>  2 0.33961963E+02</rscale>
<asrwt>0</asrwt>
<pdfrwt beam="2">  1        2 0.12356636E+00 0.33961963E+02</pdfrwt>
<pdfrwt beam="1">  1       -2 0.22346295E-03 0.33961963E+02</pdfrwt>
<totfact> 0.44321633E+05</totfact>
</mgrwt>
</event>
<event>
 4    1  0.1429937E+004  0.2228340E+02  0.7546771E-02  0.1703396E+00
         -2   -1    0    0    0  501 -0.00000000000E+00  0.00000000000E+00  0.63080300195E+02  0.63080300195E+02  0.00000000000E+00 0.  1.
          2   -1    0    0  501    0  0.00000000000E+00 -0.00000000000E+00 -0.78862861807E+01  0.78862861807E+01  0.00000000000E+00 0.  1.
          2    1    1    2  502    0  0.14959911254E+02  0.16515161858E+02  0.29122757957E+02  0.36669940645E+02  0.00000000000E+00 0.  1.
         -2    1    1    2    0  502 -0.14959911254E+02 -0.16515161858E+02  0.26071256057E+02  0.34296645730E+02  0.00000000000E+00 0.  1.
<mgrwt>
<rscale>  2 0.22283402E+02</rscale>
<asrwt>0</asrwt>
<pdfrwt beam="2">  1        2 0.12132748E-02 0.22283402E+02</pdfrwt>
<pdfrwt beam="1">  1       -2 0.97046612E-02 0.22283402E+02</pdfrwt>
<totfact> 0.41928689E+05</totfact>
</mgrwt>
</event>
<event>
 4    1  0.1429937E+004  0.2615540E+02  0.7546771E-02  0.1644940E+00
         -2   -1    0    0    0  501 -0.00000000000E+00  0.00000000000E+00  0.12018219466E+02  0.12018219466E+02  0.00000000000E+00 0. -1.
          2   -1    0    0  501    0  0.00000000000E+00 -0.00000000000E+00 -0.23961903274E+03  0.23961903274E+03  0.00000000000E+00 0.  1.
          2    1    1    2  502    0  0.11339563653E+02  0.23569460331E+02 -0.22366294446E+03  0.22518707309E+03  0.00000000000E+00 0.  1.
         -2    1    1    2    0  502 -0.11339563653E+02 -0.23569460331E+02 -0.39378688123E+01  0.26450179109E+02  0.00000000000E+00 0. -1.
<mgrwt>
<rscale>  2 0.26155404E+02</rscale>
<asrwt>0</asrwt>
<pdfrwt beam="2">  1        2 0.36864466E-01 0.26155404E+02</pdfrwt>
<pdfrwt beam="1">  1       -2 0.18489568E-02 0.26155404E+02</pdfrwt>
<totfact> 0.82452754E+04</totfact>
</mgrwt>
</event>
<event>
 4    1  0.1429937E+004  0.4287180E+02  0.7546771E-02  0.1488082E+00
         -2   -1    0    0    0  501 -0.00000000000E+00  0.00000000000E+00  0.15725258775E+02  0.15725258775E+02  0.00000000000E+00 0. -1.
          2   -1    0    0  501    0  0.00000000000E+00 -0.00000000000E+00 -0.10560002664E+04  0.10560002664E+04  0.00000000000E+00 0. -1.
          2    1    1    2  502    0  0.33642019516E+02 -0.26574539862E+02 -0.10254753526E+04  0.10263711270E+04  0.00000000000E+00 0. -1.
         -2    1    1    2    0  502 -0.33642019516E+02  0.26574539862E+02 -0.14799655113E+02  0.45354398215E+02  0.00000000000E+00 0. -1.
<mgrwt>
<rscale>  2 0.42871805E+02</rscale>
<asrwt>0</asrwt>
<pdfrwt beam="2">  1        2 0.16246161E+00 0.42871805E+02</pdfrwt>
<pdfrwt beam="1">  1       -2 0.24192701E-02 0.42871805E+02</pdfrwt>
<totfact> 0.12442999E+04</totfact>
</mgrwt>
</event>
<event>
 4    1  0.1429937E+004  0.2579052E+02  0.7546771E-02  0.1649900E+00
         -2   -1    0    0    0  501 -0.00000000000E+00  0.00000000000E+00  0.68134371639E+01  0.68134371639E+01  0.00000000000E+00 0. -1.
          2   -1    0    0  501    0  0.00000000000E+00 -0.00000000000E+00 -0.20897450677E+03  0.20897450677E+03  0.00000000000E+00 0.  1.
          2    1    1    2  502    0 -0.25785891786E+02  0.48838375870E+00 -0.17983910875E+03  0.18167899100E+03  0.00000000000E+00 0.  1.
         -2    1    1    2    0  502  0.25785891786E+02 -0.48838375870E+00 -0.22321960852E+02  0.34108952933E+02  0.00000000000E+00 0. -1.
<mgrwt>
<rscale>  2 0.25790516E+02</rscale>
<asrwt>0</asrwt>
<pdfrwt beam="2">  1        2 0.32149925E-01 0.25790516E+02</pdfrwt>
<pdfrwt beam="1">  1       -2 0.10482211E-02 0.25790516E+02</pdfrwt>
<totfact> 0.20491580E+05</totfact>
</mgrwt>
</event>
<event>
 4    1  0.1429937E+004  0.4586721E+02  0.7546771E-02  0.1468999E+00
         -2   -1    0    0    0  501 -0.00000000000E+00  0.00000000000E+00  0.28112542830E+02  0.28112542830E+02  0.00000000000E+00 0.  1.
          2   -1    0    0  501    0  0.00000000000E+00 -0.00000000000E+00 -0.49515069566E+03  0.49515069566E+03  0.00000000000E+00 0. -1.
          2    1    1    2  502    0  0.35956475815E+02 -0.28476874255E+02 -0.47457031431E+03  0.47678169401E+03  0.00000000000E+00 0. -1.
         -2    1    1    2    0  502 -0.35956475815E+02  0.28476874255E+02  0.75321614815E+01  0.46481544477E+02  0.00000000000E+00 0.  1.
<mgrwt>
<rscale>  2 0.45867205E+02</rscale>
<asrwt>0</asrwt>
<pdfrwt beam="2">  1        2 0.76177030E-01 0.45867205E+02</pdfrwt>
<pdfrwt beam="1">  1       -2 0.43250066E-02 0.45867205E+02</pdfrwt>
<totfact> 0.13119961E+04</totfact>
</mgrwt>
</event>
<event>
 4    1  0.1429937E+004  0.2633204E+02  0.7546771E-02  0.1642575E+00
          2   -1    0    0  501    0  0.00000000000E+00  0.00000000000E+00  0.34981239780E+03  0.34981239780E+03  0.00000000000E+00 0.  1.
         -2   -1    0    0    0  501 -0.00000000000E+00 -0.00000000000E+00 -0.32262665460E+01  0.32262665460E+01  0.00000000000E+00 0.  1.
          2    1    1    2  502    0 -0.20422817934E+02  0.16621823847E+02  0.28290926596E+03  0.28413206311E+03  0.00000000000E+00 0.  1.
         -2    1    1    2    0  502  0.20422817934E+02 -0.16621823847E+02  0.63676865293E+02  0.68906601236E+02  0.00000000000E+00 0.  1.
<mgrwt>
<rscale>  2 0.26332044E+02</rscale>
<asrwt>0</asrwt>
<pdfrwt beam="1">  1        2 0.53817262E-01 0.26332044E+02</pdfrwt>
<pdfrwt beam="2">  1       -2 0.49634898E-03 0.26332044E+02</pdfrwt>
<totfact> 0.33884069E+05</totfact>
</mgrwt>
</event>
<event>
 4    1  0.1429937E+004  0.2245888E+02  0.7546771E-02  0.1700435E+00
          2   -1    0    0  501    0  0.00000000000E+00  0.00000000000E+00  0.59707873165E+03  0.59707873165E+03  0.00000000000E+00 0. -1.
         -2   -1    0    0    0  501 -0.00000000000E+00 -0.00000000000E+00 -0.13492329593E+01  0.13492329593E+01  0.00000000000E+00 0.  1.
          2    1    1    2  502    0  0.28435643585E+01  0.22278137415E+02  0.48082129917E+03  0.48134553390E+03  0.00000000000E+00 0. -1.
         -2    1    1    2    0  502 -0.28435643585E+01 -0.22278137415E+02  0.11490819952E+03  0.11708243072E+03  0.00000000000E+00 0.  1.
<mgrwt>
<rscale>  2 0.22458879E+02</rscale>
<asrwt>0</asrwt>
<pdfrwt beam="1">  1        2 0.91858055E-01 0.22458879E+02</pdfrwt>
<pdfrwt beam="2">  1       -2 0.20757478E-03 0.22458879E+02</pdfrwt>
<totfact> 0.60551367E+05</totfact>
</mgrwt>
</event>
<event>
 4    1  0.1429937E+004  0.2780097E+02  0.7546771E-02  0.1623751E+00
         -2   -1    0    0    0  501 -0.00000000000E+00  0.00000000000E+00  0.96681415196E+01  0.96681415196E+01  0.00000000000E+00 0. -1.
          2   -1    0    0  501    0  0.00000000000E+00 -0.00000000000E+00 -0.18110168627E+03  0.18110168627E+03  0.00000000000E+00 0. -1.
          2    1    1    2  502    0  0.18453298633E+02 -0.20793507165E+02 -0.15700558517E+03  0.15944794744E+03  0.00000000000E+00 0. -1.
         -2    1    1    2    0  502 -0.18453298633E+02  0.20793507165E+02 -0.14427959584E+02  0.31321880346E+02  0.00000000000E+00 0. -1.
<mgrwt>
<rscale>  2 0.27800974E+02</rscale>
<asrwt>0</asrwt>
<pdfrwt beam="2">  1        2 0.27861797E-01 0.27800974E+02</pdfrwt>
<pdfrwt beam="1">  1       -2 0.14874064E-02 0.27800974E+02</pdfrwt>
<totfact> 0.14979712E+05</totfact>
</mgrwt>
</event>
<event>
 4    1  0.1429937E+004  0.2183429E+02  0.7546771E-02  0.1711134E+00
          2   -1    0    0  501    0  0.00000000000E+00  0.00000000000E+00  0.90895045369E+03  0.90895045369E+03  0.00000000000E+00 0. -1.
         -2   -1    0    0    0  501 -0.00000000000E+00 -0.00000000000E+00 -0.65653194779E+00  0.65653194779E+00  0.00000000000E+00 0. -1.
          2    1    1    2  502    0  0.16711987557E+01 -0.21770234716E+02  0.65810965134E+03  0.65847175278E+03  0.00000000000E+00 0. -1.
         -2    1    1    2    0  502 -0.16711987557E+01  0.21770234716E+02  0.25018427040E+03  0.25113523286E+03  0.00000000000E+00 0. -1.
<mgrwt>
<rscale>  2 0.21834286E+02</rscale>
<asrwt>0</asrwt>
<pdfrwt beam="1">  1        2 0.13983753E+00 0.21834286E+02</pdfrwt>
<pdfrwt beam="2">  1       -2 0.10100564E-03 0.21834286E+02</pdfrwt>
<totfact> 0.97588058E+05</totfact>
</mgrwt>
</event>
<event>
 4    1  0.1429937E+004  0.2185872E+02  0.7546771E-02  0.1710707E+00
         -2   -1    0    0    0  501 -0.00000000000E+00  0.00000000000E+00  0.37385063912E+03  0.37385063912E+03  0.00000000000E+00 0. -1.
          2   -1    0    0  501    0  0.00000000000E+00 -0.00000000000E+00 -0.21224142307E+02  0.21224142307E+02  0.00000000000E+00 0. -1.
          2    1    1    2  502    0 -0.26468938367E+01  0.21697873755E+02 -0.15184219240E+02  0.26615113871E+02  0.00000000000E+00 0. -1.
         -2    1    1    2    0  502  0.26468938367E+01 -0.21697873755E+02  0.36781071606E+03  0.36845966756E+03  0.00000000000E+00 0. -1.
<mgrwt>
<rscale>  2 0.21858723E+02</rscale>
<asrwt>0</asrwt>
<pdfrwt beam="2">  1        2 0.32652529E-02 0.21858723E+02</pdfrwt>
<pdfrwt beam="1">  1       -2 0.57515478E-01 0.21858723E+02</pdfrwt>
<totfact> 0.60077850E+03</totfact>
</mgrwt>
</event>
<event>
 4    1  0.1429937E+004  0.2181217E+02  0.7546771E-02  0.1711521E+00
         -2   -1    0    0    0  501 -0.00000000000E+00  0.00000000000E+00  0.18958073761E+03  0.18958073761E+03  0.00000000000E+00 0.  1.
          2   -1    0    0  501    0  0.00000000000E+00 -0.00000000000E+00 -0.50120435322E+02  0.50120435322E+02  0.00000000000E+00 0.  1.
          2    1    1    2  502    0 -0.19729084776E+02  0.93023582136E+01 -0.47081368778E+02  0.51888591622E+02  0.00000000000E+00 0.  1.
         -2    1    1    2    0  502  0.19729084776E+02 -0.93023582136E+01  0.18654167106E+03  0.18781258131E+03  0.00000000000E+00 0.  1.
<mgrwt>
<rscale>  2 0.21812168E+02</rscale>
<asrwt>0</asrwt>
<pdfrwt beam="2">  1        2 0.77108363E-02 0.21812168E+02</pdfrwt>
<pdfrwt beam="1">  1       -2 0.29166267E-01 0.21812168E+02</pdfrwt>
<totfact> 0.72688394E+03</totfact>
</mgrwt>
</event>
<event>
 4    1  0.1429937E+004  0.4092798E+02  0.7546771E-02  0.1501491E+00
         -2   -1    0    0    0  501 -0.00000000000E+00  0.00000000000E+00  0.58665861470E+02  0.58665861470E+02  0.00000000000E+00 0.  1.
          2   -1    0    0  501    0  0.00000000000E+00 -0.00000000000E+00 -0.16271696267E+03  0.16271696267E+03  0.00000000000E+00 0. -1.
          2    1    1    2  502    0 -0.16335900259E+02  0.37526494597E+02 -0.15253689700E+03  0.15793227783E+03  0.00000000000E+00 0. -1.
         -2    1    1    2    0  502  0.16335900259E+02 -0.37526494597E+02  0.48485795795E+02  0.63450546317E+02  0.00000000000E+00 0.  1.
<mgrwt>
<rscale>  2 0.40927979E+02</rscale>
<asrwt>0</asrwt>
<pdfrwt beam="2">  1        2 0.25033379E-01 0.40927979E+02</pdfrwt>
<pdfrwt beam="1">  1       -2 0.90255173E-02 0.40927979E+02</pdfrwt>
<totfact> 0.13745137E+04</totfact>
</mgrwt>
</event>
<event>
 4    1  0.1429937E+004  0.2625263E+02  0.7546771E-02  0.1643636E+00
          2   -1    0    0  501    0  0.00000000000E+00  0.00000000000E+00  0.17273968783E+04  0.17273968783E+04  0.00000000000E+00 0. -1.
         -2   -1    0    0    0  501 -0.00000000000E+00 -0.00000000000E+00 -0.38699715336E+01  0.38699715336E+01  0.00000000000E+00 0.  1.
          2    1    1    2  502    0 -0.59229844605E+01  0.25575743625E+02  0.16815613112E+04  0.16817662274E+04  0.00000000000E+00 0. -1.
         -2    1    1    2    0  502  0.59229844605E+01 -0.25575743625E+02  0.41965595567E+02  0.49500622402E+02  0.00000000000E+00 0.  1.
<mgrwt>
<rscale>  2 0.26252627E+02</rscale>
<asrwt>0</asrwt>
<pdfrwt beam="1">  1        2 0.26575275E+00 0.26252627E+02</pdfrwt>
<pdfrwt beam="2">  1       -2 0.59538162E-03 0.26252627E+02</pdfrwt>
<totfact> 0.37593947E+04</totfact>
</mgrwt>
</event>
<event>
 4    1  0.1429937E+004  0.7265906E+02  0.7546771E-02  0.1351277E+00
         -2   -1    0    0    0  501 -0.00000000000E+00  0.00000000000E+00  0.79572598913E+01  0.79572598913E+01  0.00000000000E+00 0. -1.
          2   -1    0    0  501    0  0.00000000000E+00 -0.00000000000E+00 -0.74119764555E+03  0.74119764555E+03  0.00000000000E+00 0. -1.
          2    1    1    2  502    0 -0.12406044782E+02  0.71592105108E+02 -0.48792688394E+03  0.49330718982E+03  0.00000000000E+00 0. -1.
         -2    1    1    2    0  502  0.12406044782E+02 -0.71592105108E+02 -0.24531350172E+03  0.25584771562E+03  0.00000000000E+00 0. -1.
<mgrwt>
<rscale>  2 0.72659063E+02</rscale>
<asrwt>0</asrwt>
<pdfrwt beam="2">  1        2 0.11403042E+00 0.72659063E+02</pdfrwt>
<pdfrwt beam="1">  1       -2 0.12241936E-02 0.72659063E+02</pdfrwt>
<totfact> 0.53700720E+04</totfact>
</mgrwt>
</event>
<event>
 4    1  0.1429937E+004  0.1267608E+03  0.7546771E-02  0.1232343E+00
         -2   -1    0    0    0  501 -0.00000000000E+00  0.00000000000E+00  0.15164915719E+03  0.15164915719E+03  0.00000000000E+00 0.  1.
          2   -1    0    0  501    0  0.00000000000E+00 -0.00000000000E+00 -0.20398407871E+03  0.20398407871E+03  0.00000000000E+00 0. -1.
          2    1    1    2  502    0  0.12627504185E+03 -0.11087075867E+02 -0.14943449656E+03  0.19595657225E+03  0.00000000000E+00 0. -1.
         -2    1    1    2    0  502 -0.12627504185E+03  0.11087075867E+02  0.97099575035E+02  0.15967666366E+03  0.00000000000E+00 0.  1.
<mgrwt>
<rscale>  2 0.12676084E+03</rscale>
<asrwt>0</asrwt>
<pdfrwt beam="2">  1        2 0.31382166E-01 0.12676084E+03</pdfrwt>
<pdfrwt beam="1">  1       -2 0.23330640E-01 0.12676084E+03</pdfrwt>
<totfact> 0.25888323E+03</totfact>
</mgrwt>
</event>
<event>
 4    1  0.1429937E+004  0.3747746E+02  0.7546771E-02  0.1527640E+00
         -2   -1    0    0    0  501 -0.00000000000E+00  0.00000000000E+00  0.28433479990E+02  0.28433479990E+02  0.00000000000E+00 0.  1.
          2   -1    0    0  501    0  0.00000000000E+00 -0.00000000000E+00 -0.19545737528E+03  0.19545737528E+03  0.00000000000E+00 0. -1.
          2    1    1    2  502    0  0.86850972394E+00 -0.37467397561E+02 -0.18028287066E+03  0.18413710555E+03  0.00000000000E+00 0. -1.
         -2    1    1    2    0  502 -0.86850972394E+00  0.37467397561E+02  0.13258975364E+02  0.39753749720E+02  0.00000000000E+00 0.  1.
<mgrwt>
<rscale>  2 0.37477462E+02</rscale>
<asrwt>0</asrwt>
<pdfrwt beam="2">  1        2 0.30070365E-01 0.37477462E+02</pdfrwt>
<pdfrwt beam="1">  1       -2 0.43743816E-02 0.37477462E+02</pdfrwt>
<totfact> 0.32437384E+04</totfact>
</mgrwt>
</event>
<event>
 4    1  0.1429937E+004  0.2717878E+02  0.7546771E-02  0.1631545E+00
         -2   -1    0    0    0  501 -0.00000000000E+00  0.00000000000E+00  0.18811516682E+02  0.18811516682E+02  0.00000000000E+00 0. -1.
          2   -1    0    0  501    0  0.00000000000E+00 -0.00000000000E+00 -0.10178936708E+04  0.10178936708E+04  0.00000000000E+00 0. -1.
          2    1    1    2  502    0  0.16407926298E+02  0.21667159435E+02 -0.10077969755E+04  0.10081633943E+04  0.00000000000E+00 0. -1.
         -2    1    1    2    0  502 -0.16407926298E+02 -0.21667159435E+02  0.87148213968E+01  0.28541793135E+02  0.00000000000E+00 0. -1.
<mgrwt>
<rscale>  2 0.27178776E+02</rscale>
<asrwt>0</asrwt>
<pdfrwt beam="2">  1        2 0.15659905E+00 0.27178776E+02</pdfrwt>
<pdfrwt beam="1">  1       -2 0.28940791E-02 0.27178776E+02</pdfrwt>
<totfact> 0.96874432E+03</totfact>
</mgrwt>
</event>
<event>
 4    1  0.1429937E+004  0.2655755E+02  0.7546771E-02  0.1639588E+00
         -2   -1    0    0    0  501 -0.00000000000E+00  0.00000000000E+00  0.11188743772E+01  0.11188743772E+01  0.00000000000E+00 0.  1.
          2   -1    0    0  501    0  0.00000000000E+00 -0.00000000000E+00 -0.14355651965E+04  0.14355651965E+04  0.00000000000E+00 0.  1.
          2    1    1    2  502    0 -0.20663879351E+02 -0.16682559924E+02 -0.12552087960E+04  0.12554897153E+04  0.00000000000E+00 0.  1.
         -2    1    1    2    0  502  0.20663879351E+02  0.16682559924E+02 -0.17923752608E+03  0.18119435552E+03  0.00000000000E+00 0.  1.
<mgrwt>
<rscale>  2 0.26557555E+02</rscale>
<asrwt>0</asrwt>
<pdfrwt beam="2">  1        2 0.22085508E+00 0.26557555E+02</pdfrwt>
<pdfrwt beam="1">  1       -2 0.17213538E-03 0.26557555E+02</pdfrwt>
<totfact> 0.27288196E+05</totfact>
</mgrwt>
</event>
<event>
 4    1  0.1429937E+004  0.2771917E+02  0.7546771E-02  0.1624761E+00
         -2   -1    0    0    0  501 -0.00000000000E+00  0.00000000000E+00  0.12606039916E+01  0.12606039916E+01  0.00000000000E+00 0. -1.
          2   -1    0    0  501    0  0.00000000000E+00 -0.00000000000E+00 -0.10618320934E+04  0.10618320934E+04  0.00000000000E+00 0.  1.
          2    1    1    2  502    0 -0.99005610954E+01 -0.25890759916E+02 -0.87721140440E+03  0.87764924689E+03  0.00000000000E+00 0.  1.
         -2    1    1    2    0  502  0.99005610954E+01  0.25890759916E+02 -0.18336008497E+03  0.18544345046E+03  0.00000000000E+00 0. -1.
<mgrwt>
<rscale>  2 0.27719173E+02</rscale>
<asrwt>0</asrwt>
<pdfrwt beam="2">  1        2 0.16335864E+00 0.27719173E+02</pdfrwt>
<pdfrwt beam="1">  1       -2 0.19393925E-03 0.27719173E+02</pdfrwt>
<totfact> 0.36223264E+05</totfact>
</mgrwt>
</event>
<event>
 4    1  0.1429937E+004  0.2355041E+02  0.7546771E-02  0.1682740E+00
          2   -1    0    0  501    0  0.00000000000E+00  0.00000000000E+00  0.13084347688E+04  0.13084347688E+04  0.00000000000E+00 0.  1.
         -2   -1    0    0    0  501 -0.00000000000E+00 -0.00000000000E+00 -0.31175559360E+02  0.31175559360E+02  0.00000000000E+00 0.  1.
          2    1    1    2  502    0  0.22915865312E+02  0.54300097218E+01  0.13038656443E+04  0.13040783107E+04  0.00000000000E+00 0.  1.
         -2    1    1    2    0  502 -0.22915865312E+02 -0.54300097218E+01 -0.26606434898E+02  0.35532017485E+02  0.00000000000E+00 0.  1.
<mgrwt>
<rscale>  2 0.23550412E+02</rscale>
<asrwt>0</asrwt>
<pdfrwt beam="1">  1        2 0.20129761E+00 0.23550412E+02</pdfrwt>
<pdfrwt beam="2">  1       -2 0.47962409E-02 0.23550412E+02</pdfrwt>
<totfact> 0.33374489E+03</totfact>
</mgrwt>
</event>
<event>
 4    1  0.1472771E+004  0.2549105E+02  0.7546771E-02  0.1654047E+00
         -2   -1    0    0    0  501 -0.00000000000E+00  0.00000000000E+00  0.19184766641E+03  0.19184766641E+03  0.00000000000E+00 0. -1.
          2   -1    0    0  501    0  0.00000000000E+00 -0.00000000000E+00 -0.15254915116E+04  0.15254915116E+04  0.00000000000E+00 0.  1.
          2    1    1    2  502    0 -0.12244266233E+02  0.22357811222E+02 -0.15245377351E+04  0.15247508320E+04  0.00000000000E+00 0.  1.
         -2    1    1    2    0  502  0.12244266233E+02 -0.22357811222E+02  0.19089388998E+03  0.19258834599E+03  0.00000000000E+00 0. -1.
<mgrwt>
<rscale>  2 0.25491053E+02</rscale>
<asrwt>0</asrwt>
<pdfrwt beam="2">  1        2 0.23469100E+00 0.25491053E+02</pdfrwt>
<pdfrwt beam="1">  1       -2 0.29515026E-01 0.25491053E+02</pdfrwt>
<totfact> 0.16173392E+02</totfact>
</mgrwt>
</event>
<event>
 4    1  0.1429937E+004  0.2112176E+02  0.7546771E-02  0.1723899E+00
         -2   -1    0    0    0  501 -0.00000000000E+00  0.00000000000E+00  0.10696051974E+02  0.10696051974E+02  0.00000000000E+00 0.  1.
          2   -1    0    0  501    0  0.00000000000E+00 -0.00000000000E+00 -0.10552435206E+03  0.10552435206E+03  0.00000000000E+00 0. -1.
          2    1    1    2  502    0 -0.12590339917E+02 -0.16959126878E+02 -0.92603531021E+02  0.94981801421E+02  0.00000000000E+00 0. -1.
         -2    1    1    2    0  502  0.12590339917E+02  0.16959126878E+02 -0.22247690684E+01  0.21238602616E+02  0.00000000000E+00 0.  1.
<mgrwt>
<rscale>  2 0.21121758E+02</rscale>
<asrwt>0</asrwt>
<pdfrwt beam="2">  1        2 0.16234515E-01 0.21121758E+02</pdfrwt>
<pdfrwt beam="1">  1       -2 0.16455465E-02 0.21121758E+02</pdfrwt>
<totfact> 0.21466396E+05</totfact>
</mgrwt>
</event>
<event>
 4    1  0.1429937E+004  0.2211597E+02  0.7546771E-02  0.1706254E+00
         -2   -1    0    0    0  501 -0.00000000000E+00  0.00000000000E+00  0.26178470859E+02  0.26178470859E+02  0.00000000000E+00 0. -1.
          2   -1    0    0  501    0  0.00000000000E+00 -0.00000000000E+00 -0.12125015565E+03  0.12125015565E+03  0.00000000000E+00 0.  1.
          2    1    1    2  502    0  0.17242279688E+02  0.13849904814E+02 -0.11533322233E+03  0.11743452749E+03  0.00000000000E+00 0.  1.
         -2    1    1    2    0  502 -0.17242279688E+02 -0.13849904814E+02  0.20261537546E+02  0.29994099018E+02  0.00000000000E+00 0. -1.
<mgrwt>
<rscale>  2 0.22115969E+02</rscale>
<asrwt>0</asrwt>
<pdfrwt beam="2">  1        2 0.18653870E-01 0.22115969E+02</pdfrwt>
<pdfrwt beam="1">  1       -2 0.40274570E-02 0.22115969E+02</pdfrwt>
<totfact> 0.54394295E+04</totfact>
</mgrwt>
</event>
<event>
 4    1  0.1429937E+004  0.2048789E+02  0.7546771E-02  0.1735796E+00
         -2   -1    0    0    0  501 -0.00000000000E+00  0.00000000000E+00  0.41304205073E+01  0.41304205073E+01  0.00000000000E+00 0.  1.
          2   -1    0    0  501    0  0.00000000000E+00 -0.00000000000E+00 -0.10220901686E+03  0.10220901686E+03  0.00000000000E+00 0.  1.
          2    1    1    2  502    0 -0.49268342805E+01  0.19886681975E+02 -0.53058571831E+02  0.56876760287E+02  0.00000000000E+00 0.  1.
         -2    1    1    2    0  502  0.49268342805E+01 -0.19886681975E+02 -0.45020024517E+02  0.49462677076E+02  0.00000000000E+00 0.  1.
<mgrwt>
<rscale>  2 0.20487894E+02</rscale>
<asrwt>0</asrwt>
<pdfrwt beam="2">  1        2 0.15724463E-01 0.20487894E+02</pdfrwt>
<pdfrwt beam="1">  1       -2 0.63544936E-03 0.20487894E+02</pdfrwt>
<totfact> 0.79373504E+05</totfact>
</mgrwt>
</event>
<event>
 4    1  0.1429937E+004  0.3196092E+02  0.7546771E-02  0.1577373E+00
          2   -1    0    0  501    0  0.00000000000E+00  0.00000000000E+00  0.65957627942E+01  0.65957627942E+01  0.00000000000E+00 0. -1.
         -2   -1    0    0    0  501 -0.00000000000E+00 -0.00000000000E+00 -0.63408423282E+03  0.63408423282E+03  0.00000000000E+00 0. -1.
          2    1    1    2  502    0  0.89477942653E+01 -0.30682854255E+02 -0.35259413337E+02  0.47589145783E+02  0.00000000000E+00 0. -1.
         -2    1    1    2    0  502 -0.89477942653E+01  0.30682854255E+02 -0.59222905669E+03  0.59309084983E+03  0.00000000000E+00 0. -1.
<mgrwt>
<rscale>  2 0.31960923E+02</rscale>
<asrwt>0</asrwt>
<pdfrwt beam="1">  1        2 0.10147323E-02 0.31960923E+02</pdfrwt>
<pdfrwt beam="2">  1       -2 0.97551462E-01 0.31960923E+02</pdfrwt>
<totfact> 0.96554521E+03</totfact>
</mgrwt>
</event>
<event>
 4    1  0.1429937E+004  0.2841669E+02  0.7546771E-02  0.1616280E+00
         -2   -1    0    0    0  501 -0.00000000000E+00  0.00000000000E+00  0.16212549623E+03  0.16212549623E+03  0.00000000000E+00 0.  1.
          2   -1    0    0  501    0  0.00000000000E+00 -0.00000000000E+00 -0.86791346979E+02  0.86791346979E+02  0.00000000000E+00 0.  1.
          2    1    1    2  502    0  0.37862015209E+00 -0.28414164223E+02 -0.83167392357E+02  0.87888129080E+02  0.00000000000E+00 0.  1.
         -2    1    1    2    0  502 -0.37862015209E+00  0.28414164223E+02  0.15850154161E+03  0.16102871413E+03  0.00000000000E+00 0.  1.
<mgrwt>
<rscale>  2 0.28416687E+02</rscale>
<asrwt>0</asrwt>
<pdfrwt beam="2">  1        2 0.13352515E-01 0.28416687E+02</pdfrwt>
<pdfrwt beam="1">  1       -2 0.24942384E-01 0.28416687E+02</pdfrwt>
<totfact> 0.52253575E+03</totfact>
</mgrwt>
</event>
<event>
 4    1  0.1429937E+004  0.2230708E+02  0.7546771E-02  0.1702995E+00
          2   -1    0    0  501    0  0.00000000000E+00  0.00000000000E+00  0.18777005395E+04  0.18777005395E+04  0.00000000000E+00 0.  1.
         -2   -1    0    0    0  501 -0.00000000000E+00 -0.00000000000E+00 -0.39723955291E+00  0.39723955291E+00  0.00000000000E+00 0.  1.
          2    1    1    2  502    0 -0.44495727795E+01  0.21858795315E+02  0.14804398477E+04  0.14806078982E+04  0.00000000000E+00 0.  1.
         -2    1    1    2    0  502  0.44495727795E+01 -0.21858795315E+02  0.39686345227E+03  0.39748988085E+03  0.00000000000E+00 0.  1.
<mgrwt>
<rscale>  2 0.22307076E+02</rscale>
<asrwt>0</asrwt>
<pdfrwt beam="1">  1        2 0.28886990E+00 0.22307076E+02</pdfrwt>
<pdfrwt beam="2">  1       -2 0.61115281E-04 0.22307076E+02</pdfrwt>
<totfact> 0.63687179E+05</totfact>
</mgrwt>
</event>
<event>
 4    1  0.1429937E+004  0.4616301E+02  0.7546771E-02  0.1467209E+00
          2   -1    0    0  501    0  0.00000000000E+00  0.00000000000E+00  0.48162336100E+03  0.48162336100E+03  0.00000000000E+00 0. -1.
         -2   -1    0    0    0  501 -0.00000000000E+00 -0.00000000000E+00 -0.66799552159E+02  0.66799552159E+02  0.00000000000E+00 0. -1.
          2    1    1    2  502    0 -0.41134257186E+02  0.20952244217E+02  0.47238616872E+03  0.47463640405E+03  0.00000000000E+00 0. -1.
         -2    1    1    2    0  502  0.41134257186E+02 -0.20952244217E+02 -0.57562359877E+02  0.73786509110E+02  0.00000000000E+00 0. -1.
<mgrwt>
<rscale>  2 0.46163012E+02</rscale>
<asrwt>0</asrwt>
<pdfrwt beam="1">  1        2 0.74095900E-01 0.46163012E+02</pdfrwt>
<pdfrwt beam="2">  1       -2 0.10276854E-01 0.46163012E+02</pdfrwt>
<totfact> 0.37467265E+03</totfact>
</mgrwt>
</event>
<event>
 4    1  0.1429937E+004  0.2880925E+02  0.7546771E-02  0.1611636E+00
          2   -1    0    0  501    0  0.00000000000E+00  0.00000000000E+00  0.12744824468E+01  0.12744824468E+01  0.00000000000E+00 0. -1.
         -2   -1    0    0    0  501 -0.00000000000E+00 -0.00000000000E+00 -0.77655669446E+03  0.77655669446E+03  0.00000000000E+00 0. -1.
          2    1    1    2  502    0  0.46542553601E+01  0.28430805202E+02 -0.23139758592E+03  0.23318408082E+03  0.00000000000E+00 0. -1.
         -2    1    1    2    0  502 -0.46542553601E+01 -0.28430805202E+02 -0.54388462609E+03  0.54464709609E+03  0.00000000000E+00 0. -1.
<mgrwt>
<rscale>  2 0.28809248E+02</rscale>
<asrwt>0</asrwt>
<pdfrwt beam="1">  1        2 0.19607439E-03 0.28809248E+02</pdfrwt>
<pdfrwt beam="2">  1       -2 0.11947016E+00 0.28809248E+02</pdfrwt>
<totfact> 0.52654970E+04</totfact>
</mgrwt>
</event>
<event>
 4    1  0.1429937E+004  0.2146560E+02  0.7546771E-02  0.1717661E+00
          2   -1    0    0  501    0  0.00000000000E+00  0.00000000000E+00  0.16854566457E+03  0.16854566457E+03  0.00000000000E+00 0.  1.
         -2   -1    0    0    0  501 -0.00000000000E+00 -0.00000000000E+00 -0.12244122115E+02  0.12244122115E+02  0.00000000000E+00 0. -1.
          2    1    1    2  502    0  0.21391321375E+02 -0.17842150196E+01  0.15781758064E+03  0.15927071549E+03  0.00000000000E+00 0.  1.
         -2    1    1    2    0  502 -0.21391321375E+02  0.17842150196E+01 -0.15160381831E+01  0.21519071197E+02  0.00000000000E+00 0. -1.
<mgrwt>
<rscale>  2 0.21465602E+02</rscale>
<asrwt>0</asrwt>
<pdfrwt beam="1">  1        2 0.25930101E-01 0.21465602E+02</pdfrwt>
<pdfrwt beam="2">  1       -2 0.18837112E-02 0.21465602E+02</pdfrwt>
<totfact> 0.10952460E+05</totfact>
</mgrwt>
</event>
<event>
 4    1  0.1429937E+004  0.2089914E+02  0.7546771E-02  0.1728017E+00
         -2   -1    0    0    0  501 -0.00000000000E+00  0.00000000000E+00  0.14789778035E+03  0.14789778035E+03  0.00000000000E+00 0. -1.
          2   -1    0    0  501    0  0.00000000000E+00 -0.00000000000E+00 -0.10599943001E+04  0.10599943001E+04  0.00000000000E+00 0.  1.
          2    1    1    2  502    0 -0.13768083356E+02  0.15723039171E+02 -0.10591523960E+04  0.10593585663E+04  0.00000000000E+00 0.  1.
         -2    1    1    2    0  502  0.13768083356E+02 -0.15723039171E+02  0.14705587626E+03  0.14853351414E+03  0.00000000000E+00 0. -1.
<mgrwt>
<rscale>  2 0.20899141E+02</rscale>
<asrwt>0</asrwt>
<pdfrwt beam="2">  1        2 0.16307605E+00 0.20899141E+02</pdfrwt>
<pdfrwt beam="1">  1       -2 0.22753504E-01 0.20899141E+02</pdfrwt>
<totfact> 0.42606725E+02</totfact>
</mgrwt>
</event>
<event>
 4    1  0.1429937E+004  0.2682907E+02  0.7546771E-02  0.1636040E+00
          2   -1    0    0  501    0  0.00000000000E+00  0.00000000000E+00  0.69101182965E+03  0.69101182965E+03  0.00000000000E+00 0. -1.
         -2   -1    0    0    0  501 -0.00000000000E+00 -0.00000000000E+00 -0.14464433955E+01  0.14464433955E+01  0.00000000000E+00 0. -1.
          2    1    1    2  502    0  0.25307664298E+02 -0.89062457074E+01  0.52794009185E+03  0.52862135756E+03  0.00000000000E+00 0. -1.
         -2    1    1    2    0  502 -0.25307664298E+02  0.89062457074E+01  0.16162529440E+03  0.16383691549E+03  0.00000000000E+00 0. -1.
<mgrwt>
<rscale>  2 0.26829072E+02</rscale>
<asrwt>0</asrwt>
<pdfrwt beam="1">  1        2 0.10630925E+00 0.26829072E+02</pdfrwt>
<pdfrwt beam="2">  1       -2 0.22253031E-03 0.26829072E+02</pdfrwt>
<totfact> 0.49700586E+05</totfact>
</mgrwt>
</event>
<event>
 4    1  0.1429937E+004  0.2742882E+02  0.7546771E-02  0.1628382E+00
         -2   -1    0    0    0  501 -0.00000000000E+00  0.00000000000E+00  0.48920002863E+02  0.48920002863E+02  0.00000000000E+00 0. -1.
          2   -1    0    0  501    0  0.00000000000E+00 -0.00000000000E+00 -0.25080031271E+02  0.25080031271E+02  0.00000000000E+00 0.  1.
          2    1    1    2  502    0 -0.27112495436E+02 -0.41536536528E+01 -0.11091627007E+02  0.29586558386E+02  0.00000000000E+00 0.  1.
         -2    1    1    2    0  502  0.27112495436E+02  0.41536536528E+01  0.34931598598E+02  0.44413475749E+02  0.00000000000E+00 0. -1.
<mgrwt>
<rscale>  2 0.27428821E+02</rscale>
<asrwt>0</asrwt>
<pdfrwt beam="2">  1        2 0.38584663E-02 0.27428821E+02</pdfrwt>
<pdfrwt beam="1">  1       -2 0.75261543E-02 0.27428821E+02</pdfrwt>
<totfact> 0.14745341E+05</totfact>
</mgrwt>
</event>
<event>
 4    1  0.1429937E+004  0.3668893E+02  0.7546771E-02  0.1534094E+00
          2   -1    0    0  501    0  0.00000000000E+00  0.00000000000E+00  0.15263741463E+04  0.15263741463E+04  0.00000000000E+00 0.  1.
         -2   -1    0    0    0  501 -0.00000000000E+00 -0.00000000000E+00 -0.27293291132E+02  0.27293291132E+02  0.00000000000E+00 0.  1.
          2    1    1    2  502    0  0.36382910598E+02  0.47287720957E+01  0.15137208800E+04  0.15141654401E+04  0.00000000000E+00 0.  1.
         -2    1    1    2    0  502 -0.36382910598E+02 -0.47287720957E+01 -0.14640024798E+02  0.39501997357E+02  0.00000000000E+00 0.  1.
<mgrwt>
<rscale>  2 0.36688928E+02</rscale>
<asrwt>0</asrwt>
<pdfrwt beam="1">  1        2 0.23482672E+00 0.36688928E+02</pdfrwt>
<pdfrwt beam="2">  1       -2 0.41989691E-02 0.36688928E+02</pdfrwt>
<totfact> 0.32367910E+03</totfact>
</mgrwt>
</event>
<event>
 4    1  0.1429937E+004  0.2702969E+02  0.7546771E-02  0.1633451E+00
          2   -1    0    0  501    0  0.00000000000E+00  0.00000000000E+00  0.38588559752E+02  0.38588559752E+02  0.00000000000E+00 0. -1.
         -2   -1    0    0    0  501 -0.00000000000E+00 -0.00000000000E+00 -0.39924703803E+02  0.39924703803E+02  0.00000000000E+00 0. -1.
          2    1    1    2  502    0 -0.26969339262E+02 -0.18051651954E+01  0.27797127815E+02  0.38772209073E+02  0.00000000000E+00 0. -1.
         -2    1    1    2    0  502  0.26969339262E+02  0.18051651954E+01 -0.29133271867E+02  0.39741054481E+02  0.00000000000E+00 0. -1.
<mgrwt>
<rscale>  2 0.27029685E+02</rscale>
<asrwt>0</asrwt>
<pdfrwt beam="1">  1        2 0.59367015E-02 0.27029685E+02</pdfrwt>
<pdfrwt beam="2">  1       -2 0.61422622E-02 0.27029685E+02</pdfrwt>
<totfact> 0.11592853E+05</totfact>
</mgrwt>
</event>
<event>
 4    1  0.1429937E+004  0.2062975E+02  0.7546771E-02  0.1733087E+00
         -2   -1    0    0    0  501 -0.00000000000E+00  0.00000000000E+00  0.35317141700E+02  0.35317141700E+02  0.00000000000E+00 0.  1.
          2   -1    0    0  501    0  0.00000000000E+00 -0.00000000000E+00 -0.13739270034E+02  0.13739270034E+02  0.00000000000E+00 0.  1.
          2    1    1    2  502    0 -0.18983633839E+02  0.80751728022E+01  0.21893384815E+01  0.20745601281E+02  0.00000000000E+00 0.  1.
         -2    1    1    2    0  502  0.18983633839E+02 -0.80751728022E+01  0.19388533184E+02  0.28310810454E+02  0.00000000000E+00 0.  1.
<mgrwt>
<rscale>  2 0.20629754E+02</rscale>
<asrwt>0</asrwt>
<pdfrwt beam="2">  1        2 0.21137339E-02 0.20629754E+02</pdfrwt>
<pdfrwt beam="1">  1       -2 0.54334064E-02 0.20629754E+02</pdfrwt>
<totfact> 0.46460487E+05</totfact>
</mgrwt>
</event>
<event>
 4    1  0.1429937E+004  0.2146152E+02  0.7546771E-02  0.1717735E+00
         -2   -1    0    0    0  501 -0.00000000000E+00  0.00000000000E+00  0.10289867756E+02  0.10289867756E+02  0.00000000000E+00 0. -1.
          2   -1    0    0  501    0  0.00000000000E+00 -0.00000000000E+00 -0.21923988847E+03  0.21923988847E+03  0.00000000000E+00 0.  1.
          2    1    1    2  502    0 -0.20167465298E+02  0.73396165058E+01 -0.20685597624E+03  0.20796632307E+03  0.00000000000E+00 0.  1.
         -2    1    1    2    0  502  0.20167465298E+02 -0.73396165058E+01 -0.20940444740E+01  0.21563433151E+02  0.00000000000E+00 0. -1.
<mgrwt>
<rscale>  2 0.21461515E+02</rscale>
<asrwt>0</asrwt>
<pdfrwt beam="2">  1        2 0.33729211E-01 0.21461515E+02</pdfrwt>
<pdfrwt beam="1">  1       -2 0.15830567E-02 0.21461515E+02</pdfrwt>
<totfact> 0.10642280E+05</totfact>
</mgrwt>
</event>
<event>
 4    1  0.1429937E+004  0.2299170E+02  0.7546771E-02  0.1691645E+00
         -2   -1    0    0    0  501 -0.00000000000E+00  0.00000000000E+00  0.56737647022E+02  0.56737647022E+02  0.00000000000E+00 0.  1.
          2   -1    0    0  501    0  0.00000000000E+00 -0.00000000000E+00 -0.24326364706E+03  0.24326364706E+03  0.00000000000E+00 0.  1.
          2    1    1    2  502    0  0.25423798933E+01 -0.22850702035E+02 -0.24036312531E+03  0.24146024577E+03  0.00000000000E+00 0.  1.
         -2    1    1    2    0  502 -0.25423798933E+01  0.22850702035E+02  0.53837125275E+02  0.58541048307E+02  0.00000000000E+00 0.  1.
<mgrwt>
<rscale>  2 0.22991700E+02</rscale>
<asrwt>0</asrwt>
<pdfrwt beam="2">  1        2 0.37425175E-01 0.22991700E+02</pdfrwt>
<pdfrwt beam="1">  1       -2 0.87288691E-02 0.22991700E+02</pdfrwt>
<totfact> 0.88371034E+03</totfact>
</mgrwt>
</event>
<event>
 4    1  0.1429937E+004  0.7233320E+02  0.7546771E-02  0.1352334E+00
          2   -1    0    0  501    0  0.00000000000E+00  0.00000000000E+00  0.75048311213E+02  0.75048311213E+02  0.00000000000E+00 0. -1.
         -2   -1    0    0    0  501 -0.00000000000E+00 -0.00000000000E+00 -0.76574381117E+02  0.76574381117E+02  0.00000000000E+00 0. -1.
          2    1    1    2  502    0  0.71250633150E+02  0.12467541344E+02  0.21924799184E+02  0.75582994984E+02  0.00000000000E+00 0. -1.
         -2    1    1    2    0  502 -0.71250633150E+02 -0.12467541344E+02 -0.23450869087E+02  0.76039697346E+02  0.00000000000E+00 0. -1.
<mgrwt>
<rscale>  2 0.72333203E+02</rscale>
<asrwt>0</asrwt>
<pdfrwt beam="1">  1        2 0.11545894E-01 0.72333203E+02</pdfrwt>
<pdfrwt beam="2">  1       -2 0.11780674E-01 0.72333203E+02</pdfrwt>
<totfact> 0.23373872E+04</totfact>
</mgrwt>
</event>
<event>
 4    1  0.1429937E+004  0.3740386E+02  0.7546771E-02  0.1528234E+00
         -2   -1    0    0    0  501 -0.00000000000E+00  0.00000000000E+00  0.12084955522E+03  0.12084955522E+03  0.00000000000E+00 0.  1.
          2   -1    0    0  501    0  0.00000000000E+00 -0.00000000000E+00 -0.29360547600E+03  0.29360547600E+03  0.00000000000E+00 0. -1.
          2    1    1    2  502    0  0.34026638331E+02  0.15531783363E+02 -0.28947892982E+03  0.29188542139E+03  0.00000000000E+00 0. -1.
         -2    1    1    2    0  502 -0.34026638331E+02 -0.15531783363E+02  0.11672300905E+03  0.12256960983E+03  0.00000000000E+00 0.  1.
<mgrwt>
<rscale>  2 0.37403856E+02</rscale>
<asrwt>0</asrwt>
<pdfrwt beam="2">  1        2 0.45170073E-01 0.37403856E+02</pdfrwt>
<pdfrwt beam="1">  1       -2 0.18592239E-01 0.37403856E+02</pdfrwt>
<totfact> 0.24078125E+03</totfact>
</mgrwt>
</event>
<event>
 4    1  0.1429937E+004  0.2520539E+02  0.7546771E-02  0.1658069E+00
         -2   -1    0    0    0  501 -0.00000000000E+00  0.00000000000E+00  0.50343873075E+02  0.50343873075E+02  0.00000000000E+00 0.  1.
          2   -1    0    0  501    0  0.00000000000E+00 -0.00000000000E+00 -0.79396443495E+02  0.79396443495E+02  0.00000000000E+00 0. -1.
          2    1    1    2  502    0 -0.41844984737E+01  0.24855616889E+02 -0.74018191005E+02  0.78192098821E+02  0.00000000000E+00 0. -1.
         -2    1    1    2    0  502  0.41844984737E+01 -0.24855616889E+02  0.44965620586E+02  0.51548217749E+02  0.00000000000E+00 0.  1.
<mgrwt>
<rscale>  2 0.25205391E+02</rscale>
<asrwt>0</asrwt>
<pdfrwt beam="2">  1        2 0.12214838E-01 0.25205391E+02</pdfrwt>
<pdfrwt beam="1">  1       -2 0.77452112E-02 0.25205391E+02</pdfrwt>
<totfact> 0.34900906E+04</totfact>
</mgrwt>
</event>
<event>
 4    1  0.1429937E+004  0.2957403E+02  0.7546771E-02  0.1602845E+00
          2   -1    0    0  501    0  0.00000000000E+00  0.00000000000E+00  0.74030325806E+03  0.74030325806E+03  0.00000000000E+00 0.  1.
         -2   -1    0    0    0  501 -0.00000000000E+00 -0.00000000000E+00 -0.12092769906E+01  0.12092769906E+01  0.00000000000E+00 0.  1.
          2    1    1    2  502    0  0.15282545210E+02 -0.25319300128E+02  0.42579983445E+03  0.42682563439E+03  0.00000000000E+00 0.  1.
         -2    1    1    2    0  502 -0.15282545210E+02  0.25319300128E+02  0.31329414662E+03  0.31468690067E+03  0.00000000000E+00 0.  1.
<mgrwt>
<rscale>  2 0.29574028E+02</rscale>
<asrwt>0</asrwt>
<pdfrwt beam="1">  1        2 0.11389245E+00 0.29574028E+02</pdfrwt>
<pdfrwt beam="2">  1       -2 0.18604321E-03 0.29574028E+02</pdfrwt>
<totfact> 0.60049431E+05</totfact>
</mgrwt>
</event>
<event>
 4    1  0.1429937E+004  0.2478424E+02  0.7546771E-02  0.1664120E+00
         -2   -1    0    0    0  501 -0.00000000000E+00  0.00000000000E+00  0.93951377508E+01  0.93951377508E+01  0.00000000000E+00 0.  1.
          2   -1    0    0  501    0  0.00000000000E+00 -0.00000000000E+00 -0.11020482519E+04  0.11020482519E+04  0.00000000000E+00 0. -1.
          2    1    1    2  502    0 -0.19963960265E+02 -0.14686685220E+02 -0.10853117686E+04  0.10855947188E+04  0.00000000000E+00 0. -1.
         -2    1    1    2    0  502  0.19963960265E+02  0.14686685220E+02 -0.73413456059E+01  0.25848670904E+02  0.00000000000E+00 0.  1.
<mgrwt>
<rscale>  2 0.24784238E+02</rscale>
<asrwt>0</asrwt>
<pdfrwt beam="2">  1        2 0.16954584E+00 0.24784238E+02</pdfrwt>
<pdfrwt beam="1">  1       -2 0.14454062E-02 0.24784238E+02</pdfrwt>
<totfact> 0.22516894E+04</totfact>
</mgrwt>
</event>
<event>
 4    1  0.1429937E+004  0.3891960E+02  0.7546771E-02  0.1516316E+00
          2   -1    0    0  501    0  0.00000000000E+00  0.00000000000E+00  0.56084621443E+01  0.56084621443E+01  0.00000000000E+00 0. -1.
         -2   -1    0    0    0  501 -0.00000000000E+00 -0.00000000000E+00 -0.73152925971E+03  0.73152925971E+03  0.00000000000E+00 0. -1.
          2    1    1    2  502    0 -0.15869415834E+02 -0.35537265716E+02 -0.70232183215E+02  0.80295050735E+02  0.00000000000E+00 0. -1.
         -2    1    1    2    0  502  0.15869415834E+02  0.35537265716E+02 -0.65568861435E+03  0.65684267112E+03  0.00000000000E+00 0. -1.
<mgrwt>
<rscale>  2 0.38919604E+02</rscale>
<asrwt>0</asrwt>
<pdfrwt beam="1">  1        2 0.86284046E-03 0.38919604E+02</pdfrwt>
<pdfrwt beam="2">  1       -2 0.11254295E+00 0.38919604E+02</pdfrwt>
<totfact> 0.89760552E+03</totfact>
</mgrwt>
</event>
<event>
 4    1  0.1429937E+004  0.2990795E+02  0.7546771E-02  0.1599108E+00
          2   -1    0    0  501    0  0.00000000000E+00  0.00000000000E+00  0.16989200213E+02  0.16989200213E+02  0.00000000000E+00 0.  1.
         -2   -1    0    0    0  501 -0.00000000000E+00 -0.00000000000E+00 -0.10687131059E+03  0.10687131059E+03  0.00000000000E+00 0. -1.
          2    1    1    2  502    0  0.11419541719E+02  0.27641989664E+02 -0.82909730007E+00  0.29919440637E+02  0.00000000000E+00 0.  1.
         -2    1    1    2    0  502 -0.11419541719E+02 -0.27641989664E+02 -0.89053013074E+02  0.93941070162E+02  0.00000000000E+00 0. -1.
<mgrwt>
<rscale>  2 0.29907951E+02</rscale>
<asrwt>0</asrwt>
<pdfrwt beam="1">  1        2 0.26137231E-02 0.29907951E+02</pdfrwt>
<pdfrwt beam="2">  1       -2 0.16441740E-01 0.29907951E+02</pdfrwt>
<totfact> 0.75340776E+04</totfact>
</mgrwt>
</event>
<event>
 4    1  0.1429937E+004  0.2615216E+02  0.7546771E-02  0.1644984E+00
          2   -1    0    0  501    0  0.00000000000E+00  0.00000000000E+00  0.28190364617E+03  0.28190364617E+03  0.00000000000E+00 0. -1.
         -2   -1    0    0    0  501 -0.00000000000E+00 -0.00000000000E+00 -0.10607678443E+02  0.10607678443E+02  0.00000000000E+00 0. -1.
          2    1    1    2  502    0 -0.24602421104E+02 -0.88688553655E+01  0.26409386756E+03  0.26538558100E+03  0.00000000000E+00 0. -1.
         -2    1    1    2    0  502  0.24602421104E+02  0.88688553655E+01  0.72021001654E+01  0.27125743611E+02  0.00000000000E+00 0. -1.
<mgrwt>
<rscale>  2 0.26152165E+02</rscale>
<asrwt>0</asrwt>
<pdfrwt beam="1">  1        2 0.43369786E-01 0.26152165E+02</pdfrwt>
<pdfrwt beam="2">  1       -2 0.16319507E-02 0.26152165E+02</pdfrwt>
<totfact> 0.83244576E+04</totfact>
</mgrwt>
</event>
<event>
 4    1  0.1429937E+004  0.2381849E+02  0.7546771E-02  0.1678576E+00
         -2   -1    0    0    0  501 -0.00000000000E+00  0.00000000000E+00  0.13584117803E+02  0.13584117803E+02  0.00000000000E+00 0. -1.
          2   -1    0    0  501    0  0.00000000000E+00 -0.00000000000E+00 -0.45257076797E+03  0.45257076797E+03  0.00000000000E+00 0.  1.
          2    1    1    2  502    0 -0.19227681750E+02  0.14057625221E+02 -0.44155624398E+03  0.44219818766E+03  0.00000000000E+00 0.  1.
         -2    1    1    2    0  502  0.19227681750E+02 -0.14057625221E+02  0.25695938091E+01  0.23956698117E+02  0.00000000000E+00 0. -1.
<mgrwt>
<rscale>  2 0.23818492E+02</rscale>
<asrwt>0</asrwt>
<pdfrwt beam="2">  1        2 0.69626262E-01 0.23818492E+02</pdfrwt>
<pdfrwt beam="1">  1       -2 0.20898646E-02 0.23818492E+02</pdfrwt>
<totfact> 0.36369177E+04</totfact>
</mgrwt>
</event>
<event>
 4    1  0.1429937E+004  0.4773742E+02  0.7546771E-02  0.1457942E+00
         -2   -1    0    0    0  501 -0.00000000000E+00  0.00000000000E+00  0.25305977475E+03  0.25305977475E+03  0.00000000000E+00 0. -1.
          2   -1    0    0  501    0  0.00000000000E+00 -0.00000000000E+00 -0.28318585145E+02  0.28318585145E+02  0.00000000000E+00 0. -1.
          2    1    1    2  502    0  0.47638017581E+02  0.30790214873E+01 -0.38154058993E+01  0.47889648303E+02  0.00000000000E+00 0. -1.
         -2    1    1    2    0  502 -0.47638017581E+02 -0.30790214873E+01  0.22855659550E+03  0.23348871159E+03  0.00000000000E+00 0. -1.
<mgrwt>
<rscale>  2 0.47737418E+02</rscale>
<asrwt>0</asrwt>
<pdfrwt beam="2">  1        2 0.43567056E-02 0.47737418E+02</pdfrwt>
<pdfrwt beam="1">  1       -2 0.38932272E-01 0.47737418E+02</pdfrwt>
<totfact> 0.98481518E+03</totfact>
</mgrwt>
</event>
<event>
 4    1  0.1429937E+004  0.3635788E+02  0.7546771E-02  0.1536863E+00
          2   -1    0    0  501    0  0.00000000000E+00  0.00000000000E+00  0.15080032403E+04  0.15080032403E+04  0.00000000000E+00 0.  1.
         -2   -1    0    0    0  501 -0.00000000000E+00 -0.00000000000E+00 -0.22673337404E+01  0.22673337404E+01  0.00000000000E+00 0.  1.
          2    1    1    2  502    0 -0.32677651606E+02 -0.15939460202E+02  0.13442813264E+04  0.13447729102E+04  0.00000000000E+00 0.  1.
         -2    1    1    2    0  502  0.32677651606E+02  0.15939460202E+02  0.16145458016E+03  0.16549766391E+03  0.00000000000E+00 0.  1.
<mgrwt>
<rscale>  2 0.36357878E+02</rscale>
<asrwt>0</asrwt>
<pdfrwt beam="1">  1        2 0.23199970E+00 0.36357878E+02</pdfrwt>
<pdfrwt beam="2">  1       -2 0.34882178E-03 0.36357878E+02</pdfrwt>
<totfact> 0.10355307E+05</totfact>
</mgrwt>
</event>
<event>
 4    1  0.1429937E+004  0.2628708E+02  0.7546771E-02  0.1643175E+00
          2   -1    0    0  501    0  0.00000000000E+00  0.00000000000E+00  0.21977530985E+03  0.21977530985E+03  0.00000000000E+00 0. -1.
         -2   -1    0    0    0  501 -0.00000000000E+00 -0.00000000000E+00 -0.66283565839E+01  0.66283565839E+01  0.00000000000E+00 0.  1.
          2    1    1    2  502    0 -0.14774184706E+02  0.21742451325E+02  0.18864666220E+03  0.19046935156E+03  0.00000000000E+00 0. -1.
         -2    1    1    2    0  502  0.14774184706E+02 -0.21742451325E+02  0.24500291066E+02  0.35934314876E+02  0.00000000000E+00 0.  1.
<mgrwt>
<rscale>  2 0.26287083E+02</rscale>
<asrwt>0</asrwt>
<pdfrwt beam="1">  1        2 0.33811581E-01 0.26287083E+02</pdfrwt>
<pdfrwt beam="2">  1       -2 0.10197473E-02 0.26287083E+02</pdfrwt>
<totfact> 0.20316637E+05</totfact>
</mgrwt>
</event>
<event>
 4    1  0.1429937E+004  0.2279276E+02  0.7546771E-02  0.1694892E+00
          2   -1    0    0  501    0  0.00000000000E+00  0.00000000000E+00  0.65298617474E+03  0.65298617474E+03  0.00000000000E+00 0. -1.
         -2   -1    0    0    0  501 -0.00000000000E+00 -0.00000000000E+00 -0.28712100795E+01  0.28712100795E+01  0.00000000000E+00 0. -1.
          2    1    1    2  502    0  0.22326235539E+02 -0.45879251654E+01  0.60387545890E+03  0.60430545233E+03  0.00000000000E+00 0. -1.
         -2    1    1    2    0  502 -0.22326235539E+02  0.45879251654E+01  0.46239505757E+02  0.51551932489E+02  0.00000000000E+00 0. -1.
<mgrwt>
<rscale>  2 0.22792759E+02</rscale>
<asrwt>0</asrwt>
<pdfrwt beam="1">  1        2 0.10045929E+00 0.22792759E+02</pdfrwt>
<pdfrwt beam="2">  1       -2 0.44172515E-03 0.22792759E+02</pdfrwt>
<totfact> 0.20257622E+05</totfact>
</mgrwt>
</event>
<event>
 4    1  0.1429937E+004  0.2107690E+02  0.7546771E-02  0.1724724E+00
          2   -1    0    0  501    0  0.00000000000E+00  0.00000000000E+00  0.56180315520E+03  0.56180315520E+03  0.00000000000E+00 0.  1.
         -2   -1    0    0    0  501 -0.00000000000E+00 -0.00000000000E+00 -0.38995268988E+01  0.38995268988E+01  0.00000000000E+00 0. -1.
          2    1    1    2  502    0 -0.10675780399E+02 -0.18173145817E+02  0.53150237899E+03  0.53192012031E+03  0.00000000000E+00 0.  1.
         -2    1    1    2    0  502  0.10675780399E+02  0.18173145817E+02  0.26401249313E+02  0.33782561793E+02  0.00000000000E+00 0. -1.
<mgrwt>
<rscale>  2 0.21076895E+02</rscale>
<asrwt>0</asrwt>
<pdfrwt beam="1">  1        2 0.86431190E-01 0.21076895E+02</pdfrwt>
<pdfrwt beam="2">  1       -2 0.59992766E-03 0.21076895E+02</pdfrwt>
<totfact> 0.15429493E+05</totfact>
</mgrwt>
</event>
<event>
 4    1  0.1429937E+004  0.5659512E+02  0.7546771E-02  0.1412703E+00
          2   -1    0    0  501    0  0.00000000000E+00  0.00000000000E+00  0.71962508555E+03  0.71962508555E+03  0.00000000000E+00 0. -1.
         -2   -1    0    0    0  501 -0.00000000000E+00 -0.00000000000E+00 -0.24598021333E+03  0.24598021333E+03  0.00000000000E+00 0.  1.
          2    1    1    2  502    0 -0.48062742069E+02  0.29882782677E+02  0.71523705884E+03  0.71747268814E+03  0.00000000000E+00 0. -1.
         -2    1    1    2    0  502  0.48062742069E+02 -0.29882782677E+02 -0.24159218662E+03  0.24813261074E+03  0.00000000000E+00 0.  1.
<mgrwt>
<rscale>  2 0.56595122E+02</rscale>
<asrwt>0</asrwt>
<pdfrwt beam="1">  1        2 0.11071155E+00 0.56595122E+02</pdfrwt>
<pdfrwt beam="2">  1       -2 0.37843110E-01 0.56595122E+02</pdfrwt>
<totfact> 0.27993537E+02</totfact>
</mgrwt>
</event>
<event>
 4    1  0.1429937E+004  0.1120194E+03  0.7546771E-02  0.1256875E+00
          2   -1    0    0  501    0  0.00000000000E+00  0.00000000000E+00  0.80897525456E+02  0.80897525456E+02  0.00000000000E+00 0. -1.
         -2   -1    0    0    0  501 -0.00000000000E+00 -0.00000000000E+00 -0.16768478182E+04  0.16768478182E+04  0.00000000000E+00 0.  1.
          2    1    1    2  502    0  0.67182538238E+02  0.89637279579E+02  0.39261997690E+02  0.11870063099E+03  0.00000000000E+00 0. -1.
         -2    1    1    2    0  502 -0.67182538238E+02 -0.89637279579E+02 -0.16352122904E+04  0.16390447126E+04  0.00000000000E+00 0.  1.
<mgrwt>
<rscale>  2 0.11201935E+03</rscale>
<asrwt>0</asrwt>
<pdfrwt beam="1">  1        2 0.12445773E-01 0.11201935E+03</pdfrwt>
<pdfrwt beam="2">  1       -2 0.25797658E+00 0.11201935E+03</pdfrwt>
<totfact> 0.32784396E+01</totfact>
</mgrwt>
</event>
<event>
 4    1  0.1429937E+004  0.2421225E+02  0.7546771E-02  0.1672581E+00
         -2   -1    0    0    0  501 -0.00000000000E+00  0.00000000000E+00  0.39484720890E+02  0.39484720890E+02  0.00000000000E+00 0.  1.
          2   -1    0    0  501    0  0.00000000000E+00 -0.00000000000E+00 -0.77887436241E+03  0.77887436241E+03  0.00000000000E+00 0.  1.
          2    1    1    2  502    0  0.22528530100E+02 -0.88712115011E+01 -0.77495565939E+03  0.77533380365E+03  0.00000000000E+00 0.  1.
         -2    1    1    2    0  502 -0.22528530100E+02  0.88712115011E+01  0.35566017869E+02  0.43025279650E+02  0.00000000000E+00 0.  1.
<mgrwt>
<rscale>  2 0.24212250E+02</rscale>
<asrwt>0</asrwt>
<pdfrwt beam="2">  1        2 0.11982682E+00 0.24212250E+02</pdfrwt>
<pdfrwt beam="1">  1       -2 0.60745726E-02 0.24212250E+02</pdfrwt>
<totfact> 0.46142179E+03</totfact>
</mgrwt>
</event>
<event>
 4    1  0.1429937E+004  0.2224246E+02  0.7546771E-02  0.1704092E+00
         -2   -1    0    0    0  501 -0.00000000000E+00  0.00000000000E+00  0.17187770805E+01  0.17187770805E+01  0.00000000000E+00 0. -1.
          2   -1    0    0  501    0  0.00000000000E+00 -0.00000000000E+00 -0.10298016539E+04  0.10298016539E+04  0.00000000000E+00 0.  1.
          2    1    1    2  502    0  0.18073213145E+02  0.12964805563E+02 -0.95182830249E+03  0.95208814962E+03  0.00000000000E+00 0.  1.
         -2    1    1    2    0  502 -0.18073213145E+02 -0.12964805563E+02 -0.76254574324E+02  0.79432281360E+02  0.00000000000E+00 0. -1.
<mgrwt>
<rscale>  2 0.22242464E+02</rscale>
<asrwt>0</asrwt>
<pdfrwt beam="2">  1        2 0.15843174E+00 0.22242464E+02</pdfrwt>
<pdfrwt beam="1">  1       -2 0.26442605E-03 0.22242464E+02</pdfrwt>
<totfact> 0.23632296E+05</totfact>
</mgrwt>
</event>
<event>
 4    1  0.1429937E+004  0.2410108E+02  0.7546771E-02  0.1674259E+00
         -2   -1    0    0    0  501 -0.00000000000E+00  0.00000000000E+00  0.38931491990E+00  0.38931491990E+00  0.00000000000E+00 0.  1.
          2   -1    0    0  501    0  0.00000000000E+00 -0.00000000000E+00 -0.15295491540E+04  0.15295491540E+04  0.00000000000E+00 0. -1.
          2    1    1    2  502    0 -0.23522509089E+02  0.52491712783E+01 -0.88441869652E+03  0.88474702202E+03  0.00000000000E+00 0. -1.
         -2    1    1    2    0  502  0.23522509089E+02 -0.52491712783E+01 -0.64474114256E+03  0.64519144689E+03  0.00000000000E+00 0.  1.
<mgrwt>
<rscale>  2 0.24101084E+02</rscale>
<asrwt>0</asrwt>
<pdfrwt beam="2">  1        2 0.23531737E+00 0.24101084E+02</pdfrwt>
<pdfrwt beam="1">  1       -2 0.59894064E-04 0.24101084E+02</pdfrwt>
<totfact> 0.96946743E+05</totfact>
</mgrwt>
</event>
<event>
 4    1  0.1429937E+004  0.2824796E+02  0.7546771E-02  0.1618304E+00
          2   -1    0    0  501    0  0.00000000000E+00  0.00000000000E+00  0.16148797346E+03  0.16148797346E+03  0.00000000000E+00 0.  1.
         -2   -1    0    0    0  501 -0.00000000000E+00 -0.00000000000E+00 -0.73867659564E+01  0.73867659564E+01  0.00000000000E+00 0. -1.
          2    1    1    2  502    0  0.26968865140E+02  0.84040211468E+01  0.12563486810E+03  0.12877137625E+03  0.00000000000E+00 0.  1.
         -2    1    1    2    0  502 -0.26968865140E+02 -0.84040211468E+01  0.28466339405E+02  0.40103363169E+02  0.00000000000E+00 0. -1.
<mgrwt>
<rscale>  2 0.28247960E+02</rscale>
<asrwt>0</asrwt>
<pdfrwt beam="1">  1        2 0.24844301E-01 0.28247960E+02</pdfrwt>
<pdfrwt beam="2">  1       -2 0.11364257E-02 0.28247960E+02</pdfrwt>
<totfact> 0.24481582E+05</totfact>
</mgrwt>
</event>
<event>
 4    1  0.1429937E+004  0.2152243E+02  0.7546771E-02  0.1716645E+00
         -2   -1    0    0    0  501 -0.00000000000E+00  0.00000000000E+00  0.22120599756E+02  0.22120599756E+02  0.00000000000E+00 0.  1.
          2   -1    0    0  501    0  0.00000000000E+00 -0.00000000000E+00 -0.10737414906E+03  0.10737414906E+03  0.00000000000E+00 0. -1.
          2    1    1    2  502    0  0.21421389187E+02 -0.20830352403E+01 -0.10071844784E+03  0.10299233314E+03  0.00000000000E+00 0. -1.
         -2    1    1    2    0  502 -0.21421389187E+02  0.20830352403E+01  0.15464898529E+02  0.26502415683E+02  0.00000000000E+00 0.  1.
<mgrwt>
<rscale>  2 0.21522429E+02</rscale>
<asrwt>0</asrwt>
<pdfrwt beam="2">  1        2 0.16519100E-01 0.21522429E+02</pdfrwt>
<pdfrwt beam="1">  1       -2 0.34031692E-02 0.21522429E+02</pdfrwt>
<totfact> 0.77939173E+04</totfact>
</mgrwt>
</event>
<event>
 4    1  0.1429937E+004  0.2108352E+02  0.7546771E-02  0.1724602E+00
          2   -1    0    0  501    0  0.00000000000E+00  0.00000000000E+00  0.91982301793E+02  0.91982301793E+02  0.00000000000E+00 0. -1.
         -2   -1    0    0    0  501 -0.00000000000E+00 -0.00000000000E+00 -0.22568478555E+02  0.22568478555E+02  0.00000000000E+00 0. -1.
          2    1    1    2  502    0 -0.23084321008E+01 -0.20956762013E+02  0.85481116037E+02  0.88042807383E+02  0.00000000000E+00 0. -1.
         -2    1    1    2    0  502  0.23084321008E+01  0.20956762013E+02 -0.16067292799E+02  0.26507972965E+02  0.00000000000E+00 0. -1.
<mgrwt>
<rscale>  2 0.21083518E+02</rscale>
<asrwt>0</asrwt>
<pdfrwt beam="1">  1        2 0.14151123E-01 0.21083518E+02</pdfrwt>
<pdfrwt beam="2">  1       -2 0.34720737E-02 0.21083518E+02</pdfrwt>
<totfact> 0.89281666E+04</totfact>
</mgrwt>
</event>
<event>
 4    1  0.1429937E+004  0.2747434E+02  0.7546771E-02  0.1627811E+00
          2   -1    0    0  501    0  0.00000000000E+00  0.00000000000E+00  0.78242949163E+03  0.78242949163E+03  0.00000000000E+00 0. -1.
         -2   -1    0    0    0  501 -0.00000000000E+00 -0.00000000000E+00 -0.34582217374E+01  0.34582217374E+01  0.00000000000E+00 0. -1.
          2    1    1    2  502    0  0.21936447353E+02  0.16541820661E+02  0.72314809325E+03  0.72366981720E+03  0.00000000000E+00 0. -1.
         -2    1    1    2    0  502 -0.21936447353E+02 -0.16541820661E+02  0.55823176646E+02  0.62217896172E+02  0.00000000000E+00 0. -1.
<mgrwt>
<rscale>  2 0.27474344E+02</rscale>
<asrwt>0</asrwt>
<pdfrwt beam="1">  1        2 0.12037363E+00 0.27474344E+02</pdfrwt>
<pdfrwt beam="2">  1       -2 0.53203474E-03 0.27474344E+02</pdfrwt>
<totfact> 0.13514006E+05</totfact>
</mgrwt>
</event>
<event>
 4    1  0.1429937E+004  0.2457236E+02  0.7546771E-02  0.1667221E+00
         -2   -1    0    0    0  501 -0.00000000000E+00  0.00000000000E+00  0.67241534519E+01  0.67241534519E+01  0.00000000000E+00 0.  1.
          2   -1    0    0  501    0  0.00000000000E+00 -0.00000000000E+00 -0.12932761057E+03  0.12932761057E+03  0.00000000000E+00 0. -1.
          2    1    1    2  502    0  0.18391391526E+02 -0.16295924147E+02 -0.23691829944E+02  0.34133608543E+02  0.00000000000E+00 0.  1.
         -2    1    1    2    0  502 -0.18391391526E+02  0.16295924147E+02 -0.98911627172E+02  0.10191815548E+03  0.00000000000E+00 0. -1.
<mgrwt>
<rscale>  2 0.24572363E+02</rscale>
<asrwt>0</asrwt>
<pdfrwt beam="2">  1        2 0.19896555E-01 0.24572363E+02</pdfrwt>
<pdfrwt beam="1">  1       -2 0.10344852E-02 0.24572363E+02</pdfrwt>
<totfact> 0.33846785E+05</totfact>
</mgrwt>
</event>
<event>
 4    1  0.1429937E+004  0.2395902E+02  0.7546771E-02  0.1676420E+00
         -2   -1    0    0    0  501 -0.00000000000E+00  0.00000000000E+00  0.48389618744E+02  0.48389618744E+02  0.00000000000E+00 0. -1.
          2   -1    0    0  501    0  0.00000000000E+00 -0.00000000000E+00 -0.19169453711E+03  0.19169453711E+03  0.00000000000E+00 0.  1.
          2    1    1    2  502    0  0.20027041567E+02 -0.13151128909E+02 -0.18792090049E+03  0.18944207407E+03  0.00000000000E+00 0.  1.
         -2    1    1    2    0  502 -0.20027041567E+02  0.13151128909E+02  0.44615982131E+02  0.50642081780E+02  0.00000000000E+00 0. -1.
<mgrwt>
<rscale>  2 0.23959019E+02</rscale>
<asrwt>0</asrwt>
<pdfrwt beam="2">  1        2 0.29491467E-01 0.23959019E+02</pdfrwt>
<pdfrwt beam="1">  1       -2 0.74445568E-02 0.23959019E+02</pdfrwt>
<totfact> 0.14265176E+04</totfact>
</mgrwt>
</event>
<event>
 4    1  0.1429937E+004  0.5564166E+02  0.7546771E-02  0.1417089E+00
          2   -1    0    0  501    0  0.00000000000E+00  0.00000000000E+00  0.30146633119E+04  0.30146633119E+04  0.00000000000E+00 0.  1.
         -2   -1    0    0    0  501 -0.00000000000E+00 -0.00000000000E+00 -0.13789840796E+01  0.13789840796E+01  0.00000000000E+00 0.  1.
          2    1    1    2  502    0  0.17055972886E+02 -0.52963078808E+02  0.22685504162E+04  0.22692326863E+04  0.00000000000E+00 0.  1.
         -2    1    1    2    0  502 -0.17055972886E+02  0.52963078808E+02  0.74473391166E+03  0.74680960968E+03  0.00000000000E+00 0.  1.
<mgrwt>
<rscale>  2 0.55641656E+02</rscale>
<asrwt>0</asrwt>
<pdfrwt beam="1">  1        2 0.46378908E+00 0.55641656E+02</pdfrwt>
<pdfrwt beam="2">  1       -2 0.21215381E-03 0.55641656E+02</pdfrwt>
<totfact> 0.37416898E+04</totfact>
</mgrwt>
</event>
<event>
 4    1  0.1429937E+004  0.3742762E+02  0.7546771E-02  0.1528042E+00
          2   -1    0    0  501    0  0.00000000000E+00  0.00000000000E+00  0.44205597698E+03  0.44205597698E+03  0.00000000000E+00 0.  1.
         -2   -1    0    0    0  501 -0.00000000000E+00 -0.00000000000E+00 -0.31843842443E+01  0.31843842443E+01  0.00000000000E+00 0.  1.
          2    1    1    2  502    0  0.35936209095E+02 -0.10460125399E+02  0.20390542181E+03  0.20731195429E+03  0.00000000000E+00 0.  1.
         -2    1    1    2    0  502 -0.35936209095E+02  0.10460125399E+02  0.23496617093E+03  0.23792840694E+03  0.00000000000E+00 0.  1.
<mgrwt>
<rscale>  2 0.37427620E+02</rscale>
<asrwt>0</asrwt>
<pdfrwt beam="1">  1        2 0.68008563E-01 0.37427620E+02</pdfrwt>
<pdfrwt beam="2">  1       -2 0.48990562E-03 0.37427620E+02</pdfrwt>
<totfact> 0.29772654E+05</totfact>
</mgrwt>
</event>
<event>
 4    1  0.1429937E+004  0.2050544E+02  0.7546771E-02  0.1735460E+00
          2   -1    0    0  501    0  0.00000000000E+00  0.00000000000E+00  0.58893680357E+03  0.58893680357E+03  0.00000000000E+00 0. -1.
         -2   -1    0    0    0  501 -0.00000000000E+00 -0.00000000000E+00 -0.12167851715E+01  0.12167851715E+01  0.00000000000E+00 0. -1.
          2    1    1    2  502    0 -0.83202179805E+01 -0.18741586716E+02  0.48354794145E+03  0.48398252528E+03  0.00000000000E+00 0. -1.
         -2    1    1    2    0  502  0.83202179805E+01  0.18741586716E+02  0.10417207695E+03  0.10617106346E+03  0.00000000000E+00 0. -1.
<mgrwt>
<rscale>  2 0.20505441E+02</rscale>
<asrwt>0</asrwt>
<pdfrwt beam="1">  1        2 0.90605434E-01 0.20505441E+02</pdfrwt>
<pdfrwt beam="2">  1       -2 0.18719819E-03 0.20505441E+02</pdfrwt>
<totfact> 0.68465921E+05</totfact>
</mgrwt>
</event>
<event>
 4    1  0.1429937E+004  0.2174781E+02  0.7546771E-02  0.1712650E+00
          2   -1    0    0  501    0  0.00000000000E+00  0.00000000000E+00  0.23107730282E+02  0.23107730282E+02  0.00000000000E+00 0. -1.
         -2   -1    0    0    0  501 -0.00000000000E+00 -0.00000000000E+00 -0.20621485990E+02  0.20621485990E+02  0.00000000000E+00 0.  1.
          2    1    1    2  502    0  0.21511556148E+02  0.31967992624E+01 -0.64385237789E+00  0.21757323349E+02  0.00000000000E+00 0. -1.
         -2    1    1    2    0  502 -0.21511556148E+02 -0.31967992624E+01  0.31300966698E+01  0.21971892923E+02  0.00000000000E+00 0.  1.
<mgrwt>
<rscale>  2 0.21747806E+02</rscale>
<asrwt>0</asrwt>
<pdfrwt beam="1">  1        2 0.35550355E-02 0.21747806E+02</pdfrwt>
<pdfrwt beam="2">  1       -2 0.31725363E-02 0.21747806E+02</pdfrwt>
<totfact> 0.52242761E+05</totfact>
</mgrwt>
</event>
<event>
 4    1  0.1429937E+004  0.2011401E+02  0.7546771E-02  0.1743070E+00
          2   -1    0    0  501    0  0.00000000000E+00  0.00000000000E+00  0.38276459648E+02  0.38276459648E+02  0.00000000000E+00 0. -1.
         -2   -1    0    0    0  501 -0.00000000000E+00 -0.00000000000E+00 -0.60481668462E+02  0.60481668462E+02  0.00000000000E+00 0.  1.
          2    1    1    2  502    0  0.16975635461E+02  0.10788941679E+02  0.33754682943E+02  0.39293155669E+02  0.00000000000E+00 0. -1.
         -2    1    1    2    0  502 -0.16975635461E+02 -0.10788941679E+02 -0.55959891757E+02  0.59464972440E+02  0.00000000000E+00 0.  1.
<mgrwt>
<rscale>  2 0.20114012E+02</rscale>
<asrwt>0</asrwt>
<pdfrwt beam="1">  1        2 0.58886861E-02 0.20114012E+02</pdfrwt>
<pdfrwt beam="2">  1       -2 0.93048720E-02 0.20114012E+02</pdfrwt>
<totfact> 0.59450971E+04</totfact>
</mgrwt>
</event>
<event>
 4    1  0.1429937E+004  0.2950003E+02  0.7546771E-02  0.1603682E+00
          2   -1    0    0  501    0  0.00000000000E+00  0.00000000000E+00  0.30771591696E+02  0.30771591696E+02  0.00000000000E+00 0. -1.
         -2   -1    0    0    0  501 -0.00000000000E+00 -0.00000000000E+00 -0.30316015891E+03  0.30316015891E+03  0.00000000000E+00 0. -1.
          2    1    1    2  502    0  0.28512776669E+02 -0.75678981203E+01  0.22793062088E+02  0.37279688769E+02  0.00000000000E+00 0. -1.
         -2    1    1    2    0  502 -0.28512776669E+02  0.75678981203E+01 -0.29518162930E+03  0.29665206183E+03  0.00000000000E+00 0. -1.
<mgrwt>
<rscale>  2 0.29500026E+02</rscale>
<asrwt>0</asrwt>
<pdfrwt beam="1">  1        2 0.47340910E-02 0.29500026E+02</pdfrwt>
<pdfrwt beam="2">  1       -2 0.46640025E-01 0.29500026E+02</pdfrwt>
<totfact> 0.59274172E+03</totfact>
</mgrwt>
</event>
<event>
 4    1  0.1429937E+004  0.2205388E+02  0.7546771E-02  0.1707322E+00
          2   -1    0    0  501    0  0.00000000000E+00  0.00000000000E+00  0.82642532298E+03  0.82642532298E+03  0.00000000000E+00 0. -1.
         -2   -1    0    0    0  501 -0.00000000000E+00 -0.00000000000E+00 -0.59000012833E+00  0.59000012833E+00  0.00000000000E+00 0. -1.
          2    1    1    2  502    0  0.18630263062E+02  0.11801985192E+02  0.43358042794E+03  0.43414094606E+03  0.00000000000E+00 0. -1.
         -2    1    1    2    0  502 -0.18630263062E+02 -0.11801985192E+02  0.39225489491E+03  0.39287437705E+03  0.00000000000E+00 0. -1.
<mgrwt>
<rscale>  2 0.22053878E+02</rscale>
<asrwt>0</asrwt>
<pdfrwt beam="1">  1        2 0.12714143E+00 0.22053878E+02</pdfrwt>
<pdfrwt beam="2">  1       -2 0.90769912E-04 0.22053878E+02</pdfrwt>
<totfact> 0.12585493E+06</totfact>
</mgrwt>
</event>
<event>
 4    1  0.1429937E+004  0.2136645E+02  0.7546771E-02  0.1719445E+00
         -2   -1    0    0    0  501 -0.00000000000E+00  0.00000000000E+00  0.31108811880E+00  0.31108811880E+00  0.00000000000E+00 0.  1.
          2   -1    0    0  501    0  0.00000000000E+00 -0.00000000000E+00 -0.17393750120E+04  0.17393750120E+04  0.00000000000E+00 0.  1.
          2    1    1    2  502    0  0.18968595702E+02 -0.98345110125E+01 -0.12134224490E+04  0.12136105491E+04  0.00000000000E+00 0.  1.
         -2    1    1    2    0  502 -0.18968595702E+02  0.98345110125E+01 -0.52564147490E+03  0.52607555100E+03  0.00000000000E+00 0.  1.
<mgrwt>
<rscale>  2 0.21366451E+02</rscale>
<asrwt>0</asrwt>
<pdfrwt beam="2">  1        2 0.26759250E+00 0.21366451E+02</pdfrwt>
<pdfrwt beam="1">  1       -2 0.47860364E-04 0.21366451E+02</pdfrwt>
<totfact> 0.10045306E+06</totfact>
</mgrwt>
</event>
<event>
 4    1  0.1429937E+004  0.2477469E+02  0.7546771E-02  0.1664259E+00
          2   -1    0    0  501    0  0.00000000000E+00  0.00000000000E+00  0.31362136784E+03  0.31362136784E+03  0.00000000000E+00 0. -1.
         -2   -1    0    0    0  501 -0.00000000000E+00 -0.00000000000E+00 -0.19700845691E+01  0.19700845691E+01  0.00000000000E+00 0. -1.
          2    1    1    2  502    0  0.10565950038E+02  0.22408608258E+02  0.16864143174E+03  0.17045151077E+03  0.00000000000E+00 0. -1.
         -2    1    1    2    0  502 -0.10565950038E+02 -0.22408608258E+02  0.14300985153E+03  0.14513994164E+03  0.00000000000E+00 0. -1.
<mgrwt>
<rscale>  2 0.24774685E+02</rscale>
<asrwt>0</asrwt>
<pdfrwt beam="1">  1        2 0.48249401E-01 0.24774685E+02</pdfrwt>
<pdfrwt beam="2">  1       -2 0.30309018E-03 0.24774685E+02</pdfrwt>
<totfact> 0.71872876E+05</totfact>
</mgrwt>
</event>
<event>
 4    1  0.1429937E+004  0.4146748E+02  0.7546771E-02  0.1497682E+00
         -2   -1    0    0    0  501 -0.00000000000E+00  0.00000000000E+00  0.28519296710E+01  0.28519296710E+01  0.00000000000E+00 0. -1.
          2   -1    0    0  501    0  0.00000000000E+00 -0.00000000000E+00 -0.96791956829E+03  0.96791956829E+03  0.00000000000E+00 0.  1.
          2    1    1    2  502    0  0.10861476572E+02  0.40019752254E+02 -0.78059102461E+03  0.78169169111E+03  0.00000000000E+00 0.  1.
         -2    1    1    2    0  502 -0.10861476572E+02 -0.40019752254E+02 -0.18447661400E+03  0.18907980685E+03  0.00000000000E+00 0. -1.
<mgrwt>
<rscale>  2 0.41467484E+02</rscale>
<asrwt>0</asrwt>
<pdfrwt beam="2">  1        2 0.14891080E+00 0.41467484E+02</pdfrwt>
<pdfrwt beam="1">  1       -2 0.43875812E-03 0.41467484E+02</pdfrwt>
<totfact> 0.14763193E+05</totfact>
</mgrwt>
</event>
<event>
 4    1  0.1429937E+004  0.2077727E+02  0.7546771E-02  0.1730299E+00
          2   -1    0    0  501    0  0.00000000000E+00  0.00000000000E+00  0.21939938853E+03  0.21939938853E+03  0.00000000000E+00 0. -1.
         -2   -1    0    0    0  501 -0.00000000000E+00 -0.00000000000E+00 -0.48308845537E+01  0.48308845537E+01  0.00000000000E+00 0.  1.
          2    1    1    2  502    0  0.86077973132E+01  0.18910329911E+02  0.19359832589E+03  0.19471005762E+03  0.00000000000E+00 0. -1.
         -2    1    1    2    0  502 -0.86077973132E+01 -0.18910329911E+02  0.20970178087E+02  0.29520215462E+02  0.00000000000E+00 0.  1.
<mgrwt>
<rscale>  2 0.20777265E+02</rscale>
<asrwt>0</asrwt>
<pdfrwt beam="1">  1        2 0.33753744E-01 0.20777265E+02</pdfrwt>
<pdfrwt beam="2">  1       -2 0.74321318E-03 0.20777265E+02</pdfrwt>
<totfact> 0.29256960E+05</totfact>
</mgrwt>
</event>
<event>
 4    1  0.1429937E+004  0.3388154E+02  0.7546771E-02  0.1558763E+00
          2   -1    0    0  501    0  0.00000000000E+00  0.00000000000E+00  0.48511191931E+03  0.48511191931E+03  0.00000000000E+00 0. -1.
         -2   -1    0    0    0  501 -0.00000000000E+00 -0.00000000000E+00 -0.42948316653E+02  0.42948316653E+02  0.00000000000E+00 0.  1.
          2    1    1    2  502    0 -0.31913499213E+02 -0.11379257245E+02  0.47773506027E+03  0.47893501307E+03  0.00000000000E+00 0. -1.
         -2    1    1    2    0  502  0.31913499213E+02  0.11379257245E+02 -0.35571457617E+02  0.49125222895E+02  0.00000000000E+00 0.  1.
<mgrwt>
<rscale>  2 0.33881543E+02</rscale>
<asrwt>0</asrwt>
<pdfrwt beam="1">  1        2 0.74632599E-01 0.33881543E+02</pdfrwt>
<pdfrwt beam="2">  1       -2 0.66074337E-02 0.33881543E+02</pdfrwt>
<totfact> 0.70017355E+03</totfact>
</mgrwt>
</event>
<event>
 4    1  0.1429937E+004  0.4300707E+02  0.7546771E-02  0.1487181E+00
          2   -1    0    0  501    0  0.00000000000E+00  0.00000000000E+00  0.10289353550E+03  0.10289353550E+03  0.00000000000E+00 0. -1.
         -2   -1    0    0    0  501 -0.00000000000E+00 -0.00000000000E+00 -0.30246624236E+02  0.30246624236E+02  0.00000000000E+00 0.  1.
          2    1    1    2  502    0 -0.41181659534E+02  0.12396720337E+02  0.78724353981E+02  0.89705806205E+02  0.00000000000E+00 0. -1.
         -2    1    1    2    0  502  0.41181659534E+02 -0.12396720337E+02 -0.60774427133E+01  0.43434353535E+02  0.00000000000E+00 0.  1.
<mgrwt>
<rscale>  2 0.43007066E+02</rscale>
<asrwt>0</asrwt>
<pdfrwt beam="1">  1        2 0.15829775E-01 0.43007066E+02</pdfrwt>
<pdfrwt beam="2">  1       -2 0.46533269E-02 0.43007066E+02</pdfrwt>
<totfact> 0.60557674E+04</totfact>
</mgrwt>
</event>
<event>
 4    1  0.1429937E+004  0.3701439E+02  0.7546771E-02  0.1531407E+00
          2   -1    0    0  501    0  0.00000000000E+00  0.00000000000E+00  0.11478544678E+04  0.11478544678E+04  0.00000000000E+00 0. -1.
         -2   -1    0    0    0  501 -0.00000000000E+00 -0.00000000000E+00 -0.11013528697E+02  0.11013528697E+02  0.00000000000E+00 0. -1.
          2    1    1    2  502    0 -0.25810636304E+02  0.26530663440E+02  0.11155563141E+04  0.11161702178E+04  0.00000000000E+00 0. -1.
         -2    1    1    2    0  502  0.25810636304E+02 -0.26530663440E+02  0.21284625003E+02  0.42697778754E+02  0.00000000000E+00 0. -1.
<mgrwt>
<rscale>  2 0.37014390E+02</rscale>
<asrwt>0</asrwt>
<pdfrwt beam="1">  1        2 0.17659290E+00 0.37014390E+02</pdfrwt>
<pdfrwt beam="2">  1       -2 0.16943899E-02 0.37014390E+02</pdfrwt>
<totfact> 0.18012869E+04</totfact>
</mgrwt>
</event>
<event>
 4    1  0.1429937E+004  0.2054037E+02  0.7546771E-02  0.1734791E+00
          2   -1    0    0  501    0  0.00000000000E+00  0.00000000000E+00  0.16083281777E+04  0.16083281777E+04  0.00000000000E+00 0.  1.
         -2   -1    0    0    0  501 -0.00000000000E+00 -0.00000000000E+00 -0.27033050417E+00  0.27033050417E+00  0.00000000000E+00 0.  1.
          2    1    1    2  502    0  0.19814232105E+02  0.54132071747E+01  0.94242767004E+03  0.94265148377E+03  0.00000000000E+00 0.  1.
         -2    1    1    2    0  502 -0.19814232105E+02 -0.54132071747E+01  0.66563017715E+03  0.66594702442E+03  0.00000000000E+00 0.  1.
<mgrwt>
<rscale>  2 0.20540365E+02</rscale>
<asrwt>0</asrwt>
<pdfrwt beam="1">  1        2 0.24742744E+00 0.20540365E+02</pdfrwt>
<pdfrwt beam="2">  1       -2 0.41590596E-04 0.20540365E+02</pdfrwt>
<totfact> 0.13715416E+06</totfact>
</mgrwt>
</event>
<event>
 4    1  0.1429937E+004  0.5894123E+02  0.7546771E-02  0.1402329E+00
          2   -1    0    0  501    0  0.00000000000E+00  0.00000000000E+00  0.29130088019E+02  0.29130088019E+02  0.00000000000E+00 0. -1.
         -2   -1    0    0    0  501 -0.00000000000E+00 -0.00000000000E+00 -0.16822339429E+03  0.16822339429E+03  0.00000000000E+00 0. -1.
          2    1    1    2  502    0 -0.54653618664E+02 -0.22069217776E+02 -0.16310678092E+02  0.61156411162E+02  0.00000000000E+00 0. -1.
         -2    1    1    2    0  502  0.54653618664E+02  0.22069217776E+02 -0.12278262818E+03  0.13619707115E+03  0.00000000000E+00 0. -1.
<mgrwt>
<rscale>  2 0.58941228E+02</rscale>
<asrwt>0</asrwt>
<pdfrwt beam="1">  1        2 0.44815520E-02 0.58941228E+02</pdfrwt>
<pdfrwt beam="2">  1       -2 0.25880522E-01 0.58941228E+02</pdfrwt>
<totfact> 0.20208411E+04</totfact>
</mgrwt>
</event>
<event>
 4    1  0.1429937E+004  0.2322436E+02  0.7546771E-02  0.1687899E+00
         -2   -1    0    0    0  501 -0.00000000000E+00  0.00000000000E+00  0.52850216909E+00  0.52850216909E+00  0.00000000000E+00 0. -1.
          2   -1    0    0  501    0  0.00000000000E+00 -0.00000000000E+00 -0.12160521105E+04  0.12160521105E+04  0.00000000000E+00 0. -1.
          2    1    1    2  502    0 -0.51237661101E+01  0.22652104297E+02 -0.85165174216E+03  0.85196834492E+03  0.00000000000E+00 0. -1.
         -2    1    1    2    0  502  0.51237661101E+01 -0.22652104297E+02 -0.36387186622E+03  0.36461226780E+03  0.00000000000E+00 0. -1.
<mgrwt>
<rscale>  2 0.23224358E+02</rscale>
<asrwt>0</asrwt>
<pdfrwt beam="2">  1        2 0.18708485E+00 0.23224358E+02</pdfrwt>
<pdfrwt beam="1">  1       -2 0.81308066E-04 0.23224358E+02</pdfrwt>
<totfact> 0.90972144E+05</totfact>
</mgrwt>
</event>
<event>
 4    1  0.1429937E+004  0.2126739E+02  0.7546771E-02  0.1721239E+00
          2   -1    0    0  501    0  0.00000000000E+00  0.00000000000E+00  0.19536419648E+03  0.19536419648E+03  0.00000000000E+00 0.  1.
         -2   -1    0    0    0  501 -0.00000000000E+00 -0.00000000000E+00 -0.23920605624E+01  0.23920605624E+01  0.00000000000E+00 0.  1.
          2    1    1    2  502    0 -0.14076204242E+02  0.15942464841E+02  0.11421347086E+03  0.11617666993E+03  0.00000000000E+00 0.  1.
         -2    1    1    2    0  502  0.14076204242E+02 -0.15942464841E+02  0.78758665055E+02  0.81579587105E+02  0.00000000000E+00 0.  1.
<mgrwt>
<rscale>  2 0.21267386E+02</rscale>
<asrwt>0</asrwt>
<pdfrwt beam="1">  1        2 0.30056018E-01 0.21267386E+02</pdfrwt>
<pdfrwt beam="2">  1       -2 0.36800947E-03 0.21267386E+02</pdfrwt>
<totfact> 0.84627042E+05</totfact>
</mgrwt>
</event>
<event>
 4    1  0.1429937E+004  0.2165686E+02  0.7546771E-02  0.1714255E+00
         -2   -1    0    0    0  501 -0.00000000000E+00  0.00000000000E+00  0.63468709256E+01  0.63468709256E+01  0.00000000000E+00 0.  1.
          2   -1    0    0  501    0  0.00000000000E+00 -0.00000000000E+00 -0.13280992833E+03  0.13280992833E+03  0.00000000000E+00 0.  1.
          2    1    1    2  502    0  0.21312913348E+02 -0.38444118312E+01 -0.10957211590E+03  0.11169184554E+03  0.00000000000E+00 0.  1.
         -2    1    1    2    0  502 -0.21312913348E+02  0.38444118312E+01 -0.16890941509E+02  0.27464953718E+02  0.00000000000E+00 0.  1.
<mgrwt>
<rscale>  2 0.21656864E+02</rscale>
<asrwt>0</asrwt>
<pdfrwt beam="2">  1        2 0.20432294E-01 0.21656864E+02</pdfrwt>
<pdfrwt beam="1">  1       -2 0.97644181E-03 0.21656864E+02</pdfrwt>
<totfact> 0.34293427E+05</totfact>
</mgrwt>
</event>
<event>
 4    1  0.1429937E+004  0.2153610E+02  0.7546771E-02  0.1716401E+00
         -2   -1    0    0    0  501 -0.00000000000E+00  0.00000000000E+00  0.94222657126E+02  0.94222657126E+02  0.00000000000E+00 0.  1.
          2   -1    0    0  501    0  0.00000000000E+00 -0.00000000000E+00 -0.58159348162E+03  0.58159348162E+03  0.00000000000E+00 0.  1.
          2    1    1    2  502    0 -0.62525991056E-01  0.21536009156E+02 -0.58016047014E+03  0.58056005264E+03  0.00000000000E+00 0.  1.
         -2    1    1    2    0  502  0.62525991056E-01 -0.21536009156E+02  0.92789645653E+02  0.95256086107E+02  0.00000000000E+00 0.  1.
<mgrwt>
<rscale>  2 0.21536100E+02</rscale>
<asrwt>0</asrwt>
<pdfrwt beam="2">  1        2 0.89475917E-01 0.21536100E+02</pdfrwt>
<pdfrwt beam="1">  1       -2 0.14495794E-01 0.21536100E+02</pdfrwt>
<totfact> 0.17197148E+03</totfact>
</mgrwt>
</event>
<event>
 4    1  0.1429937E+004  0.2211776E+02  0.7546771E-02  0.1706223E+00
         -2   -1    0    0    0  501 -0.00000000000E+00  0.00000000000E+00  0.27548658706E+03  0.27548658706E+03  0.00000000000E+00 0.  1.
          2   -1    0    0  501    0  0.00000000000E+00 -0.00000000000E+00 -0.22650279718E+01  0.22650279718E+01  0.00000000000E+00 0.  1.
          2    1    1    2  502    0 -0.16872443422E+02  0.14300906918E+02  0.72065025552E+02  0.75382777831E+02  0.00000000000E+00 0.  1.
         -2    1    1    2    0  502  0.16872443422E+02 -0.14300906918E+02  0.20115653353E+03  0.20236883720E+03  0.00000000000E+00 0.  1.
<mgrwt>
<rscale>  2 0.22117760E+02</rscale>
<asrwt>0</asrwt>
<pdfrwt beam="2">  1        2 0.34846606E-03 0.22117760E+02</pdfrwt>
<pdfrwt beam="1">  1       -2 0.42382525E-01 0.22117760E+02</pdfrwt>
<totfact> 0.19393140E+05</totfact>
</mgrwt>
</event>
<event>
 4    1  0.1429937E+004  0.2538029E+02  0.7546771E-02  0.1655599E+00
          2   -1    0    0  501    0  0.00000000000E+00  0.00000000000E+00  0.12827948406E+02  0.12827948406E+02  0.00000000000E+00 0. -1.
         -2   -1    0    0    0  501 -0.00000000000E+00 -0.00000000000E+00 -0.62141783021E+03  0.62141783021E+03  0.00000000000E+00 0. -1.
          2    1    1    2  502    0  0.25153162136E+02  0.33878431780E+01 -0.25488572404E+00  0.25381568383E+02  0.00000000000E+00 0. -1.
         -2    1    1    2    0  502 -0.25153162136E+02 -0.33878431780E+01 -0.60833499608E+03  0.60886421023E+03  0.00000000000E+00 0. -1.
<mgrwt>
<rscale>  2 0.25380289E+02</rscale>
<asrwt>0</asrwt>
<pdfrwt beam="1">  1        2 0.19735311E-02 0.25380289E+02</pdfrwt>
<pdfrwt beam="2">  1       -2 0.95602717E-01 0.25380289E+02</pdfrwt>
<totfact> 0.40687868E+03</totfact>
</mgrwt>
</event>
<event>
 4    1  0.1429937E+004  0.2053373E+02  0.7546771E-02  0.1734918E+00
         -2   -1    0    0    0  501 -0.00000000000E+00  0.00000000000E+00  0.33987819989E+01  0.33987819989E+01  0.00000000000E+00 0.  1.
          2   -1    0    0  501    0  0.00000000000E+00 -0.00000000000E+00 -0.31356605862E+03  0.31356605862E+03  0.00000000000E+00 0.  1.
          2    1    1    2  502    0  0.58166630742E+01 -0.19692650966E+02 -0.27829037848E+03  0.27904689359E+03  0.00000000000E+00 0.  1.
         -2    1    1    2    0  502 -0.58166630742E+01  0.19692650966E+02 -0.31876898149E+02  0.37917947030E+02  0.00000000000E+00 0.  1.
<mgrwt>
<rscale>  2 0.20533730E+02</rscale>
<asrwt>0</asrwt>
<pdfrwt beam="2">  1        2 0.48240933E-01 0.20533730E+02</pdfrwt>
<pdfrwt beam="1">  1       -2 0.52288953E-03 0.20533730E+02</pdfrwt>
<totfact> 0.32817060E+05</totfact>
</mgrwt>
</event>
<event>
 4    1  0.1429937E+004  0.3032702E+02  0.7546771E-02  0.1594502E+00
         -2   -1    0    0    0  501 -0.00000000000E+00  0.00000000000E+00  0.28519812297E+01  0.28519812297E+01  0.00000000000E+00 0.  1.
          2   -1    0    0  501    0  0.00000000000E+00 -0.00000000000E+00 -0.32928074598E+03  0.32928074598E+03  0.00000000000E+00 0.  1.
          2    1    1    2  502    0 -0.15330614293E+01 -0.30288228136E+02 -0.13936092954E+03  0.14262256386E+03  0.00000000000E+00 0.  1.
         -2    1    1    2    0  502  0.15330614293E+01  0.30288228136E+02 -0.18706783521E+03  0.18951016335E+03  0.00000000000E+00 0.  1.
<mgrwt>
<rscale>  2 0.30327017E+02</rscale>
<asrwt>0</asrwt>
<pdfrwt beam="2">  1        2 0.50658561E-01 0.30327017E+02</pdfrwt>
<pdfrwt beam="1">  1       -2 0.43876647E-03 0.30327017E+02</pdfrwt>
<totfact> 0.44142419E+05</totfact>
</mgrwt>
</event>
<event>
 4    1  0.1429937E+004  0.2177359E+02  0.7546771E-02  0.1712197E+00
         -2   -1    0    0    0  501 -0.00000000000E+00  0.00000000000E+00  0.35967920228E+00  0.35967920228E+00  0.00000000000E+00 0.  1.
          2   -1    0    0  501    0  0.00000000000E+00 -0.00000000000E+00 -0.19353387558E+04  0.19353387558E+04  0.00000000000E+00 0.  1.
          2    1    1    2  502    0 -0.69662757918E+01 -0.20629116030E+02 -0.15140767271E+04  0.15142332796E+04  0.00000000000E+00 0.  1.
         -2    1    1    2    0  502  0.69662757918E+01  0.20629116030E+02 -0.42090234942E+03  0.42146515535E+03  0.00000000000E+00 0.  1.
<mgrwt>
<rscale>  2 0.21773595E+02</rscale>
<asrwt>0</asrwt>
<pdfrwt beam="2">  1        2 0.29773915E+00 0.21773595E+02</pdfrwt>
<pdfrwt beam="1">  1       -2 0.55336243E-04 0.21773595E+02</pdfrwt>
<totfact> 0.67792105E+05</totfact>
</mgrwt>
</event>
<event>
 4    1  0.1429937E+004  0.7153874E+02  0.7546771E-02  0.1354937E+00
          2   -1    0    0  501    0  0.00000000000E+00  0.00000000000E+00  0.11884728292E+04  0.11884728292E+04  0.00000000000E+00 0. -1.
         -2   -1    0    0    0  501 -0.00000000000E+00 -0.00000000000E+00 -0.75966192485E+02  0.75966192485E+02  0.00000000000E+00 0.  1.
          2    1    1    2  502    0  0.38459667165E+02 -0.60321188566E+02  0.11702925492E+04  0.11724770542E+04  0.00000000000E+00 0. -1.
         -2    1    1    2    0  502 -0.38459667165E+02  0.60321188566E+02 -0.57785912496E+02  0.91961967527E+02  0.00000000000E+00 0.  1.
<mgrwt>
<rscale>  2 0.71538743E+02</rscale>
<asrwt>0</asrwt>
<pdfrwt beam="1">  1        2 0.18284196E+00 0.71538743E+02</pdfrwt>
<pdfrwt beam="2">  1       -2 0.11687107E-01 0.71538743E+02</pdfrwt>
<totfact> 0.10575268E+03</totfact>
</mgrwt>
</event>
<event>
 4    1  0.1429937E+004  0.2785753E+02  0.7546771E-02  0.1623054E+00
         -2   -1    0    0    0  501 -0.00000000000E+00  0.00000000000E+00  0.16347995262E+03  0.16347995262E+03  0.00000000000E+00 0. -1.
          2   -1    0    0  501    0  0.00000000000E+00 -0.00000000000E+00 -0.10583797064E+02  0.10583797064E+02  0.00000000000E+00 0.  1.
          2    1    1    2  502    0 -0.20207378949E+01 -0.27784145213E+02  0.11816575100E+02  0.30260098380E+02  0.00000000000E+00 0.  1.
         -2    1    1    2    0  502  0.20207378949E+01  0.27784145213E+02  0.14107958046E+03  0.14380365130E+03  0.00000000000E+00 0. -1.
<mgrwt>
<rscale>  2 0.27857532E+02</rscale>
<asrwt>0</asrwt>
<pdfrwt beam="2">  1        2 0.16282766E-02 0.27857532E+02</pdfrwt>
<pdfrwt beam="1">  1       -2 0.25150760E-01 0.27857532E+02</pdfrwt>
<totfact> 0.68361753E+04</totfact>
</mgrwt>
</event>
<event>
 4    1  0.1429937E+004  0.3097099E+02  0.7546771E-02  0.1587597E+00
          2   -1    0    0  501    0  0.00000000000E+00  0.00000000000E+00  0.20274536385E+03  0.20274536385E+03  0.00000000000E+00 0.  1.
         -2   -1    0    0    0  501 -0.00000000000E+00 -0.00000000000E+00 -0.22253173231E+03  0.22253173231E+03  0.00000000000E+00 0. -1.
          2    1    1    2  502    0 -0.13940841390E+02  0.27656017933E+02  0.20047285128E+03  0.20285109437E+03  0.00000000000E+00 0.  1.
         -2    1    1    2    0  502  0.13940841390E+02 -0.27656017933E+02 -0.22025921974E+03  0.22242600178E+03  0.00000000000E+00 0. -1.
<mgrwt>
<rscale>  2 0.30970993E+02</rscale>
<asrwt>0</asrwt>
<pdfrwt beam="1">  1        2 0.31191594E-01 0.30970993E+02</pdfrwt>
<pdfrwt beam="2">  1       -2 0.34235651E-01 0.30970993E+02</pdfrwt>
<totfact> 0.12312565E+03</totfact>
</mgrwt>
</event>
<event>
 4    1  0.1429937E+004  0.4226003E+02  0.7546771E-02  0.1492209E+00
         -2   -1    0    0    0  501 -0.00000000000E+00  0.00000000000E+00  0.41528831507E+02  0.41528831507E+02  0.00000000000E+00 0.  1.
          2   -1    0    0  501    0  0.00000000000E+00 -0.00000000000E+00 -0.74182123934E+03  0.74182123934E+03  0.00000000000E+00 0. -1.
          2    1    1    2  502    0 -0.30942645574E+02  0.28783024797E+02 -0.73029886510E+03  0.73152056854E+03  0.00000000000E+00 0. -1.
         -2    1    1    2    0  502  0.30942645574E+02 -0.28783024797E+02  0.30006457267E+02  0.51829502306E+02  0.00000000000E+00 0.  1.
<mgrwt>
<rscale>  2 0.42260026E+02</rscale>
<asrwt>0</asrwt>
<pdfrwt beam="2">  1        2 0.11412634E+00 0.42260026E+02</pdfrwt>
<pdfrwt beam="1">  1       -2 0.63890514E-02 0.42260026E+02</pdfrwt>
<totfact> 0.47493336E+03</totfact>
</mgrwt>
</event>
<event>
 4    1  0.1429937E+004  0.2133574E+02  0.7546771E-02  0.1720000E+00
         -2   -1    0    0    0  501 -0.00000000000E+00  0.00000000000E+00  0.17586283380E+03  0.17586283380E+03  0.00000000000E+00 0. -1.
          2   -1    0    0  501    0  0.00000000000E+00 -0.00000000000E+00 -0.18298446889E+03  0.18298446889E+03  0.00000000000E+00 0.  1.
          2    1    1    2  502    0  0.18374661629E+02  0.10843683912E+02 -0.18171090492E+03  0.18295919391E+03  0.00000000000E+00 0.  1.
         -2    1    1    2    0  502 -0.18374661629E+02 -0.10843683912E+02  0.17458926983E+03  0.17588810878E+03  0.00000000000E+00 0. -1.
<mgrwt>
<rscale>  2 0.21335737E+02</rscale>
<asrwt>0</asrwt>
<pdfrwt beam="2">  1        2 0.28151457E-01 0.21335737E+02</pdfrwt>
<pdfrwt beam="1">  1       -2 0.27055821E-01 0.21335737E+02</pdfrwt>
<totfact> 0.19905431E+03</totfact>
</mgrwt>
</event>
<event>
 4    1  0.1429937E+004  0.3975504E+02  0.7546771E-02  0.1510022E+00
          2   -1    0    0  501    0  0.00000000000E+00  0.00000000000E+00  0.55575810147E+01  0.55575810147E+01  0.00000000000E+00 0. -1.
         -2   -1    0    0    0  501 -0.00000000000E+00 -0.00000000000E+00 -0.38144742795E+03  0.38144742795E+03  0.00000000000E+00 0.  1.
          2    1    1    2  502    0 -0.34121127341E+02 -0.20401270878E+02 -0.90332141104E+02  0.98693256614E+02  0.00000000000E+00 0. -1.
         -2    1    1    2    0  502  0.34121127341E+02  0.20401270878E+02 -0.28555770584E+03  0.28831175236E+03  0.00000000000E+00 0.  1.
<mgrwt>
<rscale>  2 0.39755040E+02</rscale>
<asrwt>0</asrwt>
<pdfrwt beam="1">  1        2 0.85501242E-03 0.39755040E+02</pdfrwt>
<pdfrwt beam="2">  1       -2 0.58684223E-01 0.39755040E+02</pdfrwt>
<totfact> 0.36879043E+04</totfact>
</mgrwt>
</event>
<event>
 4    1  0.1429937E+004  0.2837439E+02  0.7546771E-02  0.1616785E+00
         -2   -1    0    0    0  501 -0.00000000000E+00  0.00000000000E+00  0.65306155292E+01  0.65306155292E+01  0.00000000000E+00 0.  1.
          2   -1    0    0  501    0  0.00000000000E+00 -0.00000000000E+00 -0.16456030004E+04  0.16456030004E+04  0.00000000000E+00 0.  1.
          2    1    1    2  502    0  0.77044745488E+01  0.27308369846E+02 -0.16140579337E+04  0.16143073187E+04  0.00000000000E+00 0.  1.
         -2    1    1    2    0  502 -0.77044745488E+01 -0.27308369846E+02 -0.25014451168E+02  0.37826297188E+02  0.00000000000E+00 0.  1.
<mgrwt>
<rscale>  2 0.28374390E+02</rscale>
<asrwt>0</asrwt>
<pdfrwt beam="2">  1        2 0.25316963E+00 0.28374390E+02</pdfrwt>
<pdfrwt beam="1">  1       -2 0.10047103E-02 0.28374390E+02</pdfrwt>
<totfact> 0.20403441E+04</totfact>
</mgrwt>
</event>
<event>
 4    1  0.1429937E+004  0.2277771E+02  0.7546771E-02  0.1695139E+00
          2   -1    0    0  501    0  0.00000000000E+00  0.00000000000E+00  0.83692163267E+02  0.83692163267E+02  0.00000000000E+00 0. -1.
         -2   -1    0    0    0  501 -0.00000000000E+00 -0.00000000000E+00 -0.62231578253E+01  0.62231578253E+01  0.00000000000E+00 0.  1.
          2    1    1    2  502    0  0.62884657431E+01 -0.21892438913E+02  0.35944491386E+02  0.42553849931E+02  0.00000000000E+00 0. -1.
         -2    1    1    2    0  502 -0.62884657431E+01  0.21892438913E+02  0.41524514056E+02  0.47361471161E+02  0.00000000000E+00 0.  1.
<mgrwt>
<rscale>  2 0.22777713E+02</rscale>
<asrwt>0</asrwt>
<pdfrwt beam="1">  1        2 0.12875717E-01 0.22777713E+02</pdfrwt>
<pdfrwt beam="2">  1       -2 0.95740896E-03 0.22777713E+02</pdfrwt>
<totfact> 0.59032470E+05</totfact>
</mgrwt>
</event>
<event>
 4    1  0.1429937E+004  0.2139746E+02  0.7546771E-02  0.1718886E+00
         -2   -1    0    0    0  501 -0.00000000000E+00  0.00000000000E+00  0.12083160324E+02  0.12083160324E+02  0.00000000000E+00 0. -1.
          2   -1    0    0  501    0  0.00000000000E+00 -0.00000000000E+00 -0.41293158104E+03  0.41293158104E+03  0.00000000000E+00 0.  1.
          2    1    1    2  502    0  0.13512905673E+02  0.16590743810E+02 -0.40294689633E+03  0.40351462509E+03  0.00000000000E+00 0.  1.
         -2    1    1    2    0  502 -0.13512905673E+02 -0.16590743810E+02  0.20984756137E+01  0.21500116274E+02  0.00000000000E+00 0. -1.
<mgrwt>
<rscale>  2 0.21397462E+02</rscale>
<asrwt>0</asrwt>
<pdfrwt beam="2">  1        2 0.63527933E-01 0.21397462E+02</pdfrwt>
<pdfrwt beam="1">  1       -2 0.18589478E-02 0.21397462E+02</pdfrwt>
<totfact> 0.45792362E+04</totfact>
</mgrwt>
</event>
<event>
 4    1  0.1429937E+004  0.2404052E+02  0.7546771E-02  0.1675178E+00
          2   -1    0    0  501    0  0.00000000000E+00  0.00000000000E+00  0.33057901455E+03  0.33057901455E+03  0.00000000000E+00 0. -1.
         -2   -1    0    0    0  501 -0.00000000000E+00 -0.00000000000E+00 -0.13405525761E+02  0.13405525761E+02  0.00000000000E+00 0. -1.
          2    1    1    2  502    0 -0.15777483656E+02 -0.18138836873E+02  0.31897216328E+03  0.31987683151E+03  0.00000000000E+00 0. -1.
         -2    1    1    2    0  502  0.15777483656E+02  0.18138836873E+02 -0.17986744860E+01  0.24107708799E+02  0.00000000000E+00 0. -1.
<mgrwt>
<rscale>  2 0.24040516E+02</rscale>
<asrwt>0</asrwt>
<pdfrwt beam="1">  1        2 0.50858304E-01 0.24040516E+02</pdfrwt>
<pdfrwt beam="2">  1       -2 0.20623888E-02 0.24040516E+02</pdfrwt>
<totfact> 0.50650022E+04</totfact>
</mgrwt>
</event>
<event>
 4    1  0.1429937E+004  0.2877170E+02  0.7546771E-02  0.1612077E+00
          2   -1    0    0  501    0  0.00000000000E+00  0.00000000000E+00  0.56018298940E+03  0.56018298940E+03  0.00000000000E+00 0. -1.
         -2   -1    0    0    0  501 -0.00000000000E+00 -0.00000000000E+00 -0.48443317994E+02  0.48443317994E+02  0.00000000000E+00 0.  1.
          2    1    1    2  502    0 -0.49617491664E+01 -0.28340638610E+02  0.55550554595E+03  0.55625014367E+03  0.00000000000E+00 0. -1.
         -2    1    1    2    0  502  0.49617491664E+01  0.28340638610E+02 -0.43765874546E+02  0.52376163723E+02  0.00000000000E+00 0.  1.
<mgrwt>
<rscale>  2 0.28771701E+02</rscale>
<asrwt>0</asrwt>
<pdfrwt beam="1">  1        2 0.86181994E-01 0.28771701E+02</pdfrwt>
<pdfrwt beam="2">  1       -2 0.74528186E-02 0.28771701E+02</pdfrwt>
<totfact> 0.49739466E+03</totfact>
</mgrwt>
</event>
<event>
 4    1  0.1429937E+004  0.2598132E+02  0.7546771E-02  0.1647294E+00
          2   -1    0    0  501    0  0.00000000000E+00  0.00000000000E+00  0.15563338063E+02  0.15563338063E+02  0.00000000000E+00 0.  1.
         -2   -1    0    0    0  501 -0.00000000000E+00 -0.00000000000E+00 -0.31006986486E+03  0.31006986486E+03  0.00000000000E+00 0. -1.
          2    1    1    2  502    0  0.23549669429E+02  0.10974609625E+02  0.37470482069E+01  0.26250130607E+02  0.00000000000E+00 0.  1.
         -2    1    1    2    0  502 -0.23549669429E+02 -0.10974609625E+02 -0.29825357500E+03  0.29938307232E+03  0.00000000000E+00 0. -1.
<mgrwt>
<rscale>  2 0.25981320E+02</rscale>
<asrwt>0</asrwt>
<pdfrwt beam="1">  1        2 0.23943596E-02 0.25981320E+02</pdfrwt>
<pdfrwt beam="2">  1       -2 0.47703059E-01 0.25981320E+02</pdfrwt>
<totfact> 0.13150468E+04</totfact>
</mgrwt>
</event>
<event>
 4    1  0.1429937E+004  0.2611704E+02  0.7546771E-02  0.1645457E+00
          2   -1    0    0  501    0  0.00000000000E+00  0.00000000000E+00  0.12590121067E+04  0.12590121067E+04  0.00000000000E+00 0.  1.
         -2   -1    0    0    0  501 -0.00000000000E+00 -0.00000000000E+00 -0.24585402762E+01  0.24585402762E+01  0.00000000000E+00 0. -1.
          2    1    1    2  502    0 -0.62285468643E+01  0.25363454375E+02  0.11851971582E+04  0.11854848812E+04  0.00000000000E+00 0.  1.
         -2    1    1    2    0  502  0.62285468643E+01 -0.25363454375E+02  0.71356408142E+02  0.75985765751E+02  0.00000000000E+00 0. -1.
<mgrwt>
<rscale>  2 0.26117037E+02</rscale>
<asrwt>0</asrwt>
<pdfrwt beam="1">  1        2 0.19369366E+00 0.26117037E+02</pdfrwt>
<pdfrwt beam="2">  1       -2 0.37823797E-03 0.26117037E+02</pdfrwt>
<totfact> 0.11584501E+05</totfact>
</mgrwt>
</event>
<event>
 4    1  0.1429937E+004  0.2921719E+02  0.7546771E-02  0.1606906E+00
         -2   -1    0    0    0  501 -0.00000000000E+00  0.00000000000E+00  0.77932401217E+01  0.77932401217E+01  0.00000000000E+00 0.  1.
          2   -1    0    0  501    0  0.00000000000E+00 -0.00000000000E+00 -0.42531172419E+03  0.42531172419E+03  0.00000000000E+00 0.  1.
          2    1    1    2  502    0  0.17940583118E+02  0.23060352319E+02 -0.39535359821E+03  0.39643172425E+03  0.00000000000E+00 0.  1.
         -2    1    1    2    0  502 -0.17940583118E+02 -0.23060352319E+02 -0.22164885856E+02  0.36673240063E+02  0.00000000000E+00 0.  1.
<mgrwt>
<rscale>  2 0.29217193E+02</rscale>
<asrwt>0</asrwt>
<pdfrwt beam="2">  1        2 0.65432571E-01 0.29217193E+02</pdfrwt>
<pdfrwt beam="1">  1       -2 0.11989601E-02 0.29217193E+02</pdfrwt>
<totfact> 0.86369788E+04</totfact>
</mgrwt>
</event>
<event>
 4    1  0.1429937E+004  0.4546711E+02  0.7546771E-02  0.1471446E+00
          2   -1    0    0  501    0  0.00000000000E+00  0.00000000000E+00  0.11717728680E+04  0.11717728680E+04  0.00000000000E+00 0. -1.
         -2   -1    0    0    0  501 -0.00000000000E+00 -0.00000000000E+00 -0.22778995701E+01  0.22778995701E+01  0.00000000000E+00 0. -1.
          2    1    1    2  502    0 -0.45206942229E+02 -0.48569835969E+01  0.86351254746E+03  0.86470872410E+03  0.00000000000E+00 0. -1.
         -2    1    1    2    0  502  0.45206942229E+02  0.48569835969E+01  0.30598242099E+03  0.30934204349E+03  0.00000000000E+00 0. -1.
<mgrwt>
<rscale>  2 0.45467108E+02</rscale>
<asrwt>0</asrwt>
<pdfrwt beam="1">  1        2 0.18027227E+00 0.45467108E+02</pdfrwt>
<pdfrwt beam="2">  1       -2 0.35044702E-03 0.45467108E+02</pdfrwt>
<totfact> 0.15779371E+05</totfact>
</mgrwt>
</event>
<event>
 4    1  0.1429937E+004  0.2171640E+02  0.7546771E-02  0.1713203E+00
         -2   -1    0    0    0  501 -0.00000000000E+00  0.00000000000E+00  0.25487504636E+03  0.25487504636E+03  0.00000000000E+00 0.  1.
          2   -1    0    0  501    0  0.00000000000E+00 -0.00000000000E+00 -0.67060408681E+03  0.67060408681E+03  0.00000000000E+00 0. -1.
          2    1    1    2  502    0 -0.17012351660E+02 -0.13497473263E+02 -0.66996525203E+03  0.67031711960E+03  0.00000000000E+00 0. -1.
         -2    1    1    2    0  502  0.17012351660E+02  0.13497473263E+02  0.25423621158E+03  0.25516201357E+03  0.00000000000E+00 0.  1.
<mgrwt>
<rscale>  2 0.21716397E+02</rscale>
<asrwt>0</asrwt>
<pdfrwt beam="2">  1        2 0.10316986E+00 0.21716397E+02</pdfrwt>
<pdfrwt beam="1">  1       -2 0.39211545E-01 0.21716397E+02</pdfrwt>
<totfact> 0.28475758E+02</totfact>
</mgrwt>
</event>
<event>
 4    1  0.1429937E+004  0.2183264E+02  0.7546771E-02  0.1711163E+00
         -2   -1    0    0    0  501 -0.00000000000E+00  0.00000000000E+00  0.62562716503E+01  0.62562716503E+01  0.00000000000E+00 0. -1.
          2   -1    0    0  501    0  0.00000000000E+00 -0.00000000000E+00 -0.56891111911E+03  0.56891111911E+03  0.00000000000E+00 0.  1.
          2    1    1    2  502    0  0.20691079598E+01  0.21734373422E+02 -0.54896230691E+03  0.54939628558E+03  0.00000000000E+00 0.  1.
         -2    1    1    2    0  502 -0.20691079598E+01 -0.21734373422E+02 -0.13692540551E+02  0.25771105186E+02  0.00000000000E+00 0. -1.
<mgrwt>
<rscale>  2 0.21832641E+02</rscale>
<asrwt>0</asrwt>
<pdfrwt beam="2">  1        2 0.87524782E-01 0.21832641E+02</pdfrwt>
<pdfrwt beam="1">  1       -2 0.96250339E-03 0.21832641E+02</pdfrwt>
<totfact> 0.81403249E+04</totfact>
</mgrwt>
</event>
<event>
 4    1  0.1429937E+004  0.3108006E+02  0.7546771E-02  0.1586448E+00
          2   -1    0    0  501    0  0.00000000000E+00  0.00000000000E+00  0.23141342645E+03  0.23141342645E+03  0.00000000000E+00 0. -1.
         -2   -1    0    0    0  501 -0.00000000000E+00 -0.00000000000E+00 -0.61553786130E+01  0.61553786130E+01  0.00000000000E+00 0.  1.
          2    1    1    2  502    0  0.18107060619E+02 -0.25260727653E+02  0.18001847433E+03  0.18268174815E+03  0.00000000000E+00 0. -1.
         -2    1    1    2    0  502 -0.18107060619E+02  0.25260727653E+02  0.45239573508E+02  0.54887056917E+02  0.00000000000E+00 0.  1.
<mgrwt>
<rscale>  2 0.31080058E+02</rscale>
<asrwt>0</asrwt>
<pdfrwt beam="1">  1        2 0.35602059E-01 0.31080058E+02</pdfrwt>
<pdfrwt beam="2">  1       -2 0.94698150E-03 0.31080058E+02</pdfrwt>
<totfact> 0.22242909E+05</totfact>
</mgrwt>
</event>
<event>
 4    1  0.1429937E+004  0.2004629E+02  0.7546771E-02  0.1744409E+00
         -2   -1    0    0    0  501 -0.00000000000E+00  0.00000000000E+00  0.17367020987E+01  0.17367020987E+01  0.00000000000E+00 0.  1.
          2   -1    0    0  501    0  0.00000000000E+00 -0.00000000000E+00 -0.66130917863E+03  0.66130917863E+03  0.00000000000E+00 0.  1.
          2    1    1    2  502    0  0.19119835858E+02 -0.60237519155E+01 -0.59709010435E+03  0.59742651968E+03  0.00000000000E+00 0.  1.
         -2    1    1    2    0  502 -0.19119835858E+02  0.60237519155E+01 -0.62482372181E+02  0.65619361043E+02  0.00000000000E+00 0.  1.
<mgrwt>
<rscale>  2 0.20046289E+02</rscale>
<asrwt>0</asrwt>
<pdfrwt beam="2">  1        2 0.10173987E+00 0.20046289E+02</pdfrwt>
<pdfrwt beam="1">  1       -2 0.26718494E-03 0.20046289E+02</pdfrwt>
<totfact> 0.37670033E+05</totfact>
</mgrwt>
</event>
<event>
 4    1  0.1429937E+004  0.2160770E+02  0.7546771E-02  0.1715126E+00
          2   -1    0    0  501    0  0.00000000000E+00  0.00000000000E+00  0.53672034164E+03  0.53672034164E+03  0.00000000000E+00 0. -1.
         -2   -1    0    0    0  501 -0.00000000000E+00 -0.00000000000E+00 -0.23527052780E+02  0.23527052780E+02  0.00000000000E+00 0. -1.
          2    1    1    2  502    0  0.13307351955E+02  0.17023718469E+02  0.53149285960E+03  0.53193190580E+03  0.00000000000E+00 0. -1.
         -2    1    1    2    0  502 -0.13307351955E+02 -0.17023718469E+02 -0.18299570737E+02  0.28315488618E+02  0.00000000000E+00 0. -1.
<mgrwt>
<rscale>  2 0.21607698E+02</rscale>
<asrwt>0</asrwt>
<pdfrwt beam="1">  1        2 0.82572351E-01 0.21607698E+02</pdfrwt>
<pdfrwt beam="2">  1       -2 0.36195470E-02 0.21607698E+02</pdfrwt>
<totfact> 0.14075515E+04</totfact>
</mgrwt>
</event>
<event>
 4    1  0.1429937E+004  0.2561653E+02  0.7546771E-02  0.1652301E+00
          2   -1    0    0  501    0  0.00000000000E+00  0.00000000000E+00  0.74790393101E+01  0.74790393101E+01  0.00000000000E+00 0. -1.
         -2   -1    0    0    0  501 -0.00000000000E+00 -0.00000000000E+00 -0.59128706576E+03  0.59128706576E+03  0.00000000000E+00 0. -1.
          2    1    1    2  502    0  0.28242728349E+01  0.25460364461E+02 -0.15624742110E+02  0.30005653493E+02  0.00000000000E+00 0. -1.
         -2    1    1    2    0  502 -0.28242728349E+01 -0.25460364461E+02 -0.56818328434E+03  0.56876045158E+03  0.00000000000E+00 0. -1.
<mgrwt>
<rscale>  2 0.25616531E+02</rscale>
<asrwt>0</asrwt>
<pdfrwt beam="1">  1        2 0.11506211E-02 0.25616531E+02</pdfrwt>
<pdfrwt beam="2">  1       -2 0.90967268E-01 0.25616531E+02</pdfrwt>
<totfact> 0.91470594E+03</totfact>
</mgrwt>
</event>
<event>
 4    1  0.1429937E+004  0.2508457E+02  0.7546771E-02  0.1659790E+00
         -2   -1    0    0    0  501 -0.00000000000E+00  0.00000000000E+00  0.20467069206E+02  0.20467069206E+02  0.00000000000E+00 0.  1.
          2   -1    0    0  501    0  0.00000000000E+00 -0.00000000000E+00 -0.28138749027E+03  0.28138749027E+03  0.00000000000E+00 0. -1.
          2    1    1    2  502    0 -0.13882532527E+02 -0.20892848588E+02 -0.27290406758E+03  0.27405449446E+03  0.00000000000E+00 0. -1.
         -2    1    1    2    0  502  0.13882532527E+02  0.20892848588E+02  0.11983646511E+02  0.27800065021E+02  0.00000000000E+00 0.  1.
<mgrwt>
<rscale>  2 0.25084574E+02</rscale>
<asrwt>0</asrwt>
<pdfrwt beam="2">  1        2 0.43290383E-01 0.25084574E+02</pdfrwt>
<pdfrwt beam="1">  1       -2 0.31487799E-02 0.25084574E+02</pdfrwt>
<totfact> 0.33318844E+04</totfact>
</mgrwt>
</event>
<event>
 4    1  0.1429937E+004  0.2658098E+02  0.7546771E-02  0.1639280E+00
         -2   -1    0    0    0  501 -0.00000000000E+00  0.00000000000E+00  0.17751181181E+01  0.17751181181E+01  0.00000000000E+00 0.  1.
          2   -1    0    0  501    0  0.00000000000E+00 -0.00000000000E+00 -0.12038758729E+04  0.12038758729E+04  0.00000000000E+00 0. -1.
          2    1    1    2  502    0 -0.68075441025E-01  0.26580888281E+02 -0.10942549045E+04  0.10945777014E+04  0.00000000000E+00 0. -1.
         -2    1    1    2    0  502  0.68075441025E-01 -0.26580888281E+02 -0.10784585028E+03  0.11107328967E+03  0.00000000000E+00 0.  1.
<mgrwt>
<rscale>  2 0.26580975E+02</rscale>
<asrwt>0</asrwt>
<pdfrwt beam="2">  1        2 0.18521162E+00 0.26580975E+02</pdfrwt>
<pdfrwt beam="1">  1       -2 0.27309517E-03 0.26580975E+02</pdfrwt>
<totfact> 0.19168023E+05</totfact>
</mgrwt>
</event>
<event>
 4    1  0.1429937E+004  0.3103293E+02  0.7546771E-02  0.1586944E+00
          2   -1    0    0  501    0  0.00000000000E+00  0.00000000000E+00  0.29845427560E+03  0.29845427560E+03  0.00000000000E+00 0. -1.
         -2   -1    0    0    0  501 -0.00000000000E+00 -0.00000000000E+00 -0.97144120911E+01  0.97144120911E+01  0.00000000000E+00 0.  1.
          2    1    1    2  502    0 -0.30710784693E+02 -0.44598888756E+01  0.27028964848E+03  0.27206531749E+03  0.00000000000E+00 0. -1.
         -2    1    1    2    0  502  0.30710784693E+02  0.44598888756E+01  0.18450215027E+02  0.36103370199E+02  0.00000000000E+00 0.  1.
<mgrwt>
<rscale>  2 0.31032933E+02</rscale>
<asrwt>0</asrwt>
<pdfrwt beam="1">  1        2 0.45916035E-01 0.31032933E+02</pdfrwt>
<pdfrwt beam="2">  1       -2 0.14945252E-02 0.31032933E+02</pdfrwt>
<totfact> 0.92074750E+04</totfact>
</mgrwt>
</event>
<event>
 4    1  0.1429937E+004  0.2795849E+02  0.7546771E-02  0.1621817E+00
          2   -1    0    0  501    0  0.00000000000E+00  0.00000000000E+00  0.71541599945E+03  0.71541599945E+03  0.00000000000E+00 0.  1.
         -2   -1    0    0    0  501 -0.00000000000E+00 -0.00000000000E+00 -0.74492335304E+01  0.74492335304E+01  0.00000000000E+00 0.  1.
          2    1    1    2  502    0 -0.84296040580E+01 -0.26657435835E+02  0.68785883215E+03  0.68842679355E+03  0.00000000000E+00 0.  1.
         -2    1    1    2    0  502  0.84296040580E+01  0.26657435835E+02  0.20107933766E+02  0.34438439428E+02  0.00000000000E+00 0.  1.
<mgrwt>
<rscale>  2 0.27958489E+02</rscale>
<asrwt>0</asrwt>
<pdfrwt beam="1">  1        2 0.11006395E+00 0.27958489E+02</pdfrwt>
<pdfrwt beam="2">  1       -2 0.11460365E-02 0.27958489E+02</pdfrwt>
<totfact> 0.52912728E+04</totfact>
</mgrwt>
</event>
<event>
 4    1  0.1429937E+004  0.3214077E+02  0.7546771E-02  0.1575563E+00
         -2   -1    0    0    0  501 -0.00000000000E+00  0.00000000000E+00  0.29754391142E+01  0.29754391142E+01  0.00000000000E+00 0. -1.
          2   -1    0    0  501    0  0.00000000000E+00 -0.00000000000E+00 -0.90430114973E+03  0.90430114973E+03  0.00000000000E+00 0. -1.
          2    1    1    2  502    0  0.24122647323E+02  0.21239743978E+02 -0.80672508674E+03  0.80736509363E+03  0.00000000000E+00 0. -1.
         -2    1    1    2    0  502 -0.24122647323E+02 -0.21239743978E+02 -0.94600623883E+02  0.99911495220E+02  0.00000000000E+00 0. -1.
<mgrwt>
<rscale>  2 0.32140766E+02</rscale>
<asrwt>0</asrwt>
<pdfrwt beam="2">  1        2 0.13912338E+00 0.32140766E+02</pdfrwt>
<pdfrwt beam="1">  1       -2 0.45775946E-03 0.32140766E+02</pdfrwt>
<totfact> 0.14438060E+05</totfact>
</mgrwt>
</event>
<event>
 4    1  0.1429937E+004  0.4715033E+02  0.7546771E-02  0.1461347E+00
         -2   -1    0    0    0  501 -0.00000000000E+00  0.00000000000E+00  0.16839077666E+01  0.16839077666E+01  0.00000000000E+00 0.  1.
          2   -1    0    0  501    0  0.00000000000E+00 -0.00000000000E+00 -0.22299611675E+04  0.22299611675E+04  0.00000000000E+00 0.  1.
          2    1    1    2  502    0 -0.52039463911E+01 -0.46862269673E+02 -0.18268306672E+04  0.18274390386E+04  0.00000000000E+00 0.  1.
         -2    1    1    2    0  502  0.52039463911E+01  0.46862269673E+02 -0.40144659255E+03  0.40420603662E+03  0.00000000000E+00 0.  1.
<mgrwt>
<rscale>  2 0.47150327E+02</rscale>
<asrwt>0</asrwt>
<pdfrwt beam="2">  1        2 0.34307128E+00 0.47150327E+02</pdfrwt>
<pdfrwt beam="1">  1       -2 0.25906249E-03 0.47150327E+02</pdfrwt>
<totfact> 0.72012681E+04</totfact>
</mgrwt>
</event>
<event>
 4    1  0.1429937E+004  0.2426354E+02  0.7546771E-02  0.1671811E+00
         -2   -1    0    0    0  501 -0.00000000000E+00  0.00000000000E+00  0.23987027896E+02  0.23987027896E+02  0.00000000000E+00 0.  1.
          2   -1    0    0  501    0  0.00000000000E+00 -0.00000000000E+00 -0.30108698065E+02  0.30108698065E+02  0.00000000000E+00 0.  1.
          2    1    1    2  502    0  0.24252635569E+02  0.72747649661E+00 -0.14689695237E+02  0.28363827320E+02  0.00000000000E+00 0.  1.
         -2    1    1    2    0  502 -0.24252635569E+02 -0.72747649661E+00  0.85680250679E+01  0.25731898640E+02  0.00000000000E+00 0.  1.
<mgrwt>
<rscale>  2 0.24263544E+02</rscale>
<asrwt>0</asrwt>
<pdfrwt beam="2">  1        2 0.46321074E-02 0.24263544E+02</pdfrwt>
<pdfrwt beam="1">  1       -2 0.36903120E-02 0.24263544E+02</pdfrwt>
<totfact> 0.31523053E+05</totfact>
</mgrwt>
</event>
<event>
 4    1  0.1568232E+004  0.2353849E+02  0.7546771E-02  0.1682927E+00
         -2   -1    0    0    0  501 -0.00000000000E+00  0.00000000000E+00  0.21169740649E+03  0.21169740649E+03  0.00000000000E+00 0. -1.
          2   -1    0    0  501    0  0.00000000000E+00 -0.00000000000E+00 -0.73559086824E+03  0.73559086824E+03  0.00000000000E+00 0. -1.
          2    1    1    2  502    0  0.17152519452E+02  0.16119906473E+02 -0.73474750598E+03  0.73512445058E+03  0.00000000000E+00 0. -1.
         -2    1    1    2    0  502 -0.17152519452E+02 -0.16119906473E+02  0.21085404423E+03  0.21216382415E+03  0.00000000000E+00 0. -1.
<mgrwt>
<rscale>  2 0.23538486E+02</rscale>
<asrwt>0</asrwt>
<pdfrwt beam="2">  1        2 0.11316783E+00 0.23538486E+02</pdfrwt>
<pdfrwt beam="1">  1       -2 0.32568831E-01 0.23538486E+02</pdfrwt>
<totfact> 0.35819898E+02</totfact>
</mgrwt>
</event>
<event>
 4    1  0.1429937E+004  0.2391998E+02  0.7546771E-02  0.1677017E+00
         -2   -1    0    0    0  501 -0.00000000000E+00  0.00000000000E+00  0.62136105350E+02  0.62136105350E+02  0.00000000000E+00 0.  1.
          2   -1    0    0  501    0  0.00000000000E+00 -0.00000000000E+00 -0.10163792340E+04  0.10163792340E+04  0.00000000000E+00 0.  1.
          2    1    1    2  502    0  0.78996232565E+01  0.22577892240E+02 -0.10139308753E+04  0.10142129881E+04  0.00000000000E+00 0.  1.
         -2    1    1    2    0  502 -0.78996232565E+01 -0.22577892240E+02  0.59687746713E+02  0.64302351227E+02  0.00000000000E+00 0.  1.
<mgrwt>
<rscale>  2 0.23919976E+02</rscale>
<asrwt>0</asrwt>
<pdfrwt beam="2">  1        2 0.15636602E+00 0.23919976E+02</pdfrwt>
<pdfrwt beam="1">  1       -2 0.95594016E-02 0.23919976E+02</pdfrwt>
<totfact> 0.17326359E+03</totfact>
</mgrwt>
</event>
<event>
 4    1  0.1429937E+004  0.2029181E+02  0.7546771E-02  0.1739587E+00
         -2   -1    0    0    0  501 -0.00000000000E+00  0.00000000000E+00  0.12928167875E+04  0.12928167875E+04  0.00000000000E+00 0.  1.
          2   -1    0    0  501    0  0.00000000000E+00 -0.00000000000E+00 -0.21531261866E+02  0.21531261866E+02  0.00000000000E+00 0.  1.
          2    1    1    2  502    0 -0.12209092289E+02  0.16207886878E+02 -0.16652602304E+02  0.26250079906E+02  0.00000000000E+00 0.  1.
         -2    1    1    2    0  502  0.12209092289E+02 -0.16207886878E+02  0.12879381280E+04  0.12880979695E+04  0.00000000000E+00 0.  1.
<mgrwt>
<rscale>  2 0.20291809E+02</rscale>
<asrwt>0</asrwt>
<pdfrwt beam="2">  1        2 0.33125028E-02 0.20291809E+02</pdfrwt>
<pdfrwt beam="1">  1       -2 0.19889483E+00 0.20291809E+02</pdfrwt>
<totfact> 0.35137338E+02</totfact>
</mgrwt>
</event>
<event>
 4    1  0.1429937E+004  0.2218616E+02  0.7546771E-02  0.1705052E+00
          2   -1    0    0  501    0  0.00000000000E+00  0.00000000000E+00  0.24021014214E+02  0.24021014214E+02  0.00000000000E+00 0. -1.
         -2   -1    0    0    0  501 -0.00000000000E+00 -0.00000000000E+00 -0.88320395252E+02  0.88320395252E+02  0.00000000000E+00 0.  1.
          2    1    1    2  502    0 -0.20440324452E+02 -0.86266458904E+01  0.17075435859E+02  0.27996363920E+02  0.00000000000E+00 0. -1.
         -2    1    1    2    0  502  0.20440324452E+02  0.86266458904E+01 -0.81374816897E+02  0.84345045546E+02  0.00000000000E+00 0.  1.
<mgrwt>
<rscale>  2 0.22186164E+02</rscale>
<asrwt>0</asrwt>
<pdfrwt beam="1">  1        2 0.36955407E-02 0.22186164E+02</pdfrwt>
<pdfrwt beam="2">  1       -2 0.13587753E-01 0.22186164E+02</pdfrwt>
<totfact> 0.60984848E+04</totfact>
</mgrwt>
</event>
<event>
 4    1  0.1429937E+004  0.4698445E+02  0.7546771E-02  0.1462320E+00
          2   -1    0    0  501    0  0.00000000000E+00  0.00000000000E+00  0.11377008635E+04  0.11377008635E+04  0.00000000000E+00 0.  1.
         -2   -1    0    0    0  501 -0.00000000000E+00 -0.00000000000E+00 -0.29800433752E+01  0.29800433752E+01  0.00000000000E+00 0.  1.
          2    1    1    2  502    0  0.42761362290E+02  0.19468040692E+02  0.90424051791E+03  0.90546035416E+03  0.00000000000E+00 0.  1.
         -2    1    1    2    0  502 -0.42761362290E+02 -0.19468040692E+02  0.23048030216E+03  0.23522055267E+03  0.00000000000E+00 0.  1.
<mgrwt>
<rscale>  2 0.46984452E+02</rscale>
<asrwt>0</asrwt>
<pdfrwt beam="1">  1        2 0.17503056E+00 0.46984452E+02</pdfrwt>
<pdfrwt beam="2">  1       -2 0.45846912E-03 0.46984452E+02</pdfrwt>
<totfact> 0.11449046E+05</totfact>
</mgrwt>
</event>
<event>
 4    1  0.1429937E+004  0.2061924E+02  0.7546771E-02  0.1733287E+00
         -2   -1    0    0    0  501 -0.00000000000E+00  0.00000000000E+00  0.81989914214E+00  0.81989914214E+00  0.00000000000E+00 0. -1.
          2   -1    0    0  501    0  0.00000000000E+00 -0.00000000000E+00 -0.15011212510E+04  0.15011212510E+04  0.00000000000E+00 0. -1.
          2    1    1    2  502    0  0.19922752501E+01  0.20522766980E+02 -0.13577238120E+04  0.13578803713E+04  0.00000000000E+00 0. -1.
         -2    1    1    2    0  502 -0.19922752501E+01 -0.20522766980E+02 -0.14257753993E+03  0.14406077891E+03  0.00000000000E+00 0. -1.
<mgrwt>
<rscale>  2 0.20619242E+02</rscale>
<asrwt>0</asrwt>
<pdfrwt beam="2">  1        2 0.23094229E+00 0.20619242E+02</pdfrwt>
<pdfrwt beam="1">  1       -2 0.12613803E-03 0.20619242E+02</pdfrwt>
<totfact> 0.36061110E+05</totfact>
</mgrwt>
</event>
<event>
 4    1  0.1429937E+004  0.3008003E+02  0.7546771E-02  0.1597206E+00
         -2   -1    0    0    0  501 -0.00000000000E+00  0.00000000000E+00  0.34083333870E+03  0.34083333870E+03  0.00000000000E+00 0. -1.
          2   -1    0    0  501    0  0.00000000000E+00 -0.00000000000E+00 -0.34822258745E+01  0.34822258745E+01  0.00000000000E+00 0. -1.
          2    1    1    2  502    0 -0.15870224023E+02 -0.25552770791E+02  0.84750692971E+02  0.89930462385E+02  0.00000000000E+00 0. -1.
         -2    1    1    2    0  502  0.15870224023E+02  0.25552770791E+02  0.25260041985E+03  0.25438510219E+03  0.00000000000E+00 0. -1.
<mgrwt>
<rscale>  2 0.30080028E+02</rscale>
<asrwt>0</asrwt>
<pdfrwt beam="2">  1        2 0.53572733E-03 0.30080028E+02</pdfrwt>
<pdfrwt beam="1">  1       -2 0.52435872E-01 0.30080028E+02</pdfrwt>
<totfact> 0.80383314E+04</totfact>
</mgrwt>
</event>
<event>
 4    1  0.1429937E+004  0.9283187E+02  0.7546771E-02  0.1296135E+00
          2   -1    0    0  501    0  0.00000000000E+00  0.00000000000E+00  0.35144827406E+03  0.35144827406E+03  0.00000000000E+00 0. -1.
         -2   -1    0    0    0  501 -0.00000000000E+00 -0.00000000000E+00 -0.61283683996E+02  0.61283683996E+02  0.00000000000E+00 0.  1.
          2    1    1    2  502    0  0.63787073360E+02 -0.67446017368E+02  0.30491699723E+03  0.31873520544E+03  0.00000000000E+00 0. -1.
         -2    1    1    2    0  502 -0.63787073360E+02  0.67446017368E+02 -0.14752407160E+02  0.93996752623E+02  0.00000000000E+00 0.  1.
<mgrwt>
<rscale>  2 0.92831869E+02</rscale>
<asrwt>0</asrwt>
<pdfrwt beam="1">  1        2 0.54068964E-01 0.92831869E+02</pdfrwt>
<pdfrwt beam="2">  1       -2 0.94282593E-02 0.92831869E+02</pdfrwt>
<totfact> 0.62503153E+03</totfact>
</mgrwt>
</event>
<event>
 4    1  0.1429937E+004  0.3483573E+02  0.7546771E-02  0.1550064E+00
          2   -1    0    0  501    0  0.00000000000E+00  0.00000000000E+00  0.22666263023E+04  0.22666263023E+04  0.00000000000E+00 0.  1.
         -2   -1    0    0    0  501 -0.00000000000E+00 -0.00000000000E+00 -0.86946264770E+02  0.86946264770E+02  0.00000000000E+00 0. -1.
          2    1    1    2  502    0  0.19393994006E+02  0.28937877188E+02  0.22629975563E+04  0.22632656644E+04  0.00000000000E+00 0.  1.
         -2    1    1    2    0  502 -0.19393994006E+02 -0.28937877188E+02 -0.83317518770E+02  0.90306902691E+02  0.00000000000E+00 0. -1.
<mgrwt>
<rscale>  2 0.34835725E+02</rscale>
<asrwt>0</asrwt>
<pdfrwt beam="1">  1        2 0.34871169E+00 0.34835725E+02</pdfrwt>
<pdfrwt beam="2">  1       -2 0.13376350E-01 0.34835725E+02</pdfrwt>
<totfact> 0.25609693E+02</totfact>
</mgrwt>
</event>
<event>
 4    1  0.1429937E+004  0.2501288E+02  0.7546771E-02  0.1660817E+00
          2   -1    0    0  501    0  0.00000000000E+00  0.00000000000E+00  0.30834368968E+03  0.30834368968E+03  0.00000000000E+00 0.  1.
         -2   -1    0    0    0  501 -0.00000000000E+00 -0.00000000000E+00 -0.77035202226E+01  0.77035202226E+01  0.00000000000E+00 0. -1.
          2    1    1    2  502    0  0.25010785947E+02 -0.32393610607E+00  0.28594518233E+03  0.28703709107E+03  0.00000000000E+00 0.  1.
         -2    1    1    2    0  502 -0.25010785947E+02  0.32393610607E+00  0.14694987124E+02  0.29010118836E+02  0.00000000000E+00 0. -1.
<mgrwt>
<rscale>  2 0.25012884E+02</rscale>
<asrwt>0</asrwt>
<pdfrwt beam="1">  1        2 0.47437481E-01 0.25012884E+02</pdfrwt>
<pdfrwt beam="2">  1       -2 0.11851572E-02 0.25012884E+02</pdfrwt>
<totfact> 0.11675000E+05</totfact>
</mgrwt>
</event>
<event>
 4    1  0.1429937E+004  0.4073468E+02  0.7546771E-02  0.1502874E+00
          2   -1    0    0  501    0  0.00000000000E+00  0.00000000000E+00  0.58822668489E+03  0.58822668489E+03  0.00000000000E+00 0. -1.
         -2   -1    0    0    0  501 -0.00000000000E+00 -0.00000000000E+00 -0.77866253866E+01  0.77866253866E+01  0.00000000000E+00 0.  1.
          2    1    1    2  502    0 -0.16031198893E+02  0.37447498830E+02  0.52820181790E+03  0.52977020956E+03  0.00000000000E+00 0. -1.
         -2    1    1    2    0  502  0.16031198893E+02 -0.37447498830E+02  0.52238241609E+02  0.66243100720E+02  0.00000000000E+00 0.  1.
<mgrwt>
<rscale>  2 0.40734684E+02</rscale>
<asrwt>0</asrwt>
<pdfrwt beam="1">  1        2 0.90496378E-01 0.40734684E+02</pdfrwt>
<pdfrwt beam="2">  1       -2 0.11979428E-02 0.40734684E+02</pdfrwt>
<totfact> 0.65800648E+04</totfact>
</mgrwt>
</event>
<event>
 4    1  0.1429937E+004  0.2688581E+02  0.7546771E-02  0.1635305E+00
          2   -1    0    0  501    0  0.00000000000E+00  0.00000000000E+00  0.64277618658E+03  0.64277618658E+03  0.00000000000E+00 0. -1.
         -2   -1    0    0    0  501 -0.00000000000E+00 -0.00000000000E+00 -0.16295649126E+01  0.16295649126E+01  0.00000000000E+00 0. -1.
          2    1    1    2  502    0 -0.25005711219E+02  0.98773089860E+01  0.49993805172E+03  0.50066046616E+03  0.00000000000E+00 0. -1.
         -2    1    1    2    0  502  0.25005711219E+02 -0.98773089860E+01  0.14120856995E+03  0.14374528533E+03  0.00000000000E+00 0. -1.
<mgrwt>
<rscale>  2 0.26885811E+02</rscale>
<asrwt>0</asrwt>
<pdfrwt beam="1">  1        2 0.98888442E-01 0.26885811E+02</pdfrwt>
<pdfrwt beam="2">  1       -2 0.25070281E-03 0.26885811E+02</pdfrwt>
<totfact> 0.45855839E+05</totfact>
</mgrwt>
</event>
<event>
 4    1  0.1429937E+004  0.2132859E+02  0.7546771E-02  0.1720129E+00
          2   -1    0    0  501    0  0.00000000000E+00  0.00000000000E+00  0.39579158318E+03  0.39579158318E+03  0.00000000000E+00 0. -1.
         -2   -1    0    0    0  501 -0.00000000000E+00 -0.00000000000E+00 -0.39985362973E+02  0.39985362973E+02  0.00000000000E+00 0. -1.
          2    1    1    2  502    0 -0.10304473561E+02 -0.18674227560E+02  0.39263718697E+03  0.39321605962E+03  0.00000000000E+00 0. -1.
         -2    1    1    2    0  502  0.10304473561E+02  0.18674227560E+02 -0.36830966760E+02  0.42560886537E+02  0.00000000000E+00 0. -1.
<mgrwt>
<rscale>  2 0.21328595E+02</rscale>
<asrwt>0</asrwt>
<pdfrwt beam="1">  1        2 0.60891010E-01 0.21328595E+02</pdfrwt>
<pdfrwt beam="2">  1       -2 0.61515946E-02 0.21328595E+02</pdfrwt>
<totfact> 0.89985087E+03</totfact>
</mgrwt>
</event>
<event>
 4    1  0.1429937E+004  0.2581880E+02  0.7546771E-02  0.1649512E+00
          2   -1    0    0  501    0  0.00000000000E+00  0.00000000000E+00  0.21794246605E+03  0.21794246605E+03  0.00000000000E+00 0. -1.
         -2   -1    0    0    0  501 -0.00000000000E+00 -0.00000000000E+00 -0.47600554189E+02  0.47600554189E+02  0.00000000000E+00 0.  1.
          2    1    1    2  502    0  0.22048429525E+01  0.25724481403E+02  0.21360591975E+03  0.21516063587E+03  0.00000000000E+00 0. -1.
         -2    1    1    2    0  502 -0.22048429525E+01 -0.25724481403E+02 -0.43264007889E+02  0.50382384367E+02  0.00000000000E+00 0.  1.
<mgrwt>
<rscale>  2 0.25818797E+02</rscale>
<asrwt>0</asrwt>
<pdfrwt beam="1">  1        2 0.33529610E-01 0.25818797E+02</pdfrwt>
<pdfrwt beam="2">  1       -2 0.73231623E-02 0.25818797E+02</pdfrwt>
<totfact> 0.12982952E+04</totfact>
</mgrwt>
</event>
<event>
 4    1  0.1429937E+004  0.2838098E+02  0.7546771E-02  0.1616707E+00
         -2   -1    0    0    0  501 -0.00000000000E+00  0.00000000000E+00  0.20871142536E+03  0.20871142536E+03  0.00000000000E+00 0. -1.
          2   -1    0    0  501    0  0.00000000000E+00 -0.00000000000E+00 -0.91661262862E+02  0.91661262862E+02  0.00000000000E+00 0. -1.
          2    1    1    2  502    0  0.46345857918E+01  0.28000014561E+02 -0.88465544111E+02  0.92906580476E+02  0.00000000000E+00 0. -1.
         -2    1    1    2    0  502 -0.46345857918E+01 -0.28000014561E+02  0.20551570661E+03  0.20746610775E+03  0.00000000000E+00 0. -1.
<mgrwt>
<rscale>  2 0.28380983E+02</rscale>
<asrwt>0</asrwt>
<pdfrwt beam="2">  1        2 0.14101733E-01 0.28380983E+02</pdfrwt>
<pdfrwt beam="1">  1       -2 0.32109450E-01 0.28380983E+02</pdfrwt>
<totfact> 0.31896356E+03</totfact>
</mgrwt>
</event>
<event>
 4    1  0.1429937E+004  0.2135655E+02  0.7546771E-02  0.1719624E+00
          2   -1    0    0  501    0  0.00000000000E+00  0.00000000000E+00  0.85028183275E+03  0.85028183275E+03  0.00000000000E+00 0. -1.
         -2   -1    0    0    0  501 -0.00000000000E+00 -0.00000000000E+00 -0.54877602154E+00  0.54877602154E+00  0.00000000000E+00 0. -1.
          2    1    1    2  502    0 -0.10689071160E+02 -0.18489071840E+02  0.48871965621E+03  0.48918606315E+03  0.00000000000E+00 0. -1.
         -2    1    1    2    0  502  0.10689071160E+02  0.18489071840E+02  0.36101340051E+03  0.36164454561E+03  0.00000000000E+00 0. -1.
<mgrwt>
<rscale>  2 0.21356545E+02</rscale>
<asrwt>0</asrwt>
<pdfrwt beam="1">  1        2 0.13081154E+00 0.21356545E+02</pdfrwt>
<pdfrwt beam="2">  1       -2 0.84427761E-04 0.21356545E+02</pdfrwt>
<totfact> 0.13255789E+06</totfact>
</mgrwt>
</event>
<event>
 4    1  0.1429937E+004  0.3048529E+02  0.7546771E-02  0.1592786E+00
         -2   -1    0    0    0  501 -0.00000000000E+00  0.00000000000E+00  0.47808914230E+02  0.47808914230E+02  0.00000000000E+00 0. -1.
          2   -1    0    0  501    0  0.00000000000E+00 -0.00000000000E+00 -0.60344621687E+02  0.60344621687E+02  0.00000000000E+00 0. -1.
          2    1    1    2  502    0 -0.29299957074E+02  0.84181478867E+01 -0.50790756619E+02  0.59237265773E+02  0.00000000000E+00 0. -1.
         -2    1    1    2    0  502  0.29299957074E+02 -0.84181478867E+01  0.38255049162E+02  0.48916270143E+02  0.00000000000E+00 0. -1.
<mgrwt>
<rscale>  2 0.30485287E+02</rscale>
<asrwt>0</asrwt>
<pdfrwt beam="2">  1        2 0.92837879E-02 0.30485287E+02</pdfrwt>
<pdfrwt beam="1">  1       -2 0.73552176E-02 0.30485287E+02</pdfrwt>
<totfact> 0.53652519E+04</totfact>
</mgrwt>
</event>
<event>
 4    1  0.1429937E+004  0.3049790E+02  0.7546771E-02  0.1592649E+00
         -2   -1    0    0    0  501 -0.00000000000E+00  0.00000000000E+00  0.64231777290E+01  0.64231777290E+01  0.00000000000E+00 0.  1.
          2   -1    0    0  501    0  0.00000000000E+00 -0.00000000000E+00 -0.10456272916E+04  0.10456272916E+04  0.00000000000E+00 0. -1.
          2    1    1    2  502    0 -0.29875247007E+02  0.61311766481E+01 -0.10078463559E+04  0.10083076905E+04  0.00000000000E+00 0. -1.
         -2    1    1    2    0  502  0.29875247007E+02 -0.61311766481E+01 -0.31357757972E+02  0.43742778785E+02  0.00000000000E+00 0.  1.
<mgrwt>
<rscale>  2 0.30497897E+02</rscale>
<asrwt>0</asrwt>
<pdfrwt beam="2">  1        2 0.16086555E+00 0.30497897E+02</pdfrwt>
<pdfrwt beam="1">  1       -2 0.98818234E-03 0.30497897E+02</pdfrwt>
<totfact> 0.41834477E+04</totfact>
</mgrwt>
</event>
<event>
 4    1  0.1429937E+004  0.2305277E+02  0.7546771E-02  0.1690656E+00
         -2   -1    0    0    0  501 -0.00000000000E+00  0.00000000000E+00  0.59719986988E+02  0.59719986988E+02  0.00000000000E+00 0.  1.
          2   -1    0    0  501    0  0.00000000000E+00 -0.00000000000E+00 -0.46783165184E+02  0.46783165184E+02  0.00000000000E+00 0.  1.
          2    1    1    2  502    0 -0.96363531831E+01 -0.20942083529E+02 -0.41451748472E+02  0.47430766561E+02  0.00000000000E+00 0.  1.
         -2    1    1    2    0  502  0.96363531831E+01  0.20942083529E+02  0.54388570276E+02  0.59072385612E+02  0.00000000000E+00 0.  1.
<mgrwt>
<rscale>  2 0.23052769E+02</rscale>
<asrwt>0</asrwt>
<pdfrwt beam="2">  1        2 0.71974100E-02 0.23052769E+02</pdfrwt>
<pdfrwt beam="1">  1       -2 0.91876904E-02 0.23052769E+02</pdfrwt>
<totfact> 0.49194148E+04</totfact>
</mgrwt>
</event>
<event>
 4    1  0.1429937E+004  0.2080835E+02  0.7546771E-02  0.1729715E+00
          2   -1    0    0  501    0  0.00000000000E+00  0.00000000000E+00  0.32753919167E+02  0.32753919167E+02  0.00000000000E+00 0. -1.
         -2   -1    0    0    0  501 -0.00000000000E+00 -0.00000000000E+00 -0.20506462572E+02  0.20506462572E+02  0.00000000000E+00 0.  1.
          2    1    1    2  502    0 -0.19005617030E+02  0.84719619156E+01  0.21998399421E+02  0.30280640588E+02  0.00000000000E+00 0. -1.
         -2    1    1    2    0  502  0.19005617030E+02 -0.84719619156E+01 -0.97509428258E+01  0.22979741151E+02  0.00000000000E+00 0.  1.
<mgrwt>
<rscale>  2 0.20808355E+02</rscale>
<asrwt>0</asrwt>
<pdfrwt beam="1">  1        2 0.50390645E-02 0.20808355E+02</pdfrwt>
<pdfrwt beam="2">  1       -2 0.31548404E-02 0.20808355E+02</pdfrwt>
<totfact> 0.33774932E+05</totfact>
</mgrwt>
</event>
<event>
 4    1  0.1429937E+004  0.4932733E+02  0.7546771E-02  0.1449004E+00
         -2   -1    0    0    0  501 -0.00000000000E+00  0.00000000000E+00  0.13033654390E+02  0.13033654390E+02  0.00000000000E+00 0.  1.
          2   -1    0    0  501    0  0.00000000000E+00 -0.00000000000E+00 -0.10577502502E+04  0.10577502502E+04  0.00000000000E+00 0. -1.
          2    1    1    2  502    0  0.37685240690E+02 -0.31827786672E+02 -0.10082121615E+04  0.10094181234E+04  0.00000000000E+00 0. -1.
         -2    1    1    2    0  502 -0.37685240690E+02  0.31827786672E+02 -0.36504434323E+02  0.61365781145E+02  0.00000000000E+00 0.  1.
<mgrwt>
<rscale>  2 0.49327329E+02</rscale>
<asrwt>0</asrwt>
<pdfrwt beam="2">  1        2 0.16273081E+00 0.49327329E+02</pdfrwt>
<pdfrwt beam="1">  1       -2 0.20051775E-02 0.49327329E+02</pdfrwt>
<totfact> 0.16402897E+04</totfact>
</mgrwt>
</event>
<event>
 4    1  0.1429937E+004  0.2490435E+02  0.7546771E-02  0.1662380E+00
          2   -1    0    0  501    0  0.00000000000E+00  0.00000000000E+00  0.15003572864E+04  0.15003572864E+04  0.00000000000E+00 0. -1.
         -2   -1    0    0    0  501 -0.00000000000E+00 -0.00000000000E+00 -0.29815103002E+02  0.29815103002E+02  0.00000000000E+00 0.  1.
          2    1    1    2  502    0 -0.14536980314E+02  0.20221346798E+02  0.14950348184E+04  0.14952422329E+04  0.00000000000E+00 0. -1.
         -2    1    1    2    0  502  0.14536980314E+02 -0.20221346798E+02 -0.24492635041E+02  0.34930156516E+02  0.00000000000E+00 0.  1.
<mgrwt>
<rscale>  2 0.24904350E+02</rscale>
<asrwt>0</asrwt>
<pdfrwt beam="1">  1        2 0.23082414E+00 0.24904350E+02</pdfrwt>
<pdfrwt beam="2">  1       -2 0.45869401E-02 0.24904350E+02</pdfrwt>
<totfact> 0.28848859E+03</totfact>
</mgrwt>
</event>
<event>
 4    1  0.1429937E+004  0.2466343E+02  0.7546771E-02  0.1665884E+00
         -2   -1    0    0    0  501 -0.00000000000E+00  0.00000000000E+00  0.13050017948E+02  0.13050017948E+02  0.00000000000E+00 0. -1.
          2   -1    0    0  501    0  0.00000000000E+00 -0.00000000000E+00 -0.66848269442E+02  0.66848269442E+02  0.00000000000E+00 0. -1.
          2    1    1    2  502    0  0.22772306712E+02  0.94713580818E+01 -0.48879241156E+02  0.54749107690E+02  0.00000000000E+00 0. -1.
         -2    1    1    2    0  502 -0.22772306712E+02 -0.94713580818E+01 -0.49190103391E+01  0.25149179700E+02  0.00000000000E+00 0. -1.
<mgrwt>
<rscale>  2 0.24663426E+02</rscale>
<asrwt>0</asrwt>
<pdfrwt beam="2">  1        2 0.10284349E-01 0.24663426E+02</pdfrwt>
<pdfrwt beam="1">  1       -2 0.20076951E-02 0.24663426E+02</pdfrwt>
<totfact> 0.28442062E+05</totfact>
</mgrwt>
</event>
<event>
 4    1  0.1429937E+004  0.2640599E+02  0.7546771E-02  0.1641591E+00
         -2   -1    0    0    0  501 -0.00000000000E+00  0.00000000000E+00  0.16180083285E+02  0.16180083285E+02  0.00000000000E+00 0. -1.
          2   -1    0    0  501    0  0.00000000000E+00 -0.00000000000E+00 -0.31068624263E+03  0.31068624263E+03  0.00000000000E+00 0.  1.
          2    1    1    2  502    0 -0.26000189441E+02  0.46115730916E+01 -0.29892854457E+03  0.30009257108E+03  0.00000000000E+00 0.  1.
         -2    1    1    2    0  502  0.26000189441E+02 -0.46115730916E+01  0.44223852193E+01  0.26773754843E+02  0.00000000000E+00 0. -1.
<mgrwt>
<rscale>  2 0.26405993E+02</rscale>
<asrwt>0</asrwt>
<pdfrwt beam="2">  1        2 0.47797881E-01 0.26405993E+02</pdfrwt>
<pdfrwt beam="1">  1       -2 0.24892437E-02 0.26405993E+02</pdfrwt>
<totfact> 0.42302386E+04</totfact>
</mgrwt>
</event>
<event>
 4    1  0.1429937E+004  0.2327162E+02  0.7546771E-02  0.1687145E+00
         -2   -1    0    0    0  501 -0.00000000000E+00  0.00000000000E+00  0.26953411159E+01  0.26953411159E+01  0.00000000000E+00 0.  1.
          2   -1    0    0  501    0  0.00000000000E+00 -0.00000000000E+00 -0.37714069976E+03  0.37714069976E+03  0.00000000000E+00 0. -1.
          2    1    1    2  502    0  0.87052157107E+01  0.21582110774E+02 -0.31704029582E+03  0.31789324853E+03  0.00000000000E+00 0. -1.
         -2    1    1    2    0  502 -0.87052157107E+01 -0.21582110774E+02 -0.57405062827E+02  0.61942792351E+02  0.00000000000E+00 0.  1.
<mgrwt>
<rscale>  2 0.23271620E+02</rscale>
<asrwt>0</asrwt>
<pdfrwt beam="2">  1        2 0.58021611E-01 0.23271620E+02</pdfrwt>
<pdfrwt beam="1">  1       -2 0.41466811E-03 0.23271620E+02</pdfrwt>
<totfact> 0.38685816E+05</totfact>
</mgrwt>
</event>
<event>
 4    1  0.1429937E+004  0.2103925E+02  0.7546771E-02  0.1725418E+00
         -2   -1    0    0    0  501 -0.00000000000E+00  0.00000000000E+00  0.31885405556E+02  0.31885405556E+02  0.00000000000E+00 0.  1.
          2   -1    0    0  501    0  0.00000000000E+00 -0.00000000000E+00 -0.20821717390E+03  0.20821717390E+03  0.00000000000E+00 0.  1.
          2    1    1    2  502    0 -0.20600197669E+02 -0.42757317352E+01 -0.20414603610E+03  0.20522732294E+03  0.00000000000E+00 0.  1.
         -2    1    1    2    0  502  0.20600197669E+02  0.42757317352E+01  0.27814267759E+02  0.34875256513E+02  0.00000000000E+00 0.  1.
<mgrwt>
<rscale>  2 0.21039250E+02</rscale>
<asrwt>0</asrwt>
<pdfrwt beam="2">  1        2 0.32033410E-01 0.21039250E+02</pdfrwt>
<pdfrwt beam="1">  1       -2 0.49054472E-02 0.21039250E+02</pdfrwt>
<totfact> 0.23339284E+04</totfact>
</mgrwt>
</event>
<event>
 4    1  0.1429937E+004  0.2325512E+02  0.7546771E-02  0.1687408E+00
          2   -1    0    0  501    0  0.00000000000E+00  0.00000000000E+00  0.15323701301E+03  0.15323701301E+03  0.00000000000E+00 0. -1.
         -2   -1    0    0    0  501 -0.00000000000E+00 -0.00000000000E+00 -0.32146815638E+02  0.32146815638E+02  0.00000000000E+00 0. -1.
          2    1    1    2  502    0 -0.19573824452E+02 -0.12556506139E+02  0.14800113171E+03  0.14981700651E+03  0.00000000000E+00 0. -1.
         -2    1    1    2    0  502  0.19573824452E+02  0.12556506139E+02 -0.26910934342E+02  0.35566822142E+02  0.00000000000E+00 0. -1.
<mgrwt>
<rscale>  2 0.23255117E+02</rscale>
<asrwt>0</asrwt>
<pdfrwt beam="1">  1        2 0.23574925E-01 0.23255117E+02</pdfrwt>
<pdfrwt beam="2">  1       -2 0.49456640E-02 0.23255117E+02</pdfrwt>
<totfact> 0.32152586E+04</totfact>
</mgrwt>
</event>
<event>
 4    1  0.1429937E+004  0.2836403E+02  0.7546771E-02  0.1616909E+00
          2   -1    0    0  501    0  0.00000000000E+00  0.00000000000E+00  0.25790727515E+03  0.25790727515E+03  0.00000000000E+00 0.  1.
         -2   -1    0    0    0  501 -0.00000000000E+00 -0.00000000000E+00 -0.26376562303E+03  0.26376562303E+03  0.00000000000E+00 0. -1.
          2    1    1    2  502    0  0.18394764203E+02  0.21590530573E+02  0.25636030394E+03  0.25792464752E+03  0.00000000000E+00 0.  1.
         -2    1    1    2    0  502 -0.18394764203E+02 -0.21590530573E+02 -0.26221865183E+03  0.26374825066E+03  0.00000000000E+00 0. -1.
<mgrwt>
<rscale>  2 0.28364033E+02</rscale>
<asrwt>0</asrwt>
<pdfrwt beam="1">  1        2 0.39678042E-01 0.28364033E+02</pdfrwt>
<pdfrwt beam="2">  1       -2 0.40579327E-01 0.28364033E+02</pdfrwt>
<totfact> 0.70700475E+02</totfact>
</mgrwt>
</event>
<event>
 4    1  0.1429937E+004  0.3362005E+02  0.7546771E-02  0.1561208E+00
         -2   -1    0    0    0  501 -0.00000000000E+00  0.00000000000E+00  0.17517565868E+01  0.17517565868E+01  0.00000000000E+00 0. -1.
          2   -1    0    0  501    0  0.00000000000E+00 -0.00000000000E+00 -0.18832180495E+04  0.18832180495E+04  0.00000000000E+00 0. -1.
          2    1    1    2  502    0 -0.30805091912E+02  0.13466775845E+02 -0.17048858219E+04  0.17052172804E+04  0.00000000000E+00 0. -1.
         -2    1    1    2    0  502  0.30805091912E+02 -0.13466775845E+02 -0.17658047105E+03  0.17975252570E+03  0.00000000000E+00 0. -1.
<mgrwt>
<rscale>  2 0.33620050E+02</rscale>
<asrwt>0</asrwt>
<pdfrwt beam="2">  1        2 0.28972656E+00 0.33620050E+02</pdfrwt>
<pdfrwt beam="1">  1       -2 0.26950036E-03 0.33620050E+02</pdfrwt>
<totfact> 0.95904151E+04</totfact>
</mgrwt>
</event>
<event>
 4    1  0.1429937E+004  0.2183564E+02  0.7546771E-02  0.1711110E+00
         -2   -1    0    0    0  501 -0.00000000000E+00  0.00000000000E+00  0.51337856841E+01  0.51337856841E+01  0.00000000000E+00 0. -1.
          2   -1    0    0  501    0  0.00000000000E+00 -0.00000000000E+00 -0.42677501877E+03  0.42677501877E+03  0.00000000000E+00 0.  1.
          2    1    1    2  502    0 -0.19894265304E+02 -0.90007511294E+01 -0.40183735517E+03  0.40243018689E+03  0.00000000000E+00 0.  1.
         -2    1    1    2    0  502  0.19894265304E+02  0.90007511294E+01 -0.19803877921E+02  0.29478617566E+02  0.00000000000E+00 0. -1.
<mgrwt>
<rscale>  2 0.21835643E+02</rscale>
<asrwt>0</asrwt>
<pdfrwt beam="2">  1        2 0.65657699E-01 0.21835643E+02</pdfrwt>
<pdfrwt beam="1">  1       -2 0.78981314E-03 0.21835643E+02</pdfrwt>
<totfact> 0.14190306E+05</totfact>
</mgrwt>
</event>
<event>
 4    1  0.1429937E+004  0.2420980E+02  0.7546771E-02  0.1672618E+00
         -2   -1    0    0    0  501 -0.00000000000E+00  0.00000000000E+00  0.40575279765E+01  0.40575279765E+01  0.00000000000E+00 0.  1.
          2   -1    0    0  501    0  0.00000000000E+00 -0.00000000000E+00 -0.77698875639E+03  0.77698875639E+03  0.00000000000E+00 0.  1.
          2    1    1    2  502    0  0.23085255493E+01  0.24099480769E+02 -0.73882237612E+03  0.73921892409E+03  0.00000000000E+00 0.  1.
         -2    1    1    2    0  502 -0.23085255493E+01 -0.24099480769E+02 -0.34108852286E+02  0.41827360278E+02  0.00000000000E+00 0.  1.
<mgrwt>
<rscale>  2 0.24209797E+02</rscale>
<asrwt>0</asrwt>
<pdfrwt beam="2">  1        2 0.11953669E+00 0.24209797E+02</pdfrwt>
<pdfrwt beam="1">  1       -2 0.62423530E-03 0.24209797E+02</pdfrwt>
<totfact> 0.10685472E+05</totfact>
</mgrwt>
</event>
<event>
 4    1  0.1429937E+004  0.2118207E+02  0.7546771E-02  0.1722794E+00
          2   -1    0    0  501    0  0.00000000000E+00  0.00000000000E+00  0.27815887332E+03  0.27815887332E+03  0.00000000000E+00 0.  1.
         -2   -1    0    0    0  501 -0.00000000000E+00 -0.00000000000E+00 -0.24009247813E+01  0.24009247813E+01  0.00000000000E+00 0. -1.
          2    1    1    2  502    0 -0.18079571950E+02  0.11036704754E+02  0.57519123070E+02  0.61295426358E+02  0.00000000000E+00 0. -1.
         -2    1    1    2    0  502  0.18079571950E+02 -0.11036704754E+02  0.21823882547E+03  0.21926437174E+03  0.00000000000E+00 0.  1.
<mgrwt>
<rscale>  2 0.21182073E+02</rscale>
<asrwt>0</asrwt>
<pdfrwt beam="1">  1        2 0.42793647E-01 0.21182073E+02</pdfrwt>
<pdfrwt beam="2">  1       -2 0.36937326E-03 0.21182073E+02</pdfrwt>
<totfact> 0.59192267E+05</totfact>
</mgrwt>
</event>
<event>
 4    1  0.1429937E+004  0.2384967E+02  0.7546771E-02  0.1678096E+00
          2   -1    0    0  501    0  0.00000000000E+00  0.00000000000E+00  0.44597116391E+03  0.44597116391E+03  0.00000000000E+00 0. -1.
         -2   -1    0    0    0  501 -0.00000000000E+00 -0.00000000000E+00 -0.13800710993E+01  0.13800710993E+01  0.00000000000E+00 0.  1.
          2    1    1    2  502    0  0.12130601034E+02 -0.20534242007E+02  0.28388576337E+03  0.28488582489E+03  0.00000000000E+00 0. -1.
         -2    1    1    2    0  502 -0.12130601034E+02  0.20534242007E+02  0.16070532944E+03  0.16246541012E+03  0.00000000000E+00 0.  1.
<mgrwt>
<rscale>  2 0.23849666E+02</rscale>
<asrwt>0</asrwt>
<pdfrwt beam="1">  1        2 0.68610833E-01 0.23849666E+02</pdfrwt>
<pdfrwt beam="2">  1       -2 0.21231899E-03 0.23849666E+02</pdfrwt>
<totfact> 0.80517687E+05</totfact>
</mgrwt>
</event>
<event>
 4    1  0.1429937E+004  0.4257069E+02  0.7546771E-02  0.1490103E+00
         -2   -1    0    0    0  501 -0.00000000000E+00  0.00000000000E+00  0.93726074300E+01  0.93726074300E+01  0.00000000000E+00 0.  1.
          2   -1    0    0  501    0  0.00000000000E+00 -0.00000000000E+00 -0.12278455700E+04  0.12278455700E+04  0.00000000000E+00 0.  1.
          2    1    1    2  502    0 -0.10763196676E+02 -0.41187590113E+02 -0.11770518787E+04  0.11778214589E+04  0.00000000000E+00 0.  1.
         -2    1    1    2    0  502  0.10763196676E+02  0.41187590113E+02 -0.41421083960E+02  0.59396718583E+02  0.00000000000E+00 0.  1.
<mgrwt>
<rscale>  2 0.42570694E+02</rscale>
<asrwt>0</asrwt>
<pdfrwt beam="2">  1        2 0.18889920E+00 0.42570694E+02</pdfrwt>
<pdfrwt beam="1">  1       -2 0.14419405E-02 0.42570694E+02</pdfrwt>
<totfact> 0.20802810E+04</totfact>
</mgrwt>
</event>
<event>
 4    1  0.1429937E+004  0.2633698E+02  0.7546771E-02  0.1642509E+00
         -2   -1    0    0    0  501 -0.00000000000E+00  0.00000000000E+00  0.88661890059E+01  0.88661890059E+01  0.00000000000E+00 0.  1.
          2   -1    0    0  501    0  0.00000000000E+00 -0.00000000000E+00 -0.20596257040E+03  0.20596257040E+03  0.00000000000E+00 0.  1.
          2    1    1    2  502    0  0.14923929860E+02 -0.21700523428E+02 -0.18313691915E+03  0.18502099220E+03  0.00000000000E+00 0.  1.
         -2    1    1    2    0  502 -0.14923929860E+02  0.21700523428E+02 -0.13959462243E+02  0.29807767203E+02  0.00000000000E+00 0.  1.
<mgrwt>
<rscale>  2 0.26336978E+02</rscale>
<asrwt>0</asrwt>
<pdfrwt beam="2">  1        2 0.31686550E-01 0.26336978E+02</pdfrwt>
<pdfrwt beam="1">  1       -2 0.13640291E-02 0.26336978E+02</pdfrwt>
<totfact> 0.14598800E+05</totfact>
</mgrwt>
</event>
<event>
 4    1  0.1429937E+004  0.2637899E+02  0.7546771E-02  0.1641950E+00
          2   -1    0    0  501    0  0.00000000000E+00  0.00000000000E+00  0.98167414470E+03  0.98167414470E+03  0.00000000000E+00 0. -1.
         -2   -1    0    0    0  501 -0.00000000000E+00 -0.00000000000E+00 -0.22692950957E+02  0.22692950957E+02  0.00000000000E+00 0.  1.
          2    1    1    2  502    0  0.11262367588E+01  0.26354940935E+02  0.97376876981E+03  0.97412600231E+03  0.00000000000E+00 0. -1.
         -2    1    1    2    0  502 -0.11262367588E+01 -0.26354940935E+02 -0.14787576067E+02  0.30241093347E+02  0.00000000000E+00 0.  1.
<mgrwt>
<rscale>  2 0.26378994E+02</rscale>
<asrwt>0</asrwt>
<pdfrwt beam="1">  1        2 0.15102676E+00 0.26378994E+02</pdfrwt>
<pdfrwt beam="2">  1       -2 0.34912240E-02 0.26378994E+02</pdfrwt>
<totfact> 0.77727120E+03</totfact>
</mgrwt>
</event>
<event>
 4    1  0.1429937E+004  0.2032977E+02  0.7546771E-02  0.1738849E+00
          2   -1    0    0  501    0  0.00000000000E+00  0.00000000000E+00  0.13457026075E+04  0.13457026075E+04  0.00000000000E+00 0. -1.
         -2   -1    0    0    0  501 -0.00000000000E+00 -0.00000000000E+00 -0.22260664503E+01  0.22260664503E+01  0.00000000000E+00 0. -1.
          2    1    1    2  502    0  0.19917738234E+02 -0.40722659866E+01  0.12974850953E+04  0.12976443550E+04  0.00000000000E+00 0. -1.
         -2    1    1    2    0  502 -0.19917738234E+02  0.40722659866E+01  0.45991445829E+02  0.50284318987E+02  0.00000000000E+00 0. -1.
<mgrwt>
<rscale>  2 0.20329772E+02</rscale>
<asrwt>0</asrwt>
<pdfrwt beam="1">  1        2 0.20703052E+00 0.20329772E+02</pdfrwt>
<pdfrwt beam="2">  1       -2 0.34247284E-03 0.20329772E+02</pdfrwt>
<totfact> 0.11395936E+05</totfact>
</mgrwt>
</event>
<event>
 4    1  0.1429937E+004  0.2147975E+02  0.7546771E-02  0.1717408E+00
         -2   -1    0    0    0  501 -0.00000000000E+00  0.00000000000E+00  0.39138930420E+01  0.39138930420E+01  0.00000000000E+00 0.  1.
          2   -1    0    0  501    0  0.00000000000E+00 -0.00000000000E+00 -0.81080770989E+03  0.81080770989E+03  0.00000000000E+00 0.  1.
          2    1    1    2  502    0 -0.19755558013E+02 -0.84319291815E+01 -0.78003231146E+03  0.78032799925E+03  0.00000000000E+00 0.  1.
         -2    1    1    2    0  502  0.19755558013E+02  0.84319291815E+01 -0.26861505391E+02  0.34393603678E+02  0.00000000000E+00 0.  1.
<mgrwt>
<rscale>  2 0.21479746E+02</rscale>
<asrwt>0</asrwt>
<pdfrwt beam="2">  1        2 0.12473968E+00 0.21479746E+02</pdfrwt>
<pdfrwt beam="1">  1       -2 0.60213723E-03 0.21479746E+02</pdfrwt>
<totfact> 0.10410081E+05</totfact>
</mgrwt>
</event>
<event>
 4    1  0.1429937E+004  0.2254049E+02  0.7546771E-02  0.1699069E+00
          2   -1    0    0  501    0  0.00000000000E+00  0.00000000000E+00  0.39460872937E+02  0.39460872937E+02  0.00000000000E+00 0. -1.
         -2   -1    0    0    0  501 -0.00000000000E+00 -0.00000000000E+00 -0.16358492999E+02  0.16358492999E+02  0.00000000000E+00 0. -1.
          2    1    1    2  502    0  0.19240432344E+02 -0.11742209063E+02  0.24429743177E+02  0.33239826446E+02  0.00000000000E+00 0. -1.
         -2    1    1    2    0  502 -0.19240432344E+02  0.11742209063E+02 -0.13273632391E+01  0.22579539491E+02  0.00000000000E+00 0. -1.
<mgrwt>
<rscale>  2 0.22540490E+02</rscale>
<asrwt>0</asrwt>
<pdfrwt beam="1">  1        2 0.60709035E-02 0.22540490E+02</pdfrwt>
<pdfrwt beam="2">  1       -2 0.25166912E-02 0.22540490E+02</pdfrwt>
<totfact> 0.37759095E+05</totfact>
</mgrwt>
</event>
<event>
 4    1  0.1429937E+004  0.2019091E+02  0.7546771E-02  0.1741558E+00
         -2   -1    0    0    0  501 -0.00000000000E+00  0.00000000000E+00  0.25664603684E+03  0.25664603684E+03  0.00000000000E+00 0.  1.
          2   -1    0    0  501    0  0.00000000000E+00 -0.00000000000E+00 -0.22551317054E+01  0.22551317054E+01  0.00000000000E+00 0.  1.
          2    1    1    2  502    0  0.49171578711E+01  0.19583008254E+02  0.56811573996E+02  0.60292848611E+02  0.00000000000E+00 0.  1.
         -2    1    1    2    0  502 -0.49171578711E+01 -0.19583008254E+02  0.19757933114E+03  0.19860831994E+03  0.00000000000E+00 0.  1.
<mgrwt>
<rscale>  2 0.20190905E+02</rscale>
<asrwt>0</asrwt>
<pdfrwt beam="2">  1        2 0.34694354E-03 0.20190905E+02</pdfrwt>
<pdfrwt beam="1">  1       -2 0.39483983E-01 0.20190905E+02</pdfrwt>
<totfact> 0.21543972E+05</totfact>
</mgrwt>
</event>
<event>
 4    1  0.1429937E+004  0.3168995E+02  0.7546771E-02  0.1580126E+00
         -2   -1    0    0    0  501 -0.00000000000E+00  0.00000000000E+00  0.17876136761E+03  0.17876136761E+03  0.00000000000E+00 0.  1.
          2   -1    0    0  501    0  0.00000000000E+00 -0.00000000000E+00 -0.59565041649E+02  0.59565041649E+02  0.00000000000E+00 0.  1.
          2    1    1    2  502    0 -0.11070956366E+02  0.29693209484E+02 -0.53806499421E+02  0.62445113054E+02  0.00000000000E+00 0.  1.
         -2    1    1    2    0  502  0.11070956366E+02 -0.29693209484E+02  0.17300282538E+03  0.17588129620E+03  0.00000000000E+00 0.  1.
<mgrwt>
<rscale>  2 0.31689947E+02</rscale>
<asrwt>0</asrwt>
<pdfrwt beam="2">  1        2 0.91638526E-02 0.31689947E+02</pdfrwt>
<pdfrwt beam="1">  1       -2 0.27501749E-01 0.31689947E+02</pdfrwt>
<totfact> 0.69274339E+03</totfact>
</mgrwt>
</event>
<event>
 4    1  0.1429937E+004  0.2047358E+02  0.7546771E-02  0.1736071E+00
         -2   -1    0    0    0  501 -0.00000000000E+00  0.00000000000E+00  0.21807834344E+01  0.21807834344E+01  0.00000000000E+00 0. -1.
          2   -1    0    0  501    0  0.00000000000E+00 -0.00000000000E+00 -0.20164307952E+03  0.20164307952E+03  0.00000000000E+00 0. -1.
          2    1    1    2  502    0  0.10232512160E+02 -0.17733111774E+02 -0.12177405332E+03  0.12348314711E+03  0.00000000000E+00 0. -1.
         -2    1    1    2    0  502 -0.10232512160E+02  0.17733111774E+02 -0.77688242759E+02  0.80340715838E+02  0.00000000000E+00 0. -1.
<mgrwt>
<rscale>  2 0.20473582E+02</rscale>
<asrwt>0</asrwt>
<pdfrwt beam="2">  1        2 0.31022024E-01 0.20473582E+02</pdfrwt>
<pdfrwt beam="1">  1       -2 0.33550502E-03 0.20473582E+02</pdfrwt>
<totfact> 0.91516172E+05</totfact>
</mgrwt>
</event>
<event>
 4    1  0.1429937E+004  0.2416398E+02  0.7546771E-02  0.1673309E+00
          2   -1    0    0  501    0  0.00000000000E+00  0.00000000000E+00  0.15302620169E+04  0.15302620169E+04  0.00000000000E+00 0. -1.
         -2   -1    0    0    0  501 -0.00000000000E+00 -0.00000000000E+00 -0.55912994377E+00  0.55912994377E+00  0.00000000000E+00 0. -1.
          2    1    1    2  502    0 -0.80090342385E+00  0.24150701040E+02  0.11961857427E+04  0.11964297844E+04  0.00000000000E+00 0. -1.
         -2    1    1    2    0  502  0.80090342385E+00 -0.24150701040E+02  0.33351714420E+03  0.33439136245E+03  0.00000000000E+00 0. -1.
<mgrwt>
<rscale>  2 0.24163977E+02</rscale>
<asrwt>0</asrwt>
<pdfrwt beam="1">  1        2 0.23542157E+00 0.24163977E+02</pdfrwt>
<pdfrwt beam="2">  1       -2 0.86021216E-04 0.24163977E+02</pdfrwt>
<totfact> 0.60203214E+05</totfact>
</mgrwt>
</event>
<event>
 4    1  0.1429937E+004  0.2182567E+02  0.7546771E-02  0.1711285E+00
         -2   -1    0    0    0  501 -0.00000000000E+00  0.00000000000E+00  0.77402736464E+01  0.77402736464E+01  0.00000000000E+00 0.  1.
          2   -1    0    0  501    0  0.00000000000E+00 -0.00000000000E+00 -0.20215671937E+03  0.20215671937E+03  0.00000000000E+00 0.  1.
          2    1    1    2  502    0 -0.21623231950E+02 -0.29657440454E+01 -0.18473601050E+03  0.18602084124E+03  0.00000000000E+00 0.  1.
         -2    1    1    2    0  502  0.21623231950E+02  0.29657440454E+01 -0.96804352184E+01  0.23876151778E+02  0.00000000000E+00 0.  1.
<mgrwt>
<rscale>  2 0.21825668E+02</rscale>
<asrwt>0</asrwt>
<pdfrwt beam="2">  1        2 0.31101035E-01 0.21825668E+02</pdfrwt>
<pdfrwt beam="1">  1       -2 0.11908113E-02 0.21825668E+02</pdfrwt>
<totfact> 0.17061144E+05</totfact>
</mgrwt>
</event>
<event>
 4    1  0.1429937E+004  0.4428783E+02  0.7546771E-02  0.1478837E+00
         -2   -1    0    0    0  501 -0.00000000000E+00  0.00000000000E+00  0.46087210884E+02  0.46087210884E+02  0.00000000000E+00 0.  1.
          2   -1    0    0  501    0  0.00000000000E+00 -0.00000000000E+00 -0.16927922908E+03  0.16927922908E+03  0.00000000000E+00 0. -1.
          2    1    1    2  502    0 -0.76897707626E+01 -0.43615126491E+02 -0.15476463365E+03  0.16097671777E+03  0.00000000000E+00 0. -1.
         -2    1    1    2    0  502  0.76897707626E+01  0.43615126491E+02  0.31572615461E+02  0.54389722193E+02  0.00000000000E+00 0.  1.
<mgrwt>
<rscale>  2 0.44287829E+02</rscale>
<asrwt>0</asrwt>
<pdfrwt beam="2">  1        2 0.26042958E-01 0.44287829E+02</pdfrwt>
<pdfrwt beam="1">  1       -2 0.70903402E-02 0.44287829E+02</pdfrwt>
<totfact> 0.19111158E+04</totfact>
</mgrwt>
</event>
<event>
 4    1  0.1429937E+004  0.2559566E+02  0.7546771E-02  0.1652591E+00
         -2   -1    0    0    0  501 -0.00000000000E+00  0.00000000000E+00  0.16330756518E+03  0.16330756518E+03  0.00000000000E+00 0.  1.
          2   -1    0    0  501    0  0.00000000000E+00 -0.00000000000E+00 -0.65634516308E+01  0.65634516308E+01  0.00000000000E+00 0. -1.
          2    1    1    2  502    0 -0.17975424449E+02  0.18221462376E+02  0.25412528260E+02  0.36068465005E+02  0.00000000000E+00 0. -1.
         -2    1    1    2    0  502  0.17975424449E+02 -0.18221462376E+02  0.13133158529E+03  0.13380255181E+03  0.00000000000E+00 0.  1.
<mgrwt>
<rscale>  2 0.25595655E+02</rscale>
<asrwt>0</asrwt>
<pdfrwt beam="2">  1        2 0.10097619E-02 0.25595655E+02</pdfrwt>
<pdfrwt beam="1">  1       -2 0.25124238E-01 0.25595655E+02</pdfrwt>
<totfact> 0.12499611E+05</totfact>
</mgrwt>
</event>
<event>
 4    1  0.1429937E+004  0.2062658E+02  0.7546771E-02  0.1733147E+00
          2   -1    0    0  501    0  0.00000000000E+00  0.00000000000E+00  0.75307407416E+03  0.75307407416E+03  0.00000000000E+00 0. -1.
         -2   -1    0    0    0  501 -0.00000000000E+00 -0.00000000000E+00 -0.28651145677E+01  0.28651145677E+01  0.00000000000E+00 0.  1.
          2    1    1    2  502    0  0.92079169501E+01 -0.18457246541E+02  0.71376495203E+03  0.71406292610E+03  0.00000000000E+00 0. -1.
         -2    1    1    2    0  502 -0.92079169501E+01  0.18457246541E+02  0.36444007560E+02  0.41876262625E+02  0.00000000000E+00 0.  1.
<mgrwt>
<rscale>  2 0.20626577E+02</rscale>
<asrwt>0</asrwt>
<pdfrwt beam="1">  1        2 0.11585739E+00 0.20626577E+02</pdfrwt>
<pdfrwt beam="2">  1       -2 0.44078746E-03 0.20626577E+02</pdfrwt>
<totfact> 0.16981585E+05</totfact>
</mgrwt>
</event>
<event>
 4    1  0.1429937E+004  0.2017311E+02  0.7546771E-02  0.1741907E+00
         -2   -1    0    0    0  501 -0.00000000000E+00  0.00000000000E+00  0.86898597170E+02  0.86898597170E+02  0.00000000000E+00 0.  1.
          2   -1    0    0  501    0  0.00000000000E+00 -0.00000000000E+00 -0.19940430521E+03  0.19940430521E+03  0.00000000000E+00 0. -1.
          2    1    1    2  502    0 -0.72786448513E+01  0.18814239138E+02 -0.19771333204E+03  0.19873981969E+03  0.00000000000E+00 0. -1.
         -2    1    1    2    0  502  0.72786448513E+01 -0.18814239138E+02  0.85207623991E+02  0.87563082697E+02  0.00000000000E+00 0.  1.
<mgrwt>
<rscale>  2 0.20173107E+02</rscale>
<asrwt>0</asrwt>
<pdfrwt beam="2">  1        2 0.30677585E-01 0.20173107E+02</pdfrwt>
<pdfrwt beam="1">  1       -2 0.13369015E-01 0.20173107E+02</pdfrwt>
<totfact> 0.55907288E+03</totfact>
</mgrwt>
</event>
<event>
 4    1  0.1429937E+004  0.2348163E+02  0.7546771E-02  0.1683820E+00
         -2   -1    0    0    0  501 -0.00000000000E+00  0.00000000000E+00  0.33223159575E+00  0.33223159575E+00  0.00000000000E+00 0.  1.
          2   -1    0    0  501    0  0.00000000000E+00 -0.00000000000E+00 -0.21181015866E+04  0.21181015866E+04  0.00000000000E+00 0. -1.
          2    1    1    2  502    0  0.19549603698E+02 -0.13007693712E+02 -0.15516722809E+04  0.15518499459E+04  0.00000000000E+00 0. -1.
         -2    1    1    2    0  502 -0.19549603698E+02  0.13007693712E+02 -0.56609707405E+03  0.56658387230E+03  0.00000000000E+00 0.  1.
<mgrwt>
<rscale>  2 0.23481633E+02</rscale>
<asrwt>0</asrwt>
<pdfrwt beam="2">  1        2 0.32586065E+00 0.23481633E+02</pdfrwt>
<pdfrwt beam="1">  1       -2 0.51112731E-04 0.23481633E+02</pdfrwt>
<totfact> 0.63023028E+05</totfact>
</mgrwt>
</event>
<event>
 4    1  0.1429937E+004  0.2715018E+02  0.7546771E-02  0.1631910E+00
          2   -1    0    0  501    0  0.00000000000E+00  0.00000000000E+00  0.11017035489E+04  0.11017035489E+04  0.00000000000E+00 0.  1.
         -2   -1    0    0    0  501 -0.00000000000E+00 -0.00000000000E+00 -0.12825358238E+02  0.12825358238E+02  0.00000000000E+00 0.  1.
          2    1    1    2  502    0  0.25502851761E+02 -0.93132731706E+01  0.10869729314E+04  0.10873119544E+04  0.00000000000E+00 0.  1.
         -2    1    1    2    0  502 -0.25502851761E+02  0.93132731706E+01  0.19052592533E+01  0.27216952767E+02  0.00000000000E+00 0.  1.
<mgrwt>
<rscale>  2 0.27150184E+02</rscale>
<asrwt>0</asrwt>
<pdfrwt beam="1">  1        2 0.16949278E+00 0.27150184E+02</pdfrwt>
<pdfrwt beam="2">  1       -2 0.19731329E-02 0.27150184E+02</pdfrwt>
<totfact> 0.14872008E+04</totfact>
</mgrwt>
</event>
<event>
 4    1  0.1429937E+004  0.2821352E+02  0.7546771E-02  0.1618719E+00
         -2   -1    0    0    0  501 -0.00000000000E+00  0.00000000000E+00  0.91065555390E+01  0.91065555390E+01  0.00000000000E+00 0.  1.
          2   -1    0    0  501    0  0.00000000000E+00 -0.00000000000E+00 -0.11296789667E+03  0.11296789667E+03  0.00000000000E+00 0. -1.
          2    1    1    2  502    0  0.21616972346E+02 -0.18130336505E+02 -0.80962951060E+02  0.85737984811E+02  0.00000000000E+00 0. -1.
         -2    1    1    2    0  502 -0.21616972346E+02  0.18130336505E+02 -0.22898390074E+02  0.36336467401E+02  0.00000000000E+00 0.  1.
<mgrwt>
<rscale>  2 0.28213518E+02</rscale>
<asrwt>0</asrwt>
<pdfrwt beam="2">  1        2 0.17379676E-01 0.28213518E+02</pdfrwt>
<pdfrwt beam="1">  1       -2 0.14010086E-02 0.28213518E+02</pdfrwt>
<totfact> 0.26881575E+05</totfact>
</mgrwt>
</event>
<event>
 4    1  0.1429937E+004  0.2476221E+02  0.7546771E-02  0.1664441E+00
         -2   -1    0    0    0  501 -0.00000000000E+00  0.00000000000E+00  0.16834660080E+01  0.16834660080E+01  0.00000000000E+00 0.  1.
          2   -1    0    0  501    0  0.00000000000E+00 -0.00000000000E+00 -0.12843692459E+04  0.12843692459E+04  0.00000000000E+00 0.  1.
          2    1    1    2  502    0  0.14085375307E+02 -0.20365886087E+02 -0.11856084351E+04  0.11858669944E+04  0.00000000000E+00 0.  1.
         -2    1    1    2    0  502 -0.14085375307E+02  0.20365886087E+02 -0.97077344832E+02  0.10018571751E+03  0.00000000000E+00 0.  1.
<mgrwt>
<rscale>  2 0.24762211E+02</rscale>
<asrwt>0</asrwt>
<pdfrwt beam="2">  1        2 0.19759522E+00 0.24762211E+02</pdfrwt>
<pdfrwt beam="1">  1       -2 0.25899483E-03 0.24762211E+02</pdfrwt>
<totfact> 0.18468475E+05</totfact>
</mgrwt>
</event>
<event>
 4    1  0.1429937E+004  0.2221781E+02  0.7546771E-02  0.1704512E+00
          2   -1    0    0  501    0  0.00000000000E+00  0.00000000000E+00  0.73103638765E+02  0.73103638765E+02  0.00000000000E+00 0.  1.
         -2   -1    0    0    0  501 -0.00000000000E+00 -0.00000000000E+00 -0.54782366767E+03  0.54782366767E+03  0.00000000000E+00 0. -1.
          2    1    1    2  502    0  0.15336743981E+02 -0.16075301432E+02  0.71184316310E+02  0.74571026013E+02  0.00000000000E+00 0.  1.
         -2    1    1    2    0  502 -0.15336743981E+02  0.16075301432E+02 -0.54590434522E+03  0.54635628042E+03  0.00000000000E+00 0. -1.
<mgrwt>
<rscale>  2 0.22217809E+02</rscale>
<asrwt>0</asrwt>
<pdfrwt beam="1">  1        2 0.11246714E-01 0.22217809E+02</pdfrwt>
<pdfrwt beam="2">  1       -2 0.84280563E-01 0.22217809E+02</pdfrwt>
<totfact> 0.62529062E+02</totfact>
</mgrwt>
</event>
<event>
 4    1  0.1429937E+004  0.3584377E+02  0.7546771E-02  0.1541233E+00
          2   -1    0    0  501    0  0.00000000000E+00  0.00000000000E+00  0.14034148166E+04  0.14034148166E+04  0.00000000000E+00 0.  1.
         -2   -1    0    0    0  501 -0.00000000000E+00 -0.00000000000E+00 -0.25293588987E+02  0.25293588987E+02  0.00000000000E+00 0.  1.
          2    1    1    2  502    0  0.28367899554E+02 -0.21909776742E+02  0.13903681784E+04  0.13908301289E+04  0.00000000000E+00 0.  1.
         -2    1    1    2    0  502 -0.28367899554E+02  0.21909776742E+02 -0.12246950753E+02  0.37878276687E+02  0.00000000000E+00 0.  1.
<mgrwt>
<rscale>  2 0.35843773E+02</rscale>
<asrwt>0</asrwt>
<pdfrwt beam="1">  1        2 0.21590991E+00 0.35843773E+02</pdfrwt>
<pdfrwt beam="2">  1       -2 0.38913225E-02 0.35843773E+02</pdfrwt>
<totfact> 0.41390518E+03</totfact>
</mgrwt>
</event>
<event>
 4    1  0.1429937E+004  0.4834444E+02  0.7546771E-02  0.1454481E+00
          2   -1    0    0  501    0  0.00000000000E+00  0.00000000000E+00  0.41458205448E+03  0.41458205448E+03  0.00000000000E+00 0. -1.
         -2   -1    0    0    0  501 -0.00000000000E+00 -0.00000000000E+00 -0.64306633247E+01  0.64306633247E+01  0.00000000000E+00 0.  1.
          2    1    1    2  502    0 -0.46335915755E+02  0.13790138999E+02  0.27800774018E+03  0.28217988700E+03  0.00000000000E+00 0. -1.
         -2    1    1    2    0  502  0.46335915755E+02 -0.13790138999E+02  0.13014365097E+03  0.13883283081E+03  0.00000000000E+00 0.  1.
<mgrwt>
<rscale>  2 0.48344441E+02</rscale>
<asrwt>0</asrwt>
<pdfrwt beam="1">  1        2 0.63781833E-01 0.48344441E+02</pdfrwt>
<pdfrwt beam="2">  1       -2 0.98933315E-03 0.48344441E+02</pdfrwt>
<totfact> 0.12757719E+05</totfact>
</mgrwt>
</event>
<event>
 4    1  0.1429937E+004  0.2136344E+02  0.7546771E-02  0.1719499E+00
         -2   -1    0    0    0  501 -0.00000000000E+00  0.00000000000E+00  0.23122351787E+03  0.23122351787E+03  0.00000000000E+00 0. -1.
          2   -1    0    0  501    0  0.00000000000E+00 -0.00000000000E+00 -0.31400878348E+01  0.31400878348E+01  0.00000000000E+00 0. -1.
          2    1    1    2  502    0 -0.71775508614E+00  0.21351381161E+02  0.42627285107E+02  0.47681045348E+02  0.00000000000E+00 0. -1.
         -2    1    1    2    0  502  0.71775508614E+00 -0.21351381161E+02  0.18545614493E+03  0.18668256036E+03  0.00000000000E+00 0. -1.
<mgrwt>
<rscale>  2 0.21363442E+02</rscale>
<asrwt>0</asrwt>
<pdfrwt beam="2">  1        2 0.48309062E-03 0.21363442E+02</pdfrwt>
<pdfrwt beam="1">  1       -2 0.35572836E-01 0.21363442E+02</pdfrwt>
<totfact> 0.17134631E+05</totfact>
</mgrwt>
</event>
<event>
 4    1  0.1429937E+004  0.9291920E+02  0.7546771E-02  0.1295933E+00
          2   -1    0    0  501    0  0.00000000000E+00  0.00000000000E+00  0.41138838496E+03  0.41138838496E+03  0.00000000000E+00 0. -1.
         -2   -1    0    0    0  501 -0.00000000000E+00 -0.00000000000E+00 -0.22473432054E+02  0.22473432054E+02  0.00000000000E+00 0. -1.
          2    1    1    2  502    0 -0.30447888693E+02  0.87788972070E+02  0.25024011644E+03  0.26693462387E+03  0.00000000000E+00 0. -1.
         -2    1    1    2    0  502  0.30447888693E+02 -0.87788972070E+02  0.13867483646E+03  0.16692719314E+03  0.00000000000E+00 0. -1.
<mgrwt>
<rscale>  2 0.92919199E+02</rscale>
<asrwt>0</asrwt>
<pdfrwt beam="1">  1        2 0.63290515E-01 0.92919199E+02</pdfrwt>
<pdfrwt beam="2">  1       -2 0.34574514E-02 0.92919199E+02</pdfrwt>
<totfact> 0.23848719E+04</totfact>
</mgrwt>
</event>
<event>
 4    1  0.1429937E+004  0.2311074E+02  0.7546771E-02  0.1689721E+00
          2   -1    0    0  501    0  0.00000000000E+00  0.00000000000E+00  0.13951176983E+04  0.13951176983E+04  0.00000000000E+00 0.  1.
         -2   -1    0    0    0  501 -0.00000000000E+00 -0.00000000000E+00 -0.40717720446E+01  0.40717720446E+01  0.00000000000E+00 0. -1.
          2    1    1    2  502    0  0.13242393788E+02 -0.18940577159E+02  0.13614170353E+04  0.13616131795E+04  0.00000000000E+00 0.  1.
         -2    1    1    2    0  502 -0.13242393788E+02  0.18940577159E+02  0.29628890857E+02  0.37576290793E+02  0.00000000000E+00 0. -1.
<mgrwt>
<rscale>  2 0.23110743E+02</rscale>
<asrwt>0</asrwt>
<pdfrwt beam="1">  1        2 0.21463311E+00 0.23110743E+02</pdfrwt>
<pdfrwt beam="2">  1       -2 0.62642758E-03 0.23110743E+02</pdfrwt>
<totfact> 0.49390016E+04</totfact>
</mgrwt>
</event>
<event>
 4    1  0.1429937E+004  0.3675651E+02  0.7546771E-02  0.1533533E+00
          2   -1    0    0  501    0  0.00000000000E+00  0.00000000000E+00  0.11865355032E+04  0.11865355032E+04  0.00000000000E+00 0.  1.
         -2   -1    0    0    0  501 -0.00000000000E+00 -0.00000000000E+00 -0.32178022921E+03  0.32178022921E+03  0.00000000000E+00 0. -1.
          2    1    1    2  502    0  0.34176214925E+02 -0.13528764267E+02  0.11851999984E+04  0.11857698247E+04  0.00000000000E+00 0.  1.
         -2    1    1    2    0  502 -0.34176214925E+02  0.13528764267E+02 -0.32044472442E+03  0.32254590764E+03  0.00000000000E+00 0. -1.
<mgrwt>
<rscale>  2 0.36756511E+02</rscale>
<asrwt>0</asrwt>
<pdfrwt beam="1">  1        2 0.18254392E+00 0.36756511E+02</pdfrwt>
<pdfrwt beam="2">  1       -2 0.49504651E-01 0.36756511E+02</pdfrwt>
<totfact> 0.91203778E+01</totfact>
</mgrwt>
</event>
<event>
 4    1  0.1429937E+004  0.4136187E+02  0.7546771E-02  0.1498422E+00
          2   -1    0    0  501    0  0.00000000000E+00  0.00000000000E+00  0.20595930017E+04  0.20595930017E+04  0.00000000000E+00 0. -1.
         -2   -1    0    0    0  501 -0.00000000000E+00 -0.00000000000E+00 -0.13775699248E+01  0.13775699248E+01  0.00000000000E+00 0. -1.
          2    1    1    2  502    0 -0.26962685312E+02  0.31365873594E+02  0.16784088581E+04  0.16789184314E+04  0.00000000000E+00 0. -1.
         -2    1    1    2    0  502  0.26962685312E+02 -0.31365873594E+02  0.37980657371E+03  0.38205214023E+03  0.00000000000E+00 0. -1.
<mgrwt>
<rscale>  2 0.41361872E+02</rscale>
<asrwt>0</asrwt>
<pdfrwt beam="1">  1        2 0.31685800E+00 0.41361872E+02</pdfrwt>
<pdfrwt beam="2">  1       -2 0.21193548E-03 0.41361872E+02</pdfrwt>
<totfact> 0.11265543E+05</totfact>
</mgrwt>
</event>
<event>
 4    1  0.1429937E+004  0.5690752E+02  0.7546771E-02  0.1411288E+00
          2   -1    0    0  501    0  0.00000000000E+00  0.00000000000E+00  0.14674527148E+04  0.14674527148E+04  0.00000000000E+00 0. -1.
         -2   -1    0    0    0  501 -0.00000000000E+00 -0.00000000000E+00 -0.61550468114E+01  0.61550468114E+01  0.00000000000E+00 0.  1.
          2    1    1    2  502    0  0.28032098046E+02  0.49524409729E+02  0.13207615315E+04  0.13219869473E+04  0.00000000000E+00 0. -1.
         -2    1    1    2    0  502 -0.28032098046E+02 -0.49524409729E+02  0.14053613646E+03  0.15162081431E+03  0.00000000000E+00 0.  1.
<mgrwt>
<rscale>  2 0.56907519E+02</rscale>
<asrwt>0</asrwt>
<pdfrwt beam="1">  1        2 0.22576168E+00 0.56907519E+02</pdfrwt>
<pdfrwt beam="2">  1       -2 0.94693144E-03 0.56907519E+02</pdfrwt>
<totfact> 0.29118762E+04</totfact>
</mgrwt>
</event>
<event>
 4    1  0.1429937E+004  0.3868445E+02  0.7546771E-02  0.1518122E+00
         -2   -1    0    0    0  501 -0.00000000000E+00  0.00000000000E+00  0.28132066018E+03  0.28132066018E+03  0.00000000000E+00 0.  1.
          2   -1    0    0  501    0  0.00000000000E+00 -0.00000000000E+00 -0.68713533548E+01  0.68713533548E+01  0.00000000000E+00 0. -1.
          2    1    1    2  502    0  0.11571594341E+02  0.36913204037E+02  0.68745945192E+02  0.78882770034E+02  0.00000000000E+00 0. -1.
         -2    1    1    2    0  502 -0.11571594341E+02 -0.36913204037E+02  0.20570336163E+03  0.20930924350E+03  0.00000000000E+00 0.  1.
<mgrwt>
<rscale>  2 0.38684447E+02</rscale>
<asrwt>0</asrwt>
<pdfrwt beam="2">  1        2 0.10571315E-02 0.38684447E+02</pdfrwt>
<pdfrwt beam="1">  1       -2 0.43280093E-01 0.38684447E+02</pdfrwt>
<totfact> 0.49738316E+04</totfact>
</mgrwt>
</event>
<event>
 4    1  0.1429937E+004  0.2278931E+02  0.7546771E-02  0.1694948E+00
          2   -1    0    0  501    0  0.00000000000E+00  0.00000000000E+00  0.13028189119E+01  0.13028189119E+01  0.00000000000E+00 0. -1.
         -2   -1    0    0    0  501 -0.00000000000E+00 -0.00000000000E+00 -0.11822249244E+04  0.11822249244E+04  0.00000000000E+00 0.  1.
          2    1    1    2  502    0  0.22148626363E+02  0.53657214267E+01 -0.10868846005E+03  0.11105194264E+03  0.00000000000E+00 0. -1.
         -2    1    1    2    0  502 -0.22148626363E+02 -0.53657214267E+01 -0.10722336455E+04  0.10724758007E+04  0.00000000000E+00 0.  1.
<mgrwt>
<rscale>  2 0.22789309E+02</rscale>
<asrwt>0</asrwt>
<pdfrwt beam="1">  1        2 0.20043377E-03 0.22789309E+02</pdfrwt>
<pdfrwt beam="2">  1       -2 0.18188067E+00 0.22789309E+02</pdfrwt>
<totfact> 0.17195048E+04</totfact>
</mgrwt>
</event>
<event>
 4    1  0.1429937E+004  0.2090318E+02  0.7546771E-02  0.1727942E+00
         -2   -1    0    0    0  501 -0.00000000000E+00  0.00000000000E+00  0.22344032696E+03  0.22344032696E+03  0.00000000000E+00 0. -1.
          2   -1    0    0  501    0  0.00000000000E+00 -0.00000000000E+00 -0.95111001297E+01  0.95111001297E+01  0.00000000000E+00 0. -1.
          2    1    1    2  502    0 -0.33612734244E+01 -0.20631156247E+02  0.31511176248E+01  0.21139354517E+02  0.00000000000E+00 0. -1.
         -2    1    1    2    0  502  0.33612734244E+01  0.20631156247E+02  0.21077810920E+03  0.21181207257E+03  0.00000000000E+00 0. -1.
<mgrwt>
<rscale>  2 0.20903176E+02</rscale>
<asrwt>0</asrwt>
<pdfrwt beam="2">  1        2 0.14632463E-02 0.20903176E+02</pdfrwt>
<pdfrwt beam="1">  1       -2 0.34375431E-01 0.20903176E+02</pdfrwt>
<totfact> 0.42829464E+04</totfact>
</mgrwt>
</event>
<event>
 4    1  0.1429937E+004  0.2835367E+02  0.7546771E-02  0.1617034E+00
         -2   -1    0    0    0  501 -0.00000000000E+00  0.00000000000E+00  0.98971479112E+01  0.98971479112E+01  0.00000000000E+00 0.  1.
          2   -1    0    0  501    0  0.00000000000E+00 -0.00000000000E+00 -0.10883373755E+04  0.10883373755E+04  0.00000000000E+00 0.  1.
          2    1    1    2  502    0 -0.15638197626E+02 -0.23651160725E+02 -0.10674482528E+04  0.10678247530E+04  0.00000000000E+00 0.  1.
         -2    1    1    2    0  502  0.15638197626E+02  0.23651160725E+02 -0.10991974776E+02  0.30409770438E+02  0.00000000000E+00 0.  1.
<mgrwt>
<rscale>  2 0.28353670E+02</rscale>
<asrwt>0</asrwt>
<pdfrwt beam="2">  1        2 0.16743647E+00 0.28353670E+02</pdfrwt>
<pdfrwt beam="1">  1       -2 0.15226386E-02 0.28353670E+02</pdfrwt>
<totfact> 0.21719139E+04</totfact>
</mgrwt>
</event>
<event>
 4    1  0.1429937E+004  0.2140902E+02  0.7546771E-02  0.1718678E+00
         -2   -1    0    0    0  501 -0.00000000000E+00  0.00000000000E+00  0.48365415785E+01  0.48365415785E+01  0.00000000000E+00 0.  1.
          2   -1    0    0  501    0  0.00000000000E+00 -0.00000000000E+00 -0.16932973924E+03  0.16932973924E+03  0.00000000000E+00 0.  1.
          2    1    1    2  502    0  0.72470682756E+01 -0.20145123442E+02 -0.14003324769E+03  0.14166035598E+03  0.00000000000E+00 0.  1.
         -2    1    1    2    0  502 -0.72470682756E+01  0.20145123442E+02 -0.24459949967E+02  0.32505924836E+02  0.00000000000E+00 0.  1.
<mgrwt>
<rscale>  2 0.21409017E+02</rscale>
<asrwt>0</asrwt>
<pdfrwt beam="2">  1        2 0.26050735E-01 0.21409017E+02</pdfrwt>
<pdfrwt beam="1">  1       -2 0.74408317E-03 0.21409017E+02</pdfrwt>
<totfact> 0.38278178E+05</totfact>
</mgrwt>
</event>
<event>
 4    1  0.1429937E+004  0.4045150E+02  0.7546771E-02  0.1504915E+00
          2   -1    0    0  501    0  0.00000000000E+00  0.00000000000E+00  0.19481849412E+04  0.19481849412E+04  0.00000000000E+00 0.  1.
         -2   -1    0    0    0  501 -0.00000000000E+00 -0.00000000000E+00 -0.84011040887E+00  0.84011040887E+00  0.00000000000E+00 0.  1.
          2    1    1    2  502    0 -0.16457813395E+02 -0.36952169052E+02  0.95905923864E+03  0.95991194682E+03  0.00000000000E+00 0.  1.
         -2    1    1    2    0  502  0.16457813395E+02  0.36952169052E+02  0.98828559210E+03  0.98911310474E+03  0.00000000000E+00 0.  1.
<mgrwt>
<rscale>  2 0.40451503E+02</rscale>
<asrwt>0</asrwt>
<pdfrwt beam="1">  1        2 0.29971714E+00 0.40451503E+02</pdfrwt>
<pdfrwt beam="2">  1       -2 0.12924931E-03 0.40451503E+02</pdfrwt>
<totfact> 0.24774306E+05</totfact>
</mgrwt>
</event>
<event>
 4    1  0.1429937E+004  0.2515815E+02  0.7546771E-02  0.1658741E+00
         -2   -1    0    0    0  501 -0.00000000000E+00  0.00000000000E+00  0.16724927053E+02  0.16724927053E+02  0.00000000000E+00 0.  1.
          2   -1    0    0  501    0  0.00000000000E+00 -0.00000000000E+00 -0.79517778401E+02  0.79517778401E+02  0.00000000000E+00 0. -1.
          2    1    1    2  502    0 -0.22289366879E+02 -0.11666900571E+02 -0.66233279103E+02  0.70850403708E+02  0.00000000000E+00 0. -1.
         -2    1    1    2    0  502  0.22289366879E+02  0.11666900571E+02  0.34404277551E+01  0.25392301746E+02  0.00000000000E+00 0.  1.
<mgrwt>
<rscale>  2 0.25158149E+02</rscale>
<asrwt>0</asrwt>
<pdfrwt beam="2">  1        2 0.12233504E-01 0.25158149E+02</pdfrwt>
<pdfrwt beam="1">  1       -2 0.25730657E-02 0.25158149E+02</pdfrwt>
<totfact> 0.16654214E+05</totfact>
</mgrwt>
</event>
<event>
 4    1  0.1429937E+004  0.2044053E+02  0.7546771E-02  0.1736707E+00
         -2   -1    0    0    0  501 -0.00000000000E+00  0.00000000000E+00  0.27639317778E+02  0.27639317778E+02  0.00000000000E+00 0. -1.
          2   -1    0    0  501    0  0.00000000000E+00 -0.00000000000E+00 -0.17452630794E+02  0.17452630794E+02  0.00000000000E+00 0. -1.
          2    1    1    2  502    0  0.16855437954E+02  0.11563280546E+02 -0.31550361474E+01  0.20682589265E+02  0.00000000000E+00 0. -1.
         -2    1    1    2    0  502 -0.16855437954E+02 -0.11563280546E+02  0.13341723132E+02  0.24409359306E+02  0.00000000000E+00 0. -1.
<mgrwt>
<rscale>  2 0.20440529E+02</rscale>
<asrwt>0</asrwt>
<pdfrwt beam="2">  1        2 0.26850201E-02 0.20440529E+02</pdfrwt>
<pdfrwt beam="1">  1       -2 0.42522027E-02 0.20440529E+02</pdfrwt>
<totfact> 0.48359841E+05</totfact>
</mgrwt>
</event>
<event>
 4    1  0.1429937E+004  0.2175180E+02  0.7546771E-02  0.1712580E+00
          2   -1    0    0  501    0  0.00000000000E+00  0.00000000000E+00  0.26923835672E+03  0.26923835672E+03  0.00000000000E+00 0. -1.
         -2   -1    0    0    0  501 -0.00000000000E+00 -0.00000000000E+00 -0.36097755721E+01  0.36097755721E+01  0.00000000000E+00 0.  1.
          2    1    1    2  502    0  0.15711637481E+02  0.15042785656E+02  0.23054329657E+03  0.23156716638E+03  0.00000000000E+00 0. -1.
         -2    1    1    2    0  502 -0.15711637481E+02 -0.15042785656E+02  0.35085284579E+02  0.41280965912E+02  0.00000000000E+00 0.  1.
<mgrwt>
<rscale>  2 0.21751803E+02</rscale>
<asrwt>0</asrwt>
<pdfrwt beam="1">  1        2 0.41421270E-01 0.21751803E+02</pdfrwt>
<pdfrwt beam="2">  1       -2 0.55535030E-03 0.21751803E+02</pdfrwt>
<totfact> 0.35761769E+05</totfact>
</mgrwt>
</event>
<event>
 4    1  0.1429937E+004  0.3167840E+02  0.7546771E-02  0.1580244E+00
          2   -1    0    0  501    0  0.00000000000E+00  0.00000000000E+00  0.35785784979E+02  0.35785784979E+02  0.00000000000E+00 0. -1.
         -2   -1    0    0    0  501 -0.00000000000E+00 -0.00000000000E+00 -0.31870771353E+03  0.31870771353E+03  0.00000000000E+00 0. -1.
          2    1    1    2  502    0  0.19618219323E+02 -0.24872610635E+02  0.27808474465E+02  0.42152491519E+02  0.00000000000E+00 0. -1.
         -2    1    1    2    0  502 -0.19618219323E+02  0.24872610635E+02 -0.31073040301E+03  0.31234100699E+03  0.00000000000E+00 0. -1.
<mgrwt>
<rscale>  2 0.31678404E+02</rscale>
<asrwt>0</asrwt>
<pdfrwt beam="1">  1        2 0.55055052E-02 0.31678404E+02</pdfrwt>
<pdfrwt beam="2">  1       -2 0.49031958E-01 0.31678404E+02</pdfrwt>
<totfact> 0.45164769E+03</totfact>
</mgrwt>
</event>
<event>
 4    1  0.1900595E+004  0.2633834E+02  0.7546771E-02  0.1642491E+00
         -2   -1    0    0    0  501 -0.00000000000E+00  0.00000000000E+00  0.30444727998E+03  0.30444727998E+03  0.00000000000E+00 0.  1.
          2   -1    0    0  501    0  0.00000000000E+00 -0.00000000000E+00 -0.11532471729E+04  0.11532471729E+04  0.00000000000E+00 0.  1.
          2    1    1    2  502    0  0.12559351112E+01  0.26308378112E+02 -0.11525267899E+04  0.11528277016E+04  0.00000000000E+00 0.  1.
         -2    1    1    2    0  502 -0.12559351112E+01 -0.26308378112E+02  0.30372689694E+03  0.30486675131E+03  0.00000000000E+00 0.  1.
<mgrwt>
<rscale>  2 0.26338340E+02</rscale>
<asrwt>0</asrwt>
<pdfrwt beam="2">  1        2 0.17742264E+00 0.26338340E+02</pdfrwt>
<pdfrwt beam="1">  1       -2 0.46838043E-01 0.26338340E+02</pdfrwt>
<totfact> 0.10723802E+02</totfact>
</mgrwt>
</event>
<event>
 4    1  0.1429937E+004  0.2021058E+02  0.7546771E-02  0.1741173E+00
          2   -1    0    0  501    0  0.00000000000E+00  0.00000000000E+00  0.50581536140E+02  0.50581536140E+02  0.00000000000E+00 0.  1.
         -2   -1    0    0    0  501 -0.00000000000E+00 -0.00000000000E+00 -0.16967587447E+02  0.16967587447E+02  0.00000000000E+00 0.  1.
          2    1    1    2  502    0  0.19719563831E+02 -0.44279159174E+01  0.41257221596E+02  0.45941549505E+02  0.00000000000E+00 0.  1.
         -2    1    1    2    0  502 -0.19719563831E+02  0.44279159174E+01 -0.76432729032E+01  0.21607574082E+02  0.00000000000E+00 0.  1.
<mgrwt>
<rscale>  2 0.20210582E+02</rscale>
<asrwt>0</asrwt>
<pdfrwt beam="1">  1        2 0.77817747E-02 0.20210582E+02</pdfrwt>
<pdfrwt beam="2">  1       -2 0.26103981E-02 0.20210582E+02</pdfrwt>
<totfact> 0.25862746E+05</totfact>
</mgrwt>
</event>
<event>
 4    1  0.1429937E+004  0.2789796E+02  0.7546771E-02  0.1622558E+00
         -2   -1    0    0    0  501 -0.00000000000E+00  0.00000000000E+00  0.16929757993E+02  0.16929757993E+02  0.00000000000E+00 0.  1.
          2   -1    0    0  501    0  0.00000000000E+00 -0.00000000000E+00 -0.15851199236E+04  0.15851199236E+04  0.00000000000E+00 0.  1.
          2    1    1    2  502    0 -0.24853563998E+02 -0.12672668407E+02 -0.15734186887E+04  0.15736659958E+04  0.00000000000E+00 0.  1.
         -2    1    1    2    0  502  0.24853563998E+02  0.12672668407E+02  0.52285231148E+01  0.28383685841E+02  0.00000000000E+00 0.  1.
<mgrwt>
<rscale>  2 0.27897960E+02</rscale>
<asrwt>0</asrwt>
<pdfrwt beam="2">  1        2 0.24386461E+00 0.27897960E+02</pdfrwt>
<pdfrwt beam="1">  1       -2 0.26045781E-02 0.27897960E+02</pdfrwt>
<totfact> 0.58639038E+03</totfact>
</mgrwt>
</event>
<event>
 4    1  0.1429937E+004  0.3661522E+02  0.7546771E-02  0.1534708E+00
          2   -1    0    0  501    0  0.00000000000E+00  0.00000000000E+00  0.31163904322E+03  0.31163904322E+03  0.00000000000E+00 0.  1.
         -2   -1    0    0    0  501 -0.00000000000E+00 -0.00000000000E+00 -0.27434684638E+03  0.27434684638E+03  0.00000000000E+00 0. -1.
          2    1    1    2  502    0 -0.35048522929E+02  0.10596001838E+02  0.30933276753E+03  0.31149227162E+03  0.00000000000E+00 0.  1.
         -2    1    1    2    0  502  0.35048522929E+02 -0.10596001838E+02 -0.27204057069E+03  0.27449361798E+03  0.00000000000E+00 0. -1.
<mgrwt>
<rscale>  2 0.36615218E+02</rscale>
<asrwt>0</asrwt>
<pdfrwt beam="1">  1        2 0.47944468E-01 0.36615218E+02</pdfrwt>
<pdfrwt beam="2">  1       -2 0.42207207E-01 0.36615218E+02</pdfrwt>
<totfact> 0.54974470E+02</totfact>
</mgrwt>
</event>
<event>
 4    1  0.1429937E+004  0.2666325E+02  0.7546771E-02  0.1638201E+00
          2   -1    0    0  501    0  0.00000000000E+00  0.00000000000E+00  0.64921398174E+03  0.64921398174E+03  0.00000000000E+00 0.  1.
         -2   -1    0    0    0  501 -0.00000000000E+00 -0.00000000000E+00 -0.44349393029E+03  0.44349393029E+03  0.00000000000E+00 0. -1.
          2    1    1    2  502    0  0.19366573652E+01 -0.26592818847E+02  0.64853904525E+03  0.64908691396E+03  0.00000000000E+00 0.  1.
         -2    1    1    2    0  502 -0.19366573652E+01  0.26592818847E+02 -0.44281899380E+03  0.44362099807E+03  0.00000000000E+00 0. -1.
<mgrwt>
<rscale>  2 0.26663245E+02</rscale>
<asrwt>0</asrwt>
<pdfrwt beam="1">  1        2 0.99879074E-01 0.26663245E+02</pdfrwt>
<pdfrwt beam="2">  1       -2 0.68229836E-01 0.26663245E+02</pdfrwt>
<totfact> 0.10172671E+02</totfact>
</mgrwt>
</event>
<event>
 4    1  0.1429937E+004  0.2288690E+02  0.7546771E-02  0.1693350E+00
         -2   -1    0    0    0  501 -0.00000000000E+00  0.00000000000E+00  0.18905898856E+03  0.18905898856E+03  0.00000000000E+00 0.  1.
          2   -1    0    0  501    0  0.00000000000E+00 -0.00000000000E+00 -0.17241117064E+02  0.17241117064E+02  0.00000000000E+00 0. -1.
          2    1    1    2  502    0 -0.51047477868E+01  0.22310349667E+02 -0.85903477796E+01  0.24445945005E+02  0.00000000000E+00 0. -1.
         -2    1    1    2    0  502  0.51047477868E+01 -0.22310349667E+02  0.18040821928E+03  0.18185416062E+03  0.00000000000E+00 0.  1.
<mgrwt>
<rscale>  2 0.22886899E+02</rscale>
<asrwt>0</asrwt>
<pdfrwt beam="2">  1        2 0.26524797E-02 0.22886899E+02</pdfrwt>
<pdfrwt beam="1">  1       -2 0.29085997E-01 0.22886899E+02</pdfrwt>
<totfact> 0.27316236E+04</totfact>
</mgrwt>
</event>
<event>
 4    1  0.1429937E+004  0.2725287E+02  0.7546771E-02  0.1630604E+00
         -2   -1    0    0    0  501 -0.00000000000E+00  0.00000000000E+00  0.12402336514E+01  0.12402336514E+01  0.00000000000E+00 0.  1.
          2   -1    0    0  501    0  0.00000000000E+00 -0.00000000000E+00 -0.91644677530E+03  0.91644677530E+03  0.00000000000E+00 0.  1.
          2    1    1    2  502    0 -0.23178389812E+02  0.14334616198E+02 -0.72771672737E+03  0.72822685632E+03  0.00000000000E+00 0.  1.
         -2    1    1    2    0  502  0.23178389812E+02 -0.14334616198E+02 -0.18748981428E+03  0.18946015263E+03  0.00000000000E+00 0.  1.
<mgrwt>
<rscale>  2 0.27252871E+02</rscale>
<asrwt>0</asrwt>
<pdfrwt beam="2">  1        2 0.14099237E+00 0.27252871E+02</pdfrwt>
<pdfrwt beam="1">  1       -2 0.19080442E-03 0.27252871E+02</pdfrwt>
<totfact> 0.44345719E+05</totfact>
</mgrwt>
</event>
<event>
 4    1  0.1429937E+004  0.2767538E+02  0.7546771E-02  0.1625304E+00
          2   -1    0    0  501    0  0.00000000000E+00  0.00000000000E+00  0.31482813428E+02  0.31482813428E+02  0.00000000000E+00 0. -1.
         -2   -1    0    0    0  501 -0.00000000000E+00 -0.00000000000E+00 -0.89717308988E+03  0.89717308988E+03  0.00000000000E+00 0. -1.
          2    1    1    2  502    0 -0.27610414422E+02  0.18951083548E+01  0.25144018999E+02  0.37391818780E+02  0.00000000000E+00 0. -1.
         -2    1    1    2    0  502  0.27610414422E+02 -0.18951083548E+01 -0.89083429545E+03  0.89126408453E+03  0.00000000000E+00 0. -1.
<mgrwt>
<rscale>  2 0.27675376E+02</rscale>
<asrwt>0</asrwt>
<pdfrwt beam="1">  1        2 0.48435101E-02 0.27675376E+02</pdfrwt>
<pdfrwt beam="2">  1       -2 0.13802662E+00 0.27675376E+02</pdfrwt>
<totfact> 0.56825730E+02</totfact>
</mgrwt>
</event>
<event>
 4    1  0.1429937E+004  0.3048095E+02  0.7546771E-02  0.1592832E+00
         -2   -1    0    0    0  501 -0.00000000000E+00  0.00000000000E+00  0.90060318520E+01  0.90060318520E+01  0.00000000000E+00 0.  1.
          2   -1    0    0  501    0  0.00000000000E+00 -0.00000000000E+00 -0.74743549140E+03  0.74743549140E+03  0.00000000000E+00 0. -1.
          2    1    1    2  502    0  0.29857953932E+02  0.61311292680E+01 -0.72036527123E+03  0.72100985580E+03  0.00000000000E+00 0. -1.
         -2    1    1    2    0  502 -0.29857953932E+02 -0.61311292680E+01 -0.18064188316E+02  0.35431667455E+02  0.00000000000E+00 0.  1.
<mgrwt>
<rscale>  2 0.30480947E+02</rscale>
<asrwt>0</asrwt>
<pdfrwt beam="2">  1        2 0.11499005E+00 0.30480947E+02</pdfrwt>
<pdfrwt beam="1">  1       -2 0.13855437E-02 0.30480947E+02</pdfrwt>
<totfact> 0.39436018E+04</totfact>
</mgrwt>
</event>
<event>
 4    1  0.1429937E+004  0.2516939E+02  0.7546771E-02  0.1658581E+00
          2   -1    0    0  501    0  0.00000000000E+00  0.00000000000E+00  0.87526223220E+02  0.87526223220E+02  0.00000000000E+00 0.  1.
         -2   -1    0    0    0  501 -0.00000000000E+00 -0.00000000000E+00 -0.26702477668E+02  0.26702477668E+02  0.00000000000E+00 0.  1.
          2    1    1    2  502    0  0.19610101652E+02  0.15777891344E+02  0.79175161489E+02  0.83079504927E+02  0.00000000000E+00 0.  1.
         -2    1    1    2    0  502 -0.19610101652E+02 -0.15777891344E+02 -0.18351415938E+02  0.31149195961E+02  0.00000000000E+00 0.  1.
<mgrwt>
<rscale>  2 0.25169385E+02</rscale>
<asrwt>0</asrwt>
<pdfrwt beam="1">  1        2 0.13465573E-01 0.25169385E+02</pdfrwt>
<pdfrwt beam="2">  1       -2 0.41080735E-02 0.25169385E+02</pdfrwt>
<totfact> 0.77733094E+04</totfact>
</mgrwt>
</event>
<event>
 4    1  0.1429937E+004  0.2339241E+02  0.7546771E-02  0.1685227E+00
         -2   -1    0    0    0  501 -0.00000000000E+00  0.00000000000E+00  0.23818878300E+02  0.23818878300E+02  0.00000000000E+00 0. -1.
          2   -1    0    0  501    0  0.00000000000E+00 -0.00000000000E+00 -0.40800859649E+03  0.40800859649E+03  0.00000000000E+00 0.  1.
          2    1    1    2  502    0  0.94297755044E+01  0.21407575071E+02 -0.40184184627E+03  0.40252214144E+03  0.00000000000E+00 0.  1.
         -2    1    1    2    0  502 -0.94297755044E+01 -0.21407575071E+02  0.17652128084E+02  0.29305333344E+02  0.00000000000E+00 0. -1.
<mgrwt>
<rscale>  2 0.23392412E+02</rscale>
<asrwt>0</asrwt>
<pdfrwt beam="2">  1        2 0.62770559E-01 0.23392412E+02</pdfrwt>
<pdfrwt beam="1">  1       -2 0.36644425E-02 0.23392412E+02</pdfrwt>
<totfact> 0.18441006E+04</totfact>
</mgrwt>
</event>
<event>
 4    1  0.1429937E+004  0.2551059E+02  0.7546771E-02  0.1653775E+00
          2   -1    0    0  501    0  0.00000000000E+00  0.00000000000E+00  0.76131901039E+03  0.76131901039E+03  0.00000000000E+00 0.  1.
         -2   -1    0    0    0  501 -0.00000000000E+00 -0.00000000000E+00 -0.14104540119E+01  0.14104540119E+01  0.00000000000E+00 0.  1.
          2    1    1    2  502    0 -0.24925206907E+02 -0.54336298222E+01  0.61931655200E+03  0.61984173937E+03  0.00000000000E+00 0.  1.
         -2    1    1    2    0  502  0.24925206907E+02  0.54336298222E+01  0.14059200437E+03  0.14288772503E+03  0.00000000000E+00 0.  1.
<mgrwt>
<rscale>  2 0.25510591E+02</rscale>
<asrwt>0</asrwt>
<pdfrwt beam="1">  1        2 0.11712567E+00 0.25510591E+02</pdfrwt>
<pdfrwt beam="2">  1       -2 0.21699353E-03 0.25510591E+02</pdfrwt>
<totfact> 0.45555726E+05</totfact>
</mgrwt>
</event>
<event>
 4    1  0.1429937E+004  0.2073460E+02  0.7546771E-02  0.1731102E+00
          2   -1    0    0  501    0  0.00000000000E+00  0.00000000000E+00  0.53636978065E+02  0.53636978065E+02  0.00000000000E+00 0.  1.
         -2   -1    0    0    0  501 -0.00000000000E+00 -0.00000000000E+00 -0.13663291837E+03  0.13663291837E+03  0.00000000000E+00 0.  1.
          2    1    1    2  502    0 -0.36441508587E+01 -0.20411853176E+02  0.50804308297E+02  0.54872591766E+02  0.00000000000E+00 0.  1.
         -2    1    1    2    0  502  0.36441508587E+01  0.20411853176E+02 -0.13380024860E+03  0.13539730467E+03  0.00000000000E+00 0.  1.
<mgrwt>
<rscale>  2 0.20734599E+02</rscale>
<asrwt>0</asrwt>
<pdfrwt beam="1">  1        2 0.82518427E-02 0.20734599E+02</pdfrwt>
<pdfrwt beam="2">  1       -2 0.21020449E-01 0.20734599E+02</pdfrwt>
<totfact> 0.11462896E+04</totfact>
</mgrwt>
</event>
<event>
 4    1  0.1429937E+004  0.2475152E+02  0.7546771E-02  0.1664597E+00
         -2   -1    0    0    0  501 -0.00000000000E+00  0.00000000000E+00  0.97291781794E+01  0.97291781794E+01  0.00000000000E+00 0.  1.
          2   -1    0    0  501    0  0.00000000000E+00 -0.00000000000E+00 -0.26913472181E+03  0.26913472181E+03  0.00000000000E+00 0. -1.
          2    1    1    2  502    0  0.24195607312E+02 -0.52163393135E+01 -0.25173809570E+03  0.25295198445E+03  0.00000000000E+00 0. -1.
         -2    1    1    2    0  502 -0.24195607312E+02  0.52163393135E+01 -0.76674479236E+01  0.25911915535E+02  0.00000000000E+00 0.  1.
<mgrwt>
<rscale>  2 0.24751517E+02</rscale>
<asrwt>0</asrwt>
<pdfrwt beam="2">  1        2 0.41405345E-01 0.24751517E+02</pdfrwt>
<pdfrwt beam="1">  1       -2 0.14967965E-02 0.24751517E+02</pdfrwt>
<totfact> 0.96918534E+04</totfact>
</mgrwt>
</event>
<event>
 4    1  0.1429937E+004  0.1381096E+03  0.7546771E-02  0.1215896E+00
          2   -1    0    0  501    0  0.00000000000E+00  0.00000000000E+00  0.24763239118E+04  0.24763239118E+04  0.00000000000E+00 0. -1.
         -2   -1    0    0    0  501 -0.00000000000E+00 -0.00000000000E+00 -0.16088922434E+02  0.16088922434E+02  0.00000000000E+00 0.  1.
          2    1    1    2  502    0 -0.63060313034E+02 -0.12287249645E+03  0.21298450430E+04  0.21343181957E+04  0.00000000000E+00 0. -1.
         -2    1    1    2    0  502  0.63060313034E+02  0.12287249645E+03  0.33038994642E+03  0.35809463855E+03  0.00000000000E+00 0.  1.
<mgrwt>
<rscale>  2 0.13810957E+03</rscale>
<asrwt>0</asrwt>
<pdfrwt beam="1">  1        2 0.38097261E+00 0.13810957E+03</pdfrwt>
<pdfrwt beam="2">  1       -2 0.24752208E-02 0.13810957E+03</pdfrwt>
<totfact> 0.23591817E+03</totfact>
</mgrwt>
</event>
<event>
 4    1  0.1429937E+004  0.2173501E+02  0.7546771E-02  0.1712876E+00
          2   -1    0    0  501    0  0.00000000000E+00  0.00000000000E+00  0.15628169177E+04  0.15628169177E+04  0.00000000000E+00 0. -1.
         -2   -1    0    0    0  501 -0.00000000000E+00 -0.00000000000E+00 -0.50841552120E+01  0.50841552120E+01  0.00000000000E+00 0. -1.
          2    1    1    2  502    0 -0.18639463845E+02  0.11179485857E+02  0.15391546970E+04  0.15393081536E+04  0.00000000000E+00 0. -1.
         -2    1    1    2    0  502  0.18639463845E+02 -0.11179485857E+02  0.18578065504E+02  0.28592919304E+02  0.00000000000E+00 0. -1.
<mgrwt>
<rscale>  2 0.21735007E+02</rscale>
<asrwt>0</asrwt>
<pdfrwt beam="1">  1        2 0.24043299E+00 0.21735007E+02</pdfrwt>
<pdfrwt beam="2">  1       -2 0.78217897E-03 0.21735007E+02</pdfrwt>
<totfact> 0.30243464E+04</totfact>
</mgrwt>
</event>
<event>
 4    1  0.1429937E+004  0.2070901E+02  0.7546771E-02  0.1731585E+00
         -2   -1    0    0    0  501 -0.00000000000E+00  0.00000000000E+00  0.32533218659E+01  0.32533218659E+01  0.00000000000E+00 0.  1.
          2   -1    0    0  501    0  0.00000000000E+00 -0.00000000000E+00 -0.39134020704E+03  0.39134020704E+03  0.00000000000E+00 0.  1.
          2    1    1    2  502    0  0.20514844220E+02  0.28291491905E+01 -0.35471009233E+03  0.35531410402E+03  0.00000000000E+00 0.  1.
         -2    1    1    2    0  502 -0.20514844220E+02 -0.28291491905E+01 -0.33376792854E+02  0.39279424890E+02  0.00000000000E+00 0.  1.
<mgrwt>
<rscale>  2 0.20709006E+02</rscale>
<asrwt>0</asrwt>
<pdfrwt beam="2">  1        2 0.60206137E-01 0.20709006E+02</pdfrwt>
<pdfrwt beam="1">  1       -2 0.50051146E-03 0.20709006E+02</pdfrwt>
<totfact> 0.28070443E+05</totfact>
</mgrwt>
</event>
<event>
 4    1  0.1429937E+004  0.2086714E+02  0.7546771E-02  0.1728614E+00
          2   -1    0    0  501    0  0.00000000000E+00  0.00000000000E+00  0.91119996217E+01  0.91119996217E+01  0.00000000000E+00 0. -1.
         -2   -1    0    0    0  501 -0.00000000000E+00 -0.00000000000E+00 -0.11517083866E+03  0.11517083866E+03  0.00000000000E+00 0. -1.
          2    1    1    2  502    0 -0.90143370693E+01  0.18819652546E+02 -0.54973303403E+01  0.21579115728E+02  0.00000000000E+00 0. -1.
         -2    1    1    2    0  502  0.90143370693E+01 -0.18819652546E+02 -0.10056150870E+03  0.10270372255E+03  0.00000000000E+00 0. -1.
<mgrwt>
<rscale>  2 0.20867142E+02</rscale>
<asrwt>0</asrwt>
<pdfrwt beam="1">  1        2 0.14018461E-02 0.20867142E+02</pdfrwt>
<pdfrwt beam="2">  1       -2 0.17718591E-01 0.20867142E+02</pdfrwt>
<totfact> 0.13595105E+05</totfact>
</mgrwt>
</event>
<event>
 4    1  0.1429937E+004  0.2140645E+02  0.7546771E-02  0.1718724E+00
          2   -1    0    0  501    0  0.00000000000E+00  0.00000000000E+00  0.67559422588E+03  0.67559422588E+03  0.00000000000E+00 0. -1.
         -2   -1    0    0    0  501 -0.00000000000E+00 -0.00000000000E+00 -0.72831011350E+00  0.72831011350E+00  0.00000000000E+00 0.  1.
          2    1    1    2  502    0 -0.74973343302E+01 -0.20050585146E+02  0.42607104939E+03  0.42660845645E+03  0.00000000000E+00 0. -1.
         -2    1    1    2    0  502  0.74973343302E+01  0.20050585146E+02  0.24879486638E+03  0.24971407955E+03  0.00000000000E+00 0.  1.
<mgrwt>
<rscale>  2 0.21406447E+02</rscale>
<asrwt>0</asrwt>
<pdfrwt beam="1">  1        2 0.10393707E+00 0.21406447E+02</pdfrwt>
<pdfrwt beam="2">  1       -2 0.11204825E-03 0.21406447E+02</pdfrwt>
<totfact> 0.11807081E+06</totfact>
</mgrwt>
</event>
<event>
 4    1  0.1429937E+004  0.2026738E+02  0.7546771E-02  0.1740063E+00
         -2   -1    0    0    0  501 -0.00000000000E+00  0.00000000000E+00  0.13638457288E+02  0.13638457288E+02  0.00000000000E+00 0. -1.
          2   -1    0    0  501    0  0.00000000000E+00 -0.00000000000E+00 -0.55445806252E+02  0.55445806252E+02  0.00000000000E+00 0. -1.
          2    1    1    2  502    0  0.48615421634E+01  0.19675674123E+02 -0.44249608539E+02  0.48670264024E+02  0.00000000000E+00 0. -1.
         -2    1    1    2    0  502 -0.48615421634E+01 -0.19675674123E+02  0.24422595741E+01  0.20413999515E+02  0.00000000000E+00 0. -1.
<mgrwt>
<rscale>  2 0.20267381E+02</rscale>
<asrwt>0</asrwt>
<pdfrwt beam="2">  1        2 0.85301240E-02 0.20267381E+02</pdfrwt>
<pdfrwt beam="1">  1       -2 0.20982242E-02 0.20267381E+02</pdfrwt>
<totfact> 0.31372050E+05</totfact>
</mgrwt>
</event>
<event>
 4    1  0.1429937E+004  0.2029719E+02  0.7546771E-02  0.1739482E+00
          2   -1    0    0  501    0  0.00000000000E+00  0.00000000000E+00  0.19390435276E+03  0.19390435276E+03  0.00000000000E+00 0. -1.
         -2   -1    0    0    0  501 -0.00000000000E+00 -0.00000000000E+00 -0.71369592732E+02  0.71369592732E+02  0.00000000000E+00 0. -1.
          2    1    1    2  502    0  0.19465849399E+02 -0.57495025837E+01  0.19191516997E+03  0.19298551380E+03  0.00000000000E+00 0. -1.
         -2    1    1    2    0  502 -0.19465849399E+02  0.57495025837E+01 -0.69380409941E+02  0.72288431691E+02  0.00000000000E+00 0. -1.
<mgrwt>
<rscale>  2 0.20297194E+02</rscale>
<asrwt>0</asrwt>
<pdfrwt beam="1">  1        2 0.29831439E-01 0.20297194E+02</pdfrwt>
<pdfrwt beam="2">  1       -2 0.10979937E-01 0.20297194E+02</pdfrwt>
<totfact> 0.77468577E+03</totfact>
</mgrwt>
</event>
<event>
 4    1  0.1429937E+004  0.2231532E+02  0.7546771E-02  0.1702855E+00
         -2   -1    0    0    0  501 -0.00000000000E+00  0.00000000000E+00  0.40815490142E+00  0.40815490142E+00  0.00000000000E+00 0. -1.
          2   -1    0    0  501    0  0.00000000000E+00 -0.00000000000E+00 -0.13240368869E+04  0.13240368869E+04  0.00000000000E+00 0.  1.
          2    1    1    2  502    0 -0.20673189496E+02  0.84019191392E+01 -0.47623714709E+03  0.47675968084E+03  0.00000000000E+00 0.  1.
         -2    1    1    2    0  502  0.20673189496E+02 -0.84019191392E+01 -0.84739158491E+03  0.84768536096E+03  0.00000000000E+00 0. -1.
<mgrwt>
<rscale>  2 0.22315320E+02</rscale>
<asrwt>0</asrwt>
<pdfrwt beam="2">  1        2 0.20369486E+00 0.22315320E+02</pdfrwt>
<pdfrwt beam="1">  1       -2 0.62794025E-04 0.22315320E+02</pdfrwt>
<totfact> 0.11171538E+06</totfact>
</mgrwt>
</event>
<event>
 4    1  0.1429937E+004  0.3032484E+02  0.7546771E-02  0.1594526E+00
          2   -1    0    0  501    0  0.00000000000E+00  0.00000000000E+00  0.94454244797E+03  0.94454244797E+03  0.00000000000E+00 0.  1.
         -2   -1    0    0    0  501 -0.00000000000E+00 -0.00000000000E+00 -0.25006630572E+01  0.25006630572E+01  0.00000000000E+00 0.  1.
          2    1    1    2  502    0 -0.82273908904E+00 -0.30313674271E+02  0.84105543982E+03  0.84160195377E+03  0.00000000000E+00 0.  1.
         -2    1    1    2    0  502  0.82273908904E+00  0.30313674271E+02  0.10098634509E+03  0.10544115725E+03  0.00000000000E+00 0.  1.
<mgrwt>
<rscale>  2 0.30324837E+02</rscale>
<asrwt>0</asrwt>
<pdfrwt beam="1">  1        2 0.14531394E+00 0.30324837E+02</pdfrwt>
<pdfrwt beam="2">  1       -2 0.38471815E-03 0.30324837E+02</pdfrwt>
<totfact> 0.17107539E+05</totfact>
</mgrwt>
</event>
<event>
 4    1  0.1429937E+004  0.2748745E+02  0.7546771E-02  0.1627647E+00
         -2   -1    0    0    0  501 -0.00000000000E+00  0.00000000000E+00  0.11964613910E+01  0.11964613910E+01  0.00000000000E+00 0.  1.
          2   -1    0    0  501    0  0.00000000000E+00 -0.00000000000E+00 -0.69011133537E+03  0.69011133537E+03  0.00000000000E+00 0.  1.
          2    1    1    2  502    0  0.18030565414E+02  0.20747484765E+02 -0.24371994675E+03  0.24526510526E+03  0.00000000000E+00 0.  1.
         -2    1    1    2    0  502 -0.18030565414E+02 -0.20747484765E+02 -0.44519492723E+03  0.44604269150E+03  0.00000000000E+00 0.  1.
<mgrwt>
<rscale>  2 0.27487455E+02</rscale>
<asrwt>0</asrwt>
<pdfrwt beam="2">  1        2 0.10617093E+00 0.27487455E+02</pdfrwt>
<pdfrwt beam="1">  1       -2 0.18407106E-03 0.27487455E+02</pdfrwt>
<totfact> 0.64531469E+05</totfact>
</mgrwt>
</event>
<event>
 4    1  0.1429937E+004  0.2042670E+02  0.7546771E-02  0.1736973E+00
         -2   -1    0    0    0  501 -0.00000000000E+00  0.00000000000E+00  0.18449597096E+02  0.18449597096E+02  0.00000000000E+00 0.  1.
          2   -1    0    0  501    0  0.00000000000E+00 -0.00000000000E+00 -0.42581479704E+02  0.42581479704E+02  0.00000000000E+00 0. -1.
          2    1    1    2  502    0  0.12000925839E+02  0.16529600141E+02 -0.32961509433E+02  0.38777712747E+02  0.00000000000E+00 0. -1.
         -2    1    1    2    0  502 -0.12000925839E+02 -0.16529600141E+02  0.88296268244E+01  0.22253364053E+02  0.00000000000E+00 0.  1.
<mgrwt>
<rscale>  2 0.20426696E+02</rscale>
<asrwt>0</asrwt>
<pdfrwt beam="2">  1        2 0.65509969E-02 0.20426696E+02</pdfrwt>
<pdfrwt beam="1">  1       -2 0.28383996E-02 0.20426696E+02</pdfrwt>
<totfact> 0.28336684E+05</totfact>
</mgrwt>
</event>
<event>
 4    1  0.1429937E+004  0.2071883E+02  0.7546771E-02  0.1731400E+00
          2   -1    0    0  501    0  0.00000000000E+00  0.00000000000E+00  0.76524596788E+03  0.76524596788E+03  0.00000000000E+00 0. -1.
         -2   -1    0    0    0  501 -0.00000000000E+00 -0.00000000000E+00 -0.72099051941E+02  0.72099051941E+02  0.00000000000E+00 0.  1.
          2    1    1    2  502    0 -0.50100264445E+01 -0.20103972606E+02  0.76361407486E+03  0.76389510105E+03  0.00000000000E+00 0. -1.
         -2    1    1    2    0  502  0.50100264445E+01  0.20103972606E+02 -0.70467158928E+02  0.73449918767E+02  0.00000000000E+00 0.  1.
<mgrwt>
<rscale>  2 0.20718834E+02</rscale>
<asrwt>0</asrwt>
<pdfrwt beam="1">  1        2 0.11773014E+00 0.20718834E+02</pdfrwt>
<pdfrwt beam="2">  1       -2 0.11092162E-01 0.20718834E+02</pdfrwt>
<totfact> 0.19223500E+03</totfact>
</mgrwt>
</event>
<event>
 4    1  0.1429937E+004  0.2164334E+02  0.7546771E-02  0.1714494E+00
         -2   -1    0    0    0  501 -0.00000000000E+00  0.00000000000E+00  0.10255648013E+02  0.10255648013E+02  0.00000000000E+00 0.  1.
          2   -1    0    0  501    0  0.00000000000E+00 -0.00000000000E+00 -0.57031910319E+02  0.57031910319E+02  0.00000000000E+00 0.  1.
          2    1    1    2  502    0  0.13711527430E+02  0.16745992611E+02 -0.38400937180E+02  0.44080224923E+02  0.00000000000E+00 0.  1.
         -2    1    1    2    0  502 -0.13711527430E+02 -0.16745992611E+02 -0.83753251260E+01  0.23207333409E+02  0.00000000000E+00 0.  1.
<mgrwt>
<rscale>  2 0.21643342E+02</rscale>
<asrwt>0</asrwt>
<pdfrwt beam="2">  1        2 0.87741398E-02 0.21643342E+02</pdfrwt>
<pdfrwt beam="1">  1       -2 0.15777920E-02 0.21643342E+02</pdfrwt>
<totfact> 0.45702050E+05</totfact>
</mgrwt>
</event>
<event>
 4    1  0.1429937E+004  0.2015665E+02  0.7546771E-02  0.1742231E+00
          2   -1    0    0  501    0  0.00000000000E+00  0.00000000000E+00  0.11066195676E+04  0.11066195676E+04  0.00000000000E+00 0.  1.
         -2   -1    0    0    0  501 -0.00000000000E+00 -0.00000000000E+00 -0.12742372449E+01  0.12742372449E+01  0.00000000000E+00 0. -1.
          2    1    1    2  502    0 -0.33378396051E+01  0.19878359395E+02  0.10200510341E+04  0.10202501666E+04  0.00000000000E+00 0.  1.
         -2    1    1    2    0  502  0.33378396051E+01 -0.19878359395E+02  0.85294296269E+02  0.87643638226E+02  0.00000000000E+00 0. -1.
<mgrwt>
<rscale>  2 0.20156645E+02</rscale>
<asrwt>0</asrwt>
<pdfrwt beam="1">  1        2 0.17024839E+00 0.20156645E+02</pdfrwt>
<pdfrwt beam="2">  1       -2 0.19603739E-03 0.20156645E+02</pdfrwt>
<totfact> 0.31211724E+05</totfact>
</mgrwt>
</event>
<event>
 4    1  0.1429937E+004  0.2004650E+02  0.7546771E-02  0.1744405E+00
          2   -1    0    0  501    0  0.00000000000E+00  0.00000000000E+00  0.18617586703E+04  0.18617586703E+04  0.00000000000E+00 0.  1.
         -2   -1    0    0    0  501 -0.00000000000E+00 -0.00000000000E+00 -0.21613702290E+00  0.21613702290E+00  0.00000000000E+00 0.  1.
          2    1    1    2  502    0 -0.19622416498E+02 -0.41015668137E+01  0.96465093083E+03  0.96485920238E+03  0.00000000000E+00 0.  1.
         -2    1    1    2    0  502  0.19622416498E+02  0.41015668137E+01  0.89689160247E+03  0.89711560496E+03  0.00000000000E+00 0.  1.
<mgrwt>
<rscale>  2 0.20046498E+02</rscale>
<asrwt>0</asrwt>
<pdfrwt beam="1">  1        2 0.28641157E+00 0.20046498E+02</pdfrwt>
<pdfrwt beam="2">  1       -2 0.33253341E-04 0.20046498E+02</pdfrwt>
<totfact> 0.13943306E+06</totfact>
</mgrwt>
</event>
<event>
 4    1  0.1429937E+004  0.2237772E+02  0.7546771E-02  0.1701800E+00
         -2   -1    0    0    0  501 -0.00000000000E+00  0.00000000000E+00  0.58849386621E+00  0.58849386621E+00  0.00000000000E+00 0. -1.
          2   -1    0    0  501    0  0.00000000000E+00 -0.00000000000E+00 -0.93358622348E+03  0.93358622348E+03  0.00000000000E+00 0. -1.
          2    1    1    2  502    0  0.18165571908E+01 -0.22303870663E+02 -0.60548741562E+03  0.60590079469E+03  0.00000000000E+00 0. -1.
         -2    1    1    2    0  502 -0.18165571908E+01  0.22303870663E+02 -0.32751031399E+03  0.32827392266E+03  0.00000000000E+00 0. -1.
<mgrwt>
<rscale>  2 0.22377724E+02</rscale>
<asrwt>0</asrwt>
<pdfrwt beam="2">  1        2 0.14362870E+00 0.22377724E+02</pdfrwt>
<pdfrwt beam="1">  1       -2 0.90537487E-04 0.22377724E+02</pdfrwt>
<totfact> 0.10995561E+06</totfact>
</mgrwt>
</event>
<event>
 4    1  0.1429937E+004  0.2435467E+02  0.7546771E-02  0.1670448E+00
         -2   -1    0    0    0  501 -0.00000000000E+00  0.00000000000E+00  0.28457904256E+01  0.28457904256E+01  0.00000000000E+00 0. -1.
          2   -1    0    0  501    0  0.00000000000E+00 -0.00000000000E+00 -0.73572394181E+03  0.73572394181E+03  0.00000000000E+00 0. -1.
          2    1    1    2  502    0 -0.15381578097E+02  0.18882722831E+02 -0.67906872037E+03  0.67950531797E+03  0.00000000000E+00 0. -1.
         -2    1    1    2    0  502  0.15381578097E+02 -0.18882722831E+02 -0.53809431013E+02  0.59064414262E+02  0.00000000000E+00 0. -1.
<mgrwt>
<rscale>  2 0.24354674E+02</rscale>
<asrwt>0</asrwt>
<pdfrwt beam="2">  1        2 0.11318819E+00 0.24354674E+02</pdfrwt>
<pdfrwt beam="1">  1       -2 0.43781433E-03 0.24354674E+02</pdfrwt>
<totfact> 0.18310074E+05</totfact>
</mgrwt>
</event>
<event>
 4    1  0.1429937E+004  0.2555648E+02  0.7546771E-02  0.1653135E+00
          2   -1    0    0  501    0  0.00000000000E+00  0.00000000000E+00  0.10236978647E+03  0.10236978647E+03  0.00000000000E+00 0. -1.
         -2   -1    0    0    0  501 -0.00000000000E+00 -0.00000000000E+00 -0.66354840887E+01  0.66354840887E+01  0.00000000000E+00 0. -1.
          2    1    1    2  502    0  0.24552337324E+02  0.70934157488E+01  0.58558735365E+02  0.63892560620E+02  0.00000000000E+00 0. -1.
         -2    1    1    2    0  502 -0.24552337324E+02 -0.70934157488E+01  0.37175567017E+02  0.45112709939E+02  0.00000000000E+00 0. -1.
<mgrwt>
<rscale>  2 0.25556483E+02</rscale>
<asrwt>0</asrwt>
<pdfrwt beam="1">  1        2 0.15749197E-01 0.25556483E+02</pdfrwt>
<pdfrwt beam="2">  1       -2 0.10208438E-02 0.25556483E+02</pdfrwt>
<totfact> 0.44856470E+05</totfact>
</mgrwt>
</event>
<event>
 4    1  0.1429937E+004  0.2286659E+02  0.7546771E-02  0.1693682E+00
         -2   -1    0    0    0  501 -0.00000000000E+00  0.00000000000E+00  0.10249123341E+03  0.10249123341E+03  0.00000000000E+00 0.  1.
          2   -1    0    0  501    0  0.00000000000E+00 -0.00000000000E+00 -0.73898666294E+01  0.73898666294E+01  0.00000000000E+00 0. -1.
          2    1    1    2  502    0 -0.22825141472E+02  0.13762460888E+01  0.16979163208E+02  0.28481101098E+02  0.00000000000E+00 0. -1.
         -2    1    1    2    0  502  0.22825141472E+02 -0.13762460888E+01  0.78122203571E+02  0.81399998940E+02  0.00000000000E+00 0.  1.
<mgrwt>
<rscale>  2 0.22866594E+02</rscale>
<asrwt>0</asrwt>
<pdfrwt beam="2">  1        2 0.11369026E-02 0.22866594E+02</pdfrwt>
<pdfrwt beam="1">  1       -2 0.15767881E-01 0.22866594E+02</pdfrwt>
<totfact> 0.21991225E+05</totfact>
</mgrwt>
</event>
<event>
 4    1  0.1429937E+004  0.2179439E+02  0.7546771E-02  0.1711832E+00
         -2   -1    0    0    0  501 -0.00000000000E+00  0.00000000000E+00  0.28858923766E+01  0.28858923766E+01  0.00000000000E+00 0.  1.
          2   -1    0    0  501    0  0.00000000000E+00 -0.00000000000E+00 -0.16526966060E+03  0.16526966060E+03  0.00000000000E+00 0. -1.
          2    1    1    2  502    0 -0.11790176359E+02  0.18329948292E+02 -0.86575067081E+02  0.89276186652E+02  0.00000000000E+00 0. -1.
         -2    1    1    2    0  502  0.11790176359E+02 -0.18329948292E+02 -0.75808701146E+02  0.78879366329E+02  0.00000000000E+00 0.  1.
<mgrwt>
<rscale>  2 0.21794386E+02</rscale>
<asrwt>0</asrwt>
<pdfrwt beam="2">  1        2 0.25426104E-01 0.21794386E+02</pdfrwt>
<pdfrwt beam="1">  1       -2 0.44398341E-03 0.21794386E+02</pdfrwt>
<totfact> 0.78765481E+05</totfact>
</mgrwt>
</event>
<event>
 4    1  0.1429937E+004  0.3843477E+02  0.7546771E-02  0.1520056E+00
          2   -1    0    0  501    0  0.00000000000E+00  0.00000000000E+00  0.35945940723E+02  0.35945940723E+02  0.00000000000E+00 0. -1.
         -2   -1    0    0    0  501 -0.00000000000E+00 -0.00000000000E+00 -0.44002582739E+02  0.44002582739E+02  0.00000000000E+00 0. -1.
          2    1    1    2  502    0 -0.27605026045E+02  0.26743117097E+02  0.62456450507E+01  0.38938924704E+02  0.00000000000E+00 0. -1.
         -2    1    1    2    0  502  0.27605026045E+02 -0.26743117097E+02 -0.14302287067E+02  0.41009598758E+02  0.00000000000E+00 0. -1.
<mgrwt>
<rscale>  2 0.38434773E+02</rscale>
<asrwt>0</asrwt>
<pdfrwt beam="1">  1        2 0.55301447E-02 0.38434773E+02</pdfrwt>
<pdfrwt beam="2">  1       -2 0.67696281E-02 0.38434773E+02</pdfrwt>
<totfact> 0.11904812E+05</totfact>
</mgrwt>
</event>
<event>
 4    1  0.1429937E+004  0.4686948E+02  0.7546771E-02  0.1462997E+00
          2   -1    0    0  501    0  0.00000000000E+00  0.00000000000E+00  0.78830652292E+03  0.78830652292E+03  0.00000000000E+00 0.  1.
         -2   -1    0    0    0  501 -0.00000000000E+00 -0.00000000000E+00 -0.14546502525E+03  0.14546502525E+03  0.00000000000E+00 0. -1.
          2    1    1    2  502    0  0.32076176259E+02 -0.34174063880E+02  0.78381284267E+03  0.78521291384E+03  0.00000000000E+00 0.  1.
         -2    1    1    2    0  502 -0.32076176259E+02  0.34174063880E+02 -0.14097134500E+03  0.14855863434E+03  0.00000000000E+00 0. -1.
<mgrwt>
<rscale>  2 0.46869475E+02</rscale>
<asrwt>0</asrwt>
<pdfrwt beam="1">  1        2 0.12127792E+00 0.46869475E+02</pdfrwt>
<pdfrwt beam="2">  1       -2 0.22379235E-01 0.46869475E+02</pdfrwt>
<totfact> 0.63178338E+02</totfact>
</mgrwt>
</event>
<event>
 4    1  0.1429937E+004  0.3183702E+02  0.7546771E-02  0.1578627E+00
          2   -1    0    0  501    0  0.00000000000E+00  0.00000000000E+00  0.53735610004E+02  0.53735610004E+02  0.00000000000E+00 0. -1.
         -2   -1    0    0    0  501 -0.00000000000E+00 -0.00000000000E+00 -0.24370614250E+03  0.24370614250E+03  0.00000000000E+00 0. -1.
          2    1    1    2  502    0  0.31626931199E+02  0.36514810566E+01  0.47864277486E+02  0.57485521223E+02  0.00000000000E+00 0. -1.
         -2    1    1    2    0  502 -0.31626931199E+02 -0.36514810566E+01 -0.23783480998E+03  0.23995623128E+03  0.00000000000E+00 0. -1.
<mgrwt>
<rscale>  2 0.31837024E+02</rscale>
<asrwt>0</asrwt>
<pdfrwt beam="1">  1        2 0.82670168E-02 0.31837024E+02</pdfrwt>
<pdfrwt beam="2">  1       -2 0.37493253E-01 0.31837024E+02</pdfrwt>
<totfact> 0.45436455E+03</totfact>
</mgrwt>
</event>
<event>
 4    1  0.1429937E+004  0.2001615E+02  0.7546771E-02  0.1745007E+00
          2   -1    0    0  501    0  0.00000000000E+00  0.00000000000E+00  0.30108660177E+03  0.30108660177E+03  0.00000000000E+00 0.  1.
         -2   -1    0    0    0  501 -0.00000000000E+00 -0.00000000000E+00 -0.99246151339E+02  0.99246151339E+02  0.00000000000E+00 0.  1.
          2    1    1    2  502    0  0.10747035097E+02  0.16886314668E+02  0.29974018237E+03  0.30040776174E+03  0.00000000000E+00 0.  1.
         -2    1    1    2    0  502 -0.10747035097E+02 -0.16886314668E+02 -0.97899731939E+02  0.99924991369E+02  0.00000000000E+00 0.  1.
<mgrwt>
<rscale>  2 0.20016153E+02</rscale>
<asrwt>0</asrwt>
<pdfrwt beam="1">  1        2 0.46321015E-01 0.20016153E+02</pdfrwt>
<pdfrwt beam="2">  1       -2 0.15268639E-01 0.20016153E+02</pdfrwt>
<totfact> 0.30306903E+03</totfact>
</mgrwt>
</event>
<event>
 4    1  0.1429937E+004  0.2982033E+02  0.7546771E-02  0.1600083E+00
         -2   -1    0    0    0  501 -0.00000000000E+00  0.00000000000E+00  0.42858045130E+01  0.42858045130E+01  0.00000000000E+00 0. -1.
          2   -1    0    0  501    0  0.00000000000E+00 -0.00000000000E+00 -0.47529564588E+03  0.47529564588E+03  0.00000000000E+00 0.  1.
          2    1    1    2  502    0  0.22714564852E+01  0.29733695378E+02 -0.41550061243E+03  0.41656933527E+03  0.00000000000E+00 0.  1.
         -2    1    1    2    0  502 -0.22714564852E+01 -0.29733695378E+02 -0.55509228937E+02  0.63012115126E+02  0.00000000000E+00 0. -1.
<mgrwt>
<rscale>  2 0.29820331E+02</rscale>
<asrwt>0</asrwt>
<pdfrwt beam="2">  1        2 0.73122440E-01 0.29820331E+02</pdfrwt>
<pdfrwt beam="1">  1       -2 0.65935425E-03 0.29820331E+02</pdfrwt>
<totfact> 0.17514661E+05</totfact>
</mgrwt>
</event>
<event>
 4    1  0.1429937E+004  0.2029842E+02  0.7546771E-02  0.1739458E+00
         -2   -1    0    0    0  501 -0.00000000000E+00  0.00000000000E+00  0.20140043803E+02  0.20140043803E+02  0.00000000000E+00 0.  1.
          2   -1    0    0  501    0  0.00000000000E+00 -0.00000000000E+00 -0.69228877318E+02  0.69228877318E+02  0.00000000000E+00 0. -1.
          2    1    1    2  502    0  0.14696676727E+02 -0.14001191543E+02 -0.62049748754E+02  0.65285503688E+02  0.00000000000E+00 0. -1.
         -2    1    1    2    0  502 -0.14696676727E+02  0.14001191543E+02  0.12960915239E+02  0.24083417433E+02  0.00000000000E+00 0.  1.
<mgrwt>
<rscale>  2 0.20298415E+02</rscale>
<asrwt>0</asrwt>
<pdfrwt beam="2">  1        2 0.10650596E-01 0.20298415E+02</pdfrwt>
<pdfrwt beam="1">  1       -2 0.30984683E-02 0.20298415E+02</pdfrwt>
<totfact> 0.14228407E+05</totfact>
</mgrwt>
</event>
<event>
 4    1  0.1429937E+004  0.2190738E+02  0.7546771E-02  0.1709859E+00
         -2   -1    0    0    0  501 -0.00000000000E+00  0.00000000000E+00  0.85195277411E+01  0.85195277411E+01  0.00000000000E+00 0. -1.
          2   -1    0    0  501    0  0.00000000000E+00 -0.00000000000E+00 -0.16504244107E+03  0.16504244107E+03  0.00000000000E+00 0. -1.
          2    1    1    2  502    0 -0.16776206183E+02 -0.14088719044E+02 -0.14869179723E+03  0.15029698488E+03  0.00000000000E+00 0. -1.
         -2    1    1    2    0  502  0.16776206183E+02  0.14088719044E+02 -0.78311160947E+01  0.23264983935E+02  0.00000000000E+00 0. -1.
<mgrwt>
<rscale>  2 0.21907375E+02</rscale>
<asrwt>0</asrwt>
<pdfrwt beam="2">  1        2 0.25391142E-01 0.21907375E+02</pdfrwt>
<pdfrwt beam="1">  1       -2 0.13106967E-02 0.21907375E+02</pdfrwt>
<totfact> 0.18430845E+05</totfact>
</mgrwt>
</event>
<event>
 4    1  0.1429937E+004  0.2390137E+02  0.7546771E-02  0.1677302E+00
          2   -1    0    0  501    0  0.00000000000E+00  0.00000000000E+00  0.11094406229E+02  0.11094406229E+02  0.00000000000E+00 0.  1.
         -2   -1    0    0    0  501 -0.00000000000E+00 -0.00000000000E+00 -0.73826514070E+02  0.73826514070E+02  0.00000000000E+00 0. -1.
          2    1    1    2  502    0  0.14792661639E+02  0.18773723697E+02 -0.80118704102E+01  0.25208443175E+02  0.00000000000E+00 0.  1.
         -2    1    1    2    0  502 -0.14792661639E+02 -0.18773723697E+02 -0.54720237431E+02  0.59712477124E+02  0.00000000000E+00 0. -1.
<mgrwt>
<rscale>  2 0.23901371E+02</rscale>
<asrwt>0</asrwt>
<pdfrwt beam="1">  1        2 0.17068318E-02 0.23901371E+02</pdfrwt>
<pdfrwt beam="2">  1       -2 0.11357925E-01 0.23901371E+02</pdfrwt>
<totfact> 0.21779425E+05</totfact>
</mgrwt>
</event>
<event>
 4    1  0.1429937E+004  0.3121753E+02  0.7546771E-02  0.1585008E+00
          2   -1    0    0  501    0  0.00000000000E+00  0.00000000000E+00  0.87654265576E+03  0.87654265576E+03  0.00000000000E+00 0.  1.
         -2   -1    0    0    0  501 -0.00000000000E+00 -0.00000000000E+00 -0.11199688649E+01  0.11199688649E+01  0.00000000000E+00 0.  1.
          2    1    1    2  502    0  0.22396055713E+02  0.21747430290E+02  0.47520519613E+03  0.47622947459E+03  0.00000000000E+00 0.  1.
         -2    1    1    2    0  502 -0.22396055713E+02 -0.21747430290E+02  0.40021749077E+03  0.40143315004E+03  0.00000000000E+00 0.  1.
<mgrwt>
<rscale>  2 0.31217528E+02</rscale>
<asrwt>0</asrwt>
<pdfrwt beam="1">  1        2 0.13485217E+00 0.31217528E+02</pdfrwt>
<pdfrwt beam="2">  1       -2 0.17230360E-03 0.31217528E+02</pdfrwt>
<totfact> 0.55506887E+05</totfact>
</mgrwt>
</event>
<event>
 4    1  0.1429937E+004  0.3161119E+02  0.7546771E-02  0.1580933E+00
         -2   -1    0    0    0  501 -0.00000000000E+00  0.00000000000E+00  0.45424318945E+02  0.45424318945E+02  0.00000000000E+00 0. -1.
          2   -1    0    0  501    0  0.00000000000E+00 -0.00000000000E+00 -0.22433832239E+03  0.22433832239E+03  0.00000000000E+00 0. -1.
          2    1    1    2  502    0  0.24920379779E+02  0.19448446441E+02 -0.21755452878E+03  0.21983912388E+03  0.00000000000E+00 0. -1.
         -2    1    1    2    0  502 -0.24920379779E+02 -0.19448446441E+02  0.38640525330E+02  0.49923517455E+02  0.00000000000E+00 0. -1.
<mgrwt>
<rscale>  2 0.31611191E+02</rscale>
<asrwt>0</asrwt>
<pdfrwt beam="2">  1        2 0.34513589E-01 0.31611191E+02</pdfrwt>
<pdfrwt beam="1">  1       -2 0.69883567E-02 0.31611191E+02</pdfrwt>
<totfact> 0.13911145E+04</totfact>
</mgrwt>
</event>
<event>
 4    1  0.1429937E+004  0.2226337E+02  0.7546771E-02  0.1703737E+00
         -2   -1    0    0    0  501 -0.00000000000E+00  0.00000000000E+00  0.34849218635E+01  0.34849218635E+01  0.00000000000E+00 0.  1.
          2   -1    0    0  501    0  0.00000000000E+00 -0.00000000000E+00 -0.16849938041E+03  0.16849938041E+03  0.00000000000E+00 0.  1.
          2    1    1    2  502    0  0.21955691344E+02  0.36885416372E+01 -0.11646123467E+03  0.11857013495E+03  0.00000000000E+00 0.  1.
         -2    1    1    2    0  502 -0.21955691344E+02 -0.36885416372E+01 -0.48553223876E+02  0.53414167321E+02  0.00000000000E+00 0.  1.
<mgrwt>
<rscale>  2 0.22263372E+02</rscale>
<asrwt>0</asrwt>
<pdfrwt beam="2">  1        2 0.25922985E-01 0.22263372E+02</pdfrwt>
<pdfrwt beam="1">  1       -2 0.53614176E-03 0.22263372E+02</pdfrwt>
<totfact> 0.60421432E+05</totfact>
</mgrwt>
</event>
<event>
 4    1  0.1429937E+004  0.4384000E+02  0.7546771E-02  0.1481716E+00
          2   -1    0    0  501    0  0.00000000000E+00  0.00000000000E+00  0.58221449587E+01  0.58221449587E+01  0.00000000000E+00 0. -1.
         -2   -1    0    0    0  501 -0.00000000000E+00 -0.00000000000E+00 -0.34358240361E+03  0.34358240361E+03  0.00000000000E+00 0.  1.
          2    1    1    2  502    0 -0.12133629644E+02 -0.42127432258E+02 -0.13428513434E+03  0.14126019546E+03  0.00000000000E+00 0. -1.
         -2    1    1    2    0  502  0.12133629644E+02  0.42127432258E+02 -0.20347512431E+03  0.20814435311E+03  0.00000000000E+00 0.  1.
<mgrwt>
<rscale>  2 0.43839999E+02</rscale>
<asrwt>0</asrwt>
<pdfrwt beam="1">  1        2 0.89571448E-03 0.43839999E+02</pdfrwt>
<pdfrwt beam="2">  1       -2 0.52858839E-01 0.43839999E+02</pdfrwt>
<totfact> 0.43457250E+04</totfact>
</mgrwt>
</event>
<event>
 4    1  0.1429937E+004  0.2274797E+02  0.7546771E-02  0.1695628E+00
          2   -1    0    0  501    0  0.00000000000E+00  0.00000000000E+00  0.98249353745E+03  0.98249353745E+03  0.00000000000E+00 0. -1.
         -2   -1    0    0    0  501 -0.00000000000E+00 -0.00000000000E+00 -0.13333114521E+03  0.13333114521E+03  0.00000000000E+00 0.  1.
          2    1    1    2  502    0  0.68410574241E+01 -0.21694935884E+02  0.98139050160E+03  0.98165410758E+03  0.00000000000E+00 0. -1.
         -2    1    1    2    0  502 -0.68410574241E+01  0.21694935884E+02 -0.13222810936E+03  0.13417057507E+03  0.00000000000E+00 0.  1.
<mgrwt>
<rscale>  2 0.22747974E+02</rscale>
<asrwt>0</asrwt>
<pdfrwt beam="1">  1        2 0.15115285E+00 0.22747974E+02</pdfrwt>
<pdfrwt beam="2">  1       -2 0.20512484E-01 0.22747974E+02</pdfrwt>
<totfact> 0.55512428E+02</totfact>
</mgrwt>
</event>
<event>
 4    1  0.1429937E+004  0.4492481E+02  0.7546771E-02  0.1474812E+00
          2   -1    0    0  501    0  0.00000000000E+00  0.00000000000E+00  0.17760278532E+04  0.17760278532E+04  0.00000000000E+00 0. -1.
         -2   -1    0    0    0  501 -0.00000000000E+00 -0.00000000000E+00 -0.49470024617E+01  0.49470024617E+01  0.00000000000E+00 0.  1.
          2    1    1    2  502    0  0.44074154174E+02  0.87010157543E+01  0.16670869069E+04  0.16676921160E+04  0.00000000000E+00 0. -1.
         -2    1    1    2    0  502 -0.44074154174E+02 -0.87010157543E+01  0.10399394383E+03  0.11328273962E+03  0.00000000000E+00 0.  1.
<mgrwt>
<rscale>  2 0.44924812E+02</rscale>
<asrwt>0</asrwt>
<pdfrwt beam="1">  1        2 0.27323455E+00 0.44924812E+02</pdfrwt>
<pdfrwt beam="2">  1       -2 0.76107872E-03 0.44924812E+02</pdfrwt>
<totfact> 0.27176269E+04</totfact>
</mgrwt>
</event>
<event>
 4    1  0.1429937E+004  0.3867812E+02  0.7546771E-02  0.1518171E+00
          2   -1    0    0  501    0  0.00000000000E+00  0.00000000000E+00  0.10894883888E+03  0.10894883888E+03  0.00000000000E+00 0. -1.
         -2   -1    0    0    0  501 -0.00000000000E+00 -0.00000000000E+00 -0.20859159992E+03  0.20859159992E+03  0.00000000000E+00 0.  1.
          2    1    1    2  502    0 -0.23543214770E+02 -0.30687359604E+02  0.10363411479E+03  0.11061657539E+03  0.00000000000E+00 0. -1.
         -2    1    1    2    0  502  0.23543214770E+02  0.30687359604E+02 -0.20327687583E+03  0.20692386341E+03  0.00000000000E+00 0.  1.
<mgrwt>
<rscale>  2 0.38678120E+02</rscale>
<asrwt>0</asrwt>
<pdfrwt beam="1">  1        2 0.16761360E-01 0.38678120E+02</pdfrwt>
<pdfrwt beam="2">  1       -2 0.32091015E-01 0.38678120E+02</pdfrwt>
<totfact> 0.27177888E+03</totfact>
</mgrwt>
</event>
<event>
 4    1  0.1429937E+004  0.2215023E+02  0.7546771E-02  0.1705667E+00
         -2   -1    0    0    0  501 -0.00000000000E+00  0.00000000000E+00  0.15499820937E+02  0.15499820937E+02  0.00000000000E+00 0. -1.
          2   -1    0    0  501    0  0.00000000000E+00 -0.00000000000E+00 -0.82003555628E+03  0.82003555628E+03  0.00000000000E+00 0. -1.
          2    1    1    2  502    0  0.12241596920E+02  0.18460115582E+02 -0.81189311019E+03  0.81219520740E+03  0.00000000000E+00 0. -1.
         -2    1    1    2    0  502 -0.12241596920E+02 -0.18460115582E+02  0.73573748414E+01  0.23340169815E+02  0.00000000000E+00 0. -1.
<mgrwt>
<rscale>  2 0.22150227E+02</rscale>
<asrwt>0</asrwt>
<pdfrwt beam="2">  1        2 0.12615932E+00 0.22150227E+02</pdfrwt>
<pdfrwt beam="1">  1       -2 0.23845878E-02 0.22150227E+02</pdfrwt>
<totfact> 0.16009641E+04</totfact>
</mgrwt>
</event>
<event>
 4    1  0.1429937E+004  0.2445904E+02  0.7546771E-02  0.1668896E+00
         -2   -1    0    0    0  501 -0.00000000000E+00  0.00000000000E+00  0.39008869064E+01  0.39008869064E+01  0.00000000000E+00 0. -1.
          2   -1    0    0  501    0  0.00000000000E+00 -0.00000000000E+00 -0.45692990052E+03  0.45692990052E+03  0.00000000000E+00 0. -1.
          2    1    1    2  502    0 -0.19580757575E+02  0.14657378291E+02 -0.41432297782E+03  0.41504430457E+03  0.00000000000E+00 0. -1.
         -2    1    1    2    0  502  0.19580757575E+02 -0.14657378291E+02 -0.38706035794E+02  0.45786482858E+02  0.00000000000E+00 0. -1.
<mgrwt>
<rscale>  2 0.24459043E+02</rscale>
<asrwt>0</asrwt>
<pdfrwt beam="2">  1        2 0.70296866E-01 0.24459043E+02</pdfrwt>
<pdfrwt beam="1">  1       -2 0.60013680E-03 0.24459043E+02</pdfrwt>
<totfact> 0.19735293E+05</totfact>
</mgrwt>
</event>
<event>
 4    1  0.1429937E+004  0.2266319E+02  0.7546771E-02  0.1697029E+00
          2   -1    0    0  501    0  0.00000000000E+00  0.00000000000E+00  0.13285994459E+01  0.13285994459E+01  0.00000000000E+00 0. -1.
         -2   -1    0    0    0  501 -0.00000000000E+00 -0.00000000000E+00 -0.83517153594E+03  0.83517153594E+03  0.00000000000E+00 0.  1.
          2    1    1    2  502    0 -0.11866582209E+00 -0.22662879672E+02 -0.11039358187E+03  0.11269588774E+03  0.00000000000E+00 0. -1.
         -2    1    1    2    0  502  0.11866582209E+00  0.22662879672E+02 -0.72344935463E+03  0.72380424764E+03  0.00000000000E+00 0.  1.
<mgrwt>
<rscale>  2 0.22663190E+02</rscale>
<asrwt>0</asrwt>
<pdfrwt beam="1">  1        2 0.20439964E-03 0.22663190E+02</pdfrwt>
<pdfrwt beam="2">  1       -2 0.12848810E+00 0.22663190E+02</pdfrwt>
<totfact> 0.39333410E+04</totfact>
</mgrwt>
</event>
<event>
 4    1  0.1429937E+004  0.3737273E+02  0.7546771E-02  0.1528486E+00
          2   -1    0    0  501    0  0.00000000000E+00  0.00000000000E+00  0.15158385200E+04  0.15158385200E+04  0.00000000000E+00 0.  1.
         -2   -1    0    0    0  501 -0.00000000000E+00 -0.00000000000E+00 -0.40519579567E+01  0.40519579567E+01  0.00000000000E+00 0. -1.
          2    1    1    2  502    0 -0.36716704167E+02 -0.69716883796E+01  0.14238671345E+04  0.14243575174E+04  0.00000000000E+00 0.  1.
         -2    1    1    2    0  502  0.36716704167E+02  0.69716883796E+01  0.87919427538E+02  0.95532960502E+02  0.00000000000E+00 0. -1.
<mgrwt>
<rscale>  2 0.37372728E+02</rscale>
<asrwt>0</asrwt>
<pdfrwt beam="1">  1        2 0.23320547E+00 0.37372728E+02</pdfrwt>
<pdfrwt beam="2">  1       -2 0.62337936E-03 0.37372728E+02</pdfrwt>
<totfact> 0.46747841E+04</totfact>
</mgrwt>
</event>
<event>
 4    1  0.1429937E+004  0.2285459E+02  0.7546771E-02  0.1693878E+00
         -2   -1    0    0    0  501 -0.00000000000E+00  0.00000000000E+00  0.10147863930E+01  0.10147863930E+01  0.00000000000E+00 0.  1.
          2   -1    0    0  501    0  0.00000000000E+00 -0.00000000000E+00 -0.10758039726E+04  0.10758039726E+04  0.00000000000E+00 0.  1.
          2    1    1    2  502    0  0.22650726050E+02  0.30457941525E+01 -0.92622430427E+03  0.92650622992E+03  0.00000000000E+00 0.  1.
         -2    1    1    2    0  502 -0.22650726050E+02 -0.30457941525E+01 -0.14856488194E+03  0.15031252908E+03  0.00000000000E+00 0.  1.
<mgrwt>
<rscale>  2 0.22854589E+02</rscale>
<asrwt>0</asrwt>
<pdfrwt beam="2">  1        2 0.16551003E+00 0.22854589E+02</pdfrwt>
<pdfrwt beam="1">  1       -2 0.15611935E-03 0.22854589E+02</pdfrwt>
<totfact> 0.45216895E+05</totfact>
</mgrwt>
</event>
<event>
 4    1  0.1429937E+004  0.2649037E+02  0.7546771E-02  0.1640474E+00
         -2   -1    0    0    0  501 -0.00000000000E+00  0.00000000000E+00  0.10410022030E+02  0.10410022030E+02  0.00000000000E+00 0.  1.
          2   -1    0    0  501    0  0.00000000000E+00 -0.00000000000E+00 -0.13237956552E+04  0.13237956552E+04  0.00000000000E+00 0.  1.
          2    1    1    2  502    0 -0.38883441650E+01 -0.26203444085E+02 -0.13065887143E+04  0.13068572255E+04  0.00000000000E+00 0.  1.
         -2    1    1    2    0  502  0.38883441650E+01  0.26203444085E+02 -0.67969188815E+01  0.27348451666E+02  0.00000000000E+00 0.  1.
<mgrwt>
<rscale>  2 0.26490370E+02</rscale>
<asrwt>0</asrwt>
<pdfrwt beam="2">  1        2 0.20366089E+00 0.26490370E+02</pdfrwt>
<pdfrwt beam="1">  1       -2 0.16015417E-02 0.26490370E+02</pdfrwt>
<totfact> 0.15259857E+04</totfact>
</mgrwt>
</event>
<event>
 4    1  0.1429937E+004  0.3367960E+02  0.7546771E-02  0.1560649E+00
         -2   -1    0    0    0  501 -0.00000000000E+00  0.00000000000E+00  0.15281669871E+01  0.15281669871E+01  0.00000000000E+00 0.  1.
          2   -1    0    0  501    0  0.00000000000E+00 -0.00000000000E+00 -0.83098727453E+03  0.83098727453E+03  0.00000000000E+00 0.  1.
          2    1    1    2  502    0 -0.17022009974E+02 -0.29061432456E+02 -0.55073745312E+03  0.55176630737E+03  0.00000000000E+00 0.  1.
         -2    1    1    2    0  502  0.17022009974E+02  0.29061432456E+02 -0.27872165442E+03  0.28074913414E+03  0.00000000000E+00 0.  1.
<mgrwt>
<rscale>  2 0.33679603E+02</rscale>
<asrwt>0</asrwt>
<pdfrwt beam="2">  1        2 0.12784405E+00 0.33679603E+02</pdfrwt>
<pdfrwt beam="1">  1       -2 0.23510287E-03 0.33679603E+02</pdfrwt>
<totfact> 0.39698292E+05</totfact>
</mgrwt>
</event>
<event>
 4    1  0.1429937E+004  0.2351142E+02  0.7546771E-02  0.1683352E+00
         -2   -1    0    0    0  501 -0.00000000000E+00  0.00000000000E+00  0.41180241524E+01  0.41180241524E+01  0.00000000000E+00 0.  1.
          2   -1    0    0  501    0  0.00000000000E+00 -0.00000000000E+00 -0.34251413651E+03  0.34251413651E+03  0.00000000000E+00 0.  1.
          2    1    1    2  502    0 -0.17834473307E+02  0.15320521291E+02 -0.30434975861E+03  0.30525655173E+03  0.00000000000E+00 0.  1.
         -2    1    1    2    0  502  0.17834473307E+02 -0.15320521291E+02 -0.34046353755E+02  0.41375608935E+02  0.00000000000E+00 0.  1.
<mgrwt>
<rscale>  2 0.23511419E+02</rscale>
<asrwt>0</asrwt>
<pdfrwt beam="2">  1        2 0.52694504E-01 0.23511419E+02</pdfrwt>
<pdfrwt beam="1">  1       -2 0.63354192E-03 0.23511419E+02</pdfrwt>
<totfact> 0.24169269E+05</totfact>
</mgrwt>
</event>
<event>
 4    1  0.1429937E+004  0.2024888E+02  0.7546771E-02  0.1740424E+00
          2   -1    0    0  501    0  0.00000000000E+00  0.00000000000E+00  0.97631672018E+03  0.97631672018E+03  0.00000000000E+00 0. -1.
         -2   -1    0    0    0  501 -0.00000000000E+00 -0.00000000000E+00 -0.54414815416E+01  0.54414815416E+01  0.00000000000E+00 0. -1.
          2    1    1    2  502    0  0.15028218346E+02 -0.13570922299E+02  0.95699384262E+03  0.95720804013E+03  0.00000000000E+00 0. -1.
         -2    1    1    2    0  502 -0.15028218346E+02  0.13570922299E+02  0.13881396018E+02  0.24550161590E+02  0.00000000000E+00 0. -1.
<mgrwt>
<rscale>  2 0.20248883E+02</rscale>
<asrwt>0</asrwt>
<pdfrwt beam="1">  1        2 0.15020243E+00 0.20248883E+02</pdfrwt>
<pdfrwt beam="2">  1       -2 0.83715178E-03 0.20248883E+02</pdfrwt>
<totfact> 0.53148201E+04</totfact>
</mgrwt>
</event>
<event>
 4    1  0.1429937E+004  0.3286070E+02  0.7546771E-02  0.1568462E+00
          2   -1    0    0  501    0  0.00000000000E+00  0.00000000000E+00  0.45815062530E+03  0.45815062530E+03  0.00000000000E+00 0.  1.
         -2   -1    0    0    0  501 -0.00000000000E+00 -0.00000000000E+00 -0.13807702058E+02  0.13807702058E+02  0.00000000000E+00 0. -1.
          2    1    1    2  502    0  0.15010649621E+02 -0.29231932881E+02  0.43706852542E+03  0.43830208922E+03  0.00000000000E+00 0.  1.
         -2    1    1    2    0  502 -0.15010649621E+02  0.29231932881E+02  0.72743978242E+01  0.33656238140E+02  0.00000000000E+00 0. -1.
<mgrwt>
<rscale>  2 0.32860698E+02</rscale>
<asrwt>0</asrwt>
<pdfrwt beam="1">  1        2 0.70484700E-01 0.32860698E+02</pdfrwt>
<pdfrwt beam="2">  1       -2 0.21242622E-02 0.32860698E+02</pdfrwt>
<totfact> 0.37176404E+04</totfact>
</mgrwt>
</event>
<event>
 4    1  0.1429937E+004  0.2302499E+02  0.7546771E-02  0.1691105E+00
          2   -1    0    0  501    0  0.00000000000E+00  0.00000000000E+00  0.38972031311E+03  0.38972031311E+03  0.00000000000E+00 0.  1.
         -2   -1    0    0    0  501 -0.00000000000E+00 -0.00000000000E+00 -0.13603538408E+01  0.13603538408E+01  0.00000000000E+00 0.  1.
          2    1    1    2  502    0 -0.12493327640E+02 -0.19340812857E+02  0.19490295099E+03  0.19625827520E+03  0.00000000000E+00 0.  1.
         -2    1    1    2    0  502  0.12493327640E+02  0.19340812857E+02  0.19345700828E+03  0.19482239176E+03  0.00000000000E+00 0.  1.
<mgrwt>
<rscale>  2 0.23024992E+02</rscale>
<asrwt>0</asrwt>
<pdfrwt beam="1">  1        2 0.59956882E-01 0.23024992E+02</pdfrwt>
<pdfrwt beam="2">  1       -2 0.20928552E-03 0.23024992E+02</pdfrwt>
<totfact> 0.92785606E+05</totfact>
</mgrwt>
</event>
<event>
 4    1  0.1429937E+004  0.2469227E+02  0.7546771E-02  0.1665462E+00
          2   -1    0    0  501    0  0.00000000000E+00  0.00000000000E+00  0.11657061580E+03  0.11657061580E+03  0.00000000000E+00 0.  1.
         -2   -1    0    0    0  501 -0.00000000000E+00 -0.00000000000E+00 -0.60634198959E+01  0.60634198959E+01  0.00000000000E+00 0. -1.
          2    1    1    2  502    0  0.14959329165E+01 -0.24646909262E+02  0.77981355745E+02  0.81797309218E+02  0.00000000000E+00 0.  1.
         -2    1    1    2    0  502 -0.14959329165E+01  0.24646909262E+02  0.32525840164E+02  0.40836726483E+02  0.00000000000E+00 0. -1.
<mgrwt>
<rscale>  2 0.24692265E+02</rscale>
<asrwt>0</asrwt>
<pdfrwt beam="1">  1        2 0.17933939E-01 0.24692265E+02</pdfrwt>
<pdfrwt beam="2">  1       -2 0.93283392E-03 0.24692265E+02</pdfrwt>
<totfact> 0.43578264E+05</totfact>
</mgrwt>
</event>
<event>
 4    1  0.1429937E+004  0.2192737E+02  0.7546771E-02  0.1709511E+00
         -2   -1    0    0    0  501 -0.00000000000E+00  0.00000000000E+00  0.60643573399E+02  0.60643573399E+02  0.00000000000E+00 0.  1.
          2   -1    0    0  501    0  0.00000000000E+00 -0.00000000000E+00 -0.11848161564E+02  0.11848161564E+02  0.00000000000E+00 0.  1.
          2    1    1    2  502    0  0.16865883871E+02 -0.14012550655E+02  0.35499170093E+01  0.22212868463E+02  0.00000000000E+00 0.  1.
         -2    1    1    2    0  502 -0.16865883871E+02  0.14012550655E+02  0.45245494826E+02  0.50278866501E+02  0.00000000000E+00 0.  1.
<mgrwt>
<rscale>  2 0.21927371E+02</rscale>
<asrwt>0</asrwt>
<pdfrwt beam="2">  1        2 0.18227941E-02 0.21927371E+02</pdfrwt>
<pdfrwt beam="1">  1       -2 0.93297803E-02 0.21927371E+02</pdfrwt>
<totfact> 0.26166037E+05</totfact>
</mgrwt>
</event>
<event>
 4    1  0.1429937E+004  0.3658443E+02  0.7546771E-02  0.1534964E+00
          2   -1    0    0  501    0  0.00000000000E+00  0.00000000000E+00  0.14868993487E+03  0.14868993487E+03  0.00000000000E+00 0.  1.
         -2   -1    0    0    0  501 -0.00000000000E+00 -0.00000000000E+00 -0.94721854250E+01  0.94721854250E+01  0.00000000000E+00 0. -1.
          2    1    1    2  502    0 -0.22537148677E+01  0.36514943359E+02  0.87238796838E+02  0.94599302285E+02  0.00000000000E+00 0.  1.
         -2    1    1    2    0  502  0.22537148677E+01 -0.36514943359E+02  0.51978952608E+02  0.63562818010E+02  0.00000000000E+00 0. -1.
<mgrwt>
<rscale>  2 0.36584427E+02</rscale>
<asrwt>0</asrwt>
<pdfrwt beam="1">  1        2 0.22875373E-01 0.36584427E+02</pdfrwt>
<pdfrwt beam="2">  1       -2 0.14572594E-02 0.36584427E+02</pdfrwt>
<totfact> 0.20206105E+05</totfact>
</mgrwt>
</event>
<event>
 4    1  0.1429937E+004  0.3998777E+02  0.7546771E-02  0.1508302E+00
          2   -1    0    0  501    0  0.00000000000E+00  0.00000000000E+00  0.45910570885E+03  0.45910570885E+03  0.00000000000E+00 0.  1.
         -2   -1    0    0    0  501 -0.00000000000E+00 -0.00000000000E+00 -0.73559272321E+01  0.73559272321E+01  0.00000000000E+00 0. -1.
          2    1    1    2  502    0  0.39581757134E+02 -0.56838267342E+01  0.39511069165E+03  0.39712904709E+03  0.00000000000E+00 0.  1.
         -2    1    1    2    0  502 -0.39581757134E+02  0.56838267342E+01  0.56639089961E+02  0.69332588988E+02  0.00000000000E+00 0. -1.
<mgrwt>
<rscale>  2 0.39987765E+02</rscale>
<asrwt>0</asrwt>
<pdfrwt beam="1">  1        2 0.70631625E-01 0.39987765E+02</pdfrwt>
<pdfrwt beam="2">  1       -2 0.11316815E-02 0.39987765E+02</pdfrwt>
<totfact> 0.92017179E+04</totfact>
</mgrwt>
</event>
<event>
 4    1  0.1429937E+004  0.2750672E+02  0.7546771E-02  0.1627405E+00
          2   -1    0    0  501    0  0.00000000000E+00  0.00000000000E+00  0.64065487092E+02  0.64065487092E+02  0.00000000000E+00 0. -1.
         -2   -1    0    0    0  501 -0.00000000000E+00 -0.00000000000E+00 -0.32693743803E+02  0.32693743803E+02  0.00000000000E+00 0.  1.
          2    1    1    2  502    0 -0.26643431659E+02 -0.68371982389E+01  0.54352226814E+02  0.60916207120E+02  0.00000000000E+00 0. -1.
         -2    1    1    2    0  502  0.26643431659E+02  0.68371982389E+01 -0.22980483524E+02  0.35843023775E+02  0.00000000000E+00 0.  1.
<mgrwt>
<rscale>  2 0.27506722E+02</rscale>
<asrwt>0</asrwt>
<pdfrwt beam="1">  1        2 0.98562287E-02 0.27506722E+02</pdfrwt>
<pdfrwt beam="2">  1       -2 0.50298068E-02 0.27506722E+02</pdfrwt>
<totfact> 0.84870762E+04</totfact>
</mgrwt>
</event>
<event>
 4    1  0.1429937E+004  0.3002052E+02  0.7546771E-02  0.1597862E+00
         -2   -1    0    0    0  501 -0.00000000000E+00  0.00000000000E+00  0.12421335017E+03  0.12421335017E+03  0.00000000000E+00 0.  1.
          2   -1    0    0  501    0  0.00000000000E+00 -0.00000000000E+00 -0.62525971086E+03  0.62525971086E+03  0.00000000000E+00 0.  1.
          2    1    1    2  502    0  0.12963462904E+02  0.27077306637E+02 -0.62307914464E+03  0.62380193363E+03  0.00000000000E+00 0.  1.
         -2    1    1    2    0  502 -0.12963462904E+02 -0.27077306637E+02  0.12203278395E+03  0.12567112741E+03  0.00000000000E+00 0.  1.
<mgrwt>
<rscale>  2 0.30020525E+02</rscale>
<asrwt>0</asrwt>
<pdfrwt beam="2">  1        2 0.96193801E-01 0.30020525E+02</pdfrwt>
<pdfrwt beam="1">  1       -2 0.19109746E-01 0.30020525E+02</pdfrwt>
<totfact> 0.10500292E+03</totfact>
</mgrwt>
</event>
<event>
 4    1  0.1429937E+004  0.2723037E+02  0.7546771E-02  0.1630889E+00
         -2   -1    0    0    0  501 -0.00000000000E+00  0.00000000000E+00  0.23549089934E+01  0.23549089934E+01  0.00000000000E+00 0. -1.
          2   -1    0    0  501    0  0.00000000000E+00 -0.00000000000E+00 -0.81505194910E+03  0.81505194910E+03  0.00000000000E+00 0. -1.
          2    1    1    2  502    0  0.21150566824E+02 -0.17150702742E+02 -0.72651739611E+03  0.72702752350E+03  0.00000000000E+00 0. -1.
         -2    1    1    2    0  502 -0.21150566824E+02  0.17150702742E+02 -0.86179643997E+02  0.90379334590E+02  0.00000000000E+00 0. -1.
<mgrwt>
<rscale>  2 0.27230371E+02</rscale>
<asrwt>0</asrwt>
<pdfrwt beam="2">  1        2 0.12539280E+00 0.27230371E+02</pdfrwt>
<pdfrwt beam="1">  1       -2 0.36229314E-03 0.27230371E+02</pdfrwt>
<totfact> 0.21591048E+05</totfact>
</mgrwt>
</event>
<event>
 4    1  0.1429937E+004  0.3033038E+02  0.7546771E-02  0.1594465E+00
          2   -1    0    0  501    0  0.00000000000E+00  0.00000000000E+00  0.19427268073E+02  0.19427268073E+02  0.00000000000E+00 0.  1.
         -2   -1    0    0    0  501 -0.00000000000E+00 -0.00000000000E+00 -0.52421000494E+02  0.52421000494E+02  0.00000000000E+00 0. -1.
          2    1    1    2  502    0 -0.18101583476E+02  0.24336487958E+02 -0.53264739764E+01  0.30794533532E+02  0.00000000000E+00 0.  1.
         -2    1    1    2    0  502  0.18101583476E+02 -0.24336487958E+02 -0.27667258444E+02  0.41053735034E+02  0.00000000000E+00 0. -1.
<mgrwt>
<rscale>  2 0.30330380E+02</rscale>
<asrwt>0</asrwt>
<pdfrwt beam="1">  1        2 0.29888105E-02 0.30330380E+02</pdfrwt>
<pdfrwt beam="2">  1       -2 0.80647693E-02 0.30330380E+02</pdfrwt>
<totfact> 0.18881233E+05</totfact>
</mgrwt>
</event>
<event>
 4    1  0.1429937E+004  0.2128476E+02  0.7546771E-02  0.1720923E+00
         -2   -1    0    0    0  501 -0.00000000000E+00  0.00000000000E+00  0.46728189443E+01  0.46728189443E+01  0.00000000000E+00 0.  1.
          2   -1    0    0  501    0  0.00000000000E+00 -0.00000000000E+00 -0.49708149939E+03  0.49708149939E+03  0.00000000000E+00 0.  1.
          2    1    1    2  502    0  0.20932037790E+02  0.38588805924E+01 -0.47128976516E+03  0.47177016004E+03  0.00000000000E+00 0.  1.
         -2    1    1    2    0  502 -0.20932037790E+02 -0.38588805924E+01 -0.21118915289E+02  0.29984158291E+02  0.00000000000E+00 0.  1.
<mgrwt>
<rscale>  2 0.21284764E+02</rscale>
<asrwt>0</asrwt>
<pdfrwt beam="2">  1        2 0.76474128E-01 0.21284764E+02</pdfrwt>
<pdfrwt beam="1">  1       -2 0.71889474E-03 0.21284764E+02</pdfrwt>
<totfact> 0.13742747E+05</totfact>
</mgrwt>
</event>
<event>
 4    1  0.1429937E+004  0.2765487E+02  0.7546771E-02  0.1625558E+00
         -2   -1    0    0    0  501 -0.00000000000E+00  0.00000000000E+00  0.65422974918E+01  0.65422974918E+01  0.00000000000E+00 0. -1.
          2   -1    0    0  501    0  0.00000000000E+00 -0.00000000000E+00 -0.14650858864E+04  0.14650858864E+04  0.00000000000E+00 0. -1.
          2    1    1    2  502    0 -0.23473979950E+02  0.14620669453E+02 -0.14351203290E+04  0.14353867598E+04  0.00000000000E+00 0. -1.
         -2    1    1    2    0  502  0.23473979950E+02 -0.14620669453E+02 -0.23423259901E+02  0.36241424011E+02  0.00000000000E+00 0. -1.
<mgrwt>
<rscale>  2 0.27654868E+02</rscale>
<asrwt>0</asrwt>
<pdfrwt beam="2">  1        2 0.22539785E+00 0.27654868E+02</pdfrwt>
<pdfrwt beam="1">  1       -2 0.10065072E-02 0.27654868E+02</pdfrwt>
<totfact> 0.24723978E+04</totfact>
</mgrwt>
</event>
<event>
 4    1  0.1429937E+004  0.2100364E+02  0.7546771E-02  0.1726076E+00
         -2   -1    0    0    0  501 -0.00000000000E+00  0.00000000000E+00  0.54635831207E+01  0.54635831207E+01  0.00000000000E+00 0.  1.
          2   -1    0    0  501    0  0.00000000000E+00 -0.00000000000E+00 -0.10988570452E+04  0.10988570452E+04  0.00000000000E+00 0. -1.
          2    1    1    2  502    0 -0.18611979716E+02  0.97338108589E+01 -0.10781836017E+04  0.10783881638E+04  0.00000000000E+00 0. -1.
         -2    1    1    2    0  502  0.18611979716E+02 -0.97338108589E+01 -0.15209860368E+02  0.25932464503E+02  0.00000000000E+00 0.  1.
<mgrwt>
<rscale>  2 0.21003639E+02</rscale>
<asrwt>0</asrwt>
<pdfrwt beam="2">  1        2 0.16905502E+00 0.21003639E+02</pdfrwt>
<pdfrwt beam="1">  1       -2 0.84055080E-03 0.21003639E+02</pdfrwt>
<totfact> 0.45847029E+04</totfact>
</mgrwt>
</event>
<event>
 4    1  0.1429937E+004  0.2670148E+02  0.7546771E-02  0.1637701E+00
          2   -1    0    0  501    0  0.00000000000E+00  0.00000000000E+00  0.90409464261E+03  0.90409464261E+03  0.00000000000E+00 0.  1.
         -2   -1    0    0    0  501 -0.00000000000E+00 -0.00000000000E+00 -0.16059019036E+01  0.16059019036E+01  0.00000000000E+00 0.  1.
          2    1    1    2  502    0 -0.22496905419E+02  0.14382565239E+02  0.77430676732E+03  0.77476702231E+03  0.00000000000E+00 0.  1.
         -2    1    1    2    0  502  0.22496905419E+02 -0.14382565239E+02  0.12818197338E+03  0.13093352220E+03  0.00000000000E+00 0.  1.
<mgrwt>
<rscale>  2 0.26701478E+02</rscale>
<asrwt>0</asrwt>
<pdfrwt beam="1">  1        2 0.13909108E+00 0.26701478E+02</pdfrwt>
<pdfrwt beam="2">  1       -2 0.24706255E-03 0.26701478E+02</pdfrwt>
<totfact> 0.31766315E+05</totfact>
</mgrwt>
</event>
<event>
 4    1  0.1429937E+004  0.2274269E+02  0.7546771E-02  0.1695715E+00
         -2   -1    0    0    0  501 -0.00000000000E+00  0.00000000000E+00  0.80373452725E+02  0.80373452725E+02  0.00000000000E+00 0. -1.
          2   -1    0    0  501    0  0.00000000000E+00 -0.00000000000E+00 -0.64366276266E+01  0.64366276266E+01  0.00000000000E+00 0. -1.
          2    1    1    2  502    0 -0.22605928911E+02  0.24903327496E+01  0.36352380427E+02  0.42880360794E+02  0.00000000000E+00 0. -1.
         -2    1    1    2    0  502  0.22605928911E+02 -0.24903327496E+01  0.37584444671E+02  0.43929719557E+02  0.00000000000E+00 0. -1.
<mgrwt>
<rscale>  2 0.22742686E+02</rscale>
<asrwt>0</asrwt>
<pdfrwt beam="2">  1        2 0.99025046E-03 0.22742686E+02</pdfrwt>
<pdfrwt beam="1">  1       -2 0.12365146E-01 0.22742686E+02</pdfrwt>
<totfact> 0.38199152E+05</totfact>
</mgrwt>
</event>
<event>
 4    1  0.1429937E+004  0.4466083E+02  0.7546771E-02  0.1476470E+00
          2   -1    0    0  501    0  0.00000000000E+00  0.00000000000E+00  0.26736093376E+04  0.26736093376E+04  0.00000000000E+00 0.  1.
         -2   -1    0    0    0  501 -0.00000000000E+00 -0.00000000000E+00 -0.85473304468E+00  0.85473304468E+00  0.00000000000E+00 0. -1.
          2    1    1    2  502    0  0.11572633505E+02  0.43135408271E+02  0.18132637494E+04  0.18138136658E+04  0.00000000000E+00 0.  1.
         -2    1    1    2    0  502 -0.11572633505E+02 -0.43135408271E+02  0.85949085514E+03  0.86065040484E+03  0.00000000000E+00 0. -1.
<mgrwt>
<rscale>  2 0.44660825E+02</rscale>
<asrwt>0</asrwt>
<pdfrwt beam="1">  1        2 0.41131782E+00 0.44660825E+02</pdfrwt>
<pdfrwt beam="2">  1       -2 0.13149953E-03 0.44660825E+02</pdfrwt>
<totfact> 0.10711167E+05</totfact>
</mgrwt>
</event>
<event>
 4    1  0.1429937E+004  0.3300739E+02  0.7546771E-02  0.1567042E+00
          2   -1    0    0  501    0  0.00000000000E+00  0.00000000000E+00  0.23004943183E+02  0.23004943183E+02  0.00000000000E+00 0.  1.
         -2   -1    0    0    0  501 -0.00000000000E+00 -0.00000000000E+00 -0.57191566120E+02  0.57191566120E+02  0.00000000000E+00 0.  1.
          2    1    1    2  502    0 -0.32584988479E+02 -0.52636743204E+01 -0.46699124260E+00  0.33010692546E+02  0.00000000000E+00 0.  1.
         -2    1    1    2    0  502  0.32584988479E+02  0.52636743204E+01 -0.33719631694E+02  0.47185816758E+02  0.00000000000E+00 0.  1.
<mgrwt>
<rscale>  2 0.33007389E+02</rscale>
<asrwt>0</asrwt>
<pdfrwt beam="1">  1        2 0.35392221E-02 0.33007389E+02</pdfrwt>
<pdfrwt beam="2">  1       -2 0.87987024E-02 0.33007389E+02</pdfrwt>
<totfact> 0.13660456E+05</totfact>
</mgrwt>
</event>
<event>
 4    1  0.1429937E+004  0.4356984E+02  0.7546771E-02  0.1483473E+00
         -2   -1    0    0    0  501 -0.00000000000E+00  0.00000000000E+00  0.68278693825E+02  0.68278693825E+02  0.00000000000E+00 0. -1.
          2   -1    0    0  501    0  0.00000000000E+00 -0.00000000000E+00 -0.11799407097E+03  0.11799407097E+03  0.00000000000E+00 0. -1.
          2    1    1    2  502    0  0.72474224752E+01  0.42962838672E+02 -0.10628532262E+03  0.11486905782E+03  0.00000000000E+00 0. -1.
         -2    1    1    2    0  502 -0.72474224752E+01 -0.42962838672E+02  0.56569945475E+02  0.71403706978E+02  0.00000000000E+00 0. -1.
<mgrwt>
<rscale>  2 0.43569836E+02</rscale>
<asrwt>0</asrwt>
<pdfrwt beam="2">  1        2 0.18152934E-01 0.43569836E+02</pdfrwt>
<pdfrwt beam="1">  1       -2 0.10504414E-01 0.43569836E+02</pdfrwt>
<totfact> 0.15573839E+04</totfact>
</mgrwt>
</event>
<event>
 4    1  0.1429937E+004  0.3078177E+02  0.7546771E-02  0.1589605E+00
         -2   -1    0    0    0  501 -0.00000000000E+00  0.00000000000E+00  0.19060017754E+01  0.19060017754E+01  0.00000000000E+00 0. -1.
          2   -1    0    0  501    0  0.00000000000E+00 -0.00000000000E+00 -0.22789083331E+04  0.22789083331E+04  0.00000000000E+00 0.  1.
          2    1    1    2  502    0  0.22674754772E+02  0.20817615598E+02 -0.21468810660E+04  0.21471017277E+04  0.00000000000E+00 0.  1.
         -2    1    1    2    0  502 -0.22674754772E+02 -0.20817615598E+02 -0.13012126535E+03  0.13371260719E+03  0.00000000000E+00 0. -1.
<mgrwt>
<rscale>  2 0.30781774E+02</rscale>
<asrwt>0</asrwt>
<pdfrwt beam="2">  1        2 0.35059990E+00 0.30781774E+02</pdfrwt>
<pdfrwt beam="1">  1       -2 0.29323220E-03 0.30781774E+02</pdfrwt>
<totfact> 0.54663312E+04</totfact>
</mgrwt>
</event>
<event>
 4    1  0.1429937E+004  0.2059998E+02  0.7546771E-02  0.1733653E+00
          2   -1    0    0  501    0  0.00000000000E+00  0.00000000000E+00  0.63670134209E+03  0.63670134209E+03  0.00000000000E+00 0.  1.
         -2   -1    0    0    0  501 -0.00000000000E+00 -0.00000000000E+00 -0.19040235873E+01  0.19040235873E+01  0.00000000000E+00 0.  1.
          2    1    1    2  502    0  0.10156670910E+02  0.17922084729E+02  0.57481955573E+03  0.57518856103E+03  0.00000000000E+00 0.  1.
         -2    1    1    2    0  502 -0.10156670910E+02 -0.17922084729E+02  0.59977762774E+02  0.63416804653E+02  0.00000000000E+00 0.  1.
<mgrwt>
<rscale>  2 0.20599978E+02</rscale>
<asrwt>0</asrwt>
<pdfrwt beam="1">  1        2 0.97953882E-01 0.20599978E+02</pdfrwt>
<pdfrwt beam="2">  1       -2 0.29292721E-03 0.20599978E+02</pdfrwt>
<totfact> 0.34983797E+05</totfact>
</mgrwt>
</event>
<event>
 4    1  0.1429937E+004  0.2483851E+02  0.7546771E-02  0.1663332E+00
         -2   -1    0    0    0  501 -0.00000000000E+00  0.00000000000E+00  0.77683667356E+02  0.77683667356E+02  0.00000000000E+00 0.  1.
          2   -1    0    0  501    0  0.00000000000E+00 -0.00000000000E+00 -0.18969715612E+02  0.18969715612E+02  0.00000000000E+00 0. -1.
          2    1    1    2  502    0  0.22317221590E+02 -0.10903809203E+02 -0.74900583757E+01  0.25943253634E+02  0.00000000000E+00 0. -1.
         -2    1    1    2    0  502 -0.22317221590E+02  0.10903809203E+02  0.66204010119E+02  0.70710129335E+02  0.00000000000E+00 0.  1.
<mgrwt>
<rscale>  2 0.24838507E+02</rscale>
<asrwt>0</asrwt>
<pdfrwt beam="2">  1        2 0.29184178E-02 0.24838507E+02</pdfrwt>
<pdfrwt beam="1">  1       -2 0.11951333E-01 0.24838507E+02</pdfrwt>
<totfact> 0.10262215E+05</totfact>
</mgrwt>
</event>
<event>
 4    1  0.1429937E+004  0.2020341E+02  0.7546771E-02  0.1741313E+00
          2   -1    0    0  501    0  0.00000000000E+00  0.00000000000E+00  0.55524739664E+03  0.55524739664E+03  0.00000000000E+00 0.  1.
         -2   -1    0    0    0  501 -0.00000000000E+00 -0.00000000000E+00 -0.35277366250E+03  0.35277366250E+03  0.00000000000E+00 0. -1.
          2    1    1    2  502    0  0.92973351633E+01  0.17937033749E+02  0.55477410497E+03  0.55514186039E+03  0.00000000000E+00 0.  1.
         -2    1    1    2    0  502 -0.92973351633E+01 -0.17937033749E+02 -0.35230037083E+03  0.35287919875E+03  0.00000000000E+00 0. -1.
<mgrwt>
<rscale>  2 0.20203406E+02</rscale>
<asrwt>0</asrwt>
<pdfrwt beam="1">  1        2 0.85422676E-01 0.20203406E+02</pdfrwt>
<pdfrwt beam="2">  1       -2 0.54272871E-01 0.20203406E+02</pdfrwt>
<totfact> 0.18908368E+02</totfact>
</mgrwt>
</event>
<event>
 4    1  0.1429937E+004  0.2793697E+02  0.7546771E-02  0.1622080E+00
         -2   -1    0    0    0  501 -0.00000000000E+00  0.00000000000E+00  0.16074110765E+02  0.16074110765E+02  0.00000000000E+00 0. -1.
          2   -1    0    0  501    0  0.00000000000E+00 -0.00000000000E+00 -0.60609889267E+02  0.60609889267E+02  0.00000000000E+00 0. -1.
          2    1    1    2  502    0  0.89333013319E+01  0.26470178351E+02 -0.39367624039E+02  0.48273015621E+02  0.00000000000E+00 0. -1.
         -2    1    1    2    0  502 -0.89333013319E+01 -0.26470178351E+02 -0.51681544630E+01  0.28410984411E+02  0.00000000000E+00 0. -1.
<mgrwt>
<rscale>  2 0.27936969E+02</rscale>
<asrwt>0</asrwt>
<pdfrwt beam="2">  1        2 0.93245984E-02 0.27936969E+02</pdfrwt>
<pdfrwt beam="1">  1       -2 0.24729401E-02 0.27936969E+02</pdfrwt>
<totfact> 0.24708840E+05</totfact>
</mgrwt>
</event>
<event>
 4    1  0.1429937E+004  0.2213054E+02  0.7546771E-02  0.1706004E+00
         -2   -1    0    0    0  501 -0.00000000000E+00  0.00000000000E+00  0.29942688651E+02  0.29942688651E+02  0.00000000000E+00 0. -1.
          2   -1    0    0  501    0  0.00000000000E+00 -0.00000000000E+00 -0.16892562131E+02  0.16892562131E+02  0.00000000000E+00 0. -1.
          2    1    1    2  502    0  0.50653062134E+01 -0.21543058655E+02  0.23538682617E+01  0.22255367870E+02  0.00000000000E+00 0. -1.
         -2    1    1    2    0  502 -0.50653062134E+01  0.21543058655E+02  0.10696258259E+02  0.24579882912E+02  0.00000000000E+00 0. -1.
<mgrwt>
<rscale>  2 0.22130538E+02</rscale>
<asrwt>0</asrwt>
<pdfrwt beam="2">  1        2 0.25988557E-02 0.22130538E+02</pdfrwt>
<pdfrwt beam="1">  1       -2 0.46065675E-02 0.22130538E+02</pdfrwt>
<totfact> 0.46203778E+05</totfact>
</mgrwt>
</event>
<event>
 4    1  0.1429937E+004  0.2480303E+02  0.7546771E-02  0.1663847E+00
         -2   -1    0    0    0  501 -0.00000000000E+00  0.00000000000E+00  0.65953190921E+02  0.65953190921E+02  0.00000000000E+00 0.  1.
          2   -1    0    0  501    0  0.00000000000E+00 -0.00000000000E+00 -0.37934578092E+03  0.37934578092E+03  0.00000000000E+00 0. -1.
          2    1    1    2  502    0 -0.91940201996E+01 -0.23036060072E+02 -0.37659139616E+03  0.37740729952E+03  0.00000000000E+00 0. -1.
         -2    1    1    2    0  502  0.91940201996E+01  0.23036060072E+02  0.63198806157E+02  0.67891672323E+02  0.00000000000E+00 0.  1.
<mgrwt>
<rscale>  2 0.24803025E+02</rscale>
<asrwt>0</asrwt>
<pdfrwt beam="2">  1        2 0.58360889E-01 0.24803025E+02</pdfrwt>
<pdfrwt beam="1">  1       -2 0.10146645E-01 0.24803025E+02</pdfrwt>
<totfact> 0.46001846E+03</totfact>
</mgrwt>
</event>
<event>
 4    1  0.1429937E+004  0.4265187E+02  0.7546771E-02  0.1489557E+00
         -2   -1    0    0    0  501 -0.00000000000E+00  0.00000000000E+00  0.42488154035E+01  0.42488154035E+01  0.00000000000E+00 0.  1.
          2   -1    0    0  501    0  0.00000000000E+00 -0.00000000000E+00 -0.91110772663E+03  0.91110772663E+03  0.00000000000E+00 0.  1.
          2    1    1    2  502    0  0.78318460302E+01 -0.41926650813E+02 -0.78664444827E+03  0.78779989201E+03  0.00000000000E+00 0.  1.
         -2    1    1    2    0  502 -0.78318460302E+01  0.41926650813E+02 -0.12021446295E+03  0.12755665002E+03  0.00000000000E+00 0.  1.
<mgrwt>
<rscale>  2 0.42651868E+02</rscale>
<asrwt>0</asrwt>
<pdfrwt beam="2">  1        2 0.14017059E+00 0.42651868E+02</pdfrwt>
<pdfrwt beam="1">  1       -2 0.65366310E-03 0.42651868E+02</pdfrwt>
<totfact> 0.92709274E+04</totfact>
</mgrwt>
</event>
<event>
 4    1  0.1429937E+004  0.2769458E+02  0.7546771E-02  0.1625066E+00
         -2   -1    0    0    0  501 -0.00000000000E+00  0.00000000000E+00  0.17333664690E+02  0.17333664690E+02  0.00000000000E+00 0.  1.
          2   -1    0    0  501    0  0.00000000000E+00 -0.00000000000E+00 -0.14501799412E+03  0.14501799412E+03  0.00000000000E+00 0. -1.
          2    1    1    2  502    0 -0.11504437827E+02  0.25192011221E+02 -0.13150967855E+03  0.13439414077E+03  0.00000000000E+00 0. -1.
         -2    1    1    2    0  502  0.11504437827E+02 -0.25192011221E+02  0.38253491251E+01  0.27957518041E+02  0.00000000000E+00 0.  1.
<mgrwt>
<rscale>  2 0.27694576E+02</rscale>
<asrwt>0</asrwt>
<pdfrwt beam="2">  1        2 0.22310460E-01 0.27694576E+02</pdfrwt>
<pdfrwt beam="1">  1       -2 0.26667177E-02 0.27694576E+02</pdfrwt>
<totfact> 0.84166578E+04</totfact>
</mgrwt>
</event>
<event>
 4    1  0.1429937E+004  0.2635109E+02  0.7546771E-02  0.1642321E+00
         -2   -1    0    0    0  501 -0.00000000000E+00  0.00000000000E+00  0.17265572134E+04  0.17265572134E+04  0.00000000000E+00 0.  1.
          2   -1    0    0  501    0  0.00000000000E+00 -0.00000000000E+00 -0.54600324424E+01  0.54600324424E+01  0.00000000000E+00 0.  1.
          2    1    1    2  502    0 -0.12033635842E+02  0.23442942644E+02  0.27044276220E+02  0.37759407141E+02  0.00000000000E+00 0.  1.
         -2    1    1    2    0  502  0.12033635842E+02 -0.23442942644E+02  0.16940529047E+04  0.16942578387E+04  0.00000000000E+00 0.  1.
<mgrwt>
<rscale>  2 0.26351090E+02</rscale>
<asrwt>0</asrwt>
<pdfrwt beam="2">  1        2 0.84000637E-03 0.26351090E+02</pdfrwt>
<pdfrwt beam="1">  1       -2 0.26562375E+00 0.26351090E+02</pdfrwt>
<totfact> 0.90449991E+02</totfact>
</mgrwt>
</event>
<event>
 4    1  0.1429937E+004  0.2197550E+02  0.7546771E-02  0.1708676E+00
         -2   -1    0    0    0  501 -0.00000000000E+00  0.00000000000E+00  0.23665668020E+01  0.23665668020E+01  0.00000000000E+00 0.  1.
          2   -1    0    0  501    0  0.00000000000E+00 -0.00000000000E+00 -0.32027435306E+03  0.32027435306E+03  0.00000000000E+00 0.  1.
          2    1    1    2  502    0 -0.63849722623E+01  0.21027472667E+02 -0.25612957101E+03  0.25707057323E+03  0.00000000000E+00 0.  1.
         -2    1    1    2    0  502  0.63849722623E+01 -0.21027472667E+02 -0.61778215248E+02  0.65570346627E+02  0.00000000000E+00 0.  1.
<mgrwt>
<rscale>  2 0.21975497E+02</rscale>
<asrwt>0</asrwt>
<pdfrwt beam="2">  1        2 0.49272988E-01 0.21975497E+02</pdfrwt>
<pdfrwt beam="1">  1       -2 0.36408712E-03 0.21975497E+02</pdfrwt>
<totfact> 0.53143489E+05</totfact>
</mgrwt>
</event>
<event>
 4    1  0.1429937E+004  0.2408157E+02  0.7546771E-02  0.1674555E+00
         -2   -1    0    0    0  501 -0.00000000000E+00  0.00000000000E+00  0.10245701055E+03  0.10245701055E+03  0.00000000000E+00 0.  1.
          2   -1    0    0  501    0  0.00000000000E+00 -0.00000000000E+00 -0.10069772238E+03  0.10069772238E+03  0.00000000000E+00 0. -1.
          2    1    1    2  502    0  0.15989558866E+01  0.24028427098E+02 -0.97801640441E+02  0.10072280199E+03  0.00000000000E+00 0. -1.
         -2    1    1    2    0  502 -0.15989558866E+01 -0.24028427098E+02  0.99560928609E+02  0.10243193093E+03  0.00000000000E+00 0.  1.
<mgrwt>
<rscale>  2 0.24081569E+02</rscale>
<asrwt>0</asrwt>
<pdfrwt beam="2">  1        2 0.15491957E-01 0.24081569E+02</pdfrwt>
<pdfrwt beam="1">  1       -2 0.15762617E-01 0.24081569E+02</pdfrwt>
<totfact> 0.90959797E+03</totfact>
</mgrwt>
</event>
<event>
 4    1  0.1429937E+004  0.2561048E+02  0.7546771E-02  0.1652385E+00
         -2   -1    0    0    0  501 -0.00000000000E+00  0.00000000000E+00  0.67473382202E+02  0.67473382202E+02  0.00000000000E+00 0. -1.
          2   -1    0    0  501    0  0.00000000000E+00 -0.00000000000E+00 -0.10380692012E+02  0.10380692012E+02  0.00000000000E+00 0.  1.
          2    1    1    2  502    0 -0.63587202602E+01 -0.24808517164E+02  0.38360925498E+02  0.46124358557E+02  0.00000000000E+00 0.  1.
         -2    1    1    2    0  502  0.63587202602E+01  0.24808517164E+02  0.18731764692E+02  0.31729715658E+02  0.00000000000E+00 0. -1.
<mgrwt>
<rscale>  2 0.25610476E+02</rscale>
<asrwt>0</asrwt>
<pdfrwt beam="2">  1        2 0.15970296E-02 0.25610476E+02</pdfrwt>
<pdfrwt beam="1">  1       -2 0.10380520E-01 0.25610476E+02</pdfrwt>
<totfact> 0.27725445E+05</totfact>
</mgrwt>
</event>
<event>
 4    1  0.1429937E+004  0.2952462E+02  0.7546771E-02  0.1603404E+00
          2   -1    0    0  501    0  0.00000000000E+00  0.00000000000E+00  0.39971150770E+03  0.39971150770E+03  0.00000000000E+00 0.  1.
         -2   -1    0    0    0  501 -0.00000000000E+00 -0.00000000000E+00 -0.16031638194E+03  0.16031638194E+03  0.00000000000E+00 0. -1.
          2    1    1    2  502    0  0.20084282964E+02 -0.21640805880E+02  0.39780043085E+03  0.39889457966E+03  0.00000000000E+00 0.  1.
         -2    1    1    2    0  502 -0.20084282964E+02  0.21640805880E+02 -0.15840530510E+03  0.16113330998E+03  0.00000000000E+00 0. -1.
<mgrwt>
<rscale>  2 0.29524615E+02</rscale>
<asrwt>0</asrwt>
<pdfrwt beam="1">  1        2 0.61494078E-01 0.29524615E+02</pdfrwt>
<pdfrwt beam="2">  1       -2 0.24664059E-01 0.29524615E+02</pdfrwt>
<totfact> 0.10928526E+03</totfact>
</mgrwt>
</event>
<event>
 4    1  0.1429937E+004  0.2953107E+02  0.7546771E-02  0.1603331E+00
         -2   -1    0    0    0  501 -0.00000000000E+00  0.00000000000E+00  0.13610727238E+01  0.13610727238E+01  0.00000000000E+00 0. -1.
          2   -1    0    0  501    0  0.00000000000E+00 -0.00000000000E+00 -0.94334428472E+03  0.94334428472E+03  0.00000000000E+00 0.  1.
          2    1    1    2  502    0 -0.97069991031E+01  0.27890112204E+02 -0.73852243854E+03  0.73911262770E+03  0.00000000000E+00 0.  1.
         -2    1    1    2    0  502  0.97069991031E+01 -0.27890112204E+02 -0.20346077345E+03  0.20559272974E+03  0.00000000000E+00 0. -1.
<mgrwt>
<rscale>  2 0.29531072E+02</rscale>
<asrwt>0</asrwt>
<pdfrwt beam="2">  1        2 0.14512970E+00 0.29531072E+02</pdfrwt>
<pdfrwt beam="1">  1       -2 0.20939608E-03 0.29531072E+02</pdfrwt>
<totfact> 0.38570909E+05</totfact>
</mgrwt>
</event>
<event>
 4    1  0.1429937E+004  0.2980727E+02  0.7546771E-02  0.1600229E+00
         -2   -1    0    0    0  501 -0.00000000000E+00  0.00000000000E+00  0.19978699779E+03  0.19978699779E+03  0.00000000000E+00 0.  1.
          2   -1    0    0  501    0  0.00000000000E+00 -0.00000000000E+00 -0.53821352959E+03  0.53821352959E+03  0.00000000000E+00 0. -1.
          2    1    1    2  502    0  0.57838441226E+01  0.29240733796E+02 -0.53668589612E+03  0.53751299934E+03  0.00000000000E+00 0. -1.
         -2    1    1    2    0  502 -0.57838441226E+01 -0.29240733796E+02  0.19825936431E+03  0.20048752805E+03  0.00000000000E+00 0.  1.
<mgrwt>
<rscale>  2 0.29807270E+02</rscale>
<asrwt>0</asrwt>
<pdfrwt beam="2">  1        2 0.82802081E-01 0.29807270E+02</pdfrwt>
<pdfrwt beam="1">  1       -2 0.30736461E-01 0.29807270E+02</pdfrwt>
<totfact> 0.55499021E+02</totfact>
</mgrwt>
</event>
<event>
 4    1  0.1429937E+004  0.2111222E+02  0.7546771E-02  0.1724074E+00
          2   -1    0    0  501    0  0.00000000000E+00  0.00000000000E+00  0.18984387438E+03  0.18984387438E+03  0.00000000000E+00 0.  1.
         -2   -1    0    0    0  501 -0.00000000000E+00 -0.00000000000E+00 -0.11739439281E+03  0.11739439281E+03  0.00000000000E+00 0. -1.
          2    1    1    2  502    0 -0.21063053644E+02  0.14399297352E+01  0.18829994694E+03  0.18947980273E+03  0.00000000000E+00 0.  1.
         -2    1    1    2    0  502  0.21063053644E+02 -0.14399297352E+01 -0.11585046537E+03  0.11775846446E+03  0.00000000000E+00 0. -1.
<mgrwt>
<rscale>  2 0.21112215E+02</rscale>
<asrwt>0</asrwt>
<pdfrwt beam="1">  1        2 0.29206750E-01 0.21112215E+02</pdfrwt>
<pdfrwt beam="2">  1       -2 0.18060676E-01 0.21112215E+02</pdfrwt>
<totfact> 0.37029708E+03</totfact>
</mgrwt>
</event>
<event>
 4    1  0.1429937E+004  0.2377786E+02  0.7546771E-02  0.1679203E+00
          2   -1    0    0  501    0  0.00000000000E+00  0.00000000000E+00  0.62477528120E+03  0.62477528120E+03  0.00000000000E+00 0. -1.
         -2   -1    0    0    0  501 -0.00000000000E+00 -0.00000000000E+00 -0.36841989680E+02  0.36841989680E+02  0.00000000000E+00 0.  1.
          2    1    1    2  502    0  0.18679988205E+02 -0.14712061069E+02  0.62068722085E+03  0.62114250606E+03  0.00000000000E+00 0. -1.
         -2    1    1    2    0  502 -0.18679988205E+02  0.14712061069E+02 -0.32753929336E+02  0.40474764819E+02  0.00000000000E+00 0.  1.
<mgrwt>
<rscale>  2 0.23777862E+02</rscale>
<asrwt>0</asrwt>
<pdfrwt beam="1">  1        2 0.96119266E-01 0.23777862E+02</pdfrwt>
<pdfrwt beam="2">  1       -2 0.56679989E-02 0.23777862E+02</pdfrwt>
<totfact> 0.64649483E+03</totfact>
</mgrwt>
</event>
<event>
 4    1  0.1429937E+004  0.3034365E+02  0.7546771E-02  0.1594321E+00
         -2   -1    0    0    0  501 -0.00000000000E+00  0.00000000000E+00  0.67677689028E+01  0.67677689028E+01  0.00000000000E+00 0. -1.
          2   -1    0    0  501    0  0.00000000000E+00 -0.00000000000E+00 -0.40800894447E+03  0.40800894447E+03  0.00000000000E+00 0.  1.
          2    1    1    2  502    0 -0.28471180540E+02  0.10494221728E+02 -0.36993867084E+03  0.37118102995E+03  0.00000000000E+00 0.  1.
         -2    1    1    2    0  502  0.28471180540E+02 -0.10494221728E+02 -0.31302504726E+02  0.43595683423E+02  0.00000000000E+00 0. -1.
<mgrwt>
<rscale>  2 0.30343645E+02</rscale>
<asrwt>0</asrwt>
<pdfrwt beam="2">  1        2 0.62770628E-01 0.30343645E+02</pdfrwt>
<pdfrwt beam="1">  1       -2 0.10411949E-02 0.30343645E+02</pdfrwt>
<totfact> 0.11009550E+05</totfact>
</mgrwt>
</event>
<event>
 4    1  0.1429937E+004  0.2682483E+02  0.7546771E-02  0.1636095E+00
          2   -1    0    0  501    0  0.00000000000E+00  0.00000000000E+00  0.81590222184E+03  0.81590222184E+03  0.00000000000E+00 0. -1.
         -2   -1    0    0    0  501 -0.00000000000E+00 -0.00000000000E+00 -0.98136323315E+01  0.98136323315E+01  0.00000000000E+00 0. -1.
          2    1    1    2  502    0 -0.16071614962E+02 -0.21477305097E+02  0.79691417706E+03  0.79736552286E+03  0.00000000000E+00 0. -1.
         -2    1    1    2    0  502  0.16071614962E+02  0.21477305097E+02  0.91744124446E+01  0.28350331311E+02  0.00000000000E+00 0. -1.
<mgrwt>
<rscale>  2 0.26824829E+02</rscale>
<asrwt>0</asrwt>
<pdfrwt beam="1">  1        2 0.12552337E+00 0.26824829E+02</pdfrwt>
<pdfrwt beam="2">  1       -2 0.15097902E-02 0.26824829E+02</pdfrwt>
<totfact> 0.31068200E+04</totfact>
</mgrwt>
</event>
<event>
 4    1  0.1429937E+004  0.2690901E+02  0.7546771E-02  0.1635005E+00
         -2   -1    0    0    0  501 -0.00000000000E+00  0.00000000000E+00  0.20543668298E+02  0.20543668298E+02  0.00000000000E+00 0. -1.
          2   -1    0    0  501    0  0.00000000000E+00 -0.00000000000E+00 -0.28549150593E+03  0.28549150593E+03  0.00000000000E+00 0.  1.
          2    1    1    2  502    0 -0.28654913365E+01 -0.26756001507E+02 -0.27573471753E+03  0.27704463379E+03  0.00000000000E+00 0.  1.
         -2    1    1    2    0  502  0.28654913365E+01  0.26756001507E+02  0.10786879899E+02  0.28990540443E+02  0.00000000000E+00 0. -1.
<mgrwt>
<rscale>  2 0.26909007E+02</rscale>
<asrwt>0</asrwt>
<pdfrwt beam="2">  1        2 0.43921771E-01 0.26909007E+02</pdfrwt>
<pdfrwt beam="1">  1       -2 0.31605643E-02 0.26909007E+02</pdfrwt>
<totfact> 0.33095594E+04</totfact>
</mgrwt>
</event>
<event>
 4    1  0.1429937E+004  0.2713337E+02  0.7546771E-02  0.1632124E+00
         -2   -1    0    0    0  501 -0.00000000000E+00  0.00000000000E+00  0.23642223457E+03  0.23642223457E+03  0.00000000000E+00 0.  1.
          2   -1    0    0  501    0  0.00000000000E+00 -0.00000000000E+00 -0.10842326479E+02  0.10842326479E+02  0.00000000000E+00 0.  1.
          2    1    1    2  502    0 -0.25415115651E+02  0.95021850161E+01  0.84109191534E+01  0.28407097435E+02  0.00000000000E+00 0.  1.
         -2    1    1    2    0  502  0.25415115651E+02 -0.95021850161E+01  0.21716898894E+03  0.21885746362E+03  0.00000000000E+00 0.  1.
<mgrwt>
<rscale>  2 0.27133367E+02</rscale>
<asrwt>0</asrwt>
<pdfrwt beam="2">  1        2 0.16680504E-02 0.27133367E+02</pdfrwt>
<pdfrwt beam="1">  1       -2 0.36372648E-01 0.27133367E+02</pdfrwt>
<totfact> 0.34779127E+04</totfact>
</mgrwt>
</event>
<event>
 4    1  0.1429937E+004  0.2172966E+02  0.7546771E-02  0.1712970E+00
          2   -1    0    0  501    0  0.00000000000E+00  0.00000000000E+00  0.97591293238E+03  0.97591293238E+03  0.00000000000E+00 0. -1.
         -2   -1    0    0    0  501 -0.00000000000E+00 -0.00000000000E+00 -0.51002123296E+00  0.51002123296E+00  0.00000000000E+00 0.  1.
          2    1    1    2  502    0  0.20155549111E+02 -0.81198541572E+01  0.59833143181E+03  0.59872588092E+03  0.00000000000E+00 0. -1.
         -2    1    1    2    0  502 -0.20155549111E+02  0.81198541572E+01  0.37707147933E+03  0.37769707269E+03  0.00000000000E+00 0.  1.
<mgrwt>
<rscale>  2 0.21729662E+02</rscale>
<asrwt>0</asrwt>
<pdfrwt beam="1">  1        2 0.15013896E+00 0.21729662E+02</pdfrwt>
<pdfrwt beam="2">  1       -2 0.78465586E-04 0.21729662E+02</pdfrwt>
<totfact> 0.12455180E+06</totfact>
</mgrwt>
</event>
<event>
 4    1  0.1429937E+004  0.2190769E+02  0.7546771E-02  0.1709853E+00
          2   -1    0    0  501    0  0.00000000000E+00  0.00000000000E+00  0.43406876737E+03  0.43406876737E+03  0.00000000000E+00 0. -1.
         -2   -1    0    0    0  501 -0.00000000000E+00 -0.00000000000E+00 -0.29147807867E+03  0.29147807867E+03  0.00000000000E+00 0.  1.
          2    1    1    2  502    0  0.95786993462E+01 -0.19702676940E+02  0.43338004098E+03  0.43393341296E+03  0.00000000000E+00 0. -1.
         -2    1    1    2    0  502 -0.95786993462E+01  0.19702676940E+02 -0.29078935227E+03  0.29161343308E+03  0.00000000000E+00 0.  1.
<mgrwt>
<rscale>  2 0.21907692E+02</rscale>
<asrwt>0</asrwt>
<pdfrwt beam="1">  1        2 0.66779810E-01 0.21907692E+02</pdfrwt>
<pdfrwt beam="2">  1       -2 0.44842781E-01 0.21907692E+02</pdfrwt>
<totfact> 0.34765690E+02</totfact>
</mgrwt>
</event>
<event>
 4    1  0.1429937E+004  0.6087868E+02  0.7546771E-02  0.1394181E+00
          2   -1    0    0  501    0  0.00000000000E+00  0.00000000000E+00  0.86254844501E+02  0.86254844501E+02  0.00000000000E+00 0. -1.
         -2   -1    0    0    0  501 -0.00000000000E+00 -0.00000000000E+00 -0.45429017916E+02  0.45429017916E+02  0.00000000000E+00 0.  1.
          2    1    1    2  502    0 -0.48662379615E+02 -0.36581234713E+02  0.35737089859E+02  0.70592871556E+02  0.00000000000E+00 0. -1.
         -2    1    1    2    0  502  0.48662379615E+02  0.36581234713E+02  0.50887367263E+01  0.61090990861E+02  0.00000000000E+00 0.  1.
<mgrwt>
<rscale>  2 0.60878682E+02</rscale>
<asrwt>0</asrwt>
<pdfrwt beam="1">  1        2 0.13269976E-01 0.60878682E+02</pdfrwt>
<pdfrwt beam="2">  1       -2 0.69890797E-02 0.60878682E+02</pdfrwt>
<totfact> 0.43105783E+04</totfact>
</mgrwt>
</event>
<event>
 4    1  0.1429937E+004  0.3677453E+02  0.7546771E-02  0.1533384E+00
          2   -1    0    0  501    0  0.00000000000E+00  0.00000000000E+00  0.14189001153E+04  0.14189001153E+04  0.00000000000E+00 0.  1.
         -2   -1    0    0    0  501 -0.00000000000E+00 -0.00000000000E+00 -0.73783443278E+01  0.73783443278E+01  0.00000000000E+00 0. -1.
          2    1    1    2  502    0 -0.25302570542E+02 -0.26686059290E+02  0.13712476196E+04  0.13717406461E+04  0.00000000000E+00 0.  1.
         -2    1    1    2    0  502  0.25302570542E+02  0.26686059290E+02  0.40274151307E+02  0.54537813487E+02  0.00000000000E+00 0. -1.
<mgrwt>
<rscale>  2 0.36774527E+02</rscale>
<asrwt>0</asrwt>
<pdfrwt beam="1">  1        2 0.21829211E+00 0.36774527E+02</pdfrwt>
<pdfrwt beam="2">  1       -2 0.11351310E-02 0.36774527E+02</pdfrwt>
<totfact> 0.22850330E+04</totfact>
</mgrwt>
</event>
<event>
 4    1  0.1429937E+004  0.2293003E+02  0.7546771E-02  0.1692647E+00
          2   -1    0    0  501    0  0.00000000000E+00  0.00000000000E+00  0.20418965025E+01  0.20418965025E+01  0.00000000000E+00 0.  1.
         -2   -1    0    0    0  501 -0.00000000000E+00 -0.00000000000E+00 -0.26575234296E+03  0.26575234296E+03  0.00000000000E+00 0.  1.
          2    1    1    2  502    0  0.28337407195E+01  0.22754257004E+02 -0.10825871460E+03  0.11066045176E+03  0.00000000000E+00 0.  1.
         -2    1    1    2    0  502 -0.28337407195E+01 -0.22754257004E+02 -0.15545173186E+03  0.15713378770E+03  0.00000000000E+00 0.  1.
<mgrwt>
<rscale>  2 0.22930030E+02</rscale>
<asrwt>0</asrwt>
<pdfrwt beam="1">  1        2 0.31413779E-03 0.22930030E+02</pdfrwt>
<pdfrwt beam="2">  1       -2 0.40884993E-01 0.22930030E+02</pdfrwt>
<totfact> 0.24006637E+05</totfact>
</mgrwt>
</event>
<event>
 4    1  0.1429937E+004  0.2104183E+02  0.7546771E-02  0.1725370E+00
          2   -1    0    0  501    0  0.00000000000E+00  0.00000000000E+00  0.40192511350E+01  0.40192511350E+01  0.00000000000E+00 0.  1.
         -2   -1    0    0    0  501 -0.00000000000E+00 -0.00000000000E+00 -0.11162425312E+03  0.11162425312E+03  0.00000000000E+00 0. -1.
          2    1    1    2  502    0 -0.17490192699E+02  0.11698357102E+02 -0.47178733286E+02  0.51658409519E+02  0.00000000000E+00 0. -1.
         -2    1    1    2    0  502  0.17490192699E+02 -0.11698357102E+02 -0.60426268702E+02  0.63985094739E+02  0.00000000000E+00 0.  1.
<mgrwt>
<rscale>  2 0.21041825E+02</rscale>
<asrwt>0</asrwt>
<pdfrwt beam="1">  1        2 0.61834636E-03 0.21041825E+02</pdfrwt>
<pdfrwt beam="2">  1       -2 0.17172961E-01 0.21041825E+02</pdfrwt>
<totfact> 0.41430696E+05</totfact>
</mgrwt>
</event>
<event>
 4    1  0.1429937E+004  0.9232362E+02  0.7546771E-02  0.1297320E+00
         -2   -1    0    0    0  501 -0.00000000000E+00  0.00000000000E+00  0.52168140213E+02  0.52168140213E+02  0.00000000000E+00 0.  1.
          2   -1    0    0  501    0  0.00000000000E+00 -0.00000000000E+00 -0.16364563933E+03  0.16364563933E+03  0.00000000000E+00 0. -1.
          2    1    1    2  502    0  0.74727017435E+02 -0.54217368892E+02 -0.60019979960E+02  0.11011833734E+03  0.00000000000E+00 0. -1.
         -2    1    1    2    0  502 -0.74727017435E+02  0.54217368892E+02 -0.51457519156E+02  0.10569544220E+03  0.00000000000E+00 0.  1.
<mgrwt>
<rscale>  2 0.92323617E+02</rscale>
<asrwt>0</asrwt>
<pdfrwt beam="2">  1        2 0.25176252E-01 0.92323617E+02</pdfrwt>
<pdfrwt beam="1">  1       -2 0.80258678E-02 0.92323617E+02</pdfrwt>
<totfact> 0.17977308E+04</totfact>
</mgrwt>
</event>
<event>
 4    1  0.1429937E+004  0.2163221E+02  0.7546771E-02  0.1714691E+00
          2   -1    0    0  501    0  0.00000000000E+00  0.00000000000E+00  0.57248198452E+02  0.57248198452E+02  0.00000000000E+00 0.  1.
         -2   -1    0    0    0  501 -0.00000000000E+00 -0.00000000000E+00 -0.89688032935E+01  0.89688032935E+01  0.00000000000E+00 0. -1.
          2    1    1    2  502    0 -0.20399390634E+02  0.71984295229E+01  0.33995106422E+02  0.40294165663E+02  0.00000000000E+00 0.  1.
         -2    1    1    2    0  502  0.20399390634E+02 -0.71984295229E+01  0.14284288736E+02  0.25922836082E+02  0.00000000000E+00 0. -1.
<mgrwt>
<rscale>  2 0.21632210E+02</rscale>
<asrwt>0</asrwt>
<pdfrwt beam="1">  1        2 0.88074149E-02 0.21632210E+02</pdfrwt>
<pdfrwt beam="2">  1       -2 0.13798159E-02 0.21632210E+02</pdfrwt>
<totfact> 0.54586141E+05</totfact>
</mgrwt>
</event>
<event>
 4    1  0.1429937E+004  0.2016401E+02  0.7546771E-02  0.1742086E+00
         -2   -1    0    0    0  501 -0.00000000000E+00  0.00000000000E+00  0.15112157147E+02  0.15112157147E+02  0.00000000000E+00 0. -1.
          2   -1    0    0  501    0  0.00000000000E+00 -0.00000000000E+00 -0.49848612821E+02  0.49848612821E+02  0.00000000000E+00 0.  1.
          2    1    1    2  502    0 -0.40551228594E+01  0.19752042606E+02 -0.39404031855E+02  0.44263584750E+02  0.00000000000E+00 0.  1.
         -2    1    1    2    0  502  0.40551228594E+01 -0.19752042606E+02  0.46675761816E+01  0.20697185217E+02  0.00000000000E+00 0. -1.
<mgrwt>
<rscale>  2 0.20164008E+02</rscale>
<asrwt>0</asrwt>
<pdfrwt beam="2">  1        2 0.76690174E-02 0.20164008E+02</pdfrwt>
<pdfrwt beam="1">  1       -2 0.23249472E-02 0.20164008E+02</pdfrwt>
<totfact> 0.30822047E+05</totfact>
</mgrwt>
</event>
<event>
 4    1  0.1429937E+004  0.2332031E+02  0.7546771E-02  0.1686370E+00
          2   -1    0    0  501    0  0.00000000000E+00  0.00000000000E+00  0.84708411589E+02  0.84708411589E+02  0.00000000000E+00 0.  1.
         -2   -1    0    0    0  501 -0.00000000000E+00 -0.00000000000E+00 -0.68552895295E+01  0.68552895295E+01  0.00000000000E+00 0.  1.
          2    1    1    2  502    0 -0.67371080516E+00  0.23310569373E+02  0.27391515241E+02  0.35974041167E+02  0.00000000000E+00 0.  1.
         -2    1    1    2    0  502  0.67371080516E+00 -0.23310569373E+02  0.50461606819E+02  0.55589659951E+02  0.00000000000E+00 0.  1.
<mgrwt>
<rscale>  2 0.23320315E+02</rscale>
<asrwt>0</asrwt>
<pdfrwt beam="1">  1        2 0.13032063E-01 0.23320315E+02</pdfrwt>
<pdfrwt beam="2">  1       -2 0.10546600E-02 0.23320315E+02</pdfrwt>
<totfact> 0.51478426E+05</totfact>
</mgrwt>
</event>
<event>
 4    1  0.1429937E+004  0.2372778E+02  0.7546771E-02  0.1679978E+00
          2   -1    0    0  501    0  0.00000000000E+00  0.00000000000E+00  0.10632610911E+03  0.10632610911E+03  0.00000000000E+00 0. -1.
         -2   -1    0    0    0  501 -0.00000000000E+00 -0.00000000000E+00 -0.13729659973E+02  0.13729659973E+02  0.00000000000E+00 0. -1.
          2    1    1    2  502    0  0.60902105089E+01 -0.22932878264E+02  0.93347649245E+02  0.96316100362E+02  0.00000000000E+00 0. -1.
         -2    1    1    2    0  502 -0.60902105089E+01  0.22932878264E+02 -0.75120010341E+00  0.23739668724E+02  0.00000000000E+00 0. -1.
<mgrwt>
<rscale>  2 0.23727781E+02</rscale>
<asrwt>0</asrwt>
<pdfrwt beam="1">  1        2 0.16357862E-01 0.23727781E+02</pdfrwt>
<pdfrwt beam="2">  1       -2 0.21122554E-02 0.23727781E+02</pdfrwt>
<totfact> 0.15614519E+05</totfact>
</mgrwt>
</event>
<event>
 4    1  0.1429937E+004  0.2500647E+02  0.7546771E-02  0.1660909E+00
         -2   -1    0    0    0  501 -0.00000000000E+00  0.00000000000E+00  0.81210040967E+01  0.81210040967E+01  0.00000000000E+00 0.  1.
          2   -1    0    0  501    0  0.00000000000E+00 -0.00000000000E+00 -0.91073102718E+02  0.91073102718E+02  0.00000000000E+00 0.  1.
          2    1    1    2  502    0  0.13611307913E+02  0.20977509106E+02 -0.60971972872E+02  0.65900721295E+02  0.00000000000E+00 0.  1.
         -2    1    1    2    0  502 -0.13611307913E+02 -0.20977509106E+02 -0.21980125750E+02  0.33293385520E+02  0.00000000000E+00 0.  1.
<mgrwt>
<rscale>  2 0.25006471E+02</rscale>
<asrwt>0</asrwt>
<pdfrwt beam="2">  1        2 0.14011247E-01 0.25006471E+02</pdfrwt>
<pdfrwt beam="1">  1       -2 0.12493852E-02 0.25006471E+02</pdfrwt>
<totfact> 0.38527098E+05</totfact>
</mgrwt>
</event>
<event>
 4    1  0.1429937E+004  0.2163489E+02  0.7546771E-02  0.1714644E+00
          2   -1    0    0  501    0  0.00000000000E+00  0.00000000000E+00  0.35027445739E+03  0.35027445739E+03  0.00000000000E+00 0. -1.
         -2   -1    0    0    0  501 -0.00000000000E+00 -0.00000000000E+00 -0.91573125845E+01  0.91573125845E+01  0.00000000000E+00 0.  1.
          2    1    1    2  502    0 -0.85352560493E+01  0.19880087389E+02  0.33664502119E+03  0.33733950074E+03  0.00000000000E+00 0. -1.
         -2    1    1    2    0  502  0.85352560493E+01 -0.19880087389E+02  0.44721236240E+01  0.22092269239E+02  0.00000000000E+00 0.  1.
<mgrwt>
<rscale>  2 0.21634890E+02</rscale>
<asrwt>0</asrwt>
<pdfrwt beam="1">  1        2 0.53888368E-01 0.21634890E+02</pdfrwt>
<pdfrwt beam="2">  1       -2 0.14088176E-02 0.21634890E+02</pdfrwt>
<totfact> 0.78710154E+04</totfact>
</mgrwt>
</event>
<event>
 4    1  0.1429937E+004  0.3044725E+02  0.7546771E-02  0.1593197E+00
          2   -1    0    0  501    0  0.00000000000E+00  0.00000000000E+00  0.15630870089E+02  0.15630870089E+02  0.00000000000E+00 0. -1.
         -2   -1    0    0    0  501 -0.00000000000E+00 -0.00000000000E+00 -0.21885032628E+03  0.21885032628E+03  0.00000000000E+00 0. -1.
          2    1    1    2  502    0  0.29450880767E+02  0.77253132174E+01 -0.15077968638E+01  0.30484558282E+02  0.00000000000E+00 0. -1.
         -2    1    1    2    0  502 -0.29450880767E+02 -0.77253132174E+01 -0.20171165932E+03  0.20399663808E+03  0.00000000000E+00 0. -1.
<mgrwt>
<rscale>  2 0.30447247E+02</rscale>
<asrwt>0</asrwt>
<pdfrwt beam="1">  1        2 0.24047493E-02 0.30447247E+02</pdfrwt>
<pdfrwt beam="2">  1       -2 0.33669280E-01 0.30447247E+02</pdfrwt>
<totfact> 0.25467104E+04</totfact>
</mgrwt>
</event>
<event>
 4    1  0.1429937E+004  0.2210015E+02  0.7546771E-02  0.1706526E+00
          2   -1    0    0  501    0  0.00000000000E+00  0.00000000000E+00  0.70933267027E+03  0.70933267027E+03  0.00000000000E+00 0.  1.
         -2   -1    0    0    0  501 -0.00000000000E+00 -0.00000000000E+00 -0.12931048753E+01  0.12931048753E+01  0.00000000000E+00 0.  1.
          2    1    1    2  502    0  0.21649317309E+02  0.44411450122E+01  0.59696539710E+03  0.59737433996E+03  0.00000000000E+00 0.  1.
         -2    1    1    2    0  502 -0.21649317309E+02 -0.44411450122E+01  0.11107416829E+03  0.11325143518E+03  0.00000000000E+00 0.  1.
<mgrwt>
<rscale>  2 0.22100152E+02</rscale>
<asrwt>0</asrwt>
<pdfrwt beam="1">  1        2 0.10912779E+00 0.22100152E+02</pdfrwt>
<pdfrwt beam="2">  1       -2 0.19893978E-03 0.22100152E+02</pdfrwt>
<totfact> 0.53095972E+05</totfact>
</mgrwt>
</event>
<event>
 4    1  0.1429937E+004  0.2645451E+02  0.7546771E-02  0.1640948E+00
          2   -1    0    0  501    0  0.00000000000E+00  0.00000000000E+00  0.10761990179E+04  0.10761990179E+04  0.00000000000E+00 0. -1.
         -2   -1    0    0    0  501 -0.00000000000E+00 -0.00000000000E+00 -0.15453299565E+03  0.15453299565E+03  0.00000000000E+00 0.  1.
          2    1    1    2  502    0 -0.25634353063E+02 -0.65361188239E+01  0.10749028937E+04  0.10752283812E+04  0.00000000000E+00 0. -1.
         -2    1    1    2    0  502  0.25634353063E+02  0.65361188239E+01 -0.15323687143E+03  0.15550363234E+03  0.00000000000E+00 0.  1.
<mgrwt>
<rscale>  2 0.26454506E+02</rscale>
<asrwt>0</asrwt>
<pdfrwt beam="1">  1        2 0.16556908E+00 0.26454506E+02</pdfrwt>
<pdfrwt beam="2">  1       -2 0.23774308E-01 0.26454506E+02</pdfrwt>
<totfact> 0.38843356E+02</totfact>
</mgrwt>
</event>
<event>
 4    1  0.1429937E+004  0.2585325E+02  0.7546771E-02  0.1649040E+00
          2   -1    0    0  501    0  0.00000000000E+00  0.00000000000E+00  0.10609682367E+04  0.10609682367E+04  0.00000000000E+00 0.  1.
         -2   -1    0    0    0  501 -0.00000000000E+00 -0.00000000000E+00 -0.29640702287E+01  0.29640702287E+01  0.00000000000E+00 0. -1.
          2    1    1    2  502    0 -0.17797581068E+02 -0.18751973326E+02  0.10010634224E+04  0.10013972069E+04  0.00000000000E+00 0.  1.
         -2    1    1    2    0  502  0.17797581068E+02  0.18751973326E+02  0.56940744071E+02  0.62535099991E+02  0.00000000000E+00 0. -1.
<mgrwt>
<rscale>  2 0.25853247E+02</rscale>
<asrwt>0</asrwt>
<pdfrwt beam="1">  1        2 0.16322558E+00 0.25853247E+02</pdfrwt>
<pdfrwt beam="2">  1       -2 0.45601165E-03 0.25853247E+02</pdfrwt>
<totfact> 0.11362365E+05</totfact>
</mgrwt>
</event>
<event>
 4    1  0.1429937E+004  0.4406405E+02  0.7546771E-02  0.1480271E+00
         -2   -1    0    0    0  501 -0.00000000000E+00  0.00000000000E+00  0.19670996760E+03  0.19670996760E+03  0.00000000000E+00 0. -1.
          2   -1    0    0  501    0  0.00000000000E+00 -0.00000000000E+00 -0.21699802104E+03  0.21699802104E+03  0.00000000000E+00 0. -1.
          2    1    1    2  502    0  0.49102838955E+01  0.43789602451E+02 -0.21223869299E+03  0.21676462574E+03  0.00000000000E+00 0. -1.
         -2    1    1    2    0  502 -0.49102838955E+01 -0.43789602451E+02  0.19195063955E+03  0.19694336291E+03  0.00000000000E+00 0. -1.
<mgrwt>
<rscale>  2 0.44064046E+02</rscale>
<asrwt>0</asrwt>
<pdfrwt beam="2">  1        2 0.33384311E-01 0.44064046E+02</pdfrwt>
<pdfrwt beam="1">  1       -2 0.30263072E-01 0.44064046E+02</pdfrwt>
<totfact> 0.14594216E+03</totfact>
</mgrwt>
</event>
<event>
 4    1  0.1429937E+004  0.2009051E+02  0.7546771E-02  0.1743534E+00
         -2   -1    0    0    0  501 -0.00000000000E+00  0.00000000000E+00  0.60380542751E+01  0.60380542751E+01  0.00000000000E+00 0.  1.
          2   -1    0    0  501    0  0.00000000000E+00 -0.00000000000E+00 -0.14435699838E+03  0.14435699838E+03  0.00000000000E+00 0.  1.
          2    1    1    2  502    0 -0.88012342777E+01  0.18060087975E+02 -0.12426082333E+03  0.12587446411E+03  0.00000000000E+00 0.  1.
         -2    1    1    2    0  502  0.88012342777E+01 -0.18060087975E+02 -0.14058120775E+02  0.24520588537E+02  0.00000000000E+00 0.  1.
<mgrwt>
<rscale>  2 0.20090508E+02</rscale>
<asrwt>0</asrwt>
<pdfrwt beam="2">  1        2 0.22208767E-01 0.20090508E+02</pdfrwt>
<pdfrwt beam="1">  1       -2 0.92893150E-03 0.20090508E+02</pdfrwt>
<totfact> 0.32865295E+05</totfact>
</mgrwt>
</event>
<event>
 4    1  0.1429937E+004  0.2816382E+02  0.7546771E-02  0.1619320E+00
          2   -1    0    0  501    0  0.00000000000E+00  0.00000000000E+00  0.57662658546E+02  0.57662658546E+02  0.00000000000E+00 0.  1.
         -2   -1    0    0    0  501 -0.00000000000E+00 -0.00000000000E+00 -0.11661695836E+03  0.11661695836E+03  0.00000000000E+00 0.  1.
          2    1    1    2  502    0 -0.23284773040E+02  0.15843606694E+02  0.52362033170E+02  0.59455723411E+02  0.00000000000E+00 0.  1.
         -2    1    1    2    0  502  0.23284773040E+02 -0.15843606694E+02 -0.11131633299E+03  0.11482389350E+03  0.00000000000E+00 0.  1.
<mgrwt>
<rscale>  2 0.28163816E+02</rscale>
<asrwt>0</asrwt>
<pdfrwt beam="1">  1        2 0.88711782E-02 0.28163816E+02</pdfrwt>
<pdfrwt beam="2">  1       -2 0.17941070E-01 0.28163816E+02</pdfrwt>
<totfact> 0.14311681E+04</totfact>
</mgrwt>
</event>
<event>
 4    1  0.1429937E+004  0.3166055E+02  0.7546771E-02  0.1580427E+00
          2   -1    0    0  501    0  0.00000000000E+00  0.00000000000E+00  0.62531464640E+02  0.62531464640E+02  0.00000000000E+00 0. -1.
         -2   -1    0    0    0  501 -0.00000000000E+00 -0.00000000000E+00 -0.40387200461E+02  0.40387200461E+02  0.00000000000E+00 0.  1.
          2    1    1    2  502    0 -0.15198409895E+02 -0.27774062582E+02  0.51034794476E+02  0.60057809341E+02  0.00000000000E+00 0. -1.
         -2    1    1    2    0  502  0.15198409895E+02  0.27774062582E+02 -0.28890530297E+02  0.42860855760E+02  0.00000000000E+00 0.  1.
<mgrwt>
<rscale>  2 0.31660547E+02</rscale>
<asrwt>0</asrwt>
<pdfrwt beam="1">  1        2 0.96202254E-02 0.31660547E+02</pdfrwt>
<pdfrwt beam="2">  1       -2 0.62134154E-02 0.31660547E+02</pdfrwt>
<totfact> 0.66362377E+04</totfact>
</mgrwt>
</event>
<event>
 4    1  0.1429937E+004  0.5466979E+02  0.7546771E-02  0.1421667E+00
          2   -1    0    0  501    0  0.00000000000E+00  0.00000000000E+00  0.21129546361E+03  0.21129546361E+03  0.00000000000E+00 0.  1.
         -2   -1    0    0    0  501 -0.00000000000E+00 -0.00000000000E+00 -0.41967701743E+02  0.41967701743E+02  0.00000000000E+00 0. -1.
          2    1    1    2  502    0 -0.54260375758E+02 -0.66781424523E+01  0.18776981522E+03  0.19556658577E+03  0.00000000000E+00 0.  1.
         -2    1    1    2    0  502  0.54260375758E+02  0.66781424523E+01 -0.18442053347E+02  0.57696579584E+02  0.00000000000E+00 0. -1.
<mgrwt>
<rscale>  2 0.54669790E+02</rscale>
<asrwt>0</asrwt>
<pdfrwt beam="1">  1        2 0.32506994E-01 0.54669790E+02</pdfrwt>
<pdfrwt beam="2">  1       -2 0.64565696E-02 0.54669790E+02</pdfrwt>
<totfact> 0.17891803E+04</totfact>
</mgrwt>
</event>
<event>
 4    1  0.1429937E+004  0.2159897E+02  0.7546771E-02  0.1715281E+00
         -2   -1    0    0    0  501 -0.00000000000E+00  0.00000000000E+00  0.36938698959E+03  0.36938698959E+03  0.00000000000E+00 0.  1.
          2   -1    0    0  501    0  0.00000000000E+00 -0.00000000000E+00 -0.95092132329E+02  0.95092132329E+02  0.00000000000E+00 0. -1.
          2    1    1    2  502    0 -0.24233650581E+01  0.21462593483E+02 -0.93544757798E+02  0.96005923404E+02  0.00000000000E+00 0. -1.
         -2    1    1    2    0  502  0.24233650581E+01 -0.21462593483E+02  0.36783961506E+03  0.36847319852E+03  0.00000000000E+00 0.  1.
<mgrwt>
<rscale>  2 0.21598973E+02</rscale>
<asrwt>0</asrwt>
<pdfrwt beam="2">  1        2 0.14629559E-01 0.21598973E+02</pdfrwt>
<pdfrwt beam="1">  1       -2 0.56828767E-01 0.21598973E+02</pdfrwt>
<totfact> 0.10394484E+03</totfact>
</mgrwt>
</event>
<event>
 4    1  0.1429937E+004  0.5138886E+02  0.7546771E-02  0.1437991E+00
         -2   -1    0    0    0  501 -0.00000000000E+00  0.00000000000E+00  0.71670529454E+01  0.71670529454E+01  0.00000000000E+00 0.  1.
          2   -1    0    0  501    0  0.00000000000E+00 -0.00000000000E+00 -0.15300110692E+04  0.15300110692E+04  0.00000000000E+00 0. -1.
          2    1    1    2  502    0 -0.23871081281E+02  0.45508091431E+02 -0.14310983499E+04  0.14320207058E+04  0.00000000000E+00 0. -1.
         -2    1    1    2    0  502  0.23871081281E+02 -0.45508091431E+02 -0.91745666389E+02  0.10515741633E+03  0.00000000000E+00 0.  1.
<mgrwt>
<rscale>  2 0.51388860E+02</rscale>
<asrwt>0</asrwt>
<pdfrwt beam="2">  1        2 0.23538634E+00 0.51388860E+02</pdfrwt>
<pdfrwt beam="1">  1       -2 0.11026234E-02 0.51388860E+02</pdfrwt>
<totfact> 0.21705894E+04</totfact>
</mgrwt>
</event>
<event>
 4    1  0.1429937E+004  0.2483182E+02  0.7546771E-02  0.1663429E+00
          2   -1    0    0  501    0  0.00000000000E+00  0.00000000000E+00  0.13838858991E+04  0.13838858991E+04  0.00000000000E+00 0. -1.
         -2   -1    0    0    0  501 -0.00000000000E+00 -0.00000000000E+00 -0.13796971077E+01  0.13796971077E+01  0.00000000000E+00 0.  1.
          2    1    1    2  502    0  0.21952807793E+02 -0.11605757738E+02  0.12611731536E+04  0.12614175926E+04  0.00000000000E+00 0. -1.
         -2    1    1    2    0  502 -0.21952807793E+02  0.11605757738E+02  0.12133304836E+03  0.12384800365E+03  0.00000000000E+00 0.  1.
<mgrwt>
<rscale>  2 0.24831822E+02</rscale>
<asrwt>0</asrwt>
<pdfrwt beam="1">  1        2 0.21290441E+00 0.24831822E+02</pdfrwt>
<pdfrwt beam="2">  1       -2 0.21226220E-03 0.24831822E+02</pdfrwt>
<totfact> 0.21542064E+05</totfact>
</mgrwt>
</event>
<event>
 4    1  0.1429937E+004  0.4194575E+02  0.7546771E-02  0.1494362E+00
          2   -1    0    0  501    0  0.00000000000E+00  0.00000000000E+00  0.15635549162E+04  0.15635549162E+04  0.00000000000E+00 0.  1.
         -2   -1    0    0    0  501 -0.00000000000E+00 -0.00000000000E+00 -0.35179036055E+01  0.35179036055E+01  0.00000000000E+00 0. -1.
          2    1    1    2  502    0 -0.40349995348E+02  0.11459662099E+02  0.14261990681E+04  0.14268157652E+04  0.00000000000E+00 0.  1.
         -2    1    1    2    0  502  0.40349995348E+02 -0.11459662099E+02  0.13383794454E+03  0.14025705465E+03  0.00000000000E+00 0. -1.
<mgrwt>
<rscale>  2 0.41945750E+02</rscale>
<asrwt>0</asrwt>
<pdfrwt beam="1">  1        2 0.24054636E+00 0.41945750E+02</pdfrwt>
<pdfrwt beam="2">  1       -2 0.54121719E-03 0.41945750E+02</pdfrwt>
<totfact> 0.54605618E+04</totfact>
</mgrwt>
</event>
<event>
 4    1  0.1429937E+004  0.2807547E+02  0.7546771E-02  0.1620391E+00
          2   -1    0    0  501    0  0.00000000000E+00  0.00000000000E+00  0.37428131734E+03  0.37428131734E+03  0.00000000000E+00 0.  1.
         -2   -1    0    0    0  501 -0.00000000000E+00 -0.00000000000E+00 -0.12313585932E+02  0.12313585932E+02  0.00000000000E+00 0. -1.
          2    1    1    2  502    0 -0.27645195945E+02 -0.48964684363E+01  0.35697695565E+03  0.35807929168E+03  0.00000000000E+00 0.  1.
         -2    1    1    2    0  502  0.27645195945E+02  0.48964684363E+01  0.49907757577E+01  0.28515611595E+02  0.00000000000E+00 0. -1.
<mgrwt>
<rscale>  2 0.28075474E+02</rscale>
<asrwt>0</asrwt>
<pdfrwt beam="1">  1        2 0.57581732E-01 0.28075474E+02</pdfrwt>
<pdfrwt beam="2">  1       -2 0.18943981E-02 0.28075474E+02</pdfrwt>
<totfact> 0.51915536E+04</totfact>
</mgrwt>
</event>
<event>
 4    1  0.1429937E+004  0.2178424E+02  0.7546771E-02  0.1712010E+00
          2   -1    0    0  501    0  0.00000000000E+00  0.00000000000E+00  0.40314073115E+01  0.40314073115E+01  0.00000000000E+00 0. -1.
         -2   -1    0    0    0  501 -0.00000000000E+00 -0.00000000000E+00 -0.38905439650E+03  0.38905439650E+03  0.00000000000E+00 0.  1.
          2    1    1    2  502    0 -0.21774120250E+02 -0.66379049068E+00 -0.28373373507E+02  0.35771514570E+02  0.00000000000E+00 0. -1.
         -2    1    1    2    0  502  0.21774120250E+02  0.66379049068E+00 -0.35664961568E+03  0.35731428924E+03  0.00000000000E+00 0.  1.
<mgrwt>
<rscale>  2 0.21784236E+02</rscale>
<asrwt>0</asrwt>
<pdfrwt beam="1">  1        2 0.62021674E-03 0.21784236E+02</pdfrwt>
<pdfrwt beam="2">  1       -2 0.59854500E-01 0.21784236E+02</pdfrwt>
<totfact> 0.47056371E+04</totfact>
</mgrwt>
</event>
<event>
 4    1  0.1429937E+004  0.2059380E+02  0.7546771E-02  0.1733771E+00
          2   -1    0    0  501    0  0.00000000000E+00  0.00000000000E+00  0.12260897906E+02  0.12260897906E+02  0.00000000000E+00 0.  1.
         -2   -1    0    0    0  501 -0.00000000000E+00 -0.00000000000E+00 -0.15401880443E+03  0.15401880443E+03  0.00000000000E+00 0. -1.
          2    1    1    2  502    0 -0.14588445244E+02 -0.14535533240E+02  0.23321431249E+01  0.20725427686E+02  0.00000000000E+00 0.  1.
         -2    1    1    2    0  502  0.14588445244E+02  0.14535533240E+02 -0.14409004964E+03  0.14555427465E+03  0.00000000000E+00 0. -1.
<mgrwt>
<rscale>  2 0.20593797E+02</rscale>
<asrwt>0</asrwt>
<pdfrwt beam="1">  1        2 0.18862918E-02 0.20593797E+02</pdfrwt>
<pdfrwt beam="2">  1       -2 0.23695203E-01 0.20593797E+02</pdfrwt>
<totfact> 0.57962245E+04</totfact>
</mgrwt>
</event>
<event>
 4    1  0.1429937E+004  0.3736362E+02  0.7546771E-02  0.1528560E+00
         -2   -1    0    0    0  501 -0.00000000000E+00  0.00000000000E+00  0.33193257263E+01  0.33193257263E+01  0.00000000000E+00 0.  1.
          2   -1    0    0  501    0  0.00000000000E+00 -0.00000000000E+00 -0.12841303475E+04  0.12841303475E+04  0.00000000000E+00 0. -1.
          2    1    1    2  502    0 -0.26295725296E+02 -0.26543835159E+02 -0.11682909322E+04  0.11688882507E+04  0.00000000000E+00 0. -1.
         -2    1    1    2    0  502  0.26295725296E+02  0.26543835159E+02 -0.11252008949E+03  0.11856142245E+03  0.00000000000E+00 0.  1.
<mgrwt>
<rscale>  2 0.37363623E+02</rscale>
<asrwt>0</asrwt>
<pdfrwt beam="2">  1        2 0.19755856E+00 0.37363623E+02</pdfrwt>
<pdfrwt beam="1">  1       -2 0.51066537E-03 0.37363623E+02</pdfrwt>
<totfact> 0.79909738E+04</totfact>
</mgrwt>
</event>
<event>
 4    1  0.1429937E+004  0.2159993E+02  0.7546771E-02  0.1715264E+00
         -2   -1    0    0    0  501 -0.00000000000E+00  0.00000000000E+00  0.27090764161E+02  0.27090764161E+02  0.00000000000E+00 0.  1.
          2   -1    0    0  501    0  0.00000000000E+00 -0.00000000000E+00 -0.93123324789E+03  0.93123324789E+03  0.00000000000E+00 0. -1.
          2    1    1    2  502    0 -0.14615735314E+02 -0.15904007734E+02 -0.92678181805E+03  0.92703349209E+03  0.00000000000E+00 0. -1.
         -2    1    1    2    0  502  0.14615735314E+02  0.15904007734E+02  0.22639334325E+02  0.31290519961E+02  0.00000000000E+00 0.  1.
<mgrwt>
<rscale>  2 0.21599935E+02</rscale>
<asrwt>0</asrwt>
<pdfrwt beam="2">  1        2 0.14326663E+00 0.21599935E+02</pdfrwt>
<pdfrwt beam="1">  1       -2 0.41678104E-02 0.21599935E+02</pdfrwt>
<totfact> 0.63307654E+03</totfact>
</mgrwt>
</event>
<event>
 4    1  0.1429937E+004  0.3720985E+02  0.7546771E-02  0.1529809E+00
         -2   -1    0    0    0  501 -0.00000000000E+00  0.00000000000E+00  0.45002157447E+02  0.45002157447E+02  0.00000000000E+00 0.  1.
          2   -1    0    0  501    0  0.00000000000E+00 -0.00000000000E+00 -0.17398422644E+03  0.17398422644E+03  0.00000000000E+00 0. -1.
          2    1    1    2  502    0  0.28802510487E+02  0.23558190001E+02 -0.16383239247E+03  0.16800483847E+03  0.00000000000E+00 0. -1.
         -2    1    1    2    0  502 -0.28802510487E+02 -0.23558190001E+02  0.34850323479E+02  0.50981545417E+02  0.00000000000E+00 0.  1.
<mgrwt>
<rscale>  2 0.37209850E+02</rscale>
<asrwt>0</asrwt>
<pdfrwt beam="2">  1        2 0.26766804E-01 0.37209850E+02</pdfrwt>
<pdfrwt beam="1">  1       -2 0.69234089E-02 0.37209850E+02</pdfrwt>
<totfact> 0.18761525E+04</totfact>
</mgrwt>
</event>
<event>
 4    1  0.1429937E+004  0.3643857E+02  0.7546771E-02  0.1536185E+00
          2   -1    0    0  501    0  0.00000000000E+00  0.00000000000E+00  0.89390902201E+03  0.89390902201E+03  0.00000000000E+00 0.  1.
         -2   -1    0    0    0  501 -0.00000000000E+00 -0.00000000000E+00 -0.21799937065E+02  0.21799937065E+02  0.00000000000E+00 0.  1.
          2    1    1    2  502    0 -0.24312548493E+02  0.27141655140E+02  0.87803577316E+03  0.87879155003E+03  0.00000000000E+00 0.  1.
         -2    1    1    2    0  502  0.24312548493E+02 -0.27141655140E+02 -0.59266882080E+01  0.36917409051E+02  0.00000000000E+00 0.  1.
<mgrwt>
<rscale>  2 0.36438571E+02</rscale>
<asrwt>0</asrwt>
<pdfrwt beam="1">  1        2 0.13752444E+00 0.36438571E+02</pdfrwt>
<pdfrwt beam="2">  1       -2 0.33538372E-02 0.36438571E+02</pdfrwt>
<totfact> 0.95397176E+03</totfact>
</mgrwt>
</event>
<event>
 4    1  0.1429937E+004  0.2698156E+02  0.7546771E-02  0.1634070E+00
         -2   -1    0    0    0  501 -0.00000000000E+00  0.00000000000E+00  0.72587215034E+01  0.72587215034E+01  0.00000000000E+00 0.  1.
          2   -1    0    0  501    0  0.00000000000E+00 -0.00000000000E+00 -0.78101192724E+03  0.78101192724E+03  0.00000000000E+00 0. -1.
          2    1    1    2  502    0 -0.22192674223E+02  0.15345683974E+02 -0.75483624105E+03  0.75531831410E+03  0.00000000000E+00 0. -1.
         -2    1    1    2    0  502  0.22192674223E+02 -0.15345683974E+02 -0.18916964687E+02  0.32952334648E+02  0.00000000000E+00 0.  1.
<mgrwt>
<rscale>  2 0.26981564E+02</rscale>
<asrwt>0</asrwt>
<pdfrwt beam="2">  1        2 0.12015561E+00 0.26981564E+02</pdfrwt>
<pdfrwt beam="1">  1       -2 0.11167270E-02 0.26981564E+02</pdfrwt>
<totfact> 0.49372679E+04</totfact>
</mgrwt>
</event>
<event>
 4    1  0.1429937E+004  0.3400589E+02  0.7546771E-02  0.1557610E+00
          2   -1    0    0  501    0  0.00000000000E+00  0.00000000000E+00  0.76620767580E+03  0.76620767580E+03  0.00000000000E+00 0. -1.
         -2   -1    0    0    0  501 -0.00000000000E+00 -0.00000000000E+00 -0.10102123753E+02  0.10102123753E+02  0.00000000000E+00 0. -1.
          2    1    1    2  502    0 -0.15144313064E+02 -0.30447502898E+02  0.73604029832E+03  0.73682543482E+03  0.00000000000E+00 0. -1.
         -2    1    1    2    0  502  0.15144313064E+02  0.30447502898E+02  0.20065253723E+02  0.39484364727E+02  0.00000000000E+00 0. -1.
<mgrwt>
<rscale>  2 0.34005891E+02</rscale>
<asrwt>0</asrwt>
<pdfrwt beam="1">  1        2 0.11787806E+00 0.34005891E+02</pdfrwt>
<pdfrwt beam="2">  1       -2 0.15541735E-02 0.34005891E+02</pdfrwt>
<totfact> 0.33291799E+04</totfact>
</mgrwt>
</event>
<event>
 4    1  0.1429937E+004  0.2141915E+02  0.7546771E-02  0.1718496E+00
          2   -1    0    0  501    0  0.00000000000E+00  0.00000000000E+00  0.59166001246E+03  0.59166001246E+03  0.00000000000E+00 0.  1.
         -2   -1    0    0    0  501 -0.00000000000E+00 -0.00000000000E+00 -0.20639822354E+01  0.20639822354E+01  0.00000000000E+00 0.  1.
          2    1    1    2  502    0 -0.20420348902E+02  0.64644507604E+01  0.52935902238E+03  0.52979218033E+03  0.00000000000E+00 0.  1.
         -2    1    1    2    0  502  0.20420348902E+02 -0.64644507604E+01  0.60237007853E+02  0.63931814365E+02  0.00000000000E+00 0.  1.
<mgrwt>
<rscale>  2 0.21419145E+02</rscale>
<asrwt>0</asrwt>
<pdfrwt beam="1">  1        2 0.91024482E-01 0.21419145E+02</pdfrwt>
<pdfrwt beam="2">  1       -2 0.31753620E-03 0.21419145E+02</pdfrwt>
<totfact> 0.34306781E+05</totfact>
</mgrwt>
</event>
<event>
 4    1  0.1429937E+004  0.2942901E+02  0.7546771E-02  0.1604487E+00
         -2   -1    0    0    0  501 -0.00000000000E+00  0.00000000000E+00  0.15335064186E+02  0.15335064186E+02  0.00000000000E+00 0. -1.
          2   -1    0    0  501    0  0.00000000000E+00 -0.00000000000E+00 -0.10592916157E+04  0.10592916157E+04  0.00000000000E+00 0. -1.
          2    1    1    2  502    0 -0.23277539810E+02  0.18006181467E+02 -0.10447719841E+04  0.10451863783E+04  0.00000000000E+00 0. -1.
         -2    1    1    2    0  502  0.23277539810E+02 -0.18006181467E+02  0.81543261850E+00  0.29440301646E+02  0.00000000000E+00 0. -1.
<mgrwt>
<rscale>  2 0.29429007E+02</rscale>
<asrwt>0</asrwt>
<pdfrwt beam="2">  1        2 0.16296793E+00 0.29429007E+02</pdfrwt>
<pdfrwt beam="1">  1       -2 0.23592409E-02 0.29429007E+02</pdfrwt>
<totfact> 0.12342628E+04</totfact>
</mgrwt>
</event>
<event>
 4    1  0.1429937E+004  0.2004909E+02  0.7546771E-02  0.1744354E+00
          2   -1    0    0  501    0  0.00000000000E+00  0.00000000000E+00  0.11070486422E+04  0.11070486422E+04  0.00000000000E+00 0.  1.
         -2   -1    0    0    0  501 -0.00000000000E+00 -0.00000000000E+00 -0.53109040595E+00  0.53109040595E+00  0.00000000000E+00 0. -1.
          2    1    1    2  502    0 -0.18661853887E+02  0.73281177018E+01  0.86472203620E+03  0.86495443001E+03  0.00000000000E+00 0.  1.
         -2    1    1    2    0  502  0.18661853887E+02 -0.73281177018E+01  0.24179551554E+03  0.24262530254E+03  0.00000000000E+00 0. -1.
<mgrwt>
<rscale>  2 0.20049092E+02</rscale>
<asrwt>0</asrwt>
<pdfrwt beam="1">  1        2 0.17031333E+00 0.20049092E+02</pdfrwt>
<pdfrwt beam="2">  1       -2 0.81707102E-04 0.20049092E+02</pdfrwt>
<totfact> 0.98167401E+05</totfact>
</mgrwt>
</event>
<event>
 4    1  0.1429937E+004  0.2000785E+02  0.7546771E-02  0.1745172E+00
         -2   -1    0    0    0  501 -0.00000000000E+00  0.00000000000E+00  0.45730464772E+02  0.45730464772E+02  0.00000000000E+00 0.  1.
          2   -1    0    0  501    0  0.00000000000E+00 -0.00000000000E+00 -0.71249685208E+02  0.71249685208E+02  0.00000000000E+00 0.  1.
          2    1    1    2  502    0 -0.17966895108E+02  0.88036742098E+01 -0.67538915126E+02  0.70440180692E+02  0.00000000000E+00 0.  1.
         -2    1    1    2    0  502  0.17966895108E+02 -0.88036742098E+01  0.42019694691E+02  0.46539969288E+02  0.00000000000E+00 0.  1.
<mgrwt>
<rscale>  2 0.20007848E+02</rscale>
<asrwt>0</asrwt>
<pdfrwt beam="2">  1        2 0.10961490E-01 0.20007848E+02</pdfrwt>
<pdfrwt beam="1">  1       -2 0.70354561E-02 0.20007848E+02</pdfrwt>
<totfact> 0.43186473E+04</totfact>
</mgrwt>
</event>
<event>
 4    1  0.1429937E+004  0.2011936E+02  0.7546771E-02  0.1742965E+00
         -2   -1    0    0    0  501 -0.00000000000E+00  0.00000000000E+00  0.39819613078E+00  0.39819613078E+00  0.00000000000E+00 0. -1.
          2   -1    0    0  501    0  0.00000000000E+00 -0.00000000000E+00 -0.13078772199E+04  0.13078772199E+04  0.00000000000E+00 0. -1.
          2    1    1    2  502    0 -0.16380986592E+02  0.11681263420E+02 -0.96246452060E+03  0.96267478519E+03  0.00000000000E+00 0. -1.
         -2    1    1    2    0  502  0.16380986592E+02 -0.11681263420E+02 -0.34501450314E+03  0.34560063080E+03  0.00000000000E+00 0. -1.
<mgrwt>
<rscale>  2 0.20119360E+02</rscale>
<asrwt>0</asrwt>
<pdfrwt beam="2">  1        2 0.20121248E+00 0.20119360E+02</pdfrwt>
<pdfrwt beam="1">  1       -2 0.61260760E-04 0.20119360E+02</pdfrwt>
<totfact> 0.11381173E+06</totfact>
</mgrwt>
</event>
<event>
 4    1  0.1429937E+004  0.7012394E+02  0.7546771E-02  0.1359672E+00
          2   -1    0    0  501    0  0.00000000000E+00  0.00000000000E+00  0.18276420750E+04  0.18276420750E+04  0.00000000000E+00 0.  1.
         -2   -1    0    0    0  501 -0.00000000000E+00 -0.00000000000E+00 -0.10764116524E+03  0.10764116524E+03  0.00000000000E+00 0.  1.
          2    1    1    2  502    0  0.52886323363E+02 -0.46047837338E+02  0.18154721684E+04  0.18168259578E+04  0.00000000000E+00 0.  1.
         -2    1    1    2    0  502 -0.52886323363E+02  0.46047837338E+02 -0.95471258703E+02  0.11845728243E+03  0.00000000000E+00 0.  1.
<mgrwt>
<rscale>  2 0.70123937E+02</rscale>
<asrwt>0</asrwt>
<pdfrwt beam="1">  1        2 0.28117568E+00 0.70123937E+02</pdfrwt>
<pdfrwt beam="2">  1       -2 0.16560181E-01 0.70123937E+02</pdfrwt>
<totfact> 0.28731533E+02</totfact>
</mgrwt>
</event>
<event>
 4    1  0.1429937E+004  0.3779935E+02  0.7546771E-02  0.1525060E+00
         -2   -1    0    0    0  501 -0.00000000000E+00  0.00000000000E+00  0.30081655250E+02  0.30081655250E+02  0.00000000000E+00 0. -1.
          2   -1    0    0  501    0  0.00000000000E+00 -0.00000000000E+00 -0.12735317263E+04  0.12735317263E+04  0.00000000000E+00 0.  1.
          2    1    1    2  502    0 -0.45562957304E+01  0.37523737126E+02 -0.12612614858E+04  0.12618277720E+04  0.00000000000E+00 0.  1.
         -2    1    1    2    0  502  0.45562957304E+01 -0.37523737126E+02  0.17811414664E+02  0.41785609616E+02  0.00000000000E+00 0. -1.
<mgrwt>
<rscale>  2 0.37799348E+02</rscale>
<asrwt>0</asrwt>
<pdfrwt beam="2">  1        2 0.19592794E+00 0.37799348E+02</pdfrwt>
<pdfrwt beam="1">  1       -2 0.46279474E-02 0.37799348E+02</pdfrwt>
<totfact> 0.37589076E+03</totfact>
</mgrwt>
</event>
<event>
 4    1  0.1429937E+004  0.2419392E+02  0.7546771E-02  0.1672857E+00
          2   -1    0    0  501    0  0.00000000000E+00  0.00000000000E+00  0.17142904209E+03  0.17142904209E+03  0.00000000000E+00 0. -1.
         -2   -1    0    0    0  501 -0.00000000000E+00 -0.00000000000E+00 -0.38770699971E+03  0.38770699971E+03  0.00000000000E+00 0. -1.
          2    1    1    2  502    0 -0.58108154619E+01 -0.23485743142E+02  0.17019525203E+03  0.17190628121E+03  0.00000000000E+00 0. -1.
         -2    1    1    2    0  502  0.58108154619E+01  0.23485743142E+02 -0.38647320965E+03  0.38722976059E+03  0.00000000000E+00 0. -1.
<mgrwt>
<rscale>  2 0.24193919E+02</rscale>
<asrwt>0</asrwt>
<pdfrwt beam="1">  1        2 0.26373699E-01 0.24193919E+02</pdfrwt>
<pdfrwt beam="2">  1       -2 0.59647230E-01 0.24193919E+02</pdfrwt>
<totfact> 0.50986181E+02</totfact>
</mgrwt>
</event>
<event>
 4    1  0.1429937E+004  0.2802185E+02  0.7546771E-02  0.1621044E+00
          2   -1    0    0  501    0  0.00000000000E+00  0.00000000000E+00  0.33200964230E+03  0.33200964230E+03  0.00000000000E+00 0. -1.
         -2   -1    0    0    0  501 -0.00000000000E+00 -0.00000000000E+00 -0.72908431351E+02  0.72908431351E+02  0.00000000000E+00 0. -1.
          2    1    1    2  502    0  0.19489142564E+01 -0.27953990976E+02  0.32869880492E+03  0.32989108541E+03  0.00000000000E+00 0. -1.
         -2    1    1    2    0  502 -0.19489142564E+01  0.27953990976E+02 -0.69597593969E+02  0.75026988241E+02  0.00000000000E+00 0. -1.
<mgrwt>
<rscale>  2 0.28021846E+02</rscale>
<asrwt>0</asrwt>
<pdfrwt beam="1">  1        2 0.51078406E-01 0.28021846E+02</pdfrwt>
<pdfrwt beam="2">  1       -2 0.11216682E-01 0.28021846E+02</pdfrwt>
<totfact> 0.45743656E+03</totfact>
</mgrwt>
</event>
<event>
 4    1  0.1429937E+004  0.4710672E+02  0.7546771E-02  0.1461603E+00
          2   -1    0    0  501    0  0.00000000000E+00  0.00000000000E+00  0.51999026290E+01  0.51999026290E+01  0.00000000000E+00 0. -1.
         -2   -1    0    0    0  501 -0.00000000000E+00 -0.00000000000E+00 -0.42686296988E+03  0.42686296988E+03  0.00000000000E+00 0. -1.
          2    1    1    2  502    0 -0.36169278139E+02 -0.30179860719E+02 -0.21439872506E+03  0.21951276496E+03  0.00000000000E+00 0. -1.
         -2    1    1    2    0  502  0.36169278139E+02  0.30179860719E+02 -0.20726434219E+03  0.21255010755E+03  0.00000000000E+00 0. -1.
<mgrwt>
<rscale>  2 0.47106718E+02</rscale>
<asrwt>0</asrwt>
<pdfrwt beam="1">  1        2 0.79998454E-03 0.47106718E+02</pdfrwt>
<pdfrwt beam="2">  1       -2 0.65671265E-01 0.47106718E+02</pdfrwt>
<totfact> 0.33220082E+04</totfact>
</mgrwt>
</event>
<event>
 4    1  0.1429937E+004  0.2069607E+02  0.7546771E-02  0.1731830E+00
          2   -1    0    0  501    0  0.00000000000E+00  0.00000000000E+00  0.59699450680E+02  0.59699450680E+02  0.00000000000E+00 0.  1.
         -2   -1    0    0    0  501 -0.00000000000E+00 -0.00000000000E+00 -0.12058507048E+02  0.12058507048E+02  0.00000000000E+00 0.  1.
          2    1    1    2  502    0  0.57209732234E+01 -0.19889642215E+02  0.46653906596E+02  0.51038362070E+02  0.00000000000E+00 0.  1.
         -2    1    1    2    0  502 -0.57209732234E+01  0.19889642215E+02  0.98703703542E+00  0.20719595657E+02  0.00000000000E+00 0.  1.
<mgrwt>
<rscale>  2 0.20696072E+02</rscale>
<asrwt>0</asrwt>
<pdfrwt beam="1">  1        2 0.91845307E-02 0.20696072E+02</pdfrwt>
<pdfrwt beam="2">  1       -2 0.18551550E-02 0.20696072E+02</pdfrwt>
<totfact> 0.34285737E+05</totfact>
</mgrwt>
</event>
<event>
 4    1  0.1429937E+004  0.2295668E+02  0.7546771E-02  0.1692213E+00
         -2   -1    0    0    0  501 -0.00000000000E+00  0.00000000000E+00  0.65956087725E+03  0.65956087725E+03  0.00000000000E+00 0. -1.
          2   -1    0    0  501    0  0.00000000000E+00 -0.00000000000E+00 -0.12867269036E+01  0.12867269036E+01  0.00000000000E+00 0. -1.
          2    1    1    2  502    0  0.22828446700E+02 -0.24230243404E+01  0.12571266453E+03  0.12779156095E+03  0.00000000000E+00 0. -1.
         -2    1    1    2    0  502 -0.22828446700E+02  0.24230243404E+01  0.53256148581E+03  0.53305604320E+03  0.00000000000E+00 0. -1.
<mgrwt>
<rscale>  2 0.22956677E+02</rscale>
<asrwt>0</asrwt>
<pdfrwt beam="2">  1        2 0.19795851E-03 0.22956677E+02</pdfrwt>
<pdfrwt beam="1">  1       -2 0.10147063E+00 0.22956677E+02</pdfrwt>
<totfact> 0.70654419E+04</totfact>
</mgrwt>
</event>
<event>
 4    1  0.1429937E+004  0.2107759E+02  0.7546771E-02  0.1724711E+00
         -2   -1    0    0    0  501 -0.00000000000E+00  0.00000000000E+00  0.36366126535E+01  0.36366126535E+01  0.00000000000E+00 0.  1.
          2   -1    0    0  501    0  0.00000000000E+00 -0.00000000000E+00 -0.44241888836E+03  0.44241888836E+03  0.00000000000E+00 0. -1.
          2    1    1    2  502    0  0.20947512577E+02  0.23380492012E+01 -0.40914457778E+03  0.40968713708E+03  0.00000000000E+00 0. -1.
         -2    1    1    2    0  502 -0.20947512577E+02 -0.23380492012E+01 -0.29637697927E+02  0.36368363940E+02  0.00000000000E+00 0.  1.
<mgrwt>
<rscale>  2 0.21077589E+02</rscale>
<asrwt>0</asrwt>
<pdfrwt beam="2">  1        2 0.68064461E-01 0.21077589E+02</pdfrwt>
<pdfrwt beam="1">  1       -2 0.55947874E-03 0.21077589E+02</pdfrwt>
<totfact> 0.21540598E+05</totfact>
</mgrwt>
</event>
<event>
 4    1  0.1429937E+004  0.2795781E+02  0.7546771E-02  0.1621825E+00
         -2   -1    0    0    0  501 -0.00000000000E+00  0.00000000000E+00  0.44635884603E+02  0.44635884603E+02  0.00000000000E+00 0. -1.
          2   -1    0    0  501    0  0.00000000000E+00 -0.00000000000E+00 -0.17736327096E+03  0.17736327096E+03  0.00000000000E+00 0.  1.
          2    1    1    2  502    0  0.27006753323E+02 -0.72301020371E+01 -0.17174128630E+03  0.17400203597E+03  0.00000000000E+00 0.  1.
         -2    1    1    2    0  502 -0.27006753323E+02  0.72301020371E+01  0.39013899945E+02  0.47997119595E+02  0.00000000000E+00 0. -1.
<mgrwt>
<rscale>  2 0.27957809E+02</rscale>
<asrwt>0</asrwt>
<pdfrwt beam="2">  1        2 0.27286657E-01 0.27957809E+02</pdfrwt>
<pdfrwt beam="1">  1       -2 0.68670591E-02 0.27957809E+02</pdfrwt>
<totfact> 0.17811378E+04</totfact>
</mgrwt>
</event>
<event>
 4    1  0.1429937E+004  0.2362077E+02  0.7546771E-02  0.1681641E+00
          2   -1    0    0  501    0  0.00000000000E+00  0.00000000000E+00  0.80262150010E+03  0.80262150010E+03  0.00000000000E+00 0.  1.
         -2   -1    0    0    0  501 -0.00000000000E+00 -0.00000000000E+00 -0.10597531664E+01  0.10597531664E+01  0.00000000000E+00 0.  1.
          2    1    1    2  502    0  0.20489341553E+02 -0.11752778848E+02  0.63648258905E+03  0.63692073847E+03  0.00000000000E+00 0.  1.
         -2    1    1    2    0  502 -0.20489341553E+02  0.11752778848E+02  0.16507915788E+03  0.16676051479E+03  0.00000000000E+00 0.  1.
<mgrwt>
<rscale>  2 0.23620773E+02</rscale>
<asrwt>0</asrwt>
<pdfrwt beam="1">  1        2 0.12347975E+00 0.23620773E+02</pdfrwt>
<pdfrwt beam="2">  1       -2 0.16303959E-03 0.23620773E+02</pdfrwt>
<totfact> 0.61402953E+05</totfact>
</mgrwt>
</event>
<event>
 4    1  0.1429937E+004  0.2553880E+02  0.7546771E-02  0.1653381E+00
          2   -1    0    0  501    0  0.00000000000E+00  0.00000000000E+00  0.85349876255E+02  0.85349876255E+02  0.00000000000E+00 0.  1.
         -2   -1    0    0    0  501 -0.00000000000E+00 -0.00000000000E+00 -0.27200719905E+02  0.27200719905E+02  0.00000000000E+00 0.  1.
          2    1    1    2  502    0 -0.41367798936E+01 -0.25201532427E+02  0.76794484632E+02  0.80929741470E+02  0.00000000000E+00 0.  1.
         -2    1    1    2    0  502  0.41367798936E+01  0.25201532427E+02 -0.18645328282E+02  0.31620854690E+02  0.00000000000E+00 0.  1.
<mgrwt>
<rscale>  2 0.25538798E+02</rscale>
<asrwt>0</asrwt>
<pdfrwt beam="1">  1        2 0.13130750E-01 0.25538798E+02</pdfrwt>
<pdfrwt beam="2">  1       -2 0.41847262E-02 0.25538798E+02</pdfrwt>
<totfact> 0.78147776E+04</totfact>
</mgrwt>
</event>
<event>
 4    1  0.1429937E+004  0.6398230E+02  0.7546771E-02  0.1381841E+00
         -2   -1    0    0    0  501 -0.00000000000E+00  0.00000000000E+00  0.48861915308E+01  0.48861915308E+01  0.00000000000E+00 0. -1.
          2   -1    0    0  501    0  0.00000000000E+00 -0.00000000000E+00 -0.18620765978E+04  0.18620765978E+04  0.00000000000E+00 0. -1.
          2    1    1    2  502    0  0.21413194921E+02  0.60292704424E+02 -0.16209231805E+04  0.16221854679E+04  0.00000000000E+00 0. -1.
         -2    1    1    2    0  502 -0.21413194921E+02 -0.60292704424E+02 -0.23626722579E+03  0.24477732147E+03  0.00000000000E+00 0. -1.
<mgrwt>
<rscale>  2 0.63982303E+02</rscale>
<asrwt>0</asrwt>
<pdfrwt beam="2">  1        2 0.28647290E+00 0.63982303E+02</pdfrwt>
<pdfrwt beam="1">  1       -2 0.75172290E-03 0.63982303E+02</pdfrwt>
<totfact> 0.25915102E+04</totfact>
</mgrwt>
</event>
<event>
 4    1  0.1429937E+004  0.2846545E+02  0.7546771E-02  0.1615698E+00
          2   -1    0    0  501    0  0.00000000000E+00  0.00000000000E+00  0.15513921650E+01  0.15513921650E+01  0.00000000000E+00 0.  1.
         -2   -1    0    0    0  501 -0.00000000000E+00 -0.00000000000E+00 -0.54884910537E+03  0.54884910537E+03  0.00000000000E+00 0. -1.
          2    1    1    2  502    0  0.24123637526E+02  0.15110663033E+02 -0.21311469317E+03  0.21500733585E+03  0.00000000000E+00 0.  1.
         -2    1    1    2    0  502 -0.24123637526E+02 -0.15110663033E+02 -0.33418302004E+03  0.33539316169E+03  0.00000000000E+00 0. -1.
<mgrwt>
<rscale>  2 0.28465453E+02</rscale>
<asrwt>0</asrwt>
<pdfrwt beam="1">  1        2 0.23867560E-03 0.28465453E+02</pdfrwt>
<pdfrwt beam="2">  1       -2 0.84438365E-01 0.28465453E+02</pdfrwt>
<totfact> 0.87759451E+04</totfact>
</mgrwt>
</event>
<event>
 4    1  0.1429937E+004  0.3660475E+02  0.7546771E-02  0.1534795E+00
          2   -1    0    0  501    0  0.00000000000E+00  0.00000000000E+00  0.11205351678E+04  0.11205351678E+04  0.00000000000E+00 0. -1.
         -2   -1    0    0    0  501 -0.00000000000E+00 -0.00000000000E+00 -0.35978799712E+02  0.35978799712E+02  0.00000000000E+00 0. -1.
          2    1    1    2  502    0  0.32326010707E+02 -0.17173715212E+02  0.11108446304E+04  0.11114475698E+04  0.00000000000E+00 0. -1.
         -2    1    1    2    0  502 -0.32326010707E+02  0.17173715212E+02 -0.26288262364E+02  0.45066397688E+02  0.00000000000E+00 0. -1.
<mgrwt>
<rscale>  2 0.36604746E+02</rscale>
<asrwt>0</asrwt>
<pdfrwt beam="1">  1        2 0.17239000E+00 0.36604746E+02</pdfrwt>
<pdfrwt beam="2">  1       -2 0.55352008E-02 0.36604746E+02</pdfrwt>
<totfact> 0.34761448E+03</totfact>
</mgrwt>
</event>
<event>
 4    1  0.1429937E+004  0.2560885E+02  0.7546771E-02  0.1652408E+00
         -2   -1    0    0    0  501 -0.00000000000E+00  0.00000000000E+00  0.75662647668E+00  0.75662647668E+00  0.00000000000E+00 0.  1.
          2   -1    0    0  501    0  0.00000000000E+00 -0.00000000000E+00 -0.12018544702E+04  0.12018544702E+04  0.00000000000E+00 0.  1.
          2    1    1    2  502    0  0.25205143814E+02 -0.45292358443E+01 -0.91805582211E+03  0.91841292769E+03  0.00000000000E+00 0.  1.
         -2    1    1    2    0  502 -0.25205143814E+02  0.45292358443E+01 -0.28304202158E+03  0.28419816895E+03  0.00000000000E+00 0.  1.
<mgrwt>
<rscale>  2 0.25608851E+02</rscale>
<asrwt>0</asrwt>
<pdfrwt beam="2">  1        2 0.18489973E+00 0.25608851E+02</pdfrwt>
<pdfrwt beam="1">  1       -2 0.11640468E-03 0.25608851E+02</pdfrwt>
<totfact> 0.59190377E+05</totfact>
</mgrwt>
</event>
<event>
 4    1  0.1429937E+004  0.2391587E+02  0.7546771E-02  0.1677080E+00
          2   -1    0    0  501    0  0.00000000000E+00  0.00000000000E+00  0.13250796010E+03  0.13250796010E+03  0.00000000000E+00 0.  1.
         -2   -1    0    0    0  501 -0.00000000000E+00 -0.00000000000E+00 -0.58700168122E+02  0.58700168122E+02  0.00000000000E+00 0.  1.
          2    1    1    2  502    0  0.17932989872E+02  0.15823296792E+02  0.12892575096E+03  0.13112520012E+03  0.00000000000E+00 0.  1.
         -2    1    1    2    0  502 -0.17932989872E+02 -0.15823296792E+02 -0.55117958979E+02  0.60082928100E+02  0.00000000000E+00 0.  1.
<mgrwt>
<rscale>  2 0.23915870E+02</rscale>
<asrwt>0</asrwt>
<pdfrwt beam="1">  1        2 0.20385840E-01 0.23915870E+02</pdfrwt>
<pdfrwt beam="2">  1       -2 0.90307951E-02 0.23915870E+02</pdfrwt>
<totfact> 0.15748261E+04</totfact>
</mgrwt>
</event>
<event>
 4    1  0.1429937E+004  0.2301964E+02  0.7546771E-02  0.1691192E+00
          2   -1    0    0  501    0  0.00000000000E+00  0.00000000000E+00  0.71326741252E+03  0.71326741252E+03  0.00000000000E+00 0.  1.
         -2   -1    0    0    0  501 -0.00000000000E+00 -0.00000000000E+00 -0.17700940955E+01  0.17700940955E+01  0.00000000000E+00 0. -1.
          2    1    1    2  502    0  0.10377297527E+02  0.20547884742E+02  0.62809510870E+03  0.62851680125E+03  0.00000000000E+00 0.  1.
         -2    1    1    2    0  502 -0.10377297527E+02 -0.20547884742E+02  0.83402209726E+02  0.86520705374E+02  0.00000000000E+00 0. -1.
<mgrwt>
<rscale>  2 0.23019641E+02</rscale>
<asrwt>0</asrwt>
<pdfrwt beam="1">  1        2 0.10973322E+00 0.23019641E+02</pdfrwt>
<pdfrwt beam="2">  1       -2 0.27232274E-03 0.23019641E+02</pdfrwt>
<totfact> 0.35199580E+05</totfact>
</mgrwt>
</event>
<event>
 4    1  0.1429937E+004  0.2821461E+02  0.7546771E-02  0.1618706E+00
         -2   -1    0    0    0  501 -0.00000000000E+00  0.00000000000E+00  0.44272517488E+00  0.44272517488E+00  0.00000000000E+00 0. -1.
          2   -1    0    0  501    0  0.00000000000E+00 -0.00000000000E+00 -0.19576966749E+04  0.19576966749E+04  0.00000000000E+00 0. -1.
          2    1    1    2  502    0 -0.20556105013E+02  0.19326428345E+02 -0.12581723879E+04  0.12584887056E+04  0.00000000000E+00 0. -1.
         -2    1    1    2    0  502  0.20556105013E+02 -0.19326428345E+02 -0.69908156181E+03  0.69965069452E+03  0.00000000000E+00 0. -1.
<mgrwt>
<rscale>  2 0.28214611E+02</rscale>
<asrwt>0</asrwt>
<pdfrwt beam="2">  1        2 0.30118527E+00 0.28214611E+02</pdfrwt>
<pdfrwt beam="1">  1       -2 0.68111301E-04 0.28214611E+02</pdfrwt>
<totfact> 0.53626741E+05</totfact>
</mgrwt>
</event>
<event>
 4    1  0.1429937E+004  0.3232649E+02  0.7546771E-02  0.1573710E+00
         -2   -1    0    0    0  501 -0.00000000000E+00  0.00000000000E+00  0.11621024642E+02  0.11621024642E+02  0.00000000000E+00 0. -1.
          2   -1    0    0  501    0  0.00000000000E+00 -0.00000000000E+00 -0.23371477053E+03  0.23371477053E+03  0.00000000000E+00 0. -1.
          2    1    1    2  502    0 -0.32324143140E+02 -0.38976577372E+00 -0.20726441103E+03  0.20977020338E+03  0.00000000000E+00 0. -1.
         -2    1    1    2    0  502  0.32324143140E+02  0.38976577372E+00 -0.14829334858E+02  0.35565591791E+02  0.00000000000E+00 0. -1.
<mgrwt>
<rscale>  2 0.32326493E+02</rscale>
<asrwt>0</asrwt>
<pdfrwt beam="2">  1        2 0.35956116E-01 0.32326493E+02</pdfrwt>
<pdfrwt beam="1">  1       -2 0.17878501E-02 0.32326493E+02</pdfrwt>
<totfact> 0.92686386E+04</totfact>
</mgrwt>
</event>
<event>
 4    1  0.1429937E+004  0.3691679E+02  0.7546771E-02  0.1532209E+00
          2   -1    0    0  501    0  0.00000000000E+00  0.00000000000E+00  0.13448645697E+04  0.13448645697E+04  0.00000000000E+00 0.  1.
         -2   -1    0    0    0  501 -0.00000000000E+00 -0.00000000000E+00 -0.57877156817E+02  0.57877156817E+02  0.00000000000E+00 0.  1.
          2    1    1    2  502    0 -0.33874024220E+02  0.14676511524E+02  0.13386972920E+04  0.13392062160E+04  0.00000000000E+00 0.  1.
         -2    1    1    2    0  502  0.33874024220E+02 -0.14676511524E+02 -0.51709879049E+02  0.63535510533E+02  0.00000000000E+00 0.  1.
<mgrwt>
<rscale>  2 0.36916792E+02</rscale>
<asrwt>0</asrwt>
<pdfrwt beam="1">  1        2 0.20690222E+00 0.36916792E+02</pdfrwt>
<pdfrwt beam="2">  1       -2 0.89041790E-02 0.36916792E+02</pdfrwt>
<totfact> 0.13236408E+03</totfact>
</mgrwt>
</event>
<event>
 4    1  0.1429937E+004  0.2124983E+02  0.7546771E-02  0.1721558E+00
         -2   -1    0    0    0  501 -0.00000000000E+00  0.00000000000E+00  0.14207976789E+02  0.14207976789E+02  0.00000000000E+00 0.  1.
          2   -1    0    0  501    0  0.00000000000E+00 -0.00000000000E+00 -0.60154634330E+03  0.60154634330E+03  0.00000000000E+00 0. -1.
          2    1    1    2  502    0 -0.70660267634E+01  0.20040621282E+02 -0.59330286570E+03  0.59368328735E+03  0.00000000000E+00 0. -1.
         -2    1    1    2    0  502  0.70660267634E+01 -0.20040621282E+02  0.59644991856E+01  0.22071032738E+02  0.00000000000E+00 0.  1.
<mgrwt>
<rscale>  2 0.21249829E+02</rscale>
<asrwt>0</asrwt>
<pdfrwt beam="2">  1        2 0.92545593E-01 0.21249829E+02</pdfrwt>
<pdfrwt beam="1">  1       -2 0.21858425E-02 0.21249829E+02</pdfrwt>
<totfact> 0.25078019E+04</totfact>
</mgrwt>
</event>
<event>
 4    1  0.1429937E+004  0.2254326E+02  0.7546771E-02  0.1699023E+00
         -2   -1    0    0    0  501 -0.00000000000E+00  0.00000000000E+00  0.90295353934E+01  0.90295353934E+01  0.00000000000E+00 0.  1.
          2   -1    0    0  501    0  0.00000000000E+00 -0.00000000000E+00 -0.44622134421E+03  0.44622134421E+03  0.00000000000E+00 0.  1.
          2    1    1    2  502    0 -0.20595239134E+02  0.91670348864E+01 -0.43138250376E+03  0.43197113672E+03  0.00000000000E+00 0.  1.
         -2    1    1    2    0  502  0.20595239134E+02 -0.91670348864E+01 -0.58093050516E+01  0.23279742885E+02  0.00000000000E+00 0.  1.
<mgrwt>
<rscale>  2 0.22543256E+02</rscale>
<asrwt>0</asrwt>
<pdfrwt beam="2">  1        2 0.68649436E-01 0.22543256E+02</pdfrwt>
<pdfrwt beam="1">  1       -2 0.13891593E-02 0.22543256E+02</pdfrwt>
<totfact> 0.63757491E+04</totfact>
</mgrwt>
</event>
<event>
 4    1  0.1429937E+004  0.2750478E+02  0.7546771E-02  0.1627430E+00
         -2   -1    0    0    0  501 -0.00000000000E+00  0.00000000000E+00  0.18810990370E+01  0.18810990370E+01  0.00000000000E+00 0. -1.
          2   -1    0    0  501    0  0.00000000000E+00 -0.00000000000E+00 -0.13453913404E+04  0.13453913404E+04  0.00000000000E+00 0. -1.
          2    1    1    2  502    0  0.24565074440E+02 -0.12372139376E+02 -0.12357939629E+04  0.12361000086E+04  0.00000000000E+00 0. -1.
         -2    1    1    2    0  502 -0.24565074440E+02  0.12372139376E+02 -0.10771627848E+03  0.11117243078E+03  0.00000000000E+00 0. -1.
<mgrwt>
<rscale>  2 0.27504776E+02</rscale>
<asrwt>0</asrwt>
<pdfrwt beam="2">  1        2 0.20698352E+00 0.27504776E+02</pdfrwt>
<pdfrwt beam="1">  1       -2 0.28939951E-03 0.27504776E+02</pdfrwt>
<totfact> 0.15193562E+05</totfact>
</mgrwt>
</event>
<event>
 4    1  0.1429937E+004  0.2204117E+02  0.7546771E-02  0.1707541E+00
         -2   -1    0    0    0  501 -0.00000000000E+00  0.00000000000E+00  0.23021546970E+01  0.23021546970E+01  0.00000000000E+00 0. -1.
          2   -1    0    0  501    0  0.00000000000E+00 -0.00000000000E+00 -0.49393033215E+03  0.49393033215E+03  0.00000000000E+00 0.  1.
          2    1    1    2  502    0  0.21791392533E+02  0.33088595363E+01 -0.43359114802E+03  0.43415100712E+03  0.00000000000E+00 0.  1.
         -2    1    1    2    0  502 -0.21791392533E+02 -0.33088595363E+01 -0.58037029433E+02  0.62081479729E+02  0.00000000000E+00 0. -1.
<mgrwt>
<rscale>  2 0.22041174E+02</rscale>
<asrwt>0</asrwt>
<pdfrwt beam="2">  1        2 0.75989384E-01 0.22041174E+02</pdfrwt>
<pdfrwt beam="1">  1       -2 0.35417717E-03 0.22041174E+02</pdfrwt>
<totfact> 0.35953462E+05</totfact>
</mgrwt>
</event>
<event>
 4    1  0.1429937E+004  0.3135705E+02  0.7546771E-02  0.1583555E+00
          2   -1    0    0  501    0  0.00000000000E+00  0.00000000000E+00  0.38086223449E+02  0.38086223449E+02  0.00000000000E+00 0. -1.
         -2   -1    0    0    0  501 -0.00000000000E+00 -0.00000000000E+00 -0.34960878410E+02  0.34960878410E+02  0.00000000000E+00 0. -1.
          2    1    1    2  502    0  0.12243604152E+02  0.28867951782E+02  0.20241592170E+02  0.37322734845E+02  0.00000000000E+00 0. -1.
         -2    1    1    2    0  502 -0.12243604152E+02 -0.28867951782E+02 -0.17116247131E+02  0.35724367014E+02  0.00000000000E+00 0. -1.
<mgrwt>
<rscale>  2 0.31357048E+02</rscale>
<asrwt>0</asrwt>
<pdfrwt beam="1">  1        2 0.58594190E-02 0.31357048E+02</pdfrwt>
<pdfrwt beam="2">  1       -2 0.53785967E-02 0.31357048E+02</pdfrwt>
<totfact> 0.14792327E+05</totfact>
</mgrwt>
</event>
<event>
 4    1  0.1429937E+004  0.3517019E+02  0.7546771E-02  0.1547094E+00
          2   -1    0    0  501    0  0.00000000000E+00  0.00000000000E+00  0.73369177965E+01  0.73369177965E+01  0.00000000000E+00 0. -1.
         -2   -1    0    0    0  501 -0.00000000000E+00 -0.00000000000E+00 -0.19754581880E+03  0.19754581880E+03  0.00000000000E+00 0.  1.
          2    1    1    2  502    0 -0.34658635659E+02  0.59766202274E+01 -0.13432368464E+03  0.13885169523E+03  0.00000000000E+00 0. -1.
         -2    1    1    2    0  502  0.34658635659E+02 -0.59766202274E+01 -0.55885216368E+02  0.66031041364E+02  0.00000000000E+00 0.  1.
<mgrwt>
<rscale>  2 0.35170190E+02</rscale>
<asrwt>0</asrwt>
<pdfrwt beam="1">  1        2 0.11287569E-02 0.35170190E+02</pdfrwt>
<pdfrwt beam="2">  1       -2 0.30391657E-01 0.35170190E+02</pdfrwt>
<totfact> 0.84477227E+04</totfact>
</mgrwt>
</event>
<event>
 4    1  0.1429937E+004  0.3514593E+02  0.7546771E-02  0.1547308E+00
          2   -1    0    0  501    0  0.00000000000E+00  0.00000000000E+00  0.49677657250E+03  0.49677657250E+03  0.00000000000E+00 0. -1.
         -2   -1    0    0    0  501 -0.00000000000E+00 -0.00000000000E+00 -0.46169560251E+01  0.46169560251E+01  0.00000000000E+00 0.  1.
          2    1    1    2  502    0  0.35122607709E+02 -0.12801540671E+01  0.41637675261E+03  0.41785743560E+03  0.00000000000E+00 0. -1.
         -2    1    1    2    0  502 -0.35122607709E+02  0.12801540671E+01  0.75782863863E+02  0.83536092930E+02  0.00000000000E+00 0.  1.
<mgrwt>
<rscale>  2 0.35145930E+02</rscale>
<asrwt>0</asrwt>
<pdfrwt beam="1">  1        2 0.76427123E-01 0.35145930E+02</pdfrwt>
<pdfrwt beam="2">  1       -2 0.71030132E-03 0.35145930E+02</pdfrwt>
<totfact> 0.15684169E+05</totfact>
</mgrwt>
</event>
<event>
 4    1  0.1429937E+004  0.5190410E+02  0.7546771E-02  0.1435334E+00
          2   -1    0    0  501    0  0.00000000000E+00  0.00000000000E+00  0.15987424965E+04  0.15987424965E+04  0.00000000000E+00 0. -1.
         -2   -1    0    0    0  501 -0.00000000000E+00 -0.00000000000E+00 -0.74562933890E+02  0.74562933890E+02  0.00000000000E+00 0. -1.
          2    1    1    2  502    0 -0.30548472729E+02 -0.41962206461E+02  0.15892344369E+04  0.15900818002E+04  0.00000000000E+00 0. -1.
         -2    1    1    2    0  502  0.30548472729E+02  0.41962206461E+02 -0.65054874265E+02  0.83223630195E+02  0.00000000000E+00 0. -1.
<mgrwt>
<rscale>  2 0.51904103E+02</rscale>
<asrwt>0</asrwt>
<pdfrwt beam="1">  1        2 0.24596036E+00 0.51904103E+02</pdfrwt>
<pdfrwt beam="2">  1       -2 0.11471222E-01 0.51904103E+02</pdfrwt>
<totfact> 0.67384748E+02</totfact>
</mgrwt>
</event>
<event>
 4    1  0.1429937E+004  0.2495944E+02  0.7546771E-02  0.1661585E+00
          2   -1    0    0  501    0  0.00000000000E+00  0.00000000000E+00  0.72608900842E+03  0.72608900842E+03  0.00000000000E+00 0. -1.
         -2   -1    0    0    0  501 -0.00000000000E+00 -0.00000000000E+00 -0.58430066367E+01  0.58430066367E+01  0.00000000000E+00 0.  1.
          2    1    1    2  502    0  0.36904760940E+01 -0.24685093008E+02  0.69815365439E+03  0.69859966975E+03  0.00000000000E+00 0. -1.
         -2    1    1    2    0  502 -0.36904760940E+01  0.24685093008E+02  0.22092347393E+02  0.33332345311E+02  0.00000000000E+00 0.  1.
<mgrwt>
<rscale>  2 0.24959436E+02</rscale>
<asrwt>0</asrwt>
<pdfrwt beam="1">  1        2 0.11170593E+00 0.24959436E+02</pdfrwt>
<pdfrwt beam="2">  1       -2 0.89892467E-03 0.24959436E+02</pdfrwt>
<totfact> 0.70878279E+04</totfact>
</mgrwt>
</event>
<event>
 4    1  0.1429937E+004  0.2030442E+02  0.7546771E-02  0.1739341E+00
          2   -1    0    0  501    0  0.00000000000E+00  0.00000000000E+00  0.45680987017E+03  0.45680987017E+03  0.00000000000E+00 0. -1.
         -2   -1    0    0    0  501 -0.00000000000E+00 -0.00000000000E+00 -0.30421945838E+01  0.30421945838E+01  0.00000000000E+00 0.  1.
          2    1    1    2  502    0 -0.87673832276E+01 -0.18313997726E+02  0.41971217330E+03  0.42020301991E+03  0.00000000000E+00 0. -1.
         -2    1    1    2    0  502  0.87673832276E+01  0.18313997726E+02  0.34055502279E+02  0.39649044841E+02  0.00000000000E+00 0.  1.
<mgrwt>
<rscale>  2 0.20304421E+02</rscale>
<asrwt>0</asrwt>
<pdfrwt beam="1">  1        2 0.70278387E-01 0.20304421E+02</pdfrwt>
<pdfrwt beam="2">  1       -2 0.46803030E-03 0.20304421E+02</pdfrwt>
<totfact> 0.26207392E+05</totfact>
</mgrwt>
</event>
<event>
 4    1  0.1429937E+004  0.3065178E+02  0.7546771E-02  0.1590994E+00
          2   -1    0    0  501    0  0.00000000000E+00  0.00000000000E+00  0.16535736952E+03  0.16535736952E+03  0.00000000000E+00 0. -1.
         -2   -1    0    0    0  501 -0.00000000000E+00 -0.00000000000E+00 -0.60666713346E+01  0.60666713346E+01  0.00000000000E+00 0.  1.
          2    1    1    2  502    0 -0.10684517816E+02  0.28729302259E+02  0.10123322227E+03  0.10577191036E+03  0.00000000000E+00 0. -1.
         -2    1    1    2    0  502  0.10684517816E+02 -0.28729302259E+02  0.58057475912E+02  0.65652130495E+02  0.00000000000E+00 0.  1.
<mgrwt>
<rscale>  2 0.30651782E+02</rscale>
<asrwt>0</asrwt>
<pdfrwt beam="1">  1        2 0.25439592E-01 0.30651782E+02</pdfrwt>
<pdfrwt beam="2">  1       -2 0.93333418E-03 0.30651782E+02</pdfrwt>
<totfact> 0.31923200E+05</totfact>
</mgrwt>
</event>
<event>
 4    1  0.1429937E+004  0.2175153E+02  0.7546771E-02  0.1712585E+00
         -2   -1    0    0    0  501 -0.00000000000E+00  0.00000000000E+00  0.11898992760E+01  0.11898992760E+01  0.00000000000E+00 0. -1.
          2   -1    0    0  501    0  0.00000000000E+00 -0.00000000000E+00 -0.45193741499E+03  0.45193741499E+03  0.00000000000E+00 0.  1.
          2    1    1    2  502    0  0.18560421887E+02 -0.11341940543E+02 -0.30391845365E+03  0.30469584071E+03  0.00000000000E+00 0.  1.
         -2    1    1    2    0  502 -0.18560421887E+02  0.11341940543E+02 -0.14682906206E+03  0.14843147355E+03  0.00000000000E+00 0. -1.
<mgrwt>
<rscale>  2 0.21751526E+02</rscale>
<asrwt>0</asrwt>
<pdfrwt beam="2">  1        2 0.69528806E-01 0.21751526E+02</pdfrwt>
<pdfrwt beam="1">  1       -2 0.18306150E-03 0.21751526E+02</pdfrwt>
<totfact> 0.93915616E+05</totfact>
</mgrwt>
</event>
<event>
 4    1  0.1429937E+004  0.3698259E+02  0.7546771E-02  0.1531668E+00
         -2   -1    0    0    0  501 -0.00000000000E+00  0.00000000000E+00  0.27686955435E+02  0.27686955435E+02  0.00000000000E+00 0.  1.
          2   -1    0    0  501    0  0.00000000000E+00 -0.00000000000E+00 -0.22392743163E+03  0.22392743163E+03  0.00000000000E+00 0.  1.
          2    1    1    2  502    0 -0.13384692779E+02  0.34475523448E+02 -0.20918716276E+03  0.21243112009E+03  0.00000000000E+00 0.  1.
         -2    1    1    2    0  502  0.13384692779E+02 -0.34475523448E+02  0.12946686568E+02  0.39183266975E+02  0.00000000000E+00 0.  1.
<mgrwt>
<rscale>  2 0.36982587E+02</rscale>
<asrwt>0</asrwt>
<pdfrwt beam="2">  1        2 0.34450374E-01 0.36982587E+02</pdfrwt>
<pdfrwt beam="1">  1       -2 0.42595316E-02 0.36982587E+02</pdfrwt>
<totfact> 0.29240999E+04</totfact>
</mgrwt>
</event>
<event>
 4    1  0.1429937E+004  0.2159910E+02  0.7546771E-02  0.1715279E+00
          2   -1    0    0  501    0  0.00000000000E+00  0.00000000000E+00  0.97917457680E+03  0.97917457680E+03  0.00000000000E+00 0. -1.
         -2   -1    0    0    0  501 -0.00000000000E+00 -0.00000000000E+00 -0.50194589270E+02  0.50194589270E+02  0.00000000000E+00 0.  1.
          2    1    1    2  502    0  0.21587430669E+02 -0.71004031448E+00  0.97672607805E+03  0.97696486777E+03  0.00000000000E+00 0. -1.
         -2    1    1    2    0  502 -0.21587430669E+02  0.71004031448E+00 -0.47746090519E+02  0.52404298297E+02  0.00000000000E+00 0.  1.
<mgrwt>
<rscale>  2 0.21599105E+02</rscale>
<asrwt>0</asrwt>
<pdfrwt beam="1">  1        2 0.15064223E+00 0.21599105E+02</pdfrwt>
<pdfrwt beam="2">  1       -2 0.77222453E-02 0.21599105E+02</pdfrwt>
<totfact> 0.24690327E+03</totfact>
</mgrwt>
</event>
<event>
 4    1  0.1429937E+004  0.3923637E+02  0.7546771E-02  0.1513907E+00
         -2   -1    0    0    0  501 -0.00000000000E+00  0.00000000000E+00  0.62820318580E+01  0.62820318580E+01  0.00000000000E+00 0. -1.
          2   -1    0    0  501    0  0.00000000000E+00 -0.00000000000E+00 -0.41223360103E+03  0.41223360103E+03  0.00000000000E+00 0. -1.
          2    1    1    2  502    0 -0.34782858939E+02  0.18156148196E+02 -0.33623279541E+03  0.33851438034E+03  0.00000000000E+00 0. -1.
         -2    1    1    2    0  502  0.34782858939E+02 -0.18156148196E+02 -0.69718773771E+02  0.80001252549E+02  0.00000000000E+00 0. -1.
<mgrwt>
<rscale>  2 0.39236373E+02</rscale>
<asrwt>0</asrwt>
<pdfrwt beam="2">  1        2 0.63420582E-01 0.39236373E+02</pdfrwt>
<pdfrwt beam="1">  1       -2 0.96646601E-03 0.39236373E+02</pdfrwt>
<totfact> 0.12728104E+05</totfact>
</mgrwt>
</event>
<event>
 4    1  0.1429937E+004  0.2889701E+02  0.7546771E-02  0.1610611E+00
          2   -1    0    0  501    0  0.00000000000E+00  0.00000000000E+00  0.50457148367E+03  0.50457148367E+03  0.00000000000E+00 0. -1.
         -2   -1    0    0    0  501 -0.00000000000E+00 -0.00000000000E+00 -0.16663998403E+01  0.16663998403E+01  0.00000000000E+00 0.  1.
          2    1    1    2  502    0 -0.11635974618E+02  0.26450713642E+02  0.23046310432E+03  0.23226768740E+03  0.00000000000E+00 0. -1.
         -2    1    1    2    0  502  0.11635974618E+02 -0.26450713642E+02  0.27244197952E+03  0.27397019612E+03  0.00000000000E+00 0.  1.
<mgrwt>
<rscale>  2 0.28897007E+02</rscale>
<asrwt>0</asrwt>
<pdfrwt beam="1">  1        2 0.77626260E-01 0.28897007E+02</pdfrwt>
<pdfrwt beam="2">  1       -2 0.25636961E-03 0.28897007E+02</pdfrwt>
<totfact> 0.58448193E+05</totfact>
</mgrwt>
</event>
<event>
 4    1  0.1429937E+004  0.5257206E+02  0.7546771E-02  0.1431943E+00
          2   -1    0    0  501    0  0.00000000000E+00  0.00000000000E+00  0.88526908457E+03  0.88526908457E+03  0.00000000000E+00 0.  1.
         -2   -1    0    0    0  501 -0.00000000000E+00 -0.00000000000E+00 -0.12500644157E+02  0.12500644157E+02  0.00000000000E+00 0.  1.
          2    1    1    2  502    0  0.26311388552E+02 -0.45514086202E+02  0.82519518480E+03  0.82686813594E+03  0.00000000000E+00 0.  1.
         -2    1    1    2    0  502 -0.26311388552E+02  0.45514086202E+02  0.47573255609E+02  0.70901592786E+02  0.00000000000E+00 0.  1.
<mgrwt>
<rscale>  2 0.52572057E+02</rscale>
<asrwt>0</asrwt>
<pdfrwt beam="1">  1        2 0.13619519E+00 0.52572057E+02</pdfrwt>
<pdfrwt beam="2">  1       -2 0.19231767E-02 0.52572057E+02</pdfrwt>
<totfact> 0.22038036E+04</totfact>
</mgrwt>
</event>
<event>
 4    1  0.1429937E+004  0.2754575E+02  0.7546771E-02  0.1626917E+00
         -2   -1    0    0    0  501 -0.00000000000E+00  0.00000000000E+00  0.11111915903E+03  0.11111915903E+03  0.00000000000E+00 0.  1.
          2   -1    0    0  501    0  0.00000000000E+00 -0.00000000000E+00 -0.69372877092E+02  0.69372877092E+02  0.00000000000E+00 0. -1.
          2    1    1    2  502    0 -0.14607356516E+01 -0.27506996175E+02 -0.64816357225E+02  0.70426761612E+02  0.00000000000E+00 0. -1.
         -2    1    1    2    0  502  0.14607356516E+01  0.27506996175E+02  0.10656263917E+03  0.11006527451E+03  0.00000000000E+00 0.  1.
<mgrwt>
<rscale>  2 0.27545754E+02</rscale>
<asrwt>0</asrwt>
<pdfrwt beam="2">  1        2 0.10672750E-01 0.27545754E+02</pdfrwt>
<pdfrwt beam="1">  1       -2 0.17095255E-01 0.27545754E+02</pdfrwt>
<totfact> 0.12419851E+04</totfact>
</mgrwt>
</event>
<event>
 4    1  0.1429937E+004  0.2037428E+02  0.7546771E-02  0.1737986E+00
         -2   -1    0    0    0  501 -0.00000000000E+00  0.00000000000E+00  0.26351875262E+02  0.26351875262E+02  0.00000000000E+00 0. -1.
          2   -1    0    0  501    0  0.00000000000E+00 -0.00000000000E+00 -0.52226776852E+02  0.52226776852E+02  0.00000000000E+00 0.  1.
          2    1    1    2  502    0  0.62387785804E+01 -0.19395591592E+02 -0.45771204822E+02  0.50101043126E+02  0.00000000000E+00 0.  1.
         -2    1    1    2    0  502 -0.62387785804E+01  0.19395591592E+02  0.19896303233E+02  0.28477608989E+02  0.00000000000E+00 0. -1.
<mgrwt>
<rscale>  2 0.20374281E+02</rscale>
<asrwt>0</asrwt>
<pdfrwt beam="2">  1        2 0.80348887E-02 0.20374281E+02</pdfrwt>
<pdfrwt beam="1">  1       -2 0.40541347E-02 0.20374281E+02</pdfrwt>
<totfact> 0.13559267E+05</totfact>
</mgrwt>
</event>
<event>
 4    1  0.1429937E+004  0.2595003E+02  0.7546771E-02  0.1647720E+00
          2   -1    0    0  501    0  0.00000000000E+00  0.00000000000E+00  0.85186334256E+03  0.85186334256E+03  0.00000000000E+00 0. -1.
         -2   -1    0    0    0  501 -0.00000000000E+00 -0.00000000000E+00 -0.10345548651E+01  0.10345548651E+01  0.00000000000E+00 0. -1.
          2    1    1    2  502    0 -0.13711317730E+02 -0.22031880551E+02  0.63253710829E+03  0.63306918844E+03  0.00000000000E+00 0. -1.
         -2    1    1    2    0  502  0.13711317730E+02  0.22031880551E+02  0.21829167941E+03  0.21982870898E+03  0.00000000000E+00 0. -1.
<mgrwt>
<rscale>  2 0.25950029E+02</rscale>
<asrwt>0</asrwt>
<pdfrwt beam="1">  1        2 0.13105534E+00 0.25950029E+02</pdfrwt>
<pdfrwt beam="2">  1       -2 0.15916297E-03 0.25950029E+02</pdfrwt>
<totfact> 0.60774544E+05</totfact>
</mgrwt>
</event>
<event>
 4    1  0.1429937E+004  0.2551217E+02  0.7546771E-02  0.1653753E+00
         -2   -1    0    0    0  501 -0.00000000000E+00  0.00000000000E+00  0.33992209129E+02  0.33992209129E+02  0.00000000000E+00 0. -1.
          2   -1    0    0  501    0  0.00000000000E+00 -0.00000000000E+00 -0.21247827825E+02  0.21247827825E+02  0.00000000000E+00 0.  1.
          2    1    1    2  502    0 -0.11181680700E+02  0.22931220494E+02 -0.23113118176E+01  0.25616655108E+02  0.00000000000E+00 0.  1.
         -2    1    1    2    0  502  0.11181680700E+02 -0.22931220494E+02  0.15055693122E+02  0.29623381846E+02  0.00000000000E+00 0. -1.
<mgrwt>
<rscale>  2 0.25512171E+02</rscale>
<asrwt>0</asrwt>
<pdfrwt beam="2">  1        2 0.32688966E-02 0.25512171E+02</pdfrwt>
<pdfrwt beam="1">  1       -2 0.52295707E-02 0.25512171E+02</pdfrwt>
<totfact> 0.30159180E+05</totfact>
</mgrwt>
</event>
<event>
 4    1  0.1429937E+004  0.2559541E+02  0.7546771E-02  0.1652594E+00
          2   -1    0    0  501    0  0.00000000000E+00  0.00000000000E+00  0.35650902215E+03  0.35650902215E+03  0.00000000000E+00 0. -1.
         -2   -1    0    0    0  501 -0.00000000000E+00 -0.00000000000E+00 -0.74285328166E+01  0.74285328166E+01  0.00000000000E+00 0. -1.
          2    1    1    2  502    0 -0.20148836735E+01  0.25515977561E+02  0.33240568578E+03  0.33338965912E+03  0.00000000000E+00 0. -1.
         -2    1    1    2    0  502  0.20148836735E+01 -0.25515977561E+02  0.16674803546E+02  0.30547895842E+02  0.00000000000E+00 0. -1.
<mgrwt>
<rscale>  2 0.25595407E+02</rscale>
<asrwt>0</asrwt>
<pdfrwt beam="1">  1        2 0.54847529E-01 0.25595407E+02</pdfrwt>
<pdfrwt beam="2">  1       -2 0.11428515E-02 0.25595407E+02</pdfrwt>
<totfact> 0.10682281E+05</totfact>
</mgrwt>
</event>
<event>
 4    1  0.1429937E+004  0.3990165E+02  0.7546771E-02  0.1508936E+00
          2   -1    0    0  501    0  0.00000000000E+00  0.00000000000E+00  0.53932026871E+03  0.53932026871E+03  0.00000000000E+00 0. -1.
         -2   -1    0    0    0  501 -0.00000000000E+00 -0.00000000000E+00 -0.13984036073E+02  0.13984036073E+02  0.00000000000E+00 0.  1.
          2    1    1    2  502    0  0.16871469234E+02  0.36159299767E+02  0.50838960651E+03  0.50995306984E+03  0.00000000000E+00 0. -1.
         -2    1    1    2    0  502 -0.16871469234E+02 -0.36159299767E+02  0.16946626123E+02  0.43351234938E+02  0.00000000000E+00 0.  1.
<mgrwt>
<rscale>  2 0.39901647E+02</rscale>
<asrwt>0</asrwt>
<pdfrwt beam="1">  1        2 0.82972333E-01 0.39901647E+02</pdfrwt>
<pdfrwt beam="2">  1       -2 0.21513906E-02 0.39901647E+02</pdfrwt>
<totfact> 0.31803752E+04</totfact>
</mgrwt>
</event>
<event>
 4    1  0.1429937E+004  0.2530589E+02  0.7546771E-02  0.1656647E+00
          2   -1    0    0  501    0  0.00000000000E+00  0.00000000000E+00  0.26820596351E+01  0.26820596351E+01  0.00000000000E+00 0.  1.
         -2   -1    0    0    0  501 -0.00000000000E+00 -0.00000000000E+00 -0.47327325787E+03  0.47327325787E+03  0.00000000000E+00 0. -1.
          2    1    1    2  502    0  0.17385967671E+02  0.18387935151E+02 -0.67779256672E+02  0.72349261683E+02  0.00000000000E+00 0.  1.
         -2    1    1    2    0  502 -0.17385967671E+02 -0.18387935151E+02 -0.40281194157E+03  0.40360605583E+03  0.00000000000E+00 0. -1.
<mgrwt>
<rscale>  2 0.25305889E+02</rscale>
<asrwt>0</asrwt>
<pdfrwt beam="1">  1        2 0.41262516E-03 0.25305889E+02</pdfrwt>
<pdfrwt beam="2">  1       -2 0.72811164E-01 0.25305889E+02</pdfrwt>
<totfact> 0.56300151E+04</totfact>
</mgrwt>
</event>
<event>
 4    1  0.1429937E+004  0.2259277E+02  0.7546771E-02  0.1698198E+00
          2   -1    0    0  501    0  0.00000000000E+00  0.00000000000E+00  0.34476478376E+03  0.34476478376E+03  0.00000000000E+00 0.  1.
         -2   -1    0    0    0  501 -0.00000000000E+00 -0.00000000000E+00 -0.24008467895E+01  0.24008467895E+01  0.00000000000E+00 0.  1.
          2    1    1    2  502    0  0.26223743281E+01  0.22440061279E+02  0.27865367393E+03  0.27956806540E+03  0.00000000000E+00 0.  1.
         -2    1    1    2    0  502 -0.26223743281E+01 -0.22440061279E+02  0.63710263040E+02  0.67597565148E+02  0.00000000000E+00 0.  1.
<mgrwt>
<rscale>  2 0.22592769E+02</rscale>
<asrwt>0</asrwt>
<pdfrwt beam="1">  1        2 0.53040697E-01 0.22592769E+02</pdfrwt>
<pdfrwt beam="2">  1       -2 0.36936132E-03 0.22592769E+02</pdfrwt>
<totfact> 0.48900290E+05</totfact>
</mgrwt>
</event>
<event>
 4    1  0.1429937E+004  0.2384350E+02  0.7546771E-02  0.1678191E+00
          2   -1    0    0  501    0  0.00000000000E+00  0.00000000000E+00  0.47016437836E+03  0.47016437836E+03  0.00000000000E+00 0. -1.
         -2   -1    0    0    0  501 -0.00000000000E+00 -0.00000000000E+00 -0.18909040291E+03  0.18909040291E+03  0.00000000000E+00 0. -1.
          2    1    1    2  502    0 -0.23843493960E+02  0.19189157182E-01  0.46910875223E+03  0.46971431104E+03  0.00000000000E+00 0. -1.
         -2    1    1    2    0  502  0.23843493960E+02 -0.19189157182E-01 -0.18803477678E+03  0.18954047022E+03  0.00000000000E+00 0. -1.
<mgrwt>
<rscale>  2 0.23843502E+02</rscale>
<asrwt>0</asrwt>
<pdfrwt beam="1">  1        2 0.72332981E-01 0.23843502E+02</pdfrwt>
<pdfrwt beam="2">  1       -2 0.29090831E-01 0.23843502E+02</pdfrwt>
<totfact> 0.69517661E+02</totfact>
</mgrwt>
</event>
<event>
 4    1  0.1429937E+004  0.3195547E+02  0.7546771E-02  0.1577428E+00
         -2   -1    0    0    0  501 -0.00000000000E+00  0.00000000000E+00  0.13534712836E+03  0.13534712836E+03  0.00000000000E+00 0.  1.
          2   -1    0    0  501    0  0.00000000000E+00 -0.00000000000E+00 -0.12346566230E+03  0.12346566230E+03  0.00000000000E+00 0. -1.
          2    1    1    2  502    0  0.28184401268E+02 -0.15059601090E+02 -0.11944948375E+03  0.12365003530E+03  0.00000000000E+00 0. -1.
         -2    1    1    2    0  502 -0.28184401268E+02  0.15059601090E+02  0.13133094981E+03  0.13516275536E+03  0.00000000000E+00 0.  1.
<mgrwt>
<rscale>  2 0.31955470E+02</rscale>
<asrwt>0</asrwt>
<pdfrwt beam="2">  1        2 0.18994717E-01 0.31955470E+02</pdfrwt>
<pdfrwt beam="1">  1       -2 0.20822635E-01 0.31955470E+02</pdfrwt>
<totfact> 0.48450224E+03</totfact>
</mgrwt>
</event>
<event>
 4    1  0.1429937E+004  0.2384530E+02  0.7546771E-02  0.1678163E+00
         -2   -1    0    0    0  501 -0.00000000000E+00  0.00000000000E+00  0.30419794805E+01  0.30419794805E+01  0.00000000000E+00 0.  1.
          2   -1    0    0  501    0  0.00000000000E+00 -0.00000000000E+00 -0.34101678977E+03  0.34101678977E+03  0.00000000000E+00 0.  1.
          2    1    1    2  502    0  0.22855980014E+02  0.67972409234E+01 -0.28462937666E+03  0.28562647000E+03  0.00000000000E+00 0.  1.
         -2    1    1    2    0  502 -0.22855980014E+02 -0.67972409234E+01 -0.53345433624E+02  0.58432299245E+02  0.00000000000E+00 0.  1.
<mgrwt>
<rscale>  2 0.23845299E+02</rscale>
<asrwt>0</asrwt>
<pdfrwt beam="2">  1        2 0.52464109E-01 0.23845299E+02</pdfrwt>
<pdfrwt beam="1">  1       -2 0.46799695E-03 0.23845299E+02</pdfrwt>
<totfact> 0.36591587E+05</totfact>
</mgrwt>
</event>
<event>
 4    1  0.1429937E+004  0.2068153E+02  0.7546771E-02  0.1732105E+00
          2   -1    0    0  501    0  0.00000000000E+00  0.00000000000E+00  0.23039021850E+04  0.23039021850E+04  0.00000000000E+00 0.  1.
         -2   -1    0    0    0  501 -0.00000000000E+00 -0.00000000000E+00 -0.18577089979E+00  0.18577089979E+00  0.00000000000E+00 0.  1.
          2    1    1    2  502    0  0.16075777863E+02  0.13011348151E+02  0.11809095475E+04  0.11810906338E+04  0.00000000000E+00 0.  1.
         -2    1    1    2    0  502 -0.16075777863E+02 -0.13011348151E+02  0.11228068665E+04  0.11229973220E+04  0.00000000000E+00 0.  1.
<mgrwt>
<rscale>  2 0.20681533E+02</rscale>
<asrwt>0</asrwt>
<pdfrwt beam="1">  1        2 0.35442361E+00 0.20681533E+02</pdfrwt>
<pdfrwt beam="2">  1       -2 0.28581984E-04 0.20681533E+02</pdfrwt>
<totfact> 0.10684602E+06</totfact>
</mgrwt>
</event>
<event>
 4    1  0.1429937E+004  0.5622042E+02  0.7546771E-02  0.1414414E+00
         -2   -1    0    0    0  501 -0.00000000000E+00  0.00000000000E+00  0.81862345400E+01  0.81862345400E+01  0.00000000000E+00 0. -1.
          2   -1    0    0  501    0  0.00000000000E+00 -0.00000000000E+00 -0.42461625166E+03  0.42461625166E+03  0.00000000000E+00 0. -1.
          2    1    1    2  502    0 -0.55857477419E+02 -0.63777030447E+01 -0.14304251184E+03  0.15369415432E+03  0.00000000000E+00 0. -1.
         -2    1    1    2    0  502  0.55857477419E+02  0.63777030447E+01 -0.27338750529E+03  0.27910833188E+03  0.00000000000E+00 0. -1.
<mgrwt>
<rscale>  2 0.56220424E+02</rscale>
<asrwt>0</asrwt>
<pdfrwt beam="2">  1        2 0.65325571E-01 0.56220424E+02</pdfrwt>
<pdfrwt beam="1">  1       -2 0.12594208E-02 0.56220424E+02</pdfrwt>
<totfact> 0.91293688E+04</totfact>
</mgrwt>
</event>
<event>
 4    1  0.1429937E+004  0.2820874E+02  0.7546771E-02  0.1618777E+00
         -2   -1    0    0    0  501 -0.00000000000E+00  0.00000000000E+00  0.13481612277E+03  0.13481612277E+03  0.00000000000E+00 0. -1.
          2   -1    0    0  501    0  0.00000000000E+00 -0.00000000000E+00 -0.19483366597E+02  0.19483366597E+02  0.00000000000E+00 0. -1.
          2    1    1    2  502    0  0.58874712231E+01 -0.27587505491E+02 -0.67458812867E+01  0.29004132308E+02  0.00000000000E+00 0. -1.
         -2    1    1    2    0  502 -0.58874712231E+01  0.27587505491E+02  0.12207863746E+03  0.12529535706E+03  0.00000000000E+00 0. -1.
<mgrwt>
<rscale>  2 0.28208736E+02</rscale>
<asrwt>0</asrwt>
<pdfrwt beam="2">  1        2 0.29974411E-02 0.28208736E+02</pdfrwt>
<pdfrwt beam="1">  1       -2 0.20740941E-01 0.28208736E+02</pdfrwt>
<totfact> 0.42992665E+04</totfact>
</mgrwt>
</event>
<event>
 4    1  0.1429937E+004  0.2381097E+02  0.7546771E-02  0.1678692E+00
         -2   -1    0    0    0  501 -0.00000000000E+00  0.00000000000E+00  0.24980917945E+01  0.24980917945E+01  0.00000000000E+00 0. -1.
          2   -1    0    0  501    0  0.00000000000E+00 -0.00000000000E+00 -0.24836596825E+03  0.24836596825E+03  0.00000000000E+00 0. -1.
          2    1    1    2  502    0  0.90043999607E+01  0.22042759263E+02 -0.15975937889E+03  0.16152405888E+03  0.00000000000E+00 0. -1.
         -2    1    1    2    0  502 -0.90043999607E+01 -0.22042759263E+02 -0.86108497561E+02  0.89340001157E+02  0.00000000000E+00 0. -1.
<mgrwt>
<rscale>  2 0.23810973E+02</rscale>
<asrwt>0</asrwt>
<pdfrwt beam="2">  1        2 0.38210153E-01 0.23810973E+02</pdfrwt>
<pdfrwt beam="1">  1       -2 0.38432178E-03 0.23810973E+02</pdfrwt>
<totfact> 0.65128217E+05</totfact>
</mgrwt>
</event>
<event>
 4    1  0.1429937E+004  0.3063874E+02  0.7546771E-02  0.1591134E+00
          2   -1    0    0  501    0  0.00000000000E+00  0.00000000000E+00  0.18624094713E+03  0.18624094713E+03  0.00000000000E+00 0. -1.
         -2   -1    0    0    0  501 -0.00000000000E+00 -0.00000000000E+00 -0.60954488729E+01  0.60954488729E+01  0.00000000000E+00 0.  1.
          2    1    1    2  502    0 -0.30530335309E+02 -0.25751111538E+01  0.13008203780E+03  0.13364156962E+03  0.00000000000E+00 0. -1.
         -2    1    1    2    0  502  0.30530335309E+02  0.25751111538E+01  0.50063460460E+02  0.58694826389E+02  0.00000000000E+00 0.  1.
<mgrwt>
<rscale>  2 0.30638743E+02</rscale>
<asrwt>0</asrwt>
<pdfrwt beam="1">  1        2 0.28652449E-01 0.30638743E+02</pdfrwt>
<pdfrwt beam="2">  1       -2 0.93776151E-03 0.30638743E+02</pdfrwt>
<totfact> 0.28035207E+05</totfact>
</mgrwt>
</event>
<event>
 4    1  0.1429937E+004  0.2921432E+02  0.7546771E-02  0.1606939E+00
          2   -1    0    0  501    0  0.00000000000E+00  0.00000000000E+00  0.21794195753E+03  0.21794195753E+03  0.00000000000E+00 0.  1.
         -2   -1    0    0    0  501 -0.00000000000E+00 -0.00000000000E+00 -0.36365804171E+02  0.36365804171E+02  0.00000000000E+00 0.  1.
          2    1    1    2  502    0 -0.50748018067E+01 -0.28770177802E+02  0.21090067713E+03  0.21291447193E+03  0.00000000000E+00 0.  1.
         -2    1    1    2    0  502  0.50748018067E+01  0.28770177802E+02 -0.29324523767E+02  0.41393289774E+02  0.00000000000E+00 0.  1.
<mgrwt>
<rscale>  2 0.29214324E+02</rscale>
<asrwt>0</asrwt>
<pdfrwt beam="1">  1        2 0.33529531E-01 0.29214324E+02</pdfrwt>
<pdfrwt beam="2">  1       -2 0.55947393E-02 0.29214324E+02</pdfrwt>
<totfact> 0.19560760E+04</totfact>
</mgrwt>
</event>
<event>
 4    1  0.1429937E+004  0.2341895E+02  0.7546771E-02  0.1684808E+00
          2   -1    0    0  501    0  0.00000000000E+00  0.00000000000E+00  0.70468083343E+03  0.70468083343E+03  0.00000000000E+00 0.  1.
         -2   -1    0    0    0  501 -0.00000000000E+00 -0.00000000000E+00 -0.37964490353E+01  0.37964490353E+01  0.00000000000E+00 0. -1.
          2    1    1    2  502    0 -0.96155940526E+01 -0.21353869017E+02  0.66629014849E+03  0.66670158943E+03  0.00000000000E+00 0.  1.
         -2    1    1    2    0  502  0.96155940526E+01  0.21353869017E+02  0.34594235909E+02  0.41775693042E+02  0.00000000000E+00 0. -1.
<mgrwt>
<rscale>  2 0.23418953E+02</rscale>
<asrwt>0</asrwt>
<pdfrwt beam="1">  1        2 0.10841233E+00 0.23418953E+02</pdfrwt>
<pdfrwt beam="2">  1       -2 0.58406964E-03 0.23418953E+02</pdfrwt>
<totfact> 0.12921244E+05</totfact>
</mgrwt>
</event>
<event>
 4    1  0.1429937E+004  0.3111231E+02  0.7546771E-02  0.1586109E+00
         -2   -1    0    0    0  501 -0.00000000000E+00  0.00000000000E+00  0.81702728362E+00  0.81702728362E+00  0.00000000000E+00 0.  1.
          2   -1    0    0  501    0  0.00000000000E+00 -0.00000000000E+00 -0.25723908737E+04  0.25723908737E+04  0.00000000000E+00 0.  1.
          2    1    1    2  502    0 -0.20109892441E+02  0.23739588489E+02 -0.22307490734E+04  0.22309660249E+04  0.00000000000E+00 0.  1.
         -2    1    1    2    0  502  0.20109892441E+02 -0.23739588489E+02 -0.34082477305E+03  0.34224187610E+03  0.00000000000E+00 0.  1.
<mgrwt>
<rscale>  2 0.31112310E+02</rscale>
<asrwt>0</asrwt>
<pdfrwt beam="2">  1        2 0.39575176E+00 0.31112310E+02</pdfrwt>
<pdfrwt beam="1">  1       -2 0.12569672E-03 0.31112310E+02</pdfrwt>
<totfact> 0.12202896E+05</totfact>
</mgrwt>
</event>
<event>
 4    1  0.1429937E+004  0.2056592E+02  0.7546771E-02  0.1734303E+00
         -2   -1    0    0    0  501 -0.00000000000E+00  0.00000000000E+00  0.72333133895E+02  0.72333133895E+02  0.00000000000E+00 0.  1.
          2   -1    0    0  501    0  0.00000000000E+00 -0.00000000000E+00 -0.10975394160E+03  0.10975394160E+03  0.00000000000E+00 0.  1.
          2    1    1    2  502    0  0.16807938977E+02 -0.11851176412E+02 -0.10729548969E+03  0.10924870389E+03  0.00000000000E+00 0.  1.
         -2    1    1    2    0  502 -0.16807938977E+02  0.11851176412E+02  0.69874681984E+02  0.72838371600E+02  0.00000000000E+00 0.  1.
<mgrwt>
<rscale>  2 0.20565923E+02</rscale>
<asrwt>0</asrwt>
<pdfrwt beam="2">  1        2 0.16885222E-01 0.20565923E+02</pdfrwt>
<pdfrwt beam="1">  1       -2 0.11128175E-01 0.20565923E+02</pdfrwt>
<totfact> 0.13749670E+04</totfact>
</mgrwt>
</event>
<event>
 4    1  0.1477784E+004  0.2845883E+02  0.7546771E-02  0.1615777E+00
         -2   -1    0    0    0  501 -0.00000000000E+00  0.00000000000E+00  0.43519245110E+03  0.43519245110E+03  0.00000000000E+00 0. -1.
          2   -1    0    0  501    0  0.00000000000E+00 -0.00000000000E+00 -0.73860359707E+03  0.73860359707E+03  0.00000000000E+00 0. -1.
          2    1    1    2  502    0 -0.41090736257E+01 -0.28160616078E+02 -0.73786374026E+03  0.73841235362E+03  0.00000000000E+00 0. -1.
         -2    1    1    2    0  502  0.41090736257E+01  0.28160616078E+02  0.43445259430E+03  0.43538369455E+03  0.00000000000E+00 0. -1.
<mgrwt>
<rscale>  2 0.28458826E+02</rscale>
<asrwt>0</asrwt>
<pdfrwt beam="2">  1        2 0.11363132E+00 0.28458826E+02</pdfrwt>
<pdfrwt beam="1">  1       -2 0.66952685E-01 0.28458826E+02</pdfrwt>
<totfact> 0.91657119E+01</totfact>
</mgrwt>
</event>
<event>
 4    1  0.1429937E+004  0.2807449E+02  0.7546771E-02  0.1620403E+00
          2   -1    0    0  501    0  0.00000000000E+00  0.00000000000E+00  0.99172927705E+02  0.99172927705E+02  0.00000000000E+00 0.  1.
         -2   -1    0    0    0  501 -0.00000000000E+00 -0.00000000000E+00 -0.12191743968E+03  0.12191743968E+03  0.00000000000E+00 0.  1.
          2    1    1    2  502    0  0.17887244328E+02  0.21638473648E+02  0.95509126835E+02  0.99549838575E+02  0.00000000000E+00 0.  1.
         -2    1    1    2    0  502 -0.17887244328E+02 -0.21638473648E+02 -0.11825363881E+03  0.12154052881E+03  0.00000000000E+00 0.  1.
<mgrwt>
<rscale>  2 0.28074491E+02</rscale>
<asrwt>0</asrwt>
<pdfrwt beam="1">  1        2 0.15257374E-01 0.28074491E+02</pdfrwt>
<pdfrwt beam="2">  1       -2 0.18756529E-01 0.28074491E+02</pdfrwt>
<totfact> 0.71773608E+03</totfact>
</mgrwt>
</event>
<event>
 4    1  0.1429937E+004  0.2616179E+02  0.7546771E-02  0.1644854E+00
          2   -1    0    0  501    0  0.00000000000E+00  0.00000000000E+00  0.59339025200E+01  0.59339025200E+01  0.00000000000E+00 0.  1.
         -2   -1    0    0    0  501 -0.00000000000E+00 -0.00000000000E+00 -0.16810718835E+03  0.16810718835E+03  0.00000000000E+00 0. -1.
          2    1    1    2  502    0 -0.23002332477E+02 -0.12463226967E+02 -0.32334391314E+02  0.41592693919E+02  0.00000000000E+00 0.  1.
         -2    1    1    2    0  502  0.23002332477E+02  0.12463226967E+02 -0.12983889452E+03  0.13244839695E+03  0.00000000000E+00 0. -1.
<mgrwt>
<rscale>  2 0.26161791E+02</rscale>
<asrwt>0</asrwt>
<pdfrwt beam="1">  1        2 0.91290806E-03 0.26161791E+02</pdfrwt>
<pdfrwt beam="2">  1       -2 0.25862645E-01 0.26161791E+02</pdfrwt>
<totfact> 0.13669286E+05</totfact>
</mgrwt>
</event>
<event>
 4    1  0.1429937E+004  0.3031048E+02  0.7546771E-02  0.1594682E+00
          2   -1    0    0  501    0  0.00000000000E+00  0.00000000000E+00  0.19368971250E+02  0.19368971250E+02  0.00000000000E+00 0. -1.
         -2   -1    0    0    0  501 -0.00000000000E+00 -0.00000000000E+00 -0.10975266968E+03  0.10975266968E+03  0.00000000000E+00 0. -1.
          2    1    1    2  502    0  0.15538385146E+02  0.26024673569E+02  0.34572352148E+01  0.30507007763E+02  0.00000000000E+00 0. -1.
         -2    1    1    2    0  502 -0.15538385146E+02 -0.26024673569E+02 -0.93840933646E+02  0.98614633168E+02  0.00000000000E+00 0. -1.
<mgrwt>
<rscale>  2 0.30310478E+02</rscale>
<asrwt>0</asrwt>
<pdfrwt beam="1">  1        2 0.29798417E-02 0.30310478E+02</pdfrwt>
<pdfrwt beam="2">  1       -2 0.16885026E-01 0.30310478E+02</pdfrwt>
<totfact> 0.61256370E+04</totfact>
</mgrwt>
</event>
<event>
 4    1  0.1429937E+004  0.2556739E+02  0.7546771E-02  0.1652984E+00
          2   -1    0    0  501    0  0.00000000000E+00  0.00000000000E+00  0.74322211864E+03  0.74322211864E+03  0.00000000000E+00 0. -1.
         -2   -1    0    0    0  501 -0.00000000000E+00 -0.00000000000E+00 -0.57135939073E+02  0.57135939073E+02  0.00000000000E+00 0. -1.
          2    1    1    2  502    0 -0.10675646913E+02 -0.23231917853E+02  0.74013004218E+03  0.74057151632E+03  0.00000000000E+00 0. -1.
         -2    1    1    2    0  502  0.10675646913E+02  0.23231917853E+02 -0.54043862620E+02  0.59786541387E+02  0.00000000000E+00 0. -1.
<mgrwt>
<rscale>  2 0.25567390E+02</rscale>
<asrwt>0</asrwt>
<pdfrwt beam="1">  1        2 0.11434186E+00 0.25567390E+02</pdfrwt>
<pdfrwt beam="2">  1       -2 0.87901450E-02 0.25567390E+02</pdfrwt>
<totfact> 0.28500976E+03</totfact>
</mgrwt>
</event>
<event>
 4    1  0.1429937E+004  0.2151987E+02  0.7546771E-02  0.1716690E+00
          2   -1    0    0  501    0  0.00000000000E+00  0.00000000000E+00  0.10480370270E+04  0.10480370270E+04  0.00000000000E+00 0. -1.
         -2   -1    0    0    0  501 -0.00000000000E+00 -0.00000000000E+00 -0.97136390453E+00  0.97136390453E+00  0.00000000000E+00 0. -1.
          2    1    1    2  502    0  0.88357835747E+01 -0.19622280172E+02  0.91077711307E+03  0.91103131375E+03  0.00000000000E+00 0. -1.
         -2    1    1    2    0  502 -0.88357835747E+01  0.19622280172E+02  0.13628855001E+03  0.13797707713E+03  0.00000000000E+00 0. -1.
<mgrwt>
<rscale>  2 0.21519873E+02</rscale>
<asrwt>0</asrwt>
<pdfrwt beam="1">  1        2 0.16123556E+00 0.21519873E+02</pdfrwt>
<pdfrwt beam="2">  1       -2 0.14944144E-03 0.21519873E+02</pdfrwt>
<totfact> 0.48731631E+05</totfact>
</mgrwt>
</event>
<event>
 4    1  0.1429937E+004  0.2514471E+02  0.7546771E-02  0.1658932E+00
          2   -1    0    0  501    0  0.00000000000E+00  0.00000000000E+00  0.14892696680E+03  0.14892696680E+03  0.00000000000E+00 0. -1.
         -2   -1    0    0    0  501 -0.00000000000E+00 -0.00000000000E+00 -0.10701309575E+03  0.10701309575E+03  0.00000000000E+00 0.  1.
          2    1    1    2  502    0 -0.23343930111E+02 -0.93443769497E+01  0.14636287168E+03  0.14850705930E+03  0.00000000000E+00 0. -1.
         -2    1    1    2    0  502  0.23343930111E+02  0.93443769497E+01 -0.10444900064E+03  0.10743300325E+03  0.00000000000E+00 0.  1.
<mgrwt>
<rscale>  2 0.25144710E+02</rscale>
<asrwt>0</asrwt>
<pdfrwt beam="1">  1        2 0.22911841E-01 0.25144710E+02</pdfrwt>
<pdfrwt beam="2">  1       -2 0.16463553E-01 0.25144710E+02</pdfrwt>
<totfact> 0.56219189E+03</totfact>
</mgrwt>
</event>
<event>
 4    1  0.1429937E+004  0.2755890E+02  0.7546771E-02  0.1626753E+00
         -2   -1    0    0    0  501 -0.00000000000E+00  0.00000000000E+00  0.54750220251E+01  0.54750220251E+01  0.00000000000E+00 0.  1.
          2   -1    0    0  501    0  0.00000000000E+00 -0.00000000000E+00 -0.47420584895E+03  0.47420584895E+03  0.00000000000E+00 0. -1.
          2    1    1    2  502    0 -0.21029177670E+02  0.17811986180E+02 -0.43609810240E+03  0.43696801723E+03  0.00000000000E+00 0. -1.
         -2    1    1    2    0  502  0.21029177670E+02 -0.17811986180E+02 -0.32632724527E+02  0.42712853747E+02  0.00000000000E+00 0.  1.
<mgrwt>
<rscale>  2 0.27558904E+02</rscale>
<asrwt>0</asrwt>
<pdfrwt beam="2">  1        2 0.72954727E-01 0.27558904E+02</pdfrwt>
<pdfrwt beam="1">  1       -2 0.84231130E-03 0.27558904E+02</pdfrwt>
<totfact> 0.12366249E+05</totfact>
</mgrwt>
</event>
<event>
 4    1  0.1429937E+004  0.4266100E+02  0.7546771E-02  0.1489495E+00
          2   -1    0    0  501    0  0.00000000000E+00  0.00000000000E+00  0.35402377700E+03  0.35402377700E+03  0.00000000000E+00 0. -1.
         -2   -1    0    0    0  501 -0.00000000000E+00 -0.00000000000E+00 -0.28991918422E+02  0.28991918422E+02  0.00000000000E+00 0. -1.
          2    1    1    2  502    0  0.38969879655E+02  0.17358254336E+02  0.33621704152E+03  0.33891276093E+03  0.00000000000E+00 0. -1.
         -2    1    1    2    0  502 -0.38969879655E+02 -0.17358254336E+02 -0.11185182936E+02  0.44102934497E+02  0.00000000000E+00 0. -1.
<mgrwt>
<rscale>  2 0.42660995E+02</rscale>
<asrwt>0</asrwt>
<pdfrwt beam="1">  1        2 0.54465194E-01 0.42660995E+02</pdfrwt>
<pdfrwt beam="2">  1       -2 0.44602954E-02 0.42660995E+02</pdfrwt>
<totfact> 0.17556566E+04</totfact>
</mgrwt>
</event>
<event>
 4    1  0.1429937E+004  0.2269178E+02  0.7546771E-02  0.1696556E+00
          2   -1    0    0  501    0  0.00000000000E+00  0.00000000000E+00  0.85254212510E+03  0.85254212510E+03  0.00000000000E+00 0. -1.
         -2   -1    0    0    0  501 -0.00000000000E+00 -0.00000000000E+00 -0.38654804862E+02  0.38654804862E+02  0.00000000000E+00 0. -1.
          2    1    1    2  502    0  0.16789942797E+02  0.15264814948E+02  0.84904720009E+03  0.84935037807E+03  0.00000000000E+00 0. -1.
         -2    1    1    2    0  502 -0.16789942797E+02 -0.15264814948E+02 -0.35159879846E+02  0.41846551893E+02  0.00000000000E+00 0. -1.
<mgrwt>
<rscale>  2 0.22691777E+02</rscale>
<asrwt>0</asrwt>
<pdfrwt beam="1">  1        2 0.13116031E+00 0.22691777E+02</pdfrwt>
<pdfrwt beam="2">  1       -2 0.59468937E-02 0.22691777E+02</pdfrwt>
<totfact> 0.42643166E+03</totfact>
</mgrwt>
</event>
<event>
 4    1  0.1429937E+004  0.2039781E+02  0.7546771E-02  0.1737531E+00
         -2   -1    0    0    0  501 -0.00000000000E+00  0.00000000000E+00  0.27638031772E+01  0.27638031772E+01  0.00000000000E+00 0.  1.
          2   -1    0    0  501    0  0.00000000000E+00 -0.00000000000E+00 -0.46504854975E+03  0.46504854975E+03  0.00000000000E+00 0.  1.
          2    1    1    2  502    0  0.61705440130E+01  0.19442098942E+02 -0.42349884326E+03  0.42398978887E+03  0.00000000000E+00 0.  1.
         -2    1    1    2    0  502 -0.61705440130E+01 -0.19442098942E+02 -0.38785903320E+02  0.43822564063E+02  0.00000000000E+00 0.  1.
<mgrwt>
<rscale>  2 0.20397814E+02</rscale>
<asrwt>0</asrwt>
<pdfrwt beam="2">  1        2 0.71545941E-01 0.20397814E+02</pdfrwt>
<pdfrwt beam="1">  1       -2 0.42520043E-03 0.20397814E+02</pdfrwt>
<totfact> 0.29291617E+05</totfact>
</mgrwt>
</event>
<event>
 4    1  0.1429937E+004  0.4109603E+02  0.7546771E-02  0.1500297E+00
         -2   -1    0    0    0  501 -0.00000000000E+00  0.00000000000E+00  0.13858101151E+01  0.13858101151E+01  0.00000000000E+00 0.  1.
          2   -1    0    0  501    0  0.00000000000E+00 -0.00000000000E+00 -0.19046370744E+04  0.19046370744E+04  0.00000000000E+00 0. -1.
          2    1    1    2  502    0  0.17456750999E+02  0.37204106286E+02 -0.15235450557E+04  0.15240992161E+04  0.00000000000E+00 0. -1.
         -2    1    1    2    0  502 -0.17456750999E+02 -0.37204106286E+02 -0.37970620858E+03  0.38192366844E+03  0.00000000000E+00 0.  1.
<mgrwt>
<rscale>  2 0.41096030E+02</rscale>
<asrwt>0</asrwt>
<pdfrwt beam="2">  1        2 0.29302362E+00 0.41096030E+02</pdfrwt>
<pdfrwt beam="1">  1       -2 0.21319971E-03 0.41096030E+02</pdfrwt>
<totfact> 0.13260831E+05</totfact>
</mgrwt>
</event>
<event>
 4    1  0.1429937E+004  0.2073349E+02  0.7546771E-02  0.1731123E+00
          2   -1    0    0  501    0  0.00000000000E+00  0.00000000000E+00  0.14013810782E+03  0.14013810782E+03  0.00000000000E+00 0. -1.
         -2   -1    0    0    0  501 -0.00000000000E+00 -0.00000000000E+00 -0.51342257031E+01  0.51342257031E+01  0.00000000000E+00 0.  1.
          2    1    1    2  502    0  0.20187967848E+02 -0.47247887344E+01  0.11358633056E+03  0.11546312036E+03  0.00000000000E+00 0. -1.
         -2    1    1    2    0  502 -0.20187967848E+02  0.47247887344E+01  0.21417551559E+02  0.29809213160E+02  0.00000000000E+00 0.  1.
<mgrwt>
<rscale>  2 0.20733492E+02</rscale>
<asrwt>0</asrwt>
<pdfrwt beam="1">  1        2 0.21559706E-01 0.20733492E+02</pdfrwt>
<pdfrwt beam="2">  1       -2 0.78988098E-03 0.20733492E+02</pdfrwt>
<totfact> 0.42548122E+05</totfact>
</mgrwt>
</event>
<event>
 4    1  0.1429937E+004  0.2428597E+02  0.7546771E-02  0.1671475E+00
         -2   -1    0    0    0  501 -0.00000000000E+00  0.00000000000E+00  0.14654081981E+02  0.14654081981E+02  0.00000000000E+00 0.  1.
          2   -1    0    0  501    0  0.00000000000E+00 -0.00000000000E+00 -0.88926721182E+03  0.88926721182E+03  0.00000000000E+00 0.  1.
          2    1    1    2  502    0 -0.24232148257E+02  0.16159958185E+01 -0.87892078494E+03  0.87925625084E+03  0.00000000000E+00 0.  1.
         -2    1    1    2    0  502  0.24232148257E+02 -0.16159958185E+01  0.43076550986E+01  0.24665042957E+02  0.00000000000E+00 0.  1.
<mgrwt>
<rscale>  2 0.24285972E+02</rscale>
<asrwt>0</asrwt>
<pdfrwt beam="2">  1        2 0.13681036E+00 0.24285972E+02</pdfrwt>
<pdfrwt beam="1">  1       -2 0.22544738E-02 0.24285972E+02</pdfrwt>
<totfact> 0.15950052E+04</totfact>
</mgrwt>
</event>
<event>
 4    1  0.1429937E+004  0.2561199E+02  0.7546771E-02  0.1652364E+00
         -2   -1    0    0    0  501 -0.00000000000E+00  0.00000000000E+00  0.48058994403E+02  0.48058994403E+02  0.00000000000E+00 0. -1.
          2   -1    0    0  501    0  0.00000000000E+00 -0.00000000000E+00 -0.22836414783E+03  0.22836414783E+03  0.00000000000E+00 0.  1.
          2    1    1    2  502    0  0.19190885567E+02  0.16961240804E+02 -0.22417005324E+03  0.22562842584E+03  0.00000000000E+00 0.  1.
         -2    1    1    2    0  502 -0.19190885567E+02 -0.16961240804E+02  0.43864899808E+02  0.50794716395E+02  0.00000000000E+00 0. -1.
<mgrwt>
<rscale>  2 0.25611985E+02</rscale>
<asrwt>0</asrwt>
<pdfrwt beam="2">  1        2 0.35132945E-01 0.25611985E+02</pdfrwt>
<pdfrwt beam="1">  1       -2 0.73936916E-02 0.25611985E+02</pdfrwt>
<totfact> 0.12200021E+04</totfact>
</mgrwt>
</event>
<event>
 4    1  0.1429937E+004  0.3180769E+02  0.7546771E-02  0.1578926E+00
         -2   -1    0    0    0  501 -0.00000000000E+00  0.00000000000E+00  0.37855629594E+02  0.37855629594E+02  0.00000000000E+00 0. -1.
          2   -1    0    0  501    0  0.00000000000E+00 -0.00000000000E+00 -0.10152859626E+03  0.10152859626E+03  0.00000000000E+00 0. -1.
          2    1    1    2  502    0 -0.16038966858E+02 -0.27467809929E+02 -0.91656677215E+02  0.97018944121E+02  0.00000000000E+00 0. -1.
         -2    1    1    2    0  502  0.16038966858E+02  0.27467809929E+02  0.27983710549E+02  0.42365281733E+02  0.00000000000E+00 0. -1.
<mgrwt>
<rscale>  2 0.31807688E+02</rscale>
<asrwt>0</asrwt>
<pdfrwt beam="2">  1        2 0.15619784E-01 0.31807688E+02</pdfrwt>
<pdfrwt beam="1">  1       -2 0.58239431E-02 0.31807688E+02</pdfrwt>
<totfact> 0.42001574E+04</totfact>
</mgrwt>
</event>
<event>
 4    1  0.1429937E+004  0.3138968E+02  0.7546771E-02  0.1583217E+00
          2   -1    0    0  501    0  0.00000000000E+00  0.00000000000E+00  0.48455883856E+03  0.48455883856E+03  0.00000000000E+00 0.  1.
         -2   -1    0    0    0  501 -0.00000000000E+00 -0.00000000000E+00 -0.22209059391E+01  0.22209059391E+01  0.00000000000E+00 0.  1.
          2    1    1    2  502    0  0.23892737678E+02 -0.20358024828E+02  0.31188545419E+03  0.31346107992E+03  0.00000000000E+00 0.  1.
         -2    1    1    2    0  502 -0.23892737678E+02  0.20358024828E+02  0.17045247843E+03  0.17331866458E+03  0.00000000000E+00 0.  1.
<mgrwt>
<rscale>  2 0.31389681E+02</rscale>
<asrwt>0</asrwt>
<pdfrwt beam="1">  1        2 0.74547429E-01 0.31389681E+02</pdfrwt>
<pdfrwt beam="2">  1       -2 0.34167822E-03 0.31389681E+02</pdfrwt>
<totfact> 0.42323627E+05</totfact>
</mgrwt>
</event>
<event>
 4    1  0.1429937E+004  0.2504580E+02  0.7546771E-02  0.1660345E+00
         -2   -1    0    0    0  501 -0.00000000000E+00  0.00000000000E+00  0.13048306064E+01  0.13048306064E+01  0.00000000000E+00 0.  1.
          2   -1    0    0  501    0  0.00000000000E+00 -0.00000000000E+00 -0.75326265610E+03  0.75326265610E+03  0.00000000000E+00 0.  1.
          2    1    1    2  502    0  0.13820657510E+02  0.20887348168E+02 -0.60290871044E+03  0.60342870749E+03  0.00000000000E+00 0.  1.
         -2    1    1    2    0  502 -0.13820657510E+02 -0.20887348168E+02 -0.14904911504E+03  0.15113877922E+03  0.00000000000E+00 0.  1.
<mgrwt>
<rscale>  2 0.25045796E+02</rscale>
<asrwt>0</asrwt>
<pdfrwt beam="2">  1        2 0.11588634E+00 0.25045796E+02</pdfrwt>
<pdfrwt beam="1">  1       -2 0.20074356E-03 0.25045796E+02</pdfrwt>
<totfact> 0.50875656E+05</totfact>
</mgrwt>
</event>
<event>
 4    1  0.1429937E+004  0.2893221E+02  0.7546771E-02  0.1610201E+00
          2   -1    0    0  501    0  0.00000000000E+00  0.00000000000E+00  0.34506284862E+02  0.34506284862E+02  0.00000000000E+00 0.  1.
         -2   -1    0    0    0  501 -0.00000000000E+00 -0.00000000000E+00 -0.14269318604E+03  0.14269318604E+03  0.00000000000E+00 0.  1.
          2    1    1    2  502    0  0.28077528161E+02  0.69803269577E+01  0.26624507375E+02  0.39318404660E+02  0.00000000000E+00 0.  1.
         -2    1    1    2    0  502 -0.28077528161E+02 -0.69803269577E+01 -0.13481140855E+03  0.13788106624E+03  0.00000000000E+00 0.  1.
<mgrwt>
<rscale>  2 0.28932206E+02</rscale>
<asrwt>0</asrwt>
<pdfrwt beam="1">  1        2 0.53086591E-02 0.28932206E+02</pdfrwt>
<pdfrwt beam="2">  1       -2 0.21952798E-01 0.28932206E+02</pdfrwt>
<totfact> 0.19240274E+04</totfact>
</mgrwt>
</event>
<event>
 4    1  0.1429937E+004  0.2451846E+02  0.7546771E-02  0.1668016E+00
         -2   -1    0    0    0  501 -0.00000000000E+00  0.00000000000E+00  0.92363860024E+02  0.92363860024E+02  0.00000000000E+00 0. -1.
          2   -1    0    0  501    0  0.00000000000E+00 -0.00000000000E+00 -0.71824984496E+03  0.71824984496E+03  0.00000000000E+00 0. -1.
          2    1    1    2  502    0  0.90935435950E+01  0.22769771366E+02 -0.71640928472E+03  0.71682872310E+03  0.00000000000E+00 0. -1.
         -2    1    1    2    0  502 -0.90935435950E+01 -0.22769771366E+02  0.90523299786E+02  0.93784981886E+02  0.00000000000E+00 0. -1.
<mgrwt>
<rscale>  2 0.24518463E+02</rscale>
<asrwt>0</asrwt>
<pdfrwt beam="2">  1        2 0.11049997E+00 0.24518463E+02</pdfrwt>
<pdfrwt beam="1">  1       -2 0.14209825E-01 0.24518463E+02</pdfrwt>
<totfact> 0.14290092E+03</totfact>
</mgrwt>
</event>
<event>
 4    1  0.1429937E+004  0.2101039E+02  0.7546771E-02  0.1725951E+00
          2   -1    0    0  501    0  0.00000000000E+00  0.00000000000E+00  0.10457575973E+04  0.10457575973E+04  0.00000000000E+00 0.  1.
         -2   -1    0    0    0  501 -0.00000000000E+00 -0.00000000000E+00 -0.20200551642E+01  0.20200551642E+01  0.00000000000E+00 0.  1.
          2    1    1    2  502    0  0.90845239842E+01 -0.18944864037E+02  0.98781621664E+03  0.98803963195E+03  0.00000000000E+00 0.  1.
         -2    1    1    2    0  502 -0.90845239842E+01  0.18944864037E+02  0.55921325472E+02  0.59738020489E+02  0.00000000000E+00 0.  1.
<mgrwt>
<rscale>  2 0.21010389E+02</rscale>
<asrwt>0</asrwt>
<pdfrwt beam="1">  1        2 0.16088535E+00 0.21010389E+02</pdfrwt>
<pdfrwt beam="2">  1       -2 0.31077855E-03 0.21010389E+02</pdfrwt>
<totfact> 0.18445946E+05</totfact>
</mgrwt>
</event>
<event>
 4    1  0.1429937E+004  0.2394911E+02  0.7546771E-02  0.1676572E+00
         -2   -1    0    0    0  501 -0.00000000000E+00  0.00000000000E+00  0.44270621304E+02  0.44270621304E+02  0.00000000000E+00 0.  1.
          2   -1    0    0  501    0  0.00000000000E+00 -0.00000000000E+00 -0.33666345872E+02  0.33666345872E+02  0.00000000000E+00 0.  1.
          2    1    1    2  502    0 -0.23856908961E+02 -0.20994554095E+01 -0.25261964482E+02  0.34809864517E+02  0.00000000000E+00 0.  1.
         -2    1    1    2    0  502  0.23856908961E+02  0.20994554095E+01  0.35866239914E+02  0.43127102659E+02  0.00000000000E+00 0.  1.
<mgrwt>
<rscale>  2 0.23949109E+02</rscale>
<asrwt>0</asrwt>
<pdfrwt beam="2">  1        2 0.51794378E-02 0.23949109E+02</pdfrwt>
<pdfrwt beam="1">  1       -2 0.68108648E-02 0.23949109E+02</pdfrwt>
<totfact> 0.11441418E+05</totfact>
</mgrwt>
</event>
<event>
 4    1  0.1429937E+004  0.2012497E+02  0.7546771E-02  0.1742854E+00
         -2   -1    0    0    0  501 -0.00000000000E+00  0.00000000000E+00  0.20288363195E+03  0.20288363195E+03  0.00000000000E+00 0.  1.
          2   -1    0    0  501    0  0.00000000000E+00 -0.00000000000E+00 -0.74717275355E+01  0.74717275355E+01  0.00000000000E+00 0. -1.
          2    1    1    2  502    0 -0.79187233325E+01  0.18501572389E+02  0.76686389069E+01  0.21536535997E+02  0.00000000000E+00 0. -1.
         -2    1    1    2    0  502  0.79187233325E+01 -0.18501572389E+02  0.18774326551E+03  0.18881882349E+03  0.00000000000E+00 0.  1.
<mgrwt>
<rscale>  2 0.20124969E+02</rscale>
<asrwt>0</asrwt>
<pdfrwt beam="2">  1        2 0.11494967E-02 0.20124969E+02</pdfrwt>
<pdfrwt beam="1">  1       -2 0.31212862E-01 0.20124969E+02</pdfrwt>
<totfact> 0.68465928E+04</totfact>
</mgrwt>
</event>
<event>
 4    1  0.1429937E+004  0.3202515E+02  0.7546771E-02  0.1576725E+00
          2   -1    0    0  501    0  0.00000000000E+00  0.00000000000E+00  0.11837831265E+04  0.11837831265E+04  0.00000000000E+00 0.  1.
         -2   -1    0    0    0  501 -0.00000000000E+00 -0.00000000000E+00 -0.20967727196E+01  0.20967727196E+01  0.00000000000E+00 0.  1.
          2    1    1    2  502    0 -0.30658215824E+02  0.92565628432E+01  0.10450527614E+04  0.10455433441E+04  0.00000000000E+00 0.  1.
         -2    1    1    2    0  502  0.30658215824E+02 -0.92565628432E+01  0.13663359236E+03  0.14033655516E+03  0.00000000000E+00 0.  1.
<mgrwt>
<rscale>  2 0.32025149E+02</rscale>
<asrwt>0</asrwt>
<pdfrwt beam="1">  1        2 0.18211995E+00 0.32025149E+02</pdfrwt>
<pdfrwt beam="2">  1       -2 0.32258137E-03 0.32025149E+02</pdfrwt>
<totfact> 0.16309967E+05</totfact>
</mgrwt>
</event>
<event>
 4    1  0.1429937E+004  0.3098548E+02  0.7546771E-02  0.1587444E+00
         -2   -1    0    0    0  501 -0.00000000000E+00  0.00000000000E+00  0.11779965637E+01  0.11779965637E+01  0.00000000000E+00 0. -1.
          2   -1    0    0  501    0  0.00000000000E+00 -0.00000000000E+00 -0.23638504416E+04  0.23638504416E+04  0.00000000000E+00 0.  1.
          2    1    1    2  502    0 -0.29850433598E+02  0.83097127862E+01 -0.21385242242E+04  0.21387486896E+04  0.00000000000E+00 0.  1.
         -2    1    1    2    0  502  0.29850433598E+02 -0.83097127862E+01 -0.22414822084E+03  0.22627974858E+03  0.00000000000E+00 0. -1.
<mgrwt>
<rscale>  2 0.30985476E+02</rscale>
<asrwt>0</asrwt>
<pdfrwt beam="2">  1        2 0.36366443E+00 0.30985476E+02</pdfrwt>
<pdfrwt beam="1">  1       -2 0.18123266E-03 0.30985476E+02</pdfrwt>
<totfact> 0.94897786E+04</totfact>
</mgrwt>
</event>
<event>
 4    1  0.1429937E+004  0.3047885E+02  0.7546771E-02  0.1592855E+00
         -2   -1    0    0    0  501 -0.00000000000E+00  0.00000000000E+00  0.16216520117E+01  0.16216520117E+01  0.00000000000E+00 0.  1.
          2   -1    0    0  501    0  0.00000000000E+00 -0.00000000000E+00 -0.63485325022E+03  0.63485325022E+03  0.00000000000E+00 0.  1.
          2    1    1    2  502    0  0.21072801773E+02  0.22020378858E+02 -0.41607133416E+03  0.41718618766E+03  0.00000000000E+00 0.  1.
         -2    1    1    2    0  502 -0.21072801773E+02 -0.22020378858E+02 -0.21716026405E+03  0.21928871457E+03  0.00000000000E+00 0.  1.
<mgrwt>
<rscale>  2 0.30478846E+02</rscale>
<asrwt>0</asrwt>
<pdfrwt beam="2">  1        2 0.97669776E-01 0.30478846E+02</pdfrwt>
<pdfrwt beam="1">  1       -2 0.24948481E-03 0.30478846E+02</pdfrwt>
<totfact> 0.48348254E+05</totfact>
</mgrwt>
</event>
<event>
 4    1  0.1429937E+004  0.2030201E+02  0.7546771E-02  0.1739388E+00
         -2   -1    0    0    0  501 -0.00000000000E+00  0.00000000000E+00  0.19450490250E+01  0.19450490250E+01  0.00000000000E+00 0. -1.
          2   -1    0    0  501    0  0.00000000000E+00 -0.00000000000E+00 -0.49403602636E+03  0.49403602636E+03  0.00000000000E+00 0. -1.
          2    1    1    2  502    0  0.26098778160E+01  0.20133560500E+02 -0.43344946784E+03  0.43392466269E+03  0.00000000000E+00 0. -1.
         -2    1    1    2    0  502 -0.26098778160E+01 -0.20133560500E+02 -0.58641509495E+02  0.62056412694E+02  0.00000000000E+00 0. -1.
<mgrwt>
<rscale>  2 0.20302013E+02</rscale>
<asrwt>0</asrwt>
<pdfrwt beam="2">  1        2 0.76005671E-01 0.20302013E+02</pdfrwt>
<pdfrwt beam="1">  1       -2 0.29923781E-03 0.20302013E+02</pdfrwt>
<totfact> 0.43900366E+05</totfact>
</mgrwt>
</event>
<event>
 4    1  0.1429937E+004  0.2462351E+02  0.7546771E-02  0.1666469E+00
         -2   -1    0    0    0  501 -0.00000000000E+00  0.00000000000E+00  0.25561477218E+01  0.25561477218E+01  0.00000000000E+00 0. -1.
          2   -1    0    0  501    0  0.00000000000E+00 -0.00000000000E+00 -0.47880786932E+03  0.47880786932E+03  0.00000000000E+00 0. -1.
          2    1    1    2  502    0 -0.20023036279E+02  0.14331620491E+02 -0.40909544112E+03  0.40983581746E+03  0.00000000000E+00 0. -1.
         -2    1    1    2    0  502  0.20023036279E+02 -0.14331620491E+02 -0.67156280473E+02  0.71528199577E+02  0.00000000000E+00 0. -1.
<mgrwt>
<rscale>  2 0.24623512E+02</rscale>
<asrwt>0</asrwt>
<pdfrwt beam="2">  1        2 0.73662742E-01 0.24623512E+02</pdfrwt>
<pdfrwt beam="1">  1       -2 0.39325353E-03 0.24623512E+02</pdfrwt>
<totfact> 0.33264323E+05</totfact>
</mgrwt>
</event>
<event>
 4    1  0.1429937E+004  0.2626788E+02  0.7546771E-02  0.1643431E+00
          2   -1    0    0  501    0  0.00000000000E+00  0.00000000000E+00  0.10631297176E+03  0.10631297176E+03  0.00000000000E+00 0. -1.
         -2   -1    0    0    0  501 -0.00000000000E+00 -0.00000000000E+00 -0.29538830173E+02  0.29538830173E+02  0.00000000000E+00 0.  1.
          2    1    1    2  502    0 -0.12585715337E+02 -0.23056481040E+02  0.98388350761E+02  0.10183451828E+03  0.00000000000E+00 0. -1.
         -2    1    1    2    0  502  0.12585715337E+02  0.23056481040E+02 -0.21614209175E+02  0.34017283648E+02  0.00000000000E+00 0.  1.
<mgrwt>
<rscale>  2 0.26267881E+02</rscale>
<asrwt>0</asrwt>
<pdfrwt beam="1">  1        2 0.16355842E-01 0.26267881E+02</pdfrwt>
<pdfrwt beam="2">  1       -2 0.45444355E-02 0.26267881E+02</pdfrwt>
<totfact> 0.54867405E+04</totfact>
</mgrwt>
</event>
<event>
 4    1  0.1429937E+004  0.2607467E+02  0.7546771E-02  0.1646029E+00
         -2   -1    0    0    0  501 -0.00000000000E+00  0.00000000000E+00  0.11073590683E+02  0.11073590683E+02  0.00000000000E+00 0.  1.
          2   -1    0    0  501    0  0.00000000000E+00 -0.00000000000E+00 -0.53145400303E+03  0.53145400303E+03  0.00000000000E+00 0.  1.
          2    1    1    2  502    0 -0.25957534925E+02  0.24687139783E+01 -0.51530411484E+03  0.51596338915E+03  0.00000000000E+00 0.  1.
         -2    1    1    2    0  502  0.25957534925E+02 -0.24687139783E+01 -0.50762975119E+01  0.26564204572E+02  0.00000000000E+00 0.  1.
<mgrwt>
<rscale>  2 0.26074665E+02</rscale>
<asrwt>0</asrwt>
<pdfrwt beam="2">  1        2 0.81762157E-01 0.26074665E+02</pdfrwt>
<pdfrwt beam="1">  1       -2 0.17036293E-02 0.26074665E+02</pdfrwt>
<totfact> 0.41616754E+04</totfact>
</mgrwt>
</event>
<event>
 4    1  0.1429937E+004  0.2137234E+02  0.7546771E-02  0.1719339E+00
          2   -1    0    0  501    0  0.00000000000E+00  0.00000000000E+00  0.73933901899E+03  0.73933901899E+03  0.00000000000E+00 0.  1.
         -2   -1    0    0    0  501 -0.00000000000E+00 -0.00000000000E+00 -0.29041567600E+03  0.29041567600E+03  0.00000000000E+00 0.  1.
          2    1    1    2  502    0  0.20764087044E+02 -0.50625604632E+01  0.73879106344E+03  0.73910013682E+03  0.00000000000E+00 0.  1.
         -2    1    1    2    0  502 -0.20764087044E+02  0.50625604632E+01 -0.28986772045E+03  0.29065455817E+03  0.00000000000E+00 0.  1.
<mgrwt>
<rscale>  2 0.21372338E+02</rscale>
<asrwt>0</asrwt>
<pdfrwt beam="1">  1        2 0.11374446E+00 0.21372338E+02</pdfrwt>
<pdfrwt beam="2">  1       -2 0.44679335E-01 0.21372338E+02</pdfrwt>
<totfact> 0.20186285E+02</totfact>
</mgrwt>
</event>
<event>
 4    1  0.1429937E+004  0.2003104E+02  0.7546771E-02  0.1744711E+00
          2   -1    0    0  501    0  0.00000000000E+00  0.00000000000E+00  0.73575607925E+01  0.73575607925E+01  0.00000000000E+00 0. -1.
         -2   -1    0    0    0  501 -0.00000000000E+00 -0.00000000000E+00 -0.15063423109E+03  0.15063423109E+03  0.00000000000E+00 0.  1.
          2    1    1    2  502    0  0.15696258866E+02  0.12444679557E+02 -0.85421273708E+01  0.21776375540E+02  0.00000000000E+00 0. -1.
         -2    1    1    2    0  502 -0.15696258866E+02 -0.12444679557E+02 -0.13473454292E+03  0.13621541634E+03  0.00000000000E+00 0.  1.
<mgrwt>
<rscale>  2 0.20031041E+02</rscale>
<asrwt>0</asrwt>
<pdfrwt beam="1">  1        2 0.11319324E-02 0.20031041E+02</pdfrwt>
<pdfrwt beam="2">  1       -2 0.23174498E-01 0.20031041E+02</pdfrwt>
<totfact> 0.11498623E+05</totfact>
</mgrwt>
</event>
<event>
 4    1  0.1429937E+004  0.2801062E+02  0.7546771E-02  0.1621180E+00
          2   -1    0    0  501    0  0.00000000000E+00  0.00000000000E+00  0.51557266395E+03  0.51557266395E+03  0.00000000000E+00 0. -1.
         -2   -1    0    0    0  501 -0.00000000000E+00 -0.00000000000E+00 -0.35455993430E+02  0.35455993430E+02  0.00000000000E+00 0.  1.
          2    1    1    2  502    0  0.14915297330E+02  0.23709259544E+02  0.50959519777E+03  0.51036443907E+03  0.00000000000E+00 0. -1.
         -2    1    1    2    0  502 -0.14915297330E+02 -0.23709259544E+02 -0.29478527242E+02  0.40664218312E+02  0.00000000000E+00 0.  1.
<mgrwt>
<rscale>  2 0.28010624E+02</rscale>
<asrwt>0</asrwt>
<pdfrwt beam="1">  1        2 0.79318866E-01 0.28010624E+02</pdfrwt>
<pdfrwt beam="2">  1       -2 0.54547686E-02 0.28010624E+02</pdfrwt>
<totfact> 0.85010746E+03</totfact>
</mgrwt>
</event>
<event>
 4    1  0.1429937E+004  0.4495125E+02  0.7546771E-02  0.1474646E+00
          2   -1    0    0  501    0  0.00000000000E+00  0.00000000000E+00  0.24306151587E+04  0.24306151587E+04  0.00000000000E+00 0.  1.
         -2   -1    0    0    0  501 -0.00000000000E+00 -0.00000000000E+00 -0.24928539709E+02  0.24928539709E+02  0.00000000000E+00 0. -1.
          2    1    1    2  502    0  0.26183293698E+02  0.36538340561E+02  0.24099696729E+04  0.24103888565E+04  0.00000000000E+00 0.  1.
         -2    1    1    2    0  502 -0.26183293698E+02 -0.36538340561E+02 -0.42830538893E+01  0.45154841938E+02  0.00000000000E+00 0. -1.
<mgrwt>
<rscale>  2 0.44951254E+02</rscale>
<asrwt>0</asrwt>
<pdfrwt beam="1">  1        2 0.37394061E+00 0.44951254E+02</pdfrwt>
<pdfrwt beam="2">  1       -2 0.38351619E-02 0.44951254E+02</pdfrwt>
<totfact> 0.13440910E+03</totfact>
</mgrwt>
</event>
<event>
 4    1  0.1429937E+004  0.4596718E+02  0.7546771E-02  0.1468392E+00
          2   -1    0    0  501    0  0.00000000000E+00  0.00000000000E+00  0.16031099204E+03  0.16031099204E+03  0.00000000000E+00 0. -1.
         -2   -1    0    0    0  501 -0.00000000000E+00 -0.00000000000E+00 -0.28443924576E+02  0.28443924576E+02  0.00000000000E+00 0.  1.
          2    1    1    2  502    0 -0.45886318382E+02  0.27253945601E+01  0.13506873759E+03  0.14267636757E+03  0.00000000000E+00 0. -1.
         -2    1    1    2    0  502  0.45886318382E+02 -0.27253945601E+01 -0.32016701273E+01  0.46078549041E+02  0.00000000000E+00 0.  1.
<mgrwt>
<rscale>  2 0.45967184E+02</rscale>
<asrwt>0</asrwt>
<pdfrwt beam="1">  1        2 0.24663229E-01 0.45967184E+02</pdfrwt>
<pdfrwt beam="2">  1       -2 0.43759885E-02 0.45967184E+02</pdfrwt>
<totfact> 0.41263571E+04</totfact>
</mgrwt>
</event>
<event>
 4    1  0.1429937E+004  0.2695451E+02  0.7546771E-02  0.1634418E+00
          2   -1    0    0  501    0  0.00000000000E+00  0.00000000000E+00  0.20464165705E+03  0.20464165705E+03  0.00000000000E+00 0.  1.
         -2   -1    0    0    0  501 -0.00000000000E+00 -0.00000000000E+00 -0.18344818528E+02  0.18344818528E+02  0.00000000000E+00 0.  1.
          2    1    1    2  502    0 -0.26664334003E+02  0.39445112649E+01  0.19327324246E+03  0.19514377296E+03  0.00000000000E+00 0.  1.
         -2    1    1    2    0  502  0.26664334003E+02 -0.39445112649E+01 -0.69764039359E+01  0.27842702613E+02  0.00000000000E+00 0.  1.
<mgrwt>
<rscale>  2 0.26954515E+02</rscale>
<asrwt>0</asrwt>
<pdfrwt beam="1">  1        2 0.31483330E-01 0.26954515E+02</pdfrwt>
<pdfrwt beam="2">  1       -2 0.28222799E-02 0.26954515E+02</pdfrwt>
<totfact> 0.54159048E+04</totfact>
</mgrwt>
</event>
<event>
 4    1  0.1429937E+004  0.2075482E+02  0.7546771E-02  0.1730721E+00
         -2   -1    0    0    0  501 -0.00000000000E+00  0.00000000000E+00  0.38143293054E+02  0.38143293054E+02  0.00000000000E+00 0. -1.
          2   -1    0    0  501    0  0.00000000000E+00 -0.00000000000E+00 -0.87328180142E+03  0.87328180142E+03  0.00000000000E+00 0.  1.
          2    1    1    2  502    0  0.10977207865E+02 -0.17614291337E+02 -0.87032557927E+03  0.87057301606E+03  0.00000000000E+00 0.  1.
         -2    1    1    2    0  502 -0.10977207865E+02  0.17614291337E+02  0.35187070908E+02  0.40852078415E+02  0.00000000000E+00 0. -1.
<mgrwt>
<rscale>  2 0.20754815E+02</rscale>
<asrwt>0</asrwt>
<pdfrwt beam="2">  1        2 0.13435105E+00 0.20754815E+02</pdfrwt>
<pdfrwt beam="1">  1       -2 0.58681986E-02 0.20754815E+02</pdfrwt>
<totfact> 0.41917833E+03</totfact>
</mgrwt>
</event>
<event>
 4    1  0.1429937E+004  0.2197326E+02  0.7546771E-02  0.1708715E+00
         -2   -1    0    0    0  501 -0.00000000000E+00  0.00000000000E+00  0.45753719008E+01  0.45753719008E+01  0.00000000000E+00 0.  1.
          2   -1    0    0  501    0  0.00000000000E+00 -0.00000000000E+00 -0.34932949675E+03  0.34932949675E+03  0.00000000000E+00 0. -1.
          2    1    1    2  502    0  0.13849542948E+02 -0.17059141464E+02 -0.32020557446E+03  0.32095861737E+03  0.00000000000E+00 0. -1.
         -2    1    1    2    0  502 -0.13849542948E+02  0.17059141464E+02 -0.24548550386E+02  0.32946251280E+02  0.00000000000E+00 0.  1.
<mgrwt>
<rscale>  2 0.21973260E+02</rscale>
<asrwt>0</asrwt>
<pdfrwt beam="2">  1        2 0.53743003E-01 0.21973260E+02</pdfrwt>
<pdfrwt beam="1">  1       -2 0.70390332E-03 0.21973260E+02</pdfrwt>
<totfact> 0.20208912E+05</totfact>
</mgrwt>
</event>
<event>
 4    1  0.1429937E+004  0.2119803E+02  0.7546771E-02  0.1722502E+00
         -2   -1    0    0    0  501 -0.00000000000E+00  0.00000000000E+00  0.44037075451E+02  0.44037075451E+02  0.00000000000E+00 0. -1.
          2   -1    0    0  501    0  0.00000000000E+00 -0.00000000000E+00 -0.18563656997E+03  0.18563656997E+03  0.00000000000E+00 0. -1.
          2    1    1    2  502    0  0.18305183812E+02  0.10690022192E+02 -0.18243579599E+03  0.18366321349E+03  0.00000000000E+00 0. -1.
         -2    1    1    2    0  502 -0.18305183812E+02 -0.10690022192E+02  0.40836301473E+02  0.46010431935E+02  0.00000000000E+00 0. -1.
<mgrwt>
<rscale>  2 0.21198027E+02</rscale>
<asrwt>0</asrwt>
<pdfrwt beam="2">  1        2 0.28559473E-01 0.21198027E+02</pdfrwt>
<pdfrwt beam="1">  1       -2 0.67749345E-02 0.21198027E+02</pdfrwt>
<totfact> 0.16548345E+04</totfact>
</mgrwt>
</event>
<event>
 4    1  0.1429937E+004  0.2977528E+02  0.7546771E-02  0.1600586E+00
          2   -1    0    0  501    0  0.00000000000E+00  0.00000000000E+00  0.26703769735E+04  0.26703769735E+04  0.00000000000E+00 0. -1.
         -2   -1    0    0    0  501 -0.00000000000E+00 -0.00000000000E+00 -0.39183476601E+00  0.39183476601E+00  0.00000000000E+00 0. -1.
          2    1    1    2  502    0  0.76971694893E+01 -0.28763175448E+02  0.81316196895E+03  0.81370692170E+03  0.00000000000E+00 0. -1.
         -2    1    1    2    0  502 -0.76971694893E+01  0.28763175448E+02  0.18568231698E+04  0.18570618866E+04  0.00000000000E+00 0. -1.
<mgrwt>
<rscale>  2 0.29775284E+02</rscale>
<asrwt>0</asrwt>
<pdfrwt beam="1">  1        2 0.41081265E+00 0.29775284E+02</pdfrwt>
<pdfrwt beam="2">  1       -2 0.60284410E-04 0.29775284E+02</pdfrwt>
<totfact> 0.28689632E+05</totfact>
</mgrwt>
</event>
<event>
 4    1  0.1429937E+004  0.6356556E+02  0.7546771E-02  0.1383450E+00
          2   -1    0    0  501    0  0.00000000000E+00  0.00000000000E+00  0.95228668965E+03  0.95228668965E+03  0.00000000000E+00 0.  1.
         -2   -1    0    0    0  501 -0.00000000000E+00 -0.00000000000E+00 -0.18914050555E+03  0.18914050555E+03  0.00000000000E+00 0.  1.
          2    1    1    2  502    0  0.62804756082E+02  0.98052716032E+01  0.94584890925E+03  0.94798245758E+03  0.00000000000E+00 0.  1.
         -2    1    1    2    0  502 -0.62804756082E+02 -0.98052716032E+01 -0.18270272515E+03  0.19344473763E+03  0.00000000000E+00 0.  1.
<mgrwt>
<rscale>  2 0.63565563E+02</rscale>
<asrwt>0</asrwt>
<pdfrwt beam="1">  1        2 0.14650564E+00 0.63565563E+02</pdfrwt>
<pdfrwt beam="2">  1       -2 0.29098540E-01 0.63565563E+02</pdfrwt>
<totfact> 0.31861591E+02</totfact>
</mgrwt>
</event>
<event>
 4    1  0.1429937E+004  0.2802449E+02  0.7546771E-02  0.1621011E+00
         -2   -1    0    0    0  501 -0.00000000000E+00  0.00000000000E+00  0.25402792864E+02  0.25402792864E+02  0.00000000000E+00 0.  1.
          2   -1    0    0  501    0  0.00000000000E+00 -0.00000000000E+00 -0.47664141516E+02  0.47664141516E+02  0.00000000000E+00 0.  1.
          2    1    1    2  502    0  0.27986092773E+02  0.14664718219E+01 -0.32786189620E+02  0.43131266595E+02  0.00000000000E+00 0.  1.
         -2    1    1    2    0  502 -0.27986092773E+02 -0.14664718219E+01  0.10524840968E+02  0.29935667785E+02  0.00000000000E+00 0.  1.
<mgrwt>
<rscale>  2 0.28024488E+02</rscale>
<asrwt>0</asrwt>
<pdfrwt beam="2">  1        2 0.73329448E-02 0.28024488E+02</pdfrwt>
<pdfrwt beam="1">  1       -2 0.39081220E-02 0.28024488E+02</pdfrwt>
<totfact> 0.17298651E+05</totfact>
</mgrwt>
</event>
<event>
 4    1  0.1429937E+004  0.2055666E+02  0.7546771E-02  0.1734480E+00
          2   -1    0    0  501    0  0.00000000000E+00  0.00000000000E+00  0.71067108514E+02  0.71067108514E+02  0.00000000000E+00 0. -1.
         -2   -1    0    0    0  501 -0.00000000000E+00 -0.00000000000E+00 -0.61113105986E+01  0.61113105986E+01  0.00000000000E+00 0. -1.
          2    1    1    2  502    0 -0.15825825851E+02 -0.13119425411E+02  0.38821626671E+02  0.43928291389E+02  0.00000000000E+00 0. -1.
         -2    1    1    2    0  502  0.15825825851E+02  0.13119425411E+02  0.26134171244E+02  0.33250127723E+02  0.00000000000E+00 0. -1.
<mgrwt>
<rscale>  2 0.20556656E+02</rscale>
<asrwt>0</asrwt>
<pdfrwt beam="1">  1        2 0.10933401E-01 0.20556656E+02</pdfrwt>
<pdfrwt beam="2">  1       -2 0.94020168E-03 0.20556656E+02</pdfrwt>
<totfact> 0.70320882E+05</totfact>
</mgrwt>
</event>
<event>
 4    1  0.1429937E+004  0.2642309E+02  0.7546771E-02  0.1641365E+00
          2   -1    0    0  501    0  0.00000000000E+00  0.00000000000E+00  0.97998738375E+02  0.97998738375E+02  0.00000000000E+00 0.  1.
         -2   -1    0    0    0  501 -0.00000000000E+00 -0.00000000000E+00 -0.17004009228E+02  0.17004009228E+02  0.00000000000E+00 0. -1.
          2    1    1    2  502    0 -0.22820005322E+02 -0.13320175462E+02  0.84327518700E+02  0.88370301162E+02  0.00000000000E+00 0.  1.
         -2    1    1    2    0  502  0.22820005322E+02  0.13320175462E+02 -0.33327895539E+01  0.26632446441E+02  0.00000000000E+00 0. -1.
<mgrwt>
<rscale>  2 0.26423091E+02</rscale>
<asrwt>0</asrwt>
<pdfrwt beam="1">  1        2 0.15076729E-01 0.26423091E+02</pdfrwt>
<pdfrwt beam="2">  1       -2 0.26160015E-02 0.26423091E+02</pdfrwt>
<totfact> 0.13048585E+05</totfact>
</mgrwt>
</event>
<event>
 4    1  0.1429937E+004  0.2334469E+02  0.7546771E-02  0.1685983E+00
         -2   -1    0    0    0  501 -0.00000000000E+00  0.00000000000E+00  0.45008075818E+03  0.45008075818E+03  0.00000000000E+00 0.  1.
          2   -1    0    0  501    0  0.00000000000E+00 -0.00000000000E+00 -0.25776944544E+02  0.25776944544E+02  0.00000000000E+00 0.  1.
          2    1    1    2  502    0  0.22096850859E+02  0.75301935152E+01 -0.20121537424E+02  0.30819651208E+02  0.00000000000E+00 0.  1.
         -2    1    1    2    0  502 -0.22096850859E+02 -0.75301935152E+01  0.44442535106E+03  0.44503805151E+03  0.00000000000E+00 0.  1.
<mgrwt>
<rscale>  2 0.23344692E+02</rscale>
<asrwt>0</asrwt>
<pdfrwt beam="2">  1        2 0.39656841E-02 0.23344692E+02</pdfrwt>
<pdfrwt beam="1">  1       -2 0.69243188E-01 0.23344692E+02</pdfrwt>
<totfact> 0.32880121E+03</totfact>
</mgrwt>
</event>
<event>
 4    1  0.1429937E+004  0.2004698E+02  0.7546771E-02  0.1744395E+00
         -2   -1    0    0    0  501 -0.00000000000E+00  0.00000000000E+00  0.14115838899E+01  0.14115838899E+01  0.00000000000E+00 0.  1.
          2   -1    0    0  501    0  0.00000000000E+00 -0.00000000000E+00 -0.49745757683E+03  0.49745757683E+03  0.00000000000E+00 0.  1.
          2    1    1    2  502    0  0.17860856826E+02  0.91033655171E+01 -0.41114727244E+03  0.41163571408E+03  0.00000000000E+00 0.  1.
         -2    1    1    2    0  502 -0.17860856826E+02 -0.91033655171E+01 -0.84898720493E+02  0.87233446634E+02  0.00000000000E+00 0.  1.
<mgrwt>
<rscale>  2 0.20046982E+02</rscale>
<asrwt>0</asrwt>
<pdfrwt beam="2">  1        2 0.76532046E-01 0.20046982E+02</pdfrwt>
<pdfrwt beam="1">  1       -2 0.21716644E-03 0.20046982E+02</pdfrwt>
<totfact> 0.66342716E+05</totfact>
</mgrwt>
</event>
<event>
 4    1  0.1429937E+004  0.3592656E+02  0.7546771E-02  0.1540523E+00
          2   -1    0    0  501    0  0.00000000000E+00  0.00000000000E+00  0.38384443393E+02  0.38384443393E+02  0.00000000000E+00 0.  1.
         -2   -1    0    0    0  501 -0.00000000000E+00 -0.00000000000E+00 -0.50332263946E+03  0.50332263946E+03  0.00000000000E+00 0.  1.
          2    1    1    2  502    0 -0.34873075693E+02  0.86363342228E+01  0.29180446723E+02  0.46284080935E+02  0.00000000000E+00 0.  1.
         -2    1    1    2    0  502  0.34873075693E+02 -0.86363342228E+01 -0.49411864279E+03  0.49542300192E+03  0.00000000000E+00 0.  1.
<mgrwt>
<rscale>  2 0.35926559E+02</rscale>
<asrwt>0</asrwt>
<pdfrwt beam="1">  1        2 0.59052988E-02 0.35926559E+02</pdfrwt>
<pdfrwt beam="2">  1       -2 0.77434255E-01 0.35926559E+02</pdfrwt>
<totfact> 0.16789299E+03</totfact>
</mgrwt>
</event>
<event>
 4    1  0.1429937E+004  0.2397669E+02  0.7546771E-02  0.1676150E+00
         -2   -1    0    0    0  501 -0.00000000000E+00  0.00000000000E+00  0.40193229674E+01  0.40193229674E+01  0.00000000000E+00 0.  1.
          2   -1    0    0  501    0  0.00000000000E+00 -0.00000000000E+00 -0.25909400287E+03  0.25909400287E+03  0.00000000000E+00 0. -1.
          2    1    1    2  502    0 -0.49769837043E+01  0.23454454120E+02 -0.21558825260E+03  0.21691744154E+03  0.00000000000E+00 0. -1.
         -2    1    1    2    0  502  0.49769837043E+01 -0.23454454120E+02 -0.39486427295E+02  0.46195884291E+02  0.00000000000E+00 0.  1.
<mgrwt>
<rscale>  2 0.23976693E+02</rscale>
<asrwt>0</asrwt>
<pdfrwt beam="2">  1        2 0.39860635E-01 0.23976693E+02</pdfrwt>
<pdfrwt beam="1">  1       -2 0.61835708E-03 0.23976693E+02</pdfrwt>
<totfact> 0.33070109E+05</totfact>
</mgrwt>
</event>
<event>
 4    1  0.1429937E+004  0.3088380E+02  0.7546771E-02  0.1588520E+00
          2   -1    0    0  501    0  0.00000000000E+00  0.00000000000E+00  0.31004994350E+01  0.31004994350E+01  0.00000000000E+00 0.  1.
         -2   -1    0    0    0  501 -0.00000000000E+00 -0.00000000000E+00 -0.63657900361E+03  0.63657900361E+03  0.00000000000E+00 0. -1.
          2    1    1    2  502    0 -0.75241777913E+00 -0.30874628474E+02 -0.86822768334E+02  0.92152058670E+02  0.00000000000E+00 0.  1.
         -2    1    1    2    0  502  0.75241777913E+00  0.30874628474E+02 -0.54665573584E+03  0.54752744437E+03  0.00000000000E+00 0. -1.
<mgrwt>
<rscale>  2 0.30883795E+02</rscale>
<asrwt>0</asrwt>
<pdfrwt beam="1">  1        2 0.47699948E-03 0.30883795E+02</pdfrwt>
<pdfrwt beam="2">  1       -2 0.97935321E-01 0.30883795E+02</pdfrwt>
<totfact> 0.25846352E+04</totfact>
</mgrwt>
</event>
<event>
 4    1  0.1429937E+004  0.3442675E+02  0.7546771E-02  0.1553751E+00
         -2   -1    0    0    0  501 -0.00000000000E+00  0.00000000000E+00  0.24491922244E+01  0.24491922244E+01  0.00000000000E+00 0. -1.
          2   -1    0    0  501    0  0.00000000000E+00 -0.00000000000E+00 -0.15682934646E+04  0.15682934646E+04  0.00000000000E+00 0.  1.
          2    1    1    2  502    0  0.24665420063E+02  0.24017033484E+02 -0.14359802340E+04  0.14363928548E+04  0.00000000000E+00 0.  1.
         -2    1    1    2    0  502 -0.24665420063E+02 -0.24017033484E+02 -0.12986403837E+03  0.13434980203E+03  0.00000000000E+00 0. -1.
<mgrwt>
<rscale>  2 0.34426746E+02</rscale>
<asrwt>0</asrwt>
<pdfrwt beam="2">  1        2 0.24127503E+00 0.34426746E+02</pdfrwt>
<pdfrwt beam="1">  1       -2 0.37680018E-03 0.34426746E+02</pdfrwt>
<totfact> 0.86456395E+04</totfact>
</mgrwt>
</event>
<event>
 4    1  0.1429937E+004  0.3427212E+02  0.7546771E-02  0.1555161E+00
         -2   -1    0    0    0  501 -0.00000000000E+00  0.00000000000E+00  0.84579441297E+01  0.84579441297E+01  0.00000000000E+00 0.  1.
          2   -1    0    0  501    0  0.00000000000E+00 -0.00000000000E+00 -0.21410181776E+04  0.21410181776E+04  0.00000000000E+00 0.  1.
          2    1    1    2  502    0  0.27561494070E+02  0.20370131290E+02 -0.21055785168E+04  0.21058574189E+04  0.00000000000E+00 0.  1.
         -2    1    1    2    0  502 -0.27561494070E+02 -0.20370131290E+02 -0.26981716657E+02  0.43618702845E+02  0.00000000000E+00 0.  1.
<mgrwt>
<rscale>  2 0.34272120E+02</rscale>
<asrwt>0</asrwt>
<pdfrwt beam="2">  1        2 0.32938742E+00 0.34272120E+02</pdfrwt>
<pdfrwt beam="1">  1       -2 0.13012221E-02 0.34272120E+02</pdfrwt>
<totfact> 0.84693170E+03</totfact>
</mgrwt>
</event>
<event>
 4    1  0.1429937E+004  0.2032830E+02  0.7546771E-02  0.1738877E+00
          2   -1    0    0  501    0  0.00000000000E+00  0.00000000000E+00  0.61432656793E+03  0.61432656793E+03  0.00000000000E+00 0.  1.
         -2   -1    0    0    0  501 -0.00000000000E+00 -0.00000000000E+00 -0.24517153571E+01  0.24517153571E+01  0.00000000000E+00 0.  1.
          2    1    1    2  502    0  0.44845071460E+01  0.19827481895E+02  0.56863581427E+03  0.56899905897E+03  0.00000000000E+00 0.  1.
         -2    1    1    2    0  502 -0.44845071460E+01 -0.19827481895E+02  0.43239038305E+02  0.47779224315E+02  0.00000000000E+00 0.  1.
<mgrwt>
<rscale>  2 0.20328302E+02</rscale>
<asrwt>0</asrwt>
<pdfrwt beam="1">  1        2 0.94511657E-01 0.20328302E+02</pdfrwt>
<pdfrwt beam="2">  1       -2 0.37718747E-03 0.20328302E+02</pdfrwt>
<totfact> 0.25872322E+05</totfact>
</mgrwt>
</event>
<event>
 4    1  0.1429937E+004  0.2747306E+02  0.7546771E-02  0.1627827E+00
          2   -1    0    0  501    0  0.00000000000E+00  0.00000000000E+00  0.12996330748E+03  0.12996330748E+03  0.00000000000E+00 0. -1.
         -2   -1    0    0    0  501 -0.00000000000E+00 -0.00000000000E+00 -0.12299621778E+03  0.12299621778E+03  0.00000000000E+00 0. -1.
          2    1    1    2  502    0 -0.15035642107E+02 -0.22993446141E+02  0.12694118240E+03  0.12988007117E+03  0.00000000000E+00 0. -1.
         -2    1    1    2    0  502  0.15035642107E+02  0.22993446141E+02 -0.11997409270E+03  0.12307945409E+03  0.00000000000E+00 0. -1.
<mgrwt>
<rscale>  2 0.27473061E+02</rscale>
<asrwt>0</asrwt>
<pdfrwt beam="1">  1        2 0.19994355E-01 0.27473061E+02</pdfrwt>
<pdfrwt beam="2">  1       -2 0.18922495E-01 0.27473061E+02</pdfrwt>
<totfact> 0.52606905E+03</totfact>
</mgrwt>
</event>
<event>
 4    1  0.1429937E+004  0.4206939E+02  0.7546771E-02  0.1493513E+00
         -2   -1    0    0    0  501 -0.00000000000E+00  0.00000000000E+00  0.16853918925E+02  0.16853918925E+02  0.00000000000E+00 0. -1.
          2   -1    0    0  501    0  0.00000000000E+00 -0.00000000000E+00 -0.15479254114E+03  0.15479254114E+03  0.00000000000E+00 0. -1.
          2    1    1    2  502    0  0.34218485865E+01  0.41929995440E+02 -0.11763999575E+03  0.12493599227E+03  0.00000000000E+00 0. -1.
         -2    1    1    2    0  502 -0.34218485865E+01 -0.41929995440E+02 -0.20298626472E+02  0.46710467799E+02  0.00000000000E+00 0. -1.
<mgrwt>
<rscale>  2 0.42069390E+02</rscale>
<asrwt>0</asrwt>
<pdfrwt beam="2">  1        2 0.23814238E-01 0.42069390E+02</pdfrwt>
<pdfrwt beam="1">  1       -2 0.25929105E-02 0.42069390E+02</pdfrwt>
<totfact> 0.89066550E+04</totfact>
</mgrwt>
</event>
<event>
 4    1  0.1429937E+004  0.2512530E+02  0.7546771E-02  0.1659209E+00
          2   -1    0    0  501    0  0.00000000000E+00  0.00000000000E+00  0.60135659717E+03  0.60135659717E+03  0.00000000000E+00 0.  1.
         -2   -1    0    0    0  501 -0.00000000000E+00 -0.00000000000E+00 -0.45749682398E+01  0.45749682398E+01  0.00000000000E+00 0.  1.
          2    1    1    2  502    0 -0.24048753774E+02 -0.72758473791E+01  0.56433584896E+03  0.56489488485E+03  0.00000000000E+00 0.  1.
         -2    1    1    2    0  502  0.24048753774E+02  0.72758473791E+01  0.32445779972E+02  0.41036680557E+02  0.00000000000E+00 0.  1.
<mgrwt>
<rscale>  2 0.25125296E+02</rscale>
<asrwt>0</asrwt>
<pdfrwt beam="1">  1        2 0.92516337E-01 0.25125296E+02</pdfrwt>
<pdfrwt beam="2">  1       -2 0.70384174E-03 0.25125296E+02</pdfrwt>
<totfact> 0.12096622E+05</totfact>
</mgrwt>
</event>
<event>
 4    1  0.1429937E+004  0.3785246E+02  0.7546771E-02  0.1524637E+00
         -2   -1    0    0    0  501 -0.00000000000E+00  0.00000000000E+00  0.41117264700E+02  0.41117264700E+02  0.00000000000E+00 0. -1.
          2   -1    0    0  501    0  0.00000000000E+00 -0.00000000000E+00 -0.70306428904E+02  0.70306428904E+02  0.00000000000E+00 0. -1.
          2    1    1    2  502    0 -0.37565727259E+02  0.46502869783E+01 -0.54160071573E+02  0.66076640246E+02  0.00000000000E+00 0. -1.
         -2    1    1    2    0  502  0.37565727259E+02 -0.46502869783E+01  0.24970907368E+02  0.45347053358E+02  0.00000000000E+00 0. -1.
<mgrwt>
<rscale>  2 0.37852464E+02</rscale>
<asrwt>0</asrwt>
<pdfrwt beam="2">  1        2 0.10816374E-01 0.37852464E+02</pdfrwt>
<pdfrwt beam="1">  1       -2 0.63257330E-02 0.37852464E+02</pdfrwt>
<totfact> 0.58420739E+04</totfact>
</mgrwt>
</event>
<event>
 4    1  0.1429937E+004  0.2112742E+02  0.7546771E-02  0.1723795E+00
         -2   -1    0    0    0  501 -0.00000000000E+00  0.00000000000E+00  0.82985360729E+02  0.82985360729E+02  0.00000000000E+00 0.  1.
          2   -1    0    0  501    0  0.00000000000E+00 -0.00000000000E+00 -0.12700700170E+03  0.12700700170E+03  0.00000000000E+00 0. -1.
          2    1    1    2  502    0  0.96826755486E+01 -0.18778013096E+02 -0.12475960162E+03  0.12653586914E+03  0.00000000000E+00 0. -1.
         -2    1    1    2    0  502 -0.96826755486E+01  0.18778013096E+02  0.80737960653E+02  0.83456493289E+02  0.00000000000E+00 0.  1.
<mgrwt>
<rscale>  2 0.21127423E+02</rscale>
<asrwt>0</asrwt>
<pdfrwt beam="2">  1        2 0.19539539E-01 0.21127423E+02</pdfrwt>
<pdfrwt beam="1">  1       -2 0.12766979E-01 0.21127423E+02</pdfrwt>
<totfact> 0.96063001E+03</totfact>
</mgrwt>
</event>
<event>
 4    1  0.1429937E+004  0.4087950E+02  0.7546771E-02  0.1501837E+00
          2   -1    0    0  501    0  0.00000000000E+00  0.00000000000E+00  0.13977128056E+02  0.13977128056E+02  0.00000000000E+00 0.  1.
         -2   -1    0    0    0  501 -0.00000000000E+00 -0.00000000000E+00 -0.38080820718E+03  0.38080820718E+03  0.00000000000E+00 0.  1.
          2    1    1    2  502    0 -0.94794718970E+01 -0.39765224791E+02 -0.19921148864E+02  0.45475110359E+02  0.00000000000E+00 0.  1.
         -2    1    1    2    0  502  0.94794718970E+01  0.39765224791E+02 -0.34690993026E+03  0.34931022487E+03  0.00000000000E+00 0.  1.
<mgrwt>
<rscale>  2 0.40879500E+02</rscale>
<asrwt>0</asrwt>
<pdfrwt beam="1">  1        2 0.21503274E-02 0.40879500E+02</pdfrwt>
<pdfrwt beam="2">  1       -2 0.58585879E-01 0.40879500E+02</pdfrwt>
<totfact> 0.10972040E+04</totfact>
</mgrwt>
</event>
<event>
 4    1  0.1429937E+004  0.2403758E+02  0.7546771E-02  0.1675223E+00
         -2   -1    0    0    0  501 -0.00000000000E+00  0.00000000000E+00  0.34236239072E+01  0.34236239072E+01  0.00000000000E+00 0. -1.
          2   -1    0    0  501    0  0.00000000000E+00 -0.00000000000E+00 -0.34014672416E+03  0.34014672416E+03  0.00000000000E+00 0. -1.
          2    1    1    2  502    0  0.20667467195E+02 -0.12274408528E+02 -0.29029653846E+03  0.29129003681E+03  0.00000000000E+00 0. -1.
         -2    1    1    2    0  502 -0.20667467195E+02  0.12274408528E+02 -0.46426561800E+02  0.52280311261E+02  0.00000000000E+00 0. -1.
<mgrwt>
<rscale>  2 0.24037581E+02</rscale>
<asrwt>0</asrwt>
<pdfrwt beam="2">  1        2 0.52330296E-01 0.24037581E+02</pdfrwt>
<pdfrwt beam="1">  1       -2 0.52671107E-03 0.24037581E+02</pdfrwt>
<totfact> 0.31376346E+05</totfact>
</mgrwt>
</event>
<event>
 4    1  0.1429937E+004  0.2039648E+02  0.7546771E-02  0.1737557E+00
         -2   -1    0    0    0  501 -0.00000000000E+00  0.00000000000E+00  0.17936727729E+02  0.17936727729E+02  0.00000000000E+00 0.  1.
          2   -1    0    0  501    0  0.00000000000E+00 -0.00000000000E+00 -0.25574572093E+02  0.25574572093E+02  0.00000000000E+00 0. -1.
          2    1    1    2  502    0 -0.20061086302E+02 -0.36836485695E+01 -0.10457106183E+02  0.22920897019E+02  0.00000000000E+00 0. -1.
         -2    1    1    2    0  502  0.20061086302E+02  0.36836485695E+01  0.28192618194E+01  0.20590402804E+02  0.00000000000E+00 0.  1.
<mgrwt>
<rscale>  2 0.20396481E+02</rscale>
<asrwt>0</asrwt>
<pdfrwt beam="2">  1        2 0.39345495E-02 0.20396481E+02</pdfrwt>
<pdfrwt beam="1">  1       -2 0.27594966E-02 0.20396481E+02</pdfrwt>
<totfact> 0.54705726E+05</totfact>
</mgrwt>
</event>
<event>
 4    1  0.1429937E+004  0.2319973E+02  0.7546771E-02  0.1688293E+00
         -2   -1    0    0    0  501 -0.00000000000E+00  0.00000000000E+00  0.72681382631E+00  0.72681382631E+00  0.00000000000E+00 0.  1.
          2   -1    0    0  501    0  0.00000000000E+00 -0.00000000000E+00 -0.86577366384E+03  0.86577366384E+03  0.00000000000E+00 0. -1.
          2    1    1    2  502    0 -0.23168522563E+02  0.12028846970E+01 -0.59730728908E+03  0.59775766408E+03  0.00000000000E+00 0. -1.
         -2    1    1    2    0  502  0.23168522563E+02 -0.12028846970E+01 -0.26773956093E+03  0.26874281359E+03  0.00000000000E+00 0.  1.
<mgrwt>
<rscale>  2 0.23199728E+02</rscale>
<asrwt>0</asrwt>
<pdfrwt beam="2">  1        2 0.13319601E+00 0.23199728E+02</pdfrwt>
<pdfrwt beam="1">  1       -2 0.11181746E-03 0.23199728E+02</pdfrwt>
<totfact> 0.92098218E+05</totfact>
</mgrwt>
</event>
<event>
 4    1  0.1429937E+004  0.3624395E+02  0.7546771E-02  0.1537823E+00
         -2   -1    0    0    0  501 -0.00000000000E+00  0.00000000000E+00  0.76577692421E+02  0.76577692421E+02  0.00000000000E+00 0. -1.
          2   -1    0    0  501    0  0.00000000000E+00 -0.00000000000E+00 -0.21298690693E+03  0.21298690693E+03  0.00000000000E+00 0.  1.
          2    1    1    2  502    0  0.31828633081E+02 -0.17336726680E+02 -0.20703408958E+03  0.21018263064E+03  0.00000000000E+00 0.  1.
         -2    1    1    2    0  502 -0.31828633081E+02  0.17336726680E+02  0.70624875075E+02  0.79381968703E+02  0.00000000000E+00 0. -1.
<mgrwt>
<rscale>  2 0.36243951E+02</rscale>
<asrwt>0</asrwt>
<pdfrwt beam="2">  1        2 0.32767216E-01 0.36243951E+02</pdfrwt>
<pdfrwt beam="1">  1       -2 0.11781184E-01 0.36243951E+02</pdfrwt>
<totfact> 0.68243142E+03</totfact>
</mgrwt>
</event>
<event>
 4    1  0.1429937E+004  0.5133464E+02  0.7546771E-02  0.1438273E+00
          2   -1    0    0  501    0  0.00000000000E+00  0.00000000000E+00  0.10157049471E+04  0.10157049471E+04  0.00000000000E+00 0. -1.
         -2   -1    0    0    0  501 -0.00000000000E+00 -0.00000000000E+00 -0.68647176180E+01  0.68647176180E+01  0.00000000000E+00 0. -1.
          2    1    1    2  502    0 -0.50391344960E+02  0.97958009382E+01  0.90767220838E+03  0.90912269976E+03  0.00000000000E+00 0. -1.
         -2    1    1    2    0  502  0.50391344960E+02 -0.97958009382E+01  0.10116802109E+03  0.11344696494E+03  0.00000000000E+00 0. -1.
<mgrwt>
<rscale>  2 0.51334641E+02</rscale>
<asrwt>0</asrwt>
<pdfrwt beam="1">  1        2 0.15626218E+00 0.51334641E+02</pdfrwt>
<pdfrwt beam="2">  1       -2 0.10561112E-02 0.51334641E+02</pdfrwt>
<totfact> 0.42704880E+04</totfact>
</mgrwt>
</event>
<event>
 4    1  0.1429937E+004  0.2004876E+02  0.7546771E-02  0.1744360E+00
         -2   -1    0    0    0  501 -0.00000000000E+00  0.00000000000E+00  0.44606378749E+01  0.44606378749E+01  0.00000000000E+00 0. -1.
          2   -1    0    0  501    0  0.00000000000E+00 -0.00000000000E+00 -0.52875306698E+03  0.52875306698E+03  0.00000000000E+00 0. -1.
          2    1    1    2  502    0  0.17297957251E+02 -0.10135744724E+02 -0.50497489828E+03  0.50537273427E+03  0.00000000000E+00 0. -1.
         -2    1    1    2    0  502 -0.17297957251E+02  0.10135744724E+02 -0.19317530825E+02  0.27840970589E+02  0.00000000000E+00 0. -1.
<mgrwt>
<rscale>  2 0.20048757E+02</rscale>
<asrwt>0</asrwt>
<pdfrwt beam="2">  1        2 0.81346615E-01 0.20048757E+02</pdfrwt>
<pdfrwt beam="1">  1       -2 0.68625207E-03 0.20048757E+02</pdfrwt>
<totfact> 0.13539160E+05</totfact>
</mgrwt>
</event>
<event>
 4    1  0.1429937E+004  0.3192643E+02  0.7546771E-02  0.1577721E+00
          2   -1    0    0  501    0  0.00000000000E+00  0.00000000000E+00  0.64566802349E+03  0.64566802349E+03  0.00000000000E+00 0.  1.
         -2   -1    0    0    0  501 -0.00000000000E+00 -0.00000000000E+00 -0.17254414288E+01  0.17254414288E+01  0.00000000000E+00 0.  1.
          2    1    1    2  502    0  0.13709019586E+02 -0.28833309527E+02  0.41637921923E+03  0.41760142620E+03  0.00000000000E+00 0.  1.
         -2    1    1    2    0  502 -0.13709019586E+02  0.28833309527E+02  0.22756336284E+03  0.22979203872E+03  0.00000000000E+00 0.  1.
<mgrwt>
<rscale>  2 0.31926430E+02</rscale>
<asrwt>0</asrwt>
<pdfrwt beam="1">  1        2 0.99333349E-01 0.31926430E+02</pdfrwt>
<pdfrwt beam="2">  1       -2 0.26545304E-03 0.31926430E+02</pdfrwt>
<totfact> 0.44198226E+05</totfact>
</mgrwt>
</event>
<event>
 4    1  0.1429937E+004  0.2442276E+02  0.7546771E-02  0.1669434E+00
          2   -1    0    0  501    0  0.00000000000E+00  0.00000000000E+00  0.28449991190E+03  0.28449991190E+03  0.00000000000E+00 0. -1.
         -2   -1    0    0    0  501 -0.00000000000E+00 -0.00000000000E+00 -0.67631623909E+01  0.67631623909E+01  0.00000000000E+00 0.  1.
          2    1    1    2  502    0  0.24409400153E+02 -0.80776785709E+00  0.25983927085E+03  0.26098451674E+03  0.00000000000E+00 0. -1.
         -2    1    1    2    0  502 -0.24409400153E+02  0.80776785709E+00  0.17897478660E+02  0.30278557547E+02  0.00000000000E+00 0.  1.
<mgrwt>
<rscale>  2 0.24422762E+02</rscale>
<asrwt>0</asrwt>
<pdfrwt beam="1">  1        2 0.43769208E-01 0.24422762E+02</pdfrwt>
<pdfrwt beam="2">  1       -2 0.10404867E-02 0.24422762E+02</pdfrwt>
<totfact> 0.15001841E+05</totfact>
</mgrwt>
</event>
<event>
 4    1  0.1429937E+004  0.2219182E+02  0.7546771E-02  0.1704956E+00
         -2   -1    0    0    0  501 -0.00000000000E+00  0.00000000000E+00  0.17245421170E+01  0.17245421170E+01  0.00000000000E+00 0. -1.
          2   -1    0    0  501    0  0.00000000000E+00 -0.00000000000E+00 -0.65485233443E+03  0.65485233443E+03  0.00000000000E+00 0. -1.
          2    1    1    2  502    0 -0.16034102405E+02  0.15342241354E+02 -0.57309027524E+03  0.57351978203E+03  0.00000000000E+00 0. -1.
         -2    1    1    2    0  502  0.16034102405E+02 -0.15342241354E+02 -0.80037517072E+02  0.83057094512E+02  0.00000000000E+00 0. -1.
<mgrwt>
<rscale>  2 0.22191819E+02</rscale>
<asrwt>0</asrwt>
<pdfrwt beam="2">  1        2 0.10074648E+00 0.22191819E+02</pdfrwt>
<pdfrwt beam="1">  1       -2 0.26531425E-03 0.22191819E+02</pdfrwt>
<totfact> 0.39548595E+05</totfact>
</mgrwt>
</event>
<event>
 4    1  0.1429937E+004  0.6482449E+02  0.7546771E-02  0.1378633E+00
          2   -1    0    0  501    0  0.00000000000E+00  0.00000000000E+00  0.47675309518E+03  0.47675309518E+03  0.00000000000E+00 0.  1.
         -2   -1    0    0    0  501 -0.00000000000E+00 -0.00000000000E+00 -0.40450824723E+02  0.40450824723E+02  0.00000000000E+00 0.  1.
          2    1    1    2  502    0 -0.35210961901E+02 -0.54427956488E+02  0.44684944046E+03  0.45152700554E+03  0.00000000000E+00 0.  1.
         -2    1    1    2    0  502  0.35210961901E+02  0.54427956488E+02 -0.10547170008E+02  0.65676914367E+02  0.00000000000E+00 0.  1.
<mgrwt>
<rscale>  2 0.64824488E+02</rscale>
<asrwt>0</asrwt>
<pdfrwt beam="1">  1        2 0.73346626E-01 0.64824488E+02</pdfrwt>
<pdfrwt beam="2">  1       -2 0.62232041E-02 0.64824488E+02</pdfrwt>
<totfact> 0.82872084E+03</totfact>
</mgrwt>
</event>
<event>
 4    1  0.1429937E+004  0.2250074E+02  0.7546771E-02  0.1699733E+00
         -2   -1    0    0    0  501 -0.00000000000E+00  0.00000000000E+00  0.50903317075E+03  0.50903317075E+03  0.00000000000E+00 0.  1.
          2   -1    0    0  501    0  0.00000000000E+00 -0.00000000000E+00 -0.74836860140E+03  0.74836860140E+03  0.00000000000E+00 0. -1.
          2    1    1    2  502    0 -0.17674952187E+02  0.13924050228E+02 -0.74795068420E+03  0.74828905452E+03  0.00000000000E+00 0. -1.
         -2    1    1    2    0  502  0.17674952187E+02 -0.13924050228E+02  0.50861525355E+03  0.50911271763E+03  0.00000000000E+00 0.  1.
<mgrwt>
<rscale>  2 0.22500736E+02</rscale>
<asrwt>0</asrwt>
<pdfrwt beam="2">  1        2 0.11513363E+00 0.22500736E+02</pdfrwt>
<pdfrwt beam="1">  1       -2 0.78312796E-01 0.22500736E+02</pdfrwt>
<totfact> 0.65839190E+01</totfact>
</mgrwt>
</event>
<event>
 4    1  0.1429937E+004  0.3792852E+02  0.7546771E-02  0.1524033E+00
         -2   -1    0    0    0  501 -0.00000000000E+00  0.00000000000E+00  0.21718993259E+04  0.21718993259E+04  0.00000000000E+00 0.  1.
          2   -1    0    0  501    0  0.00000000000E+00 -0.00000000000E+00 -0.37548144043E+01  0.37548144043E+01  0.00000000000E+00 0.  1.
          2    1    1    2  502    0  0.35743467040E+02  0.12687663870E+02  0.96844168869E+02  0.10400656371E+03  0.00000000000E+00 0.  1.
         -2    1    1    2    0  502 -0.35743467040E+02 -0.12687663870E+02  0.20713003426E+04  0.20716475766E+04  0.00000000000E+00 0.  1.
<mgrwt>
<rscale>  2 0.37928515E+02</rscale>
<asrwt>0</asrwt>
<pdfrwt beam="2">  1        2 0.57766549E-03 0.37928515E+02</pdfrwt>
<pdfrwt beam="1">  1       -2 0.33413735E+00 0.37928515E+02</pdfrwt>
<totfact> 0.65551742E+02</totfact>
</mgrwt>
</event>
<event>
 4    1  0.1429937E+004  0.3843921E+02  0.7546771E-02  0.1520022E+00
          2   -1    0    0  501    0  0.00000000000E+00  0.00000000000E+00  0.39820585777E+02  0.39820585777E+02  0.00000000000E+00 0.  1.
         -2   -1    0    0    0  501 -0.00000000000E+00 -0.00000000000E+00 -0.39824398382E+02  0.39824398382E+02  0.00000000000E+00 0.  1.
          2    1    1    2  502    0 -0.35509258842E+02  0.14719548515E+02  0.10402818586E+02  0.39821994005E+02  0.00000000000E+00 0.  1.
         -2    1    1    2    0  502  0.35509258842E+02 -0.14719548515E+02 -0.10406631192E+02  0.39822990153E+02  0.00000000000E+00 0.  1.
<mgrwt>
<rscale>  2 0.38439206E+02</rscale>
<asrwt>0</asrwt>
<pdfrwt beam="1">  1        2 0.61262440E-02 0.38439206E+02</pdfrwt>
<pdfrwt beam="2">  1       -2 0.61268305E-02 0.38439206E+02</pdfrwt>
<totfact> 0.12144205E+05</totfact>
</mgrwt>
</event>
<event>
 4    1  0.1429937E+004  0.3419053E+02  0.7546771E-02  0.1555909E+00
          2   -1    0    0  501    0  0.00000000000E+00  0.00000000000E+00  0.28917152839E+03  0.28917152839E+03  0.00000000000E+00 0. -1.
         -2   -1    0    0    0  501 -0.00000000000E+00 -0.00000000000E+00 -0.84289920795E+02  0.84289920795E+02  0.00000000000E+00 0.  1.
          2    1    1    2  502    0 -0.22460777863E+01 -0.34116673641E+02  0.28463869568E+03  0.28668480839E+03  0.00000000000E+00 0. -1.
         -2    1    1    2    0  502  0.22460777863E+01  0.34116673641E+02 -0.79757088089E+02  0.86776640787E+02  0.00000000000E+00 0.  1.
<mgrwt>
<rscale>  2 0.34190529E+02</rscale>
<asrwt>0</asrwt>
<pdfrwt beam="1">  1        2 0.44487927E-01 0.34190529E+02</pdfrwt>
<pdfrwt beam="2">  1       -2 0.12967680E-01 0.34190529E+02</pdfrwt>
<totfact> 0.42905976E+03</totfact>
</mgrwt>
</event>
<event>
 4    1  0.1429937E+004  0.2096765E+02  0.7546771E-02  0.1726743E+00
          2   -1    0    0  501    0  0.00000000000E+00  0.00000000000E+00  0.22424059460E+02  0.22424059460E+02  0.00000000000E+00 0. -1.
         -2   -1    0    0    0  501 -0.00000000000E+00 -0.00000000000E+00 -0.11838008943E+03  0.11838008943E+03  0.00000000000E+00 0.  1.
          2    1    1    2  502    0 -0.16000628291E+01  0.20906508144E+02  0.16330431256E+02  0.26576780634E+02  0.00000000000E+00 0. -1.
         -2    1    1    2    0  502  0.16000628291E+01 -0.20906508144E+02 -0.11228646123E+03  0.11422736826E+03  0.00000000000E+00 0.  1.
<mgrwt>
<rscale>  2 0.20967649E+02</rscale>
<asrwt>0</asrwt>
<pdfrwt beam="1">  1        2 0.34498553E-02 0.20967649E+02</pdfrwt>
<pdfrwt beam="2">  1       -2 0.18212321E-01 0.20967649E+02</pdfrwt>
<totfact> 0.41538201E+04</totfact>
</mgrwt>
</event>
<event>
 4    1  0.1429937E+004  0.2736506E+02  0.7546771E-02  0.1629185E+00
          2   -1    0    0  501    0  0.00000000000E+00  0.00000000000E+00  0.26354934852E+03  0.26354934852E+03  0.00000000000E+00 0. -1.
         -2   -1    0    0    0  501 -0.00000000000E+00 -0.00000000000E+00 -0.28654130253E+01  0.28654130253E+01  0.00000000000E+00 0. -1.
          2    1    1    2  502    0 -0.45220063951E+01  0.26988839803E+02  0.11814464376E+03  0.12127243242E+03  0.00000000000E+00 0. -1.
         -2    1    1    2    0  502  0.45220063951E+01 -0.26988839803E+02  0.14253929173E+03  0.14514232912E+03  0.00000000000E+00 0. -1.
<mgrwt>
<rscale>  2 0.27365065E+02</rscale>
<asrwt>0</asrwt>
<pdfrwt beam="1">  1        2 0.40546035E-01 0.27365065E+02</pdfrwt>
<pdfrwt beam="2">  1       -2 0.44083298E-03 0.27365065E+02</pdfrwt>
<totfact> 0.53223384E+05</totfact>
</mgrwt>
</event>
<event>
 4    1  0.1429937E+004  0.2915694E+02  0.7546771E-02  0.1607599E+00
         -2   -1    0    0    0  501 -0.00000000000E+00  0.00000000000E+00  0.12030861144E+03  0.12030861144E+03  0.00000000000E+00 0. -1.
          2   -1    0    0  501    0  0.00000000000E+00 -0.00000000000E+00 -0.60043424620E+02  0.60043424620E+02  0.00000000000E+00 0.  1.
          2    1    1    2  502    0 -0.26838905295E+02 -0.11393006527E+02 -0.54571195073E+02  0.61871986932E+02  0.00000000000E+00 0.  1.
         -2    1    1    2    0  502  0.26838905295E+02  0.11393006527E+02  0.11483638190E+03  0.11848004913E+03  0.00000000000E+00 0. -1.
<mgrwt>
<rscale>  2 0.29156945E+02</rscale>
<asrwt>0</asrwt>
<pdfrwt beam="2">  1        2 0.92374499E-02 0.29156945E+02</pdfrwt>
<pdfrwt beam="1">  1       -2 0.18509017E-01 0.29156945E+02</pdfrwt>
<totfact> 0.13057645E+04</totfact>
</mgrwt>
</event>
<event>
 4    1  0.1429937E+004  0.5084664E+02  0.7546771E-02  0.1440828E+00
          2   -1    0    0  501    0  0.00000000000E+00  0.00000000000E+00  0.94244689667E+03  0.94244689667E+03  0.00000000000E+00 0.  1.
         -2   -1    0    0    0  501 -0.00000000000E+00 -0.00000000000E+00 -0.16311293109E+02  0.16311293109E+02  0.00000000000E+00 0.  1.
          2    1    1    2  502    0  0.48367565981E+02  0.15683080984E+02  0.90028101796E+03  0.90171574887E+03  0.00000000000E+00 0.  1.
         -2    1    1    2    0  502 -0.48367565981E+02 -0.15683080984E+02  0.25854585606E+02  0.57042440910E+02  0.00000000000E+00 0.  1.
<mgrwt>
<rscale>  2 0.50846637E+02</rscale>
<asrwt>0</asrwt>
<pdfrwt beam="1">  1        2 0.14499179E+00 0.50846637E+02</pdfrwt>
<pdfrwt beam="2">  1       -2 0.25094304E-02 0.50846637E+02</pdfrwt>
<totfact> 0.13929198E+04</totfact>
</mgrwt>
</event>
<event>
 4    1  0.1429937E+004  0.3118366E+02  0.7546771E-02  0.1585362E+00
         -2   -1    0    0    0  501 -0.00000000000E+00  0.00000000000E+00  0.92327449621E+02  0.92327449621E+02  0.00000000000E+00 0.  1.
          2   -1    0    0  501    0  0.00000000000E+00 -0.00000000000E+00 -0.21635046704E+03  0.21635046704E+03  0.00000000000E+00 0.  1.
          2    1    1    2  502    0 -0.29767704397E+02  0.92900067902E+01 -0.21254685943E+03  0.21482222395E+03  0.00000000000E+00 0.  1.
         -2    1    1    2    0  502  0.29767704397E+02 -0.92900067902E+01  0.88523842004E+02  0.93855692712E+02  0.00000000000E+00 0.  1.
<mgrwt>
<rscale>  2 0.31183657E+02</rscale>
<asrwt>0</asrwt>
<pdfrwt beam="2">  1        2 0.33284687E-01 0.31183657E+02</pdfrwt>
<pdfrwt beam="1">  1       -2 0.14204223E-01 0.31183657E+02</pdfrwt>
<totfact> 0.49451329E+03</totfact>
</mgrwt>
</event>
<event>
 4    1  0.1429937E+004  0.2837698E+02  0.7546771E-02  0.1616754E+00
         -2   -1    0    0    0  501 -0.00000000000E+00  0.00000000000E+00  0.73080015834E+01  0.73080015834E+01  0.00000000000E+00 0. -1.
          2   -1    0    0  501    0  0.00000000000E+00 -0.00000000000E+00 -0.11179216411E+03  0.11179216411E+03  0.00000000000E+00 0. -1.
          2    1    1    2  502    0  0.26897610908E+02  0.90427082644E+01 -0.45107988654E+02  0.53291487929E+02  0.00000000000E+00 0. -1.
         -2    1    1    2    0  502 -0.26897610908E+02 -0.90427082644E+01 -0.59376173876E+02  0.65808677767E+02  0.00000000000E+00 0. -1.
<mgrwt>
<rscale>  2 0.28376977E+02</rscale>
<asrwt>0</asrwt>
<pdfrwt beam="2">  1        2 0.17198795E-01 0.28376977E+02</pdfrwt>
<pdfrwt beam="1">  1       -2 0.11243079E-02 0.28376977E+02</pdfrwt>
<totfact> 0.36801717E+05</totfact>
</mgrwt>
</event>
<event>
 4    1  0.1429937E+004  0.2075094E+02  0.7546771E-02  0.1730794E+00
         -2   -1    0    0    0  501 -0.00000000000E+00  0.00000000000E+00  0.25489131698E+01  0.25489131698E+01  0.00000000000E+00 0.  1.
          2   -1    0    0  501    0  0.00000000000E+00 -0.00000000000E+00 -0.71808187248E+03  0.71808187248E+03  0.00000000000E+00 0. -1.
          2    1    1    2  502    0  0.19110713123E+02 -0.80859235962E+01 -0.67286035117E+03  0.67318025349E+03  0.00000000000E+00 0. -1.
         -2    1    1    2    0  502 -0.19110713123E+02  0.80859235962E+01 -0.42672608141E+02  0.47450532158E+02  0.00000000000E+00 0.  1.
<mgrwt>
<rscale>  2 0.20750940E+02</rscale>
<asrwt>0</asrwt>
<pdfrwt beam="2">  1        2 0.11047413E+00 0.20750940E+02</pdfrwt>
<pdfrwt beam="1">  1       -2 0.39214051E-03 0.20750940E+02</pdfrwt>
<totfact> 0.20932375E+05</totfact>
</mgrwt>
</event>
<event>
 4    1  0.1429937E+004  0.2025688E+02  0.7546771E-02  0.1740267E+00
          2   -1    0    0  501    0  0.00000000000E+00  0.00000000000E+00  0.79632143089E+02  0.79632143089E+02  0.00000000000E+00 0. -1.
         -2   -1    0    0    0  501 -0.00000000000E+00 -0.00000000000E+00 -0.57491079653E+01  0.57491079653E+01  0.00000000000E+00 0. -1.
          2    1    1    2  502    0 -0.18781549337E+02  0.75891018545E+01  0.50688588319E+02  0.54586390687E+02  0.00000000000E+00 0. -1.
         -2    1    1    2    0  502  0.18781549337E+02 -0.75891018545E+01  0.23194446805E+02  0.30794860368E+02  0.00000000000E+00 0. -1.
<mgrwt>
<rscale>  2 0.20256877E+02</rscale>
<asrwt>0</asrwt>
<pdfrwt beam="1">  1        2 0.12251098E-01 0.20256877E+02</pdfrwt>
<pdfrwt beam="2">  1       -2 0.88447821E-03 0.20256877E+02</pdfrwt>
<totfact> 0.66834405E+05</totfact>
</mgrwt>
</event>
<event>
 4    1  0.1429937E+004  0.2384114E+02  0.7546771E-02  0.1678227E+00
          2   -1    0    0  501    0  0.00000000000E+00  0.00000000000E+00  0.15182340324E+04  0.15182340324E+04  0.00000000000E+00 0.  1.
         -2   -1    0    0    0  501 -0.00000000000E+00 -0.00000000000E+00 -0.10789772238E+02  0.10789772238E+02  0.00000000000E+00 0. -1.
          2    1    1    2  502    0 -0.13943852129E+02  0.19338272698E+02  0.15048534679E+04  0.15050423116E+04  0.00000000000E+00 0.  1.
         -2    1    1    2    0  502  0.13943852129E+02 -0.19338272698E+02  0.25907922282E+01  0.23981493021E+02  0.00000000000E+00 0. -1.
<mgrwt>
<rscale>  2 0.23841137E+02</rscale>
<asrwt>0</asrwt>
<pdfrwt beam="1">  1        2 0.23357430E+00 0.23841137E+02</pdfrwt>
<pdfrwt beam="2">  1       -2 0.16599662E-02 0.23841137E+02</pdfrwt>
<totfact> 0.11581551E+04</totfact>
</mgrwt>
</event>
<event>
 4    1  0.1429937E+004  0.2036213E+02  0.7546771E-02  0.1738221E+00
         -2   -1    0    0    0  501 -0.00000000000E+00  0.00000000000E+00  0.21363096753E+01  0.21363096753E+01  0.00000000000E+00 0. -1.
          2   -1    0    0  501    0  0.00000000000E+00 -0.00000000000E+00 -0.61839489840E+03  0.61839489840E+03  0.00000000000E+00 0.  1.
          2    1    1    2  502    0  0.20316510755E+02 -0.13622398391E+01 -0.56513603058E+03  0.56550274037E+03  0.00000000000E+00 0.  1.
         -2    1    1    2    0  502 -0.20316510755E+02  0.13622398391E+01 -0.51122558136E+02  0.55028467696E+02  0.00000000000E+00 0. -1.
<mgrwt>
<rscale>  2 0.20362129E+02</rscale>
<asrwt>0</asrwt>
<pdfrwt beam="2">  1        2 0.95137856E-01 0.20362129E+02</pdfrwt>
<pdfrwt beam="1">  1       -2 0.32866241E-03 0.20362129E+02</pdfrwt>
<totfact> 0.30862128E+05</totfact>
</mgrwt>
</event>
<event>
 4    1  0.1429937E+004  0.2500668E+02  0.7546771E-02  0.1660906E+00
         -2   -1    0    0    0  501 -0.00000000000E+00  0.00000000000E+00  0.59988881274E+00  0.59988881274E+00  0.00000000000E+00 0.  1.
          2   -1    0    0  501    0  0.00000000000E+00 -0.00000000000E+00 -0.12787047407E+04  0.12787047407E+04  0.00000000000E+00 0. -1.
          2    1    1    2  502    0 -0.15449641977E+02 -0.19663233680E+02 -0.91401880015E+03  0.91436081567E+03  0.00000000000E+00 0. -1.
         -2    1    1    2    0  502  0.15449641977E+02  0.19663233680E+02 -0.36408605169E+03  0.36494381380E+03  0.00000000000E+00 0.  1.
<mgrwt>
<rscale>  2 0.25006683E+02</rscale>
<asrwt>0</asrwt>
<pdfrwt beam="2">  1        2 0.19672108E+00 0.25006683E+02</pdfrwt>
<pdfrwt beam="1">  1       -2 0.92291865E-04 0.25006683E+02</pdfrwt>
<totfact> 0.73168237E+05</totfact>
</mgrwt>
</event>
<event>
 4    1  0.1429937E+004  0.3415970E+02  0.7546771E-02  0.1556192E+00
          2   -1    0    0  501    0  0.00000000000E+00  0.00000000000E+00  0.30863169989E+03  0.30863169989E+03  0.00000000000E+00 0. -1.
         -2   -1    0    0    0  501 -0.00000000000E+00 -0.00000000000E+00 -0.89814036379E+03  0.89814036379E+03  0.00000000000E+00 0. -1.
          2    1    1    2  502    0  0.23832019540E+02  0.24472847862E+02  0.30736034584E+03  0.30925275688E+03  0.00000000000E+00 0. -1.
         -2    1    1    2    0  502 -0.23832019540E+02 -0.24472847862E+02 -0.89686900975E+03  0.89751930680E+03  0.00000000000E+00 0. -1.
<mgrwt>
<rscale>  2 0.34159705E+02</rscale>
<asrwt>0</asrwt>
<pdfrwt beam="1">  1        2 0.47481801E-01 0.34159705E+02</pdfrwt>
<pdfrwt beam="2">  1       -2 0.13817544E+00 0.34159705E+02</pdfrwt>
<totfact> 0.45107704E+01</totfact>
</mgrwt>
</event>
<event>
 4    1  0.1429937E+004  0.2690455E+02  0.7546771E-02  0.1635063E+00
          2   -1    0    0  501    0  0.00000000000E+00  0.00000000000E+00  0.44610758733E+03  0.44610758733E+03  0.00000000000E+00 0.  1.
         -2   -1    0    0    0  501 -0.00000000000E+00 -0.00000000000E+00 -0.18168088113E+02  0.18168088113E+02  0.00000000000E+00 0. -1.
          2    1    1    2  502    0 -0.10551186843E+02  0.24749285565E+02  0.43549901028E+03  0.43632928235E+03  0.00000000000E+00 0.  1.
         -2    1    1    2    0  502  0.10551186843E+02 -0.24749285565E+02 -0.75595110581E+01  0.27946393099E+02  0.00000000000E+00 0. -1.
<mgrwt>
<rscale>  2 0.26904548E+02</rscale>
<asrwt>0</asrwt>
<pdfrwt beam="1">  1        2 0.68631928E-01 0.26904548E+02</pdfrwt>
<pdfrwt beam="2">  1       -2 0.27950908E-02 0.26904548E+02</pdfrwt>
<totfact> 0.25202469E+04</totfact>
</mgrwt>
</event>
<event>
 4    1  0.1429937E+004  0.3453282E+02  0.7546771E-02  0.1552789E+00
          2   -1    0    0  501    0  0.00000000000E+00  0.00000000000E+00  0.16446886332E+03  0.16446886332E+03  0.00000000000E+00 0.  1.
         -2   -1    0    0    0  501 -0.00000000000E+00 -0.00000000000E+00 -0.87231838781E+02  0.87231838781E+02  0.00000000000E+00 0.  1.
          2    1    1    2  502    0  0.31978536720E+02  0.13034150895E+02  0.15912507095E+03  0.16282906407E+03  0.00000000000E+00 0.  1.
         -2    1    1    2    0  502 -0.31978536720E+02 -0.13034150895E+02 -0.81888046415E+02  0.88871638029E+02  0.00000000000E+00 0.  1.
<mgrwt>
<rscale>  2 0.34532824E+02</rscale>
<asrwt>0</asrwt>
<pdfrwt beam="1">  1        2 0.25302902E-01 0.34532824E+02</pdfrwt>
<pdfrwt beam="2">  1       -2 0.13420283E-01 0.34532824E+02</pdfrwt>
<totfact> 0.72538821E+03</totfact>
</mgrwt>
</event>
<event>
 4    1  0.1429937E+004  0.2149688E+02  0.7546771E-02  0.1717101E+00
         -2   -1    0    0    0  501 -0.00000000000E+00  0.00000000000E+00  0.15525655350E+03  0.15525655350E+03  0.00000000000E+00 0. -1.
          2   -1    0    0  501    0  0.00000000000E+00 -0.00000000000E+00 -0.31783110659E+03  0.31783110659E+03  0.00000000000E+00 0.  1.
          2    1    1    2  502    0  0.21771431330E+01 -0.21386345461E+02 -0.31672089334E+03  0.31744958655E+03  0.00000000000E+00 0.  1.
         -2    1    1    2    0  502 -0.21771431330E+01  0.21386345461E+02  0.15414634025E+03  0.15563807355E+03  0.00000000000E+00 0. -1.
<mgrwt>
<rscale>  2 0.21496877E+02</rscale>
<asrwt>0</asrwt>
<pdfrwt beam="2">  1        2 0.48897093E-01 0.21496877E+02</pdfrwt>
<pdfrwt beam="1">  1       -2 0.23885624E-01 0.21496877E+02</pdfrwt>
<totfact> 0.14165420E+03</totfact>
</mgrwt>
</event>
<event>
 4    1  0.1429937E+004  0.2348061E+02  0.7546771E-02  0.1683836E+00
          2   -1    0    0  501    0  0.00000000000E+00  0.00000000000E+00  0.29897963493E+03  0.29897963493E+03  0.00000000000E+00 0. -1.
         -2   -1    0    0    0  501 -0.00000000000E+00 -0.00000000000E+00 -0.47919151716E+02  0.47919151716E+02  0.00000000000E+00 0. -1.
          2    1    1    2  502    0  0.72459089652E+00  0.23469430872E+02  0.29560947278E+03  0.29654055307E+03  0.00000000000E+00 0. -1.
         -2    1    1    2    0  502 -0.72459089652E+00 -0.23469430872E+02 -0.44548989567E+02  0.50358233576E+02  0.00000000000E+00 0. -1.
<mgrwt>
<rscale>  2 0.23480614E+02</rscale>
<asrwt>0</asrwt>
<pdfrwt beam="1">  1        2 0.45996866E-01 0.23480614E+02</pdfrwt>
<pdfrwt beam="2">  1       -2 0.73721774E-02 0.23480614E+02</pdfrwt>
<totfact> 0.92561514E+03</totfact>
</mgrwt>
</event>
<event>
 4    1  0.1429937E+004  0.3355275E+02  0.7546771E-02  0.1561841E+00
         -2   -1    0    0    0  501 -0.00000000000E+00  0.00000000000E+00  0.15200209224E+01  0.15200209224E+01  0.00000000000E+00 0. -1.
          2   -1    0    0  501    0  0.00000000000E+00 -0.00000000000E+00 -0.96385167682E+03  0.96385167682E+03  0.00000000000E+00 0. -1.
          2    1    1    2  502    0  0.21925676171E+02  0.25397873678E+02 -0.71344944447E+03  0.71423798350E+03  0.00000000000E+00 0. -1.
         -2    1    1    2    0  502 -0.21925676171E+02 -0.25397873678E+02 -0.24888221143E+03  0.25113371424E+03  0.00000000000E+00 0. -1.
<mgrwt>
<rscale>  2 0.33552753E+02</rscale>
<asrwt>0</asrwt>
<pdfrwt beam="2">  1        2 0.14828506E+00 0.33552753E+02</pdfrwt>
<pdfrwt beam="1">  1       -2 0.23384907E-03 0.33552753E+02</pdfrwt>
<totfact> 0.33365788E+05</totfact>
</mgrwt>
</event>
<event>
 4    1  0.1429937E+004  0.2456671E+02  0.7546771E-02  0.1667304E+00
          2   -1    0    0  501    0  0.00000000000E+00  0.00000000000E+00  0.32159521470E+03  0.32159521470E+03  0.00000000000E+00 0.  1.
         -2   -1    0    0    0  501 -0.00000000000E+00 -0.00000000000E+00 -0.36264771147E+01  0.36264771147E+01  0.00000000000E+00 0. -1.
          2    1    1    2  502    0 -0.23461196555E+02 -0.72866800452E+01  0.27193896792E+03  0.27304638017E+03  0.00000000000E+00 0.  1.
         -2    1    1    2    0  502  0.23461196555E+02  0.72866800452E+01  0.46029769663E+02  0.52175311644E+02  0.00000000000E+00 0. -1.
<mgrwt>
<rscale>  2 0.24566714E+02</rscale>
<asrwt>0</asrwt>
<pdfrwt beam="1">  1        2 0.49476164E-01 0.24566714E+02</pdfrwt>
<pdfrwt beam="2">  1       -2 0.55791981E-03 0.24566714E+02</pdfrwt>
<totfact> 0.30878849E+05</totfact>
</mgrwt>
</event>
<event>
 4    1  0.1429937E+004  0.2125488E+02  0.7546771E-02  0.1721466E+00
          2   -1    0    0  501    0  0.00000000000E+00  0.00000000000E+00  0.17173247008E+04  0.17173247008E+04  0.00000000000E+00 0.  1.
         -2   -1    0    0    0  501 -0.00000000000E+00 -0.00000000000E+00 -0.32367170130E+00  0.32367170130E+00  0.00000000000E+00 0. -1.
          2    1    1    2  502    0  0.13483745903E+02 -0.16430409185E+02  0.12301286798E+04  0.12303122932E+04  0.00000000000E+00 0.  1.
         -2    1    1    2    0  502 -0.13483745903E+02  0.16430409185E+02  0.48687234924E+03  0.48733607931E+03  0.00000000000E+00 0. -1.
<mgrwt>
<rscale>  2 0.21254876E+02</rscale>
<asrwt>0</asrwt>
<pdfrwt beam="1">  1        2 0.26419650E+00 0.21254876E+02</pdfrwt>
<pdfrwt beam="2">  1       -2 0.49797021E-04 0.21254876E+02</pdfrwt>
<totfact> 0.97487971E+05</totfact>
</mgrwt>
</event>
<event>
 4    1  0.1429937E+004  0.2511473E+02  0.7546771E-02  0.1659359E+00
         -2   -1    0    0    0  501 -0.00000000000E+00  0.00000000000E+00  0.26578325314E+02  0.26578325314E+02  0.00000000000E+00 0.  1.
          2   -1    0    0  501    0  0.00000000000E+00 -0.00000000000E+00 -0.12882835878E+04  0.12882835878E+04  0.00000000000E+00 0.  1.
          2    1    1    2  502    0 -0.24184513005E+02 -0.67719318366E+01 -0.12822001068E+04  0.12824460471E+04  0.00000000000E+00 0.  1.
         -2    1    1    2    0  502  0.24184513005E+02  0.67719318366E+01  0.20494844303E+02  0.32415866070E+02  0.00000000000E+00 0.  1.
<mgrwt>
<rscale>  2 0.25114731E+02</rscale>
<asrwt>0</asrwt>
<pdfrwt beam="2">  1        2 0.19819745E+00 0.25114731E+02</pdfrwt>
<pdfrwt beam="1">  1       -2 0.40889737E-02 0.25114731E+02</pdfrwt>
<totfact> 0.42978125E+03</totfact>
</mgrwt>
</event>
<event>
 4    1  0.1429937E+004  0.2024443E+02  0.7546771E-02  0.1740511E+00
          2   -1    0    0  501    0  0.00000000000E+00  0.00000000000E+00  0.44240471349E+03  0.44240471349E+03  0.00000000000E+00 0. -1.
         -2   -1    0    0    0  501 -0.00000000000E+00 -0.00000000000E+00 -0.12771156392E+01  0.12771156392E+01  0.00000000000E+00 0.  1.
          2    1    1    2  502    0  0.10029046032E+02 -0.17585650981E+02  0.33681934400E+03  0.33742718826E+03  0.00000000000E+00 0. -1.
         -2    1    1    2    0  502 -0.10029046032E+02  0.17585650981E+02  0.10430825385E+03  0.10625464087E+03  0.00000000000E+00 0.  1.
<mgrwt>
<rscale>  2 0.20244428E+02</rscale>
<asrwt>0</asrwt>
<pdfrwt beam="1">  1        2 0.68062141E-01 0.20244428E+02</pdfrwt>
<pdfrwt beam="2">  1       -2 0.19647968E-03 0.20244428E+02</pdfrwt>
<totfact> 0.85344584E+05</totfact>
</mgrwt>
</event>
<event>
 4    1  0.1429937E+004  0.2200191E+02  0.7546771E-02  0.1708219E+00
          2   -1    0    0  501    0  0.00000000000E+00  0.00000000000E+00  0.74822515385E+03  0.74822515385E+03  0.00000000000E+00 0.  1.
         -2   -1    0    0    0  501 -0.00000000000E+00 -0.00000000000E+00 -0.24332363574E+01  0.24332363574E+01  0.00000000000E+00 0.  1.
          2    1    1    2  502    0 -0.20965416145E+02 -0.66734823728E+01  0.69447854700E+03  0.69482698299E+03  0.00000000000E+00 0.  1.
         -2    1    1    2    0  502  0.20965416145E+02  0.66734823728E+01  0.51313370491E+02  0.55831407221E+02  0.00000000000E+00 0.  1.
<mgrwt>
<rscale>  2 0.22001910E+02</rscale>
<asrwt>0</asrwt>
<pdfrwt beam="1">  1        2 0.11511138E+00 0.22001910E+02</pdfrwt>
<pdfrwt beam="2">  1       -2 0.37434465E-03 0.22001910E+02</pdfrwt>
<totfact> 0.21609441E+05</totfact>
</mgrwt>
</event>
<event>
 4    1  0.1429937E+004  0.2408049E+02  0.7546771E-02  0.1674571E+00
         -2   -1    0    0    0  501 -0.00000000000E+00  0.00000000000E+00  0.76004152511E+00  0.76004152511E+00  0.00000000000E+00 0. -1.
          2   -1    0    0  501    0  0.00000000000E+00 -0.00000000000E+00 -0.16516288376E+04  0.16516288376E+04  0.00000000000E+00 0. -1.
          2    1    1    2  502    0  0.54990597660E+01  0.23444197540E+02 -0.14314720736E+04  0.14316746025E+04  0.00000000000E+00 0. -1.
         -2    1    1    2    0  502 -0.54990597660E+01 -0.23444197540E+02 -0.21939672251E+03  0.22071427662E+03  0.00000000000E+00 0. -1.
<mgrwt>
<rscale>  2 0.24080491E+02</rscale>
<asrwt>0</asrwt>
<pdfrwt beam="2">  1        2 0.25409658E+00 0.24080491E+02</pdfrwt>
<pdfrwt beam="1">  1       -2 0.11692954E-03 0.24080491E+02</pdfrwt>
<totfact> 0.35199172E+05</totfact>
</mgrwt>
</event>
<event>
 4    1  0.1429937E+004  0.2206212E+02  0.7546771E-02  0.1707180E+00
          2   -1    0    0  501    0  0.00000000000E+00  0.00000000000E+00  0.34811924084E+02  0.34811924084E+02  0.00000000000E+00 0. -1.
         -2   -1    0    0    0  501 -0.00000000000E+00 -0.00000000000E+00 -0.16576351071E+02  0.16576351071E+02  0.00000000000E+00 0. -1.
          2    1    1    2  502    0 -0.12663550452E+02 -0.18065761499E+02  0.19282879133E+02  0.29301308439E+02  0.00000000000E+00 0. -1.
         -2    1    1    2    0  502  0.12663550452E+02  0.18065761499E+02 -0.10473061189E+01  0.22086966716E+02  0.00000000000E+00 0. -1.
<mgrwt>
<rscale>  2 0.22062122E+02</rscale>
<asrwt>0</asrwt>
<pdfrwt beam="1">  1        2 0.53556806E-02 0.22062122E+02</pdfrwt>
<pdfrwt beam="2">  1       -2 0.25502079E-02 0.22062122E+02</pdfrwt>
<totfact> 0.42862557E+05</totfact>
</mgrwt>
</event>
<event>
 4    1  0.1429937E+004  0.4852496E+02  0.7546771E-02  0.1453464E+00
          2   -1    0    0  501    0  0.00000000000E+00  0.00000000000E+00  0.36688167976E+02  0.36688167976E+02  0.00000000000E+00 0. -1.
         -2   -1    0    0    0  501 -0.00000000000E+00 -0.00000000000E+00 -0.71168335119E+02  0.71168335119E+02  0.00000000000E+00 0.  1.
          2    1    1    2  502    0  0.42315473089E+02 -0.23750211637E+02 -0.34196089840E+00  0.48526165651E+02  0.00000000000E+00 0. -1.
         -2    1    1    2    0  502 -0.42315473089E+02  0.23750211637E+02 -0.34138206245E+02  0.59330337444E+02  0.00000000000E+00 0.  1.
<mgrwt>
<rscale>  2 0.48524961E+02</rscale>
<asrwt>0</asrwt>
<pdfrwt beam="1">  1        2 0.56443336E-02 0.48524961E+02</pdfrwt>
<pdfrwt beam="2">  1       -2 0.10948975E-01 0.48524961E+02</pdfrwt>
<totfact> 0.58979992E+04</totfact>
</mgrwt>
</event>
<event>
 4    1  0.1429937E+004  0.3013239E+02  0.7546771E-02  0.1596630E+00
          2   -1    0    0  501    0  0.00000000000E+00  0.00000000000E+00  0.15919978382E+03  0.15919978382E+03  0.00000000000E+00 0.  1.
         -2   -1    0    0    0  501 -0.00000000000E+00 -0.00000000000E+00 -0.65439216613E+02  0.65439216613E+02  0.00000000000E+00 0.  1.
          2    1    1    2  502    0  0.40627605937E+01  0.29857246769E+02  0.15419368221E+03  0.15711032061E+03  0.00000000000E+00 0.  1.
         -2    1    1    2    0  502 -0.40627605937E+01 -0.29857246769E+02 -0.60433115009E+02  0.67528679818E+02  0.00000000000E+00 0.  1.
<mgrwt>
<rscale>  2 0.30132395E+02</rscale>
<asrwt>0</asrwt>
<pdfrwt beam="1">  1        2 0.24492274E-01 0.30132395E+02</pdfrwt>
<pdfrwt beam="2">  1       -2 0.10067572E-01 0.30132395E+02</pdfrwt>
<totfact> 0.11441924E+04</totfact>
</mgrwt>
</event>
<event>
 4    1  0.1429937E+004  0.2000704E+02  0.7546771E-02  0.1745188E+00
          2   -1    0    0  501    0  0.00000000000E+00  0.00000000000E+00  0.82267510514E+02  0.82267510514E+02  0.00000000000E+00 0.  1.
         -2   -1    0    0    0  501 -0.00000000000E+00 -0.00000000000E+00 -0.15915648196E+03  0.15915648196E+03  0.00000000000E+00 0. -1.
          2    1    1    2  502    0 -0.14697681114E+02 -0.13574228782E+02  0.80408031729E+02  0.82859719307E+02  0.00000000000E+00 0.  1.
         -2    1    1    2    0  502  0.14697681114E+02  0.13574228782E+02 -0.15729700317E+03  0.15856427317E+03  0.00000000000E+00 0. -1.
<mgrwt>
<rscale>  2 0.20007037E+02</rscale>
<asrwt>0</asrwt>
<pdfrwt beam="1">  1        2 0.12656540E-01 0.20007037E+02</pdfrwt>
<pdfrwt beam="2">  1       -2 0.24485613E-01 0.20007037E+02</pdfrwt>
<totfact> 0.54528460E+03</totfact>
</mgrwt>
</event>
<event>
 4    1  0.1429937E+004  0.2212776E+02  0.7546771E-02  0.1706052E+00
         -2   -1    0    0    0  501 -0.00000000000E+00  0.00000000000E+00  0.14103573048E+02  0.14103573048E+02  0.00000000000E+00 0.  1.
          2   -1    0    0  501    0  0.00000000000E+00 -0.00000000000E+00 -0.82355724961E+02  0.82355724961E+02  0.00000000000E+00 0.  1.
          2    1    1    2  502    0  0.21801081607E+02 -0.37882117714E+01 -0.70807483158E+02  0.74184482062E+02  0.00000000000E+00 0.  1.
         -2    1    1    2    0  502 -0.21801081607E+02  0.37882117714E+01  0.25553312451E+01  0.22274815946E+02  0.00000000000E+00 0.  1.
<mgrwt>
<rscale>  2 0.22127759E+02</rscale>
<asrwt>0</asrwt>
<pdfrwt beam="2">  1        2 0.12670111E-01 0.22127759E+02</pdfrwt>
<pdfrwt beam="1">  1       -2 0.21697805E-02 0.22127759E+02</pdfrwt>
<totfact> 0.19572622E+05</totfact>
</mgrwt>
</event>
<event>
 4    1  0.1429937E+004  0.2481481E+02  0.7546771E-02  0.1663676E+00
         -2   -1    0    0    0  501 -0.00000000000E+00  0.00000000000E+00  0.12615351958E+02  0.12615351958E+02  0.00000000000E+00 0. -1.
          2   -1    0    0  501    0  0.00000000000E+00 -0.00000000000E+00 -0.64226819971E+03  0.64226819971E+03  0.00000000000E+00 0.  1.
          2    1    1    2  502    0 -0.14994080154E+02  0.19772512975E+02 -0.62957978937E+03  0.63006863586E+03  0.00000000000E+00 0.  1.
         -2    1    1    2    0  502  0.14994080154E+02 -0.19772512975E+02 -0.73058380105E-01  0.24814915807E+02  0.00000000000E+00 0. -1.
<mgrwt>
<rscale>  2 0.24814808E+02</rscale>
<asrwt>0</asrwt>
<pdfrwt beam="2">  1        2 0.98810489E-01 0.24814808E+02</pdfrwt>
<pdfrwt beam="1">  1       -2 0.19408234E-02 0.24814808E+02</pdfrwt>
<totfact> 0.28304561E+04</totfact>
</mgrwt>
</event>
<event>
 4    1  0.1429937E+004  0.2608534E+02  0.7546771E-02  0.1645885E+00
          2   -1    0    0  501    0  0.00000000000E+00  0.00000000000E+00  0.43378566320E+02  0.43378566320E+02  0.00000000000E+00 0.  1.
         -2   -1    0    0    0  501 -0.00000000000E+00 -0.00000000000E+00 -0.12278666613E+03  0.12278666613E+03  0.00000000000E+00 0. -1.
          2    1    1    2  502    0 -0.25043055790E+02 -0.73000044830E+01  0.37890326607E+02  0.46001321276E+02  0.00000000000E+00 0.  1.
         -2    1    1    2    0  502  0.25043055790E+02  0.73000044830E+01 -0.11729842642E+03  0.12016391117E+03  0.00000000000E+00 0. -1.
<mgrwt>
<rscale>  2 0.26085335E+02</rscale>
<asrwt>0</asrwt>
<pdfrwt beam="1">  1        2 0.66736255E-02 0.26085335E+02</pdfrwt>
<pdfrwt beam="2">  1       -2 0.18890256E-01 0.26085335E+02</pdfrwt>
<totfact> 0.18244899E+04</totfact>
</mgrwt>
</event>
<event>
 4    1  0.1429937E+004  0.3187164E+02  0.7546771E-02  0.1578276E+00
         -2   -1    0    0    0  501 -0.00000000000E+00  0.00000000000E+00  0.98220005241E+02  0.98220005241E+02  0.00000000000E+00 0.  1.
          2   -1    0    0  501    0  0.00000000000E+00 -0.00000000000E+00 -0.16363097432E+04  0.16363097432E+04  0.00000000000E+00 0. -1.
          2    1    1    2  502    0  0.54018420079E+01 -0.31410536272E+02 -0.16335646754E+04  0.16338755615E+04  0.00000000000E+00 0. -1.
         -2    1    1    2    0  502 -0.54018420079E+01  0.31410536272E+02  0.95474937409E+02  0.10065418699E+03  0.00000000000E+00 0.  1.
<mgrwt>
<rscale>  2 0.31871644E+02</rscale>
<asrwt>0</asrwt>
<pdfrwt beam="2">  1        2 0.25173996E+00 0.31871644E+02</pdfrwt>
<pdfrwt beam="1">  1       -2 0.15110770E-01 0.31871644E+02</pdfrwt>
<totfact> 0.42517376E+02</totfact>
</mgrwt>
</event>
<event>
 4    1  0.1429937E+004  0.2170003E+02  0.7546771E-02  0.1713492E+00
          2   -1    0    0  501    0  0.00000000000E+00  0.00000000000E+00  0.30114636284E+02  0.30114636284E+02  0.00000000000E+00 0.  1.
         -2   -1    0    0    0  501 -0.00000000000E+00 -0.00000000000E+00 -0.13529834443E+03  0.13529834443E+03  0.00000000000E+00 0. -1.
          2    1    1    2  502    0  0.19447767207E+02  0.96268284373E+01  0.25188686680E+02  0.33246975979E+02  0.00000000000E+00 0.  1.
         -2    1    1    2    0  502 -0.19447767207E+02 -0.96268284373E+01 -0.13037239483E+03  0.13216600474E+03  0.00000000000E+00 0. -1.
<mgrwt>
<rscale>  2 0.21700034E+02</rscale>
<asrwt>0</asrwt>
<pdfrwt beam="1">  1        2 0.46330210E-02 0.21700034E+02</pdfrwt>
<pdfrwt beam="2">  1       -2 0.20815130E-01 0.21700034E+02</pdfrwt>
<totfact> 0.23466252E+04</totfact>
</mgrwt>
</event>
<event>
 4    1  0.1429937E+004  0.2409249E+02  0.7546771E-02  0.1674390E+00
         -2   -1    0    0    0  501 -0.00000000000E+00  0.00000000000E+00  0.68880907723E+01  0.68880907723E+01  0.00000000000E+00 0.  1.
          2   -1    0    0  501    0  0.00000000000E+00 -0.00000000000E+00 -0.92220391495E+02  0.92220391495E+02  0.00000000000E+00 0. -1.
          2    1    1    2  502    0  0.23637733605E+02  0.46589348754E+01 -0.57217603001E+02  0.62083026805E+02  0.00000000000E+00 0. -1.
         -2    1    1    2    0  502 -0.23637733605E+02 -0.46589348754E+01 -0.28114697722E+02  0.37025455462E+02  0.00000000000E+00 0.  1.
<mgrwt>
<rscale>  2 0.24092491E+02</rscale>
<asrwt>0</asrwt>
<pdfrwt beam="2">  1        2 0.14187752E-01 0.24092491E+02</pdfrwt>
<pdfrwt beam="1">  1       -2 0.10597063E-02 0.24092491E+02</pdfrwt>
<totfact> 0.47005497E+05</totfact>
</mgrwt>
</event>
<event>
 4    1  0.1429937E+004  0.2233346E+02  0.7546771E-02  0.1702548E+00
         -2   -1    0    0    0  501 -0.00000000000E+00  0.00000000000E+00  0.47512451436E+00  0.47512451436E+00  0.00000000000E+00 0. -1.
          2   -1    0    0  501    0  0.00000000000E+00 -0.00000000000E+00 -0.16595563913E+04  0.16595563913E+04  0.00000000000E+00 0. -1.
          2    1    1    2  502    0 -0.14192893011E+02  0.17243696700E+02 -0.13326591838E+04  0.13328463090E+04  0.00000000000E+00 0. -1.
         -2    1    1    2    0  502  0.14192893011E+02 -0.17243696700E+02 -0.32642208307E+03  0.32718520689E+03  0.00000000000E+00 0. -1.
<mgrwt>
<rscale>  2 0.22333457E+02</rscale>
<asrwt>0</asrwt>
<pdfrwt beam="2">  1        2 0.25531843E+00 0.22333457E+02</pdfrwt>
<pdfrwt beam="1">  1       -2 0.73095489E-04 0.22333457E+02</pdfrwt>
<totfact> 0.63563909E+05</totfact>
</mgrwt>
</event>
<event>
 4    1  0.1429937E+004  0.3556225E+02  0.7546771E-02  0.1543664E+00
          2   -1    0    0  501    0  0.00000000000E+00  0.00000000000E+00  0.28187380314E+03  0.28187380314E+03  0.00000000000E+00 0. -1.
         -2   -1    0    0    0  501 -0.00000000000E+00 -0.00000000000E+00 -0.66289019402E+01  0.66289019402E+01  0.00000000000E+00 0. -1.
          2    1    1    2  502    0 -0.34475004465E+02 -0.87262781984E+01  0.21962600092E+03  0.22248652576E+03  0.00000000000E+00 0. -1.
         -2    1    1    2    0  502  0.34475004465E+02  0.87262781984E+01  0.55618900286E+02  0.66016179328E+02  0.00000000000E+00 0. -1.
<mgrwt>
<rscale>  2 0.35562253E+02</rscale>
<asrwt>0</asrwt>
<pdfrwt beam="1">  1        2 0.43365191E-01 0.35562253E+02</pdfrwt>
<pdfrwt beam="2">  1       -2 0.10198313E-02 0.35562253E+02</pdfrwt>
<totfact> 0.16993983E+05</totfact>
</mgrwt>
</event>
<event>
 4    1  0.1429937E+004  0.2255059E+02  0.7546771E-02  0.1698900E+00
         -2   -1    0    0    0  501 -0.00000000000E+00  0.00000000000E+00  0.50194498160E+02  0.50194498160E+02  0.00000000000E+00 0.  1.
          2   -1    0    0  501    0  0.00000000000E+00 -0.00000000000E+00 -0.11605107594E+04  0.11605107594E+04  0.00000000000E+00 0.  1.
          2    1    1    2  502    0  0.22544357112E+02  0.53018322563E+00 -0.11578626254E+04  0.11580822028E+04  0.00000000000E+00 0.  1.
         -2    1    1    2    0  502 -0.22544357112E+02 -0.53018322563E+00  0.47546364241E+02  0.52623054685E+02  0.00000000000E+00 0.  1.
<mgrwt>
<rscale>  2 0.22550590E+02</rscale>
<asrwt>0</asrwt>
<pdfrwt beam="2">  1        2 0.17854011E+00 0.22550590E+02</pdfrwt>
<pdfrwt beam="1">  1       -2 0.77222306E-02 0.22550590E+02</pdfrwt>
<totfact> 0.19886242E+03</totfact>
</mgrwt>
</event>
<event>
 4    1  0.1429937E+004  0.2526010E+02  0.7546771E-02  0.1657294E+00
         -2   -1    0    0    0  501 -0.00000000000E+00  0.00000000000E+00  0.68774172286E+03  0.68774172286E+03  0.00000000000E+00 0.  1.
          2   -1    0    0  501    0  0.00000000000E+00 -0.00000000000E+00 -0.86927900789E+02  0.86927900789E+02  0.00000000000E+00 0. -1.
          2    1    1    2  502    0 -0.18409282620E+02  0.17296562944E+02 -0.84855347736E+02  0.88535319595E+02  0.00000000000E+00 0. -1.
         -2    1    1    2    0  502  0.18409282620E+02 -0.17296562944E+02  0.68566916981E+03  0.68613430406E+03  0.00000000000E+00 0.  1.
<mgrwt>
<rscale>  2 0.25260102E+02</rscale>
<asrwt>0</asrwt>
<pdfrwt beam="2">  1        2 0.13373524E-01 0.25260102E+02</pdfrwt>
<pdfrwt beam="1">  1       -2 0.10580642E+00 0.25260102E+02</pdfrwt>
<totfact> 0.31540926E+02</totfact>
</mgrwt>
</event>
<event>
 4    1  0.1429937E+004  0.2140254E+02  0.7546771E-02  0.1718794E+00
         -2   -1    0    0    0  501 -0.00000000000E+00  0.00000000000E+00  0.19346794762E+01  0.19346794762E+01  0.00000000000E+00 0.  1.
          2   -1    0    0  501    0  0.00000000000E+00 -0.00000000000E+00 -0.15333965014E+04  0.15333965014E+04  0.00000000000E+00 0.  1.
          2    1    1    2  502    0  0.15822453900E+02 -0.14412443552E+02 -0.14716464824E+04  0.14718021055E+04  0.00000000000E+00 0.  1.
         -2    1    1    2    0  502 -0.15822453900E+02  0.14412443552E+02 -0.59815339526E+02  0.63529075385E+02  0.00000000000E+00 0.  1.
<mgrwt>
<rscale>  2 0.21402537E+02</rscale>
<asrwt>0</asrwt>
<pdfrwt beam="2">  1        2 0.23590726E+00 0.21402537E+02</pdfrwt>
<pdfrwt beam="1">  1       -2 0.29764286E-03 0.21402537E+02</pdfrwt>
<totfact> 0.11313120E+05</totfact>
</mgrwt>
</event>
<event>
 4    1  0.1429937E+004  0.4323696E+02  0.7546771E-02  0.1485658E+00
          2   -1    0    0  501    0  0.00000000000E+00  0.00000000000E+00  0.15661027634E+02  0.15661027634E+02  0.00000000000E+00 0. -1.
         -2   -1    0    0    0  501 -0.00000000000E+00 -0.00000000000E+00 -0.23418620414E+03  0.23418620414E+03  0.00000000000E+00 0.  1.
          2    1    1    2  502    0  0.20787051197E+02 -0.37912182728E+02 -0.21790778034E+02  0.48417694121E+02  0.00000000000E+00 0. -1.
         -2    1    1    2    0  502 -0.20787051197E+02  0.37912182728E+02 -0.19673439847E+03  0.20142953765E+03  0.00000000000E+00 0.  1.
<mgrwt>
<rscale>  2 0.43236964E+02</rscale>
<asrwt>0</asrwt>
<pdfrwt beam="1">  1        2 0.24093889E-02 0.43236964E+02</pdfrwt>
<pdfrwt beam="2">  1       -2 0.36028646E-01 0.43236964E+02</pdfrwt>
<totfact> 0.24003651E+04</totfact>
</mgrwt>
</event>
<event>
 4    1  0.1429937E+004  0.3030780E+02  0.7546771E-02  0.1594711E+00
         -2   -1    0    0    0  501 -0.00000000000E+00  0.00000000000E+00  0.91653154318E+00  0.91653154318E+00  0.00000000000E+00 0.  1.
          2   -1    0    0  501    0  0.00000000000E+00 -0.00000000000E+00 -0.16744395418E+04  0.16744395418E+04  0.00000000000E+00 0.  1.
          2    1    1    2  502    0  0.28727186598E+02 -0.96597917980E+01 -0.13675227007E+04  0.13678585087E+04  0.00000000000E+00 0.  1.
         -2    1    1    2    0  502 -0.28727186598E+02  0.96597917980E+01 -0.30600030957E+03  0.30749756468E+03  0.00000000000E+00 0.  1.
<mgrwt>
<rscale>  2 0.30307801E+02</rscale>
<asrwt>0</asrwt>
<pdfrwt beam="2">  1        2 0.25760456E+00 0.30307801E+02</pdfrwt>
<pdfrwt beam="1">  1       -2 0.14100569E-03 0.30307801E+02</pdfrwt>
<totfact> 0.28180600E+05</totfact>
</mgrwt>
</event>
<event>
 4    1  0.1429937E+004  0.2432046E+02  0.7546771E-02  0.1670959E+00
          2   -1    0    0  501    0  0.00000000000E+00  0.00000000000E+00  0.12538007882E+04  0.12538007882E+04  0.00000000000E+00 0. -1.
         -2   -1    0    0    0  501 -0.00000000000E+00 -0.00000000000E+00 -0.60572811078E+00  0.60572811078E+00  0.00000000000E+00 0. -1.
          2    1    1    2  502    0 -0.14071869376E+02  0.19836003501E+02  0.92156978508E+03  0.92189064065E+03  0.00000000000E+00 0. -1.
         -2    1    1    2    0  502  0.14071869376E+02 -0.19836003501E+02  0.33162527502E+03  0.33251587567E+03  0.00000000000E+00 0. -1.
<mgrwt>
<rscale>  2 0.24320455E+02</rscale>
<asrwt>0</asrwt>
<pdfrwt beam="1">  1        2 0.19289035E+00 0.24320455E+02</pdfrwt>
<pdfrwt beam="2">  1       -2 0.93189944E-04 0.24320455E+02</pdfrwt>
<totfact> 0.73749468E+05</totfact>
</mgrwt>
</event>
<event>
 4    1  0.1429937E+004  0.2973738E+02  0.7546771E-02  0.1601010E+00
          2   -1    0    0  501    0  0.00000000000E+00  0.00000000000E+00  0.17645478049E+03  0.17645478049E+03  0.00000000000E+00 0.  1.
         -2   -1    0    0    0  501 -0.00000000000E+00 -0.00000000000E+00 -0.25827658306E+02  0.25827658306E+02  0.00000000000E+00 0. -1.
          2    1    1    2  502    0  0.23227662456E+02  0.18568455586E+02  0.16611347675E+03  0.16875425626E+03  0.00000000000E+00 0.  1.
         -2    1    1    2    0  502 -0.23227662456E+02 -0.18568455586E+02 -0.15486354573E+02  0.33528182534E+02  0.00000000000E+00 0. -1.
<mgrwt>
<rscale>  2 0.29737381E+02</rscale>
<asrwt>0</asrwt>
<pdfrwt beam="1">  1        2 0.27146889E-01 0.29737381E+02</pdfrwt>
<pdfrwt beam="2">  1       -2 0.39734860E-02 0.29737381E+02</pdfrwt>
<totfact> 0.39721935E+04</totfact>
</mgrwt>
</event>
<event>
 4    1  0.1429937E+004  0.4334252E+02  0.7546771E-02  0.1484962E+00
          2   -1    0    0  501    0  0.00000000000E+00  0.00000000000E+00  0.16731313837E+04  0.16731313837E+04  0.00000000000E+00 0.  1.
         -2   -1    0    0    0  501 -0.00000000000E+00 -0.00000000000E+00 -0.15816669628E+03  0.15816669628E+03  0.00000000000E+00 0.  1.
          2    1    1    2  502    0 -0.36412933386E+02 -0.23508974673E+02  0.16698756043E+04  0.16704379987E+04  0.00000000000E+00 0.  1.
         -2    1    1    2    0  502  0.36412933386E+02  0.23508974673E+02 -0.15491091684E+03  0.16086008133E+03  0.00000000000E+00 0.  1.
<mgrwt>
<rscale>  2 0.43342515E+02</rscale>
<asrwt>0</asrwt>
<pdfrwt beam="1">  1        2 0.25740482E+00 0.43342515E+02</pdfrwt>
<pdfrwt beam="2">  1       -2 0.24333339E-01 0.43342515E+02</pdfrwt>
<totfact> 0.18555764E+02</totfact>
</mgrwt>
</event>
<event>
 4    1  0.1429937E+004  0.2524510E+02  0.7546771E-02  0.1657506E+00
          2   -1    0    0  501    0  0.00000000000E+00  0.00000000000E+00  0.67733788050E+03  0.67733788050E+03  0.00000000000E+00 0. -1.
         -2   -1    0    0    0  501 -0.00000000000E+00 -0.00000000000E+00 -0.87431553697E+02  0.87431553697E+02  0.00000000000E+00 0.  1.
          2    1    1    2  502    0 -0.17464620939E+02 -0.18229160956E+02  0.67527476049E+03  0.67574648904E+03  0.00000000000E+00 0. -1.
         -2    1    1    2    0  502  0.17464620939E+02  0.18229160956E+02 -0.85368433689E+02  0.89022945156E+02  0.00000000000E+00 0.  1.
<mgrwt>
<rscale>  2 0.25245104E+02</rscale>
<asrwt>0</asrwt>
<pdfrwt beam="1">  1        2 0.10420582E+00 0.25245104E+02</pdfrwt>
<pdfrwt beam="2">  1       -2 0.13451009E-01 0.25245104E+02</pdfrwt>
<totfact> 0.16604306E+03</totfact>
</mgrwt>
</event>
<event>
 4    1  0.1429937E+004  0.2183671E+02  0.7546771E-02  0.1711091E+00
         -2   -1    0    0    0  501 -0.00000000000E+00  0.00000000000E+00  0.90929541725E+03  0.90929541725E+03  0.00000000000E+00 0.  1.
          2   -1    0    0  501    0  0.00000000000E+00 -0.00000000000E+00 -0.14742465683E+01  0.14742465683E+01  0.00000000000E+00 0.  1.
          2    1    1    2  502    0  0.10392045646E+02 -0.19205398234E+02  0.88384510932E+02  0.91042098541E+02  0.00000000000E+00 0.  1.
         -2    1    1    2    0  502 -0.10392045646E+02  0.19205398234E+02  0.81943665975E+03  0.81972756528E+03  0.00000000000E+00 0.  1.
<mgrwt>
<rscale>  2 0.21836711E+02</rscale>
<asrwt>0</asrwt>
<pdfrwt beam="2">  1        2 0.22680789E-03 0.21836711E+02</pdfrwt>
<pdfrwt beam="1">  1       -2 0.13989115E+00 0.21836711E+02</pdfrwt>
<totfact> 0.27760518E+04</totfact>
</mgrwt>
</event>
<event>
 4    1  0.1429937E+004  0.2438301E+02  0.7546771E-02  0.1670025E+00
          2   -1    0    0  501    0  0.00000000000E+00  0.00000000000E+00  0.30243505988E+03  0.30243505988E+03  0.00000000000E+00 0. -1.
         -2   -1    0    0    0  501 -0.00000000000E+00 -0.00000000000E+00 -0.20501754090E+01  0.20501754090E+01  0.00000000000E+00 0. -1.
          2    1    1    2  502    0 -0.23611332458E+02 -0.60857248116E+01  0.18107496085E+03  0.18270925678E+03  0.00000000000E+00 0. -1.
         -2    1    1    2    0  502  0.23611332458E+02  0.60857248116E+01  0.11930992363E+03  0.12177597851E+03  0.00000000000E+00 0. -1.
<mgrwt>
<rscale>  2 0.24383008E+02</rscale>
<asrwt>0</asrwt>
<pdfrwt beam="1">  1        2 0.46528435E-01 0.24383008E+02</pdfrwt>
<pdfrwt beam="2">  1       -2 0.31541184E-03 0.24383008E+02</pdfrwt>
<totfact> 0.70294466E+05</totfact>
</mgrwt>
</event>
<event>
 4    1  0.1429937E+004  0.2075684E+02  0.7546771E-02  0.1730683E+00
         -2   -1    0    0    0  501 -0.00000000000E+00  0.00000000000E+00  0.43456444609E+03  0.43456444609E+03  0.00000000000E+00 0. -1.
          2   -1    0    0  501    0  0.00000000000E+00 -0.00000000000E+00 -0.25657195311E+02  0.25657195311E+02  0.00000000000E+00 0.  1.
          2    1    1    2  502    0  0.20090534175E+02 -0.52169859583E+01 -0.21167427497E+02  0.29646357158E+02  0.00000000000E+00 0.  1.
         -2    1    1    2    0  502 -0.20090534175E+02  0.52169859583E+01  0.43007467827E+03  0.43057528424E+03  0.00000000000E+00 0. -1.
<mgrwt>
<rscale>  2 0.20756842E+02</rscale>
<asrwt>0</asrwt>
<pdfrwt beam="2">  1        2 0.39472611E-02 0.20756842E+02</pdfrwt>
<pdfrwt beam="1">  1       -2 0.66856063E-01 0.20756842E+02</pdfrwt>
<totfact> 0.34881991E+03</totfact>
</mgrwt>
</event>
<event>
 4    1  0.1429937E+004  0.3998555E+02  0.7546771E-02  0.1508318E+00
          2   -1    0    0  501    0  0.00000000000E+00  0.00000000000E+00  0.23576745793E+03  0.23576745793E+03  0.00000000000E+00 0. -1.
         -2   -1    0    0    0  501 -0.00000000000E+00 -0.00000000000E+00 -0.68025027716E+02  0.68025027716E+02  0.00000000000E+00 0.  1.
          2    1    1    2  502    0 -0.36441729175E+02 -0.16457352231E+02  0.22799742366E+03  0.23147714631E+03  0.00000000000E+00 0. -1.
         -2    1    1    2    0  502  0.36441729175E+02  0.16457352231E+02 -0.60254993449E+02  0.72315339335E+02  0.00000000000E+00 0.  1.
<mgrwt>
<rscale>  2 0.39985548E+02</rscale>
<asrwt>0</asrwt>
<pdfrwt beam="1">  1        2 0.36271916E-01 0.39985548E+02</pdfrwt>
<pdfrwt beam="2">  1       -2 0.10465389E-01 0.39985548E+02</pdfrwt>
<totfact> 0.74522519E+03</totfact>
</mgrwt>
</event>
<event>
 4    1  0.1429937E+004  0.2138830E+02  0.7546771E-02  0.1719051E+00
          2   -1    0    0  501    0  0.00000000000E+00  0.00000000000E+00  0.18287851343E+03  0.18287851343E+03  0.00000000000E+00 0. -1.
         -2   -1    0    0    0  501 -0.00000000000E+00 -0.00000000000E+00 -0.52692529225E+01  0.52692529225E+01  0.00000000000E+00 0. -1.
          2    1    1    2  502    0  0.67959117917E+01 -0.20279912014E+02  0.15698558495E+03  0.15843589597E+03  0.00000000000E+00 0. -1.
         -2    1    1    2    0  502 -0.67959117917E+01  0.20279912014E+02  0.20623675556E+02  0.29711870385E+02  0.00000000000E+00 0. -1.
<mgrwt>
<rscale>  2 0.21388297E+02</rscale>
<asrwt>0</asrwt>
<pdfrwt beam="1">  1        2 0.28135151E-01 0.21388297E+02</pdfrwt>
<pdfrwt beam="2">  1       -2 0.81065444E-03 0.21388297E+02</pdfrwt>
<totfact> 0.31532742E+05</totfact>
</mgrwt>
</event>
<event>
 4    1  0.1429937E+004  0.2230755E+02  0.7546771E-02  0.1702987E+00
         -2   -1    0    0    0  501 -0.00000000000E+00  0.00000000000E+00  0.17691818670E+03  0.17691818670E+03  0.00000000000E+00 0.  1.
          2   -1    0    0  501    0  0.00000000000E+00 -0.00000000000E+00 -0.69390665748E+01  0.69390665748E+01  0.00000000000E+00 0.  1.
          2    1    1    2  502    0 -0.10894475682E+02  0.19466313709E+02  0.14100141226E+02  0.26390167722E+02  0.00000000000E+00 0.  1.
         -2    1    1    2    0  502  0.10894475682E+02 -0.19466313709E+02  0.15587897890E+03  0.15746708555E+03  0.00000000000E+00 0.  1.
<mgrwt>
<rscale>  2 0.22307554E+02</rscale>
<asrwt>0</asrwt>
<pdfrwt beam="2">  1        2 0.10675488E-02 0.22307554E+02</pdfrwt>
<pdfrwt beam="1">  1       -2 0.27218179E-01 0.22307554E+02</pdfrwt>
<totfact> 0.97875146E+04</totfact>
</mgrwt>
</event>
<event>
 4    1  0.1429937E+004  0.3350784E+02  0.7546771E-02  0.1562265E+00
         -2   -1    0    0    0  501 -0.00000000000E+00  0.00000000000E+00  0.68238938611E+02  0.68238938611E+02  0.00000000000E+00 0. -1.
          2   -1    0    0  501    0  0.00000000000E+00 -0.00000000000E+00 -0.54468822951E+03  0.54468822951E+03  0.00000000000E+00 0.  1.
          2    1    1    2  502    0  0.20869582158E+02  0.26215179773E+02 -0.54002401074E+03  0.54106257243E+03  0.00000000000E+00 0.  1.
         -2    1    1    2    0  502 -0.20869582158E+02 -0.26215179773E+02  0.63574719844E+02  0.71864595687E+02  0.00000000000E+00 0. -1.
<mgrwt>
<rscale>  2 0.33507837E+02</rscale>
<asrwt>0</asrwt>
<pdfrwt beam="2">  1        2 0.83798190E-01 0.33507837E+02</pdfrwt>
<pdfrwt beam="1">  1       -2 0.10498298E-01 0.33507837E+02</pdfrwt>
<totfact> 0.31141751E+03</totfact>
</mgrwt>
</event>
<event>
 4    1  0.1429937E+004  0.4997450E+02  0.7546771E-02  0.1445479E+00
         -2   -1    0    0    0  501 -0.00000000000E+00  0.00000000000E+00  0.25637491078E+03  0.25637491078E+03  0.00000000000E+00 0.  1.
          2   -1    0    0  501    0  0.00000000000E+00 -0.00000000000E+00 -0.34063195056E+03  0.34063195056E+03  0.00000000000E+00 0. -1.
          2    1    1    2  502    0  0.42466785881E+02  0.26344306493E+02 -0.33633268645E+03  0.34002518489E+03  0.00000000000E+00 0. -1.
         -2    1    1    2    0  502 -0.42466785881E+02 -0.26344306493E+02  0.25207564667E+03  0.25698167645E+03  0.00000000000E+00 0.  1.
<mgrwt>
<rscale>  2 0.49974497E+02</rscale>
<asrwt>0</asrwt>
<pdfrwt beam="2">  1        2 0.52404916E-01 0.49974497E+02</pdfrwt>
<pdfrwt beam="1">  1       -2 0.39442294E-01 0.49974497E+02</pdfrwt>
<totfact> 0.57451279E+02</totfact>
</mgrwt>
</event>
<event>
 4    1  0.1429937E+004  0.2456646E+02  0.7546771E-02  0.1667308E+00
          2   -1    0    0  501    0  0.00000000000E+00  0.00000000000E+00  0.11062168735E+04  0.11062168735E+04  0.00000000000E+00 0. -1.
         -2   -1    0    0    0  501 -0.00000000000E+00 -0.00000000000E+00 -0.66059116830E+00  0.66059116830E+00  0.00000000000E+00 0.  1.
          2    1    1    2  502    0  0.23283829772E+02  0.78341588688E+01  0.78372159127E+03  0.78410652554E+03  0.00000000000E+00 0. -1.
         -2    1    1    2    0  502 -0.23283829772E+02 -0.78341588688E+01  0.32183469108E+03  0.32277093915E+03  0.00000000000E+00 0.  1.
<mgrwt>
<rscale>  2 0.24566456E+02</rscale>
<asrwt>0</asrwt>
<pdfrwt beam="1">  1        2 0.17018573E+00 0.24566456E+02</pdfrwt>
<pdfrwt beam="2">  1       -2 0.10163030E-03 0.24566456E+02</pdfrwt>
<totfact> 0.78367117E+05</totfact>
</mgrwt>
</event>
<event>
 4    1  0.1429937E+004  0.2167372E+02  0.7546771E-02  0.1713957E+00
         -2   -1    0    0    0  501 -0.00000000000E+00  0.00000000000E+00  0.48297533641E+01  0.48297533641E+01  0.00000000000E+00 0.  1.
          2   -1    0    0  501    0  0.00000000000E+00 -0.00000000000E+00 -0.26626767606E+03  0.26626767606E+03  0.00000000000E+00 0. -1.
          2    1    1    2  502    0 -0.10164567855E+02  0.19142406178E+02 -0.23870986514E+03  0.23969178098E+03  0.00000000000E+00 0. -1.
         -2    1    1    2    0  502  0.10164567855E+02 -0.19142406178E+02 -0.22728057556E+02  0.31405648445E+02  0.00000000000E+00 0.  1.
<mgrwt>
<rscale>  2 0.21673720E+02</rscale>
<asrwt>0</asrwt>
<pdfrwt beam="2">  1        2 0.40964278E-01 0.21673720E+02</pdfrwt>
<pdfrwt beam="1">  1       -2 0.74303861E-03 0.21673720E+02</pdfrwt>
<totfact> 0.24446631E+05</totfact>
</mgrwt>
</event>
<event>
 4    1  0.1429937E+004  0.2368880E+02  0.7546771E-02  0.1680582E+00
          2   -1    0    0  501    0  0.00000000000E+00  0.00000000000E+00  0.16073719229E+04  0.16073719229E+04  0.00000000000E+00 0.  1.
         -2   -1    0    0    0  501 -0.00000000000E+00 -0.00000000000E+00 -0.26281579357E+01  0.26281579357E+01  0.00000000000E+00 0. -1.
          2    1    1    2  502    0 -0.19918749923E+02 -0.12821956947E+02  0.15520008062E+04  0.15521815814E+04  0.00000000000E+00 0.  1.
         -2    1    1    2    0  502  0.19918749923E+02  0.12821956947E+02  0.52742958781E+02  0.57818499457E+02  0.00000000000E+00 0. -1.
<mgrwt>
<rscale>  2 0.23688799E+02</rscale>
<asrwt>0</asrwt>
<pdfrwt beam="1">  1        2 0.24728720E+00 0.23688799E+02</pdfrwt>
<pdfrwt beam="2">  1       -2 0.40433327E-03 0.23688799E+02</pdfrwt>
<totfact> 0.70795859E+04</totfact>
</mgrwt>
</event>
<event>
 4    1  0.1429937E+004  0.2269238E+02  0.7546771E-02  0.1696546E+00
          2   -1    0    0  501    0  0.00000000000E+00  0.00000000000E+00  0.21162396434E+03  0.21162396434E+03  0.00000000000E+00 0. -1.
         -2   -1    0    0    0  501 -0.00000000000E+00 -0.00000000000E+00 -0.77166734780E+01  0.77166734780E+01  0.00000000000E+00 0.  1.
          2    1    1    2  502    0 -0.42682463088E+01 -0.22287352539E+02  0.19270013074E+03  0.19403165823E+03  0.00000000000E+00 0. -1.
         -2    1    1    2    0  502  0.42682463088E+01  0.22287352539E+02  0.11207160128E+02  0.25308979590E+02  0.00000000000E+00 0.  1.
<mgrwt>
<rscale>  2 0.22692378E+02</rscale>
<asrwt>0</asrwt>
<pdfrwt beam="1">  1        2 0.32557529E-01 0.22692378E+02</pdfrwt>
<pdfrwt beam="2">  1       -2 0.11871807E-02 0.22692378E+02</pdfrwt>
<totfact> 0.16529961E+05</totfact>
</mgrwt>
</event>
<event>
 4    1  0.1429937E+004  0.3797237E+02  0.7546771E-02  0.1523686E+00
          2   -1    0    0  501    0  0.00000000000E+00  0.00000000000E+00  0.82546855135E+03  0.82546855135E+03  0.00000000000E+00 0.  1.
         -2   -1    0    0    0  501 -0.00000000000E+00 -0.00000000000E+00 -0.15533523198E+03  0.15533523198E+03  0.00000000000E+00 0.  1.
          2    1    1    2  502    0  0.32654699730E+02 -0.19379660247E+02  0.82270343710E+03  0.82357928948E+03  0.00000000000E+00 0.  1.
         -2    1    1    2    0  502 -0.32654699730E+02  0.19379660247E+02 -0.15257011772E+03  0.15722449385E+03  0.00000000000E+00 0.  1.
<mgrwt>
<rscale>  2 0.37972367E+02</rscale>
<asrwt>0</asrwt>
<pdfrwt beam="1">  1        2 0.12699516E+00 0.37972367E+02</pdfrwt>
<pdfrwt beam="2">  1       -2 0.23897728E-01 0.37972367E+02</pdfrwt>
<totfact> 0.53520410E+02</totfact>
</mgrwt>
</event>
<event>
 4    1  0.1429937E+004  0.2442810E+02  0.7546771E-02  0.1669355E+00
          2   -1    0    0  501    0  0.00000000000E+00  0.00000000000E+00  0.88014231036E+03  0.88014231036E+03  0.00000000000E+00 0.  1.
         -2   -1    0    0    0  501 -0.00000000000E+00 -0.00000000000E+00 -0.22502243913E+01  0.22502243913E+01  0.00000000000E+00 0. -1.
          2    1    1    2  502    0  0.22152118933E+02 -0.10296389099E+02  0.80773413049E+03  0.80810343247E+03  0.00000000000E+00 0.  1.
         -2    1    1    2    0  502 -0.22152118933E+02  0.10296389099E+02  0.70157955480E+02  0.74289102288E+02  0.00000000000E+00 0. -1.
<mgrwt>
<rscale>  2 0.24428099E+02</rscale>
<asrwt>0</asrwt>
<pdfrwt beam="1">  1        2 0.13540623E+00 0.24428099E+02</pdfrwt>
<pdfrwt beam="2">  1       -2 0.34618907E-03 0.24428099E+02</pdfrwt>
<totfact> 0.20450246E+05</totfact>
</mgrwt>
</event>
<event>
 4    1  0.1429937E+004  0.3543242E+02  0.7546771E-02  0.1544794E+00
         -2   -1    0    0    0  501 -0.00000000000E+00  0.00000000000E+00  0.69667059400E+01  0.69667059400E+01  0.00000000000E+00 0. -1.
          2   -1    0    0  501    0  0.00000000000E+00 -0.00000000000E+00 -0.88638362727E+03  0.88638362727E+03  0.00000000000E+00 0. -1.
          2    1    1    2  502    0  0.25274936832E+02 -0.24832088046E+02 -0.41016611767E+02  0.54201637147E+02  0.00000000000E+00 0. -1.
         -2    1    1    2    0  502 -0.25274936832E+02  0.24832088046E+02 -0.83840030956E+03  0.83914869606E+03  0.00000000000E+00 0. -1.
<mgrwt>
<rscale>  2 0.35432419E+02</rscale>
<asrwt>0</asrwt>
<pdfrwt beam="2">  1        2 0.13636672E+00 0.35432419E+02</pdfrwt>
<pdfrwt beam="1">  1       -2 0.10718008E-02 0.35432419E+02</pdfrwt>
<totfact> 0.47138077E+04</totfact>
</mgrwt>
</event>
<event>
 4    1  0.1429937E+004  0.2146553E+02  0.7546771E-02  0.1717663E+00
          2   -1    0    0  501    0  0.00000000000E+00  0.00000000000E+00  0.99324681171E+02  0.99324681171E+02  0.00000000000E+00 0.  1.
         -2   -1    0    0    0  501 -0.00000000000E+00 -0.00000000000E+00 -0.46396245597E+01  0.46396245597E+01  0.00000000000E+00 0.  1.
          2    1    1    2  502    0 -0.20862227275E+02  0.50533744369E+01  0.47936215840E+02  0.52522851304E+02  0.00000000000E+00 0.  1.
         -2    1    1    2    0  502  0.20862227275E+02 -0.50533744369E+01  0.46748840772E+02  0.51441454427E+02  0.00000000000E+00 0.  1.
<mgrwt>
<rscale>  2 0.21465533E+02</rscale>
<asrwt>0</asrwt>
<pdfrwt beam="1">  1        2 0.15280719E-01 0.21465533E+02</pdfrwt>
<pdfrwt beam="2">  1       -2 0.71378847E-03 0.21465533E+02</pdfrwt>
<totfact> 0.71174706E+05</totfact>
</mgrwt>
</event>
<event>
 4    1  0.1429937E+004  0.2481494E+02  0.7546771E-02  0.1663674E+00
          2   -1    0    0  501    0  0.00000000000E+00  0.00000000000E+00  0.11556829697E+04  0.11556829697E+04  0.00000000000E+00 0.  1.
         -2   -1    0    0    0  501 -0.00000000000E+00 -0.00000000000E+00 -0.70397495382E+01  0.70397495382E+01  0.00000000000E+00 0.  1.
          2    1    1    2  502    0  0.24811938192E+02  0.38579415994E+00  0.11332489051E+04  0.11335205609E+04  0.00000000000E+00 0.  1.
         -2    1    1    2    0  502 -0.24811938192E+02 -0.38579415994E+00  0.15394315049E+02  0.29202158307E+02  0.00000000000E+00 0.  1.
<mgrwt>
<rscale>  2 0.24814937E+02</rscale>
<asrwt>0</asrwt>
<pdfrwt beam="1">  1        2 0.17779723E+00 0.24814937E+02</pdfrwt>
<pdfrwt beam="2">  1       -2 0.10830393E-02 0.24814937E+02</pdfrwt>
<totfact> 0.31304647E+04</totfact>
</mgrwt>
</event>
<event>
 4    1  0.1429937E+004  0.2434108E+02  0.7546771E-02  0.1670651E+00
          2   -1    0    0  501    0  0.00000000000E+00  0.00000000000E+00  0.32861373607E+02  0.32861373607E+02  0.00000000000E+00 0.  1.
         -2   -1    0    0    0  501 -0.00000000000E+00 -0.00000000000E+00 -0.23622321697E+03  0.23622321697E+03  0.00000000000E+00 0. -1.
          2    1    1    2  502    0 -0.75150800609E+01  0.23151931994E+02  0.27624945588E+02  0.36818826735E+02  0.00000000000E+00 0.  1.
         -2    1    1    2    0  502  0.75150800609E+01 -0.23151931994E+02 -0.23098678895E+03  0.23226576385E+03  0.00000000000E+00 0. -1.
<mgrwt>
<rscale>  2 0.24341084E+02</rscale>
<asrwt>0</asrwt>
<pdfrwt beam="1">  1        2 0.50555959E-02 0.24341084E+02</pdfrwt>
<pdfrwt beam="2">  1       -2 0.36342033E-01 0.24341084E+02</pdfrwt>
<totfact> 0.83795171E+03</totfact>
</mgrwt>
</event>
<event>
 4    1  0.1429937E+004  0.3166912E+02  0.7546771E-02  0.1580339E+00
          2   -1    0    0  501    0  0.00000000000E+00  0.00000000000E+00  0.49910418275E+03  0.49910418275E+03  0.00000000000E+00 0. -1.
         -2   -1    0    0    0  501 -0.00000000000E+00 -0.00000000000E+00 -0.36635438459E+01  0.36635438459E+01  0.00000000000E+00 0.  1.
          2    1    1    2  502    0  0.21925745285E+02 -0.22851576436E+02  0.41663394387E+03  0.41783582426E+03  0.00000000000E+00 0. -1.
         -2    1    1    2    0  502 -0.21925745285E+02  0.22851576436E+02  0.78806695036E+02  0.84931902336E+02  0.00000000000E+00 0.  1.
<mgrwt>
<rscale>  2 0.31669115E+02</rscale>
<asrwt>0</asrwt>
<pdfrwt beam="1">  1        2 0.76785205E-01 0.31669115E+02</pdfrwt>
<pdfrwt beam="2">  1       -2 0.56362252E-03 0.31669115E+02</pdfrwt>
<totfact> 0.20900751E+05</totfact>
</mgrwt>
</event>
<event>
 4    1  0.1429937E+004  0.2679459E+02  0.7546771E-02  0.1636488E+00
         -2   -1    0    0    0  501 -0.00000000000E+00  0.00000000000E+00  0.68260731722E+01  0.68260731722E+01  0.00000000000E+00 0. -1.
          2   -1    0    0  501    0  0.00000000000E+00 -0.00000000000E+00 -0.11482630902E+04  0.11482630902E+04  0.00000000000E+00 0. -1.
          2    1    1    2  502    0 -0.12237908569E+02 -0.23836601406E+02 -0.11211772387E+04  0.11214973699E+04  0.00000000000E+00 0. -1.
         -2    1    1    2    0  502  0.12237908569E+02  0.23836601406E+02 -0.20259778242E+02  0.33591793449E+02  0.00000000000E+00 0. -1.
<mgrwt>
<rscale>  2 0.26794588E+02</rscale>
<asrwt>0</asrwt>
<pdfrwt beam="2">  1        2 0.17665586E+00 0.26794588E+02</pdfrwt>
<pdfrwt beam="1">  1       -2 0.10501651E-02 0.26794588E+02</pdfrwt>
<totfact> 0.33321045E+04</totfact>
</mgrwt>
</event>
<event>
 4    1  0.1429937E+004  0.2889342E+02  0.7546771E-02  0.1610653E+00
         -2   -1    0    0    0  501 -0.00000000000E+00  0.00000000000E+00  0.39483764007E+01  0.39483764007E+01  0.00000000000E+00 0. -1.
          2   -1    0    0  501    0  0.00000000000E+00 -0.00000000000E+00 -0.16907531056E+04  0.16907531056E+04  0.00000000000E+00 0.  1.
          2    1    1    2  502    0  0.53090960518E+01  0.28401468348E+02 -0.16360017282E+04  0.16362568517E+04  0.00000000000E+00 0.  1.
         -2    1    1    2    0  502 -0.53090960518E+01 -0.28401468348E+02 -0.50803000944E+02  0.58444630293E+02  0.00000000000E+00 0. -1.
<mgrwt>
<rscale>  2 0.28893423E+02</rscale>
<asrwt>0</asrwt>
<pdfrwt beam="2">  1        2 0.26011622E+00 0.28893423E+02</pdfrwt>
<pdfrwt beam="1">  1       -2 0.60744168E-03 0.28893423E+02</pdfrwt>
<totfact> 0.38573430E+04</totfact>
</mgrwt>
</event>
<event>
 4    1  0.1429937E+004  0.2475640E+02  0.7546771E-02  0.1664526E+00
          2   -1    0    0  501    0  0.00000000000E+00  0.00000000000E+00  0.40298857756E+03  0.40298857756E+03  0.00000000000E+00 0. -1.
         -2   -1    0    0    0  501 -0.00000000000E+00 -0.00000000000E+00 -0.16708384001E+01  0.16708384001E+01  0.00000000000E+00 0.  1.
          2    1    1    2  502    0 -0.24370540199E+02 -0.43537992805E+01  0.14003492543E+03  0.14220639626E+03  0.00000000000E+00 0. -1.
         -2    1    1    2    0  502  0.24370540199E+02  0.43537992805E+01  0.26128281372E+03  0.26245301969E+03  0.00000000000E+00 0.  1.
<mgrwt>
<rscale>  2 0.24756401E+02</rscale>
<asrwt>0</asrwt>
<pdfrwt beam="1">  1        2 0.61998166E-01 0.24756401E+02</pdfrwt>
<pdfrwt beam="2">  1       -2 0.25705238E-03 0.24756401E+02</pdfrwt>
<totfact> 0.69854108E+05</totfact>
</mgrwt>
</event>
<event>
 4    1  0.1429937E+004  0.2458963E+02  0.7546771E-02  0.1666967E+00
          2   -1    0    0  501    0  0.00000000000E+00  0.00000000000E+00  0.24879937739E+03  0.24879937739E+03  0.00000000000E+00 0. -1.
         -2   -1    0    0    0  501 -0.00000000000E+00 -0.00000000000E+00 -0.25161654253E+01  0.25161654253E+01  0.00000000000E+00 0. -1.
          2    1    1    2  502    0 -0.12059579532E+02  0.21429334123E+02  0.14635845002E+03  0.14840972243E+03  0.00000000000E+00 0. -1.
         -2    1    1    2    0  502  0.12059579532E+02 -0.21429334123E+02  0.99924761944E+02  0.10290582039E+03  0.00000000000E+00 0. -1.
<mgrwt>
<rscale>  2 0.24589628E+02</rscale>
<asrwt>0</asrwt>
<pdfrwt beam="1">  1        2 0.38276808E-01 0.24589628E+02</pdfrwt>
<pdfrwt beam="2">  1       -2 0.38710257E-03 0.24589628E+02</pdfrwt>
<totfact> 0.65030856E+05</totfact>
</mgrwt>
</event>
<event>
 4    1  0.1429937E+004  0.2712750E+02  0.7546771E-02  0.1632199E+00
         -2   -1    0    0    0  501 -0.00000000000E+00  0.00000000000E+00  0.14906830692E+01  0.14906830692E+01  0.00000000000E+00 0.  1.
          2   -1    0    0  501    0  0.00000000000E+00 -0.00000000000E+00 -0.76756603067E+03  0.76756603067E+03  0.00000000000E+00 0. -1.
          2    1    1    2  502    0  0.60188527619E+01 -0.26451364652E+02 -0.61274011884E+03  0.61334032520E+03  0.00000000000E+00 0. -1.
         -2    1    1    2    0  502 -0.60188527619E+01  0.26451364652E+02 -0.15333522877E+03  0.15571638855E+03  0.00000000000E+00 0.  1.
<mgrwt>
<rscale>  2 0.27127500E+02</rscale>
<asrwt>0</asrwt>
<pdfrwt beam="2">  1        2 0.11808716E+00 0.27127500E+02</pdfrwt>
<pdfrwt beam="1">  1       -2 0.22933570E-03 0.27127500E+02</pdfrwt>
<totfact> 0.42616601E+05</totfact>
</mgrwt>
</event>
<event>
 4    1  0.1429937E+004  0.2698528E+02  0.7546771E-02  0.1634022E+00
         -2   -1    0    0    0  501 -0.00000000000E+00  0.00000000000E+00  0.44266926776E+01  0.44266926776E+01  0.00000000000E+00 0.  1.
          2   -1    0    0  501    0  0.00000000000E+00 -0.00000000000E+00 -0.82686990829E+03  0.82686990829E+03  0.00000000000E+00 0. -1.
          2    1    1    2  502    0  0.24019488265E+02 -0.12299165162E+02 -0.78323335231E+03  0.78369808565E+03  0.00000000000E+00 0. -1.
         -2    1    1    2    0  502 -0.24019488265E+02  0.12299165162E+02 -0.39209863298E+02  0.47598515314E+02  0.00000000000E+00 0.  1.
<mgrwt>
<rscale>  2 0.26985279E+02</rscale>
<asrwt>0</asrwt>
<pdfrwt beam="2">  1        2 0.12721064E+00 0.26985279E+02</pdfrwt>
<pdfrwt beam="1">  1       -2 0.68103026E-03 0.26985279E+02</pdfrwt>
<totfact> 0.90519422E+04</totfact>
</mgrwt>
</event>
<event>
 4    1  0.1429937E+004  0.3379076E+02  0.7546771E-02  0.1559609E+00
          2   -1    0    0  501    0  0.00000000000E+00  0.00000000000E+00  0.14822637302E+03  0.14822637302E+03  0.00000000000E+00 0.  1.
         -2   -1    0    0    0  501 -0.00000000000E+00 -0.00000000000E+00 -0.70743260267E+02  0.70743260267E+02  0.00000000000E+00 0. -1.
          2    1    1    2  502    0  0.24726995143E+02  0.23030229683E+02  0.14209375210E+03  0.14605632528E+03  0.00000000000E+00 0.  1.
         -2    1    1    2    0  502 -0.24726995143E+02 -0.23030229683E+02 -0.64610639346E+02  0.72913308009E+02  0.00000000000E+00 0. -1.
<mgrwt>
<rscale>  2 0.33790765E+02</rscale>
<asrwt>0</asrwt>
<pdfrwt beam="1">  1        2 0.22804057E-01 0.33790765E+02</pdfrwt>
<pdfrwt beam="2">  1       -2 0.10883579E-01 0.33790765E+02</pdfrwt>
<totfact> 0.11139395E+04</totfact>
</mgrwt>
</event>
<event>
 4    1  0.1429937E+004  0.2335954E+02  0.7546771E-02  0.1685748E+00
         -2   -1    0    0    0  501 -0.00000000000E+00  0.00000000000E+00  0.80431793669E+02  0.80431793669E+02  0.00000000000E+00 0. -1.
          2   -1    0    0  501    0  0.00000000000E+00 -0.00000000000E+00 -0.96009149357E+02  0.96009149357E+02  0.00000000000E+00 0. -1.
          2    1    1    2  502    0  0.20499459169E+02 -0.11200006006E+02 -0.92835118144E+02  0.95728925208E+02  0.00000000000E+00 0. -1.
         -2    1    1    2    0  502 -0.20499459169E+02  0.11200006006E+02  0.77257762455E+02  0.80712017819E+02  0.00000000000E+00 0. -1.
<mgrwt>
<rscale>  2 0.23359537E+02</rscale>
<asrwt>0</asrwt>
<pdfrwt beam="2">  1        2 0.14770638E-01 0.23359537E+02</pdfrwt>
<pdfrwt beam="1">  1       -2 0.12374122E-01 0.23359537E+02</pdfrwt>
<totfact> 0.13850525E+04</totfact>
</mgrwt>
</event>
<event>
 4    1  0.1429937E+004  0.2294179E+02  0.7546771E-02  0.1692455E+00
          2   -1    0    0  501    0  0.00000000000E+00  0.00000000000E+00  0.49970107886E+02  0.49970107886E+02  0.00000000000E+00 0.  1.
         -2   -1    0    0    0  501 -0.00000000000E+00 -0.00000000000E+00 -0.22444305216E+02  0.22444305216E+02  0.00000000000E+00 0.  1.
          2    1    1    2  502    0  0.12472833002E+02 -0.19254980123E+02  0.40139877970E+02  0.46233490308E+02  0.00000000000E+00 0.  1.
         -2    1    1    2    0  502 -0.12472833002E+02  0.19254980123E+02 -0.12614075300E+02  0.26180922793E+02  0.00000000000E+00 0.  1.
<mgrwt>
<rscale>  2 0.22941792E+02</rscale>
<asrwt>0</asrwt>
<pdfrwt beam="1">  1        2 0.76877089E-02 0.22941792E+02</pdfrwt>
<pdfrwt beam="2">  1       -2 0.34529700E-02 0.22941792E+02</pdfrwt>
<totfact> 0.18460744E+05</totfact>
</mgrwt>
</event>
<event>
 4    1  0.1429937E+004  0.2672355E+02  0.7546771E-02  0.1637413E+00
         -2   -1    0    0    0  501 -0.00000000000E+00  0.00000000000E+00  0.67686625272E+01  0.67686625272E+01  0.00000000000E+00 0.  1.
          2   -1    0    0  501    0  0.00000000000E+00 -0.00000000000E+00 -0.85502529575E+03  0.85502529575E+03  0.00000000000E+00 0.  1.
          2    1    1    2  502    0  0.91733720727E+01 -0.25099747892E+02 -0.82756445196E+03  0.82799581536E+03  0.00000000000E+00 0.  1.
         -2    1    1    2    0  502 -0.91733720727E+01  0.25099747892E+02 -0.20692181260E+02  0.33798142918E+02  0.00000000000E+00 0.  1.
<mgrwt>
<rscale>  2 0.26723550E+02</rscale>
<asrwt>0</asrwt>
<pdfrwt beam="2">  1        2 0.13154232E+00 0.26723550E+02</pdfrwt>
<pdfrwt beam="1">  1       -2 0.10413329E-02 0.26723550E+02</pdfrwt>
<totfact> 0.48836526E+04</totfact>
</mgrwt>
</event>
<event>
 4    1  0.1429937E+004  0.4859182E+02  0.7546771E-02  0.1453088E+00
          2   -1    0    0  501    0  0.00000000000E+00  0.00000000000E+00  0.14975005390E+02  0.14975005390E+02  0.00000000000E+00 0. -1.
         -2   -1    0    0    0  501 -0.00000000000E+00 -0.00000000000E+00 -0.16913364871E+03  0.16913364871E+03  0.00000000000E+00 0. -1.
          2    1    1    2  502    0 -0.13281185223E+02  0.46741555923E+02 -0.10104129220E+03  0.11211826640E+03  0.00000000000E+00 0. -1.
         -2    1    1    2    0  502  0.13281185223E+02 -0.46741555923E+02 -0.53117351111E+02  0.71990387692E+02  0.00000000000E+00 0. -1.
<mgrwt>
<rscale>  2 0.48591823E+02</rscale>
<asrwt>0</asrwt>
<pdfrwt beam="1">  1        2 0.23038469E-02 0.48591823E+02</pdfrwt>
<pdfrwt beam="2">  1       -2 0.26020562E-01 0.48591823E+02</pdfrwt>
<totfact> 0.46057964E+04</totfact>
</mgrwt>
</event>
<event>
 4    1  0.1429937E+004  0.2122357E+02  0.7546771E-02  0.1722036E+00
          2   -1    0    0  501    0  0.00000000000E+00  0.00000000000E+00  0.13369719302E+03  0.13369719302E+03  0.00000000000E+00 0.  1.
         -2   -1    0    0    0  501 -0.00000000000E+00 -0.00000000000E+00 -0.38792055994E+01  0.38792055994E+01  0.00000000000E+00 0. -1.
          2    1    1    2  502    0  0.13584415225E+02  0.16306537751E+02  0.39964675372E+02  0.45250577765E+02  0.00000000000E+00 0.  1.
         -2    1    1    2    0  502 -0.13584415225E+02 -0.16306537751E+02  0.89853312051E+02  0.92325820857E+02  0.00000000000E+00 0. -1.
<mgrwt>
<rscale>  2 0.21223571E+02</rscale>
<asrwt>0</asrwt>
<pdfrwt beam="1">  1        2 0.20568795E-01 0.21223571E+02</pdfrwt>
<pdfrwt beam="2">  1       -2 0.59680096E-03 0.21223571E+02</pdfrwt>
<totfact> 0.65554912E+05</totfact>
</mgrwt>
</event>
<event>
 4    1  0.1429937E+004  0.2114495E+02  0.7546771E-02  0.1723473E+00
          2   -1    0    0  501    0  0.00000000000E+00  0.00000000000E+00  0.21197855704E+03  0.21197855704E+03  0.00000000000E+00 0.  1.
         -2   -1    0    0    0  501 -0.00000000000E+00 -0.00000000000E+00 -0.48985483982E+01  0.48985483982E+01  0.00000000000E+00 0.  1.
          2    1    1    2  502    0  0.16393791840E+02  0.13354868149E+02  0.18536764285E+03  0.18656975085E+03  0.00000000000E+00 0.  1.
         -2    1    1    2    0  502 -0.16393791840E+02 -0.13354868149E+02  0.21712365788E+02  0.30307354591E+02  0.00000000000E+00 0.  1.
<mgrwt>
<rscale>  2 0.21144950E+02</rscale>
<asrwt>0</asrwt>
<pdfrwt beam="1">  1        2 0.32612079E-01 0.21144950E+02</pdfrwt>
<pdfrwt beam="2">  1       -2 0.75362300E-03 0.21144950E+02</pdfrwt>
<totfact> 0.29871755E+05</totfact>
</mgrwt>
</event>
<event>
 4    1  0.1429937E+004  0.2025664E+02  0.7546771E-02  0.1740272E+00
          2   -1    0    0  501    0  0.00000000000E+00  0.00000000000E+00  0.86003157450E+03  0.86003157450E+03  0.00000000000E+00 0. -1.
         -2   -1    0    0    0  501 -0.00000000000E+00 -0.00000000000E+00 -0.10124252958E+02  0.10124252958E+02  0.00000000000E+00 0.  1.
          2    1    1    2  502    0 -0.20189750064E+02 -0.16448593984E+01  0.84965619336E+03  0.84989762824E+03  0.00000000000E+00 0. -1.
         -2    1    1    2    0  502  0.20189750064E+02  0.16448593984E+01  0.25112817817E+00  0.20258199216E+02  0.00000000000E+00 0.  1.
<mgrwt>
<rscale>  2 0.20256643E+02</rscale>
<asrwt>0</asrwt>
<pdfrwt beam="1">  1        2 0.13231249E+00 0.20256643E+02</pdfrwt>
<pdfrwt beam="2">  1       -2 0.15575781E-02 0.20256643E+02</pdfrwt>
<totfact> 0.26745943E+04</totfact>
</mgrwt>
</event>
<event>
 4    1  0.1429937E+004  0.2451338E+02  0.7546771E-02  0.1668091E+00
          2   -1    0    0  501    0  0.00000000000E+00  0.00000000000E+00  0.57348028898E+03  0.57348028898E+03  0.00000000000E+00 0. -1.
         -2   -1    0    0    0  501 -0.00000000000E+00 -0.00000000000E+00 -0.19581734333E+03  0.19581734333E+03  0.00000000000E+00 0.  1.
          2    1    1    2  502    0  0.11722592011E+02  0.21528744942E+02  0.57244977602E+03  0.57297439043E+03  0.00000000000E+00 0. -1.
         -2    1    1    2    0  502 -0.11722592011E+02 -0.21528744942E+02 -0.19478683036E+03  0.19632324189E+03  0.00000000000E+00 0.  1.
<mgrwt>
<rscale>  2 0.24513385E+02</rscale>
<asrwt>0</asrwt>
<pdfrwt beam="1">  1        2 0.88227736E-01 0.24513385E+02</pdfrwt>
<pdfrwt beam="2">  1       -2 0.30125745E-01 0.24513385E+02</pdfrwt>
<totfact> 0.53519977E+02</totfact>
</mgrwt>
</event>
<event>
 4    1  0.1429937E+004  0.6968280E+02  0.7546771E-02  0.1361175E+00
         -2   -1    0    0    0  501 -0.00000000000E+00  0.00000000000E+00  0.34949743638E+03  0.34949743638E+03  0.00000000000E+00 0.  1.
          2   -1    0    0  501    0  0.00000000000E+00 -0.00000000000E+00 -0.63025491227E+02  0.63025491227E+02  0.00000000000E+00 0. -1.
          2    1    1    2  502    0  0.20639341876E+02  0.66556069858E+02 -0.38877798712E+02  0.79794586914E+02  0.00000000000E+00 0. -1.
         -2    1    1    2    0  502 -0.20639341876E+02 -0.66556069858E+02  0.32534974387E+03  0.33272834070E+03  0.00000000000E+00 0.  1.
<mgrwt>
<rscale>  2 0.69682802E+02</rscale>
<asrwt>0</asrwt>
<pdfrwt beam="2">  1        2 0.96962297E-02 0.69682802E+02</pdfrwt>
<pdfrwt beam="1">  1       -2 0.53768835E-01 0.69682802E+02</pdfrwt>
<totfact> 0.20451247E+03</totfact>
</mgrwt>
</event>
<event>
 4    1  0.1429937E+004  0.2369285E+02  0.7546771E-02  0.1680519E+00
         -2   -1    0    0    0  501 -0.00000000000E+00  0.00000000000E+00  0.20154191821E+01  0.20154191821E+01  0.00000000000E+00 0.  1.
          2   -1    0    0  501    0  0.00000000000E+00 -0.00000000000E+00 -0.89646936454E+03  0.89646936454E+03  0.00000000000E+00 0. -1.
          2    1    1    2  502    0 -0.23678541119E+02  0.82342942429E+00 -0.82020781132E+03  0.82054994065E+03  0.00000000000E+00 0. -1.
         -2    1    1    2    0  502  0.23678541119E+02 -0.82342942429E+00 -0.74246134037E+02  0.77934843074E+02  0.00000000000E+00 0.  1.
<mgrwt>
<rscale>  2 0.23692854E+02</rscale>
<asrwt>0</asrwt>
<pdfrwt beam="2">  1        2 0.13791850E+00 0.23692854E+02</pdfrwt>
<pdfrwt beam="1">  1       -2 0.31006419E-03 0.23692854E+02</pdfrwt>
<totfact> 0.23011777E+05</totfact>
</mgrwt>
</event>
<event>
 4    1  0.1429937E+004  0.2813986E+02  0.7546771E-02  0.1619610E+00
         -2   -1    0    0    0  501 -0.00000000000E+00  0.00000000000E+00  0.13191888674E+04  0.13191888674E+04  0.00000000000E+00 0. -1.
          2   -1    0    0  501    0  0.00000000000E+00 -0.00000000000E+00 -0.12654278276E+01  0.12654278276E+01  0.00000000000E+00 0.  1.
          2    1    1    2  502    0 -0.61668493597E+01  0.27455813413E+02  0.18028595397E+03  0.18246883821E+03  0.00000000000E+00 0.  1.
         -2    1    1    2    0  502  0.61668493597E+01 -0.27455813413E+02  0.11376374856E+04  0.11379854570E+04  0.00000000000E+00 0. -1.
<mgrwt>
<rscale>  2 0.28139860E+02</rscale>
<asrwt>0</asrwt>
<pdfrwt beam="2">  1        2 0.19468226E-03 0.28139860E+02</pdfrwt>
<pdfrwt beam="1">  1       -2 0.20295103E+00 0.28139860E+02</pdfrwt>
<totfact> 0.14058117E+04</totfact>
</mgrwt>
</event>
<event>
 4    1  0.1429937E+004  0.3326991E+02  0.7546771E-02  0.1564524E+00
          2   -1    0    0  501    0  0.00000000000E+00  0.00000000000E+00  0.57577388449E+03  0.57577388449E+03  0.00000000000E+00 0.  1.
         -2   -1    0    0    0  501 -0.00000000000E+00 -0.00000000000E+00 -0.43154725628E+01  0.43154725628E+01  0.00000000000E+00 0.  1.
          2    1    1    2  502    0  0.35321941155E+01 -0.33081876386E+02  0.50171521809E+03  0.50281711089E+03  0.00000000000E+00 0.  1.
         -2    1    1    2    0  502 -0.35321941155E+01  0.33081876386E+02  0.69743193838E+02  0.77272246164E+02  0.00000000000E+00 0.  1.
<mgrwt>
<rscale>  2 0.33269910E+02</rscale>
<asrwt>0</asrwt>
<pdfrwt beam="1">  1        2 0.88580537E-01 0.33269910E+02</pdfrwt>
<pdfrwt beam="2">  1       -2 0.66391931E-03 0.33269910E+02</pdfrwt>
<totfact> 0.14571915E+05</totfact>
</mgrwt>
</event>
<event>
 4    1  0.1429937E+004  0.2222915E+02  0.7546771E-02  0.1704319E+00
          2   -1    0    0  501    0  0.00000000000E+00  0.00000000000E+00  0.18845513068E+03  0.18845513068E+03  0.00000000000E+00 0. -1.
         -2   -1    0    0    0  501 -0.00000000000E+00 -0.00000000000E+00 -0.83369217465E+01  0.83369217465E+01  0.00000000000E+00 0. -1.
          2    1    1    2  502    0 -0.22070144901E+02  0.26539940780E+01  0.17152553842E+03  0.17295995291E+03  0.00000000000E+00 0. -1.
         -2    1    1    2    0  502  0.22070144901E+02 -0.26539940780E+01  0.85926705044E+01  0.23832099507E+02  0.00000000000E+00 0. -1.
<mgrwt>
<rscale>  2 0.22229147E+02</rscale>
<asrwt>0</asrwt>
<pdfrwt beam="1">  1        2 0.28993094E-01 0.22229147E+02</pdfrwt>
<pdfrwt beam="2">  1       -2 0.12826035E-02 0.22229147E+02</pdfrwt>
<totfact> 0.16641386E+05</totfact>
</mgrwt>
</event>
<event>
 4    1  0.1429937E+004  0.2098770E+02  0.7546771E-02  0.1726371E+00
          2   -1    0    0  501    0  0.00000000000E+00  0.00000000000E+00  0.98428880211E+03  0.98428880211E+03  0.00000000000E+00 0. -1.
         -2   -1    0    0    0  501 -0.00000000000E+00 -0.00000000000E+00 -0.47031482452E+00  0.47031482452E+00  0.00000000000E+00 0. -1.
          2    1    1    2  502    0  0.80672960817E-01  0.20987545078E+02  0.60032084395E+03  0.60068760536E+03  0.00000000000E+00 0. -1.
         -2    1    1    2    0  502 -0.80672960817E-01 -0.20987545078E+02  0.38349764334E+03  0.38407151157E+03  0.00000000000E+00 0. -1.
<mgrwt>
<rscale>  2 0.20987700E+02</rscale>
<asrwt>0</asrwt>
<pdfrwt beam="1">  1        2 0.15142740E+00 0.20987700E+02</pdfrwt>
<pdfrwt beam="2">  1       -2 0.72356915E-04 0.20987700E+02</pdfrwt>
<totfact> 0.13552924E+06</totfact>
</mgrwt>
</event>
<event>
 4    1  0.1429937E+004  0.2141234E+02  0.7546771E-02  0.1718618E+00
         -2   -1    0    0    0  501 -0.00000000000E+00  0.00000000000E+00  0.24353831885E+02  0.24353831885E+02  0.00000000000E+00 0. -1.
          2   -1    0    0  501    0  0.00000000000E+00 -0.00000000000E+00 -0.15277963375E+04  0.15277963375E+04  0.00000000000E+00 0. -1.
          2    1    1    2  502    0 -0.10387553117E+02  0.18723964524E+02 -0.15229999621E+04  0.15231504761E+04  0.00000000000E+00 0. -1.
         -2    1    1    2    0  502  0.10387553117E+02 -0.18723964524E+02  0.19557456512E+02  0.28999693317E+02  0.00000000000E+00 0. -1.
<mgrwt>
<rscale>  2 0.21412335E+02</rscale>
<asrwt>0</asrwt>
<pdfrwt beam="2">  1        2 0.23504558E+00 0.21412335E+02</pdfrwt>
<pdfrwt beam="1">  1       -2 0.37467436E-02 0.21412335E+02</pdfrwt>
<totfact> 0.36907906E+03</totfact>
</mgrwt>
</event>
<event>
 4    1  0.1429937E+004  0.2184875E+02  0.7546771E-02  0.1710881E+00
         -2   -1    0    0    0  501 -0.00000000000E+00  0.00000000000E+00  0.10356916451E+01  0.10356916451E+01  0.00000000000E+00 0. -1.
          2   -1    0    0  501    0  0.00000000000E+00 -0.00000000000E+00 -0.99243859601E+03  0.99243859601E+03  0.00000000000E+00 0. -1.
          2    1    1    2  502    0 -0.15115853088E+02  0.15775901458E+02 -0.85922721408E+03  0.85950495839E+03  0.00000000000E+00 0. -1.
         -2    1    1    2    0  502  0.15115853088E+02 -0.15775901458E+02 -0.13217569028E+03  0.13396932926E+03  0.00000000000E+00 0. -1.
<mgrwt>
<rscale>  2 0.21848755E+02</rscale>
<asrwt>0</asrwt>
<pdfrwt beam="2">  1        2 0.15268225E+00 0.21848755E+02</pdfrwt>
<pdfrwt beam="1">  1       -2 0.15933781E-03 0.21848755E+02</pdfrwt>
<totfact> 0.48157329E+05</totfact>
</mgrwt>
</event>
<event>
 4    1  0.1429937E+004  0.4770064E+02  0.7546771E-02  0.1458153E+00
         -2   -1    0    0    0  501 -0.00000000000E+00  0.00000000000E+00  0.22173724137E+02  0.22173724137E+02  0.00000000000E+00 0.  1.
          2   -1    0    0  501    0  0.00000000000E+00 -0.00000000000E+00 -0.28380589363E+03  0.28380589363E+03  0.00000000000E+00 0.  1.
          2    1    1    2  502    0  0.46838907104E+02 -0.90259329310E+01 -0.25305804509E+03  0.25751451390E+03  0.00000000000E+00 0.  1.
         -2    1    1    2    0  502 -0.46838907104E+02  0.90259329310E+01 -0.85741244080E+01  0.48465103872E+02  0.00000000000E+00 0.  1.
<mgrwt>
<rscale>  2 0.47700636E+02</rscale>
<asrwt>0</asrwt>
<pdfrwt beam="2">  1        2 0.43662443E-01 0.47700636E+02</pdfrwt>
<pdfrwt beam="1">  1       -2 0.34113424E-02 0.47700636E+02</pdfrwt>
<totfact> 0.32825184E+04</totfact>
</mgrwt>
</event>
<event>
 4    1  0.1429937E+004  0.7585902E+02  0.7546771E-02  0.1341231E+00
         -2   -1    0    0    0  501 -0.00000000000E+00  0.00000000000E+00  0.10448079929E+02  0.10448079929E+02  0.00000000000E+00 0.  1.
          2   -1    0    0  501    0  0.00000000000E+00 -0.00000000000E+00 -0.18744385994E+04  0.18744385994E+04  0.00000000000E+00 0.  1.
          2    1    1    2  502    0 -0.30915351298E+01  0.75796000157E+02 -0.17239633217E+04  0.17256315151E+04  0.00000000000E+00 0.  1.
         -2    1    1    2    0  502  0.30915351298E+01 -0.75796000157E+02 -0.14002719779E+03  0.15925516428E+03  0.00000000000E+00 0.  1.
<mgrwt>
<rscale>  2 0.75859022E+02</rscale>
<asrwt>0</asrwt>
<pdfrwt beam="2">  1        2 0.28837529E+00 0.75859022E+02</pdfrwt>
<pdfrwt beam="1">  1       -2 0.16073962E-02 0.75859022E+02</pdfrwt>
<totfact> 0.88625370E+03</totfact>
</mgrwt>
</event>
<event>
 4    1  0.1429937E+004  0.2272345E+02  0.7546771E-02  0.1696032E+00
          2   -1    0    0  501    0  0.00000000000E+00  0.00000000000E+00  0.13703387787E+04  0.13703387787E+04  0.00000000000E+00 0.  1.
         -2   -1    0    0    0  501 -0.00000000000E+00 -0.00000000000E+00 -0.10699421364E+01  0.10699421364E+01  0.00000000000E+00 0.  1.
          2    1    1    2  502    0  0.46375834420E+01 -0.22245182257E+02  0.12365405889E+04  0.12367493615E+04  0.00000000000E+00 0.  1.
         -2    1    1    2    0  502 -0.46375834420E+01  0.22245182257E+02  0.13272824767E+03  0.13465935929E+03  0.00000000000E+00 0.  1.
<mgrwt>
<rscale>  2 0.22723453E+02</rscale>
<asrwt>0</asrwt>
<pdfrwt beam="1">  1        2 0.21081995E+00 0.22723453E+02</pdfrwt>
<pdfrwt beam="2">  1       -2 0.16460758E-03 0.22723453E+02</pdfrwt>
<totfact> 0.30012926E+05</totfact>
</mgrwt>
</event>
<event>
 4    1  0.1429937E+004  0.3257452E+02  0.7546771E-02  0.1571258E+00
          2   -1    0    0  501    0  0.00000000000E+00  0.00000000000E+00  0.20342236003E+04  0.20342236003E+04  0.00000000000E+00 0.  1.
         -2   -1    0    0    0  501 -0.00000000000E+00 -0.00000000000E+00 -0.68608186658E+00  0.68608186658E+00  0.00000000000E+00 0.  1.
          2    1    1    2  502    0 -0.29453257290E+02  0.13914206801E+02  0.15149125437E+04  0.15152627213E+04  0.00000000000E+00 0.  1.
         -2    1    1    2    0  502  0.29453257290E+02 -0.13914206801E+02  0.51862497475E+03  0.51964696088E+03  0.00000000000E+00 0.  1.
<mgrwt>
<rscale>  2 0.32574522E+02</rscale>
<asrwt>0</asrwt>
<pdfrwt beam="1">  1        2 0.31295265E+00 0.32574522E+02</pdfrwt>
<pdfrwt beam="2">  1       -2 0.10555269E-03 0.32574522E+02</pdfrwt>
<totfact> 0.28413037E+05</totfact>
</mgrwt>
</event>
<event>
 4    1  0.1429937E+004  0.2391931E+02  0.7546771E-02  0.1677028E+00
          2   -1    0    0  501    0  0.00000000000E+00  0.00000000000E+00  0.38577552311E+02  0.38577552311E+02  0.00000000000E+00 0.  1.
         -2   -1    0    0    0  501 -0.00000000000E+00 -0.00000000000E+00 -0.10980657506E+03  0.10980657506E+03  0.00000000000E+00 0.  1.
          2    1    1    2  502    0  0.85051903030E+01 -0.22356098264E+02  0.33385609890E+02  0.41069847083E+02  0.00000000000E+00 0.  1.
         -2    1    1    2    0  502 -0.85051903030E+01  0.22356098264E+02 -0.10461463264E+03  0.10731428029E+03  0.00000000000E+00 0.  1.
<mgrwt>
<rscale>  2 0.23919310E+02</rscale>
<asrwt>0</asrwt>
<pdfrwt beam="1">  1        2 0.59350082E-02 0.23919310E+02</pdfrwt>
<pdfrwt beam="2">  1       -2 0.16893319E-01 0.23919310E+02</pdfrwt>
<totfact> 0.24699373E+04</totfact>
</mgrwt>
</event>
<event>
 4    1  0.1429937E+004  0.2221159E+02  0.7546771E-02  0.1704618E+00
          2   -1    0    0  501    0  0.00000000000E+00  0.00000000000E+00  0.60366305213E+02  0.60366305213E+02  0.00000000000E+00 0. -1.
         -2   -1    0    0    0  501 -0.00000000000E+00 -0.00000000000E+00 -0.57992598021E+02  0.57992598021E+02  0.00000000000E+00 0.  1.
          2    1    1    2  502    0 -0.56832738544E+01  0.21472195086E+02  0.56038054296E+02  0.60279501431E+02  0.00000000000E+00 0. -1.
         -2    1    1    2    0  502  0.56832738544E+01 -0.21472195086E+02 -0.53664347105E+02  0.58079401802E+02  0.00000000000E+00 0.  1.
<mgrwt>
<rscale>  2 0.22211591E+02</rscale>
<asrwt>0</asrwt>
<pdfrwt beam="1">  1        2 0.92871239E-02 0.22211591E+02</pdfrwt>
<pdfrwt beam="2">  1       -2 0.89219382E-02 0.22211591E+02</pdfrwt>
<totfact> 0.37784555E+04</totfact>
</mgrwt>
</event>
<event>
 4    1  0.1429937E+004  0.4044226E+02  0.7546771E-02  0.1504982E+00
         -2   -1    0    0    0  501 -0.00000000000E+00  0.00000000000E+00  0.65213161530E+02  0.65213161530E+02  0.00000000000E+00 0.  1.
          2   -1    0    0  501    0  0.00000000000E+00 -0.00000000000E+00 -0.47792305946E+03  0.47792305946E+03  0.00000000000E+00 0.  1.
          2    1    1    2  502    0  0.40401509658E+02 -0.18151207643E+01 -0.47070135553E+03  0.47243554348E+03  0.00000000000E+00 0.  1.
         -2    1    1    2    0  502 -0.40401509658E+02  0.18151207643E+01  0.57991457599E+02  0.70700677511E+02  0.00000000000E+00 0.  1.
<mgrwt>
<rscale>  2 0.40442263E+02</rscale>
<asrwt>0</asrwt>
<pdfrwt beam="2">  1        2 0.73526625E-01 0.40442263E+02</pdfrwt>
<pdfrwt beam="1">  1       -2 0.10032794E-01 0.40442263E+02</pdfrwt>
<totfact> 0.38785003E+03</totfact>
</mgrwt>
</event>
<event>
 4    1  0.1429937E+004  0.2157855E+02  0.7546771E-02  0.1715644E+00
         -2   -1    0    0    0  501 -0.00000000000E+00  0.00000000000E+00  0.41634598562E+03  0.41634598562E+03  0.00000000000E+00 0.  1.
          2   -1    0    0  501    0  0.00000000000E+00 -0.00000000000E+00 -0.14824452307E+01  0.14824452307E+01  0.00000000000E+00 0.  1.
          2    1    1    2  502    0 -0.13848963889E+01  0.21534063946E+02  0.10390156268E+03  0.10611865328E+03  0.00000000000E+00 0.  1.
         -2    1    1    2    0  502  0.13848963889E+01 -0.21534063946E+02  0.31096197771E+03  0.31170977757E+03  0.00000000000E+00 0.  1.
<mgrwt>
<rscale>  2 0.21578551E+02</rscale>
<asrwt>0</asrwt>
<pdfrwt beam="2">  1        2 0.22806883E-03 0.21578551E+02</pdfrwt>
<pdfrwt beam="1">  1       -2 0.64053135E-01 0.21578551E+02</pdfrwt>
<totfact> 0.15214323E+05</totfact>
</mgrwt>
</event>
<event>
 4    1  0.1429937E+004  0.2468443E+02  0.7546771E-02  0.1665576E+00
          2   -1    0    0  501    0  0.00000000000E+00  0.00000000000E+00  0.74941079760E+03  0.74941079760E+03  0.00000000000E+00 0.  1.
         -2   -1    0    0    0  501 -0.00000000000E+00 -0.00000000000E+00 -0.50815062852E+01  0.50815062852E+01  0.00000000000E+00 0.  1.
          2    1    1    2  502    0  0.22636707270E+02 -0.98438020500E+01  0.71791541490E+03  0.71833965776E+03  0.00000000000E+00 0.  1.
         -2    1    1    2    0  502 -0.22636707270E+02  0.98438020500E+01  0.26413876414E+02  0.36152646128E+02  0.00000000000E+00 0.  1.
<mgrwt>
<rscale>  2 0.24684427E+02</rscale>
<asrwt>0</asrwt>
<pdfrwt beam="1">  1        2 0.11529388E+00 0.24684427E+02</pdfrwt>
<pdfrwt beam="2">  1       -2 0.78177079E-03 0.24684427E+02</pdfrwt>
<totfact> 0.82482711E+04</totfact>
</mgrwt>
</event>
<event>
 4    1  0.1429937E+004  0.2344730E+02  0.7546771E-02  0.1684360E+00
         -2   -1    0    0    0  501 -0.00000000000E+00  0.00000000000E+00  0.16178820848E+01  0.16178820848E+01  0.00000000000E+00 0.  1.
          2   -1    0    0  501    0  0.00000000000E+00 -0.00000000000E+00 -0.83439680910E+03  0.83439680910E+03  0.00000000000E+00 0.  1.
          2    1    1    2  502    0 -0.23071312790E+02 -0.41821582038E+01 -0.73821309834E+03  0.73858537386E+03  0.00000000000E+00 0.  1.
         -2    1    1    2    0  502  0.23071312790E+02  0.41821582038E+01 -0.94565828672E+02  0.97429317320E+02  0.00000000000E+00 0.  1.
<mgrwt>
<rscale>  2 0.23447301E+02</rscale>
<asrwt>0</asrwt>
<pdfrwt beam="2">  1        2 0.12836894E+00 0.23447301E+02</pdfrwt>
<pdfrwt beam="1">  1       -2 0.24890456E-03 0.23447301E+02</pdfrwt>
<totfact> 0.33442958E+05</totfact>
</mgrwt>
</event>
<event>
 4    1  0.1429937E+004  0.4027686E+02  0.7546771E-02  0.1506184E+00
          2   -1    0    0  501    0  0.00000000000E+00  0.00000000000E+00  0.80609802616E+03  0.80609802616E+03  0.00000000000E+00 0.  1.
         -2   -1    0    0    0  501 -0.00000000000E+00 -0.00000000000E+00 -0.15244414924E+02  0.15244414924E+02  0.00000000000E+00 0.  1.
          2    1    1    2  502    0  0.36808613663E+02  0.16350890778E+02  0.77803228672E+03  0.77907410741E+03  0.00000000000E+00 0.  1.
         -2    1    1    2    0  502 -0.36808613663E+02 -0.16350890778E+02  0.12821324522E+02  0.42268333673E+02  0.00000000000E+00 0.  1.
<mgrwt>
<rscale>  2 0.40276863E+02</rscale>
<asrwt>0</asrwt>
<pdfrwt beam="1">  1        2 0.12401505E+00 0.40276863E+02</pdfrwt>
<pdfrwt beam="2">  1       -2 0.23452952E-02 0.40276863E+02</pdfrwt>
<totfact> 0.18089218E+04</totfact>
</mgrwt>
</event>
<event>
 4    1  0.1429937E+004  0.2416555E+02  0.7546771E-02  0.1673285E+00
         -2   -1    0    0    0  501 -0.00000000000E+00  0.00000000000E+00  0.74648215774E+00  0.74648215774E+00  0.00000000000E+00 0.  1.
          2   -1    0    0  501    0  0.00000000000E+00 -0.00000000000E+00 -0.78468956765E+03  0.78468956765E+03  0.00000000000E+00 0. -1.
          2    1    1    2  502    0 -0.20212241427E+02 -0.13245318276E+02 -0.37030093250E+03  0.37108860636E+03  0.00000000000E+00 0. -1.
         -2    1    1    2    0  502  0.20212241427E+02  0.13245318276E+02 -0.41364215299E+03  0.41434744345E+03  0.00000000000E+00 0.  1.
<mgrwt>
<rscale>  2 0.24165549E+02</rscale>
<asrwt>0</asrwt>
<pdfrwt beam="2">  1        2 0.12072143E+00 0.24165549E+02</pdfrwt>
<pdfrwt beam="1">  1       -2 0.11484345E-03 0.24165549E+02</pdfrwt>
<totfact> 0.10076982E+06</totfact>
</mgrwt>
</event>
<event>
 4    1  0.1429937E+004  0.2297618E+02  0.7546771E-02  0.1691897E+00
          2   -1    0    0  501    0  0.00000000000E+00  0.00000000000E+00  0.71684985879E+03  0.71684985879E+03  0.00000000000E+00 0. -1.
         -2   -1    0    0    0  501 -0.00000000000E+00 -0.00000000000E+00 -0.73659721367E+00  0.73659721367E+00  0.00000000000E+00 0. -1.
          2    1    1    2  502    0 -0.21170119331E+02 -0.89292050095E+01  0.36357600945E+03  0.36430127546E+03  0.00000000000E+00 0. -1.
         -2    1    1    2    0  502  0.21170119331E+02  0.89292050095E+01  0.35253725213E+03  0.35328518055E+03  0.00000000000E+00 0. -1.
<mgrwt>
<rscale>  2 0.22976176E+02</rscale>
<asrwt>0</asrwt>
<pdfrwt beam="1">  1        2 0.11028404E+00 0.22976176E+02</pdfrwt>
<pdfrwt beam="2">  1       -2 0.11332322E-03 0.22976176E+02</pdfrwt>
<totfact> 0.11162817E+06</totfact>
</mgrwt>
</event>
<event>
 4    1  0.1429937E+004  0.2981809E+02  0.7546771E-02  0.1600108E+00
         -2   -1    0    0    0  501 -0.00000000000E+00  0.00000000000E+00  0.13603525103E+02  0.13603525103E+02  0.00000000000E+00 0.  1.
          2   -1    0    0  501    0  0.00000000000E+00 -0.00000000000E+00 -0.56942506105E+03  0.56942506105E+03  0.00000000000E+00 0.  1.
          2    1    1    2  502    0  0.27657200446E+02  0.11144400774E+02 -0.55218506826E+03  0.55298957315E+03  0.00000000000E+00 0.  1.
         -2    1    1    2    0  502 -0.27657200446E+02 -0.11144400774E+02 -0.36364676907E+01  0.30039013006E+02  0.00000000000E+00 0.  1.
<mgrwt>
<rscale>  2 0.29818089E+02</rscale>
<asrwt>0</asrwt>
<pdfrwt beam="2">  1        2 0.87603859E-01 0.29818089E+02</pdfrwt>
<pdfrwt beam="1">  1       -2 0.20928499E-02 0.29818089E+02</pdfrwt>
<totfact> 0.29848374E+04</totfact>
</mgrwt>
</event>
<event>
 4    1  0.1429937E+004  0.2172281E+02  0.7546771E-02  0.1713090E+00
          2   -1    0    0  501    0  0.00000000000E+00  0.00000000000E+00  0.11808158029E+04  0.11808158029E+04  0.00000000000E+00 0. -1.
         -2   -1    0    0    0  501 -0.00000000000E+00 -0.00000000000E+00 -0.20591747213E+01  0.20591747213E+01  0.00000000000E+00 0.  1.
          2    1    1    2  502    0 -0.20702031175E+02  0.65807585792E+01  0.11203333216E+04  0.11205439001E+04  0.00000000000E+00 0. -1.
         -2    1    1    2    0  502  0.20702031175E+02 -0.65807585792E+01  0.58423306589E+02  0.62331077570E+02  0.00000000000E+00 0.  1.
<mgrwt>
<rscale>  2 0.21722810E+02</rscale>
<asrwt>0</asrwt>
<pdfrwt beam="1">  1        2 0.18166343E+00 0.21722810E+02</pdfrwt>
<pdfrwt beam="2">  1       -2 0.31679705E-03 0.21722810E+02</pdfrwt>
<totfact> 0.15446185E+05</totfact>
</mgrwt>
</event>
<event>
 4    1  0.1429937E+004  0.3842817E+02  0.7546771E-02  0.1520108E+00
         -2   -1    0    0    0  501 -0.00000000000E+00  0.00000000000E+00  0.10448303109E+02  0.10448303109E+02  0.00000000000E+00 0. -1.
          2   -1    0    0  501    0  0.00000000000E+00 -0.00000000000E+00 -0.50632607459E+03  0.50632607459E+03  0.00000000000E+00 0. -1.
          2    1    1    2  502    0  0.17232103374E+02 -0.34347908306E+02 -0.46731846386E+03  0.46889579957E+03  0.00000000000E+00 0. -1.
         -2    1    1    2    0  502 -0.17232103374E+02  0.34347908306E+02 -0.28559307622E+02  0.47878578128E+02  0.00000000000E+00 0. -1.
<mgrwt>
<rscale>  2 0.38428169E+02</rscale>
<asrwt>0</asrwt>
<pdfrwt beam="2">  1        2 0.77896328E-01 0.38428169E+02</pdfrwt>
<pdfrwt beam="1">  1       -2 0.16074311E-02 0.38428169E+02</pdfrwt>
<totfact> 0.50749502E+04</totfact>
</mgrwt>
</event>
<event>
 4    1  0.1429937E+004  0.2227255E+02  0.7546771E-02  0.1703581E+00
          2   -1    0    0  501    0  0.00000000000E+00  0.00000000000E+00  0.29711851165E+03  0.29711851165E+03  0.00000000000E+00 0.  1.
         -2   -1    0    0    0  501 -0.00000000000E+00 -0.00000000000E+00 -0.32898670516E+02  0.32898670516E+02  0.00000000000E+00 0. -1.
          2    1    1    2  502    0  0.55726366229E+01 -0.21564139759E+02  0.29287694502E+03  0.29372260949E+03  0.00000000000E+00 0.  1.
         -2    1    1    2    0  502 -0.55726366229E+01  0.21564139759E+02 -0.28657103886E+02  0.36294572674E+02  0.00000000000E+00 0. -1.
<mgrwt>
<rscale>  2 0.22272548E+02</rscale>
<asrwt>0</asrwt>
<pdfrwt beam="1">  1        2 0.45710538E-01 0.22272548E+02</pdfrwt>
<pdfrwt beam="2">  1       -2 0.50613341E-02 0.22272548E+02</pdfrwt>
<totfact> 0.15856328E+04</totfact>
</mgrwt>
</event>
<event>
 4    1  0.1429937E+004  0.2277326E+02  0.7546771E-02  0.1695212E+00
          2   -1    0    0  501    0  0.00000000000E+00  0.00000000000E+00  0.55657611764E+03  0.55657611764E+03  0.00000000000E+00 0.  1.
         -2   -1    0    0    0  501 -0.00000000000E+00 -0.00000000000E+00 -0.12545059430E+02  0.12545059430E+02  0.00000000000E+00 0.  1.
          2    1    1    2  502    0  0.21942020380E+01 -0.22667310791E+02  0.54580410491E+03  0.54627899688E+03  0.00000000000E+00 0.  1.
         -2    1    1    2    0  502 -0.21942020380E+01  0.22667310791E+02 -0.17730466986E+01  0.22842180187E+02  0.00000000000E+00 0.  1.
<mgrwt>
<rscale>  2 0.22773263E+02</rscale>
<asrwt>0</asrwt>
<pdfrwt beam="1">  1        2 0.85627076E-01 0.22773263E+02</pdfrwt>
<pdfrwt beam="2">  1       -2 0.19300096E-02 0.22773263E+02</pdfrwt>
<totfact> 0.32627551E+04</totfact>
</mgrwt>
</event>
<event>
 4    1  0.1429937E+004  0.3047083E+02  0.7546771E-02  0.1592942E+00
         -2   -1    0    0    0  501 -0.00000000000E+00  0.00000000000E+00  0.14311493951E+02  0.14311493951E+02  0.00000000000E+00 0. -1.
          2   -1    0    0  501    0  0.00000000000E+00 -0.00000000000E+00 -0.90094322798E+03  0.90094322798E+03  0.00000000000E+00 0. -1.
          2    1    1    2  502    0  0.29485548142E+02  0.76859659957E+01 -0.88415880253E+03  0.88468370603E+03  0.00000000000E+00 0. -1.
         -2    1    1    2    0  502 -0.29485548142E+02 -0.76859659957E+01 -0.24729314903E+01  0.30571015892E+02  0.00000000000E+00 0. -1.
<mgrwt>
<rscale>  2 0.30470832E+02</rscale>
<asrwt>0</asrwt>
<pdfrwt beam="2">  1        2 0.13860667E+00 0.30470832E+02</pdfrwt>
<pdfrwt beam="1">  1       -2 0.22017680E-02 0.30470832E+02</pdfrwt>
<totfact> 0.16721284E+04</totfact>
</mgrwt>
</event>
<event>
 4    1  0.1429937E+004  0.2282884E+02  0.7546771E-02  0.1694300E+00
         -2   -1    0    0    0  501 -0.00000000000E+00  0.00000000000E+00  0.20205575551E+01  0.20205575551E+01  0.00000000000E+00 0. -1.
          2   -1    0    0  501    0  0.00000000000E+00 -0.00000000000E+00 -0.60313546767E+03  0.60313546767E+03  0.00000000000E+00 0.  1.
          2    1    1    2  502    0  0.33290330961E+01 -0.22584803602E+02 -0.52947064536E+03  0.52996256482E+03  0.00000000000E+00 0.  1.
         -2    1    1    2    0  502 -0.33290330961E+01  0.22584803602E+02 -0.71644264754E+02  0.75193460402E+02  0.00000000000E+00 0. -1.
<mgrwt>
<rscale>  2 0.22828837E+02</rscale>
<asrwt>0</asrwt>
<pdfrwt beam="2">  1        2 0.92790151E-01 0.22828837E+02</pdfrwt>
<pdfrwt beam="1">  1       -2 0.31085474E-03 0.22828837E+02</pdfrwt>
<totfact> 0.35211503E+05</totfact>
</mgrwt>
</event>
<event>
 4    1  0.1429937E+004  0.2133531E+02  0.7546771E-02  0.1720008E+00
          2   -1    0    0  501    0  0.00000000000E+00  0.00000000000E+00  0.51042428169E+03  0.51042428169E+03  0.00000000000E+00 0. -1.
         -2   -1    0    0    0  501 -0.00000000000E+00 -0.00000000000E+00 -0.44223032325E+01  0.44223032325E+01  0.00000000000E+00 0. -1.
          2    1    1    2  502    0  0.19568471739E+02 -0.85012023159E+01  0.48300848540E+03  0.48347946440E+03  0.00000000000E+00 0. -1.
         -2    1    1    2    0  502 -0.19568471739E+02  0.85012023159E+01  0.22993493059E+02  0.31367120526E+02  0.00000000000E+00 0. -1.
<mgrwt>
<rscale>  2 0.21335312E+02</rscale>
<asrwt>0</asrwt>
<pdfrwt beam="1">  1        2 0.78526766E-01 0.21335312E+02</pdfrwt>
<pdfrwt beam="2">  1       -2 0.68035475E-03 0.21335312E+02</pdfrwt>
<totfact> 0.14415494E+05</totfact>
</mgrwt>
</event>
<event>
 4    1  0.1429937E+004  0.2130594E+02  0.7546771E-02  0.1720539E+00
         -2   -1    0    0    0  501 -0.00000000000E+00  0.00000000000E+00  0.16946695506E+02  0.16946695506E+02  0.00000000000E+00 0.  1.
          2   -1    0    0  501    0  0.00000000000E+00 -0.00000000000E+00 -0.59849781211E+03  0.59849781211E+03  0.00000000000E+00 0. -1.
          2    1    1    2  502    0 -0.16063160045E+02 -0.13997068857E+02 -0.59153273899E+03  0.59191631532E+03  0.00000000000E+00 0. -1.
         -2    1    1    2    0  502  0.16063160045E+02  0.13997068857E+02  0.99816223858E+01  0.23528192295E+02  0.00000000000E+00 0.  1.
<mgrwt>
<rscale>  2 0.21305939E+02</rscale>
<asrwt>0</asrwt>
<pdfrwt beam="2">  1        2 0.92076607E-01 0.21305939E+02</pdfrwt>
<pdfrwt beam="1">  1       -2 0.26071833E-02 0.21305939E+02</pdfrwt>
<totfact> 0.19794138E+04</totfact>
</mgrwt>
</event>
<event>
 4    1  0.1429937E+004  0.2671010E+02  0.7546771E-02  0.1637588E+00
          2   -1    0    0  501    0  0.00000000000E+00  0.00000000000E+00  0.12816971452E+04  0.12816971452E+04  0.00000000000E+00 0. -1.
         -2   -1    0    0    0  501 -0.00000000000E+00 -0.00000000000E+00 -0.59334754788E+01  0.59334754788E+01  0.00000000000E+00 0.  1.
          2    1    1    2  502    0  0.15898298846E+01 -0.26662746338E+02  0.12507549193E+04  0.12510400864E+04  0.00000000000E+00 0. -1.
         -2    1    1    2    0  502 -0.15898298846E+01  0.26662746338E+02  0.25008750396E+02  0.36590534264E+02  0.00000000000E+00 0.  1.
<mgrwt>
<rscale>  2 0.26710103E+02</rscale>
<asrwt>0</asrwt>
<pdfrwt beam="1">  1        2 0.19718396E+00 0.26710103E+02</pdfrwt>
<pdfrwt beam="2">  1       -2 0.91284340E-03 0.26710103E+02</pdfrwt>
<totfact> 0.34511507E+04</totfact>
</mgrwt>
</event>
<event>
 4    1  0.1429937E+004  0.2208458E+02  0.7546771E-02  0.1706793E+00
         -2   -1    0    0    0  501 -0.00000000000E+00  0.00000000000E+00  0.47777026184E+02  0.47777026184E+02  0.00000000000E+00 0.  1.
          2   -1    0    0  501    0  0.00000000000E+00 -0.00000000000E+00 -0.10292014141E+02  0.10292014141E+02  0.00000000000E+00 0. -1.
          2    1    1    2  502    0  0.13564927524E+02  0.17427596179E+02  0.21359059851E+02  0.30723570838E+02  0.00000000000E+00 0. -1.
         -2    1    1    2    0  502 -0.13564927524E+02 -0.17427596179E+02  0.16125952192E+02  0.27345469486E+02  0.00000000000E+00 0.  1.
<mgrwt>
<rscale>  2 0.22084584E+02</rscale>
<asrwt>0</asrwt>
<pdfrwt beam="2">  1        2 0.15833868E-02 0.22084584E+02</pdfrwt>
<pdfrwt beam="1">  1       -2 0.73503116E-02 0.22084584E+02</pdfrwt>
<totfact> 0.44558495E+05</totfact>
</mgrwt>
</event>
<event>
 4    1  0.1429937E+004  0.2446686E+02  0.7546771E-02  0.1668780E+00
         -2   -1    0    0    0  501 -0.00000000000E+00  0.00000000000E+00  0.26567597019E+02  0.26567597019E+02  0.00000000000E+00 0.  1.
          2   -1    0    0  501    0  0.00000000000E+00 -0.00000000000E+00 -0.11071471396E+04  0.11071471396E+04  0.00000000000E+00 0.  1.
          2    1    1    2  502    0 -0.23951611701E+01  0.24349339429E+02 -0.11013492588E+04  0.11016209952E+04  0.00000000000E+00 0.  1.
         -2    1    1    2    0  502  0.23951611701E+01 -0.24349339429E+02  0.20769716229E+02  0.32093741444E+02  0.00000000000E+00 0.  1.
<mgrwt>
<rscale>  2 0.24466858E+02</rscale>
<asrwt>0</asrwt>
<pdfrwt beam="2">  1        2 0.17033029E+00 0.24466858E+02</pdfrwt>
<pdfrwt beam="1">  1       -2 0.40873236E-02 0.24466858E+02</pdfrwt>
<totfact> 0.52969961E+03</totfact>
</mgrwt>
</event>
<event>
 4    1  0.1429937E+004  0.3136124E+02  0.7546771E-02  0.1583512E+00
          2   -1    0    0  501    0  0.00000000000E+00  0.00000000000E+00  0.36733984002E+03  0.36733984002E+03  0.00000000000E+00 0.  1.
         -2   -1    0    0    0  501 -0.00000000000E+00 -0.00000000000E+00 -0.20257855610E+02  0.20257855610E+02  0.00000000000E+00 0. -1.
          2    1    1    2  502    0 -0.29048387012E+02 -0.11820252488E+02  0.35407920228E+03  0.35546534099E+03  0.00000000000E+00 0.  1.
         -2    1    1    2    0  502  0.29048387012E+02  0.11820252488E+02 -0.69972178693E+01  0.32132354641E+02  0.00000000000E+00 0. -1.
<mgrwt>
<rscale>  2 0.31361237E+02</rscale>
<asrwt>0</asrwt>
<pdfrwt beam="1">  1        2 0.56513816E-01 0.31361237E+02</pdfrwt>
<pdfrwt beam="2">  1       -2 0.31165935E-02 0.31361237E+02</pdfrwt>
<totfact> 0.26954600E+04</totfact>
</mgrwt>
</event>
<event>
 4    1  0.1429937E+004  0.2068109E+02  0.7546771E-02  0.1732113E+00
         -2   -1    0    0    0  501 -0.00000000000E+00  0.00000000000E+00  0.30684513960E+02  0.30684513960E+02  0.00000000000E+00 0. -1.
          2   -1    0    0  501    0  0.00000000000E+00 -0.00000000000E+00 -0.16419863681E+03  0.16419863681E+03  0.00000000000E+00 0.  1.
          2    1    1    2  502    0 -0.12213628815E+02 -0.16689354429E+02 -0.15997100598E+03  0.16130229395E+03  0.00000000000E+00 0.  1.
         -2    1    1    2    0  502  0.12213628815E+02  0.16689354429E+02  0.26456883126E+02  0.33580856821E+02  0.00000000000E+00 0. -1.
<mgrwt>
<rscale>  2 0.20681085E+02</rscale>
<asrwt>0</asrwt>
<pdfrwt beam="2">  1        2 0.25261329E-01 0.20681085E+02</pdfrwt>
<pdfrwt beam="1">  1       -2 0.47206944E-02 0.20681085E+02</pdfrwt>
<totfact> 0.31237995E+04</totfact>
</mgrwt>
</event>
<event>
 4    1  0.1429937E+004  0.7495138E+02  0.7546771E-02  0.1344022E+00
         -2   -1    0    0    0  501 -0.00000000000E+00  0.00000000000E+00  0.22459597201E+03  0.22459597201E+03  0.00000000000E+00 0. -1.
          2   -1    0    0  501    0  0.00000000000E+00 -0.00000000000E+00 -0.62979841161E+03  0.62979841161E+03  0.00000000000E+00 0.  1.
          2    1    1    2  502    0 -0.23716796170E+02 -0.71100090977E+02 -0.62122937846E+03  0.62573448843E+03  0.00000000000E+00 0.  1.
         -2    1    1    2    0  502  0.23716796170E+02  0.71100090977E+02  0.21602693885E+03  0.22865989518E+03  0.00000000000E+00 0. -1.
<mgrwt>
<rscale>  2 0.74951380E+02</rscale>
<asrwt>0</asrwt>
<pdfrwt beam="2">  1        2 0.96892061E-01 0.74951380E+02</pdfrwt>
<pdfrwt beam="1">  1       -2 0.34553227E-01 0.74951380E+02</pdfrwt>
<totfact> 0.38363060E+02</totfact>
</mgrwt>
</event>
<event>
 4    1  0.1429937E+004  0.4257953E+02  0.7546771E-02  0.1490044E+00
          2   -1    0    0  501    0  0.00000000000E+00  0.00000000000E+00  0.17251710835E+03  0.17251710835E+03  0.00000000000E+00 0.  1.
         -2   -1    0    0    0  501 -0.00000000000E+00 -0.00000000000E+00 -0.19253798478E+03  0.19253798478E+03  0.00000000000E+00 0. -1.
          2    1    1    2  502    0 -0.11882252385E+01  0.42562943641E+02  0.16746581247E+03  0.17279413878E+03  0.00000000000E+00 0.  1.
         -2    1    1    2    0  502  0.11882252385E+01 -0.42562943641E+02 -0.18748668891E+03  0.19226095435E+03  0.00000000000E+00 0. -1.
<mgrwt>
<rscale>  2 0.42579526E+02</rscale>
<asrwt>0</asrwt>
<pdfrwt beam="1">  1        2 0.26541094E-01 0.42579526E+02</pdfrwt>
<pdfrwt beam="2">  1       -2 0.29621228E-01 0.42579526E+02</pdfrwt>
<totfact> 0.19199333E+03</totfact>
</mgrwt>
</event>
<event>
 4    1  0.1429937E+004  0.2172086E+02  0.7546771E-02  0.1713125E+00
         -2   -1    0    0    0  501 -0.00000000000E+00  0.00000000000E+00  0.21104328921E+02  0.21104328921E+02  0.00000000000E+00 0. -1.
          2   -1    0    0  501    0  0.00000000000E+00 -0.00000000000E+00 -0.25485153877E+03  0.25485153877E+03  0.00000000000E+00 0.  1.
          2    1    1    2  502    0  0.17276652303E+02 -0.13164842795E+02 -0.24866100061E+03  0.24960787052E+03  0.00000000000E+00 0.  1.
         -2    1    1    2    0  502 -0.17276652303E+02  0.13164842795E+02  0.14913790755E+02  0.26347997178E+02  0.00000000000E+00 0. -1.
<mgrwt>
<rscale>  2 0.21720861E+02</rscale>
<asrwt>0</asrwt>
<pdfrwt beam="2">  1        2 0.39207926E-01 0.21720861E+02</pdfrwt>
<pdfrwt beam="1">  1       -2 0.32468201E-02 0.21720861E+02</pdfrwt>
<totfact> 0.34242807E+04</totfact>
</mgrwt>
</event>
<event>
 4    1  0.1429937E+004  0.5812417E+02  0.7546771E-02  0.1405877E+00
         -2   -1    0    0    0  501 -0.00000000000E+00  0.00000000000E+00  0.58900115776E+03  0.58900115776E+03  0.00000000000E+00 0. -1.
          2   -1    0    0  501    0  0.00000000000E+00 -0.00000000000E+00 -0.88654110300E+03  0.88654110300E+03  0.00000000000E+00 0. -1.
          2    1    1    2  502    0 -0.56986969112E+02  0.11441362606E+02 -0.88415057203E+03  0.88605905754E+03  0.00000000000E+00 0. -1.
         -2    1    1    2    0  502  0.56986969112E+02 -0.11441362606E+02  0.58661062679E+03  0.58948320323E+03  0.00000000000E+00 0. -1.
<mgrwt>
<rscale>  2 0.58124172E+02</rscale>
<asrwt>0</asrwt>
<pdfrwt beam="2">  1        2 0.13639094E+00 0.58124172E+02</pdfrwt>
<pdfrwt beam="1">  1       -2 0.90615563E-01 0.58124172E+02</pdfrwt>
<totfact> 0.37545572E+01</totfact>
</mgrwt>
</event>
<event>
 4    1  0.1429937E+004  0.3983339E+02  0.7546771E-02  0.1509441E+00
         -2   -1    0    0    0  501 -0.00000000000E+00  0.00000000000E+00  0.12848339401E+02  0.12848339401E+02  0.00000000000E+00 0. -1.
          2   -1    0    0  501    0  0.00000000000E+00 -0.00000000000E+00 -0.23303590897E+03  0.23303590897E+03  0.00000000000E+00 0. -1.
          2    1    1    2  502    0  0.27725325254E+02  0.28600791077E+02 -0.19438426005E+03  0.19842363636E+03  0.00000000000E+00 0. -1.
         -2    1    1    2    0  502 -0.27725325254E+02 -0.28600791077E+02 -0.25803309527E+02  0.47460612019E+02  0.00000000000E+00 0. -1.
<mgrwt>
<rscale>  2 0.39833389E+02</rscale>
<asrwt>0</asrwt>
<pdfrwt beam="2">  1        2 0.35851677E-01 0.39833389E+02</pdfrwt>
<pdfrwt beam="1">  1       -2 0.19766677E-02 0.39833389E+02</pdfrwt>
<totfact> 0.84281217E+04</totfact>
</mgrwt>
</event>
<event>
 4    1  0.1429937E+004  0.2994583E+02  0.7546771E-02  0.1598688E+00
         -2   -1    0    0    0  501 -0.00000000000E+00  0.00000000000E+00  0.55691155092E+00  0.55691155092E+00  0.00000000000E+00 0. -1.
          2   -1    0    0  501    0  0.00000000000E+00 -0.00000000000E+00 -0.17664967176E+04  0.17664967176E+04  0.00000000000E+00 0. -1.
          2    1    1    2  502    0  0.28834758005E+02 -0.80814413531E+01 -0.11457565881E+04  0.11461478579E+04  0.00000000000E+00 0. -1.
         -2    1    1    2    0  502 -0.28834758005E+02  0.80814413531E+01 -0.62018321790E+03  0.62090577122E+03  0.00000000000E+00 0. -1.
<mgrwt>
<rscale>  2 0.29945834E+02</rscale>
<asrwt>0</asrwt>
<pdfrwt beam="2">  1        2 0.27176755E+00 0.29945834E+02</pdfrwt>
<pdfrwt beam="1">  1       -2 0.85679072E-04 0.29945834E+02</pdfrwt>
<totfact> 0.49337135E+05</totfact>
</mgrwt>
</event>
<event>
 4    1  0.1429937E+004  0.2000099E+02  0.7546771E-02  0.1745308E+00
         -2   -1    0    0    0  501 -0.00000000000E+00  0.00000000000E+00  0.84211065266E+01  0.84211065266E+01  0.00000000000E+00 0.  1.
          2   -1    0    0  501    0  0.00000000000E+00 -0.00000000000E+00 -0.68673669779E+03  0.68673669779E+03  0.00000000000E+00 0.  1.
          2    1    1    2  502    0  0.60982616775E+01 -0.19048644181E+02 -0.67449955082E+03  0.67479603118E+03  0.00000000000E+00 0.  1.
         -2    1    1    2    0  502 -0.60982616775E+01  0.19048644181E+02 -0.38160404447E+01  0.20361773137E+02  0.00000000000E+00 0.  1.
<mgrwt>
<rscale>  2 0.20000991E+02</rscale>
<asrwt>0</asrwt>
<pdfrwt beam="2">  1        2 0.10565178E+00 0.20000991E+02</pdfrwt>
<pdfrwt beam="1">  1       -2 0.12955551E-02 0.20000991E+02</pdfrwt>
<totfact> 0.43942240E+04</totfact>
</mgrwt>
</event>
<event>
 4    1  0.1429937E+004  0.2740375E+02  0.7546771E-02  0.1628698E+00
         -2   -1    0    0    0  501 -0.00000000000E+00  0.00000000000E+00  0.34810512729E+03  0.34810512729E+03  0.00000000000E+00 0. -1.
          2   -1    0    0  501    0  0.00000000000E+00 -0.00000000000E+00 -0.43807124299E+01  0.43807124299E+01  0.00000000000E+00 0. -1.
          2    1    1    2  502    0 -0.73526251881E+01 -0.26398943255E+02  0.46302628288E+02  0.53804262736E+02  0.00000000000E+00 0. -1.
         -2    1    1    2    0  502  0.73526251881E+01  0.26398943255E+02  0.29742178658E+03  0.29868157699E+03  0.00000000000E+00 0. -1.
<mgrwt>
<rscale>  2 0.27403746E+02</rscale>
<asrwt>0</asrwt>
<pdfrwt beam="2">  1        2 0.67395603E-03 0.27403746E+02</pdfrwt>
<pdfrwt beam="1">  1       -2 0.53554613E-01 0.27403746E+02</pdfrwt>
<totfact> 0.55633240E+04</totfact>
</mgrwt>
</event>
<event>
 4    1  0.1429937E+004  0.2139889E+02  0.7546771E-02  0.1718860E+00
         -2   -1    0    0    0  501 -0.00000000000E+00  0.00000000000E+00  0.73064435576E+00  0.73064435576E+00  0.00000000000E+00 0.  1.
          2   -1    0    0  501    0  0.00000000000E+00 -0.00000000000E+00 -0.63397464462E+03  0.63397464462E+03  0.00000000000E+00 0. -1.
          2    1    1    2  502    0 -0.17104628076E+02 -0.12858621587E+02 -0.35056033187E+03  0.35121283964E+03  0.00000000000E+00 0. -1.
         -2    1    1    2    0  502  0.17104628076E+02  0.12858621587E+02 -0.28268366840E+03  0.28349244934E+03  0.00000000000E+00 0.  1.
<mgrwt>
<rscale>  2 0.21398889E+02</rscale>
<asrwt>0</asrwt>
<pdfrwt beam="2">  1        2 0.97535134E-01 0.21398889E+02</pdfrwt>
<pdfrwt beam="1">  1       -2 0.11240616E-03 0.21398889E+02</pdfrwt>
<totfact> 0.12575768E+06</totfact>
</mgrwt>
</event>
<event>
 4    1  0.1429937E+004  0.2196643E+02  0.7546771E-02  0.1708833E+00
         -2   -1    0    0    0  501 -0.00000000000E+00  0.00000000000E+00  0.40289528256E+02  0.40289528256E+02  0.00000000000E+00 0. -1.
          2   -1    0    0  501    0  0.00000000000E+00 -0.00000000000E+00 -0.11136739700E+03  0.11136739700E+03  0.00000000000E+00 0.  1.
          2    1    1    2  502    0  0.14151924011E+02 -0.16800215292E+02 -0.10717417155E+03  0.10940213542E+03  0.00000000000E+00 0.  1.
         -2    1    1    2    0  502 -0.14151924011E+02  0.16800215292E+02  0.36096302811E+02  0.42254789831E+02  0.00000000000E+00 0. -1.
<mgrwt>
<rscale>  2 0.21966433E+02</rscale>
<asrwt>0</asrwt>
<pdfrwt beam="2">  1        2 0.17133445E-01 0.21966433E+02</pdfrwt>
<pdfrwt beam="1">  1       -2 0.61983890E-02 0.21966433E+02</pdfrwt>
<totfact> 0.32277686E+04</totfact>
</mgrwt>
</event>
<event>
 4    1  0.1429937E+004  0.2607286E+02  0.7546771E-02  0.1646054E+00
          2   -1    0    0  501    0  0.00000000000E+00  0.00000000000E+00  0.10753656882E+04  0.10753656882E+04  0.00000000000E+00 0.  1.
         -2   -1    0    0    0  501 -0.00000000000E+00 -0.00000000000E+00 -0.34778011841E+02  0.34778011841E+02  0.00000000000E+00 0.  1.
          2    1    1    2  502    0  0.21108164869E+02  0.15304878597E+02  0.10702978508E+04  0.10706153760E+04  0.00000000000E+00 0.  1.
         -2    1    1    2    0  502 -0.21108164869E+02 -0.15304878597E+02 -0.29710174455E+02  0.39528324011E+02  0.00000000000E+00 0.  1.
<mgrwt>
<rscale>  2 0.26072858E+02</rscale>
<asrwt>0</asrwt>
<pdfrwt beam="1">  1        2 0.16544085E+00 0.26072858E+02</pdfrwt>
<pdfrwt beam="2">  1       -2 0.53504642E-02 0.26072858E+02</pdfrwt>
<totfact> 0.37731758E+03</totfact>
</mgrwt>
</event>
<event>
 4    1  0.1429937E+004  0.2217692E+02  0.7546771E-02  0.1705210E+00
          2   -1    0    0  501    0  0.00000000000E+00  0.00000000000E+00  0.83445839383E+01  0.83445839383E+01  0.00000000000E+00 0.  1.
         -2   -1    0    0    0  501 -0.00000000000E+00 -0.00000000000E+00 -0.15234703139E+03  0.15234703139E+03  0.00000000000E+00 0. -1.
          2    1    1    2  502    0 -0.93189484832E+01 -0.20123937012E+02 -0.90882888065E+01  0.23966907083E+02  0.00000000000E+00 0.  1.
         -2    1    1    2    0  502  0.93189484832E+01  0.20123937012E+02 -0.13491415864E+03  0.13672470824E+03  0.00000000000E+00 0. -1.
<mgrwt>
<rscale>  2 0.22176917E+02</rscale>
<asrwt>0</asrwt>
<pdfrwt beam="1">  1        2 0.12837822E-02 0.22176917E+02</pdfrwt>
<pdfrwt beam="2">  1       -2 0.23438004E-01 0.22176917E+02</pdfrwt>
<totfact> 0.98695614E+04</totfact>
</mgrwt>
</event>
<event>
 4    1  0.1429937E+004  0.2249676E+02  0.7546771E-02  0.1699800E+00
          2   -1    0    0  501    0  0.00000000000E+00  0.00000000000E+00  0.65621191196E+03  0.65621191196E+03  0.00000000000E+00 0. -1.
         -2   -1    0    0    0  501 -0.00000000000E+00 -0.00000000000E+00 -0.13060779171E+01  0.13060779171E+01  0.00000000000E+00 0. -1.
          2    1    1    2  502    0 -0.76703786496E+01  0.21148745361E+02  0.53783061608E+03  0.53830091559E+03  0.00000000000E+00 0. -1.
         -2    1    1    2    0  502  0.76703786496E+01 -0.21148745361E+02  0.11707521797E+03  0.11921707429E+03  0.00000000000E+00 0. -1.
<mgrwt>
<rscale>  2 0.22496758E+02</rscale>
<asrwt>0</asrwt>
<pdfrwt beam="1">  1        2 0.10095542E+00 0.22496758E+02</pdfrwt>
<pdfrwt beam="2">  1       -2 0.20093559E-03 0.22496758E+02</pdfrwt>
<totfact> 0.57267200E+05</totfact>
</mgrwt>
</event>
<event>
 4    1  0.1429937E+004  0.2902990E+02  0.7546771E-02  0.1609066E+00
         -2   -1    0    0    0  501 -0.00000000000E+00  0.00000000000E+00  0.49176525427E+01  0.49176525427E+01  0.00000000000E+00 0.  1.
          2   -1    0    0  501    0  0.00000000000E+00 -0.00000000000E+00 -0.79668768098E+03  0.79668768098E+03  0.00000000000E+00 0.  1.
          2    1    1    2  502    0 -0.10041432688E+02  0.27237924589E+02 -0.75097394363E+03  0.75153482881E+03  0.00000000000E+00 0.  1.
         -2    1    1    2    0  502  0.10041432688E+02 -0.27237924589E+02 -0.40796084806E+02  0.50070504710E+02  0.00000000000E+00 0.  1.
<mgrwt>
<rscale>  2 0.29029897E+02</rscale>
<asrwt>0</asrwt>
<pdfrwt beam="2">  1        2 0.12256739E+00 0.29029897E+02</pdfrwt>
<pdfrwt beam="1">  1       -2 0.75656160E-03 0.29029897E+02</pdfrwt>
<totfact> 0.83115836E+04</totfact>
</mgrwt>
</event>
<event>
 4    1  0.1429937E+004  0.2306301E+02  0.7546771E-02  0.1690491E+00
          2   -1    0    0  501    0  0.00000000000E+00  0.00000000000E+00  0.16035892200E+04  0.16035892200E+04  0.00000000000E+00 0.  1.
         -2   -1    0    0    0  501 -0.00000000000E+00 -0.00000000000E+00 -0.17777291337E+01  0.17777291337E+01  0.00000000000E+00 0. -1.
          2    1    1    2  502    0 -0.23062598610E+02  0.13722318667E+00  0.15248428258E+04  0.15250172280E+04  0.00000000000E+00 0.  1.
         -2    1    1    2    0  502  0.23062598610E+02 -0.13722318667E+00  0.76968665022E+02  0.80349721095E+02  0.00000000000E+00 0. -1.
<mgrwt>
<rscale>  2 0.23063007E+02</rscale>
<asrwt>0</asrwt>
<pdfrwt beam="1">  1        2 0.24670488E+00 0.23063007E+02</pdfrwt>
<pdfrwt beam="2">  1       -2 0.27349807E-03 0.23063007E+02</pdfrwt>
<totfact> 0.11915030E+05</totfact>
</mgrwt>
</event>
<event>
 4    1  0.1429937E+004  0.2006032E+02  0.7546771E-02  0.1744131E+00
          2   -1    0    0  501    0  0.00000000000E+00  0.00000000000E+00  0.33504575091E+02  0.33504575091E+02  0.00000000000E+00 0. -1.
         -2   -1    0    0    0  501 -0.00000000000E+00 -0.00000000000E+00 -0.86853667183E+02  0.86853667183E+02  0.00000000000E+00 0.  1.
          2    1    1    2  502    0 -0.58834897387E+01  0.19178134051E+02  0.29188808377E+02  0.35417549487E+02  0.00000000000E+00 0. -1.
         -2    1    1    2    0  502  0.58834897387E+01 -0.19178134051E+02 -0.82537900469E+02  0.84940692786E+02  0.00000000000E+00 0.  1.
<mgrwt>
<rscale>  2 0.20060316E+02</rscale>
<asrwt>0</asrwt>
<pdfrwt beam="1">  1        2 0.51545501E-02 0.20060316E+02</pdfrwt>
<pdfrwt beam="2">  1       -2 0.13362102E-01 0.20060316E+02</pdfrwt>
<totfact> 0.40583657E+04</totfact>
</mgrwt>
</event>
<event>
 4    1  0.1429937E+004  0.3387899E+02  0.7546771E-02  0.1558787E+00
          2   -1    0    0  501    0  0.00000000000E+00  0.00000000000E+00  0.66546310104E+03  0.66546310104E+03  0.00000000000E+00 0.  1.
         -2   -1    0    0    0  501 -0.00000000000E+00 -0.00000000000E+00 -0.90603948379E+01  0.90603948379E+01  0.00000000000E+00 0.  1.
          2    1    1    2  502    0  0.80723885367E+01 -0.32903225486E+02  0.63166831539E+03  0.63257619807E+03  0.00000000000E+00 0.  1.
         -2    1    1    2    0  502 -0.80723885367E+01  0.32903225486E+02  0.24734390813E+02  0.41947297803E+02  0.00000000000E+00 0.  1.
<mgrwt>
<rscale>  2 0.33878986E+02</rscale>
<asrwt>0</asrwt>
<pdfrwt beam="1">  1        2 0.10237890E+00 0.33878986E+02</pdfrwt>
<pdfrwt beam="2">  1       -2 0.13939074E-02 0.33878986E+02</pdfrwt>
<totfact> 0.45269743E+04</totfact>
</mgrwt>
</event>
<event>
 4    1  0.1429937E+004  0.2598011E+02  0.7546771E-02  0.1647311E+00
         -2   -1    0    0    0  501 -0.00000000000E+00  0.00000000000E+00  0.35789738126E+01  0.35789738126E+01  0.00000000000E+00 0. -1.
          2   -1    0    0  501    0  0.00000000000E+00 -0.00000000000E+00 -0.40723591932E+03  0.40723591932E+03  0.00000000000E+00 0.  1.
          2    1    1    2  502    0 -0.16356708629E+02 -0.20184750018E+02 -0.35233723558E+03  0.35329377807E+03  0.00000000000E+00 0.  1.
         -2    1    1    2    0  502  0.16356708629E+02  0.20184750018E+02 -0.51319709929E+02  0.57521115059E+02  0.00000000000E+00 0. -1.
<mgrwt>
<rscale>  2 0.25980109E+02</rscale>
<asrwt>0</asrwt>
<pdfrwt beam="2">  1        2 0.62651680E-01 0.25980109E+02</pdfrwt>
<pdfrwt beam="1">  1       -2 0.55061135E-03 0.25980109E+02</pdfrwt>
<totfact> 0.25247145E+05</totfact>
</mgrwt>
</event>
<event>
 4    1  0.1429937E+004  0.2112579E+02  0.7546771E-02  0.1723825E+00
          2   -1    0    0  501    0  0.00000000000E+00  0.00000000000E+00  0.57827154164E+03  0.57827154164E+03  0.00000000000E+00 0.  1.
         -2   -1    0    0    0  501 -0.00000000000E+00 -0.00000000000E+00 -0.65082004505E+01  0.65082004505E+01  0.00000000000E+00 0.  1.
          2    1    1    2  502    0  0.15664550920E+02  0.14174660432E+02  0.56038796199E+03  0.56078602612E+03  0.00000000000E+00 0.  1.
         -2    1    1    2    0  502 -0.15664550920E+02 -0.14174660432E+02  0.11375379199E+02  0.23993715965E+02  0.00000000000E+00 0.  1.
<mgrwt>
<rscale>  2 0.21125794E+02</rscale>
<asrwt>0</asrwt>
<pdfrwt beam="1">  1        2 0.88964812E-01 0.21125794E+02</pdfrwt>
<pdfrwt beam="2">  1       -2 0.10012621E-02 0.21125794E+02</pdfrwt>
<totfact> 0.75349500E+04</totfact>
</mgrwt>
</event>
<event>
 4    1  0.1429937E+004  0.2715840E+02  0.7546771E-02  0.1631805E+00
         -2   -1    0    0    0  501 -0.00000000000E+00  0.00000000000E+00  0.63961342760E+02  0.63961342760E+02  0.00000000000E+00 0. -1.
          2   -1    0    0  501    0  0.00000000000E+00 -0.00000000000E+00 -0.98610846067E+02  0.98610846067E+02  0.00000000000E+00 0.  1.
          2    1    1    2  502    0 -0.18725550858E+02 -0.19670594528E+02 -0.93710294604E+02  0.97566376682E+02  0.00000000000E+00 0.  1.
         -2    1    1    2    0  502  0.18725550858E+02  0.19670594528E+02  0.59060791297E+02  0.65005812145E+02  0.00000000000E+00 0. -1.
<mgrwt>
<rscale>  2 0.27158397E+02</rscale>
<asrwt>0</asrwt>
<pdfrwt beam="2">  1        2 0.15170900E-01 0.27158397E+02</pdfrwt>
<pdfrwt beam="1">  1       -2 0.98402065E-02 0.27158397E+02</pdfrwt>
<totfact> 0.19491549E+04</totfact>
</mgrwt>
</event>
<event>
 4    1  0.1429937E+004  0.2303865E+02  0.7546771E-02  0.1690884E+00
         -2   -1    0    0    0  501 -0.00000000000E+00  0.00000000000E+00  0.93799912584E+02  0.93799912584E+02  0.00000000000E+00 0. -1.
          2   -1    0    0  501    0  0.00000000000E+00 -0.00000000000E+00 -0.96286678001E+03  0.96286678001E+03  0.00000000000E+00 0.  1.
          2    1    1    2  502    0 -0.14307790034E+02 -0.18057315763E+02 -0.96131202122E+03  0.96158805195E+03  0.00000000000E+00 0.  1.
         -2    1    1    2    0  502  0.14307790034E+02  0.18057315763E+02  0.92245153794E+02  0.95078640644E+02  0.00000000000E+00 0. -1.
<mgrwt>
<rscale>  2 0.23038652E+02</rscale>
<asrwt>0</asrwt>
<pdfrwt beam="2">  1        2 0.14813334E+00 0.23038652E+02</pdfrwt>
<pdfrwt beam="1">  1       -2 0.14430757E-01 0.23038652E+02</pdfrwt>
<totfact> 0.99183457E+02</totfact>
</mgrwt>
</event>
<event>
 4    1  0.1429937E+004  0.2684706E+02  0.7546771E-02  0.1635807E+00
         -2   -1    0    0    0  501 -0.00000000000E+00  0.00000000000E+00  0.81840350705E+00  0.81840350705E+00  0.00000000000E+00 0.  1.
          2   -1    0    0  501    0  0.00000000000E+00 -0.00000000000E+00 -0.12560798781E+04  0.12560798781E+04  0.00000000000E+00 0.  1.
          2    1    1    2  502    0  0.55662086253E+01 -0.26263704185E+02 -0.97118806526E+03  0.97155906817E+03  0.00000000000E+00 0.  1.
         -2    1    1    2    0  502 -0.55662086253E+01  0.26263704185E+02 -0.28407340933E+03  0.28533921344E+03  0.00000000000E+00 0.  1.
<mgrwt>
<rscale>  2 0.26847064E+02</rscale>
<asrwt>0</asrwt>
<pdfrwt beam="2">  1        2 0.19324350E+00 0.26847064E+02</pdfrwt>
<pdfrwt beam="1">  1       -2 0.12590795E-03 0.26847064E+02</pdfrwt>
<totfact> 0.50722051E+05</totfact>
</mgrwt>
</event>
<event>
 4    1  0.1429937E+004  0.2268127E+02  0.7546771E-02  0.1696729E+00
          2   -1    0    0  501    0  0.00000000000E+00  0.00000000000E+00  0.20642584223E+04  0.20642584223E+04  0.00000000000E+00 0. -1.
         -2   -1    0    0    0  501 -0.00000000000E+00 -0.00000000000E+00 -0.28256868359E+00  0.28256868359E+00  0.00000000000E+00 0. -1.
          2    1    1    2  502    0 -0.38574070488E+01  0.22350848926E+02  0.13866513608E+04  0.13868368456E+04  0.00000000000E+00 0. -1.
         -2    1    1    2    0  502  0.38574070488E+01 -0.22350848926E+02  0.67732449290E+03  0.67770414542E+03  0.00000000000E+00 0. -1.
<mgrwt>
<rscale>  2 0.22681271E+02</rscale>
<asrwt>0</asrwt>
<pdfrwt beam="1">  1        2 0.31756614E+00 0.22681271E+02</pdfrwt>
<pdfrwt beam="2">  1       -2 0.43473758E-04 0.22681271E+02</pdfrwt>
<totfact> 0.81901391E+05</totfact>
</mgrwt>
</event>
<event>
 4    1  0.1429937E+004  0.4264920E+02  0.7546771E-02  0.1489574E+00
         -2   -1    0    0    0  501 -0.00000000000E+00  0.00000000000E+00  0.47852297779E+02  0.47852297779E+02  0.00000000000E+00 0.  1.
          2   -1    0    0  501    0  0.00000000000E+00 -0.00000000000E+00 -0.11043602720E+03  0.11043602720E+03  0.00000000000E+00 0.  1.
          2    1    1    2  502    0 -0.20739898737E+02 -0.37266750272E+02 -0.95384083020E+02  0.10448481884E+03  0.00000000000E+00 0.  1.
         -2    1    1    2    0  502  0.20739898737E+02  0.37266750272E+02  0.32800353603E+02  0.53803506131E+02  0.00000000000E+00 0.  1.
<mgrwt>
<rscale>  2 0.42649198E+02</rscale>
<asrwt>0</asrwt>
<pdfrwt beam="2">  1        2 0.16990158E-01 0.42649198E+02</pdfrwt>
<pdfrwt beam="1">  1       -2 0.73618920E-02 0.42649198E+02</pdfrwt>
<totfact> 0.28535311E+04</totfact>
</mgrwt>
</event>
<event>
 4    1  0.1429937E+004  0.2582684E+02  0.7546771E-02  0.1649402E+00
         -2   -1    0    0    0  501 -0.00000000000E+00  0.00000000000E+00  0.33928535534E+00  0.33928535534E+00  0.00000000000E+00 0. -1.
          2   -1    0    0  501    0  0.00000000000E+00 -0.00000000000E+00 -0.20815208400E+04  0.20815208400E+04  0.00000000000E+00 0. -1.
          2    1    1    2  502    0  0.99518391868E+01 -0.23832471879E+02 -0.12858426007E+04  0.12861019476E+04  0.00000000000E+00 0. -1.
         -2    1    1    2    0  502 -0.99518391868E+01  0.23832471879E+02 -0.79533895390E+03  0.79575817772E+03  0.00000000000E+00 0. -1.
<mgrwt>
<rscale>  2 0.25826843E+02</rscale>
<asrwt>0</asrwt>
<pdfrwt beam="2">  1        2 0.32022824E+00 0.25826843E+02</pdfrwt>
<pdfrwt beam="1">  1       -2 0.52198683E-04 0.25826843E+02</pdfrwt>
<totfact> 0.65274165E+05</totfact>
</mgrwt>
</event>
<event>
 4    1  0.1429937E+004  0.2456090E+02  0.7546771E-02  0.1667390E+00
         -2   -1    0    0    0  501 -0.00000000000E+00  0.00000000000E+00  0.95497172001E+02  0.95497172001E+02  0.00000000000E+00 0. -1.
          2   -1    0    0  501    0  0.00000000000E+00 -0.00000000000E+00 -0.13204956636E+02  0.13204956636E+02  0.00000000000E+00 0.  1.
          2    1    1    2  502    0  0.19521483431E+02  0.14904652220E+02  0.80400741119E+02  0.84068520539E+02  0.00000000000E+00 0. -1.
         -2    1    1    2    0  502 -0.19521483431E+02 -0.14904652220E+02  0.18914742463E+01  0.24633608099E+02  0.00000000000E+00 0.  1.
<mgrwt>
<rscale>  2 0.24560895E+02</rscale>
<asrwt>0</asrwt>
<pdfrwt beam="2">  1        2 0.20315318E-02 0.24560895E+02</pdfrwt>
<pdfrwt beam="1">  1       -2 0.14691872E-01 0.24560895E+02</pdfrwt>
<totfact> 0.11831472E+05</totfact>
</mgrwt>
</event>
<event>
 4    1  0.1429937E+004  0.2030293E+02  0.7546771E-02  0.1739370E+00
          2   -1    0    0  501    0  0.00000000000E+00  0.00000000000E+00  0.22684708657E+01  0.22684708657E+01  0.00000000000E+00 0. -1.
         -2   -1    0    0    0  501 -0.00000000000E+00 -0.00000000000E+00 -0.43167918476E+03  0.43167918476E+03  0.00000000000E+00 0. -1.
          2    1    1    2  502    0  0.14174866590E+01 -0.20253385050E+02 -0.49597360909E+02  0.53592043099E+02  0.00000000000E+00 0. -1.
         -2    1    1    2    0  502 -0.14174866590E+01  0.20253385050E+02 -0.37981335299E+03  0.38035561253E+03  0.00000000000E+00 0. -1.
<mgrwt>
<rscale>  2 0.20302928E+02</rscale>
<asrwt>0</asrwt>
<pdfrwt beam="1">  1        2 0.34899571E-03 0.20302928E+02</pdfrwt>
<pdfrwt beam="2">  1       -2 0.66412145E-01 0.20302928E+02</pdfrwt>
<totfact> 0.79534872E+04</totfact>
</mgrwt>
</event>
<event>
 4    1  0.1429937E+004  0.2058892E+02  0.7546771E-02  0.1733864E+00
         -2   -1    0    0    0  501 -0.00000000000E+00  0.00000000000E+00  0.39108216342E+02  0.39108216342E+02  0.00000000000E+00 0. -1.
          2   -1    0    0  501    0  0.00000000000E+00 -0.00000000000E+00 -0.21624135327E+02  0.21624135327E+02  0.00000000000E+00 0. -1.
          2    1    1    2  502    0  0.15052804594E+02  0.14046945347E+02 -0.12703083512E+02  0.24192394062E+02  0.00000000000E+00 0. -1.
         -2    1    1    2    0  502 -0.15052804594E+02 -0.14046945347E+02  0.30187164527E+02  0.36539957607E+02  0.00000000000E+00 0. -1.
<mgrwt>
<rscale>  2 0.20588919E+02</rscale>
<asrwt>0</asrwt>
<pdfrwt beam="2">  1        2 0.33267901E-02 0.20588919E+02</pdfrwt>
<pdfrwt beam="1">  1       -2 0.60166486E-02 0.20588919E+02</pdfrwt>
<totfact> 0.22668615E+05</totfact>
</mgrwt>
</event>
<event>
 4    1  0.1429937E+004  0.2319399E+02  0.7546771E-02  0.1688385E+00
         -2   -1    0    0    0  501 -0.00000000000E+00  0.00000000000E+00  0.23665195548E+01  0.23665195548E+01  0.00000000000E+00 0.  1.
          2   -1    0    0  501    0  0.00000000000E+00 -0.00000000000E+00 -0.24607702472E+03  0.24607702472E+03  0.00000000000E+00 0.  1.
          2    1    1    2  502    0 -0.10539166931E+02 -0.20661246920E+02 -0.15614978560E+03  0.15786296813E+03  0.00000000000E+00 0.  1.
         -2    1    1    2    0  502  0.10539166931E+02  0.20661246920E+02 -0.87560719562E+02  0.90580576142E+02  0.00000000000E+00 0.  1.
<mgrwt>
<rscale>  2 0.23193990E+02</rscale>
<asrwt>0</asrwt>
<pdfrwt beam="2">  1        2 0.37858019E-01 0.23193990E+02</pdfrwt>
<pdfrwt beam="1">  1       -2 0.36407978E-03 0.23193990E+02</pdfrwt>
<totfact> 0.70081978E+05</totfact>
</mgrwt>
</event>
<event>
 4    1  0.1429937E+004  0.2886079E+02  0.7546771E-02  0.1611034E+00
         -2   -1    0    0    0  501 -0.00000000000E+00  0.00000000000E+00  0.12364474835E+02  0.12364474835E+02  0.00000000000E+00 0. -1.
          2   -1    0    0  501    0  0.00000000000E+00 -0.00000000000E+00 -0.11248840672E+03  0.11248840672E+03  0.00000000000E+00 0.  1.
          2    1    1    2  502    0  0.15678022927E+02 -0.24231068682E+02 -0.89599617169E+02  0.94133078613E+02  0.00000000000E+00 0.  1.
         -2    1    1    2    0  502 -0.15678022927E+02  0.24231068682E+02 -0.10524314713E+02  0.30719802938E+02  0.00000000000E+00 0. -1.
<mgrwt>
<rscale>  2 0.28860788E+02</rscale>
<asrwt>0</asrwt>
<pdfrwt beam="2">  1        2 0.17305909E-01 0.28860788E+02</pdfrwt>
<pdfrwt beam="1">  1       -2 0.19022269E-02 0.28860788E+02</pdfrwt>
<totfact> 0.17829750E+05</totfact>
</mgrwt>
</event>
<event>
 4    1  0.1429937E+004  0.2270838E+02  0.7546771E-02  0.1696281E+00
          2   -1    0    0  501    0  0.00000000000E+00  0.00000000000E+00  0.13252508757E+04  0.13252508757E+04  0.00000000000E+00 0.  1.
         -2   -1    0    0    0  501 -0.00000000000E+00 -0.00000000000E+00 -0.75862736424E+00  0.75862736424E+00  0.00000000000E+00 0.  1.
          2    1    1    2  502    0  0.63806093891E+01 -0.21793543514E+02  0.11249666597E+04  0.11251958301E+04  0.00000000000E+00 0.  1.
         -2    1    1    2    0  502 -0.63806093891E+01  0.21793543514E+02  0.19952558861E+03  0.20081367290E+03  0.00000000000E+00 0.  1.
<mgrwt>
<rscale>  2 0.22708384E+02</rscale>
<asrwt>0</asrwt>
<pdfrwt beam="1">  1        2 0.20388290E+00 0.22708384E+02</pdfrwt>
<pdfrwt beam="2">  1       -2 0.11671296E-03 0.22708384E+02</pdfrwt>
<totfact> 0.49657858E+05</totfact>
</mgrwt>
</event>
<event>
 4    1  0.1429937E+004  0.3646213E+02  0.7546771E-02  0.1535987E+00
          2   -1    0    0  501    0  0.00000000000E+00  0.00000000000E+00  0.11649357501E+04  0.11649357501E+04  0.00000000000E+00 0. -1.
         -2   -1    0    0    0  501 -0.00000000000E+00 -0.00000000000E+00 -0.13973709782E+02  0.13973709782E+02  0.00000000000E+00 0.  1.
          2    1    1    2  502    0  0.34250088575E+02 -0.12506738817E+02  0.11403522983E+04  0.11409350776E+04  0.00000000000E+00 0. -1.
         -2    1    1    2    0  502 -0.34250088575E+02  0.12506738817E+02  0.10609742019E+02  0.37974382272E+02  0.00000000000E+00 0.  1.
<mgrwt>
<rscale>  2 0.36462132E+02</rscale>
<asrwt>0</asrwt>
<pdfrwt beam="1">  1        2 0.17922081E+00 0.36462132E+02</pdfrwt>
<pdfrwt beam="2">  1       -2 0.21498024E-02 0.36462132E+02</pdfrwt>
<totfact> 0.12640558E+04</totfact>
</mgrwt>
</event>
<event>
 4    1  0.1429937E+004  0.2032743E+02  0.7546771E-02  0.1738894E+00
          2   -1    0    0  501    0  0.00000000000E+00  0.00000000000E+00  0.15211166263E+04  0.15211166263E+04  0.00000000000E+00 0.  1.
         -2   -1    0    0    0  501 -0.00000000000E+00 -0.00000000000E+00 -0.37070048638E+00  0.37070048638E+00  0.00000000000E+00 0.  1.
          2    1    1    2  502    0  0.12074808331E+02  0.16352472450E+02  0.11536197034E+04  0.11537987798E+04  0.00000000000E+00 0.  1.
         -2    1    1    2    0  502 -0.12074808331E+02 -0.16352472450E+02  0.36712622241E+03  0.36768854691E+03  0.00000000000E+00 0.  1.
<mgrwt>
<rscale>  2 0.20327429E+02</rscale>
<asrwt>0</asrwt>
<pdfrwt beam="1">  1        2 0.23401294E+00 0.20327429E+02</pdfrwt>
<pdfrwt beam="2">  1       -2 0.57032062E-04 0.20327429E+02</pdfrwt>
<totfact> 0.99344047E+05</totfact>
</mgrwt>
</event>
<event>
 4    1  0.1429937E+004  0.2319451E+02  0.7546771E-02  0.1688376E+00
         -2   -1    0    0    0  501 -0.00000000000E+00  0.00000000000E+00  0.66330455611E+01  0.66330455611E+01  0.00000000000E+00 0. -1.
          2   -1    0    0  501    0  0.00000000000E+00 -0.00000000000E+00 -0.85683468111E+02  0.85683468111E+02  0.00000000000E+00 0. -1.
          2    1    1    2  502    0  0.22971684452E+02 -0.32073227915E+01 -0.50193010424E+02  0.55293069199E+02  0.00000000000E+00 0. -1.
         -2    1    1    2    0  502 -0.22971684452E+02  0.32073227915E+01 -0.28857412126E+02  0.37023444473E+02  0.00000000000E+00 0. -1.
<mgrwt>
<rscale>  2 0.23194508E+02</rscale>
<asrwt>0</asrwt>
<pdfrwt beam="2">  1        2 0.13182071E-01 0.23194508E+02</pdfrwt>
<pdfrwt beam="1">  1       -2 0.10204686E-02 0.23194508E+02</pdfrwt>
<totfact> 0.53054776E+05</totfact>
</mgrwt>
</event>
<event>
 4    1  0.1429937E+004  0.3123336E+02  0.7546771E-02  0.1584842E+00
         -2   -1    0    0    0  501 -0.00000000000E+00  0.00000000000E+00  0.25427138038E+02  0.25427138038E+02  0.00000000000E+00 0.  1.
          2   -1    0    0  501    0  0.00000000000E+00 -0.00000000000E+00 -0.11862227570E+03  0.11862227570E+03  0.00000000000E+00 0.  1.
          2    1    1    2  502    0  0.12369762660E+02  0.28679466362E+02 -0.10584089660E+03  0.11035315225E+03  0.00000000000E+00 0.  1.
         -2    1    1    2    0  502 -0.12369762660E+02 -0.28679466362E+02  0.12645758937E+02  0.33696261486E+02  0.00000000000E+00 0.  1.
<mgrwt>
<rscale>  2 0.31233361E+02</rscale>
<asrwt>0</asrwt>
<pdfrwt beam="2">  1        2 0.18249581E-01 0.31233361E+02</pdfrwt>
<pdfrwt beam="1">  1       -2 0.39118673E-02 0.31233361E+02</pdfrwt>
<totfact> 0.62441641E+04</totfact>
</mgrwt>
</event>
<event>
 4    1  0.1429937E+004  0.2439050E+02  0.7546771E-02  0.1669914E+00
          2   -1    0    0  501    0  0.00000000000E+00  0.00000000000E+00  0.98105545825E+02  0.98105545825E+02  0.00000000000E+00 0. -1.
         -2   -1    0    0    0  501 -0.00000000000E+00 -0.00000000000E+00 -0.15741365349E+03  0.15741365349E+03  0.00000000000E+00 0.  1.
          2    1    1    2  502    0  0.24123750680E+02  0.35973991599E+01  0.95620620841E+02  0.98682317351E+02  0.00000000000E+00 0. -1.
         -2    1    1    2    0  502 -0.24123750680E+02 -0.35973991599E+01 -0.15492872851E+03  0.15683688197E+03  0.00000000000E+00 0.  1.
<mgrwt>
<rscale>  2 0.24390503E+02</rscale>
<asrwt>0</asrwt>
<pdfrwt beam="1">  1        2 0.15093161E-01 0.24390503E+02</pdfrwt>
<pdfrwt beam="2">  1       -2 0.24217485E-01 0.24390503E+02</pdfrwt>
<totfact> 0.46981191E+03</totfact>
</mgrwt>
</event>
<event>
 4    1  0.1429937E+004  0.2719726E+02  0.7546771E-02  0.1631310E+00
          2   -1    0    0  501    0  0.00000000000E+00  0.00000000000E+00  0.76560415149E+03  0.76560415149E+03  0.00000000000E+00 0. -1.
         -2   -1    0    0    0  501 -0.00000000000E+00 -0.00000000000E+00 -0.39467236964E+02  0.39467236964E+02  0.00000000000E+00 0.  1.
          2    1    1    2  502    0  0.13251937513E+02 -0.23750308699E+02  0.76064661014E+03  0.76113267998E+03  0.00000000000E+00 0. -1.
         -2    1    1    2    0  502 -0.13251937513E+02  0.23750308699E+02 -0.34509695615E+02  0.43938708477E+02  0.00000000000E+00 0.  1.
<mgrwt>
<rscale>  2 0.27197261E+02</rscale>
<asrwt>0</asrwt>
<pdfrwt beam="1">  1        2 0.11778524E+00 0.27197261E+02</pdfrwt>
<pdfrwt beam="2">  1       -2 0.60718832E-02 0.27197261E+02</pdfrwt>
<totfact> 0.47582159E+03</totfact>
</mgrwt>
</event>
<event>
 4    1  0.1429937E+004  0.2930570E+02  0.7546771E-02  0.1605892E+00
          2   -1    0    0  501    0  0.00000000000E+00  0.00000000000E+00  0.90628449194E+02  0.90628449194E+02  0.00000000000E+00 0. -1.
         -2   -1    0    0    0  501 -0.00000000000E+00 -0.00000000000E+00 -0.43831734347E+02  0.43831734347E+02  0.00000000000E+00 0. -1.
          2    1    1    2  502    0  0.29304826645E+02  0.22673994979E+00  0.82918911518E+02  0.87945267997E+02  0.00000000000E+00 0. -1.
         -2    1    1    2    0  502 -0.29304826645E+02 -0.22673994979E+00 -0.36122196671E+02  0.46514915544E+02  0.00000000000E+00 0. -1.
<mgrwt>
<rscale>  2 0.29305704E+02</rscale>
<asrwt>0</asrwt>
<pdfrwt beam="1">  1        2 0.13942838E-01 0.29305704E+02</pdfrwt>
<pdfrwt beam="2">  1       -2 0.67433438E-02 0.29305704E+02</pdfrwt>
<totfact> 0.37926922E+04</totfact>
</mgrwt>
</event>
<event>
 4    1  0.1429937E+004  0.2128079E+02  0.7546771E-02  0.1720996E+00
         -2   -1    0    0    0  501 -0.00000000000E+00  0.00000000000E+00  0.62929649172E+02  0.62929649172E+02  0.00000000000E+00 0. -1.
          2   -1    0    0  501    0  0.00000000000E+00 -0.00000000000E+00 -0.49242790917E+03  0.49242790917E+03  0.00000000000E+00 0. -1.
          2    1    1    2  502    0 -0.12847943369E+02 -0.16964733807E+02 -0.49039140391E+03  0.49085293202E+03  0.00000000000E+00 0. -1.
         -2    1    1    2    0  502  0.12847943369E+02  0.16964733807E+02  0.60893143910E+02  0.64504626324E+02  0.00000000000E+00 0. -1.
<mgrwt>
<rscale>  2 0.21280786E+02</rscale>
<asrwt>0</asrwt>
<pdfrwt beam="2">  1        2 0.75758141E-01 0.21280786E+02</pdfrwt>
<pdfrwt beam="1">  1       -2 0.96814843E-02 0.21280786E+02</pdfrwt>
<totfact> 0.37429963E+03</totfact>
</mgrwt>
</event>
<event>
 4    1  0.1429937E+004  0.3313825E+02  0.7546771E-02  0.1565783E+00
         -2   -1    0    0    0  501 -0.00000000000E+00  0.00000000000E+00  0.15268994010E+01  0.15268994010E+01  0.00000000000E+00 0. -1.
          2   -1    0    0  501    0  0.00000000000E+00 -0.00000000000E+00 -0.73834376292E+03  0.73834376292E+03  0.00000000000E+00 0. -1.
          2    1    1    2  502    0 -0.21371070155E+02 -0.25326262257E+02 -0.30883690144E+03  0.31060968093E+03  0.00000000000E+00 0. -1.
         -2    1    1    2    0  502  0.21371070155E+02  0.25326262257E+02 -0.42797996208E+03  0.42926098139E+03  0.00000000000E+00 0. -1.
<mgrwt>
<rscale>  2 0.33138245E+02</rscale>
<asrwt>0</asrwt>
<pdfrwt beam="2">  1        2 0.11359159E+00 0.33138245E+02</pdfrwt>
<pdfrwt beam="1">  1       -2 0.23490710E-03 0.33138245E+02</pdfrwt>
<totfact> 0.45355966E+05</totfact>
</mgrwt>
</event>
<event>
 4    1  0.1429937E+004  0.4879183E+02  0.7546771E-02  0.1451969E+00
         -2   -1    0    0    0  501 -0.00000000000E+00  0.00000000000E+00  0.27032850804E+03  0.27032850804E+03  0.00000000000E+00 0. -1.
          2   -1    0    0  501    0  0.00000000000E+00 -0.00000000000E+00 -0.11420249452E+02  0.11420249452E+02  0.00000000000E+00 0. -1.
          2    1    1    2  502    0  0.17650928294E+02  0.45487223517E+02  0.62059109637E+02  0.78942864540E+02  0.00000000000E+00 0. -1.
         -2    1    1    2    0  502 -0.17650928294E+02 -0.45487223517E+02  0.19684914895E+03  0.20280589295E+03  0.00000000000E+00 0. -1.
<mgrwt>
<rscale>  2 0.48791831E+02</rscale>
<asrwt>0</asrwt>
<pdfrwt beam="2">  1        2 0.17569617E-02 0.48791831E+02</pdfrwt>
<pdfrwt beam="1">  1       -2 0.41588997E-01 0.48791831E+02</pdfrwt>
<totfact> 0.28536298E+04</totfact>
</mgrwt>
</event>
<event>
 4    1  0.1429937E+004  0.2408043E+02  0.7546771E-02  0.1674572E+00
          2   -1    0    0  501    0  0.00000000000E+00  0.00000000000E+00  0.50801423809E+03  0.50801423809E+03  0.00000000000E+00 0.  1.
         -2   -1    0    0    0  501 -0.00000000000E+00 -0.00000000000E+00 -0.89557461567E+01  0.89557461567E+01  0.00000000000E+00 0.  1.
          2    1    1    2  502    0  0.23775233444E+02  0.38216778018E+01  0.49098063118E+03  0.49157079566E+03  0.00000000000E+00 0.  1.
         -2    1    1    2    0  502 -0.23775233444E+02 -0.38216778018E+01  0.80778607463E+01  0.25399188585E+02  0.00000000000E+00 0.  1.
<mgrwt>
<rscale>  2 0.24080427E+02</rscale>
<asrwt>0</asrwt>
<pdfrwt beam="1">  1        2 0.78156014E-01 0.24080427E+02</pdfrwt>
<pdfrwt beam="2">  1       -2 0.13778075E-02 0.24080427E+02</pdfrwt>
<totfact> 0.57378104E+04</totfact>
</mgrwt>
</event>
<event>
 4    1  0.1429937E+004  0.3084594E+02  0.7546771E-02  0.1588922E+00
          2   -1    0    0  501    0  0.00000000000E+00  0.00000000000E+00  0.13041758394E+04  0.13041758394E+04  0.00000000000E+00 0. -1.
         -2   -1    0    0    0  501 -0.00000000000E+00 -0.00000000000E+00 -0.76473811346E+00  0.76473811346E+00  0.00000000000E+00 0. -1.
          2    1    1    2  502    0 -0.18397159214E+01  0.30791025318E+02  0.79164932051E+03  0.79225003531E+03  0.00000000000E+00 0. -1.
         -2    1    1    2    0  502  0.18397159214E+01 -0.30791025318E+02  0.51176178077E+03  0.51269054219E+03  0.00000000000E+00 0. -1.
<mgrwt>
<rscale>  2 0.30845936E+02</rscale>
<asrwt>0</asrwt>
<pdfrwt beam="1">  1        2 0.20064066E+00 0.30845936E+02</pdfrwt>
<pdfrwt beam="2">  1       -2 0.11765306E-03 0.30845936E+02</pdfrwt>
<totfact> 0.54352646E+05</totfact>
</mgrwt>
</event>
<event>
 4    1  0.1429937E+004  0.3153161E+02  0.7546771E-02  0.1581751E+00
          2   -1    0    0  501    0  0.00000000000E+00  0.00000000000E+00  0.19317979762E+02  0.19317979762E+02  0.00000000000E+00 0.  1.
         -2   -1    0    0    0  501 -0.00000000000E+00 -0.00000000000E+00 -0.22472814367E+03  0.22472814367E+03  0.00000000000E+00 0.  1.
          2    1    1    2  502    0 -0.20297270461E+02 -0.24130127671E+02  0.44378504464E+01  0.31842373753E+02  0.00000000000E+00 0.  1.
         -2    1    1    2    0  502  0.20297270461E+02  0.24130127671E+02 -0.20984801435E+03  0.21220374968E+03  0.00000000000E+00 0.  1.
<mgrwt>
<rscale>  2 0.31531607E+02</rscale>
<asrwt>0</asrwt>
<pdfrwt beam="1">  1        2 0.29719968E-02 0.31531607E+02</pdfrwt>
<pdfrwt beam="2">  1       -2 0.34573562E-01 0.31531607E+02</pdfrwt>
<totfact> 0.18636977E+04</totfact>
</mgrwt>
</event>
<event>
 4    1  0.1429937E+004  0.2615374E+02  0.7546771E-02  0.1644963E+00
          2   -1    0    0  501    0  0.00000000000E+00  0.00000000000E+00  0.17163451913E+04  0.17163451913E+04  0.00000000000E+00 0. -1.
         -2   -1    0    0    0  501 -0.00000000000E+00 -0.00000000000E+00 -0.52990110693E+02  0.52990110693E+02  0.00000000000E+00 0. -1.
          2    1    1    2  502    0 -0.22235833755E+02 -0.13769021675E+02  0.17130121763E+04  0.17132118184E+04  0.00000000000E+00 0. -1.
         -2    1    1    2    0  502  0.22235833755E+02  0.13769021675E+02 -0.49657095726E+02  0.56123483646E+02  0.00000000000E+00 0. -1.
<mgrwt>
<rscale>  2 0.26153743E+02</rscale>
<asrwt>0</asrwt>
<pdfrwt beam="1">  1        2 0.26405306E+00 0.26153743E+02</pdfrwt>
<pdfrwt beam="2">  1       -2 0.81523260E-02 0.26153743E+02</pdfrwt>
<totfact> 0.99677459E+02</totfact>
</mgrwt>
</event>
<event>
 4    1  0.1429937E+004  0.2497107E+02  0.7546771E-02  0.1661418E+00
          2   -1    0    0  501    0  0.00000000000E+00  0.00000000000E+00  0.76457118598E+03  0.76457118598E+03  0.00000000000E+00 0.  1.
         -2   -1    0    0    0  501 -0.00000000000E+00 -0.00000000000E+00 -0.16348863476E+01  0.16348863476E+01  0.00000000000E+00 0.  1.
          2    1    1    2  502    0  0.14182363089E+02  0.20552737398E+02  0.65267459545E+03  0.65315211244E+03  0.00000000000E+00 0.  1.
         -2    1    1    2    0  502 -0.14182363089E+02 -0.20552737398E+02  0.11026170418E+03  0.11305395989E+03  0.00000000000E+00 0.  1.
<mgrwt>
<rscale>  2 0.24971072E+02</rscale>
<asrwt>0</asrwt>
<pdfrwt beam="1">  1        2 0.11762605E+00 0.24971072E+02</pdfrwt>
<pdfrwt beam="2">  1       -2 0.25152159E-03 0.24971072E+02</pdfrwt>
<totfact> 0.37029962E+05</totfact>
</mgrwt>
</event>
<event>
 4    1  0.1429937E+004  0.2398009E+02  0.7546771E-02  0.1676099E+00
          2   -1    0    0  501    0  0.00000000000E+00  0.00000000000E+00  0.14198278569E+03  0.14198278569E+03  0.00000000000E+00 0. -1.
         -2   -1    0    0    0  501 -0.00000000000E+00 -0.00000000000E+00 -0.12194286396E+02  0.12194286396E+02  0.00000000000E+00 0.  1.
          2    1    1    2  502    0  0.91904891686E+01  0.22149027945E+02  0.12789350932E+03  0.13012222814E+03  0.00000000000E+00 0. -1.
         -2    1    1    2    0  502 -0.91904891686E+01 -0.22149027945E+02  0.18949899713E+01  0.24054843942E+02  0.00000000000E+00 0.  1.
<mgrwt>
<rscale>  2 0.23980086E+02</rscale>
<asrwt>0</asrwt>
<pdfrwt beam="1">  1        2 0.21843504E-01 0.23980086E+02</pdfrwt>
<pdfrwt beam="2">  1       -2 0.18760442E-02 0.23980086E+02</pdfrwt>
<totfact> 0.13529650E+05</totfact>
</mgrwt>
</event>
<event>
 4    1  0.1429937E+004  0.1028722E+03  0.7546771E-02  0.1274369E+00
         -2   -1    0    0    0  501 -0.00000000000E+00  0.00000000000E+00  0.54759506571E+02  0.54759506571E+02  0.00000000000E+00 0. -1.
          2   -1    0    0  501    0  0.00000000000E+00 -0.00000000000E+00 -0.21055164700E+04  0.21055164700E+04  0.00000000000E+00 0.  1.
          2    1    1    2  502    0 -0.75826802509E+02 -0.69519742828E+02 -0.20547526007E+04  0.20573261649E+04  0.00000000000E+00 0.  1.
         -2    1    1    2    0  502  0.75826802509E+02  0.69519742828E+02  0.39956372163E+01  0.10294981175E+03  0.00000000000E+00 0. -1.
<mgrwt>
<rscale>  2 0.10287224E+03</rscale>
<asrwt>0</asrwt>
<pdfrwt beam="2">  1        2 0.32392555E+00 0.10287224E+03</pdfrwt>
<pdfrwt beam="1">  1       -2 0.84245410E-02 0.10287224E+03</pdfrwt>
<totfact> 0.59512684E+02</totfact>
</mgrwt>
</event>
<event>
 4    1  0.1429937E+004  0.2157689E+02  0.7546771E-02  0.1715674E+00
          2   -1    0    0  501    0  0.00000000000E+00  0.00000000000E+00  0.22829738740E+03  0.22829738740E+03  0.00000000000E+00 0. -1.
         -2   -1    0    0    0  501 -0.00000000000E+00 -0.00000000000E+00 -0.35806592264E+02  0.35806592264E+02  0.00000000000E+00 0. -1.
          2    1    1    2  502    0  0.42494086831E+01  0.21154312175E+02  0.22448191006E+03  0.22551649683E+03  0.00000000000E+00 0. -1.
         -2    1    1    2    0  502 -0.42494086831E+01 -0.21154312175E+02 -0.31991114922E+02  0.38587482838E+02  0.00000000000E+00 0. -1.
<mgrwt>
<rscale>  2 0.21576895E+02</rscale>
<asrwt>0</asrwt>
<pdfrwt beam="1">  1        2 0.35122674E-01 0.21576895E+02</pdfrwt>
<pdfrwt beam="2">  1       -2 0.55087066E-02 0.21576895E+02</pdfrwt>
<totfact> 0.18140214E+04</totfact>
</mgrwt>
</event>
<event>
 4    1  0.1429937E+004  0.2077704E+02  0.7546771E-02  0.1730303E+00
          2   -1    0    0  501    0  0.00000000000E+00  0.00000000000E+00  0.58649899979E+02  0.58649899979E+02  0.00000000000E+00 0.  1.
         -2   -1    0    0    0  501 -0.00000000000E+00 -0.00000000000E+00 -0.10372990375E+03  0.10372990375E+03  0.00000000000E+00 0.  1.
          2    1    1    2  502    0  0.19889052649E+02  0.60092369317E+01  0.55716403159E+02  0.59464299582E+02  0.00000000000E+00 0.  1.
         -2    1    1    2    0  502 -0.19889052649E+02 -0.60092369317E+01 -0.10079640693E+03  0.10291550415E+03  0.00000000000E+00 0.  1.
<mgrwt>
<rscale>  2 0.20777039E+02</rscale>
<asrwt>0</asrwt>
<pdfrwt beam="1">  1        2 0.90230615E-02 0.20777039E+02</pdfrwt>
<pdfrwt beam="2">  1       -2 0.15958447E-01 0.20777039E+02</pdfrwt>
<totfact> 0.16000289E+04</totfact>
</mgrwt>
</event>
<event>
 4    1  0.1429937E+004  0.2562650E+02  0.7546771E-02  0.1652163E+00
         -2   -1    0    0    0  501 -0.00000000000E+00  0.00000000000E+00  0.65180503669E+01  0.65180503669E+01  0.00000000000E+00 0. -1.
          2   -1    0    0  501    0  0.00000000000E+00 -0.00000000000E+00 -0.54672137326E+03  0.54672137326E+03  0.00000000000E+00 0. -1.
          2    1    1    2  502    0 -0.70353283424E+01  0.24641864996E+02 -0.51993581777E+03  0.52056697164E+03  0.00000000000E+00 0. -1.
         -2    1    1    2    0  502  0.70353283424E+01 -0.24641864996E+02 -0.20267505124E+02  0.32672451995E+02  0.00000000000E+00 0. -1.
<mgrwt>
<rscale>  2 0.25626497E+02</rscale>
<asrwt>0</asrwt>
<pdfrwt beam="2">  1        2 0.84110989E-01 0.25626497E+02</pdfrwt>
<pdfrwt beam="1">  1       -2 0.10027769E-02 0.25626497E+02</pdfrwt>
<totfact> 0.83057771E+04</totfact>
</mgrwt>
</event>
<event>
 4    1  0.1429937E+004  0.2987783E+02  0.7546771E-02  0.1599443E+00
          2   -1    0    0  501    0  0.00000000000E+00  0.00000000000E+00  0.98239781118E+02  0.98239781118E+02  0.00000000000E+00 0.  1.
         -2   -1    0    0    0  501 -0.00000000000E+00 -0.00000000000E+00 -0.13973451700E+02  0.13973451700E+02  0.00000000000E+00 0.  1.
          2    1    1    2  502    0  0.70862210832E+01 -0.29025333010E+02  0.75312544605E+02  0.81022613266E+02  0.00000000000E+00 0.  1.
         -2    1    1    2    0  502 -0.70862210832E+01  0.29025333010E+02  0.89537848128E+01  0.31190619552E+02  0.00000000000E+00 0.  1.
<mgrwt>
<rscale>  2 0.29877826E+02</rscale>
<asrwt>0</asrwt>
<pdfrwt beam="1">  1        2 0.15113812E-01 0.29877826E+02</pdfrwt>
<pdfrwt beam="2">  1       -2 0.21497619E-02 0.29877826E+02</pdfrwt>
<totfact> 0.17615525E+05</totfact>
</mgrwt>
</event>
<event>
 4    1  0.1429937E+004  0.4433269E+02  0.7546771E-02  0.1478551E+00
         -2   -1    0    0    0  501 -0.00000000000E+00  0.00000000000E+00  0.22374281235E+02  0.22374281235E+02  0.00000000000E+00 0.  1.
          2   -1    0    0  501    0  0.00000000000E+00 -0.00000000000E+00 -0.34003470059E+03  0.34003470059E+03  0.00000000000E+00 0.  1.
          2    1    1    2  502    0  0.73904745615E+01 -0.43712334818E+02 -0.31488393589E+03  0.31798943444E+03  0.00000000000E+00 0.  1.
         -2    1    1    2    0  502 -0.73904745615E+01  0.43712334818E+02 -0.27764834572E+01  0.44419547385E+02  0.00000000000E+00 0.  1.
<mgrwt>
<rscale>  2 0.44332689E+02</rscale>
<asrwt>0</asrwt>
<pdfrwt beam="2">  1        2 0.52313034E-01 0.44332689E+02</pdfrwt>
<pdfrwt beam="1">  1       -2 0.34421969E-02 0.44332689E+02</pdfrwt>
<totfact> 0.26677671E+04</totfact>
</mgrwt>
</event>
<event>
 4    1  0.1429937E+004  0.2414404E+02  0.7546771E-02  0.1673610E+00
          2   -1    0    0  501    0  0.00000000000E+00  0.00000000000E+00  0.21072389915E+03  0.21072389915E+03  0.00000000000E+00 0.  1.
         -2   -1    0    0    0  501 -0.00000000000E+00 -0.00000000000E+00 -0.11787604908E+02  0.11787604908E+02  0.00000000000E+00 0.  1.
          2    1    1    2  502    0  0.23858512336E+02 -0.37021861970E+01  0.19679738215E+03  0.19827290388E+03  0.00000000000E+00 0.  1.
         -2    1    1    2    0  502 -0.23858512336E+02  0.37021861970E+01  0.21389120942E+01  0.24238600176E+02  0.00000000000E+00 0.  1.
<mgrwt>
<rscale>  2 0.24144043E+02</rscale>
<asrwt>0</asrwt>
<pdfrwt beam="1">  1        2 0.32419059E-01 0.24144043E+02</pdfrwt>
<pdfrwt beam="2">  1       -2 0.18134778E-02 0.24144043E+02</pdfrwt>
<totfact> 0.94624910E+04</totfact>
</mgrwt>
</event>
<event>
 4    1  0.1429937E+004  0.2732503E+02  0.7546771E-02  0.1629690E+00
          2   -1    0    0  501    0  0.00000000000E+00  0.00000000000E+00  0.21035313185E+03  0.21035313185E+03  0.00000000000E+00 0. -1.
         -2   -1    0    0    0  501 -0.00000000000E+00 -0.00000000000E+00 -0.71576306884E+01  0.71576306884E+01  0.00000000000E+00 0. -1.
          2    1    1    2  502    0 -0.11357483620E+02  0.24852866065E+02  0.17881328522E+03  0.18088904986E+03  0.00000000000E+00 0. -1.
         -2    1    1    2    0  502  0.11357483620E+02 -0.24852866065E+02  0.24382215944E+02  0.36621712687E+02  0.00000000000E+00 0. -1.
<mgrwt>
<rscale>  2 0.27325032E+02</rscale>
<asrwt>0</asrwt>
<pdfrwt beam="1">  1        2 0.32362016E-01 0.27325032E+02</pdfrwt>
<pdfrwt beam="2">  1       -2 0.11011741E-02 0.27325032E+02</pdfrwt>
<totfact> 0.19315512E+05</totfact>
</mgrwt>
</event>
<event>
 4    1  0.1429937E+004  0.2595566E+02  0.7546771E-02  0.1647643E+00
          2   -1    0    0  501    0  0.00000000000E+00  0.00000000000E+00  0.57504200061E+03  0.57504200061E+03  0.00000000000E+00 0. -1.
         -2   -1    0    0    0  501 -0.00000000000E+00 -0.00000000000E+00 -0.20808357399E+01  0.20808357399E+01  0.00000000000E+00 0. -1.
          2    1    1    2  502    0 -0.14773937050E+02 -0.21340736863E+02  0.47723172223E+03  0.47793703870E+03  0.00000000000E+00 0. -1.
         -2    1    1    2    0  502  0.14773937050E+02  0.21340736863E+02  0.95729442641E+02  0.99185797643E+02  0.00000000000E+00 0. -1.
<mgrwt>
<rscale>  2 0.25955660E+02</rscale>
<asrwt>0</asrwt>
<pdfrwt beam="1">  1        2 0.88467874E-01 0.25955660E+02</pdfrwt>
<pdfrwt beam="2">  1       -2 0.32012903E-03 0.25955660E+02</pdfrwt>
<totfact> 0.36838499E+05</totfact>
</mgrwt>
</event>
<event>
 4    1  0.1429937E+004  0.3956959E+02  0.7546771E-02  0.1511403E+00
         -2   -1    0    0    0  501 -0.00000000000E+00  0.00000000000E+00  0.84782223786E+00  0.84782223786E+00  0.00000000000E+00 0. -1.
          2   -1    0    0  501    0  0.00000000000E+00 -0.00000000000E+00 -0.19136719033E+04  0.19136719033E+04  0.00000000000E+00 0. -1.
          2    1    1    2  502    0 -0.35902617199E+02 -0.16635896499E+02 -0.77745644746E+03  0.77846276640E+03  0.00000000000E+00 0. -1.
         -2    1    1    2    0  502  0.35902617199E+02  0.16635896499E+02 -0.11353676336E+04  0.11360569591E+04  0.00000000000E+00 0. -1.
<mgrwt>
<rscale>  2 0.39569591E+02</rscale>
<asrwt>0</asrwt>
<pdfrwt beam="2">  1        2 0.29441283E+00 0.39569591E+02</pdfrwt>
<pdfrwt beam="1">  1       -2 0.13043341E-03 0.39569591E+02</pdfrwt>
<totfact> 0.25326234E+05</totfact>
</mgrwt>
</event>
<event>
 4    1  0.1429937E+004  0.2130824E+02  0.7546771E-02  0.1720498E+00
          2   -1    0    0  501    0  0.00000000000E+00  0.00000000000E+00  0.67402088857E+03  0.67402088857E+03  0.00000000000E+00 0. -1.
         -2   -1    0    0    0  501 -0.00000000000E+00 -0.00000000000E+00 -0.58135566855E+02  0.58135566855E+02  0.00000000000E+00 0. -1.
          2    1    1    2  502    0  0.78801482800E+01  0.19797586724E+02  0.67189379082E+03  0.67223158756E+03  0.00000000000E+00 0. -1.
         -2    1    1    2    0  502 -0.78801482800E+01 -0.19797586724E+02 -0.56008469103E+02  0.59924867862E+02  0.00000000000E+00 0. -1.
<mgrwt>
<rscale>  2 0.21308242E+02</rscale>
<asrwt>0</asrwt>
<pdfrwt beam="1">  1        2 0.10369552E+00 0.21308242E+02</pdfrwt>
<pdfrwt beam="2">  1       -2 0.89439338E-02 0.21308242E+02</pdfrwt>
<totfact> 0.30440354E+03</totfact>
</mgrwt>
</event>
<event>
 4    1  0.1429937E+004  0.5723701E+02  0.7546771E-02  0.1409807E+00
          2   -1    0    0  501    0  0.00000000000E+00  0.00000000000E+00  0.18192111886E+03  0.18192111886E+03  0.00000000000E+00 0. -1.
         -2   -1    0    0    0  501 -0.00000000000E+00 -0.00000000000E+00 -0.13762303201E+03  0.13762303201E+03  0.00000000000E+00 0.  1.
          2    1    1    2  502    0 -0.40460315948E+02  0.40485042690E+02  0.17110154239E+03  0.18042121177E+03  0.00000000000E+00 0. -1.
         -2    1    1    2    0  502  0.40460315948E+02 -0.40485042690E+02 -0.12680345553E+03  0.13912293910E+03  0.00000000000E+00 0.  1.
<mgrwt>
<rscale>  2 0.57237015E+02</rscale>
<asrwt>0</asrwt>
<pdfrwt beam="1">  1        2 0.27987864E-01 0.57237015E+02</pdfrwt>
<pdfrwt beam="2">  1       -2 0.21172774E-01 0.57237015E+02</pdfrwt>
<totfact> 0.32877691E+03</totfact>
</mgrwt>
</event>
<event>
 4    1  0.1429937E+004  0.2710195E+02  0.7546771E-02  0.1632526E+00
         -2   -1    0    0    0  501 -0.00000000000E+00  0.00000000000E+00  0.18512413607E+01  0.18512413607E+01  0.00000000000E+00 0. -1.
          2   -1    0    0  501    0  0.00000000000E+00 -0.00000000000E+00 -0.52222930771E+03  0.52222930771E+03  0.00000000000E+00 0.  1.
          2    1    1    2  502    0  0.11439934343E+02  0.24569156426E+02 -0.38862606521E+03  0.38956993481E+03  0.00000000000E+00 0.  1.
         -2    1    1    2    0  502 -0.11439934343E+02 -0.24569156426E+02 -0.13175200114E+03  0.13451061426E+03  0.00000000000E+00 0. -1.
<mgrwt>
<rscale>  2 0.27101947E+02</rscale>
<asrwt>0</asrwt>
<pdfrwt beam="2">  1        2 0.80343179E-01 0.27101947E+02</pdfrwt>
<pdfrwt beam="1">  1       -2 0.28480563E-03 0.27101947E+02</pdfrwt>
<totfact> 0.48147827E+05</totfact>
</mgrwt>
</event>
<event>
 4    1  0.1429937E+004  0.3643029E+02  0.7546771E-02  0.1536254E+00
          2   -1    0    0  501    0  0.00000000000E+00  0.00000000000E+00  0.72758506946E+03  0.72758506946E+03  0.00000000000E+00 0. -1.
         -2   -1    0    0    0  501 -0.00000000000E+00 -0.00000000000E+00 -0.13933129692E+03  0.13933129692E+03  0.00000000000E+00 0. -1.
          2    1    1    2  502    0 -0.11492334454E+02 -0.34570106038E+02  0.72473839093E+03  0.72565343055E+03  0.00000000000E+00 0. -1.
         -2    1    1    2    0  502  0.11492334454E+02  0.34570106038E+02 -0.13648461839E+03  0.14126293583E+03  0.00000000000E+00 0. -1.
<mgrwt>
<rscale>  2 0.36430289E+02</rscale>
<asrwt>0</asrwt>
<pdfrwt beam="1">  1        2 0.11193616E+00 0.36430289E+02</pdfrwt>
<pdfrwt beam="2">  1       -2 0.21435585E-01 0.36430289E+02</pdfrwt>
<totfact> 0.74154882E+02</totfact>
</mgrwt>
</event>
<event>
 4    1  0.1429937E+004  0.4476988E+02  0.7546771E-02  0.1475783E+00
          2   -1    0    0  501    0  0.00000000000E+00  0.00000000000E+00  0.49418438840E+03  0.49418438840E+03  0.00000000000E+00 0. -1.
         -2   -1    0    0    0  501 -0.00000000000E+00 -0.00000000000E+00 -0.30526005787E+03  0.30526005787E+03  0.00000000000E+00 0. -1.
          2    1    1    2  502    0  0.38889036579E+02  0.22180737328E+02  0.49152004013E+03  0.49355475089E+03  0.00000000000E+00 0. -1.
         -2    1    1    2    0  502 -0.38889036579E+02 -0.22180737328E+02 -0.30259570960E+03  0.30588969538E+03  0.00000000000E+00 0. -1.
<mgrwt>
<rscale>  2 0.44769881E+02</rscale>
<asrwt>0</asrwt>
<pdfrwt beam="1">  1        2 0.76028368E-01 0.44769881E+02</pdfrwt>
<pdfrwt beam="2">  1       -2 0.46963086E-01 0.44769881E+02</pdfrwt>
<totfact> 0.28198751E+02</totfact>
</mgrwt>
</event>
<event>
 4    1  0.1429937E+004  0.3380361E+02  0.7546771E-02  0.1559489E+00
         -2   -1    0    0    0  501 -0.00000000000E+00  0.00000000000E+00  0.10412216907E+03  0.10412216907E+03  0.00000000000E+00 0.  1.
          2   -1    0    0  501    0  0.00000000000E+00 -0.00000000000E+00 -0.10219127788E+03  0.10219127788E+03  0.00000000000E+00 0.  1.
          2    1    1    2  502    0  0.75064281109E+01 -0.32959633731E+02 -0.96494933956E+02  0.10224459007E+03  0.00000000000E+00 0.  1.
         -2    1    1    2    0  502 -0.75064281109E+01  0.32959633731E+02  0.98425825140E+02  0.10406885688E+03  0.00000000000E+00 0.  1.
<mgrwt>
<rscale>  2 0.33803608E+02</rscale>
<asrwt>0</asrwt>
<pdfrwt beam="2">  1        2 0.15721735E-01 0.33803608E+02</pdfrwt>
<pdfrwt beam="1">  1       -2 0.16018795E-01 0.33803608E+02</pdfrwt>
<totfact> 0.91550702E+03</totfact>
</mgrwt>
</event>
<event>
 4    1  0.1429937E+004  0.2890999E+02  0.7546771E-02  0.1610459E+00
         -2   -1    0    0    0  501 -0.00000000000E+00  0.00000000000E+00  0.29006196632E+02  0.29006196632E+02  0.00000000000E+00 0.  1.
          2   -1    0    0  501    0  0.00000000000E+00 -0.00000000000E+00 -0.17894456423E+04  0.17894456423E+04  0.00000000000E+00 0.  1.
          2    1    1    2  502    0 -0.20516963379E+02  0.20367666732E+02 -0.17820956414E+04  0.17823301217E+04  0.00000000000E+00 0.  1.
         -2    1    1    2    0  502  0.20516963379E+02 -0.20367666732E+02  0.21656195797E+02  0.36121717163E+02  0.00000000000E+00 0.  1.
<mgrwt>
<rscale>  2 0.28909992E+02</rscale>
<asrwt>0</asrwt>
<pdfrwt beam="2">  1        2 0.27529940E+00 0.28909992E+02</pdfrwt>
<pdfrwt beam="1">  1       -2 0.44624907E-02 0.28909992E+02</pdfrwt>
<totfact> 0.22048794E+03</totfact>
</mgrwt>
</event>
<event>
 4    1  0.1429937E+004  0.2222914E+02  0.7546771E-02  0.1704319E+00
          2   -1    0    0  501    0  0.00000000000E+00  0.00000000000E+00  0.51073017604E+02  0.51073017604E+02  0.00000000000E+00 0. -1.
         -2   -1    0    0    0  501 -0.00000000000E+00 -0.00000000000E+00 -0.17747002438E+03  0.17747002438E+03  0.00000000000E+00 0.  1.
          2    1    1    2  502    0 -0.15354107155E+02  0.16074385363E+02  0.47914520315E+02  0.52819842184E+02  0.00000000000E+00 0. -1.
         -2    1    1    2    0  502  0.15354107155E+02 -0.16074385363E+02 -0.17431152709E+03  0.17572319980E+03  0.00000000000E+00 0.  1.
<mgrwt>
<rscale>  2 0.22229136E+02</rscale>
<asrwt>0</asrwt>
<pdfrwt beam="1">  1        2 0.78573874E-02 0.22229136E+02</pdfrwt>
<pdfrwt beam="2">  1       -2 0.27303080E-01 0.22229136E+02</pdfrwt>
<totfact> 0.79766798E+03</totfact>
</mgrwt>
</event>
<event>
 4    1  0.1429937E+004  0.2439843E+02  0.7546771E-02  0.1669796E+00
         -2   -1    0    0    0  501 -0.00000000000E+00  0.00000000000E+00  0.10116283645E+03  0.10116283645E+03  0.00000000000E+00 0.  1.
          2   -1    0    0  501    0  0.00000000000E+00 -0.00000000000E+00 -0.14980313597E+02  0.14980313597E+02  0.00000000000E+00 0. -1.
          2    1    1    2  502    0  0.12724382728E+02 -0.20817620584E+02 -0.21595282965E+01  0.24493811567E+02  0.00000000000E+00 0. -1.
         -2    1    1    2    0  502 -0.12724382728E+02  0.20817620584E+02  0.88342051149E+02  0.91649338480E+02  0.00000000000E+00 0.  1.
<mgrwt>
<rscale>  2 0.24398427E+02</rscale>
<asrwt>0</asrwt>
<pdfrwt beam="2">  1        2 0.23046637E-02 0.24398427E+02</pdfrwt>
<pdfrwt beam="1">  1       -2 0.15563513E-01 0.24398427E+02</pdfrwt>
<totfact> 0.91866553E+04</totfact>
</mgrwt>
</event>
<event>
 4    1  0.1429937E+004  0.3051112E+02  0.7546771E-02  0.1592507E+00
          2   -1    0    0  501    0  0.00000000000E+00  0.00000000000E+00  0.30279881480E+01  0.30279881480E+01  0.00000000000E+00 0.  1.
         -2   -1    0    0    0  501 -0.00000000000E+00 -0.00000000000E+00 -0.55833813235E+03  0.55833813235E+03  0.00000000000E+00 0.  1.
          2    1    1    2  502    0 -0.29911078927E+02  0.60212843303E+01 -0.89500326134E+02  0.94558113801E+02  0.00000000000E+00 0.  1.
         -2    1    1    2    0  502  0.29911078927E+02 -0.60212843303E+01 -0.46580981807E+03  0.46680800670E+03  0.00000000000E+00 0.  1.
<mgrwt>
<rscale>  2 0.30511121E+02</rscale>
<asrwt>0</asrwt>
<pdfrwt beam="1">  1        2 0.46584401E-03 0.30511121E+02</pdfrwt>
<pdfrwt beam="2">  1       -2 0.85898233E-01 0.30511121E+02</pdfrwt>
<totfact> 0.35440819E+04</totfact>
</mgrwt>
</event>
<event>
 4    1  0.1429937E+004  0.2306059E+02  0.7546771E-02  0.1690530E+00
          2   -1    0    0  501    0  0.00000000000E+00  0.00000000000E+00  0.60405110809E+03  0.60405110809E+03  0.00000000000E+00 0. -1.
         -2   -1    0    0    0  501 -0.00000000000E+00 -0.00000000000E+00 -0.14524599068E+01  0.14524599068E+01  0.00000000000E+00 0.  1.
          2    1    1    2  502    0  0.14104613011E+02  0.18244199507E+02  0.49130441520E+03  0.49184532052E+03  0.00000000000E+00 0. -1.
         -2    1    1    2    0  502 -0.14104613011E+02 -0.18244199507E+02  0.11129423298E+03  0.11365824748E+03  0.00000000000E+00 0.  1.
<mgrwt>
<rscale>  2 0.23060592E+02</rscale>
<asrwt>0</asrwt>
<pdfrwt beam="1">  1        2 0.92930739E-01 0.23060592E+02</pdfrwt>
<pdfrwt beam="2">  1       -2 0.22345585E-03 0.23060592E+02</pdfrwt>
<totfact> 0.54677679E+05</totfact>
</mgrwt>
</event>
<event>
 4    1  0.1429937E+004  0.2089472E+02  0.7546771E-02  0.1728099E+00
          2   -1    0    0  501    0  0.00000000000E+00  0.00000000000E+00  0.11627350345E+03  0.11627350345E+03  0.00000000000E+00 0.  1.
         -2   -1    0    0    0  501 -0.00000000000E+00 -0.00000000000E+00 -0.20567485596E+02  0.20567485596E+02  0.00000000000E+00 0. -1.
          2    1    1    2  502    0  0.47517032212E+01  0.20347253942E+02  0.10971352278E+03  0.11168548029E+03  0.00000000000E+00 0.  1.
         -2    1    1    2    0  502 -0.47517032212E+01 -0.20347253942E+02 -0.14007504928E+02  0.25155508756E+02  0.00000000000E+00 0. -1.
<mgrwt>
<rscale>  2 0.20894722E+02</rscale>
<asrwt>0</asrwt>
<pdfrwt beam="1">  1        2 0.17888231E-01 0.20894722E+02</pdfrwt>
<pdfrwt beam="2">  1       -2 0.31642286E-02 0.20894722E+02</pdfrwt>
<totfact> 0.78600828E+04</totfact>
</mgrwt>
</event>
<event>
 4    1  0.1429937E+004  0.3876521E+02  0.7546771E-02  0.1517500E+00
          2   -1    0    0  501    0  0.00000000000E+00  0.00000000000E+00  0.63220731032E+03  0.63220731032E+03  0.00000000000E+00 0. -1.
         -2   -1    0    0    0  501 -0.00000000000E+00 -0.00000000000E+00 -0.43203852621E+01  0.43203852621E+01  0.00000000000E+00 0.  1.
          2    1    1    2  502    0  0.24284795928E+02 -0.30215729740E+02  0.52739938020E+03  0.52882213255E+03  0.00000000000E+00 0. -1.
         -2    1    1    2    0  502 -0.24284795928E+02  0.30215729740E+02  0.10048754486E+03  0.10770556303E+03  0.00000000000E+00 0.  1.
<mgrwt>
<rscale>  2 0.38765212E+02</rscale>
<asrwt>0</asrwt>
<pdfrwt beam="1">  1        2 0.97262590E-01 0.38765212E+02</pdfrwt>
<pdfrwt beam="2">  1       -2 0.66467516E-03 0.38765212E+02</pdfrwt>
<totfact> 0.13579219E+05</totfact>
</mgrwt>
</event>
<event>
 4    1  0.1429937E+004  0.5092640E+02  0.7546771E-02  0.1440408E+00
         -2   -1    0    0    0  501 -0.00000000000E+00  0.00000000000E+00  0.24813634498E+01  0.24813634498E+01  0.00000000000E+00 0. -1.
          2   -1    0    0  501    0  0.00000000000E+00 -0.00000000000E+00 -0.10869323233E+04  0.10869323233E+04  0.00000000000E+00 0.  1.
          2    1    1    2  502    0 -0.41485150135E+02  0.29537777988E+02 -0.64897015705E+03  0.65096525465E+03  0.00000000000E+00 0.  1.
         -2    1    1    2    0  502  0.41485150135E+02 -0.29537777988E+02 -0.43548080284E+03  0.43844843215E+03  0.00000000000E+00 0. -1.
<mgrwt>
<rscale>  2 0.50926398E+02</rscale>
<asrwt>0</asrwt>
<pdfrwt beam="2">  1        2 0.16722014E+00 0.50926398E+02</pdfrwt>
<pdfrwt beam="1">  1       -2 0.38174871E-03 0.50926398E+02</pdfrwt>
<totfact> 0.15894393E+05</totfact>
</mgrwt>
</event>
<event>
 4    1  0.1429937E+004  0.2158579E+02  0.7546771E-02  0.1715516E+00
          2   -1    0    0  501    0  0.00000000000E+00  0.00000000000E+00  0.10981207684E+04  0.10981207684E+04  0.00000000000E+00 0. -1.
         -2   -1    0    0    0  501 -0.00000000000E+00 -0.00000000000E+00 -0.12635755096E+02  0.12635755096E+02  0.00000000000E+00 0.  1.
          2    1    1    2  502    0 -0.52281764404E+01 -0.20943076555E+02  0.10887162588E+04  0.10889302267E+04  0.00000000000E+00 0. -1.
         -2    1    1    2    0  502  0.52281764404E+01  0.20943076555E+02 -0.32312455582E+01  0.21826296808E+02  0.00000000000E+00 0.  1.
<mgrwt>
<rscale>  2 0.21585789E+02</rscale>
<asrwt>0</asrwt>
<pdfrwt beam="1">  1        2 0.16894158E+00 0.21585789E+02</pdfrwt>
<pdfrwt beam="2">  1       -2 0.19439632E-02 0.21585789E+02</pdfrwt>
<totfact> 0.14802530E+04</totfact>
</mgrwt>
</event>
<event>
 4    1  0.1429937E+004  0.2989584E+02  0.7546771E-02  0.1599243E+00
          2   -1    0    0  501    0  0.00000000000E+00  0.00000000000E+00  0.42326055381E+03  0.42326055381E+03  0.00000000000E+00 0. -1.
         -2   -1    0    0    0  501 -0.00000000000E+00 -0.00000000000E+00 -0.75478629367E+01  0.75478629367E+01  0.00000000000E+00 0.  1.
          2    1    1    2  502    0  0.36375343415E+01 -0.29673717135E+02  0.39066300629E+03  0.39180523941E+03  0.00000000000E+00 0. -1.
         -2    1    1    2    0  502 -0.36375343415E+01  0.29673717135E+02  0.25049684582E+02  0.39003177337E+02  0.00000000000E+00 0.  1.
<mgrwt>
<rscale>  2 0.29895838E+02</rscale>
<asrwt>0</asrwt>
<pdfrwt beam="1">  1        2 0.65116990E-01 0.29895838E+02</pdfrwt>
<pdfrwt beam="2">  1       -2 0.11612100E-02 0.29895838E+02</pdfrwt>
<totfact> 0.91108703E+04</totfact>
</mgrwt>
</event>
<event>
 4    1  0.1429937E+004  0.4020118E+02  0.7546771E-02  0.1506736E+00
         -2   -1    0    0    0  501 -0.00000000000E+00  0.00000000000E+00  0.17636944227E+02  0.17636944227E+02  0.00000000000E+00 0.  1.
          2   -1    0    0  501    0  0.00000000000E+00 -0.00000000000E+00 -0.18726621635E+03  0.18726621635E+03  0.00000000000E+00 0.  1.
          2    1    1    2  502    0  0.31546470352E+02  0.24918969432E+02 -0.15802831028E+03  0.16306158860E+03  0.00000000000E+00 0.  1.
         -2    1    1    2    0  502 -0.31546470352E+02 -0.24918969432E+02 -0.11600961843E+02  0.41841571970E+02  0.00000000000E+00 0.  1.
<mgrwt>
<rscale>  2 0.40201179E+02</rscale>
<asrwt>0</asrwt>
<pdfrwt beam="2">  1        2 0.28810185E-01 0.40201179E+02</pdfrwt>
<pdfrwt beam="1">  1       -2 0.27133762E-02 0.40201179E+02</pdfrwt>
<totfact> 0.67761225E+04</totfact>
</mgrwt>
</event>
<event>
 4    1  0.1429937E+004  0.2029349E+02  0.7546771E-02  0.1739554E+00
          2   -1    0    0  501    0  0.00000000000E+00  0.00000000000E+00  0.84095849760E+03  0.84095849760E+03  0.00000000000E+00 0.  1.
         -2   -1    0    0    0  501 -0.00000000000E+00 -0.00000000000E+00 -0.49130575899E+00  0.49130575899E+00  0.00000000000E+00 0.  1.
          2    1    1    2  502    0  0.19449906446E+02  0.57902108902E+01  0.39625256234E+03  0.39677187220E+03  0.00000000000E+00 0.  1.
         -2    1    1    2    0  502 -0.19449906446E+02 -0.57902108902E+01  0.44421462950E+03  0.44467793116E+03  0.00000000000E+00 0.  1.
<mgrwt>
<rscale>  2 0.20293492E+02</rscale>
<asrwt>0</asrwt>
<pdfrwt beam="1">  1        2 0.12937708E+00 0.20293492E+02</pdfrwt>
<pdfrwt beam="2">  1       -2 0.75586174E-04 0.20293492E+02</pdfrwt>
<totfact> 0.15253533E+06</totfact>
</mgrwt>
</event>
<event>
 4    1  0.1429937E+004  0.2500380E+02  0.7546771E-02  0.1660947E+00
          2   -1    0    0  501    0  0.00000000000E+00  0.00000000000E+00  0.10519080121E+04  0.10519080121E+04  0.00000000000E+00 0. -1.
         -2   -1    0    0    0  501 -0.00000000000E+00 -0.00000000000E+00 -0.10506744974E+03  0.10506744974E+03  0.00000000000E+00 0. -1.
          2    1    1    2  502    0  0.13063362045E+02  0.21319915382E+02  0.10502695144E+04  0.10505671054E+04  0.00000000000E+00 0. -1.
         -2    1    1    2    0  502 -0.13063362045E+02 -0.21319915382E+02 -0.10342895195E+03  0.10640835645E+03  0.00000000000E+00 0. -1.
<mgrwt>
<rscale>  2 0.25003804E+02</rscale>
<asrwt>0</asrwt>
<pdfrwt beam="1">  1        2 0.16183199E+00 0.25003804E+02</pdfrwt>
<pdfrwt beam="2">  1       -2 0.16164224E-01 0.25003804E+02</pdfrwt>
<totfact> 0.74534155E+02</totfact>
</mgrwt>
</event>
<event>
 4    1  0.1429937E+004  0.4451737E+02  0.7546771E-02  0.1477377E+00
         -2   -1    0    0    0  501 -0.00000000000E+00  0.00000000000E+00  0.42366669169E+02  0.42366669169E+02  0.00000000000E+00 0. -1.
          2   -1    0    0  501    0  0.00000000000E+00 -0.00000000000E+00 -0.48459934728E+02  0.48459934728E+02  0.00000000000E+00 0. -1.
          2    1    1    2  502    0 -0.37210193829E+02  0.24437593694E+02  0.54158621296E+01  0.44845580306E+02  0.00000000000E+00 0. -1.
         -2    1    1    2    0  502  0.37210193829E+02 -0.24437593694E+02 -0.11509127688E+02  0.45981023591E+02  0.00000000000E+00 0. -1.
<mgrwt>
<rscale>  2 0.44517373E+02</rscale>
<asrwt>0</asrwt>
<pdfrwt beam="2">  1        2 0.74553745E-02 0.44517373E+02</pdfrwt>
<pdfrwt beam="1">  1       -2 0.65179491E-02 0.44517373E+02</pdfrwt>
<totfact> 0.89882686E+04</totfact>
</mgrwt>
</event>
<event>
 4    1  0.1429937E+004  0.2085928E+02  0.7546771E-02  0.1728761E+00
         -2   -1    0    0    0  501 -0.00000000000E+00  0.00000000000E+00  0.10816152474E+02  0.10816152474E+02  0.00000000000E+00 0.  1.
          2   -1    0    0  501    0  0.00000000000E+00 -0.00000000000E+00 -0.48142199069E+03  0.48142199069E+03  0.00000000000E+00 0.  1.
          2    1    1    2  502    0  0.20322478741E+02  0.47017439330E+01 -0.47091481857E+03  0.47137657546E+03  0.00000000000E+00 0.  1.
         -2    1    1    2    0  502 -0.20322478741E+02 -0.47017439330E+01  0.30898036040E+00  0.20861567704E+02  0.00000000000E+00 0.  1.
<mgrwt>
<rscale>  2 0.20859279E+02</rscale>
<asrwt>0</asrwt>
<pdfrwt beam="2">  1        2 0.74064915E-01 0.20859279E+02</pdfrwt>
<pdfrwt beam="1">  1       -2 0.16640236E-02 0.20859279E+02</pdfrwt>
<totfact> 0.45493803E+04</totfact>
</mgrwt>
</event>
<event>
 4    1  0.1429937E+004  0.2368523E+02  0.7546771E-02  0.1680638E+00
         -2   -1    0    0    0  501 -0.00000000000E+00  0.00000000000E+00  0.35416677475E+01  0.35416677475E+01  0.00000000000E+00 0.  1.
          2   -1    0    0  501    0  0.00000000000E+00 -0.00000000000E+00 -0.16408813136E+04  0.16408813136E+04  0.00000000000E+00 0. -1.
          2    1    1    2  502    0 -0.22981583508E+02  0.57303425929E+01 -0.16001896339E+04  0.16003649129E+04  0.00000000000E+00 0. -1.
         -2    1    1    2    0  502  0.22981583508E+02 -0.57303425929E+01 -0.37150011931E+02  0.44058068424E+02  0.00000000000E+00 0.  1.
<mgrwt>
<rscale>  2 0.23685228E+02</rscale>
<asrwt>0</asrwt>
<pdfrwt beam="2">  1        2 0.25244269E+00 0.23685228E+02</pdfrwt>
<pdfrwt beam="1">  1       -2 0.54487324E-03 0.23685228E+02</pdfrwt>
<totfact> 0.45787491E+04</totfact>
</mgrwt>
</event>
<event>
 4    1  0.1429937E+004  0.3471011E+02  0.7546771E-02  0.1551190E+00
          2   -1    0    0  501    0  0.00000000000E+00  0.00000000000E+00  0.72280244292E+03  0.72280244292E+03  0.00000000000E+00 0. -1.
         -2   -1    0    0    0  501 -0.00000000000E+00 -0.00000000000E+00 -0.24500706240E+02  0.24500706240E+02  0.00000000000E+00 0.  1.
          2    1    1    2  502    0  0.30481459922E+02  0.16603380329E+02  0.70986844043E+03  0.71071653586E+03  0.00000000000E+00 0. -1.
         -2    1    1    2    0  502 -0.30481459922E+02 -0.16603380329E+02 -0.11566703742E+02  0.36586613300E+02  0.00000000000E+00 0.  1.
<mgrwt>
<rscale>  2 0.34710109E+02</rscale>
<asrwt>0</asrwt>
<pdfrwt beam="1">  1        2 0.11120036E+00 0.34710109E+02</pdfrwt>
<pdfrwt beam="2">  1       -2 0.37693400E-02 0.34710109E+02</pdfrwt>
<totfact> 0.10302716E+04</totfact>
</mgrwt>
</event>
<event>
 4    1  0.1429937E+004  0.2454956E+02  0.7546771E-02  0.1667557E+00
          2   -1    0    0  501    0  0.00000000000E+00  0.00000000000E+00  0.18019179373E+03  0.18019179373E+03  0.00000000000E+00 0.  1.
         -2   -1    0    0    0  501 -0.00000000000E+00 -0.00000000000E+00 -0.50934595790E+01  0.50934595790E+01  0.00000000000E+00 0. -1.
          2    1    1    2  502    0 -0.21686403839E+02 -0.11505687694E+02  0.14183343460E+03  0.14394236393E+03  0.00000000000E+00 0.  1.
         -2    1    1    2    0  502  0.21686403839E+02  0.11505687694E+02  0.33264899550E+02  0.41342889387E+02  0.00000000000E+00 0. -1.
<mgrwt>
<rscale>  2 0.24549561E+02</rscale>
<asrwt>0</asrwt>
<pdfrwt beam="1">  1        2 0.27721810E-01 0.24549561E+02</pdfrwt>
<pdfrwt beam="2">  1       -2 0.78360930E-03 0.24549561E+02</pdfrwt>
<totfact> 0.34870989E+05</totfact>
</mgrwt>
</event>
<event>
 4    1  0.1429937E+004  0.2146666E+02  0.7546771E-02  0.1717642E+00
          2   -1    0    0  501    0  0.00000000000E+00  0.00000000000E+00  0.10654975187E+04  0.10654975187E+04  0.00000000000E+00 0.  1.
         -2   -1    0    0    0  501 -0.00000000000E+00 -0.00000000000E+00 -0.10240243025E+02  0.10240243025E+02  0.00000000000E+00 0.  1.
          2    1    1    2  502    0  0.11031773901E+02 -0.18415141617E+02  0.10540167074E+04  0.10542352854E+04  0.00000000000E+00 0.  1.
         -2    1    1    2    0  502 -0.11031773901E+02  0.18415141617E+02  0.12405682053E+01  0.21502476268E+02  0.00000000000E+00 0.  1.
<mgrwt>
<rscale>  2 0.21466660E+02</rscale>
<asrwt>0</asrwt>
<pdfrwt beam="1">  1        2 0.16392261E+00 0.21466660E+02</pdfrwt>
<pdfrwt beam="2">  1       -2 0.15754228E-02 0.21466660E+02</pdfrwt>
<totfact> 0.20486889E+04</totfact>
</mgrwt>
</event>
<event>
 4    1  0.1429937E+004  0.2417878E+02  0.7546771E-02  0.1673085E+00
          2   -1    0    0  501    0  0.00000000000E+00  0.00000000000E+00  0.79245671336E+03  0.79245671336E+03  0.00000000000E+00 0.  1.
         -2   -1    0    0    0  501 -0.00000000000E+00 -0.00000000000E+00 -0.20369582865E+02  0.20369582865E+02  0.00000000000E+00 0.  1.
          2    1    1    2  502    0  0.12733095009E+02 -0.20554362114E+02  0.78502933374E+03  0.78540159685E+03  0.00000000000E+00 0.  1.
         -2    1    1    2    0  502 -0.12733095009E+02  0.20554362114E+02 -0.12942203249E+02  0.27424699367E+02  0.00000000000E+00 0.  1.
<mgrwt>
<rscale>  2 0.24178782E+02</rscale>
<asrwt>0</asrwt>
<pdfrwt beam="1">  1        2 0.12191639E+00 0.24178782E+02</pdfrwt>
<pdfrwt beam="2">  1       -2 0.31337826E-02 0.24178782E+02</pdfrwt>
<totfact> 0.11538893E+04</totfact>
</mgrwt>
</event>
<event>
 4    1  0.1429937E+004  0.2205312E+02  0.7546771E-02  0.1707335E+00
         -2   -1    0    0    0  501 -0.00000000000E+00  0.00000000000E+00  0.39097164440E+01  0.39097164440E+01  0.00000000000E+00 0. -1.
          2   -1    0    0  501    0  0.00000000000E+00 -0.00000000000E+00 -0.47013322244E+03  0.47013322244E+03  0.00000000000E+00 0.  1.
          2    1    1    2  502    0 -0.23939310926E+01 -0.21922797832E+02 -0.43637197309E+03  0.43692887163E+03  0.00000000000E+00 0.  1.
         -2    1    1    2    0  502  0.23939310926E+01  0.21922797832E+02 -0.29851532908E+02  0.37114067250E+02  0.00000000000E+00 0. -1.
<mgrwt>
<rscale>  2 0.22053117E+02</rscale>
<asrwt>0</asrwt>
<pdfrwt beam="2">  1        2 0.72328174E-01 0.22053117E+02</pdfrwt>
<pdfrwt beam="1">  1       -2 0.60149496E-03 0.22053117E+02</pdfrwt>
<totfact> 0.18623476E+05</totfact>
</mgrwt>
</event>
<event>
 4    1  0.1429937E+004  0.2740601E+02  0.7546771E-02  0.1628669E+00
         -2   -1    0    0    0  501 -0.00000000000E+00  0.00000000000E+00  0.17097536665E+03  0.17097536665E+03  0.00000000000E+00 0.  1.
          2   -1    0    0  501    0  0.00000000000E+00 -0.00000000000E+00 -0.19162585951E+02  0.19162585951E+02  0.00000000000E+00 0.  1.
          2    1    1    2  502    0  0.68734569172E+01  0.26530079295E+02 -0.75570674003E+01  0.28428837209E+02  0.00000000000E+00 0.  1.
         -2    1    1    2    0  502 -0.68734569172E+01 -0.26530079295E+02  0.15936984810E+03  0.16170911539E+03  0.00000000000E+00 0.  1.
<mgrwt>
<rscale>  2 0.27406012E+02</rscale>
<asrwt>0</asrwt>
<pdfrwt beam="2">  1        2 0.29480903E-02 0.27406012E+02</pdfrwt>
<pdfrwt beam="1">  1       -2 0.26303902E-01 0.27406012E+02</pdfrwt>
<totfact> 0.29431840E+04</totfact>
</mgrwt>
</event>
<event>
 4    1  0.1429937E+004  0.3091699E+02  0.7546771E-02  0.1588168E+00
          2   -1    0    0  501    0  0.00000000000E+00  0.00000000000E+00  0.91595312602E+02  0.91595312602E+02  0.00000000000E+00 0.  1.
         -2   -1    0    0    0  501 -0.00000000000E+00 -0.00000000000E+00 -0.19783605773E+02  0.19783605773E+02  0.00000000000E+00 0.  1.
          2    1    1    2  502    0 -0.34486519162E+01  0.30724045367E+02  0.74186362303E+02  0.80370868575E+02  0.00000000000E+00 0.  1.
         -2    1    1    2    0  502  0.34486519162E+01 -0.30724045367E+02 -0.23746554739E+01  0.31008049800E+02  0.00000000000E+00 0.  1.
<mgrwt>
<rscale>  2 0.30916988E+02</rscale>
<asrwt>0</asrwt>
<pdfrwt beam="1">  1        2 0.14091586E-01 0.30916988E+02</pdfrwt>
<pdfrwt beam="2">  1       -2 0.30436317E-02 0.30916988E+02</pdfrwt>
<totfact> 0.11812527E+05</totfact>
</mgrwt>
</event>
<event>
 4    1  0.1429937E+004  0.2316414E+02  0.7546771E-02  0.1688863E+00
          2   -1    0    0  501    0  0.00000000000E+00  0.00000000000E+00  0.87283471608E+03  0.87283471608E+03  0.00000000000E+00 0.  1.
         -2   -1    0    0    0  501 -0.00000000000E+00 -0.00000000000E+00 -0.17364123253E+01  0.17364123253E+01  0.00000000000E+00 0.  1.
          2    1    1    2  502    0 -0.22956936800E+02  0.30913296122E+01  0.78700381172E+03  0.78734463669E+03  0.00000000000E+00 0.  1.
         -2    1    1    2    0  502  0.22956936800E+02 -0.30913296122E+01  0.84094492033E+02  0.87226491711E+02  0.00000000000E+00 0.  1.
<mgrwt>
<rscale>  2 0.23164137E+02</rscale>
<asrwt>0</asrwt>
<pdfrwt beam="1">  1        2 0.13428191E+00 0.23164137E+02</pdfrwt>
<pdfrwt beam="2">  1       -2 0.26714105E-03 0.23164137E+02</pdfrwt>
<totfact> 0.28798765E+05</totfact>
</mgrwt>
</event>
<event>
 4    1  0.1429937E+004  0.5959953E+02  0.7546771E-02  0.1399520E+00
          2   -1    0    0  501    0  0.00000000000E+00  0.00000000000E+00  0.19833287593E+04  0.19833287593E+04  0.00000000000E+00 0. -1.
         -2   -1    0    0    0  501 -0.00000000000E+00 -0.00000000000E+00 -0.37121090009E+01  0.37121090009E+01  0.00000000000E+00 0. -1.
          2    1    1    2  502    0  0.13990946282E+02  0.57934073497E+02  0.17045426398E+04  0.17055842736E+04  0.00000000000E+00 0. -1.
         -2    1    1    2    0  502 -0.13990946282E+02 -0.57934073497E+02  0.27507401053E+03  0.28145659473E+03  0.00000000000E+00 0. -1.
<mgrwt>
<rscale>  2 0.59599526E+02</rscale>
<asrwt>0</asrwt>
<pdfrwt beam="1">  1        2 0.30512665E+00 0.59599526E+02</pdfrwt>
<pdfrwt beam="2">  1       -2 0.57109528E-03 0.59599526E+02</pdfrwt>
<totfact> 0.32904293E+04</totfact>
</mgrwt>
</event>
<event>
 4    1  0.1429937E+004  0.3747162E+02  0.7546771E-02  0.1527687E+00
         -2   -1    0    0    0  501 -0.00000000000E+00  0.00000000000E+00  0.50860938961E+02  0.50860938961E+02  0.00000000000E+00 0.  1.
          2   -1    0    0  501    0  0.00000000000E+00 -0.00000000000E+00 -0.32051867363E+02  0.32051867363E+02  0.00000000000E+00 0.  1.
          2    1    1    2  502    0  0.14443466848E+02  0.34576127436E+02 -0.60334325216E+01  0.37954243914E+02  0.00000000000E+00 0.  1.
         -2    1    1    2    0  502 -0.14443466848E+02 -0.34576127436E+02  0.24842504120E+02  0.44958562411E+02  0.00000000000E+00 0.  1.
<mgrwt>
<rscale>  2 0.37471620E+02</rscale>
<asrwt>0</asrwt>
<pdfrwt beam="2">  1        2 0.49310565E-02 0.37471620E+02</pdfrwt>
<pdfrwt beam="1">  1       -2 0.78247598E-02 0.37471620E+02</pdfrwt>
<totfact> 0.11023916E+05</totfact>
</mgrwt>
</event>
<event>
 4    1  0.1429937E+004  0.2050234E+02  0.7546771E-02  0.1735519E+00
         -2   -1    0    0    0  501 -0.00000000000E+00  0.00000000000E+00  0.17584064677E+02  0.17584064677E+02  0.00000000000E+00 0.  1.
          2   -1    0    0  501    0  0.00000000000E+00 -0.00000000000E+00 -0.15240588816E+03  0.15240588816E+03  0.00000000000E+00 0. -1.
          2    1    1    2  502    0 -0.11854850179E+02  0.16727471327E+02 -0.14545599962E+03  0.14689381741E+03  0.00000000000E+00 0. -1.
         -2    1    1    2    0  502  0.11854850179E+02 -0.16727471327E+02  0.10634176129E+02  0.23096135428E+02  0.00000000000E+00 0.  1.
<mgrwt>
<rscale>  2 0.20502336E+02</rscale>
<asrwt>0</asrwt>
<pdfrwt beam="2">  1        2 0.23447060E-01 0.20502336E+02</pdfrwt>
<pdfrwt beam="1">  1       -2 0.27052407E-02 0.20502336E+02</pdfrwt>
<totfact> 0.73120069E+04</totfact>
</mgrwt>
</event>
<event>
 4    1  0.1429937E+004  0.2075625E+02  0.7546771E-02  0.1730694E+00
          2   -1    0    0  501    0  0.00000000000E+00  0.00000000000E+00  0.47274399321E+03  0.47274399321E+03  0.00000000000E+00 0.  1.
         -2   -1    0    0    0  501 -0.00000000000E+00 -0.00000000000E+00 -0.10178414016E+02  0.10178414016E+02  0.00000000000E+00 0. -1.
          2    1    1    2  502    0 -0.18666295788E+02  0.90769658693E+01  0.46168097129E+03  0.46214731543E+03  0.00000000000E+00 0.  1.
         -2    1    1    2    0  502  0.18666295788E+02 -0.90769658693E+01  0.88460789899E+00  0.20775091792E+02  0.00000000000E+00 0. -1.
<mgrwt>
<rscale>  2 0.20756250E+02</rscale>
<asrwt>0</asrwt>
<pdfrwt beam="1">  1        2 0.72729828E-01 0.20756250E+02</pdfrwt>
<pdfrwt beam="2">  1       -2 0.15659102E-02 0.20756250E+02</pdfrwt>
<totfact> 0.50266585E+04</totfact>
</mgrwt>
</event>
<event>
 4    1  0.1429937E+004  0.2025832E+02  0.7546771E-02  0.1740239E+00
          2   -1    0    0  501    0  0.00000000000E+00  0.00000000000E+00  0.15759476992E+03  0.15759476992E+03  0.00000000000E+00 0.  1.
         -2   -1    0    0    0  501 -0.00000000000E+00 -0.00000000000E+00 -0.44741578430E+01  0.44741578430E+01  0.00000000000E+00 0. -1.
          2    1    1    2  502    0 -0.18905081570E+02 -0.72798911287E+01  0.24171689624E+02  0.31538381431E+02  0.00000000000E+00 0. -1.
         -2    1    1    2    0  502  0.18905081570E+02  0.72798911287E+01  0.12894892245E+03  0.13053054633E+03  0.00000000000E+00 0.  1.
<mgrwt>
<rscale>  2 0.20258315E+02</rscale>
<asrwt>0</asrwt>
<pdfrwt beam="1">  1        2 0.24245345E-01 0.20258315E+02</pdfrwt>
<pdfrwt beam="2">  1       -2 0.68833210E-03 0.20258315E+02</pdfrwt>
<totfact> 0.44973667E+05</totfact>
</mgrwt>
</event>
<event>
 4    1  0.1429937E+004  0.2535278E+02  0.7546771E-02  0.1655986E+00
          2   -1    0    0  501    0  0.00000000000E+00  0.00000000000E+00  0.14615539963E+03  0.14615539963E+03  0.00000000000E+00 0.  1.
         -2   -1    0    0    0  501 -0.00000000000E+00 -0.00000000000E+00 -0.19927847059E+03  0.19927847059E+03  0.00000000000E+00 0. -1.
          2    1    1    2  502    0 -0.30203984800E+01  0.25172218279E+02  0.14423895200E+03  0.14645012343E+03  0.00000000000E+00 0.  1.
         -2    1    1    2    0  502  0.30203984800E+01 -0.25172218279E+02 -0.19736202296E+03  0.19898374679E+03  0.00000000000E+00 0. -1.
<mgrwt>
<rscale>  2 0.25352779E+02</rscale>
<asrwt>0</asrwt>
<pdfrwt beam="1">  1        2 0.22485446E-01 0.25352779E+02</pdfrwt>
<pdfrwt beam="2">  1       -2 0.30658226E-01 0.25352779E+02</pdfrwt>
<totfact> 0.20624298E+03</totfact>
</mgrwt>
</event>
<event>
 4    1  0.1815786E+004  0.2414975E+02  0.7546771E-02  0.1673523E+00
          2   -1    0    0  501    0  0.00000000000E+00  0.00000000000E+00  0.11550376947E+04  0.11550376947E+04  0.00000000000E+00 0.  1.
         -2   -1    0    0    0  501 -0.00000000000E+00 -0.00000000000E+00 -0.45116243738E+03  0.45116243738E+03  0.00000000000E+00 0. -1.
          2    1    1    2  502    0 -0.22108470188E+02  0.97173047360E+01  0.11545881659E+04  0.11548407004E+04  0.00000000000E+00 0.  1.
         -2    1    1    2    0  502  0.22108470188E+02 -0.97173047360E+01 -0.45071290866E+03  0.45135943161E+03  0.00000000000E+00 0. -1.
<mgrwt>
<rscale>  2 0.24149751E+02</rscale>
<asrwt>0</asrwt>
<pdfrwt beam="1">  1        2 0.17769811E+00 0.24149751E+02</pdfrwt>
<pdfrwt beam="2">  1       -2 0.69409606E-01 0.24149751E+02</pdfrwt>
<totfact> 0.49739005E+01</totfact>
</mgrwt>
</event>
<event>
 4    1  0.1429937E+004  0.2161509E+02  0.7546771E-02  0.1714995E+00
          2   -1    0    0  501    0  0.00000000000E+00  0.00000000000E+00  0.78801765004E+03  0.78801765004E+03  0.00000000000E+00 0. -1.
         -2   -1    0    0    0  501 -0.00000000000E+00 -0.00000000000E+00 -0.68449394635E+01  0.68449394635E+01  0.00000000000E+00 0.  1.
          2    1    1    2  502    0 -0.17052476972E+02 -0.13282512852E+02  0.77041548410E+03  0.77071864533E+03  0.00000000000E+00 0. -1.
         -2    1    1    2    0  502  0.17052476972E+02  0.13282512852E+02  0.10757226469E+02  0.24143944166E+02  0.00000000000E+00 0.  1.
<mgrwt>
<rscale>  2 0.21615090E+02</rscale>
<asrwt>0</asrwt>
<pdfrwt beam="1">  1        2 0.12123341E+00 0.21615090E+02</pdfrwt>
<pdfrwt beam="2">  1       -2 0.10530682E-02 0.21615090E+02</pdfrwt>
<totfact> 0.50778017E+04</totfact>
</mgrwt>
</event>
<event>
 4    1  0.1429937E+004  0.3712508E+02  0.7546771E-02  0.1530500E+00
          2   -1    0    0  501    0  0.00000000000E+00  0.00000000000E+00  0.15887642180E+03  0.15887642180E+03  0.00000000000E+00 0.  1.
         -2   -1    0    0    0  501 -0.00000000000E+00 -0.00000000000E+00 -0.99547927043E+03  0.99547927043E+03  0.00000000000E+00 0. -1.
          2    1    1    2  502    0 -0.54289626542E+01 -0.36725984279E+02  0.15635600682E+03  0.16070305667E+03  0.00000000000E+00 0.  1.
         -2    1    1    2    0  502  0.54289626542E+01  0.36725984279E+02 -0.99295885544E+03  0.99365263556E+03  0.00000000000E+00 0. -1.
<mgrwt>
<rscale>  2 0.37125080E+02</rscale>
<asrwt>0</asrwt>
<pdfrwt beam="1">  1        2 0.24442526E-01 0.37125080E+02</pdfrwt>
<pdfrwt beam="2">  1       -2 0.15315066E+00 0.37125080E+02</pdfrwt>
<totfact> 0.69122164E+01</totfact>
</mgrwt>
</event>
<event>
 4    1  0.1429937E+004  0.2287368E+02  0.7546771E-02  0.1693566E+00
          2   -1    0    0  501    0  0.00000000000E+00  0.00000000000E+00  0.59564876551E+03  0.59564876551E+03  0.00000000000E+00 0.  1.
         -2   -1    0    0    0  501 -0.00000000000E+00 -0.00000000000E+00 -0.84727154785E+01  0.84727154785E+01  0.00000000000E+00 0. -1.
          2    1    1    2  502    0 -0.18410901220E+02 -0.13573655879E+02  0.57956290514E+03  0.58001410882E+03  0.00000000000E+00 0.  1.
         -2    1    1    2    0  502  0.18410901220E+02  0.13573655879E+02  0.76131448917E+01  0.24107372167E+02  0.00000000000E+00 0. -1.
<mgrwt>
<rscale>  2 0.22873684E+02</rscale>
<asrwt>0</asrwt>
<pdfrwt beam="1">  1        2 0.91638239E-01 0.22873684E+02</pdfrwt>
<pdfrwt beam="2">  1       -2 0.13034952E-02 0.22873684E+02</pdfrwt>
<totfact> 0.52001286E+04</totfact>
</mgrwt>
</event>
<event>
 4    1  0.1429937E+004  0.2431236E+02  0.7546771E-02  0.1671080E+00
         -2   -1    0    0    0  501 -0.00000000000E+00  0.00000000000E+00  0.34842174416E+01  0.34842174416E+01  0.00000000000E+00 0. -1.
          2   -1    0    0  501    0  0.00000000000E+00 -0.00000000000E+00 -0.32665647304E+03  0.32665647304E+03  0.00000000000E+00 0. -1.
          2    1    1    2  502    0 -0.19237399026E+02  0.14866512613E+02 -0.27602798357E+03  0.27709662292E+03  0.00000000000E+00 0. -1.
         -2    1    1    2    0  502  0.19237399026E+02 -0.14866512613E+02 -0.47144272020E+02  0.53044067556E+02  0.00000000000E+00 0. -1.
<mgrwt>
<rscale>  2 0.24312357E+02</rscale>
<asrwt>0</asrwt>
<pdfrwt beam="2">  1        2 0.50254841E-01 0.24312357E+02</pdfrwt>
<pdfrwt beam="1">  1       -2 0.53603347E-03 0.24312357E+02</pdfrwt>
<totfact> 0.31995090E+05</totfact>
</mgrwt>
</event>
<event>
 4    1  0.1429937E+004  0.1140191E+03  0.7546771E-02  0.1253303E+00
          2   -1    0    0  501    0  0.00000000000E+00  0.00000000000E+00  0.22775727731E+04  0.22775727731E+04  0.00000000000E+00 0. -1.
         -2   -1    0    0    0  501 -0.00000000000E+00 -0.00000000000E+00 -0.83534111632E+02  0.83534111632E+02  0.00000000000E+00 0.  1.
          2    1    1    2  502    0  0.11345915401E+03 -0.11286229972E+02  0.22365248206E+04  0.22394293094E+04  0.00000000000E+00 0. -1.
         -2    1    1    2    0  502 -0.11345915401E+03  0.11286229972E+02 -0.42486159152E+02  0.12167757532E+03  0.00000000000E+00 0.  1.
<mgrwt>
<rscale>  2 0.11401912E+03</rscale>
<asrwt>0</asrwt>
<pdfrwt beam="1">  1        2 0.35039576E+00 0.11401912E+03</pdfrwt>
<pdfrwt beam="2">  1       -2 0.12851403E-01 0.11401912E+03</pdfrwt>
<totfact> 0.24909264E+02</totfact>
</mgrwt>
</event>
<event>
 4    1  0.1429937E+004  0.2680918E+02  0.7546771E-02  0.1636298E+00
          2   -1    0    0  501    0  0.00000000000E+00  0.00000000000E+00  0.36114714449E+02  0.36114714449E+02  0.00000000000E+00 0. -1.
         -2   -1    0    0    0  501 -0.00000000000E+00 -0.00000000000E+00 -0.22424744583E+03  0.22424744583E+03  0.00000000000E+00 0. -1.
          2    1    1    2  502    0  0.30748188941E+01 -0.26632262939E+02  0.30203915082E+02  0.40385745341E+02  0.00000000000E+00 0. -1.
         -2    1    1    2    0  502 -0.30748188941E+01  0.26632262939E+02 -0.21833664646E+03  0.21997641494E+03  0.00000000000E+00 0. -1.
<mgrwt>
<rscale>  2 0.26809176E+02</rscale>
<asrwt>0</asrwt>
<pdfrwt beam="1">  1        2 0.55561098E-02 0.26809176E+02</pdfrwt>
<pdfrwt beam="2">  1       -2 0.34499607E-01 0.26809176E+02</pdfrwt>
<totfact> 0.83145502E+03</totfact>
</mgrwt>
</event>
