<event>
 5    1  0.3854342E+001  0.9145061E+02  0.7546771E-02  0.1299376E+00
         -4   -1    0    0    0  501 -0.00000000000E+00  0.00000000000E+00  0.37118439791E+03  0.37118439791E+03  0.00000000000E+00 0.  1.
          4   -1    0    0  501    0  0.00000000000E+00 -0.00000000000E+00 -0.56327898310E+01  0.56327898310E+01  0.00000000000E+00 0. -1.
         23    2    1    2    0    0  0.00000000000E+00  0.00000000000E+00  0.36555160808E+03  0.37681718775E+03  0.91450614038E+02 0.  0.
          2    1    3    3  502    0 -0.14008990796E+02 -0.42751243704E+02  0.21647364548E+03  0.22109898202E+03  0.00000000000E+00 0. -1.
         -2    1    3    3    0  502  0.14008990796E+02  0.42751243704E+02  0.14907796260E+03  0.15571820573E+03  0.00000000000E+00 0.  1.
<mgrwt>
<rscale>  0 0.91450614E+02</rscale>
<asrwt>0</asrwt>
<pdfrwt beam="2">  1        4 0.86658334E-03 0.91450614E+02</pdfrwt>
<pdfrwt beam="1">  1       -4 0.57105273E-01 0.91450614E+02</pdfrwt>
<totfact> 0.15583698E+04</totfact>
</mgrwt>
</event>
<event>
 5    1  0.3854342E+001  0.9026155E+02  0.7546771E-02  0.1302220E+00
         -1   -1    0    0    0  501 -0.00000000000E+00  0.00000000000E+00  0.21834097954E+03  0.21834097954E+03  0.00000000000E+00 0.  1.
          1   -1    0    0  501    0  0.00000000000E+00 -0.00000000000E+00 -0.93284685689E+01  0.93284685689E+01  0.00000000000E+00 0. -1.
         23    2    1    2    0    0  0.00000000000E+00  0.00000000000E+00  0.20901251097E+03  0.22766944811E+03  0.90261552501E+02 0.  0.
          2    1    3    3  502    0  0.91837681772E+01 -0.43749655719E+02  0.12013920843E+03  0.12818659593E+03  0.00000000000E+00 0. -1.
         -2    1    3    3    0  502 -0.91837681772E+01  0.43749655719E+02  0.88873302543E+02  0.99482852183E+02  0.00000000000E+00 0.  1.
<mgrwt>
<rscale>  0 0.90261553E+02</rscale>
<asrwt>0</asrwt>
<pdfrwt beam="2">  1        1 0.14351492E-02 0.90261553E+02</pdfrwt>
<pdfrwt beam="1">  1       -1 0.33590916E-01 0.90261553E+02</pdfrwt>
<totfact> 0.69449809E+04</totfact>
</mgrwt>
</event>
<event>
 5    1  0.3854342E+001  0.9006575E+02  0.7546771E-02  0.1302693E+00
          2   -1    0    0  501    0  0.00000000000E+00  0.00000000000E+00  0.11641488254E+04  0.11641488254E+04  0.00000000000E+00 0. -1.
         -2   -1    0    0    0  501 -0.00000000000E+00 -0.00000000000E+00 -0.17420106996E+01  0.17420106996E+01  0.00000000000E+00 0.  1.
         23    2    1    2    0    0  0.00000000000E+00  0.00000000000E+00  0.11624068147E+04  0.11658908361E+04  0.90065747315E+02 0.  0.
          2    1    3    3  502    0 -0.16215237833E+02  0.29781592465E+02  0.96479218979E+03  0.96538792548E+03  0.00000000000E+00 0. -1.
         -2    1    3    3    0  502  0.16215237833E+02 -0.29781592465E+02  0.19761462496E+03  0.20050291067E+03  0.00000000000E+00 0.  1.
<mgrwt>
<rscale>  0 0.90065747E+02</rscale>
<asrwt>0</asrwt>
<pdfrwt beam="1">  1        2 0.17909920E+00 0.90065747E+02</pdfrwt>
<pdfrwt beam="2">  1       -2 0.26800258E-03 0.90065747E+02</pdfrwt>
<totfact> 0.25758248E+05</totfact>
</mgrwt>
</event>
<event>
 5    1  0.3854342E+001  0.9785922E+02  0.7546771E-02  0.1284863E+00
         -2   -1    0    0    0  501 -0.00000000000E+00  0.00000000000E+00  0.18402007928E+01  0.18402007928E+01  0.00000000000E+00 0.  1.
          2   -1    0    0  501    0  0.00000000000E+00 -0.00000000000E+00 -0.13010031064E+04  0.13010031064E+04  0.00000000000E+00 0. -1.
         23    2    1    2    0    0  0.00000000000E+00  0.00000000000E+00 -0.12991629056E+04  0.13028433072E+04  0.97859224355E+02 0.  0.
          2    1    3    3  502    0  0.23792657302E+02 -0.30667004681E+02 -0.10462128888E+04  0.10469326456E+04  0.00000000000E+00 0. -1.
         -2    1    3    3    0  502 -0.23792657302E+02  0.30667004681E+02 -0.25295001681E+03  0.25591066160E+03  0.00000000000E+00 0.  1.
<mgrwt>
<rscale>  0 0.97859224E+02</rscale>
<asrwt>0</asrwt>
<pdfrwt beam="2">  1        2 0.20015393E+00 0.97859224E+02</pdfrwt>
<pdfrwt beam="1">  1       -2 0.28310837E-03 0.97859224E+02</pdfrwt>
<totfact> 0.20378522E+05</totfact>
</mgrwt>
</event>
<event>
 5    1  0.3854342E+001  0.9336576E+02  0.7546771E-02  0.1294900E+00
         -3   -1    0    0    0  501 -0.00000000000E+00  0.00000000000E+00  0.13266011501E+04  0.13266011501E+04  0.00000000000E+00 0.  1.
          3   -1    0    0  501    0  0.00000000000E+00 -0.00000000000E+00 -0.16427630991E+01  0.16427630991E+01  0.00000000000E+00 0. -1.
         23    2    1    2    0    0  0.00000000000E+00  0.00000000000E+00  0.13249583870E+04  0.13282439132E+04  0.93365762816E+02 0.  0.
          2    1    3    3  502    0  0.16306296098E+02 -0.43742371751E+02  0.66202092381E+03  0.66366482048E+03  0.00000000000E+00 0. -1.
         -2    1    3    3    0  502 -0.16306296098E+02  0.43742371751E+02  0.66293746315E+03  0.66457909268E+03  0.00000000000E+00 0.  1.
<mgrwt>
<rscale>  0 0.93365763E+02</rscale>
<asrwt>0</asrwt>
<pdfrwt beam="2">  1        3 0.25273384E-03 0.93365763E+02</pdfrwt>
<pdfrwt beam="1">  1       -3 0.20409163E+00 0.93365763E+02</pdfrwt>
<totfact> 0.67398247E+03</totfact>
</mgrwt>
</event>
<event>
 5    1  0.3854342E+001  0.9692815E+02  0.7546771E-02  0.1286892E+00
          3   -1    0    0  501    0  0.00000000000E+00  0.00000000000E+00  0.39468526443E+02  0.39468526443E+02  0.00000000000E+00 0. -1.
         -3   -1    0    0    0  501 -0.00000000000E+00 -0.00000000000E+00 -0.59509856412E+02  0.59509856412E+02  0.00000000000E+00 0.  1.
         23    2    1    2    0    0  0.00000000000E+00  0.00000000000E+00 -0.20041329969E+02  0.98978382855E+02  0.96928145374E+02 0.  0.
          2    1    3    3  502    0 -0.40871507372E+01 -0.47930478463E+02 -0.40027273150E+01  0.48270668038E+02  0.00000000000E+00 0. -1.
         -2    1    3    3    0  502  0.40871507372E+01  0.47930478463E+02 -0.16038602654E+02  0.50707714817E+02  0.00000000000E+00 0.  1.
<mgrwt>
<rscale>  0 0.96928145E+02</rscale>
<asrwt>0</asrwt>
<pdfrwt beam="1">  1        3 0.60720810E-02 0.96928145E+02</pdfrwt>
<pdfrwt beam="2">  1       -3 0.91553625E-02 0.96928145E+02</pdfrwt>
<totfact> 0.29394617E+04</totfact>
</mgrwt>
</event>
<event>
 5    1  0.3854342E+001  0.8606493E+02  0.7546771E-02  0.1312671E+00
         -2   -1    0    0    0  501 -0.00000000000E+00  0.00000000000E+00  0.80259840058E+00  0.80259840058E+00  0.00000000000E+00 0.  1.
          2   -1    0    0  501    0  0.00000000000E+00 -0.00000000000E+00 -0.23072475846E+04  0.23072475846E+04  0.00000000000E+00 0. -1.
         23    2    1    2    0    0  0.00000000000E+00  0.00000000000E+00 -0.23064449862E+04  0.23080501830E+04  0.86064934117E+02 0.  0.
          2    1    3    3  502    0  0.62119098253E+01 -0.37901960002E+02 -0.16736810610E+04  0.16741216922E+04  0.00000000000E+00 0. -1.
         -2    1    3    3    0  502 -0.62119098253E+01  0.37901960002E+02 -0.63276392528E+03  0.63392849087E+03  0.00000000000E+00 0.  1.
<mgrwt>
<rscale>  0 0.86064934E+02</rscale>
<asrwt>0</asrwt>
<pdfrwt beam="2">  1        2 0.35495914E+00 0.86064934E+02</pdfrwt>
<pdfrwt beam="1">  1       -2 0.12347738E-03 0.86064934E+02</pdfrwt>
<totfact> 0.19504541E+05</totfact>
</mgrwt>
</event>
<event>
 5    1  0.3854342E+001  0.9123956E+02  0.7546771E-02  0.1299877E+00
         -2   -1    0    0    0  501 -0.00000000000E+00  0.00000000000E+00  0.23999562192E+01  0.23999562192E+01  0.00000000000E+00 0.  1.
          2   -1    0    0  501    0  0.00000000000E+00 -0.00000000000E+00 -0.86716768553E+03  0.86716768553E+03  0.00000000000E+00 0. -1.
         23    2    1    2    0    0  0.00000000000E+00  0.00000000000E+00 -0.86476772931E+03  0.86956764175E+03  0.91239563348E+02 0.  0.
          2    1    3    3  502    0 -0.16155816121E+02  0.19535886198E+02 -0.79385664025E+03  0.79426130871E+03  0.00000000000E+00 0. -1.
         -2    1    3    3    0  502  0.16155816121E+02 -0.19535886198E+02 -0.70911089063E+02  0.75306333042E+02  0.00000000000E+00 0.  1.
<mgrwt>
<rscale>  0 0.91239563E+02</rscale>
<asrwt>0</asrwt>
<pdfrwt beam="2">  1        2 0.13341020E+00 0.91239563E+02</pdfrwt>
<pdfrwt beam="1">  1       -2 0.36922461E-03 0.91239563E+02</pdfrwt>
<totfact> 0.24636206E+05</totfact>
</mgrwt>
</event>
<event>
 5    1  0.3854342E+001  0.9122098E+02  0.7546771E-02  0.1299922E+00
          2   -1    0    0  501    0  0.00000000000E+00  0.00000000000E+00  0.17491906037E+03  0.17491906037E+03  0.00000000000E+00 0.  1.
         -2   -1    0    0    0  501 -0.00000000000E+00 -0.00000000000E+00 -0.11893025970E+02  0.11893025970E+02  0.00000000000E+00 0. -1.
         23    2    1    2    0    0  0.00000000000E+00  0.00000000000E+00  0.16302603440E+03  0.18681208634E+03  0.91220982839E+02 0.  0.
          2    1    3    3  502    0 -0.35541340284E+02 -0.24067604396E+02  0.49927381364E+02  0.65842082746E+02  0.00000000000E+00 0. -1.
         -2    1    3    3    0  502  0.35541340284E+02  0.24067604396E+02  0.11309865303E+03  0.12097000359E+03  0.00000000000E+00 0.  1.
<mgrwt>
<rscale>  0 0.91220983E+02</rscale>
<asrwt>0</asrwt>
<pdfrwt beam="1">  1        2 0.26910623E-01 0.91220983E+02</pdfrwt>
<pdfrwt beam="2">  1       -2 0.18296964E-02 0.91220983E+02</pdfrwt>
<totfact> 0.14725320E+05</totfact>
</mgrwt>
</event>
<event>
 5    1  0.3854342E+001  0.9113361E+02  0.7546771E-02  0.1300129E+00
         -2   -1    0    0    0  501 -0.00000000000E+00  0.00000000000E+00  0.24101410516E+01  0.24101410516E+01  0.00000000000E+00 0.  1.
          2   -1    0    0  501    0  0.00000000000E+00 -0.00000000000E+00 -0.86149875804E+03  0.86149875804E+03  0.00000000000E+00 0. -1.
         23    2    1    2    0    0  0.00000000000E+00  0.00000000000E+00 -0.85908861699E+03  0.86390889909E+03  0.91133605714E+02 0.  0.
          2    1    3    3  502    0 -0.33770884785E+02 -0.26236242225E+02 -0.57868458488E+03  0.58026258008E+03  0.00000000000E+00 0. -1.
         -2    1    3    3    0  502  0.33770884785E+02  0.26236242225E+02 -0.28040403212E+03  0.28364631902E+03  0.00000000000E+00 0.  1.
<mgrwt>
<rscale>  0 0.91133606E+02</rscale>
<asrwt>0</asrwt>
<pdfrwt beam="2">  1        2 0.13253836E+00 0.91133606E+02</pdfrwt>
<pdfrwt beam="1">  1       -2 0.37079067E-03 0.91133606E+02</pdfrwt>
<totfact> 0.24689779E+05</totfact>
</mgrwt>
</event>
<event>
 5    1  0.3854342E+001  0.9196665E+02  0.7546771E-02  0.1298158E+00
          2   -1    0    0  501    0  0.00000000000E+00  0.00000000000E+00  0.79430962187E+02  0.79430962187E+02  0.00000000000E+00 0. -1.
         -2   -1    0    0    0  501 -0.00000000000E+00 -0.00000000000E+00 -0.26620177270E+02  0.26620177270E+02  0.00000000000E+00 0.  1.
         23    2    1    2    0    0  0.00000000000E+00  0.00000000000E+00  0.52810784917E+02  0.10605113946E+03  0.91966652525E+02 0.  0.
          2    1    3    3  502    0  0.66397449539E-01  0.43565145789E+02  0.94364809776E+01  0.44575481035E+02  0.00000000000E+00 0. -1.
         -2    1    3    3    0  502 -0.66397449539E-01 -0.43565145789E+02  0.43374303939E+02  0.61475658422E+02  0.00000000000E+00 0.  1.
<mgrwt>
<rscale>  0 0.91966653E+02</rscale>
<asrwt>0</asrwt>
<pdfrwt beam="1">  1        2 0.12220148E-01 0.91966653E+02</pdfrwt>
<pdfrwt beam="2">  1       -2 0.40954119E-02 0.91966653E+02</pdfrwt>
<totfact> 0.11190140E+05</totfact>
</mgrwt>
</event>
<event>
 5    1  0.3854342E+001  0.9195193E+02  0.7546771E-02  0.1298193E+00
         -1   -1    0    0    0  501 -0.00000000000E+00  0.00000000000E+00  0.86377765156E+02  0.86377765156E+02  0.00000000000E+00 0.  1.
          1   -1    0    0  501    0  0.00000000000E+00 -0.00000000000E+00 -0.24471449791E+02  0.24471449791E+02  0.00000000000E+00 0. -1.
         23    2    1    2    0    0  0.00000000000E+00  0.00000000000E+00  0.61906315365E+02  0.11084921495E+03  0.91951925332E+02 0.  0.
          2    1    3    3  502    0 -0.23691572317E+01 -0.45473786630E+02  0.23299246810E+02  0.51150103406E+02  0.00000000000E+00 0. -1.
         -2    1    3    3    0  502  0.23691572317E+01  0.45473786630E+02  0.38607068555E+02  0.59699111542E+02  0.00000000000E+00 0.  1.
<mgrwt>
<rscale>  0 0.91951925E+02</rscale>
<asrwt>0</asrwt>
<pdfrwt beam="2">  1        1 0.37648385E-02 0.91951925E+02</pdfrwt>
<pdfrwt beam="1">  1       -1 0.13288887E-01 0.91951925E+02</pdfrwt>
<totfact> 0.81746695E+04</totfact>
</mgrwt>
</event>
<event>
 5    1  0.3854342E+001  0.9226966E+02  0.7546771E-02  0.1297447E+00
         -1   -1    0    0    0  501 -0.00000000000E+00  0.00000000000E+00  0.11264719505E+03  0.11264719505E+03  0.00000000000E+00 0.  1.
          1   -1    0    0  501    0  0.00000000000E+00 -0.00000000000E+00 -0.18894588228E+02  0.18894588228E+02  0.00000000000E+00 0. -1.
         23    2    1    2    0    0  0.00000000000E+00  0.00000000000E+00  0.93752606822E+02  0.13154178328E+03  0.92269656237E+02 0.  0.
          2    1    3    3  502    0 -0.11800000321E+02 -0.38967640794E+02  0.15946341863E+02  0.43726454869E+02  0.00000000000E+00 0. -1.
         -2    1    3    3    0  502  0.11800000321E+02  0.38967640794E+02  0.77806264960E+02  0.87815328409E+02  0.00000000000E+00 0.  1.
<mgrwt>
<rscale>  0 0.92269656E+02</rscale>
<asrwt>0</asrwt>
<pdfrwt beam="2">  1        1 0.29068598E-02 0.92269656E+02</pdfrwt>
<pdfrwt beam="1">  1       -1 0.17330337E-01 0.92269656E+02</pdfrwt>
<totfact> 0.77122952E+04</totfact>
</mgrwt>
</event>
<event>
 5    1  0.3854342E+001  0.9052396E+02  0.7546771E-02  0.1301588E+00
          1   -1    0    0  501    0  0.00000000000E+00  0.00000000000E+00  0.20035150434E+03  0.20035150434E+03  0.00000000000E+00 0. -1.
         -1   -1    0    0    0  501 -0.00000000000E+00 -0.00000000000E+00 -0.10225262763E+02  0.10225262763E+02  0.00000000000E+00 0.  1.
         23    2    1    2    0    0  0.00000000000E+00  0.00000000000E+00  0.19012624158E+03  0.21057676710E+03  0.90523958745E+02 0.  0.
          2    1    3    3  502    0 -0.35345904054E+02 -0.85372268639E+01  0.15775967636E+03  0.16189605511E+03  0.00000000000E+00 0. -1.
         -2    1    3    3    0  502  0.35345904054E+02  0.85372268639E+01  0.32366565220E+02  0.48680711992E+02  0.00000000000E+00 0.  1.
<mgrwt>
<rscale>  0 0.90523959E+02</rscale>
<asrwt>0</asrwt>
<pdfrwt beam="1">  1        1 0.30823305E-01 0.90523959E+02</pdfrwt>
<pdfrwt beam="2">  1       -1 0.15731175E-02 0.90523959E+02</pdfrwt>
<totfact> 0.12074925E+05</totfact>
</mgrwt>
</event>
<event>
 5    1  0.3854342E+001  0.9163589E+02  0.7546771E-02  0.1298938E+00
          2   -1    0    0  501    0  0.00000000000E+00  0.00000000000E+00  0.12064862727E+04  0.12064862727E+04  0.00000000000E+00 0. -1.
         -2   -1    0    0    0  501 -0.00000000000E+00 -0.00000000000E+00 -0.17399981350E+01  0.17399981350E+01  0.00000000000E+00 0.  1.
         23    2    1    2    0    0  0.00000000000E+00  0.00000000000E+00  0.12047462745E+04  0.12082262708E+04  0.91635885206E+02 0.  0.
          2    1    3    3  502    0 -0.16849066907E+02 -0.36584912741E+02  0.89032055516E+03  0.89123119213E+03  0.00000000000E+00 0. -1.
         -2    1    3    3    0  502  0.16849066907E+02  0.36584912741E+02  0.31442571939E+03  0.31699507868E+03  0.00000000000E+00 0.  1.
<mgrwt>
<rscale>  0 0.91635885E+02</rscale>
<asrwt>0</asrwt>
<pdfrwt beam="1">  1        2 0.18561260E+00 0.91635885E+02</pdfrwt>
<pdfrwt beam="2">  1       -2 0.26769298E-03 0.91635885E+02</pdfrwt>
<totfact> 0.24526869E+05</totfact>
</mgrwt>
</event>
<event>
 5    1  0.3854342E+001  0.9080916E+02  0.7546771E-02  0.1300904E+00
          2   -1    0    0  501    0  0.00000000000E+00  0.00000000000E+00  0.73320387589E+03  0.73320387589E+03  0.00000000000E+00 0. -1.
         -2   -1    0    0    0  501 -0.00000000000E+00 -0.00000000000E+00 -0.28117361230E+01  0.28117361230E+01  0.00000000000E+00 0.  1.
         23    2    1    2    0    0  0.00000000000E+00  0.00000000000E+00  0.73039213976E+03  0.73601561201E+03  0.90809158643E+02 0.  0.
          2    1    3    3  502    0  0.22068931870E+02  0.76565284826E+00  0.68674946179E+03  0.68710439327E+03  0.00000000000E+00 0. -1.
         -2    1    3    3    0  502 -0.22068931870E+02 -0.76565284826E+00  0.43642677974E+02  0.48911218743E+02  0.00000000000E+00 0.  1.
<mgrwt>
<rscale>  0 0.90809159E+02</rscale>
<asrwt>0</asrwt>
<pdfrwt beam="1">  1        2 0.11280044E+00 0.90809159E+02</pdfrwt>
<pdfrwt beam="2">  1       -2 0.43257537E-03 0.90809159E+02</pdfrwt>
<totfact> 0.24218255E+05</totfact>
</mgrwt>
</event>
<event>
 5    1  0.3854342E+001  0.9036795E+02  0.7546771E-02  0.1301963E+00
          1   -1    0    0  501    0  0.00000000000E+00  0.00000000000E+00  0.36367353237E+03  0.36367353237E+03  0.00000000000E+00 0. -1.
         -1   -1    0    0    0  501 -0.00000000000E+00 -0.00000000000E+00 -0.56138025355E+01  0.56138025355E+01  0.00000000000E+00 0.  1.
         23    2    1    2    0    0  0.00000000000E+00  0.00000000000E+00  0.35805972984E+03  0.36928733491E+03  0.90367945603E+02 0.  0.
          2    1    3    3  502    0  0.34914831911E+02  0.37091970927E+01  0.29524623090E+03  0.29732665621E+03  0.00000000000E+00 0. -1.
         -2    1    3    3    0  502 -0.34914831911E+02 -0.37091970927E+01  0.62813498940E+02  0.71960678704E+02  0.00000000000E+00 0.  1.
<mgrwt>
<rscale>  0 0.90367946E+02</rscale>
<asrwt>0</asrwt>
<pdfrwt beam="1">  1        1 0.55949756E-01 0.90367946E+02</pdfrwt>
<pdfrwt beam="2">  1       -1 0.86366221E-03 0.90367946E+02</pdfrwt>
<totfact> 0.13590625E+05</totfact>
</mgrwt>
</event>
<event>
 5    1  0.3854342E+001  0.9159453E+02  0.7546771E-02  0.1299036E+00
         -1   -1    0    0    0  501 -0.00000000000E+00  0.00000000000E+00  0.11046136665E+03  0.11046136665E+03  0.00000000000E+00 0.  1.
          1   -1    0    0  501    0  0.00000000000E+00 -0.00000000000E+00 -0.18987539914E+02  0.18987539914E+02  0.00000000000E+00 0. -1.
         23    2    1    2    0    0  0.00000000000E+00  0.00000000000E+00  0.91473826735E+02  0.12944890656E+03  0.91594532767E+02 0.  0.
          2    1    3    3  502    0  0.34786307679E+02  0.72628669924E+01  0.49091263910E+01  0.35873889680E+02  0.00000000000E+00 0. -1.
         -2    1    3    3    0  502 -0.34786307679E+02 -0.72628669924E+01  0.86564700344E+02  0.93575016883E+02  0.00000000000E+00 0.  1.
<mgrwt>
<rscale>  0 0.91594533E+02</rscale>
<asrwt>0</asrwt>
<pdfrwt beam="2">  1        1 0.29211601E-02 0.91594533E+02</pdfrwt>
<pdfrwt beam="1">  1       -1 0.16994056E-01 0.91594533E+02</pdfrwt>
<totfact> 0.78904769E+04</totfact>
</mgrwt>
</event>
<event>
 5    1  0.3854342E+001  0.9223923E+02  0.7546771E-02  0.1297518E+00
         -2   -1    0    0    0  501 -0.00000000000E+00  0.00000000000E+00  0.61047479282E+01  0.61047479282E+01  0.00000000000E+00 0.  1.
          2   -1    0    0  501    0  0.00000000000E+00 -0.00000000000E+00 -0.34842040749E+03  0.34842040749E+03  0.00000000000E+00 0. -1.
         23    2    1    2    0    0  0.00000000000E+00  0.00000000000E+00 -0.34231565956E+03  0.35452515542E+03  0.92239227246E+02 0.  0.
          2    1    3    3  502    0 -0.30087244286E+02  0.22797257983E+02 -0.27299796923E+03  0.27559544344E+03  0.00000000000E+00 0. -1.
         -2    1    3    3    0  502  0.30087244286E+02 -0.22797257983E+02 -0.69317690330E+02  0.78929711978E+02  0.00000000000E+00 0.  1.
<mgrwt>
<rscale>  0 0.92239227E+02</rscale>
<asrwt>0</asrwt>
<pdfrwt beam="2">  1        2 0.53603141E-01 0.92239227E+02</pdfrwt>
<pdfrwt beam="1">  1       -2 0.93919196E-03 0.92239227E+02</pdfrwt>
<totfact> 0.18411168E+05</totfact>
</mgrwt>
</event>
<event>
 5    1  0.3854342E+001  0.9139367E+02  0.7546771E-02  0.1299511E+00
          4   -1    0    0  501    0  0.00000000000E+00  0.00000000000E+00  0.17170035142E+04  0.17170035142E+04  0.00000000000E+00 0. -1.
         -4   -1    0    0    0  501 -0.00000000000E+00 -0.00000000000E+00 -0.12161889938E+01  0.12161889938E+01  0.00000000000E+00 0.  1.
         23    2    1    2    0    0  0.00000000000E+00  0.00000000000E+00  0.17157873252E+04  0.17182197031E+04  0.91393671034E+02 0.  0.
          2    1    3    3  502    0  0.39954322352E+01 -0.44706221609E+02  0.69661568688E+03  0.69806018718E+03  0.00000000000E+00 0.  1.
         -2    1    3    3    0  502 -0.39954322352E+01  0.44706221609E+02  0.10191716383E+04  0.10201595160E+04  0.00000000000E+00 0. -1.
<mgrwt>
<rscale>  0 0.91393671E+02</rscale>
<asrwt>0</asrwt>
<pdfrwt beam="1">  1        4 0.26415245E+00 0.91393671E+02</pdfrwt>
<pdfrwt beam="2">  1       -4 0.18710737E-03 0.91393671E+02</pdfrwt>
<totfact> 0.32526381E+03</totfact>
</mgrwt>
</event>
<event>
 5    1  0.3854342E+001  0.9091501E+02  0.7546771E-02  0.1300651E+00
          2   -1    0    0  501    0  0.00000000000E+00  0.00000000000E+00  0.62708111181E+01  0.62708111181E+01  0.00000000000E+00 0. -1.
         -2   -1    0    0    0  501 -0.00000000000E+00 -0.00000000000E+00 -0.32952429100E+03  0.32952429100E+03  0.00000000000E+00 0.  1.
         23    2    1    2    0    0  0.00000000000E+00  0.00000000000E+00 -0.32325347989E+03  0.33579510212E+03  0.90915006192E+02 0.  0.
          2    1    3    3  502    0  0.21261276966E+01 -0.37847386605E+02 -0.68961729326E+02  0.78693488952E+02  0.00000000000E+00 0. -1.
         -2    1    3    3    0  502 -0.21261276966E+01  0.37847386605E+02 -0.25429175056E+03  0.25710161317E+03  0.00000000000E+00 0.  1.
<mgrwt>
<rscale>  0 0.90915006E+02</rscale>
<asrwt>0</asrwt>
<pdfrwt beam="1">  1        2 0.96474026E-03 0.90915006E+02</pdfrwt>
<pdfrwt beam="2">  1       -2 0.50696040E-01 0.90915006E+02</pdfrwt>
<totfact> 0.48658843E+04</totfact>
</mgrwt>
</event>
<event>
 5    1  0.3854342E+001  0.9333576E+02  0.7546771E-02  0.1294969E+00
         -3   -1    0    0    0  501 -0.00000000000E+00  0.00000000000E+00  0.26364230152E+02  0.26364230152E+02  0.00000000000E+00 0.  1.
          3   -1    0    0  501    0  0.00000000000E+00 -0.00000000000E+00 -0.82607803535E+02  0.82607803535E+02  0.00000000000E+00 0. -1.
         23    2    1    2    0    0  0.00000000000E+00  0.00000000000E+00 -0.56243573383E+02  0.10897203369E+03  0.93335762594E+02 0.  0.
          2    1    3    3  502    0 -0.30168305775E+02 -0.66362679306E+00 -0.69685162844E+02  0.75938060250E+02  0.00000000000E+00 0. -1.
         -2    1    3    3    0  502  0.30168305775E+02  0.66362679306E+00  0.13441589461E+02  0.33033973438E+02  0.00000000000E+00 0.  1.
<mgrwt>
<rscale>  0 0.93335763E+02</rscale>
<asrwt>0</asrwt>
<pdfrwt beam="2">  1        3 0.12708893E-01 0.93335763E+02</pdfrwt>
<pdfrwt beam="1">  1       -3 0.40560354E-02 0.93335763E+02</pdfrwt>
<totfact> 0.31915283E+04</totfact>
</mgrwt>
</event>
<event>
 5    1  0.3854342E+001  0.9191268E+02  0.7546771E-02  0.1298285E+00
          3   -1    0    0  501    0  0.00000000000E+00  0.00000000000E+00  0.39876266626E+03  0.39876266626E+03  0.00000000000E+00 0. -1.
         -3   -1    0    0    0  501 -0.00000000000E+00 -0.00000000000E+00 -0.52963463240E+01  0.52963463240E+01  0.00000000000E+00 0.  1.
         23    2    1    2    0    0  0.00000000000E+00  0.00000000000E+00  0.39346631993E+03  0.40405901258E+03  0.91912679899E+02 0.  0.
          2    1    3    3  502    0 -0.18570498390E+02  0.42037135133E+02  0.19687499619E+03  0.20216762418E+03  0.00000000000E+00 0. -1.
         -2    1    3    3    0  502  0.18570498390E+02 -0.42037135133E+02  0.19659132374E+03  0.20189138840E+03  0.00000000000E+00 0.  1.
<mgrwt>
<rscale>  0 0.91912680E+02</rscale>
<asrwt>0</asrwt>
<pdfrwt beam="1">  1        3 0.61348079E-01 0.91912680E+02</pdfrwt>
<pdfrwt beam="2">  1       -3 0.81482283E-03 0.91912680E+02</pdfrwt>
<totfact> 0.20056268E+04</totfact>
</mgrwt>
</event>
<event>
 5    1  0.3854342E+001  0.9284455E+02  0.7546771E-02  0.1296106E+00
         -2   -1    0    0    0  501 -0.00000000000E+00  0.00000000000E+00  0.11490796785E+02  0.11490796785E+02  0.00000000000E+00 0.  1.
          2   -1    0    0  501    0  0.00000000000E+00 -0.00000000000E+00 -0.18754378820E+03  0.18754378820E+03  0.00000000000E+00 0. -1.
         23    2    1    2    0    0  0.00000000000E+00  0.00000000000E+00 -0.17605299142E+03  0.19903458499E+03  0.92844548758E+02 0.  0.
          2    1    3    3  502    0  0.26607712229E+02  0.54116086488E+01 -0.16874540584E+03  0.17091596722E+03  0.00000000000E+00 0. -1.
         -2    1    3    3    0  502 -0.26607712229E+02 -0.54116086488E+01 -0.73075855780E+01  0.28118617769E+02  0.00000000000E+00 0.  1.
<mgrwt>
<rscale>  0 0.92844549E+02</rscale>
<asrwt>0</asrwt>
<pdfrwt beam="2">  1        2 0.28852889E-01 0.92844549E+02</pdfrwt>
<pdfrwt beam="1">  1       -2 0.17678150E-02 0.92844549E+02</pdfrwt>
<totfact> 0.14391879E+05</totfact>
</mgrwt>
</event>
<event>
 5    1  0.3854342E+001  0.9182892E+02  0.7546771E-02  0.1298482E+00
          2   -1    0    0  501    0  0.00000000000E+00  0.00000000000E+00  0.62346048308E+03  0.62346048308E+03  0.00000000000E+00 0. -1.
         -2   -1    0    0    0  501 -0.00000000000E+00 -0.00000000000E+00 -0.33813491729E+01  0.33813491729E+01  0.00000000000E+00 0.  1.
         23    2    1    2    0    0  0.00000000000E+00  0.00000000000E+00  0.62007913391E+03  0.62684183225E+03  0.91828918948E+02 0.  0.
          2    1    3    3  502    0 -0.40108651095E+02  0.11391012536E+02  0.44128693823E+03  0.44325232194E+03  0.00000000000E+00 0. -1.
         -2    1    3    3    0  502  0.40108651095E+02 -0.11391012536E+02  0.17879219568E+03  0.18358951031E+03  0.00000000000E+00 0.  1.
<mgrwt>
<rscale>  0 0.91828919E+02</rscale>
<asrwt>0</asrwt>
<pdfrwt beam="1">  1        2 0.95916906E-01 0.91828919E+02</pdfrwt>
<pdfrwt beam="2">  1       -2 0.52020806E-03 0.91828919E+02</pdfrwt>
<totfact> 0.22599524E+05</totfact>
</mgrwt>
</event>
<event>
 5    1  0.3854342E+001  0.8622894E+02  0.7546771E-02  0.1312250E+00
         -2   -1    0    0    0  501 -0.00000000000E+00  0.00000000000E+00  0.18570287010E+01  0.18570287010E+01  0.00000000000E+00 0.  1.
          2   -1    0    0  501    0  0.00000000000E+00 -0.00000000000E+00 -0.10009847816E+04  0.10009847816E+04  0.00000000000E+00 0. -1.
         23    2    1    2    0    0  0.00000000000E+00  0.00000000000E+00 -0.99912775294E+03  0.10028418103E+04  0.86228938734E+02 0.  0.
          2    1    3    3  502    0 -0.74300134626E+01  0.22247434229E+02 -0.92029061389E+03  0.92058946737E+03  0.00000000000E+00 0. -1.
         -2    1    3    3    0  502  0.74300134626E+01 -0.22247434229E+02 -0.78837139057E+02  0.82252342973E+02  0.00000000000E+00 0.  1.
<mgrwt>
<rscale>  0 0.86228939E+02</rscale>
<asrwt>0</asrwt>
<pdfrwt beam="2">  1        2 0.15399744E+00 0.86228939E+02</pdfrwt>
<pdfrwt beam="1">  1       -2 0.28569713E-03 0.86228939E+02</pdfrwt>
<totfact> 0.28947119E+05</totfact>
</mgrwt>
</event>
<event>
 5    1  0.3854342E+001  0.9127619E+02  0.7546771E-02  0.1299790E+00
          1   -1    0    0  501    0  0.00000000000E+00  0.00000000000E+00  0.15116138416E+04  0.15116138416E+04  0.00000000000E+00 0. -1.
         -1   -1    0    0    0  501 -0.00000000000E+00 -0.00000000000E+00 -0.13778886856E+01  0.13778886856E+01  0.00000000000E+00 0.  1.
         23    2    1    2    0    0  0.00000000000E+00  0.00000000000E+00  0.15102359529E+04  0.15129917303E+04  0.91276187678E+02 0.  0.
          2    1    3    3  502    0 -0.14890690742E+02  0.25536626932E+02  0.17876403081E+03  0.18119169600E+03  0.00000000000E+00 0.  1.
         -2    1    3    3    0  502  0.14890690742E+02 -0.25536626932E+02  0.13314719221E+04  0.13318000343E+04  0.00000000000E+00 0. -1.
<mgrwt>
<rscale>  0 0.91276188E+02</rscale>
<asrwt>0</asrwt>
<pdfrwt beam="1">  1        1 0.23255465E+00 0.91276188E+02</pdfrwt>
<pdfrwt beam="2">  1       -1 0.21198408E-03 0.91276188E+02</pdfrwt>
<totfact> 0.10949269E+05</totfact>
</mgrwt>
</event>
<event>
 5    1  0.3854342E+001  0.9079561E+02  0.7546771E-02  0.1300936E+00
          1   -1    0    0  501    0  0.00000000000E+00  0.00000000000E+00  0.26089228278E+04  0.26089228278E+04  0.00000000000E+00 0. -1.
         -1   -1    0    0    0  501 -0.00000000000E+00 -0.00000000000E+00 -0.78996619372E+00  0.78996619372E+00  0.00000000000E+00 0.  1.
         23    2    1    2    0    0  0.00000000000E+00  0.00000000000E+00  0.26081328616E+04  0.26097127940E+04  0.90795613022E+02 0.  0.
          2    1    3    3  502    0  0.32725207628E+00  0.36686634506E+02  0.20726021231E+04  0.20729268142E+04  0.00000000000E+00 0. -1.
         -2    1    3    3    0  502 -0.32725207628E+00 -0.36686634506E+02  0.53553073849E+03  0.53678597980E+03  0.00000000000E+00 0.  1.
<mgrwt>
<rscale>  0 0.90795613E+02</rscale>
<asrwt>0</asrwt>
<pdfrwt beam="1">  1        1 0.40136584E+00 0.90795613E+02</pdfrwt>
<pdfrwt beam="2">  1       -1 0.12153535E-03 0.90795613E+02</pdfrwt>
<totfact> 0.47695820E+04</totfact>
</mgrwt>
</event>
<event>
 5    1  0.3854342E+001  0.8573213E+02  0.7546771E-02  0.1313529E+00
          1   -1    0    0  501    0  0.00000000000E+00  0.00000000000E+00  0.96199035040E+03  0.96199035040E+03  0.00000000000E+00 0. -1.
         -1   -1    0    0    0  501 -0.00000000000E+00 -0.00000000000E+00 -0.19101017604E+01  0.19101017604E+01  0.00000000000E+00 0.  1.
         23    2    1    2    0    0  0.00000000000E+00  0.00000000000E+00  0.96008024864E+03  0.96390045216E+03  0.85732128441E+02 0.  0.
          2    1    3    3  502    0  0.32057980945E+02 -0.12142650850E+02  0.76939413903E+03  0.77015745097E+03  0.00000000000E+00 0. -1.
         -2    1    3    3    0  502 -0.32057980945E+02  0.12142650850E+02  0.19068610961E+03  0.19374300119E+03  0.00000000000E+00 0.  1.
<mgrwt>
<rscale>  0 0.85732128E+02</rscale>
<asrwt>0</asrwt>
<pdfrwt beam="1">  1        1 0.14799813E+00 0.85732128E+02</pdfrwt>
<pdfrwt beam="2">  1       -1 0.29386258E-03 0.85732128E+02</pdfrwt>
<totfact> 0.16152370E+05</totfact>
</mgrwt>
</event>
<event>
 5    1  0.3854342E+001  0.9257756E+02  0.7546771E-02  0.1296727E+00
         -2   -1    0    0    0  501 -0.00000000000E+00  0.00000000000E+00  0.28413643155E+01  0.28413643155E+01  0.00000000000E+00 0.  1.
          2   -1    0    0  501    0  0.00000000000E+00 -0.00000000000E+00 -0.75409236709E+03  0.75409236709E+03  0.00000000000E+00 0. -1.
         23    2    1    2    0    0  0.00000000000E+00  0.00000000000E+00 -0.75125100278E+03  0.75693373141E+03  0.92577559752E+02 0.  0.
          2    1    3    3  502    0 -0.23886428246E+02 -0.17911972091E+02 -0.66484284920E+03  0.66551289570E+03  0.00000000000E+00 0. -1.
         -2    1    3    3    0  502  0.23886428246E+02  0.17911972091E+02 -0.86408153573E+02  0.91420835713E+02  0.00000000000E+00 0.  1.
<mgrwt>
<rscale>  0 0.92577560E+02</rscale>
<asrwt>0</asrwt>
<pdfrwt beam="2">  1        2 0.11601430E+00 0.92577560E+02</pdfrwt>
<pdfrwt beam="1">  1       -2 0.43713265E-03 0.92577560E+02</pdfrwt>
<totfact> 0.23152184E+05</totfact>
</mgrwt>
</event>
<event>
 5    1  0.3854342E+001  0.8949431E+02  0.7546771E-02  0.1304081E+00
          1   -1    0    0  501    0  0.00000000000E+00  0.00000000000E+00  0.14388896644E+04  0.14388896644E+04  0.00000000000E+00 0. -1.
         -1   -1    0    0    0  501 -0.00000000000E+00 -0.00000000000E+00 -0.13915646947E+01  0.13915646947E+01  0.00000000000E+00 0.  1.
         23    2    1    2    0    0  0.00000000000E+00  0.00000000000E+00  0.14374980998E+04  0.14402812291E+04  0.89494313934E+02 0.  0.
          2    1    3    3  502    0 -0.34121378790E+02 -0.83846649170E+00  0.11844443761E+04  0.11849360538E+04  0.00000000000E+00 0. -1.
         -2    1    3    3    0  502  0.34121378790E+02  0.83846649170E+00  0.25305372362E+03  0.25534517531E+03  0.00000000000E+00 0.  1.
<mgrwt>
<rscale>  0 0.89494314E+02</rscale>
<asrwt>0</asrwt>
<pdfrwt beam="1">  1        1 0.22136645E+00 0.89494314E+02</pdfrwt>
<pdfrwt beam="2">  1       -1 0.21408803E-03 0.89494314E+02</pdfrwt>
<totfact> 0.11992519E+05</totfact>
</mgrwt>
</event>
<event>
 5    1  0.3854342E+001  0.9125279E+02  0.7546771E-02  0.1299846E+00
          1   -1    0    0  501    0  0.00000000000E+00  0.00000000000E+00  0.20470333157E+03  0.20470333157E+03  0.00000000000E+00 0. -1.
         -1   -1    0    0    0  501 -0.00000000000E+00 -0.00000000000E+00 -0.10169682002E+02  0.10169682002E+02  0.00000000000E+00 0.  1.
         23    2    1    2    0    0  0.00000000000E+00  0.00000000000E+00  0.19453364957E+03  0.21487301357E+03  0.91252787063E+02 0.  0.
          2    1    3    3  502    0  0.38036110013E+02  0.31956076140E+01  0.15612540709E+03  0.16072367689E+03  0.00000000000E+00 0. -1.
         -2    1    3    3    0  502 -0.38036110013E+02 -0.31956076140E+01  0.38408242473E+02  0.54149336680E+02  0.00000000000E+00 0.  1.
<mgrwt>
<rscale>  0 0.91252787E+02</rscale>
<asrwt>0</asrwt>
<pdfrwt beam="1">  1        1 0.31492817E-01 0.91252787E+02</pdfrwt>
<pdfrwt beam="2">  1       -1 0.15645666E-02 0.91252787E+02</pdfrwt>
<totfact> 0.11867617E+05</totfact>
</mgrwt>
</event>
<event>
 5    1  0.3854342E+001  0.8512082E+02  0.7546771E-02  0.1315117E+00
          2   -1    0    0  501    0  0.00000000000E+00  0.00000000000E+00  0.75612512551E+03  0.75612512551E+03  0.00000000000E+00 0.  1.
         -2   -1    0    0    0  501 -0.00000000000E+00 -0.00000000000E+00 -0.23956201876E+01  0.23956201876E+01  0.00000000000E+00 0. -1.
         23    2    1    2    0    0  0.00000000000E+00  0.00000000000E+00  0.75372950533E+03  0.75852074570E+03  0.85120822719E+02 0.  0.
          2    1    3    3  502    0 -0.39505482103E+02 -0.24433987268E+01  0.23745923616E+03  0.24073541939E+03  0.00000000000E+00 0. -1.
         -2    1    3    3    0  502  0.39505482103E+02  0.24433987268E+01  0.51627026917E+03  0.51778532631E+03  0.00000000000E+00 0.  1.
<mgrwt>
<rscale>  0 0.85120823E+02</rscale>
<asrwt>0</asrwt>
<pdfrwt beam="1">  1        2 0.11632675E+00 0.85120823E+02</pdfrwt>
<pdfrwt beam="2">  1       -2 0.36855755E-03 0.85120823E+02</pdfrwt>
<totfact> 0.28887119E+05</totfact>
</mgrwt>
</event>
<event>
 5    1  0.3854342E+001  0.9066415E+02  0.7546771E-02  0.1301251E+00
         -1   -1    0    0    0  501 -0.00000000000E+00  0.00000000000E+00  0.47204325442E+01  0.47204325442E+01  0.00000000000E+00 0.  1.
          1   -1    0    0  501    0  0.00000000000E+00 -0.00000000000E+00 -0.43534080956E+03  0.43534080956E+03  0.00000000000E+00 0. -1.
         23    2    1    2    0    0  0.00000000000E+00  0.00000000000E+00 -0.43062037701E+03  0.44006124210E+03  0.90664147826E+02 0.  0.
          2    1    3    3  502    0 -0.76955031097E+01  0.40432557206E+02 -0.30752948366E+03  0.31027148721E+03  0.00000000000E+00 0. -1.
         -2    1    3    3    0  502  0.76955031097E+01 -0.40432557206E+02 -0.12309089335E+03  0.12978975489E+03  0.00000000000E+00 0.  1.
<mgrwt>
<rscale>  0 0.90664148E+02</rscale>
<asrwt>0</asrwt>
<pdfrwt beam="2">  1        1 0.66975517E-01 0.90664148E+02</pdfrwt>
<pdfrwt beam="1">  1       -1 0.72622030E-03 0.90664148E+02</pdfrwt>
<totfact> 0.13875386E+05</totfact>
</mgrwt>
</event>
<event>
 5    1  0.3854342E+001  0.9071272E+02  0.7546771E-02  0.1301135E+00
          1   -1    0    0  501    0  0.00000000000E+00  0.00000000000E+00  0.35240886429E+02  0.35240886429E+02  0.00000000000E+00 0. -1.
         -1   -1    0    0    0  501 -0.00000000000E+00 -0.00000000000E+00 -0.58375353062E+02  0.58375353062E+02  0.00000000000E+00 0.  1.
         23    2    1    2    0    0  0.00000000000E+00  0.00000000000E+00 -0.23134466633E+02  0.93616239491E+02  0.90712715481E+02 0.  0.
          2    1    3    3  502    0  0.30461236831E+02  0.20031382217E+02  0.16278932581E+02  0.39926768824E+02  0.00000000000E+00 0. -1.
         -2    1    3    3    0  502 -0.30461236831E+02 -0.20031382217E+02 -0.39413399215E+02  0.53689470666E+02  0.00000000000E+00 0.  1.
<mgrwt>
<rscale>  0 0.90712715E+02</rscale>
<asrwt>0</asrwt>
<pdfrwt beam="1">  1        1 0.54216749E-02 0.90712715E+02</pdfrwt>
<pdfrwt beam="2">  1       -1 0.89808234E-02 0.90712715E+02</pdfrwt>
<totfact> 0.90217572E+04</totfact>
</mgrwt>
</event>
<event>
 5    1  0.3854342E+001  0.9296276E+02  0.7546771E-02  0.1295832E+00
          2   -1    0    0  501    0  0.00000000000E+00  0.00000000000E+00  0.14870320118E+04  0.14870320118E+04  0.00000000000E+00 0. -1.
         -2   -1    0    0    0  501 -0.00000000000E+00 -0.00000000000E+00 -0.14529065042E+01  0.14529065042E+01  0.00000000000E+00 0.  1.
         23    2    1    2    0    0  0.00000000000E+00  0.00000000000E+00  0.14855791053E+04  0.14884849183E+04  0.92962755595E+02 0.  0.
          2    1    3    3  502    0 -0.21215681182E+02 -0.41357143914E+02  0.74277206478E+03  0.74422500542E+03  0.00000000000E+00 0. -1.
         -2    1    3    3    0  502  0.21215681182E+02  0.41357143914E+02  0.74280704056E+03  0.74425991293E+03  0.00000000000E+00 0.  1.
<mgrwt>
<rscale>  0 0.92962756E+02</rscale>
<asrwt>0</asrwt>
<pdfrwt beam="1">  1        2 0.22877294E+00 0.92962756E+02</pdfrwt>
<pdfrwt beam="2">  1       -2 0.22352527E-03 0.92962756E+02</pdfrwt>
<totfact> 0.22492576E+05</totfact>
</mgrwt>
</event>
<event>
 5    1  0.3854342E+001  0.9102125E+02  0.7546771E-02  0.1300397E+00
          1   -1    0    0  501    0  0.00000000000E+00  0.00000000000E+00  0.12488309796E+02  0.12488309796E+02  0.00000000000E+00 0. -1.
         -1   -1    0    0    0  501 -0.00000000000E+00 -0.00000000000E+00 -0.16585247984E+03  0.16585247984E+03  0.00000000000E+00 0.  1.
         23    2    1    2    0    0  0.00000000000E+00  0.00000000000E+00 -0.15336417004E+03  0.17834078963E+03  0.91021253532E+02 0.  0.
          2    1    3    3  502    0 -0.23424189691E+02 -0.35231095983E+02 -0.43820509114E+02  0.60911081142E+02  0.00000000000E+00 0. -1.
         -2    1    3    3    0  502  0.23424189691E+02  0.35231095983E+02 -0.10954366093E+03  0.11742970849E+03  0.00000000000E+00 0.  1.
<mgrwt>
<rscale>  0 0.91021254E+02</rscale>
<asrwt>0</asrwt>
<pdfrwt beam="1">  1        1 0.19212787E-02 0.91021254E+02</pdfrwt>
<pdfrwt beam="2">  1       -1 0.25515762E-01 0.91021254E+02</pdfrwt>
<totfact> 0.73316918E+04</totfact>
</mgrwt>
</event>
<event>
 5    1  0.3854342E+001  0.8634340E+02  0.7546771E-02  0.1311956E+00
          2   -1    0    0  501    0  0.00000000000E+00  0.00000000000E+00  0.30692004659E+01  0.30692004659E+01  0.00000000000E+00 0. -1.
         -2   -1    0    0    0  501 -0.00000000000E+00 -0.00000000000E+00 -0.60725768990E+03  0.60725768990E+03  0.00000000000E+00 0.  1.
         23    2    1    2    0    0  0.00000000000E+00  0.00000000000E+00 -0.60418848943E+03  0.61032689036E+03  0.86343397773E+02 0.  0.
          2    1    3    3  502    0  0.33680908150E+02 -0.19554999156E+02 -0.17042196206E+03  0.17481546476E+03  0.00000000000E+00 0. -1.
         -2    1    3    3    0  502 -0.33680908150E+02  0.19554999156E+02 -0.43376652737E+03  0.43551142561E+03  0.00000000000E+00 0.  1.
<mgrwt>
<rscale>  0 0.86343398E+02</rscale>
<asrwt>0</asrwt>
<pdfrwt beam="1">  1        2 0.47218455E-03 0.86343398E+02</pdfrwt>
<pdfrwt beam="2">  1       -2 0.93424287E-01 0.86343398E+02</pdfrwt>
<totfact> 0.35621142E+04</totfact>
</mgrwt>
</event>
<event>
 5    1  0.3854342E+001  0.7446968E+02  0.7546771E-02  0.1345521E+00
          3   -1    0    0  501    0  0.00000000000E+00  0.00000000000E+00  0.11536086525E+03  0.11536086525E+03  0.00000000000E+00 0. -1.
         -3   -1    0    0    0  501 -0.00000000000E+00 -0.00000000000E+00 -0.12018227727E+02  0.12018227727E+02  0.00000000000E+00 0.  1.
         23    2    1    2    0    0  0.00000000000E+00  0.00000000000E+00  0.10334263753E+03  0.12737909298E+03  0.74469675690E+02 0.  0.
          2    1    3    3  502    0  0.33521631490E+01  0.20573518161E+02  0.10444536565E+03  0.10650512219E+03  0.00000000000E+00 0. -1.
         -2    1    3    3    0  502 -0.33521631490E+01 -0.20573518161E+02 -0.11027281201E+01  0.20873970791E+02  0.00000000000E+00 0.  1.
<mgrwt>
<rscale>  0 0.74469676E+02</rscale>
<asrwt>0</asrwt>
<pdfrwt beam="1">  1        3 0.17747825E-01 0.74469676E+02</pdfrwt>
<pdfrwt beam="2">  1       -3 0.18489582E-02 0.74469676E+02</pdfrwt>
<totfact> 0.56319177E+04</totfact>
</mgrwt>
</event>
<event>
 5    1  0.3854342E+001  0.9071417E+02  0.7546771E-02  0.1301131E+00
          2   -1    0    0  501    0  0.00000000000E+00  0.00000000000E+00  0.14694582433E+03  0.14694582433E+03  0.00000000000E+00 0. -1.
         -2   -1    0    0    0  501 -0.00000000000E+00 -0.00000000000E+00 -0.14000160813E+02  0.14000160813E+02  0.00000000000E+00 0.  1.
         23    2    1    2    0    0  0.00000000000E+00  0.00000000000E+00  0.13294566352E+03  0.16094598515E+03  0.90714170260E+02 0.  0.
          2    1    3    3  502    0  0.22888095238E+02 -0.66576769060E+01  0.13493700839E+03  0.13702622303E+03  0.00000000000E+00 0. -1.
         -2    1    3    3    0  502 -0.22888095238E+02  0.66576769060E+01 -0.19913448654E+01  0.23919762118E+02  0.00000000000E+00 0.  1.
<mgrwt>
<rscale>  0 0.90714170E+02</rscale>
<asrwt>0</asrwt>
<pdfrwt beam="1">  1        2 0.22607049E-01 0.90714170E+02</pdfrwt>
<pdfrwt beam="2">  1       -2 0.21538710E-02 0.90714170E+02</pdfrwt>
<totfact> 0.14076744E+05</totfact>
</mgrwt>
</event>
<event>
 5    1  0.3854342E+001  0.9425817E+02  0.7546771E-02  0.1292856E+00
         -2   -1    0    0    0  501 -0.00000000000E+00  0.00000000000E+00  0.34097428895E+01  0.34097428895E+01  0.00000000000E+00 0.  1.
          2   -1    0    0  501    0  0.00000000000E+00 -0.00000000000E+00 -0.65141290457E+03  0.65141290457E+03  0.00000000000E+00 0. -1.
         23    2    1    2    0    0  0.00000000000E+00  0.00000000000E+00 -0.64800316168E+03  0.65482264746E+03  0.94258167168E+02 0.  0.
          2    1    3    3  502    0  0.14198728368E+02  0.40741932295E+02 -0.45574825245E+03  0.45778595276E+03  0.00000000000E+00 0. -1.
         -2    1    3    3    0  502 -0.14198728368E+02 -0.40741932295E+02 -0.19225490923E+03  0.19703669470E+03  0.00000000000E+00 0.  1.
<mgrwt>
<rscale>  0 0.94258167E+02</rscale>
<asrwt>0</asrwt>
<pdfrwt beam="2">  1        2 0.10021738E+00 0.94258167E+02</pdfrwt>
<pdfrwt beam="1">  1       -2 0.52457579E-03 0.94258167E+02</pdfrwt>
<totfact> 0.21338209E+05</totfact>
</mgrwt>
</event>
<event>
 5    1  0.3854342E+001  0.9192721E+02  0.7546771E-02  0.1298251E+00
         -1   -1    0    0    0  501 -0.00000000000E+00  0.00000000000E+00  0.55663388086E+02  0.55663388086E+02  0.00000000000E+00 0.  1.
          1   -1    0    0  501    0  0.00000000000E+00 -0.00000000000E+00 -0.37954084119E+02  0.37954084119E+02  0.00000000000E+00 0. -1.
         23    2    1    2    0    0  0.00000000000E+00  0.00000000000E+00  0.17709303967E+02  0.93617472205E+02  0.91927208459E+02 0.  0.
          2    1    3    3  502    0  0.33188833344E+02  0.31772545988E+02  0.10166584424E+02  0.47056909973E+02  0.00000000000E+00 0. -1.
         -2    1    3    3    0  502 -0.33188833344E+02 -0.31772545988E+02  0.75427195430E+01  0.46560562233E+02  0.00000000000E+00 0.  1.
<mgrwt>
<rscale>  0 0.91927208E+02</rscale>
<asrwt>0</asrwt>
<pdfrwt beam="2">  1        1 0.58390899E-02 0.91927208E+02</pdfrwt>
<pdfrwt beam="1">  1       -1 0.85635981E-02 0.91927208E+02</pdfrwt>
<totfact> 0.87873180E+04</totfact>
</mgrwt>
</event>
<event>
 5    1  0.3854342E+001  0.9187892E+02  0.7546771E-02  0.1298364E+00
         -4   -1    0    0    0  501 -0.00000000000E+00  0.00000000000E+00  0.75289625852E+02  0.75289625852E+02  0.00000000000E+00 0.  1.
          4   -1    0    0  501    0  0.00000000000E+00 -0.00000000000E+00 -0.28030871656E+02  0.28030871656E+02  0.00000000000E+00 0. -1.
         23    2    1    2    0    0  0.00000000000E+00  0.00000000000E+00  0.47258754196E+02  0.10332049751E+03  0.91878916827E+02 0.  0.
          2    1    3    3  502    0 -0.32087885491E+02  0.17553869971E+02 -0.76289481852E+01  0.37362703284E+02  0.00000000000E+00 0. -1.
         -2    1    3    3    0  502  0.32087885491E+02 -0.17553869971E+02  0.54887702381E+02  0.65957794225E+02  0.00000000000E+00 0.  1.
<mgrwt>
<rscale>  0 0.91878917E+02</rscale>
<asrwt>0</asrwt>
<pdfrwt beam="2">  1        4 0.43124418E-02 0.91878917E+02</pdfrwt>
<pdfrwt beam="1">  1       -4 0.11583019E-01 0.91878917E+02</pdfrwt>
<totfact> 0.25713098E+04</totfact>
</mgrwt>
</event>
<event>
 5    1  0.3854342E+001  0.8302941E+02  0.7546771E-02  0.1320668E+00
          1   -1    0    0  501    0  0.00000000000E+00  0.00000000000E+00  0.47641687124E+02  0.47641687124E+02  0.00000000000E+00 0. -1.
         -1   -1    0    0    0  501 -0.00000000000E+00 -0.00000000000E+00 -0.36175683567E+02  0.36175683567E+02  0.00000000000E+00 0.  1.
         23    2    1    2    0    0  0.00000000000E+00  0.00000000000E+00  0.11466003556E+02  0.83817370691E+02  0.83029406791E+02 0.  0.
          2    1    3    3  502    0 -0.20335158827E+02 -0.13799936728E+02  0.39509669114E+02  0.46529247701E+02  0.00000000000E+00 0. -1.
         -2    1    3    3    0  502  0.20335158827E+02  0.13799936728E+02 -0.28043665557E+02  0.37288122990E+02  0.00000000000E+00 0.  1.
<mgrwt>
<rscale>  0 0.83029407E+02</rscale>
<asrwt>0</asrwt>
<pdfrwt beam="1">  1        1 0.73294904E-02 0.83029407E+02</pdfrwt>
<pdfrwt beam="2">  1       -1 0.55654897E-02 0.83029407E+02</pdfrwt>
<totfact> 0.12073389E+05</totfact>
</mgrwt>
</event>
<event>
 5    1  0.3854342E+001  0.8817904E+02  0.7546771E-02  0.1307322E+00
          4   -1    0    0  501    0  0.00000000000E+00  0.00000000000E+00  0.22608827573E+03  0.22608827573E+03  0.00000000000E+00 0. -1.
         -4   -1    0    0    0  501 -0.00000000000E+00 -0.00000000000E+00 -0.85979065674E+01  0.85979065674E+01  0.00000000000E+00 0.  1.
         23    2    1    2    0    0  0.00000000000E+00  0.00000000000E+00  0.21749036917E+03  0.23468618230E+03  0.88179042198E+02 0.  0.
          2    1    3    3  502    0 -0.32344191093E+02  0.36478000548E+00  0.18848313031E+03  0.19123851645E+03  0.00000000000E+00 0. -1.
         -2    1    3    3    0  502  0.32344191093E+02 -0.36478000548E+00  0.29007238854E+02  0.43447665851E+02  0.00000000000E+00 0.  1.
<mgrwt>
<rscale>  0 0.88179042E+02</rscale>
<asrwt>0</asrwt>
<pdfrwt beam="1">  1        4 0.34782807E-01 0.88179042E+02</pdfrwt>
<pdfrwt beam="2">  1       -4 0.13227550E-02 0.88179042E+02</pdfrwt>
<totfact> 0.21880539E+04</totfact>
</mgrwt>
</event>
<event>
 5    1  0.3854342E+001  0.9995787E+02  0.7546771E-02  0.1280385E+00
         -3   -1    0    0    0  501 -0.00000000000E+00  0.00000000000E+00  0.60392885593E+02  0.60392885593E+02  0.00000000000E+00 0.  1.
          3   -1    0    0  501    0  0.00000000000E+00 -0.00000000000E+00 -0.41360734824E+02  0.41360734824E+02  0.00000000000E+00 0. -1.
         23    2    1    2    0    0  0.00000000000E+00  0.00000000000E+00  0.19032150769E+02  0.10175362042E+03  0.99957873653E+02 0.  0.
          2    1    3    3  502    0 -0.11134215128E+02  0.24553843900E+02  0.52355741905E+02  0.58889606105E+02  0.00000000000E+00 0. -1.
         -2    1    3    3    0  502  0.11134215128E+02 -0.24553843900E+02 -0.33323591136E+02  0.42864014312E+02  0.00000000000E+00 0.  1.
<mgrwt>
<rscale>  0 0.99957874E+02</rscale>
<asrwt>0</asrwt>
<pdfrwt beam="2">  1        3 0.63631900E-02 0.99957874E+02</pdfrwt>
<pdfrwt beam="1">  1       -3 0.92912131E-02 0.99957874E+02</pdfrwt>
<totfact> 0.26851821E+04</totfact>
</mgrwt>
</event>
<event>
 5    1  0.3854342E+001  0.9088311E+02  0.7546771E-02  0.1300727E+00
         -2   -1    0    0    0  501 -0.00000000000E+00  0.00000000000E+00  0.19732050904E+01  0.19732050904E+01  0.00000000000E+00 0.  1.
          2   -1    0    0  501    0  0.00000000000E+00 -0.00000000000E+00 -0.10464876481E+04  0.10464876481E+04  0.00000000000E+00 0. -1.
         23    2    1    2    0    0  0.00000000000E+00  0.00000000000E+00 -0.10445144430E+04  0.10484608532E+04  0.90883106335E+02 0.  0.
          2    1    3    3  502    0 -0.18517629872E+02 -0.40422700675E+02 -0.63050093466E+03  0.63206671005E+03  0.00000000000E+00 0. -1.
         -2    1    3    3    0  502  0.18517629872E+02  0.40422700675E+02 -0.41401350835E+03  0.41639414314E+03  0.00000000000E+00 0.  1.
<mgrwt>
<rscale>  0 0.90883106E+02</rscale>
<asrwt>0</asrwt>
<pdfrwt beam="2">  1        2 0.16099804E+00 0.90883106E+02</pdfrwt>
<pdfrwt beam="1">  1       -2 0.30357012E-03 0.90883106E+02</pdfrwt>
<totfact> 0.25245355E+05</totfact>
</mgrwt>
</event>
<event>
 5    1  0.3854342E+001  0.9041800E+02  0.7546771E-02  0.1301843E+00
         -2   -1    0    0    0  501 -0.00000000000E+00  0.00000000000E+00  0.75693055166E+00  0.75693055166E+00  0.00000000000E+00 0. -1.
          2   -1    0    0  501    0  0.00000000000E+00 -0.00000000000E+00 -0.27001866896E+04  0.27001866896E+04  0.00000000000E+00 0.  1.
         23    2    1    2    0    0  0.00000000000E+00  0.00000000000E+00 -0.26994297591E+04  0.27009436202E+04  0.90418002644E+02 0.  0.
          2    1    3    3  502    0 -0.39674752016E+02 -0.34167399999E+01 -0.71036617645E+03  0.71148145774E+03  0.00000000000E+00 0. -1.
         -2    1    3    3    0  502  0.39674752016E+02  0.34167399999E+01 -0.19890635826E+04  0.19894621624E+04  0.00000000000E+00 0.  1.
<mgrwt>
<rscale>  0 0.90418003E+02</rscale>
<asrwt>0</asrwt>
<pdfrwt beam="2">  1        2 0.41542045E+00 0.90418003E+02</pdfrwt>
<pdfrwt beam="1">  1       -2 0.11644886E-03 0.90418003E+02</pdfrwt>
<totfact> 0.13214637E+05</totfact>
</mgrwt>
</event>
<event>
 5    1  0.3854342E+001  0.9341041E+02  0.7546771E-02  0.1294797E+00
          2   -1    0    0  501    0  0.00000000000E+00  0.00000000000E+00  0.12875741315E+03  0.12875741315E+03  0.00000000000E+00 0. -1.
         -2   -1    0    0    0  501 -0.00000000000E+00 -0.00000000000E+00 -0.16941750585E+02  0.16941750585E+02  0.00000000000E+00 0.  1.
         23    2    1    2    0    0  0.00000000000E+00  0.00000000000E+00  0.11181566256E+03  0.14569916373E+03  0.93410405832E+02 0.  0.
          2    1    3    3  502    0  0.39332731200E+02 -0.58650931053E+01  0.94111573611E+02  0.10216873958E+03  0.00000000000E+00 0. -1.
         -2    1    3    3    0  502 -0.39332731200E+02  0.58650931053E+01  0.17704088951E+02  0.43530424147E+02  0.00000000000E+00 0.  1.
<mgrwt>
<rscale>  0 0.93410406E+02</rscale>
<asrwt>0</asrwt>
<pdfrwt beam="1">  1        2 0.19808832E-01 0.93410406E+02</pdfrwt>
<pdfrwt beam="2">  1       -2 0.26064232E-02 0.93410406E+02</pdfrwt>
<totfact> 0.12435474E+05</totfact>
</mgrwt>
</event>
<event>
 5    1  0.3854342E+001  0.8071187E+02  0.7546771E-02  0.1327043E+00
         -1   -1    0    0    0  501 -0.00000000000E+00  0.00000000000E+00  0.77150159199E+01  0.77150159199E+01  0.00000000000E+00 0.  1.
          1   -1    0    0  501    0  0.00000000000E+00 -0.00000000000E+00 -0.21109503880E+03  0.21109503880E+03  0.00000000000E+00 0. -1.
         23    2    1    2    0    0  0.00000000000E+00  0.00000000000E+00 -0.20338002288E+03  0.21881005472E+03  0.80711872360E+02 0.  0.
          2    1    3    3  502    0 -0.25248365207E+02  0.12608885657E+02 -0.17989373582E+03  0.18209398708E+03  0.00000000000E+00 0. -1.
         -2    1    3    3    0  502  0.25248365207E+02 -0.12608885657E+02 -0.23486287060E+02  0.36716067640E+02  0.00000000000E+00 0.  1.
<mgrwt>
<rscale>  0 0.80711872E+02</rscale>
<asrwt>0</asrwt>
<pdfrwt beam="2">  1        1 0.32476162E-01 0.80711872E+02</pdfrwt>
<pdfrwt beam="1">  1       -1 0.11869254E-02 0.80711872E+02</pdfrwt>
<totfact> 0.16549410E+05</totfact>
</mgrwt>
</event>
<event>
 5    1  0.3854342E+001  0.9125990E+02  0.7546771E-02  0.1299829E+00
          2   -1    0    0  501    0  0.00000000000E+00  0.00000000000E+00  0.12096309457E+03  0.12096309457E+03  0.00000000000E+00 0. -1.
         -2   -1    0    0    0  501 -0.00000000000E+00 -0.00000000000E+00 -0.17212624003E+02  0.17212624003E+02  0.00000000000E+00 0.  1.
         23    2    1    2    0    0  0.00000000000E+00  0.00000000000E+00  0.10375047057E+03  0.13817571857E+03  0.91259898424E+02 0.  0.
          2    1    3    3  502    0 -0.23296642240E+02  0.35435901603E+02  0.26374809382E+02  0.49940637081E+02  0.00000000000E+00 0. -1.
         -2    1    3    3    0  502  0.23296642240E+02 -0.35435901603E+02  0.77375661186E+02  0.88235081493E+02  0.00000000000E+00 0.  1.
<mgrwt>
<rscale>  0 0.91259898E+02</rscale>
<asrwt>0</asrwt>
<pdfrwt beam="1">  1        2 0.18609706E-01 0.91259898E+02</pdfrwt>
<pdfrwt beam="2">  1       -2 0.26480961E-02 0.91259898E+02</pdfrwt>
<totfact> 0.12987341E+05</totfact>
</mgrwt>
</event>
<event>
 5    1  0.3854342E+001  0.8999578E+02  0.7546771E-02  0.1302862E+00
         -2   -1    0    0    0  501 -0.00000000000E+00  0.00000000000E+00  0.69094298327E+02  0.69094298327E+02  0.00000000000E+00 0.  1.
          2   -1    0    0  501    0  0.00000000000E+00 -0.00000000000E+00 -0.29305023829E+02  0.29305023829E+02  0.00000000000E+00 0. -1.
         23    2    1    2    0    0  0.00000000000E+00  0.00000000000E+00  0.39789274498E+02  0.98399322156E+02  0.89995778988E+02 0.  0.
          2    1    3    3  502    0  0.34275486224E+02 -0.27634582939E+02  0.97355854911E+01  0.45091692749E+02  0.00000000000E+00 0. -1.
         -2    1    3    3    0  502 -0.34275486224E+02  0.27634582939E+02  0.30053689006E+02  0.53307629407E+02  0.00000000000E+00 0.  1.
<mgrwt>
<rscale>  0 0.89995779E+02</rscale>
<asrwt>0</asrwt>
<pdfrwt beam="2">  1        2 0.45084652E-02 0.89995779E+02</pdfrwt>
<pdfrwt beam="1">  1       -2 0.10629892E-01 0.89995779E+02</pdfrwt>
<totfact> 0.91380554E+04</totfact>
</mgrwt>
</event>
<event>
 5    1  0.3854342E+001  0.8979107E+02  0.7546771E-02  0.1303358E+00
          1   -1    0    0  501    0  0.00000000000E+00  0.00000000000E+00  0.45471189692E+03  0.45471189692E+03  0.00000000000E+00 0. -1.
         -1   -1    0    0    0  501 -0.00000000000E+00 -0.00000000000E+00 -0.44327168745E+01  0.44327168745E+01  0.00000000000E+00 0.  1.
         23    2    1    2    0    0  0.00000000000E+00  0.00000000000E+00  0.45027918005E+03  0.45914461380E+03  0.89791070793E+02 0.  0.
          2    1    3    3  502    0  0.17486523637E+02 -0.41342226423E+02  0.22101410678E+03  0.22552648091E+03  0.00000000000E+00 0. -1.
         -2    1    3    3    0  502 -0.17486523637E+02  0.41342226423E+02  0.22926507327E+03  0.23361813289E+03  0.00000000000E+00 0.  1.
<mgrwt>
<rscale>  0 0.89791071E+02</rscale>
<asrwt>0</asrwt>
<pdfrwt beam="1">  1        1 0.69955640E-01 0.89791071E+02</pdfrwt>
<pdfrwt beam="2">  1       -1 0.68195680E-03 0.89791071E+02</pdfrwt>
<totfact> 0.14325636E+05</totfact>
</mgrwt>
</event>
<event>
 5    1  0.3854342E+001  0.9044230E+02  0.7546771E-02  0.1301784E+00
         -2   -1    0    0    0  501 -0.00000000000E+00  0.00000000000E+00  0.32124771364E+03  0.32124771364E+03  0.00000000000E+00 0.  1.
          2   -1    0    0  501    0  0.00000000000E+00 -0.00000000000E+00 -0.63656561908E+01  0.63656561908E+01  0.00000000000E+00 0. -1.
         23    2    1    2    0    0  0.00000000000E+00  0.00000000000E+00  0.31488205745E+03  0.32761336983E+03  0.90442301986E+02 0.  0.
          2    1    3    3  502    0 -0.43697926204E+02 -0.35284353032E+01  0.11726825927E+03  0.12519506078E+03  0.00000000000E+00 0. -1.
         -2    1    3    3    0  502  0.43697926204E+02  0.35284353032E+01  0.19761379818E+03  0.20241830906E+03  0.00000000000E+00 0.  1.
<mgrwt>
<rscale>  0 0.90442302E+02</rscale>
<asrwt>0</asrwt>
<pdfrwt beam="2">  1        2 0.97933197E-03 0.90442302E+02</pdfrwt>
<pdfrwt beam="1">  1       -2 0.49422713E-01 0.90442302E+02</pdfrwt>
<totfact> 0.50065775E+04</totfact>
</mgrwt>
</event>
<event>
 5    1  0.3854342E+001  0.8780004E+02  0.7546771E-02  0.1308268E+00
         -1   -1    0    0    0  501 -0.00000000000E+00  0.00000000000E+00  0.53238209421E+02  0.53238209421E+02  0.00000000000E+00 0.  1.
          1   -1    0    0  501    0  0.00000000000E+00 -0.00000000000E+00 -0.36199784451E+02  0.36199784451E+02  0.00000000000E+00 0. -1.
         23    2    1    2    0    0  0.00000000000E+00  0.00000000000E+00  0.17038424970E+02  0.89437993872E+02  0.87800038852E+02 0.  0.
          2    1    3    3  502    0  0.17818607117E+02 -0.39316507180E+02  0.37498619901E+00  0.43167477470E+02  0.00000000000E+00 0. -1.
         -2    1    3    3    0  502 -0.17818607117E+02  0.39316507180E+02  0.16663438771E+02  0.46270516402E+02  0.00000000000E+00 0.  1.
<mgrwt>
<rscale>  0 0.87800039E+02</rscale>
<asrwt>0</asrwt>
<pdfrwt beam="2">  1        1 0.55691976E-02 0.87800039E+02</pdfrwt>
<pdfrwt beam="1">  1       -1 0.81904937E-02 0.87800039E+02</pdfrwt>
<totfact> 0.99344201E+04</totfact>
</mgrwt>
</event>
<event>
 5    1  0.3854342E+001  0.8957791E+02  0.7546771E-02  0.1303877E+00
          2   -1    0    0  501    0  0.00000000000E+00  0.00000000000E+00  0.32557188696E+03  0.32557188696E+03  0.00000000000E+00 0.  1.
         -2   -1    0    0    0  501 -0.00000000000E+00 -0.00000000000E+00 -0.61616203439E+01  0.61616203439E+01  0.00000000000E+00 0. -1.
         23    2    1    2    0    0  0.00000000000E+00  0.00000000000E+00  0.31941026662E+03  0.33173350731E+03  0.89577907145E+02 0.  0.
          2    1    3    3  502    0  0.22373414710E+01  0.43538216124E+02  0.12167309414E+03  0.12924752917E+03  0.00000000000E+00 0. -1.
         -2    1    3    3    0  502 -0.22373414710E+01 -0.43538216124E+02  0.19773717248E+03  0.20248597814E+03  0.00000000000E+00 0.  1.
<mgrwt>
<rscale>  0 0.89577907E+02</rscale>
<asrwt>0</asrwt>
<pdfrwt beam="1">  1        2 0.50087969E-01 0.89577907E+02</pdfrwt>
<pdfrwt beam="2">  1       -2 0.94794185E-03 0.89577907E+02</pdfrwt>
<totfact> 0.19412430E+05</totfact>
</mgrwt>
</event>
<event>
 5    1  0.3854342E+001  0.9188863E+02  0.7546771E-02  0.1298341E+00
         -2   -1    0    0    0  501 -0.00000000000E+00  0.00000000000E+00  0.75094295481E+01  0.75094295481E+01  0.00000000000E+00 0.  1.
          2   -1    0    0  501    0  0.00000000000E+00 -0.00000000000E+00 -0.28109726475E+03  0.28109726475E+03  0.00000000000E+00 0. -1.
         23    2    1    2    0    0  0.00000000000E+00  0.00000000000E+00 -0.27358783521E+03  0.28860669430E+03  0.91888630544E+02 0.  0.
          2    1    3    3  502    0 -0.76998808144E+01 -0.43952272667E+02 -0.10241799972E+03  0.11171632425E+03  0.00000000000E+00 0. -1.
         -2    1    3    3    0  502  0.76998808144E+01  0.43952272667E+02 -0.17116983549E+03  0.17689037005E+03  0.00000000000E+00 0.  1.
<mgrwt>
<rscale>  0 0.91888631E+02</rscale>
<asrwt>0</asrwt>
<pdfrwt beam="2">  1        2 0.43245731E-01 0.91888631E+02</pdfrwt>
<pdfrwt beam="1">  1       -2 0.11552969E-02 0.91888631E+02</pdfrwt>
<totfact> 0.17174346E+05</totfact>
</mgrwt>
</event>
<event>
 5    1  0.3854342E+001  0.9061253E+02  0.7546771E-02  0.1301375E+00
          1   -1    0    0  501    0  0.00000000000E+00  0.00000000000E+00  0.29344195613E+02  0.29344195613E+02  0.00000000000E+00 0. -1.
         -1   -1    0    0    0  501 -0.00000000000E+00 -0.00000000000E+00 -0.69951062434E+02  0.69951062434E+02  0.00000000000E+00 0.  1.
         23    2    1    2    0    0  0.00000000000E+00  0.00000000000E+00 -0.40606866821E+02  0.99295258048E+02  0.90612530247E+02 0.  0.
          2    1    3    3  502    0 -0.45053406584E+02 -0.44423256046E+01 -0.22237166872E+02  0.50438430706E+02  0.00000000000E+00 0. -1.
         -2    1    3    3    0  502  0.45053406584E+02  0.44423256046E+01 -0.18369699949E+02  0.48856827341E+02  0.00000000000E+00 0.  1.
<mgrwt>
<rscale>  0 0.90612530E+02</rscale>
<asrwt>0</asrwt>
<pdfrwt beam="1">  1        1 0.45144917E-02 0.90612530E+02</pdfrwt>
<pdfrwt beam="2">  1       -1 0.10761702E-01 0.90612530E+02</pdfrwt>
<totfact> 0.87928964E+04</totfact>
</mgrwt>
</event>
<event>
 5    1  0.3854342E+001  0.9163782E+02  0.7546771E-02  0.1298933E+00
          2   -1    0    0  501    0  0.00000000000E+00  0.00000000000E+00  0.65367141068E+03  0.65367141068E+03  0.00000000000E+00 0. -1.
         -2   -1    0    0    0  501 -0.00000000000E+00 -0.00000000000E+00 -0.32116633950E+01  0.32116633950E+01  0.00000000000E+00 0.  1.
         23    2    1    2    0    0  0.00000000000E+00  0.00000000000E+00  0.65045974728E+03  0.65688307407E+03  0.91637820621E+02 0.  0.
          2    1    3    3  502    0 -0.10757401093E+02 -0.36716210736E+02  0.50594531583E+03  0.50738985447E+03  0.00000000000E+00 0. -1.
         -2    1    3    3    0  502  0.10757401093E+02  0.36716210736E+02  0.14451443146E+03  0.14949321961E+03  0.00000000000E+00 0.  1.
<mgrwt>
<rscale>  0 0.91637821E+02</rscale>
<asrwt>0</asrwt>
<pdfrwt beam="1">  1        2 0.10056473E+00 0.91637821E+02</pdfrwt>
<pdfrwt beam="2">  1       -2 0.49410258E-03 0.91637821E+02</pdfrwt>
<totfact> 0.23010862E+05</totfact>
</mgrwt>
</event>
<event>
 5    1  0.3854342E+001  0.8953212E+02  0.7546771E-02  0.1303989E+00
          3   -1    0    0  501    0  0.00000000000E+00  0.00000000000E+00  0.98950649564E+02  0.98950649564E+02  0.00000000000E+00 0. -1.
         -3   -1    0    0    0  501 -0.00000000000E+00 -0.00000000000E+00 -0.20252521562E+02  0.20252521562E+02  0.00000000000E+00 0.  1.
         23    2    1    2    0    0  0.00000000000E+00  0.00000000000E+00  0.78698128002E+02  0.11920317113E+03  0.89532120804E+02 0.  0.
          2    1    3    3  502    0 -0.49568008131E+01  0.44467872396E+02  0.37448088789E+02  0.58346558628E+02  0.00000000000E+00 0. -1.
         -2    1    3    3    0  502  0.49568008131E+01 -0.44467872396E+02  0.41250039213E+02  0.60856612499E+02  0.00000000000E+00 0.  1.
<mgrwt>
<rscale>  0 0.89532121E+02</rscale>
<asrwt>0</asrwt>
<pdfrwt beam="1">  1        3 0.15223177E-01 0.89532121E+02</pdfrwt>
<pdfrwt beam="2">  1       -3 0.31157726E-02 0.89532121E+02</pdfrwt>
<totfact> 0.34984385E+04</totfact>
</mgrwt>
</event>
<event>
 5    1  0.3854342E+001  0.9135590E+02  0.7546771E-02  0.1299601E+00
          2   -1    0    0  501    0  0.00000000000E+00  0.00000000000E+00  0.28699009455E+02  0.28699009455E+02  0.00000000000E+00 0.  1.
         -2   -1    0    0    0  501 -0.00000000000E+00 -0.00000000000E+00 -0.72701983550E+02  0.72701983550E+02  0.00000000000E+00 0. -1.
         23    2    1    2    0    0  0.00000000000E+00  0.00000000000E+00 -0.44002974095E+02  0.10140099301E+03  0.91355895558E+02 0.  0.
          2    1    3    3  502    0  0.26619000454E+02  0.18825729066E+02 -0.57511320056E+02  0.66109993152E+02  0.00000000000E+00 0. -1.
         -2    1    3    3    0  502 -0.26619000454E+02 -0.18825729066E+02  0.13508345961E+02  0.35290999853E+02  0.00000000000E+00 0.  1.
<mgrwt>
<rscale>  0 0.91355896E+02</rscale>
<asrwt>0</asrwt>
<pdfrwt beam="1">  1        2 0.44152323E-02 0.91355896E+02</pdfrwt>
<pdfrwt beam="2">  1       -2 0.11184920E-01 0.91355896E+02</pdfrwt>
<totfact> 0.86910199E+04</totfact>
</mgrwt>
</event>
<event>
 5    1  0.3854342E+001  0.9236217E+02  0.7546771E-02  0.1297230E+00
         -1   -1    0    0    0  501 -0.00000000000E+00  0.00000000000E+00  0.68752916935E+01  0.68752916935E+01  0.00000000000E+00 0.  1.
          1   -1    0    0  501    0  0.00000000000E+00 -0.00000000000E+00 -0.31019668519E+03  0.31019668519E+03  0.00000000000E+00 0. -1.
         23    2    1    2    0    0  0.00000000000E+00  0.00000000000E+00 -0.30332139349E+03  0.31707197688E+03  0.92362171759E+02 0.  0.
          2    1    3    3  502    0 -0.19264219955E+02  0.27187439453E+02 -0.41891725466E+02  0.53527410707E+02  0.00000000000E+00 0. -1.
         -2    1    3    3    0  502  0.19264219955E+02 -0.27187439453E+02 -0.26142966803E+03  0.26354456617E+03  0.00000000000E+00 0.  1.
<mgrwt>
<rscale>  0 0.92362172E+02</rscale>
<asrwt>0</asrwt>
<pdfrwt beam="2">  1        1 0.47722570E-01 0.92362172E+02</pdfrwt>
<pdfrwt beam="1">  1       -1 0.10577371E-02 0.92362172E+02</pdfrwt>
<totfact> 0.12457101E+05</totfact>
</mgrwt>
</event>
<event>
 5    1  0.3854342E+001  0.9026643E+02  0.7546771E-02  0.1302208E+00
          2   -1    0    0  501    0  0.00000000000E+00  0.00000000000E+00  0.19456498194E+04  0.19456498194E+04  0.00000000000E+00 0. -1.
         -2   -1    0    0    0  501 -0.00000000000E+00 -0.00000000000E+00 -0.10469545690E+01  0.10469545690E+01  0.00000000000E+00 0.  1.
         23    2    1    2    0    0  0.00000000000E+00  0.00000000000E+00  0.19446028649E+04  0.19466967740E+04  0.90266427164E+02 0.  0.
          2    1    3    3  502    0  0.33378655654E+02  0.22381215651E+02  0.14153020723E+04  0.14158725258E+04  0.00000000000E+00 0. -1.
         -2    1    3    3    0  502 -0.33378655654E+02 -0.22381215651E+02  0.52930079262E+03  0.53082424825E+03  0.00000000000E+00 0.  1.
<mgrwt>
<rscale>  0 0.90266427E+02</rscale>
<asrwt>0</asrwt>
<pdfrwt beam="1">  1        2 0.29932785E+00 0.90266427E+02</pdfrwt>
<pdfrwt beam="2">  1       -2 0.16107149E-03 0.90266427E+02</pdfrwt>
<totfact> 0.20716484E+05</totfact>
</mgrwt>
</event>
<event>
 5    1  0.3854342E+001  0.9022751E+02  0.7546771E-02  0.1302302E+00
         -1   -1    0    0    0  501 -0.00000000000E+00  0.00000000000E+00  0.21954932134E+02  0.21954932134E+02  0.00000000000E+00 0.  1.
          1   -1    0    0  501    0  0.00000000000E+00 -0.00000000000E+00 -0.92701298006E+02  0.92701298006E+02  0.00000000000E+00 0. -1.
         23    2    1    2    0    0  0.00000000000E+00  0.00000000000E+00 -0.70746365872E+02  0.11465623014E+03  0.90227505927E+02 0.  0.
          2    1    3    3  502    0 -0.38718516998E+02 -0.15500746381E+02 -0.57230529340E+02  0.70814759658E+02  0.00000000000E+00 0. -1.
         -2    1    3    3    0  502  0.38718516998E+02  0.15500746381E+02 -0.13515836532E+02  0.43841470482E+02  0.00000000000E+00 0.  1.
<mgrwt>
<rscale>  0 0.90227506E+02</rscale>
<asrwt>0</asrwt>
<pdfrwt beam="2">  1        1 0.14261738E-01 0.90227506E+02</pdfrwt>
<pdfrwt beam="1">  1       -1 0.33776819E-02 0.90227506E+02</pdfrwt>
<totfact> 0.10614386E+05</totfact>
</mgrwt>
</event>
<event>
 5    1  0.3854342E+001  0.9284405E+02  0.7546771E-02  0.1296107E+00
         -4   -1    0    0    0  501 -0.00000000000E+00  0.00000000000E+00  0.33459504605E+02  0.33459504605E+02  0.00000000000E+00 0.  1.
          4   -1    0    0  501    0  0.00000000000E+00 -0.00000000000E+00 -0.64406347915E+02  0.64406347915E+02  0.00000000000E+00 0. -1.
         23    2    1    2    0    0  0.00000000000E+00  0.00000000000E+00 -0.30946843310E+02  0.97865852519E+02  0.92844051928E+02 0.  0.
          2    1    3    3  502    0  0.18884079666E+00 -0.40799792190E+02 -0.38814898113E+02  0.56313897211E+02  0.00000000000E+00 0. -1.
         -2    1    3    3    0  502 -0.18884079666E+00  0.40799792190E+02  0.78680548031E+01  0.41551955308E+02  0.00000000000E+00 0.  1.
<mgrwt>
<rscale>  0 0.92844052E+02</rscale>
<asrwt>0</asrwt>
<pdfrwt beam="2">  1        4 0.99086689E-02 0.92844052E+02</pdfrwt>
<pdfrwt beam="1">  1       -4 0.51476161E-02 0.92844052E+02</pdfrwt>
<totfact> 0.25312325E+04</totfact>
</mgrwt>
</event>
<event>
 5    1  0.3854342E+001  0.9119255E+02  0.7546771E-02  0.1299989E+00
          2   -1    0    0  501    0  0.00000000000E+00  0.00000000000E+00  0.21417435699E+03  0.21417435699E+03  0.00000000000E+00 0. -1.
         -2   -1    0    0    0  501 -0.00000000000E+00 -0.00000000000E+00 -0.97071393103E+01  0.97071393103E+01  0.00000000000E+00 0.  1.
         23    2    1    2    0    0  0.00000000000E+00  0.00000000000E+00  0.20446721768E+03  0.22388149630E+03  0.91192550573E+02 0.  0.
          2    1    3    3  502    0  0.63700564773E+00  0.40096927972E+02  0.15550579820E+03  0.16059334570E+03  0.00000000000E+00 0. -1.
         -2    1    3    3    0  502 -0.63700564773E+00 -0.40096927972E+02  0.48961419478E+02  0.63288150599E+02  0.00000000000E+00 0.  1.
<mgrwt>
<rscale>  0 0.91192551E+02</rscale>
<asrwt>0</asrwt>
<pdfrwt beam="1">  1        2 0.32949898E-01 0.91192551E+02</pdfrwt>
<pdfrwt beam="2">  1       -2 0.14934062E-02 0.91192551E+02</pdfrwt>
<totfact> 0.15850312E+05</totfact>
</mgrwt>
</event>
<event>
 5    1  0.3854342E+001  0.9126547E+02  0.7546771E-02  0.1299816E+00
         -1   -1    0    0    0  501 -0.00000000000E+00  0.00000000000E+00  0.34430063667E+02  0.34430063667E+02  0.00000000000E+00 0.  1.
          1   -1    0    0  501    0  0.00000000000E+00 -0.00000000000E+00 -0.60480467663E+02  0.60480467663E+02  0.00000000000E+00 0. -1.
         23    2    1    2    0    0  0.00000000000E+00  0.00000000000E+00 -0.26050403996E+02  0.94910531330E+02  0.91265466684E+02 0.  0.
          2    1    3    3  502    0 -0.40230649820E+02 -0.15051119235E+02 -0.29045159117E+02  0.51852315698E+02  0.00000000000E+00 0. -1.
         -2    1    3    3    0  502  0.40230649820E+02  0.15051119235E+02  0.29947551207E+01  0.43058215632E+02  0.00000000000E+00 0.  1.
<mgrwt>
<rscale>  0 0.91265467E+02</rscale>
<asrwt>0</asrwt>
<pdfrwt beam="2">  1        1 0.93046873E-02 0.91265467E+02</pdfrwt>
<pdfrwt beam="1">  1       -1 0.52969329E-02 0.91265467E+02</pdfrwt>
<totfact> 0.96227832E+04</totfact>
</mgrwt>
</event>
<event>
 5    1  0.3854342E+001  0.9141939E+02  0.7546771E-02  0.1299450E+00
         -1   -1    0    0    0  501 -0.00000000000E+00  0.00000000000E+00  0.73037655830E+02  0.73037655830E+02  0.00000000000E+00 0.  1.
          1   -1    0    0  501    0  0.00000000000E+00 -0.00000000000E+00 -0.28606835453E+02  0.28606835453E+02  0.00000000000E+00 0. -1.
         23    2    1    2    0    0  0.00000000000E+00  0.00000000000E+00  0.44430820377E+02  0.10164449128E+03  0.91419389677E+02 0.  0.
          2    1    3    3  502    0 -0.15850532927E+02  0.38457369575E+02  0.11439774976E+01  0.41611505058E+02  0.00000000000E+00 0. -1.
         -2    1    3    3    0  502  0.15850532927E+02 -0.38457369575E+02  0.43286842879E+02  0.60032986225E+02  0.00000000000E+00 0.  1.
<mgrwt>
<rscale>  0 0.91419390E+02</rscale>
<asrwt>0</asrwt>
<pdfrwt beam="2">  1        1 0.44010516E-02 0.91419390E+02</pdfrwt>
<pdfrwt beam="1">  1       -1 0.11236562E-01 0.91419390E+02</pdfrwt>
<totfact> 0.85361378E+04</totfact>
</mgrwt>
</event>
<event>
 5    1  0.3854342E+001  0.8767841E+02  0.7546771E-02  0.1308573E+00
          2   -1    0    0  501    0  0.00000000000E+00  0.00000000000E+00  0.14724605300E+02  0.14724605300E+02  0.00000000000E+00 0. -1.
         -2   -1    0    0    0  501 -0.00000000000E+00 -0.00000000000E+00 -0.13052139033E+03  0.13052139033E+03  0.00000000000E+00 0.  1.
         23    2    1    2    0    0  0.00000000000E+00  0.00000000000E+00 -0.11579678503E+03  0.14524599563E+03  0.87678411384E+02 0.  0.
          2    1    3    3  502    0 -0.36480032611E+02  0.19316557546E+02 -0.33441926610E+02  0.53125178871E+02  0.00000000000E+00 0. -1.
         -2    1    3    3    0  502  0.36480032611E+02 -0.19316557546E+02 -0.82354858417E+02  0.92120816755E+02  0.00000000000E+00 0.  1.
<mgrwt>
<rscale>  0 0.87678411E+02</rscale>
<asrwt>0</asrwt>
<pdfrwt beam="1">  1        2 0.22653239E-02 0.87678411E+02</pdfrwt>
<pdfrwt beam="2">  1       -2 0.20080214E-01 0.87678411E+02</pdfrwt>
<totfact> 0.80936901E+04</totfact>
</mgrwt>
</event>
<event>
 5    1  0.3854342E+001  0.9239386E+02  0.7546771E-02  0.1297156E+00
          3   -1    0    0  501    0  0.00000000000E+00  0.00000000000E+00  0.13410783289E+03  0.13410783289E+03  0.00000000000E+00 0. -1.
         -3   -1    0    0    0  501 -0.00000000000E+00 -0.00000000000E+00 -0.15913733077E+02  0.15913733077E+02  0.00000000000E+00 0.  1.
         23    2    1    2    0    0  0.00000000000E+00  0.00000000000E+00  0.11819409981E+03  0.15002156597E+03  0.92393858154E+02 0.  0.
          2    1    3    3  502    0  0.23842634222E+02 -0.30749707755E+02  0.99531882296E+02  0.10686726031E+03  0.00000000000E+00 0. -1.
         -2    1    3    3    0  502 -0.23842634222E+02  0.30749707755E+02  0.18662217515E+02  0.43154305651E+02  0.00000000000E+00 0.  1.
<mgrwt>
<rscale>  0 0.92393858E+02</rscale>
<asrwt>0</asrwt>
<pdfrwt beam="1">  1        3 0.20631974E-01 0.92393858E+02</pdfrwt>
<pdfrwt beam="2">  1       -3 0.24482667E-02 0.92393858E+02</pdfrwt>
<totfact> 0.30198997E+04</totfact>
</mgrwt>
</event>
<event>
 5    1  0.3854342E+001  0.8935884E+02  0.7546771E-02  0.1304412E+00
         -1   -1    0    0    0  501 -0.00000000000E+00  0.00000000000E+00  0.55869957219E+03  0.55869957219E+03  0.00000000000E+00 0.  1.
          1   -1    0    0  501    0  0.00000000000E+00 -0.00000000000E+00 -0.35730301080E+01  0.35730301080E+01  0.00000000000E+00 0. -1.
         23    2    1    2    0    0  0.00000000000E+00  0.00000000000E+00  0.55512654208E+03  0.56227260230E+03  0.89358835999E+02 0.  0.
          2    1    3    3  502    0 -0.11446924603E+01  0.32256930725E+02  0.83169845793E+02  0.89213469553E+02  0.00000000000E+00 0. -1.
         -2    1    3    3    0  502  0.11446924603E+01 -0.32256930725E+02  0.47195669629E+03  0.47305913274E+03  0.00000000000E+00 0.  1.
<mgrwt>
<rscale>  0 0.89358836E+02</rscale>
<asrwt>0</asrwt>
<pdfrwt beam="2">  1        1 0.54969738E-03 0.89358836E+02</pdfrwt>
<pdfrwt beam="1">  1       -1 0.85953711E-01 0.89358836E+02</pdfrwt>
<totfact> 0.46142240E+04</totfact>
</mgrwt>
</event>
<event>
 5    1  0.3854342E+001  0.9215929E+02  0.7546771E-02  0.1297705E+00
         -1   -1    0    0    0  501 -0.00000000000E+00  0.00000000000E+00  0.68444899338E+02  0.68444899338E+02  0.00000000000E+00 0.  1.
          1   -1    0    0  501    0  0.00000000000E+00 -0.00000000000E+00 -0.31022522970E+02  0.31022522970E+02  0.00000000000E+00 0. -1.
         23    2    1    2    0    0  0.00000000000E+00  0.00000000000E+00  0.37422376369E+02  0.99467422308E+02  0.92159285195E+02 0.  0.
          2    1    3    3  502    0 -0.25953560547E+02  0.19476526510E+02 -0.16600384642E+02  0.36448527545E+02  0.00000000000E+00 0. -1.
         -2    1    3    3    0  502  0.25953560547E+02 -0.19476526510E+02  0.54022761011E+02  0.63018894763E+02  0.00000000000E+00 0.  1.
<mgrwt>
<rscale>  0 0.92159285E+02</rscale>
<asrwt>0</asrwt>
<pdfrwt beam="2">  1        1 0.47726959E-02 0.92159285E+02</pdfrwt>
<pdfrwt beam="1">  1       -1 0.10529984E-01 0.92159285E+02</pdfrwt>
<totfact> 0.84511546E+04</totfact>
</mgrwt>
</event>
<event>
 5    1  0.3854342E+001  0.9204426E+02  0.7546771E-02  0.1297975E+00
         -1   -1    0    0    0  501 -0.00000000000E+00  0.00000000000E+00  0.11020132082E+01  0.11020132082E+01  0.00000000000E+00 0.  1.
          1   -1    0    0  501    0  0.00000000000E+00 -0.00000000000E+00 -0.19219699481E+04  0.19219699481E+04  0.00000000000E+00 0. -1.
         23    2    1    2    0    0  0.00000000000E+00  0.00000000000E+00 -0.19208679349E+04  0.19230719614E+04  0.92044256065E+02 0.  0.
          2    1    3    3  502    0 -0.70506295842E+01 -0.40353104984E+02 -0.13986632542E+04  0.13992630142E+04  0.00000000000E+00 0. -1.
         -2    1    3    3    0  502  0.70506295842E+01  0.40353104984E+02 -0.52220468078E+03  0.52380894713E+03  0.00000000000E+00 0.  1.
<mgrwt>
<rscale>  0 0.92044256E+02</rscale>
<asrwt>0</asrwt>
<pdfrwt beam="2">  1        1 0.29568735E+00 0.92044256E+02</pdfrwt>
<pdfrwt beam="1">  1       -1 0.16954069E-03 0.92044256E+02</pdfrwt>
<totfact> 0.82364934E+04</totfact>
</mgrwt>
</event>
<event>
 5    1  0.3854342E+001  0.9208806E+02  0.7546771E-02  0.1297873E+00
          2   -1    0    0  501    0  0.00000000000E+00  0.00000000000E+00  0.80488764895E+03  0.80488764895E+03  0.00000000000E+00 0. -1.
         -2   -1    0    0    0  501 -0.00000000000E+00 -0.00000000000E+00 -0.26339735334E+01  0.26339735334E+01  0.00000000000E+00 0.  1.
         23    2    1    2    0    0  0.00000000000E+00  0.00000000000E+00  0.80225367542E+03  0.80752162249E+03  0.92088061435E+02 0.  0.
          2    1    3    3  502    0  0.19324082206E+02  0.37447655330E+02  0.56384009886E+03  0.56541259636E+03  0.00000000000E+00 0. -1.
         -2    1    3    3    0  502 -0.19324082206E+02 -0.37447655330E+02  0.23841357656E+03  0.24210902612E+03  0.00000000000E+00 0.  1.
<mgrwt>
<rscale>  0 0.92088061E+02</rscale>
<asrwt>0</asrwt>
<pdfrwt beam="1">  1        2 0.12382867E+00 0.92088061E+02</pdfrwt>
<pdfrwt beam="2">  1       -2 0.40522734E-03 0.92088061E+02</pdfrwt>
<totfact> 0.23768298E+05</totfact>
</mgrwt>
</event>
<event>
 5    1  0.3854342E+001  0.7427779E+02  0.7546771E-02  0.1346122E+00
          3   -1    0    0  501    0  0.00000000000E+00  0.00000000000E+00  0.13487346645E+01  0.13487346645E+01  0.00000000000E+00 0. -1.
         -3   -1    0    0    0  501 -0.00000000000E+00 -0.00000000000E+00 -0.10226604627E+04  0.10226604627E+04  0.00000000000E+00 0.  1.
         23    2    1    2    0    0  0.00000000000E+00  0.00000000000E+00 -0.10213117281E+04  0.10240091974E+04  0.74277792538E+02 0.  0.
          2    1    3    3  502    0 -0.19777993590E+02  0.30850646778E+02 -0.59379274075E+03  0.59492247428E+03  0.00000000000E+00 0.  1.
         -2    1    3    3    0  502  0.19777993590E+02 -0.30850646778E+02 -0.42751898732E+03  0.42908672311E+03  0.00000000000E+00 0. -1.
<mgrwt>
<rscale>  0 0.74277793E+02</rscale>
<asrwt>0</asrwt>
<pdfrwt beam="1">  1        3 0.20749763E-03 0.74277793E+02</pdfrwt>
<pdfrwt beam="2">  1       -3 0.15733239E+00 0.74277793E+02</pdfrwt>
<totfact> 0.16679899E+04</totfact>
</mgrwt>
</event>
<event>
 5    1  0.3854342E+001  0.8773464E+02  0.7546771E-02  0.1308432E+00
         -2   -1    0    0    0  501 -0.00000000000E+00  0.00000000000E+00  0.61899933587E+02  0.61899933587E+02  0.00000000000E+00 0.  1.
          2   -1    0    0  501    0  0.00000000000E+00 -0.00000000000E+00 -0.31087948603E+02  0.31087948603E+02  0.00000000000E+00 0. -1.
         23    2    1    2    0    0  0.00000000000E+00  0.00000000000E+00  0.30811984984E+02  0.92987882189E+02  0.87734644328E+02 0.  0.
          2    1    3    3  502    0  0.14999050848E+02 -0.14004272945E+02 -0.25687301378E+02  0.32877479209E+02  0.00000000000E+00 0. -1.
         -2    1    3    3    0  502 -0.14999050848E+02  0.14004272945E+02  0.56499286362E+02  0.60110402980E+02  0.00000000000E+00 0.  1.
<mgrwt>
<rscale>  0 0.87734644E+02</rscale>
<asrwt>0</asrwt>
<pdfrwt beam="2">  1        2 0.47827613E-02 0.87734644E+02</pdfrwt>
<pdfrwt beam="1">  1       -2 0.95230667E-02 0.87734644E+02</pdfrwt>
<totfact> 0.10001504E+05</totfact>
</mgrwt>
</event>
<event>
 5    1  0.3854342E+001  0.9411242E+02  0.7546771E-02  0.1293188E+00
          2   -1    0    0  501    0  0.00000000000E+00  0.00000000000E+00  0.14753911959E+04  0.14753911959E+04  0.00000000000E+00 0. -1.
         -2   -1    0    0    0  501 -0.00000000000E+00 -0.00000000000E+00 -0.15008133372E+01  0.15008133372E+01  0.00000000000E+00 0.  1.
         23    2    1    2    0    0  0.00000000000E+00  0.00000000000E+00  0.14738903826E+04  0.14768920092E+04  0.94112417554E+02 0.  0.
          2    1    3    3  502    0 -0.36414880187E+02  0.23266420482E+02  0.44465477270E+03  0.44674963537E+03  0.00000000000E+00 0. -1.
         -2    1    3    3    0  502  0.36414880187E+02 -0.23266420482E+02  0.10292356099E+04  0.10301423739E+04  0.00000000000E+00 0.  1.
<mgrwt>
<rscale>  0 0.94112418E+02</rscale>
<asrwt>0</asrwt>
<pdfrwt beam="1">  1        2 0.22698210E+00 0.94112418E+02</pdfrwt>
<pdfrwt beam="2">  1       -2 0.23089554E-03 0.94112418E+02</pdfrwt>
<totfact> 0.21835995E+05</totfact>
</mgrwt>
</event>
<event>
 5    1  0.3854342E+001  0.9255914E+02  0.7546771E-02  0.1296770E+00
         -2   -1    0    0    0  501 -0.00000000000E+00  0.00000000000E+00  0.34330589597E+01  0.34330589597E+01  0.00000000000E+00 0.  1.
          2   -1    0    0  501    0  0.00000000000E+00 -0.00000000000E+00 -0.62387468109E+03  0.62387468109E+03  0.00000000000E+00 0. -1.
         23    2    1    2    0    0  0.00000000000E+00  0.00000000000E+00 -0.62044162213E+03  0.62730774005E+03  0.92559139228E+02 0.  0.
          2    1    3    3  502    0  0.44314613349E+01  0.44166947513E+02 -0.22148084281E+03  0.22588519392E+03  0.00000000000E+00 0. -1.
         -2    1    3    3    0  502 -0.44314613349E+01 -0.44166947513E+02 -0.39896077932E+03  0.40142254613E+03  0.00000000000E+00 0.  1.
<mgrwt>
<rscale>  0 0.92559139E+02</rscale>
<asrwt>0</asrwt>
<pdfrwt beam="2">  1        2 0.95980669E-01 0.92559139E+02</pdfrwt>
<pdfrwt beam="1">  1       -2 0.52816320E-03 0.92559139E+02</pdfrwt>
<totfact> 0.22135155E+05</totfact>
</mgrwt>
</event>
<event>
 5    1  0.3854342E+001  0.9054710E+02  0.7546771E-02  0.1301532E+00
         -1   -1    0    0    0  501 -0.00000000000E+00  0.00000000000E+00  0.24091269821E+03  0.24091269821E+03  0.00000000000E+00 0.  1.
          1   -1    0    0  501    0  0.00000000000E+00 -0.00000000000E+00 -0.85080379388E+01  0.85080379388E+01  0.00000000000E+00 0. -1.
         23    2    1    2    0    0  0.00000000000E+00  0.00000000000E+00  0.23240466027E+03  0.24942073615E+03  0.90547101032E+02 0.  0.
          2    1    3    3  502    0  0.20628036929E+02  0.30047008307E+02  0.19018546991E+03  0.19364620208E+03  0.00000000000E+00 0.  1.
         -2    1    3    3    0  502 -0.20628036929E+02 -0.30047008307E+02  0.42219190364E+02  0.55774534070E+02  0.00000000000E+00 0. -1.
<mgrwt>
<rscale>  0 0.90547101E+02</rscale>
<asrwt>0</asrwt>
<pdfrwt beam="2">  1        1 0.13089291E-02 0.90547101E+02</pdfrwt>
<pdfrwt beam="1">  1       -1 0.37063487E-01 0.90547101E+02</pdfrwt>
<totfact> 0.66767113E+04</totfact>
</mgrwt>
</event>
<event>
 5    1  0.3854342E+001  0.9435986E+02  0.7546771E-02  0.1292624E+00
          1   -1    0    0  501    0  0.00000000000E+00  0.00000000000E+00  0.36485979112E+02  0.36485979112E+02  0.00000000000E+00 0. -1.
         -1   -1    0    0    0  501 -0.00000000000E+00 -0.00000000000E+00 -0.61008251090E+02  0.61008251090E+02  0.00000000000E+00 0.  1.
         23    2    1    2    0    0  0.00000000000E+00  0.00000000000E+00 -0.24522271978E+02  0.97494230201E+02  0.94359859578E+02 0.  0.
          2    1    3    3  502    0 -0.16821284228E+02  0.40365605462E+02 -0.30558361541E+02  0.53349331463E+02  0.00000000000E+00 0.  1.
         -2    1    3    3    0  502  0.16821284228E+02 -0.40365605462E+02  0.60360895635E+01  0.44144898739E+02  0.00000000000E+00 0. -1.
<mgrwt>
<rscale>  0 0.94359860E+02</rscale>
<asrwt>0</asrwt>
<pdfrwt beam="1">  1        1 0.56132276E-02 0.94359860E+02</pdfrwt>
<pdfrwt beam="2">  1       -1 0.93858847E-02 0.94359860E+02</pdfrwt>
<totfact> 0.81068553E+04</totfact>
</mgrwt>
</event>
<event>
 5    1  0.3854342E+001  0.9210705E+02  0.7546771E-02  0.1297828E+00
          1   -1    0    0  501    0  0.00000000000E+00  0.00000000000E+00  0.13548341921E+02  0.13548341921E+02  0.00000000000E+00 0. -1.
         -1   -1    0    0    0  501 -0.00000000000E+00 -0.00000000000E+00 -0.15654513365E+03  0.15654513365E+03  0.00000000000E+00 0.  1.
         23    2    1    2    0    0  0.00000000000E+00  0.00000000000E+00 -0.14299679173E+03  0.17009347557E+03  0.92107046350E+02 0.  0.
          2    1    3    3  502    0  0.38204227755E+02  0.24985622227E+02 -0.60252857756E+02  0.75592666338E+02  0.00000000000E+00 0. -1.
         -2    1    3    3    0  502 -0.38204227755E+02 -0.24985622227E+02 -0.82743933976E+02  0.94500809236E+02  0.00000000000E+00 0.  1.
<mgrwt>
<rscale>  0 0.92107046E+02</rscale>
<asrwt>0</asrwt>
<pdfrwt beam="1">  1        1 0.20843605E-02 0.92107046E+02</pdfrwt>
<pdfrwt beam="2">  1       -1 0.24083865E-01 0.92107046E+02</pdfrwt>
<totfact> 0.72105575E+04</totfact>
</mgrwt>
</event>
<event>
 4    1  0.3854342E+001  0.1318517E+03  0.7546771E-02  0.1224734E+00
         -2   -1    0    0    0  501 -0.00000000000E+00  0.00000000000E+00  0.10666351145E+03  0.10666351145E+03  0.00000000000E+00 0.  1.
          2   -1    0    0  501    0  0.00000000000E+00 -0.00000000000E+00 -0.40746989140E+02  0.40746989140E+02  0.00000000000E+00 0. -1.
          2    1    1    2  502    0  0.62334868845E+02  0.12668454756E+02  0.13590944909E+02  0.65044902978E+02  0.00000000000E+00 0. -1.
         -2    1    1    2    0  502 -0.62334868845E+02 -0.12668454756E+02  0.52325577404E+02  0.82365597615E+02  0.00000000000E+00 0.  1.
<mgrwt>
<rscale>  0 0.13185169E+03</rscale>
<asrwt>0</asrwt>
<pdfrwt beam="2">  1        2 0.62687676E-02 0.13185169E+03</pdfrwt>
<pdfrwt beam="1">  1       -2 0.16409771E-01 0.13185169E+03</pdfrwt>
<totfact> 0.31368713E+04</totfact>
</mgrwt>
</event>
<event>
 5    1  0.3854342E+001  0.9103599E+02  0.7546771E-02  0.1300362E+00
          3   -1    0    0  501    0  0.00000000000E+00  0.00000000000E+00  0.20522008140E+03  0.20522008140E+03  0.00000000000E+00 0. -1.
         -3   -1    0    0    0  501 -0.00000000000E+00 -0.00000000000E+00 -0.10095931351E+02  0.10095931351E+02  0.00000000000E+00 0.  1.
         23    2    1    2    0    0  0.00000000000E+00  0.00000000000E+00  0.19512415005E+03  0.21531601275E+03  0.91035989668E+02 0.  0.
          2    1    3    3  502    0 -0.42839411880E+02  0.12590600543E+02  0.11847072992E+03  0.12660589355E+03  0.00000000000E+00 0. -1.
         -2    1    3    3    0  502  0.42839411880E+02 -0.12590600543E+02  0.76653420121E+02  0.88710119200E+02  0.00000000000E+00 0.  1.
<mgrwt>
<rscale>  0 0.91035990E+02</rscale>
<asrwt>0</asrwt>
<pdfrwt beam="1">  1        3 0.31572317E-01 0.91035990E+02</pdfrwt>
<pdfrwt beam="2">  1       -3 0.15532204E-02 0.91035990E+02</pdfrwt>
<totfact> 0.27841608E+04</totfact>
</mgrwt>
</event>
<event>
 5    1  0.3854342E+001  0.9297800E+02  0.7546771E-02  0.1295796E+00
         -3   -1    0    0    0  501 -0.00000000000E+00  0.00000000000E+00  0.26824437333E+03  0.26824437333E+03  0.00000000000E+00 0.  1.
          3   -1    0    0  501    0  0.00000000000E+00 -0.00000000000E+00 -0.80569344988E+01  0.80569344988E+01  0.00000000000E+00 0. -1.
         23    2    1    2    0    0  0.00000000000E+00  0.00000000000E+00  0.26018743883E+03  0.27630130783E+03  0.92978004831E+02 0.  0.
          2    1    3    3  502    0 -0.17690445022E+02 -0.27302936175E+02  0.31407604026E+02  0.45219904461E+02  0.00000000000E+00 0. -1.
         -2    1    3    3    0  502  0.17690445022E+02  0.27302936175E+02  0.22877983481E+03  0.23108140337E+03  0.00000000000E+00 0.  1.
<mgrwt>
<rscale>  0 0.92978005E+02</rscale>
<asrwt>0</asrwt>
<pdfrwt beam="2">  1        3 0.12395286E-02 0.92978005E+02</pdfrwt>
<pdfrwt beam="1">  1       -3 0.41268358E-01 0.92978005E+02</pdfrwt>
<totfact> 0.23690312E+04</totfact>
</mgrwt>
</event>
<event>
 5    1  0.3854342E+001  0.9156583E+02  0.7546771E-02  0.1299104E+00
         -2   -1    0    0    0  501 -0.00000000000E+00  0.00000000000E+00  0.80127173714E+01  0.80127173714E+01  0.00000000000E+00 0.  1.
          2   -1    0    0  501    0  0.00000000000E+00 -0.00000000000E+00 -0.26159356518E+03  0.26159356518E+03  0.00000000000E+00 0. -1.
         23    2    1    2    0    0  0.00000000000E+00  0.00000000000E+00 -0.25358084781E+03  0.26960628255E+03  0.91565829958E+02 0.  0.
          2    1    3    3  502    0  0.14251630754E+02  0.43457639133E+02 -0.13296659397E+03  0.14061219894E+03  0.00000000000E+00 0. -1.
         -2    1    3    3    0  502 -0.14251630754E+02 -0.43457639133E+02 -0.12061425383E+03  0.12899408361E+03  0.00000000000E+00 0.  1.
<mgrwt>
<rscale>  0 0.91565830E+02</rscale>
<asrwt>0</asrwt>
<pdfrwt beam="2">  1        2 0.40245159E-01 0.91565830E+02</pdfrwt>
<pdfrwt beam="1">  1       -2 0.12327259E-02 0.91565830E+02</pdfrwt>
<totfact> 0.16877515E+05</totfact>
</mgrwt>
</event>
<event>
 5    1  0.3854342E+001  0.9426863E+02  0.7546771E-02  0.1292832E+00
         -1   -1    0    0    0  501 -0.00000000000E+00  0.00000000000E+00  0.12790929650E+03  0.12790929650E+03  0.00000000000E+00 0.  1.
          1   -1    0    0  501    0  0.00000000000E+00 -0.00000000000E+00 -0.17368899418E+02  0.17368899418E+02  0.00000000000E+00 0. -1.
         23    2    1    2    0    0  0.00000000000E+00  0.00000000000E+00  0.11054039708E+03  0.14527819592E+03  0.94268631168E+02 0.  0.
          2    1    3    3  502    0  0.26613495179E+02 -0.13166789099E+02 -0.11436642680E+01  0.29714481802E+02  0.00000000000E+00 0. -1.
         -2    1    3    3    0  502 -0.26613495179E+02  0.13166789099E+02  0.11168406135E+03  0.11556371412E+03  0.00000000000E+00 0.  1.
<mgrwt>
<rscale>  0 0.94268631E+02</rscale>
<asrwt>0</asrwt>
<pdfrwt beam="2">  1        1 0.26721385E-02 0.94268631E+02</pdfrwt>
<pdfrwt beam="1">  1       -1 0.19678353E-01 0.94268631E+02</pdfrwt>
<totfact> 0.71074562E+04</totfact>
</mgrwt>
</event>
<event>
 5    1  0.3854342E+001  0.9063198E+02  0.7546771E-02  0.1301328E+00
          1   -1    0    0  501    0  0.00000000000E+00  0.00000000000E+00  0.39424248824E+03  0.39424248824E+03  0.00000000000E+00 0. -1.
         -1   -1    0    0    0  501 -0.00000000000E+00 -0.00000000000E+00 -0.52088221140E+01  0.52088221140E+01  0.00000000000E+00 0.  1.
         23    2    1    2    0    0  0.00000000000E+00  0.00000000000E+00  0.38903366612E+03  0.39945131035E+03  0.90631980912E+02 0.  0.
          2    1    3    3  502    0  0.19069094994E+02 -0.11990245591E+02  0.36782026112E+03  0.36850934976E+03  0.00000000000E+00 0. -1.
         -2    1    3    3    0  502 -0.19069094994E+02  0.11990245591E+02  0.21213405007E+02  0.30941960591E+02  0.00000000000E+00 0.  1.
<mgrwt>
<rscale>  0 0.90631981E+02</rscale>
<asrwt>0</asrwt>
<pdfrwt beam="1">  1        1 0.60652667E-01 0.90631981E+02</pdfrwt>
<pdfrwt beam="2">  1       -1 0.80135756E-03 0.90631981E+02</pdfrwt>
<totfact> 0.13672756E+05</totfact>
</mgrwt>
</event>
<event>
 5    1  0.3854342E+001  0.9028038E+02  0.7546771E-02  0.1302174E+00
         -2   -1    0    0    0  501 -0.00000000000E+00  0.00000000000E+00  0.11240858031E+01  0.11240858031E+01  0.00000000000E+00 0.  1.
          2   -1    0    0  501    0  0.00000000000E+00 -0.00000000000E+00 -0.18127056442E+04  0.18127056442E+04  0.00000000000E+00 0. -1.
         23    2    1    2    0    0  0.00000000000E+00  0.00000000000E+00 -0.18115815584E+04  0.18138297300E+04  0.90280378372E+02 0.  0.
          2    1    3    3  502    0  0.30249613803E+02  0.32581883441E+02 -0.10627307654E+04  0.10636603302E+04  0.00000000000E+00 0. -1.
         -2    1    3    3    0  502 -0.30249613803E+02 -0.32581883441E+02 -0.74885079298E+03  0.75016939981E+03  0.00000000000E+00 0.  1.
<mgrwt>
<rscale>  0 0.90280378E+02</rscale>
<asrwt>0</asrwt>
<pdfrwt beam="2">  1        2 0.27887757E+00 0.90280378E+02</pdfrwt>
<pdfrwt beam="1">  1       -2 0.17293641E-03 0.90280378E+02</pdfrwt>
<totfact> 0.21891063E+05</totfact>
</mgrwt>
</event>
<event>
 5    1  0.3854342E+001  0.8889596E+02  0.7546771E-02  0.1305548E+00
          1   -1    0    0  501    0  0.00000000000E+00  0.00000000000E+00  0.98703580906E+01  0.98703580906E+01  0.00000000000E+00 0. -1.
         -1   -1    0    0    0  501 -0.00000000000E+00 -0.00000000000E+00 -0.20015715045E+03  0.20015715045E+03  0.00000000000E+00 0.  1.
         23    2    1    2    0    0  0.00000000000E+00  0.00000000000E+00 -0.19028679236E+03  0.21002750854E+03  0.88895956023E+02 0.  0.
          2    1    3    3  502    0  0.43380102535E+02 -0.34954012009E+01 -0.11648188844E+03  0.12434661821E+03  0.00000000000E+00 0.  1.
         -2    1    3    3    0  502 -0.43380102535E+02  0.34954012009E+01 -0.73804903922E+02  0.85680890334E+02  0.00000000000E+00 0. -1.
<mgrwt>
<rscale>  0 0.88895956E+02</rscale>
<asrwt>0</asrwt>
<pdfrwt beam="1">  1        1 0.15185168E-02 0.88895956E+02</pdfrwt>
<pdfrwt beam="2">  1       -1 0.30793405E-01 0.88895956E+02</pdfrwt>
<totfact> 0.74137992E+04</totfact>
</mgrwt>
</event>
<event>
 5    1  0.3854342E+001  0.8995862E+02  0.7546771E-02  0.1302952E+00
          1   -1    0    0  501    0  0.00000000000E+00  0.00000000000E+00  0.10981084263E+04  0.10981084263E+04  0.00000000000E+00 0. -1.
         -1   -1    0    0    0  501 -0.00000000000E+00 -0.00000000000E+00 -0.18423850050E+01  0.18423850050E+01  0.00000000000E+00 0.  1.
         23    2    1    2    0    0  0.00000000000E+00  0.00000000000E+00  0.10962660413E+04  0.10999508113E+04  0.89958623788E+02 0.  0.
          2    1    3    3  502    0 -0.34739771752E+02 -0.75044003769E+01  0.88520984603E+03  0.88592304365E+03  0.00000000000E+00 0. -1.
         -2    1    3    3    0  502  0.34739771752E+02  0.75044003769E+01  0.21105619525E+03  0.21402776763E+03  0.00000000000E+00 0.  1.
<mgrwt>
<rscale>  0 0.89958624E+02</rscale>
<asrwt>0</asrwt>
<pdfrwt beam="1">  1        1 0.16893924E+00 0.89958624E+02</pdfrwt>
<pdfrwt beam="2">  1       -1 0.28344472E-03 0.89958624E+02</pdfrwt>
<totfact> 0.13686319E+05</totfact>
</mgrwt>
</event>
<event>
 5    1  0.3854342E+001  0.9133921E+02  0.7546771E-02  0.1299641E+00
          1   -1    0    0  501    0  0.00000000000E+00  0.00000000000E+00  0.66035050379E+03  0.66035050379E+03  0.00000000000E+00 0. -1.
         -1   -1    0    0    0  501 -0.00000000000E+00 -0.00000000000E+00 -0.31584934381E+01  0.31584934381E+01  0.00000000000E+00 0.  1.
         23    2    1    2    0    0  0.00000000000E+00  0.00000000000E+00  0.65719201035E+03  0.66350899723E+03  0.91339208078E+02 0.  0.
          2    1    3    3  502    0 -0.10753218887E+02  0.44210932166E+02  0.30002024464E+03  0.30345079574E+03  0.00000000000E+00 0.  1.
         -2    1    3    3    0  502  0.10753218887E+02 -0.44210932166E+02  0.35717176571E+03  0.36005820149E+03  0.00000000000E+00 0. -1.
<mgrwt>
<rscale>  0 0.91339208E+02</rscale>
<asrwt>0</asrwt>
<pdfrwt beam="1">  1        1 0.10159228E+00 0.91339208E+02</pdfrwt>
<pdfrwt beam="2">  1       -1 0.48592259E-03 0.91339208E+02</pdfrwt>
<totfact> 0.14146507E+05</totfact>
</mgrwt>
</event>
<event>
 5    1  0.3854342E+001  0.9139347E+02  0.7546771E-02  0.1299512E+00
          1   -1    0    0  501    0  0.00000000000E+00  0.00000000000E+00  0.47278226766E+03  0.47278226766E+03  0.00000000000E+00 0. -1.
         -1   -1    0    0    0  501 -0.00000000000E+00 -0.00000000000E+00 -0.44168146828E+01  0.44168146828E+01  0.00000000000E+00 0.  1.
         23    2    1    2    0    0  0.00000000000E+00  0.00000000000E+00  0.46836545297E+03  0.47719908234E+03  0.91393471573E+02 0.  0.
          2    1    3    3  502    0 -0.17441680021E+02 -0.40074290843E+02  0.30385048573E+03  0.30697765174E+03  0.00000000000E+00 0. -1.
         -2    1    3    3    0  502  0.17441680021E+02  0.40074290843E+02  0.16451496724E+03  0.17022143060E+03  0.00000000000E+00 0.  1.
<mgrwt>
<rscale>  0 0.91393472E+02</rscale>
<asrwt>0</asrwt>
<pdfrwt beam="1">  1        1 0.72735694E-01 0.91393472E+02</pdfrwt>
<pdfrwt beam="2">  1       -1 0.67951032E-03 0.91393472E+02</pdfrwt>
<totfact> 0.13742527E+05</totfact>
</mgrwt>
</event>
<event>
 5    1  0.3854342E+001  0.9396836E+02  0.7546771E-02  0.1293517E+00
         -1   -1    0    0    0  501 -0.00000000000E+00  0.00000000000E+00  0.39378566853E+01  0.39378566853E+01  0.00000000000E+00 0.  1.
          1   -1    0    0  501    0  0.00000000000E+00 -0.00000000000E+00 -0.56058745654E+03  0.56058745654E+03  0.00000000000E+00 0. -1.
         23    2    1    2    0    0  0.00000000000E+00  0.00000000000E+00 -0.55664959986E+03  0.56452531323E+03  0.93968357727E+02 0.  0.
          2    1    3    3  502    0 -0.20692621076E+02  0.33166281410E+02 -0.12174310510E+03  0.12786543876E+03  0.00000000000E+00 0.  1.
         -2    1    3    3    0  502  0.20692621076E+02 -0.33166281410E+02 -0.43490649475E+03  0.43665987446E+03  0.00000000000E+00 0. -1.
<mgrwt>
<rscale>  0 0.93968358E+02</rscale>
<asrwt>0</asrwt>
<pdfrwt beam="2">  1        1 0.86244245E-01 0.93968358E+02</pdfrwt>
<pdfrwt beam="1">  1       -1 0.60582396E-03 0.93968358E+02</pdfrwt>
<totfact> 0.13006340E+05</totfact>
</mgrwt>
</event>
<event>
 5    1  0.3854342E+001  0.9350598E+02  0.7546771E-02  0.1294577E+00
          2   -1    0    0  501    0  0.00000000000E+00  0.00000000000E+00  0.83021498688E+01  0.83021498688E+01  0.00000000000E+00 0. -1.
         -2   -1    0    0    0  501 -0.00000000000E+00 -0.00000000000E+00 -0.26328628971E+03  0.26328628971E+03  0.00000000000E+00 0.  1.
         23    2    1    2    0    0  0.00000000000E+00  0.00000000000E+00 -0.25498413984E+03  0.27158843958E+03  0.93505983457E+02 0.  0.
          2    1    3    3  502    0  0.38008630836E+02 -0.23442040263E+02 -0.16770207998E+03  0.17354588125E+03  0.00000000000E+00 0. -1.
         -2    1    3    3    0  502 -0.38008630836E+02  0.23442040263E+02 -0.87282059856E+02  0.98042558322E+02  0.00000000000E+00 0.  1.
<mgrwt>
<rscale>  0 0.93505983E+02</rscale>
<asrwt>0</asrwt>
<pdfrwt beam="1">  1        2 0.12772542E-02 0.93505983E+02</pdfrwt>
<pdfrwt beam="2">  1       -2 0.40505572E-01 0.93505983E+02</pdfrwt>
<totfact> 0.51281565E+04</totfact>
</mgrwt>
</event>
<event>
 5    1  0.3854342E+001  0.8908231E+02  0.7546771E-02  0.1305089E+00
         -2   -1    0    0    0  501 -0.00000000000E+00  0.00000000000E+00  0.42171422457E+01  0.42171422457E+01  0.00000000000E+00 0.  1.
          2   -1    0    0  501    0  0.00000000000E+00 -0.00000000000E+00 -0.47044047455E+03  0.47044047455E+03  0.00000000000E+00 0. -1.
         23    2    1    2    0    0  0.00000000000E+00  0.00000000000E+00 -0.46622333231E+03  0.47465761680E+03  0.89082307992E+02 0.  0.
          2    1    3    3  502    0 -0.44514441687E+01 -0.38723936053E+02 -0.34795557000E+03  0.35013202835E+03  0.00000000000E+00 0. -1.
         -2    1    3    3    0  502  0.44514441687E+01  0.38723936053E+02 -0.11826776230E+03  0.12452558845E+03  0.00000000000E+00 0.  1.
<mgrwt>
<rscale>  0 0.89082308E+02</rscale>
<asrwt>0</asrwt>
<pdfrwt beam="2">  1        2 0.72375494E-01 0.89082308E+02</pdfrwt>
<pdfrwt beam="1">  1       -2 0.64879079E-03 0.89082308E+02</pdfrwt>
<totfact> 0.22458724E+05</totfact>
</mgrwt>
</event>
<event>
 5    1  0.3854342E+001  0.9178296E+02  0.7546771E-02  0.1298591E+00
         -1   -1    0    0    0  501 -0.00000000000E+00  0.00000000000E+00  0.10102031773E+01  0.10102031773E+01  0.00000000000E+00 0.  1.
          1   -1    0    0  501    0  0.00000000000E+00 -0.00000000000E+00 -0.20847568467E+04  0.20847568467E+04  0.00000000000E+00 0. -1.
         23    2    1    2    0    0  0.00000000000E+00  0.00000000000E+00 -0.20837466435E+04  0.20857670499E+04  0.91782961175E+02 0.  0.
          2    1    3    3  502    0  0.29954770871E+02 -0.50861210952E+01 -0.18234515289E+04  0.18237046458E+04  0.00000000000E+00 0. -1.
         -2    1    3    3    0  502 -0.29954770871E+02  0.50861210952E+01 -0.26029511467E+03  0.26206240410E+03  0.00000000000E+00 0.  1.
<mgrwt>
<rscale>  0 0.91782961E+02</rscale>
<asrwt>0</asrwt>
<pdfrwt beam="2">  1        1 0.32072857E+00 0.91782961E+02</pdfrwt>
<pdfrwt beam="1">  1       -1 0.15541745E-03 0.91782961E+02</pdfrwt>
<totfact> 0.73406934E+04</totfact>
</mgrwt>
</event>
<event>
 5    1  0.3854342E+001  0.8201464E+02  0.7546771E-02  0.1323429E+00
         -2   -1    0    0    0  501 -0.00000000000E+00  0.00000000000E+00  0.22149788465E+03  0.22149788465E+03  0.00000000000E+00 0. -1.
          2   -1    0    0  501    0  0.00000000000E+00 -0.00000000000E+00 -0.75919475574E+01  0.75919475574E+01  0.00000000000E+00 0.  1.
         23    2    1    2    0    0  0.00000000000E+00  0.00000000000E+00  0.21390593710E+03  0.22908983221E+03  0.82014640751E+02 0.  0.
          2    1    3    3  502    0  0.71173875367E+01  0.28753114232E+02  0.18616604447E+03  0.18850781124E+03  0.00000000000E+00 0. -1.
         -2    1    3    3    0  502 -0.71173875367E+01 -0.28753114232E+02  0.27739892622E+02  0.40582020971E+02  0.00000000000E+00 0.  1.
<mgrwt>
<rscale>  0 0.82014641E+02</rscale>
<asrwt>0</asrwt>
<pdfrwt beam="2">  1        2 0.11679921E-02 0.82014641E+02</pdfrwt>
<pdfrwt beam="1">  1       -2 0.34076593E-01 0.82014641E+02</pdfrwt>
<totfact> 0.78025578E+04</totfact>
</mgrwt>
</event>
<event>
 5    1  0.3854342E+001  0.1057867E+03  0.7546771E-02  0.1268577E+00
         -1   -1    0    0    0  501 -0.00000000000E+00  0.00000000000E+00  0.57125945587E+01  0.57125945587E+01  0.00000000000E+00 0.  1.
          1   -1    0    0  501    0  0.00000000000E+00 -0.00000000000E+00 -0.48974401322E+03  0.48974401322E+03  0.00000000000E+00 0. -1.
         23    2    1    2    0    0  0.00000000000E+00  0.00000000000E+00 -0.48403141866E+03  0.49545660778E+03  0.10578674747E+03 0.  0.
          2    1    3    3  502    0 -0.23298878475E+02 -0.40829345101E+02 -0.35556969588E+03  0.35866374474E+03  0.00000000000E+00 0. -1.
         -2    1    3    3    0  502  0.23298878475E+02  0.40829345101E+02 -0.12846172278E+03  0.13679286304E+03  0.00000000000E+00 0.  1.
<mgrwt>
<rscale>  0 0.10578675E+03</rscale>
<asrwt>0</asrwt>
<pdfrwt beam="2">  1        1 0.75345246E-01 0.10578675E+03</pdfrwt>
<pdfrwt beam="1">  1       -1 0.87886055E-03 0.10578675E+03</pdfrwt>
<totfact> 0.93411238E+04</totfact>
</mgrwt>
</event>
<event>
 5    1  0.3854342E+001  0.8876554E+02  0.7546771E-02  0.1305869E+00
         -2   -1    0    0    0  501 -0.00000000000E+00  0.00000000000E+00  0.99189069755E+01  0.99189069755E+01  0.00000000000E+00 0. -1.
          2   -1    0    0  501    0  0.00000000000E+00 -0.00000000000E+00 -0.19859347121E+03  0.19859347121E+03  0.00000000000E+00 0.  1.
         23    2    1    2    0    0  0.00000000000E+00  0.00000000000E+00 -0.18867456423E+03  0.20851237818E+03  0.88765537611E+02 0.  0.
          2    1    3    3  502    0 -0.41111487055E+02  0.15126534681E+02 -0.77584319042E+02  0.89097098609E+02  0.00000000000E+00 0. -1.
         -2    1    3    3    0  502  0.41111487055E+02 -0.15126534681E+02 -0.11109024519E+03  0.11941527957E+03  0.00000000000E+00 0.  1.
<mgrwt>
<rscale>  0 0.88765538E+02</rscale>
<asrwt>0</asrwt>
<pdfrwt beam="2">  1        2 0.30552842E-01 0.88765538E+02</pdfrwt>
<pdfrwt beam="1">  1       -2 0.15259857E-02 0.88765538E+02</pdfrwt>
<totfact> 0.16580567E+05</totfact>
</mgrwt>
</event>
<event>
 5    1  0.3854342E+001  0.8661891E+02  0.7546771E-02  0.1311252E+00
          1   -1    0    0  501    0  0.00000000000E+00  0.00000000000E+00  0.75991952547E+02  0.75991952547E+02  0.00000000000E+00 0. -1.
         -1   -1    0    0    0  501 -0.00000000000E+00 -0.00000000000E+00 -0.24682994928E+02  0.24682994928E+02  0.00000000000E+00 0.  1.
         23    2    1    2    0    0  0.00000000000E+00  0.00000000000E+00  0.51308957619E+02  0.10067494748E+03  0.86618912006E+02 0.  0.
          2    1    3    3  502    0  0.29346098373E+02  0.21855592551E+02  0.52584369160E+02  0.64062284501E+02  0.00000000000E+00 0. -1.
         -2    1    3    3    0  502 -0.29346098373E+02 -0.21855592551E+02 -0.12754115406E+01  0.36612662974E+02  0.00000000000E+00 0.  1.
<mgrwt>
<rscale>  0 0.86618912E+02</rscale>
<asrwt>0</asrwt>
<pdfrwt beam="1">  1        1 0.11691070E-01 0.86618912E+02</pdfrwt>
<pdfrwt beam="2">  1       -1 0.37973839E-02 0.86618912E+02</pdfrwt>
<totfact> 0.11499619E+05</totfact>
</mgrwt>
</event>
<event>
 5    1  0.3854342E+001  0.9083473E+02  0.7546771E-02  0.1300843E+00
          2   -1    0    0  501    0  0.00000000000E+00  0.00000000000E+00  0.18390546875E+04  0.18390546875E+04  0.00000000000E+00 0. -1.
         -2   -1    0    0    0  501 -0.00000000000E+00 -0.00000000000E+00 -0.11216289273E+01  0.11216289273E+01  0.00000000000E+00 0.  1.
         23    2    1    2    0    0  0.00000000000E+00  0.00000000000E+00  0.18379330586E+04  0.18401763165E+04  0.90834727642E+02 0.  0.
          2    1    3    3  502    0 -0.38155261987E+02  0.19757238375E+02  0.12170933873E+04  0.12178515861E+04  0.00000000000E+00 0. -1.
         -2    1    3    3    0  502  0.38155261987E+02 -0.19757238375E+02  0.62083967134E+03  0.62232473034E+03  0.00000000000E+00 0.  1.
<mgrwt>
<rscale>  0 0.90834728E+02</rscale>
<asrwt>0</asrwt>
<pdfrwt beam="1">  1        2 0.28292908E+00 0.90834728E+02</pdfrwt>
<pdfrwt beam="2">  1       -2 0.17255977E-03 0.90834728E+02</pdfrwt>
<totfact> 0.21316477E+05</totfact>
</mgrwt>
</event>
<event>
 5    1  0.3854342E+001  0.9027772E+02  0.7546771E-02  0.1302181E+00
         -1   -1    0    0    0  501 -0.00000000000E+00  0.00000000000E+00  0.30582482884E+02  0.30582482884E+02  0.00000000000E+00 0.  1.
          1   -1    0    0  501    0  0.00000000000E+00 -0.00000000000E+00 -0.66623658147E+02  0.66623658147E+02  0.00000000000E+00 0. -1.
         23    2    1    2    0    0  0.00000000000E+00  0.00000000000E+00 -0.36041175263E+02  0.97206141031E+02  0.90277724493E+02 0.  0.
          2    1    3    3  502    0 -0.55679283522E+01 -0.44680696746E+02 -0.14590109818E+02  0.47331150338E+02  0.00000000000E+00 0. -1.
         -2    1    3    3    0  502  0.55679283522E+01  0.44680696746E+02 -0.21451065446E+02  0.49874990693E+02  0.00000000000E+00 0.  1.
<mgrwt>
<rscale>  0 0.90277724E+02</rscale>
<asrwt>0</asrwt>
<pdfrwt beam="2">  1        1 0.10249793E-01 0.90277724E+02</pdfrwt>
<pdfrwt beam="1">  1       -1 0.47049974E-02 0.90277724E+02</pdfrwt>
<totfact> 0.10063397E+05</totfact>
</mgrwt>
</event>
<event>
 5    1  0.3854342E+001  0.9160468E+02  0.7546771E-02  0.1299012E+00
          2   -1    0    0  501    0  0.00000000000E+00  0.00000000000E+00  0.19427923931E+03  0.19427923931E+03  0.00000000000E+00 0. -1.
         -2   -1    0    0    0  501 -0.00000000000E+00 -0.00000000000E+00 -0.10798138865E+02  0.10798138865E+02  0.00000000000E+00 0.  1.
         23    2    1    2    0    0  0.00000000000E+00  0.00000000000E+00  0.18348110044E+03  0.20507737817E+03  0.91604676837E+02 0.  0.
          2    1    3    3  502    0  0.22627725159E+02 -0.63236105967E+01  0.17976110365E+03  0.18128997872E+03  0.00000000000E+00 0. -1.
         -2    1    3    3    0  502 -0.22627725159E+02  0.63236105967E+01  0.37199967936E+01  0.23787399459E+02  0.00000000000E+00 0.  1.
<mgrwt>
<rscale>  0 0.91604677E+02</rscale>
<asrwt>0</asrwt>
<pdfrwt beam="1">  1        2 0.29889111E-01 0.91604677E+02</pdfrwt>
<pdfrwt beam="2">  1       -2 0.16612523E-02 0.91604677E+02</pdfrwt>
<totfact> 0.15114784E+05</totfact>
</mgrwt>
</event>
<event>
 5    1  0.3854342E+001  0.9019242E+02  0.7546771E-02  0.1302386E+00
          2   -1    0    0  501    0  0.00000000000E+00  0.00000000000E+00  0.52615237252E+02  0.52615237252E+02  0.00000000000E+00 0.  1.
         -2   -1    0    0    0  501 -0.00000000000E+00 -0.00000000000E+00 -0.38651692717E+02  0.38651692717E+02  0.00000000000E+00 0. -1.
         23    2    1    2    0    0  0.00000000000E+00  0.00000000000E+00  0.13963544535E+02  0.91266929969E+02  0.90192416144E+02 0.  0.
          2    1    3    3  502    0 -0.83710593297E+01  0.18771206976E+02 -0.33636634343E+02  0.39418980397E+02  0.00000000000E+00 0. -1.
         -2    1    3    3    0  502  0.83710593297E+01 -0.18771206976E+02  0.47600178877E+02  0.51847949572E+02  0.00000000000E+00 0.  1.
<mgrwt>
<rscale>  0 0.90192416E+02</rscale>
<asrwt>0</asrwt>
<pdfrwt beam="1">  1        2 0.80946519E-02 0.90192416E+02</pdfrwt>
<pdfrwt beam="2">  1       -2 0.59464142E-02 0.90192416E+02</pdfrwt>
<totfact> 0.10564171E+05</totfact>
</mgrwt>
</event>
<event>
 5    1  0.3854342E+001  0.9205117E+02  0.7546771E-02  0.1297959E+00
          3   -1    0    0  501    0  0.00000000000E+00  0.00000000000E+00  0.23284504496E+01  0.23284504496E+01  0.00000000000E+00 0. -1.
         -3   -1    0    0    0  501 -0.00000000000E+00 -0.00000000000E+00 -0.90977012351E+03  0.90977012351E+03  0.00000000000E+00 0.  1.
         23    2    1    2    0    0  0.00000000000E+00  0.00000000000E+00 -0.90744167306E+03  0.91209857396E+03  0.92051173879E+02 0.  0.
          2    1    3    3  502    0  0.52721054834E+01  0.32369614465E+02 -0.13375308221E+03  0.13771519174E+03  0.00000000000E+00 0. -1.
         -2    1    3    3    0  502 -0.52721054834E+01 -0.32369614465E+02 -0.77368859085E+03  0.77438338222E+03  0.00000000000E+00 0.  1.
<mgrwt>
<rscale>  0 0.92051174E+02</rscale>
<asrwt>0</asrwt>
<pdfrwt beam="1">  1        3 0.35822265E-03 0.92051174E+02</pdfrwt>
<pdfrwt beam="2">  1       -3 0.13996483E+00 0.92051174E+02</pdfrwt>
<totfact> 0.10671945E+04</totfact>
</mgrwt>
</event>
<event>
 5    1  0.3854342E+001  0.8956257E+02  0.7546771E-02  0.1303914E+00
         -1   -1    0    0    0  501 -0.00000000000E+00  0.00000000000E+00  0.17800280492E+02  0.17800280492E+02  0.00000000000E+00 0.  1.
          1   -1    0    0  501    0  0.00000000000E+00 -0.00000000000E+00 -0.11265909668E+03  0.11265909668E+03  0.00000000000E+00 0. -1.
         23    2    1    2    0    0  0.00000000000E+00  0.00000000000E+00 -0.94858816184E+02  0.13045937717E+03  0.89562570773E+02 0.  0.
          2    1    3    3  502    0 -0.25355053863E+02  0.16092341262E+02 -0.95817568692E+02  0.10041338892E+03  0.00000000000E+00 0. -1.
         -2    1    3    3    0  502  0.25355053863E+02 -0.16092341262E+02  0.95875250799E+00  0.30045988252E+02  0.00000000000E+00 0.  1.
<mgrwt>
<rscale>  0 0.89562571E+02</rscale>
<asrwt>0</asrwt>
<pdfrwt beam="2">  1        1 0.17332169E-01 0.89562571E+02</pdfrwt>
<pdfrwt beam="1">  1       -1 0.27385047E-02 0.89562571E+02</pdfrwt>
<totfact> 0.11186197E+05</totfact>
</mgrwt>
</event>
<event>
 5    1  0.3854342E+001  0.8950981E+02  0.7546771E-02  0.1304043E+00
         -2   -1    0    0    0  501 -0.00000000000E+00  0.00000000000E+00  0.21487565959E+01  0.21487565959E+01  0.00000000000E+00 0.  1.
          2   -1    0    0  501    0  0.00000000000E+00 -0.00000000000E+00 -0.93216773149E+03  0.93216773149E+03  0.00000000000E+00 0. -1.
         23    2    1    2    0    0  0.00000000000E+00  0.00000000000E+00 -0.93001897489E+03  0.93431648809E+03  0.89509810894E+02 0.  0.
          2    1    3    3  502    0 -0.14111910618E+02 -0.28382029379E+02 -0.79481459571E+03  0.79544636976E+03  0.00000000000E+00 0. -1.
         -2    1    3    3    0  502  0.14111910618E+02  0.28382029379E+02 -0.13520437919E+03  0.13887011833E+03  0.00000000000E+00 0.  1.
<mgrwt>
<rscale>  0 0.89509811E+02</rscale>
<asrwt>0</asrwt>
<pdfrwt beam="2">  1        2 0.14341045E+00 0.89509811E+02</pdfrwt>
<pdfrwt beam="1">  1       -2 0.33057788E-03 0.89509811E+02</pdfrwt>
<totfact> 0.26120722E+05</totfact>
</mgrwt>
</event>
<event>
 5    1  0.3854342E+001  0.9121678E+02  0.7546771E-02  0.1299932E+00
         -1   -1    0    0    0  501 -0.00000000000E+00  0.00000000000E+00  0.30996060794E+02  0.30996060794E+02  0.00000000000E+00 0.  1.
          1   -1    0    0  501    0  0.00000000000E+00 -0.00000000000E+00 -0.67109345936E+02  0.67109345936E+02  0.00000000000E+00 0. -1.
         23    2    1    2    0    0  0.00000000000E+00  0.00000000000E+00 -0.36113285142E+02  0.98105406731E+02  0.91216782809E+02 0.  0.
          2    1    3    3  502    0 -0.37368208175E+02  0.59224588854E+01 -0.45448977231E+02  0.59136012994E+02  0.00000000000E+00 0. -1.
         -2    1    3    3    0  502  0.37368208175E+02 -0.59224588854E+01  0.93356920887E+01  0.38969393737E+02  0.00000000000E+00 0.  1.
<mgrwt>
<rscale>  0 0.91216783E+02</rscale>
<asrwt>0</asrwt>
<pdfrwt beam="2">  1        1 0.10324515E-01 0.91216783E+02</pdfrwt>
<pdfrwt beam="1">  1       -1 0.47686248E-02 0.91216783E+02</pdfrwt>
<totfact> 0.97910213E+04</totfact>
</mgrwt>
</event>
<event>
 5    1  0.3854342E+001  0.9015643E+02  0.7546771E-02  0.1302473E+00
          1   -1    0    0  501    0  0.00000000000E+00  0.00000000000E+00  0.55857636107E+01  0.55857636107E+01  0.00000000000E+00 0. -1.
         -1   -1    0    0    0  501 -0.00000000000E+00 -0.00000000000E+00 -0.36379007974E+03  0.36379007974E+03  0.00000000000E+00 0.  1.
         23    2    1    2    0    0  0.00000000000E+00  0.00000000000E+00 -0.35820431613E+03  0.36937584335E+03  0.90156428264E+02 0.  0.
          2    1    3    3  502    0 -0.38556103752E+02 -0.15192323899E+02 -0.10642525893E+03  0.11420908712E+03  0.00000000000E+00 0. -1.
         -2    1    3    3    0  502  0.38556103752E+02  0.15192323899E+02 -0.25177905720E+03  0.25516675624E+03  0.00000000000E+00 0.  1.
<mgrwt>
<rscale>  0 0.90156428E+02</rscale>
<asrwt>0</asrwt>
<pdfrwt beam="1">  1        1 0.85934813E-03 0.90156428E+02</pdfrwt>
<pdfrwt beam="2">  1       -1 0.55967712E-01 0.90156428E+02</pdfrwt>
<totfact> 0.57463351E+04</totfact>
</mgrwt>
</event>
<event>
 5    1  0.3854342E+001  0.9294343E+02  0.7546771E-02  0.1295876E+00
          1   -1    0    0  501    0  0.00000000000E+00  0.00000000000E+00  0.61627589670E+03  0.61627589670E+03  0.00000000000E+00 0. -1.
         -1   -1    0    0    0  501 -0.00000000000E+00 -0.00000000000E+00 -0.35043078575E+01  0.35043078575E+01  0.00000000000E+00 0.  1.
         23    2    1    2    0    0  0.00000000000E+00  0.00000000000E+00  0.61277158884E+03  0.61978020456E+03  0.92943433704E+02 0.  0.
          2    1    3    3  502    0 -0.15761460120E+02  0.17633168036E+02  0.57314252085E+03  0.57363028289E+03  0.00000000000E+00 0. -1.
         -2    1    3    3    0  502  0.15761460120E+02 -0.17633168036E+02  0.39629067989E+02  0.46149921666E+02  0.00000000000E+00 0.  1.
<mgrwt>
<rscale>  0 0.92943434E+02</rscale>
<asrwt>0</asrwt>
<pdfrwt beam="1">  1        1 0.94811590E-01 0.92943434E+02</pdfrwt>
<pdfrwt beam="2">  1       -1 0.53912478E-03 0.92943434E+02</pdfrwt>
<totfact> 0.13476488E+05</totfact>
</mgrwt>
</event>
<event>
 5    1  0.3854342E+001  0.9088705E+02  0.7546771E-02  0.1300718E+00
          2   -1    0    0  501    0  0.00000000000E+00  0.00000000000E+00  0.14879316917E+04  0.14879316917E+04  0.00000000000E+00 0. -1.
         -2   -1    0    0    0  501 -0.00000000000E+00 -0.00000000000E+00 -0.13879092014E+01  0.13879092014E+01  0.00000000000E+00 0.  1.
         23    2    1    2    0    0  0.00000000000E+00  0.00000000000E+00  0.14865437825E+04  0.14893196009E+04  0.90887052673E+02 0.  0.
          2    1    3    3  502    0 -0.13412346046E+02 -0.33195992936E+02  0.12018737819E+04  0.12024069414E+04  0.00000000000E+00 0. -1.
         -2    1    3    3    0  502  0.13412346046E+02  0.33195992936E+02  0.28467000059E+03  0.28691265955E+03  0.00000000000E+00 0.  1.
<mgrwt>
<rscale>  0 0.90887053E+02</rscale>
<asrwt>0</asrwt>
<pdfrwt beam="1">  1        2 0.22891129E+00 0.90887053E+02</pdfrwt>
<pdfrwt beam="2">  1       -2 0.21352568E-03 0.90887053E+02</pdfrwt>
<totfact> 0.23866950E+05</totfact>
</mgrwt>
</event>
<event>
 5    1  0.3854342E+001  0.9199684E+02  0.7546771E-02  0.1298087E+00
          1   -1    0    0  501    0  0.00000000000E+00  0.00000000000E+00  0.20334278708E+04  0.20334278708E+04  0.00000000000E+00 0. -1.
         -1   -1    0    0    0  501 -0.00000000000E+00 -0.00000000000E+00 -0.10405357834E+01  0.10405357834E+01  0.00000000000E+00 0.  1.
         23    2    1    2    0    0  0.00000000000E+00  0.00000000000E+00  0.20323873350E+04  0.20344684065E+04  0.91996836088E+02 0.  0.
          2    1    3    3  502    0 -0.34814067557E+00  0.45724410920E+02  0.90559548615E+03  0.90674915357E+03  0.00000000000E+00 0. -1.
         -2    1    3    3    0  502  0.34814067557E+00 -0.45724410920E+02  0.11267918488E+04  0.11277192530E+04  0.00000000000E+00 0.  1.
<mgrwt>
<rscale>  0 0.91996836E+02</rscale>
<asrwt>0</asrwt>
<pdfrwt beam="1">  1        1 0.31283188E+00 0.91996836E+02</pdfrwt>
<pdfrwt beam="2">  1       -1 0.16008406E-03 0.91996836E+02</pdfrwt>
<totfact> 0.75913776E+04</totfact>
</mgrwt>
</event>
<event>
 5    1  0.3854342E+001  0.1043209E+03  0.7546771E-02  0.1271463E+00
          2   -1    0    0  501    0  0.00000000000E+00  0.00000000000E+00  0.15539162620E+04  0.15539162620E+04  0.00000000000E+00 0.  1.
         -2   -1    0    0    0  501 -0.00000000000E+00 -0.00000000000E+00 -0.17508737771E+01  0.17508737771E+01  0.00000000000E+00 0. -1.
         23    2    1    2    0    0  0.00000000000E+00  0.00000000000E+00  0.15521653882E+04  0.15556671358E+04  0.10432087490E+03 0.  0.
          2    1    3    3  502    0 -0.60299135739E+01 -0.45210692378E+02  0.39872574102E+03  0.40132603095E+03  0.00000000000E+00 0. -1.
         -2    1    3    3    0  502  0.60299135739E+01  0.45210692378E+02  0.11534396472E+04  0.11543411048E+04  0.00000000000E+00 0.  1.
<mgrwt>
<rscale>  0 0.10432087E+03</rscale>
<asrwt>0</asrwt>
<pdfrwt beam="1">  1        2 0.23906294E+00 0.10432087E+03</pdfrwt>
<pdfrwt beam="2">  1       -2 0.26936644E-03 0.10432087E+03</pdfrwt>
<totfact> 0.16274182E+05</totfact>
</mgrwt>
</event>
<event>
 5    1  0.3854342E+001  0.8770442E+02  0.7546771E-02  0.1308508E+00
         -1   -1    0    0    0  501 -0.00000000000E+00  0.00000000000E+00  0.66526589629E+03  0.66526589629E+03  0.00000000000E+00 0.  1.
          1   -1    0    0  501    0  0.00000000000E+00 -0.00000000000E+00 -0.28905981082E+01  0.28905981082E+01  0.00000000000E+00 0. -1.
         23    2    1    2    0    0  0.00000000000E+00  0.00000000000E+00  0.66237529819E+03  0.66815649440E+03  0.87704420442E+02 0.  0.
          2    1    3    3  502    0  0.33641827009E+02 -0.28124835320E+02  0.33489998544E+03  0.33775846271E+03  0.00000000000E+00 0. -1.
         -2    1    3    3    0  502 -0.33641827009E+02  0.28124835320E+02  0.32747531274E+03  0.33039803169E+03  0.00000000000E+00 0.  1.
<mgrwt>
<rscale>  0 0.87704420E+02</rscale>
<asrwt>0</asrwt>
<pdfrwt beam="2">  1        1 0.44470793E-03 0.87704420E+02</pdfrwt>
<pdfrwt beam="1">  1       -1 0.10234848E+00 0.87704420E+02</pdfrwt>
<totfact> 0.42555440E+04</totfact>
</mgrwt>
</event>
<event>
 5    1  0.3854342E+001  0.9071624E+02  0.7546771E-02  0.1301126E+00
          2   -1    0    0  501    0  0.00000000000E+00  0.00000000000E+00  0.49632107971E+02  0.49632107971E+02  0.00000000000E+00 0. -1.
         -2   -1    0    0    0  501 -0.00000000000E+00 -0.00000000000E+00 -0.41452182180E+02  0.41452182180E+02  0.00000000000E+00 0.  1.
         23    2    1    2    0    0  0.00000000000E+00  0.00000000000E+00  0.81799257907E+01  0.91084290152E+02  0.90716242903E+02 0.  0.
          2    1    3    3  502    0  0.18456030423E+02 -0.11305959048E+02  0.44112811103E+02  0.49136441389E+02  0.00000000000E+00 0. -1.
         -2    1    3    3    0  502 -0.18456030423E+02  0.11305959048E+02 -0.35932885312E+02  0.41947848763E+02  0.00000000000E+00 0.  1.
<mgrwt>
<rscale>  0 0.90716243E+02</rscale>
<asrwt>0</asrwt>
<pdfrwt beam="1">  1        2 0.76357089E-02 0.90716243E+02</pdfrwt>
<pdfrwt beam="2">  1       -2 0.63772588E-02 0.90716243E+02</pdfrwt>
<totfact> 0.10234948E+05</totfact>
</mgrwt>
</event>
<event>
 5    1  0.3854342E+001  0.9208408E+02  0.7546771E-02  0.1297882E+00
         -1   -1    0    0    0  501 -0.00000000000E+00  0.00000000000E+00  0.17996228647E+01  0.17996228647E+01  0.00000000000E+00 0.  1.
          1   -1    0    0  501    0  0.00000000000E+00 -0.00000000000E+00 -0.11779519407E+04  0.11779519407E+04  0.00000000000E+00 0. -1.
         23    2    1    2    0    0  0.00000000000E+00  0.00000000000E+00 -0.11761523178E+04  0.11797515636E+04  0.92084075627E+02 0.  0.
          2    1    3    3  502    0 -0.30509347528E+02 -0.23191455606E+02 -0.91501386223E+03  0.91581604702E+03  0.00000000000E+00 0. -1.
         -2    1    3    3    0  502  0.30509347528E+02  0.23191455606E+02 -0.26113845561E+03  0.26393551655E+03  0.00000000000E+00 0.  1.
<mgrwt>
<rscale>  0 0.92084076E+02</rscale>
<asrwt>0</asrwt>
<pdfrwt beam="2">  1        1 0.18122303E+00 0.92084076E+02</pdfrwt>
<pdfrwt beam="1">  1       -1 0.27686558E-03 0.92084076E+02</pdfrwt>
<totfact> 0.12507023E+05</totfact>
</mgrwt>
</event>
<event>
 5    1  0.3854342E+001  0.1000893E+03  0.7546771E-02  0.1280108E+00
         -1   -1    0    0    0  501 -0.00000000000E+00  0.00000000000E+00  0.19301956890E+01  0.19301956890E+01  0.00000000000E+00 0.  1.
          1   -1    0    0  501    0  0.00000000000E+00 -0.00000000000E+00 -0.12975187026E+04  0.12975187026E+04  0.00000000000E+00 0. -1.
         23    2    1    2    0    0  0.00000000000E+00  0.00000000000E+00 -0.12955885069E+04  0.12994488983E+04  0.10008926028E+03 0.  0.
          2    1    3    3  502    0 -0.37876280549E+02 -0.13436467746E+02 -0.10349620439E+04  0.10357420449E+04  0.00000000000E+00 0. -1.
         -2    1    3    3    0  502  0.37876280549E+02  0.13436467746E+02 -0.26062646296E+03  0.26370685332E+03  0.00000000000E+00 0.  1.
<mgrwt>
<rscale>  0 0.10008926E+03</rscale>
<asrwt>0</asrwt>
<pdfrwt beam="2">  1        1 0.19961790E+00 0.10008926E+03</pdfrwt>
<pdfrwt beam="1">  1       -1 0.29695372E-03 0.10008926E+03</pdfrwt>
<totfact> 0.95384333E+04</totfact>
</mgrwt>
</event>
<event>
 5    1  0.3854342E+001  0.9051348E+02  0.7546771E-02  0.1301613E+00
          1   -1    0    0  501    0  0.00000000000E+00  0.00000000000E+00  0.38018603052E+03  0.38018603052E+03  0.00000000000E+00 0.  1.
         -1   -1    0    0    0  501 -0.00000000000E+00 -0.00000000000E+00 -0.53872903461E+01  0.53872903461E+01  0.00000000000E+00 0. -1.
         23    2    1    2    0    0  0.00000000000E+00  0.00000000000E+00  0.37479874017E+03  0.38557332086E+03  0.90513480365E+02 0.  0.
          2    1    3    3  502    0  0.12405627820E+02 -0.24347043194E+02  0.33720249576E+02  0.43401997021E+02  0.00000000000E+00 0. -1.
         -2    1    3    3    0  502 -0.12405627820E+02  0.24347043194E+02  0.34107849059E+03  0.34217132384E+03  0.00000000000E+00 0.  1.
<mgrwt>
<rscale>  0 0.90513480E+02</rscale>
<asrwt>0</asrwt>
<pdfrwt beam="1">  1        1 0.58490137E-01 0.90513480E+02</pdfrwt>
<pdfrwt beam="2">  1       -1 0.82881420E-03 0.90513480E+02</pdfrwt>
<totfact> 0.13636752E+05</totfact>
</mgrwt>
</event>
<event>
 5    1  0.3854342E+001  0.9173268E+02  0.7546771E-02  0.1298709E+00
          1   -1    0    0  501    0  0.00000000000E+00  0.00000000000E+00  0.18637951723E+03  0.18637951723E+03  0.00000000000E+00 0. -1.
         -1   -1    0    0    0  501 -0.00000000000E+00 -0.00000000000E+00 -0.11287298073E+02  0.11287298073E+02  0.00000000000E+00 0.  1.
         23    2    1    2    0    0  0.00000000000E+00  0.00000000000E+00  0.17509221916E+03  0.19766681531E+03  0.91732680453E+02 0.  0.
          2    1    3    3  502    0 -0.25708060638E+02 -0.12837674119E+02  0.16457913619E+03  0.16706885505E+03  0.00000000000E+00 0. -1.
         -2    1    3    3    0  502  0.25708060638E+02  0.12837674119E+02  0.10513082975E+02  0.30597960262E+02  0.00000000000E+00 0.  1.
<mgrwt>
<rscale>  0 0.91732680E+02</rscale>
<asrwt>0</asrwt>
<pdfrwt beam="1">  1        1 0.28673770E-01 0.91732680E+02</pdfrwt>
<pdfrwt beam="2">  1       -1 0.17365075E-02 0.91732680E+02</pdfrwt>
<totfact> 0.11491073E+05</totfact>
</mgrwt>
</event>
<event>
 5    1  0.3854342E+001  0.9194558E+02  0.7546771E-02  0.1298207E+00
         -2   -1    0    0    0  501 -0.00000000000E+00  0.00000000000E+00  0.53771529158E+01  0.53771529158E+01  0.00000000000E+00 0.  1.
          2   -1    0    0  501    0  0.00000000000E+00 -0.00000000000E+00 -0.39305141532E+03  0.39305141532E+03  0.00000000000E+00 0. -1.
         23    2    1    2    0    0  0.00000000000E+00  0.00000000000E+00 -0.38767426241E+03  0.39842856824E+03  0.91945583123E+02 0.  0.
          2    1    3    3  502    0  0.15748099316E+02  0.38207936366E+02 -0.28111307478E+03  0.28413449253E+03  0.00000000000E+00 0. -1.
         -2    1    3    3    0  502 -0.15748099316E+02 -0.38207936366E+02 -0.10656118763E+03  0.11429407571E+03  0.00000000000E+00 0.  1.
<mgrwt>
<rscale>  0 0.91945583E+02</rscale>
<asrwt>0</asrwt>
<pdfrwt beam="2">  1        2 0.60469457E-01 0.91945583E+02</pdfrwt>
<pdfrwt beam="1">  1       -2 0.82725418E-03 0.91945583E+02</pdfrwt>
<totfact> 0.19399682E+05</totfact>
</mgrwt>
</event>
<event>
 5    1  0.3854342E+001  0.8942899E+02  0.7546771E-02  0.1304240E+00
         -2   -1    0    0    0  501 -0.00000000000E+00  0.00000000000E+00  0.26385358540E+02  0.26385358540E+02  0.00000000000E+00 0. -1.
          2   -1    0    0  501    0  0.00000000000E+00 -0.00000000000E+00 -0.75776352567E+02  0.75776352567E+02  0.00000000000E+00 0.  1.
         23    2    1    2    0    0  0.00000000000E+00  0.00000000000E+00 -0.49390994027E+02  0.10216171111E+03  0.89428993762E+02 0.  0.
          2    1    3    3  502    0  0.19914395759E+02  0.13444837817E+02  0.18383504654E+02  0.30253926452E+02  0.00000000000E+00 0. -1.
         -2    1    3    3    0  502 -0.19914395759E+02 -0.13444837817E+02 -0.67774498682E+02  0.71907784655E+02  0.00000000000E+00 0.  1.
<mgrwt>
<rscale>  0 0.89428994E+02</rscale>
<asrwt>0</asrwt>
<pdfrwt beam="2">  1        2 0.11657900E-01 0.89428994E+02</pdfrwt>
<pdfrwt beam="1">  1       -2 0.40592861E-02 0.89428994E+02</pdfrwt>
<totfact> 0.11935156E+05</totfact>
</mgrwt>
</event>
<event>
 5    1  0.3854342E+001  0.8994296E+02  0.7546771E-02  0.1302990E+00
          2   -1    0    0  501    0  0.00000000000E+00  0.00000000000E+00  0.31442570905E+03  0.31442570905E+03  0.00000000000E+00 0. -1.
         -2   -1    0    0    0  501 -0.00000000000E+00 -0.00000000000E+00 -0.64321517633E+01  0.64321517633E+01  0.00000000000E+00 0.  1.
         23    2    1    2    0    0  0.00000000000E+00  0.00000000000E+00  0.30799355729E+03  0.32085786082E+03  0.89942957010E+02 0.  0.
          2    1    3    3  502    0 -0.28418336180E+02 -0.32985316559E+02  0.11382632305E+03  0.12186904759E+03  0.00000000000E+00 0. -1.
         -2    1    3    3    0  502  0.28418336180E+02  0.32985316559E+02  0.19416723424E+03  0.19898881323E+03  0.00000000000E+00 0.  1.
<mgrwt>
<rscale>  0 0.89942957E+02</rscale>
<asrwt>0</asrwt>
<pdfrwt beam="1">  1        2 0.48373174E-01 0.89942957E+02</pdfrwt>
<pdfrwt beam="2">  1       -2 0.98956206E-03 0.89942957E+02</pdfrwt>
<totfact> 0.18957901E+05</totfact>
</mgrwt>
</event>
<event>
 5    1  0.3854342E+001  0.8961798E+02  0.7546771E-02  0.1303779E+00
         -2   -1    0    0    0  501 -0.00000000000E+00  0.00000000000E+00  0.26538089752E+01  0.26538089752E+01  0.00000000000E+00 0.  1.
          2   -1    0    0  501    0  0.00000000000E+00 -0.00000000000E+00 -0.75659010796E+03  0.75659010796E+03  0.00000000000E+00 0. -1.
         23    2    1    2    0    0  0.00000000000E+00  0.00000000000E+00 -0.75393629898E+03  0.75924391693E+03  0.89617980765E+02 0.  0.
          2    1    3    3  502    0 -0.43803745150E+02  0.66353934113E+00 -0.45672982939E+03  0.45882605139E+03  0.00000000000E+00 0.  1.
         -2    1    3    3    0  502  0.43803745150E+02 -0.66353934113E+00 -0.29720646959E+03  0.30041786555E+03  0.00000000000E+00 0. -1.
<mgrwt>
<rscale>  0 0.89617981E+02</rscale>
<asrwt>0</asrwt>
<pdfrwt beam="2">  1        2 0.11639864E+00 0.89617981E+02</pdfrwt>
<pdfrwt beam="1">  1       -2 0.40827774E-03 0.89617981E+02</pdfrwt>
<totfact> 0.25239296E+05</totfact>
</mgrwt>
</event>
<event>
 5    1  0.3854342E+001  0.9037055E+02  0.7546771E-02  0.1301957E+00
         -1   -1    0    0    0  501 -0.00000000000E+00  0.00000000000E+00  0.28322877923E+02  0.28322877923E+02  0.00000000000E+00 0.  1.
          1   -1    0    0  501    0  0.00000000000E+00 -0.00000000000E+00 -0.72086918089E+02  0.72086918089E+02  0.00000000000E+00 0. -1.
         23    2    1    2    0    0  0.00000000000E+00  0.00000000000E+00 -0.43764040166E+02  0.10040979601E+03  0.90370547876E+02 0.  0.
          2    1    3    3  502    0  0.10628864708E+02 -0.43348982974E+02 -0.29707271260E+02  0.53615567287E+02  0.00000000000E+00 0. -1.
         -2    1    3    3    0  502 -0.10628864708E+02  0.43348982974E+02 -0.14056768906E+02  0.46794228724E+02  0.00000000000E+00 0.  1.
<mgrwt>
<rscale>  0 0.90370548E+02</rscale>
<asrwt>0</asrwt>
<pdfrwt beam="2">  1        1 0.11090295E-01 0.90370548E+02</pdfrwt>
<pdfrwt beam="1">  1       -1 0.43573659E-02 0.90370548E+02</pdfrwt>
<totfact> 0.10156867E+05</totfact>
</mgrwt>
</event>
<event>
 5    1  0.3854342E+001  0.1048296E+03  0.7546771E-02  0.1270456E+00
         -3   -1    0    0    0  501 -0.00000000000E+00  0.00000000000E+00  0.15012722813E+02  0.15012722813E+02  0.00000000000E+00 0.  1.
          3   -1    0    0  501    0  0.00000000000E+00 -0.00000000000E+00 -0.18299897093E+03  0.18299897093E+03  0.00000000000E+00 0. -1.
         23    2    1    2    0    0  0.00000000000E+00  0.00000000000E+00 -0.16798624812E+03  0.19801169374E+03  0.10482962989E+03 0.  0.
          2    1    3    3  502    0 -0.21661655817E+02  0.21961625253E+02 -0.16403779905E+03  0.16691297084E+03  0.00000000000E+00 0. -1.
         -2    1    3    3    0  502  0.21661655817E+02 -0.21961625253E+02 -0.39484490696E+01  0.31098722908E+02  0.00000000000E+00 0.  1.
<mgrwt>
<rscale>  0 0.10482963E+03</rscale>
<asrwt>0</asrwt>
<pdfrwt beam="2">  1        3 0.28153687E-01 0.10482963E+03</pdfrwt>
<pdfrwt beam="1">  1       -3 0.23096497E-02 0.10482963E+03</pdfrwt>
<totfact> 0.19561428E+04</totfact>
</mgrwt>
</event>
<event>
 5    1  0.3854342E+001  0.9051558E+02  0.7546771E-02  0.1301608E+00
          1   -1    0    0  501    0  0.00000000000E+00  0.00000000000E+00  0.15592515132E+04  0.15592515132E+04  0.00000000000E+00 0. -1.
         -1   -1    0    0    0  501 -0.00000000000E+00 -0.00000000000E+00 -0.13136223174E+01  0.13136223174E+01  0.00000000000E+00 0.  1.
         23    2    1    2    0    0  0.00000000000E+00  0.00000000000E+00  0.15579378908E+04  0.15605651355E+04  0.90515580672E+02 0.  0.
          2    1    3    3  502    0  0.31399517437E+02 -0.12282310599E+02  0.12994833856E+04  0.12999207107E+04  0.00000000000E+00 0. -1.
         -2    1    3    3    0  502 -0.31399517437E+02  0.12282310599E+02  0.25845450530E+03  0.26064442476E+03  0.00000000000E+00 0.  1.
<mgrwt>
<rscale>  0 0.90515581E+02</rscale>
<asrwt>0</asrwt>
<pdfrwt beam="1">  1        1 0.23988337E+00 0.90515581E+02</pdfrwt>
<pdfrwt beam="2">  1       -1 0.20209699E-03 0.90515581E+02</pdfrwt>
<totfact> 0.10898915E+05</totfact>
</mgrwt>
</event>
<event>
 5    1  0.3854342E+001  0.9121563E+02  0.7546771E-02  0.1299934E+00
          2   -1    0    0  501    0  0.00000000000E+00  0.00000000000E+00  0.90347914420E+02  0.90347914420E+02  0.00000000000E+00 0. -1.
         -2   -1    0    0    0  501 -0.00000000000E+00 -0.00000000000E+00 -0.23022917949E+02  0.23022917949E+02  0.00000000000E+00 0.  1.
         23    2    1    2    0    0  0.00000000000E+00  0.00000000000E+00  0.67324996471E+02  0.11337083237E+03  0.91215626305E+02 0.  0.
          2    1    3    3  502    0 -0.74513292977E+00  0.45545613566E+02  0.30851678893E+02  0.55016217870E+02  0.00000000000E+00 0. -1.
         -2    1    3    3    0  502  0.74513292977E+00 -0.45545613566E+02  0.36473317578E+02  0.58354614499E+02  0.00000000000E+00 0.  1.
<mgrwt>
<rscale>  0 0.91215626E+02</rscale>
<asrwt>0</asrwt>
<pdfrwt beam="1">  1        2 0.13899679E-01 0.91215626E+02</pdfrwt>
<pdfrwt beam="2">  1       -2 0.35419874E-02 0.91215626E+02</pdfrwt>
<totfact> 0.11885415E+05</totfact>
</mgrwt>
</event>
<event>
 5    1  0.3854342E+001  0.9375724E+02  0.7546771E-02  0.1294000E+00
          3   -1    0    0  501    0  0.00000000000E+00  0.00000000000E+00  0.54908783492E+03  0.54908783492E+03  0.00000000000E+00 0. -1.
         -3   -1    0    0    0  501 -0.00000000000E+00 -0.00000000000E+00 -0.40022831468E+01  0.40022831468E+01  0.00000000000E+00 0.  1.
         23    2    1    2    0    0  0.00000000000E+00  0.00000000000E+00  0.54508555177E+03  0.55309011807E+03  0.93757239461E+02 0.  0.
          2    1    3    3  502    0 -0.44830528883E+02  0.77519646865E+01  0.33921535461E+03  0.34225272253E+03  0.00000000000E+00 0. -1.
         -2    1    3    3    0  502  0.44830528883E+02 -0.77519646865E+01  0.20587019716E+03  0.21083739554E+03  0.00000000000E+00 0.  1.
<mgrwt>
<rscale>  0 0.93757239E+02</rscale>
<asrwt>0</asrwt>
<pdfrwt beam="1">  1        3 0.84474992E-01 0.93757239E+02</pdfrwt>
<pdfrwt beam="2">  1       -3 0.61573631E-03 0.93757239E+02</pdfrwt>
<totfact> 0.15496740E+04</totfact>
</mgrwt>
</event>
<event>
 5    1  0.3854342E+001  0.9222603E+02  0.7546771E-02  0.1297549E+00
          1   -1    0    0  501    0  0.00000000000E+00  0.00000000000E+00  0.55823346169E+02  0.55823346169E+02  0.00000000000E+00 0. -1.
         -1   -1    0    0    0  501 -0.00000000000E+00 -0.00000000000E+00 -0.38091770637E+02  0.38091770637E+02  0.00000000000E+00 0.  1.
         23    2    1    2    0    0  0.00000000000E+00  0.00000000000E+00  0.17731575532E+02  0.93915116806E+02  0.92226028831E+02 0.  0.
          2    1    3    3  502    0  0.45652166551E+02 -0.10613144996E+01  0.15399163116E+02  0.48191087599E+02  0.00000000000E+00 0. -1.
         -2    1    3    3    0  502 -0.45652166551E+02  0.10613144996E+01  0.23324124167E+01  0.45724029207E+02  0.00000000000E+00 0.  1.
<mgrwt>
<rscale>  0 0.92226029E+02</rscale>
<asrwt>0</asrwt>
<pdfrwt beam="1">  1        1 0.85882071E-02 0.92226029E+02</pdfrwt>
<pdfrwt beam="2">  1       -1 0.58602724E-02 0.92226029E+02</pdfrwt>
<totfact> 0.92336159E+04</totfact>
</mgrwt>
</event>
<event>
 5    1  0.3854342E+001  0.8921313E+02  0.7546771E-02  0.1304768E+00
          1   -1    0    0  501    0  0.00000000000E+00  0.00000000000E+00  0.45548129792E+01  0.45548129792E+01  0.00000000000E+00 0. -1.
         -1   -1    0    0    0  501 -0.00000000000E+00 -0.00000000000E+00 -0.43684466784E+03  0.43684466784E+03  0.00000000000E+00 0.  1.
         23    2    1    2    0    0  0.00000000000E+00  0.00000000000E+00 -0.43228985486E+03  0.44139948082E+03  0.89213132732E+02 0.  0.
          2    1    3    3  502    0 -0.36606716502E+02 -0.25431165370E+02 -0.22464272764E+03  0.22902216257E+03  0.00000000000E+00 0. -1.
         -2    1    3    3    0  502  0.36606716502E+02  0.25431165370E+02 -0.20764712722E+03  0.21237731825E+03  0.00000000000E+00 0.  1.
<mgrwt>
<rscale>  0 0.89213133E+02</rscale>
<asrwt>0</asrwt>
<pdfrwt beam="1">  1        1 0.70074036E-03 0.89213133E+02</pdfrwt>
<pdfrwt beam="2">  1       -1 0.67206881E-01 0.89213133E+02</pdfrwt>
<totfact> 0.53863807E+04</totfact>
</mgrwt>
</event>
<event>
 5    1  0.3854342E+001  0.8698596E+02  0.7546771E-02  0.1310319E+00
         -2   -1    0    0    0  501 -0.00000000000E+00  0.00000000000E+00  0.10238231784E+01  0.10238231784E+01  0.00000000000E+00 0.  1.
          2   -1    0    0  501    0  0.00000000000E+00 -0.00000000000E+00 -0.18476232470E+04  0.18476232470E+04  0.00000000000E+00 0. -1.
         23    2    1    2    0    0  0.00000000000E+00  0.00000000000E+00 -0.18465994238E+04  0.18486470702E+04  0.86985964507E+02 0.  0.
          2    1    3    3  502    0  0.22902128908E+02  0.32446417025E+02 -0.13001074894E+04  0.13007139430E+04  0.00000000000E+00 0. -1.
         -2    1    3    3    0  502 -0.22902128908E+02 -0.32446417025E+02 -0.54649193444E+03  0.54793312721E+03  0.00000000000E+00 0.  1.
<mgrwt>
<rscale>  0 0.86985965E+02</rscale>
<asrwt>0</asrwt>
<pdfrwt beam="2">  1        2 0.28424873E+00 0.86985965E+02</pdfrwt>
<pdfrwt beam="1">  1       -2 0.15751181E-03 0.86985965E+02</pdfrwt>
<totfact> 0.23810324E+05</totfact>
</mgrwt>
</event>
<event>
 5    1  0.3854342E+001  0.9085983E+02  0.7546771E-02  0.1300783E+00
          2   -1    0    0  501    0  0.00000000000E+00  0.00000000000E+00  0.20369623847E+04  0.20369623847E+04  0.00000000000E+00 0. -1.
         -2   -1    0    0    0  501 -0.00000000000E+00 -0.00000000000E+00 -0.10132132896E+01  0.10132132896E+01  0.00000000000E+00 0.  1.
         23    2    1    2    0    0  0.00000000000E+00  0.00000000000E+00  0.20359491714E+04  0.20379755980E+04  0.90859833998E+02 0.  0.
          2    1    3    3  502    0  0.65795495662E+01 -0.44950782039E+02  0.10153130638E+04  0.10163289235E+04  0.00000000000E+00 0. -1.
         -2    1    3    3    0  502 -0.65795495662E+01  0.44950782039E+02  0.10206361076E+04  0.10216466744E+04  0.00000000000E+00 0.  1.
<mgrwt>
<rscale>  0 0.90859834E+02</rscale>
<asrwt>0</asrwt>
<pdfrwt beam="1">  1        2 0.31337555E+00 0.90859834E+02</pdfrwt>
<pdfrwt beam="2">  1       -2 0.15588060E-03 0.90859834E+02</pdfrwt>
<totfact> 0.19518075E+05</totfact>
</mgrwt>
</event>
<event>
 5    1  0.3854342E+001  0.9125511E+02  0.7546771E-02  0.1299840E+00
          4   -1    0    0  501    0  0.00000000000E+00  0.00000000000E+00  0.30023972449E+02  0.30023972449E+02  0.00000000000E+00 0. -1.
         -4   -1    0    0    0  501 -0.00000000000E+00 -0.00000000000E+00 -0.69340379341E+02  0.69340379341E+02  0.00000000000E+00 0.  1.
         23    2    1    2    0    0  0.00000000000E+00  0.00000000000E+00 -0.39316406892E+02  0.99364351790E+02  0.91255107011E+02 0.  0.
          2    1    3    3  502    0 -0.28652435144E+02  0.17637469326E+02 -0.53216248883E+02  0.62960396355E+02  0.00000000000E+00 0.  1.
         -2    1    3    3    0  502  0.28652435144E+02 -0.17637469326E+02  0.13899841991E+02  0.36403955435E+02  0.00000000000E+00 0. -1.
<mgrwt>
<rscale>  0 0.91255107E+02</rscale>
<asrwt>0</asrwt>
<pdfrwt beam="1">  1        4 0.46190728E-02 0.91255107E+02</pdfrwt>
<pdfrwt beam="2">  1       -4 0.10667750E-01 0.91255107E+02</pdfrwt>
<totfact> 0.26435927E+04</totfact>
</mgrwt>
</event>
<event>
 5    1  0.3854342E+001  0.9216047E+02  0.7546771E-02  0.1297703E+00
          2   -1    0    0  501    0  0.00000000000E+00  0.00000000000E+00  0.24239523661E+02  0.24239523661E+02  0.00000000000E+00 0. -1.
         -2   -1    0    0    0  501 -0.00000000000E+00 -0.00000000000E+00 -0.87600232413E+02  0.87600232413E+02  0.00000000000E+00 0.  1.
         23    2    1    2    0    0  0.00000000000E+00  0.00000000000E+00 -0.63360708751E+02  0.11183975607E+03  0.92160466715E+02 0.  0.
          2    1    3    3  502    0  0.40561592460E+02  0.21273888775E+02 -0.25544294887E+02  0.52443609027E+02  0.00000000000E+00 0. -1.
         -2    1    3    3    0  502 -0.40561592460E+02 -0.21273888775E+02 -0.37816413864E+02  0.59396147047E+02  0.00000000000E+00 0.  1.
<mgrwt>
<rscale>  0 0.92160467E+02</rscale>
<asrwt>0</asrwt>
<pdfrwt beam="1">  1        2 0.37291575E-02 0.92160467E+02</pdfrwt>
<pdfrwt beam="2">  1       -2 0.13476959E-01 0.92160467E+02</pdfrwt>
<totfact> 0.80770905E+04</totfact>
</mgrwt>
</event>
<event>
 5    1  0.3854342E+001  0.9139894E+02  0.7546771E-02  0.1299499E+00
          2   -1    0    0  501    0  0.00000000000E+00  0.00000000000E+00  0.46641257555E+03  0.46641257555E+03  0.00000000000E+00 0. -1.
         -2   -1    0    0    0  501 -0.00000000000E+00 -0.00000000000E+00 -0.44776694739E+01  0.44776694739E+01  0.00000000000E+00 0.  1.
         23    2    1    2    0    0  0.00000000000E+00  0.00000000000E+00  0.46193490608E+03  0.47089024503E+03  0.91398935482E+02 0.  0.
          2    1    3    3  502    0  0.20209212728E+02 -0.10228300256E+02  0.43545905894E+03  0.43604772952E+03  0.00000000000E+00 0. -1.
         -2    1    3    3    0  502 -0.20209212728E+02  0.10228300256E+02  0.26475847138E+02  0.34842515507E+02  0.00000000000E+00 0.  1.
<mgrwt>
<rscale>  0 0.91398935E+02</rscale>
<asrwt>0</asrwt>
<pdfrwt beam="1">  1        2 0.71755742E-01 0.91398935E+02</pdfrwt>
<pdfrwt beam="2">  1       -2 0.68887260E-03 0.91398935E+02</pdfrwt>
<totfact> 0.20923599E+05</totfact>
</mgrwt>
</event>
<event>
 5    1  0.3854342E+001  0.8958833E+02  0.7546771E-02  0.1303852E+00
         -1   -1    0    0    0  501 -0.00000000000E+00  0.00000000000E+00  0.43482088052E+01  0.43482088052E+01  0.00000000000E+00 0.  1.
          1   -1    0    0  501    0  0.00000000000E+00 -0.00000000000E+00 -0.46145837251E+03  0.46145837251E+03  0.00000000000E+00 0. -1.
         23    2    1    2    0    0  0.00000000000E+00  0.00000000000E+00 -0.45711016370E+03  0.46580658131E+03  0.89588333137E+02 0.  0.
          2    1    3    3  502    0  0.36217556200E+02 -0.20190036697E+02 -0.31666453139E+03  0.31936777295E+03  0.00000000000E+00 0. -1.
         -2    1    3    3    0  502 -0.36217556200E+02  0.20190036697E+02 -0.14044563231E+03  0.14643880836E+03  0.00000000000E+00 0.  1.
<mgrwt>
<rscale>  0 0.89588333E+02</rscale>
<asrwt>0</asrwt>
<pdfrwt beam="2">  1        1 0.70993573E-01 0.89588333E+02</pdfrwt>
<pdfrwt beam="1">  1       -1 0.66895542E-03 0.89588333E+02</pdfrwt>
<totfact> 0.14441055E+05</totfact>
</mgrwt>
</event>
<event>
 5    1  0.3854342E+001  0.9084663E+02  0.7546771E-02  0.1300814E+00
          1   -1    0    0  501    0  0.00000000000E+00  0.00000000000E+00  0.12727361141E+02  0.12727361141E+02  0.00000000000E+00 0. -1.
         -1   -1    0    0    0  501 -0.00000000000E+00 -0.00000000000E+00 -0.16211352064E+03  0.16211352064E+03  0.00000000000E+00 0.  1.
         23    2    1    2    0    0  0.00000000000E+00  0.00000000000E+00 -0.14938615950E+03  0.17484088179E+03  0.90846625102E+02 0.  0.
          2    1    3    3  502    0  0.15860870780E+02 -0.38215764267E+02 -0.38622600266E+02  0.56601387896E+02  0.00000000000E+00 0. -1.
         -2    1    3    3    0  502 -0.15860870780E+02  0.38215764267E+02 -0.11076355924E+03  0.11823949389E+03  0.00000000000E+00 0.  1.
<mgrwt>
<rscale>  0 0.90846625E+02</rscale>
<asrwt>0</asrwt>
<pdfrwt beam="1">  1        1 0.19580558E-02 0.90846625E+02</pdfrwt>
<pdfrwt beam="2">  1       -1 0.24940539E-01 0.90846625E+02</pdfrwt>
<totfact> 0.74101607E+04</totfact>
</mgrwt>
</event>
<event>
 5    1  0.3854342E+001  0.8695715E+02  0.7546771E-02  0.1310392E+00
         -2   -1    0    0    0  501 -0.00000000000E+00  0.00000000000E+00  0.19590742466E+03  0.19590742466E+03  0.00000000000E+00 0.  1.
          2   -1    0    0  501    0  0.00000000000E+00 -0.00000000000E+00 -0.96493861735E+01  0.96493861735E+01  0.00000000000E+00 0. -1.
         23    2    1    2    0    0  0.00000000000E+00  0.00000000000E+00  0.18625803849E+03  0.20555681084E+03  0.86957147948E+02 0.  0.
          2    1    3    3  502    0 -0.42115592615E+02 -0.90367466674E+01  0.79143986751E+02  0.90106362542E+02  0.00000000000E+00 0. -1.
         -2    1    3    3    0  502  0.42115592615E+02  0.90367466674E+01  0.10711405174E+03  0.11545044830E+03  0.00000000000E+00 0.  1.
<mgrwt>
<rscale>  0 0.86957148E+02</rscale>
<asrwt>0</asrwt>
<pdfrwt beam="2">  1        2 0.14845211E-02 0.86957148E+02</pdfrwt>
<pdfrwt beam="1">  1       -2 0.30139601E-01 0.86957148E+02</pdfrwt>
<totfact> 0.70946948E+04</totfact>
</mgrwt>
</event>
<event>
 5    1  0.3854342E+001  0.8995485E+02  0.7546771E-02  0.1302961E+00
         -2   -1    0    0    0  501 -0.00000000000E+00  0.00000000000E+00  0.57626110841E+03  0.57626110841E+03  0.00000000000E+00 0.  1.
          2   -1    0    0  501    0  0.00000000000E+00 -0.00000000000E+00 -0.35105071354E+01  0.35105071354E+01  0.00000000000E+00 0. -1.
         23    2    1    2    0    0  0.00000000000E+00  0.00000000000E+00  0.57275060128E+03  0.57977161555E+03  0.89954849406E+02 0.  0.
          2    1    3    3  502    0 -0.18138883530E+02 -0.40580412846E+02  0.24210524211E+03  0.24615185813E+03  0.00000000000E+00 0. -1.
         -2    1    3    3    0  502  0.18138883530E+02  0.40580412846E+02  0.33064535917E+03  0.33361975742E+03  0.00000000000E+00 0.  1.
<mgrwt>
<rscale>  0 0.89954849E+02</rscale>
<asrwt>0</asrwt>
<pdfrwt beam="2">  1        2 0.54007848E-03 0.89954849E+02</pdfrwt>
<pdfrwt beam="1">  1       -2 0.88655480E-01 0.89954849E+02</pdfrwt>
<totfact> 0.33510228E+04</totfact>
</mgrwt>
</event>
<event>
 5    1  0.3854342E+001  0.8953726E+02  0.7546771E-02  0.1303976E+00
          1   -1    0    0  501    0  0.00000000000E+00  0.00000000000E+00  0.19891791860E+04  0.19891791860E+04  0.00000000000E+00 0. -1.
         -1   -1    0    0    0  501 -0.00000000000E+00 -0.00000000000E+00 -0.10075665560E+01  0.10075665560E+01  0.00000000000E+00 0.  1.
         23    2    1    2    0    0  0.00000000000E+00  0.00000000000E+00  0.19881716194E+04  0.19901867525E+04  0.89537264233E+02 0.  0.
          2    1    3    3  502    0 -0.27847376702E+02 -0.17716114150E+02  0.16664045881E+04  0.16667314086E+04  0.00000000000E+00 0. -1.
         -2    1    3    3    0  502  0.27847376702E+02  0.17716114150E+02  0.32176703132E+03  0.32345534396E+03  0.00000000000E+00 0.  1.
<mgrwt>
<rscale>  0 0.89537264E+02</rscale>
<asrwt>0</asrwt>
<pdfrwt beam="1">  1        1 0.30602442E+00 0.89537264E+02</pdfrwt>
<pdfrwt beam="2">  1       -1 0.15501183E-03 0.89537264E+02</pdfrwt>
<totfact> 0.84357575E+04</totfact>
</mgrwt>
</event>
<event>
 5    1  0.3854342E+001  0.8815235E+02  0.7546771E-02  0.1307389E+00
          4   -1    0    0  501    0  0.00000000000E+00  0.00000000000E+00  0.65089630662E+02  0.65089630662E+02  0.00000000000E+00 0. -1.
         -4   -1    0    0    0  501 -0.00000000000E+00 -0.00000000000E+00 -0.29846678661E+02  0.29846678661E+02  0.00000000000E+00 0.  1.
         23    2    1    2    0    0  0.00000000000E+00  0.00000000000E+00  0.35242952002E+02  0.94936309323E+02  0.88152351994E+02 0.  0.
          2    1    3    3  502    0  0.38595490369E+02  0.20150702735E+02  0.25008381268E+02  0.50210375732E+02  0.00000000000E+00 0. -1.
         -2    1    3    3    0  502 -0.38595490369E+02 -0.20150702735E+02  0.10234570734E+02  0.44725933591E+02  0.00000000000E+00 0.  1.
<mgrwt>
<rscale>  0 0.88152352E+02</rscale>
<asrwt>0</asrwt>
<pdfrwt beam="1">  1        4 0.10013789E-01 0.88152352E+02</pdfrwt>
<pdfrwt beam="2">  1       -4 0.45917967E-02 0.88152352E+02</pdfrwt>
<totfact> 0.29330373E+04</totfact>
</mgrwt>
</event>
<event>
 5    1  0.3854342E+001  0.9359604E+02  0.7546771E-02  0.1294370E+00
         -1   -1    0    0    0  501 -0.00000000000E+00  0.00000000000E+00  0.93084759829E+01  0.93084759829E+01  0.00000000000E+00 0.  1.
          1   -1    0    0  501    0  0.00000000000E+00 -0.00000000000E+00 -0.23527530543E+03  0.23527530543E+03  0.00000000000E+00 0. -1.
         23    2    1    2    0    0  0.00000000000E+00  0.00000000000E+00 -0.22596682945E+03  0.24458378141E+03  0.93596036881E+02 0.  0.
          2    1    3    3  502    0 -0.15678544720E+02 -0.43286749503E+02 -0.13492407071E+03  0.14256249263E+03  0.00000000000E+00 0. -1.
         -2    1    3    3    0  502  0.15678544720E+02  0.43286749503E+02 -0.91042758733E+02  0.10202128878E+03  0.00000000000E+00 0.  1.
<mgrwt>
<rscale>  0 0.93596037E+02</rscale>
<asrwt>0</asrwt>
<pdfrwt beam="2">  1        1 0.36196200E-01 0.93596037E+02</pdfrwt>
<pdfrwt beam="1">  1       -1 0.14320733E-02 0.93596037E+02</pdfrwt>
<totfact> 0.11393212E+05</totfact>
</mgrwt>
</event>
<event>
 5    1  0.3854342E+001  0.9335452E+02  0.7546771E-02  0.1294926E+00
          2   -1    0    0  501    0  0.00000000000E+00  0.00000000000E+00  0.64086298872E+01  0.64086298872E+01  0.00000000000E+00 0.  1.
         -2   -1    0    0    0  501 -0.00000000000E+00 -0.00000000000E+00 -0.33997381843E+03  0.33997381843E+03  0.00000000000E+00 0. -1.
         23    2    1    2    0    0  0.00000000000E+00  0.00000000000E+00 -0.33356518854E+03  0.34638244831E+03  0.93354515127E+02 0.  0.
          2    1    3    3  502    0  0.20669368593E+02  0.31803830641E+02 -0.26772043168E+03  0.27039403836E+03  0.00000000000E+00 0. -1.
         -2    1    3    3    0  502 -0.20669368593E+02 -0.31803830641E+02 -0.65844756860E+02  0.75988409955E+02  0.00000000000E+00 0.  1.
<mgrwt>
<rscale>  0 0.93354515E+02</rscale>
<asrwt>0</asrwt>
<pdfrwt beam="1">  1        2 0.98594316E-03 0.93354515E+02</pdfrwt>
<pdfrwt beam="2">  1       -2 0.52303659E-01 0.93354515E+02</pdfrwt>
<totfact> 0.44593553E+04</totfact>
</mgrwt>
</event>
<event>
 5    1  0.3854342E+001  0.9218945E+02  0.7546771E-02  0.1297635E+00
          3   -1    0    0  501    0  0.00000000000E+00  0.00000000000E+00  0.13046603037E+03  0.13046603037E+03  0.00000000000E+00 0. -1.
         -3   -1    0    0    0  501 -0.00000000000E+00 -0.00000000000E+00 -0.16285647322E+02  0.16285647322E+02  0.00000000000E+00 0.  1.
         23    2    1    2    0    0  0.00000000000E+00  0.00000000000E+00  0.11418038305E+03  0.14675167769E+03  0.92189451851E+02 0.  0.
          2    1    3    3  502    0 -0.30409821252E+02  0.20779766567E+02  0.10120962226E+03  0.10770303415E+03  0.00000000000E+00 0. -1.
         -2    1    3    3    0  502  0.30409821252E+02 -0.20779766567E+02  0.12970760790E+02  0.39048643544E+02  0.00000000000E+00 0.  1.
<mgrwt>
<rscale>  0 0.92189452E+02</rscale>
<asrwt>0</asrwt>
<pdfrwt beam="1">  1        3 0.20071696E-01 0.92189452E+02</pdfrwt>
<pdfrwt beam="2">  1       -3 0.25054843E-02 0.92189452E+02</pdfrwt>
<totfact> 0.30576231E+04</totfact>
</mgrwt>
</event>
<event>
 5    1  0.3854342E+001  0.9083229E+02  0.7546771E-02  0.1300849E+00
          2   -1    0    0  501    0  0.00000000000E+00  0.00000000000E+00  0.23149697526E+03  0.23149697526E+03  0.00000000000E+00 0. -1.
         -2   -1    0    0    0  501 -0.00000000000E+00 -0.00000000000E+00 -0.89099494251E+01  0.89099494251E+01  0.00000000000E+00 0.  1.
         23    2    1    2    0    0  0.00000000000E+00  0.00000000000E+00  0.22258702583E+03  0.24040692468E+03  0.90832292531E+02 0.  0.
          2    1    3    3  502    0  0.44615739493E+02 -0.77453562517E+01  0.12048929969E+03  0.12871762154E+03  0.00000000000E+00 0. -1.
         -2    1    3    3    0  502 -0.44615739493E+02  0.77453562517E+01  0.10209772614E+03  0.11168930315E+03  0.00000000000E+00 0.  1.
<mgrwt>
<rscale>  0 0.90832293E+02</rscale>
<asrwt>0</asrwt>
<pdfrwt beam="1">  1        2 0.35614915E-01 0.90832293E+02</pdfrwt>
<pdfrwt beam="2">  1       -2 0.13707616E-02 0.90832293E+02</pdfrwt>
<totfact> 0.16482856E+05</totfact>
</mgrwt>
</event>
<event>
 5    1  0.3854342E+001  0.9113724E+02  0.7546771E-02  0.1300121E+00
          2   -1    0    0  501    0  0.00000000000E+00  0.00000000000E+00  0.26565913131E+04  0.26565913131E+04  0.00000000000E+00 0.  1.
         -2   -1    0    0    0  501 -0.00000000000E+00 -0.00000000000E+00 -0.78164045943E+00  0.78164045943E+00  0.00000000000E+00 0. -1.
         23    2    1    2    0    0  0.00000000000E+00  0.00000000000E+00  0.26558096727E+04  0.26573729536E+04  0.91137242761E+02 0.  0.
          2    1    3    3  502    0  0.11707870374E+02 -0.43321071445E+02  0.10970046336E+04  0.10979221081E+04  0.00000000000E+00 0. -1.
         -2    1    3    3    0  502 -0.11707870374E+02  0.43321071445E+02  0.15588050391E+04  0.15594508455E+04  0.00000000000E+00 0.  1.
<mgrwt>
<rscale>  0 0.91137243E+02</rscale>
<asrwt>0</asrwt>
<pdfrwt beam="1">  1        2 0.40869913E+00 0.91137243E+02</pdfrwt>
<pdfrwt beam="2">  1       -2 0.12025450E-03 0.91137243E+02</pdfrwt>
<totfact> 0.13355345E+05</totfact>
</mgrwt>
</event>
<event>
 5    1  0.3854342E+001  0.8981629E+02  0.7546771E-02  0.1303297E+00
         -4   -1    0    0    0  501 -0.00000000000E+00  0.00000000000E+00  0.52423575326E+02  0.52423575326E+02  0.00000000000E+00 0.  1.
          4   -1    0    0  501    0  0.00000000000E+00 -0.00000000000E+00 -0.38470125815E+02  0.38470125815E+02  0.00000000000E+00 0. -1.
         23    2    1    2    0    0  0.00000000000E+00  0.00000000000E+00  0.13953449510E+02  0.90893701141E+02  0.89816291139E+02 0.  0.
          2    1    3    3  502    0 -0.27675862184E+02  0.23337488249E+02 -0.19915522833E+02  0.41318515887E+02  0.00000000000E+00 0. -1.
         -2    1    3    3    0  502  0.27675862184E+02 -0.23337488249E+02  0.33868972343E+02  0.49575185254E+02  0.00000000000E+00 0.  1.
<mgrwt>
<rscale>  0 0.89816291E+02</rscale>
<asrwt>0</asrwt>
<pdfrwt beam="2">  1        4 0.59184809E-02 0.89816291E+02</pdfrwt>
<pdfrwt beam="1">  1       -4 0.80651655E-02 0.89816291E+02</pdfrwt>
<totfact> 0.28157884E+04</totfact>
</mgrwt>
</event>
<event>
 5    1  0.3854342E+001  0.8548699E+02  0.7546771E-02  0.1314164E+00
         -3   -1    0    0    0  501 -0.00000000000E+00  0.00000000000E+00  0.38847154154E+02  0.38847154154E+02  0.00000000000E+00 0.  1.
          3   -1    0    0  501    0  0.00000000000E+00 -0.00000000000E+00 -0.47030635260E+02  0.47030635260E+02  0.00000000000E+00 0. -1.
         23    2    1    2    0    0  0.00000000000E+00  0.00000000000E+00 -0.81834811063E+01  0.85877789414E+02  0.85486989370E+02 0.  0.
          2    1    3    3  502    0  0.40309576175E+02  0.42336283139E+01 -0.17726584241E+02  0.44238188581E+02  0.00000000000E+00 0. -1.
         -2    1    3    3    0  502 -0.40309576175E+02 -0.42336283139E+01  0.95431031344E+01  0.41639600833E+02  0.00000000000E+00 0.  1.
<mgrwt>
<rscale>  0 0.85486989E+02</rscale>
<asrwt>0</asrwt>
<pdfrwt beam="2">  1        3 0.72354824E-02 0.85486989E+02</pdfrwt>
<pdfrwt beam="1">  1       -3 0.59764852E-02 0.85486989E+02</pdfrwt>
<totfact> 0.42578741E+04</totfact>
</mgrwt>
</event>
<event>
 5    1  0.3854342E+001  0.8816524E+02  0.7546771E-02  0.1307357E+00
          2   -1    0    0  501    0  0.00000000000E+00  0.00000000000E+00  0.16896056441E+02  0.16896056441E+02  0.00000000000E+00 0. -1.
         -2   -1    0    0    0  501 -0.00000000000E+00 -0.00000000000E+00 -0.11501366960E+03  0.11501366960E+03  0.00000000000E+00 0.  1.
         23    2    1    2    0    0  0.00000000000E+00  0.00000000000E+00 -0.98117613157E+02  0.13190972604E+03  0.88165241520E+02 0.  0.
          2    1    3    3  502    0 -0.31619338280E+02  0.25839856973E+02 -0.73905805592E+02  0.84436655914E+02  0.00000000000E+00 0.  1.
         -2    1    3    3    0  502  0.31619338280E+02 -0.25839856973E+02 -0.24211807565E+02  0.47473070126E+02  0.00000000000E+00 0. -1.
<mgrwt>
<rscale>  0 0.88165242E+02</rscale>
<asrwt>0</asrwt>
<pdfrwt beam="1">  1        2 0.25993933E-02 0.88165242E+02</pdfrwt>
<pdfrwt beam="2">  1       -2 0.17694411E-01 0.88165242E+02</pdfrwt>
<totfact> 0.83153096E+04</totfact>
</mgrwt>
</event>
<event>
 5    1  0.3854342E+001  0.9183342E+02  0.7546771E-02  0.1298472E+00
         -1   -1    0    0    0  501 -0.00000000000E+00  0.00000000000E+00  0.51993432978E+01  0.51993432978E+01  0.00000000000E+00 0.  1.
          1   -1    0    0  501    0  0.00000000000E+00 -0.00000000000E+00 -0.40550204346E+03  0.40550204346E+03  0.00000000000E+00 0. -1.
         23    2    1    2    0    0  0.00000000000E+00  0.00000000000E+00 -0.40030270016E+03  0.41070138676E+03  0.91833421626E+02 0.  0.
          2    1    3    3  502    0 -0.13670240180E+02 -0.24006501637E+02 -0.36417703125E+03  0.36522335314E+03  0.00000000000E+00 0. -1.
         -2    1    3    3    0  502  0.13670240180E+02  0.24006501637E+02 -0.36125668907E+02  0.45478033614E+02  0.00000000000E+00 0.  1.
<mgrwt>
<rscale>  0 0.91833422E+02</rscale>
<asrwt>0</asrwt>
<pdfrwt beam="2">  1        1 0.62384924E-01 0.91833422E+02</pdfrwt>
<pdfrwt beam="1">  1       -1 0.79989904E-03 0.91833422E+02</pdfrwt>
<totfact> 0.13263847E+05</totfact>
</mgrwt>
</event>
<event>
 5    1  0.3854342E+001  0.8969581E+02  0.7546771E-02  0.1303590E+00
          1   -1    0    0  501    0  0.00000000000E+00  0.00000000000E+00  0.81988623557E+02  0.81988623557E+02  0.00000000000E+00 0. -1.
         -1   -1    0    0    0  501 -0.00000000000E+00 -0.00000000000E+00 -0.24531873298E+02  0.24531873298E+02  0.00000000000E+00 0.  1.
         23    2    1    2    0    0  0.00000000000E+00  0.00000000000E+00  0.57456750258E+02  0.10652049685E+03  0.89695808709E+02 0.  0.
          2    1    3    3  502    0  0.47658639081E+01  0.31542639040E+02  0.66163989172E+02  0.73452876047E+02  0.00000000000E+00 0. -1.
         -2    1    3    3    0  502 -0.47658639081E+01 -0.31542639040E+02 -0.87072389139E+01  0.33067620808E+02  0.00000000000E+00 0.  1.
<mgrwt>
<rscale>  0 0.89695809E+02</rscale>
<asrwt>0</asrwt>
<pdfrwt beam="1">  1        1 0.12613634E-01 0.89695809E+02</pdfrwt>
<pdfrwt beam="2">  1       -1 0.37741344E-02 0.89695809E+02</pdfrwt>
<totfact> 0.10577342E+05</totfact>
</mgrwt>
</event>
<event>
 5    1  0.3854342E+001  0.9149963E+02  0.7546771E-02  0.1299260E+00
         -2   -1    0    0    0  501 -0.00000000000E+00  0.00000000000E+00  0.12049923809E+02  0.12049923809E+02  0.00000000000E+00 0.  1.
          2   -1    0    0  501    0  0.00000000000E+00 -0.00000000000E+00 -0.17369784131E+03  0.17369784131E+03  0.00000000000E+00 0. -1.
         23    2    1    2    0    0  0.00000000000E+00  0.00000000000E+00 -0.16164791751E+03  0.18574776512E+03  0.91499633957E+02 0.  0.
          2    1    3    3  502    0  0.15652242815E+02 -0.41740032489E+02 -0.10170699940E+03  0.11104745267E+03  0.00000000000E+00 0. -1.
         -2    1    3    3    0  502 -0.15652242815E+02  0.41740032489E+02 -0.59940918104E+02  0.74700312453E+02  0.00000000000E+00 0.  1.
<mgrwt>
<rscale>  0 0.91499634E+02</rscale>
<asrwt>0</asrwt>
<pdfrwt beam="2">  1        2 0.26722744E-01 0.91499634E+02</pdfrwt>
<pdfrwt beam="1">  1       -2 0.18538345E-02 0.91499634E+02</pdfrwt>
<totfact> 0.14568399E+05</totfact>
</mgrwt>
</event>
<event>
 5    1  0.3854342E+001  0.9443012E+02  0.7546771E-02  0.1292465E+00
          1   -1    0    0  501    0  0.00000000000E+00  0.00000000000E+00  0.33475110312E+03  0.33475110312E+03  0.00000000000E+00 0. -1.
         -1   -1    0    0    0  501 -0.00000000000E+00 -0.00000000000E+00 -0.66594608678E+01  0.66594608678E+01  0.00000000000E+00 0.  1.
         23    2    1    2    0    0  0.00000000000E+00  0.00000000000E+00  0.32809164225E+03  0.34141056398E+03  0.94430119594E+02 0.  0.
          2    1    3    3  502    0 -0.13294467875E+02  0.33221394544E+02  0.52676130464E+02  0.63680284643E+02  0.00000000000E+00 0.  1.
         -2    1    3    3    0  502  0.13294467875E+02 -0.33221394544E+02  0.27541551178E+03  0.27773027934E+03  0.00000000000E+00 0. -1.
<mgrwt>
<rscale>  0 0.94430120E+02</rscale>
<asrwt>0</asrwt>
<pdfrwt beam="1">  1        1 0.51500157E-01 0.94430120E+02</pdfrwt>
<pdfrwt beam="2">  1       -1 0.10245327E-02 0.94430120E+02</pdfrwt>
<totfact> 0.11910203E+05</totfact>
</mgrwt>
</event>
<event>
 5    1  0.3854342E+001  0.9214434E+02  0.7546771E-02  0.1297740E+00
         -2   -1    0    0    0  501 -0.00000000000E+00  0.00000000000E+00  0.19776807705E+01  0.19776807705E+01  0.00000000000E+00 0.  1.
          2   -1    0    0  501    0  0.00000000000E+00 -0.00000000000E+00 -0.10733000154E+04  0.10733000154E+04  0.00000000000E+00 0. -1.
         23    2    1    2    0    0  0.00000000000E+00  0.00000000000E+00 -0.10713223346E+04  0.10752776961E+04  0.92144338977E+02 0.  0.
          2    1    3    3  502    0 -0.25214704853E+02 -0.24478356336E+02 -0.88334029064E+03  0.88403904910E+03  0.00000000000E+00 0. -1.
         -2    1    3    3    0  502  0.25214704853E+02  0.24478356336E+02 -0.18798204395E+03  0.19123864702E+03  0.00000000000E+00 0.  1.
<mgrwt>
<rscale>  0 0.92144339E+02</rscale>
<asrwt>0</asrwt>
<pdfrwt beam="2">  1        2 0.16512340E+00 0.92144339E+02</pdfrwt>
<pdfrwt beam="1">  1       -2 0.30425798E-03 0.92144339E+02</pdfrwt>
<totfact> 0.24345273E+05</totfact>
</mgrwt>
</event>
<event>
 5    1  0.3854342E+001  0.8655093E+02  0.7546771E-02  0.1311426E+00
          2   -1    0    0  501    0  0.00000000000E+00  0.00000000000E+00  0.74378670327E+02  0.74378670327E+02  0.00000000000E+00 0. -1.
         -2   -1    0    0    0  501 -0.00000000000E+00 -0.00000000000E+00 -0.25178803538E+02  0.25178803538E+02  0.00000000000E+00 0.  1.
         23    2    1    2    0    0  0.00000000000E+00  0.00000000000E+00  0.49199866790E+02  0.99557473865E+02  0.86550931308E+02 0.  0.
          2    1    3    3  502    0  0.21061441101E+02 -0.36577832296E+02  0.35587558444E+02  0.55208662661E+02  0.00000000000E+00 0. -1.
         -2    1    3    3    0  502 -0.21061441101E+02  0.36577832296E+02  0.13612308345E+02  0.44348811204E+02  0.00000000000E+00 0.  1.
<mgrwt>
<rscale>  0 0.86550931E+02</rscale>
<asrwt>0</asrwt>
<pdfrwt beam="1">  1        2 0.11442872E-01 0.86550931E+02</pdfrwt>
<pdfrwt beam="2">  1       -2 0.38736621E-02 0.86550931E+02</pdfrwt>
<totfact> 0.12999638E+05</totfact>
</mgrwt>
</event>
<event>
 5    1  0.3854342E+001  0.9129816E+02  0.7546771E-02  0.1299738E+00
          4   -1    0    0  501    0  0.00000000000E+00  0.00000000000E+00  0.53624118455E+02  0.53624118455E+02  0.00000000000E+00 0. -1.
         -4   -1    0    0    0  501 -0.00000000000E+00 -0.00000000000E+00 -0.38860100178E+02  0.38860100178E+02  0.00000000000E+00 0.  1.
         23    2    1    2    0    0  0.00000000000E+00  0.00000000000E+00  0.14764018278E+02  0.92484218633E+02  0.91298162416E+02 0.  0.
          2    1    3    3  502    0  0.43307863455E+02  0.12829823734E+02  0.14075665014E+02  0.47310672788E+02  0.00000000000E+00 0. -1.
         -2    1    3    3    0  502 -0.43307863455E+02 -0.12829823734E+02  0.68835326346E+00  0.45173545845E+02  0.00000000000E+00 0.  1.
<mgrwt>
<rscale>  0 0.91298162E+02</rscale>
<asrwt>0</asrwt>
<pdfrwt beam="1">  1        4 0.82498644E-02 0.91298162E+02</pdfrwt>
<pdfrwt beam="2">  1       -4 0.59784770E-02 0.91298162E+02</pdfrwt>
<totfact> 0.26835297E+04</totfact>
</mgrwt>
</event>
<event>
 5    1  0.3854342E+001  0.9309892E+02  0.7546771E-02  0.1295516E+00
         -1   -1    0    0    0  501 -0.00000000000E+00  0.00000000000E+00  0.42150407905E+01  0.42150407905E+01  0.00000000000E+00 0.  1.
          1   -1    0    0  501    0  0.00000000000E+00 -0.00000000000E+00 -0.51407624644E+03  0.51407624644E+03  0.00000000000E+00 0. -1.
         23    2    1    2    0    0  0.00000000000E+00  0.00000000000E+00 -0.50986120565E+03  0.51829128723E+03  0.93098922618E+02 0.  0.
          2    1    3    3  502    0  0.17953566849E+02  0.10887644977E+02 -0.48621548956E+03  0.48666864874E+03  0.00000000000E+00 0. -1.
         -2    1    3    3    0  502 -0.17953566849E+02 -0.10887644977E+02 -0.23645716081E+02  0.31622638485E+02  0.00000000000E+00 0.  1.
<mgrwt>
<rscale>  0 0.93098923E+02</rscale>
<asrwt>0</asrwt>
<pdfrwt beam="2">  1        1 0.79088677E-01 0.93098923E+02</pdfrwt>
<pdfrwt beam="1">  1       -1 0.64846762E-03 0.93098923E+02</pdfrwt>
<totfact> 0.13218561E+05</totfact>
</mgrwt>
</event>
<event>
 5    1  0.3854342E+001  0.9328992E+02  0.7546771E-02  0.1295075E+00
         -1   -1    0    0    0  501 -0.00000000000E+00  0.00000000000E+00  0.13654385467E+04  0.13654385467E+04  0.00000000000E+00 0.  1.
          1   -1    0    0  501    0  0.00000000000E+00 -0.00000000000E+00 -0.15934457025E+01  0.15934457025E+01  0.00000000000E+00 0. -1.
         23    2    1    2    0    0  0.00000000000E+00  0.00000000000E+00  0.13638451010E+04  0.13670319924E+04  0.93289917662E+02 0.  0.
          2    1    3    3  502    0  0.33396942532E+02 -0.31647186927E+02  0.79433760720E+03  0.79566898546E+03  0.00000000000E+00 0. -1.
         -2    1    3    3    0  502 -0.33396942532E+02  0.31647186927E+02  0.56950749382E+03  0.57136300696E+03  0.00000000000E+00 0.  1.
<mgrwt>
<rscale>  0 0.93289918E+02</rscale>
<asrwt>0</asrwt>
<pdfrwt beam="2">  1        1 0.24514658E-03 0.93289918E+02</pdfrwt>
<pdfrwt beam="1">  1       -1 0.21006653E+00 0.93289918E+02</pdfrwt>
<totfact> 0.15404546E+04</totfact>
</mgrwt>
</event>
<event>
 5    1  0.3854342E+001  0.9068178E+02  0.7546771E-02  0.1301209E+00
         -2   -1    0    0    0  501 -0.00000000000E+00  0.00000000000E+00  0.10111137613E+01  0.10111137613E+01  0.00000000000E+00 0.  1.
          2   -1    0    0  501    0  0.00000000000E+00 -0.00000000000E+00 -0.20331996562E+04  0.20331996562E+04  0.00000000000E+00 0. -1.
         23    2    1    2    0    0  0.00000000000E+00  0.00000000000E+00 -0.20321885425E+04  0.20342107700E+04  0.90681776601E+02 0.  0.
          2    1    3    3  502    0  0.28524141922E+02  0.13231742442E+02 -0.17488792365E+04  0.17491618820E+04  0.00000000000E+00 0. -1.
         -2    1    3    3    0  502 -0.28524141922E+02 -0.13231742442E+02 -0.28330930597E+03  0.28504888797E+03  0.00000000000E+00 0.  1.
<mgrwt>
<rscale>  0 0.90681777E+02</rscale>
<asrwt>0</asrwt>
<pdfrwt beam="2">  1        2 0.31279461E+00 0.90681777E+02</pdfrwt>
<pdfrwt beam="1">  1       -2 0.15555862E-03 0.90681777E+02</pdfrwt>
<totfact> 0.19655225E+05</totfact>
</mgrwt>
</event>
<event>
 5    1  0.3854342E+001  0.9276329E+02  0.7546771E-02  0.1296295E+00
          1   -1    0    0  501    0  0.00000000000E+00  0.00000000000E+00  0.94097275553E+03  0.94097275553E+03  0.00000000000E+00 0. -1.
         -1   -1    0    0    0  501 -0.00000000000E+00 -0.00000000000E+00 -0.22862055986E+01  0.22862055986E+01  0.00000000000E+00 0.  1.
         23    2    1    2    0    0  0.00000000000E+00  0.00000000000E+00  0.93868654993E+03  0.94325896112E+03  0.92763294072E+02 0.  0.
          2    1    3    3  502    0 -0.27801584466E+02  0.11608864091E+02  0.82792548196E+03  0.82847347423E+03  0.00000000000E+00 0. -1.
         -2    1    3    3    0  502  0.27801584466E+02 -0.11608864091E+02  0.11076106797E+03  0.11478548690E+03  0.00000000000E+00 0.  1.
<mgrwt>
<rscale>  0 0.92763294E+02</rscale>
<asrwt>0</asrwt>
<pdfrwt beam="1">  1        1 0.14476473E+00 0.92763294E+02</pdfrwt>
<pdfrwt beam="2">  1       -1 0.35172469E-03 0.92763294E+02</pdfrwt>
<totfact> 0.13183919E+05</totfact>
</mgrwt>
</event>
<event>
 5    1  0.3854342E+001  0.8990506E+02  0.7546771E-02  0.1303082E+00
         -1   -1    0    0    0  501 -0.00000000000E+00  0.00000000000E+00  0.24323266720E+02  0.24323266720E+02  0.00000000000E+00 0.  1.
          1   -1    0    0  501    0  0.00000000000E+00 -0.00000000000E+00 -0.83078062339E+02  0.83078062339E+02  0.00000000000E+00 0. -1.
         23    2    1    2    0    0  0.00000000000E+00  0.00000000000E+00 -0.58754795619E+02  0.10740132906E+03  0.89905058118E+02 0.  0.
          2    1    3    3  502    0 -0.17451796046E+02  0.36240201689E+02 -0.54013839909E+01  0.40584385578E+02  0.00000000000E+00 0.  1.
         -2    1    3    3    0  502  0.17451796046E+02 -0.36240201689E+02 -0.53353411629E+02  0.66816943481E+02  0.00000000000E+00 0. -1.
<mgrwt>
<rscale>  0 0.89905058E+02</rscale>
<asrwt>0</asrwt>
<pdfrwt beam="2">  1        1 0.12781240E-01 0.89905058E+02</pdfrwt>
<pdfrwt beam="1">  1       -1 0.37420410E-02 0.89905058E+02</pdfrwt>
<totfact> 0.10532055E+05</totfact>
</mgrwt>
</event>
<event>
 5    1  0.3854342E+001  0.9071660E+02  0.7546771E-02  0.1301126E+00
          2   -1    0    0  501    0  0.00000000000E+00  0.00000000000E+00  0.54432117919E+02  0.54432117919E+02  0.00000000000E+00 0. -1.
         -2   -1    0    0    0  501 -0.00000000000E+00 -0.00000000000E+00 -0.37797085236E+02  0.37797085236E+02  0.00000000000E+00 0.  1.
         23    2    1    2    0    0  0.00000000000E+00  0.00000000000E+00  0.16635032683E+02  0.92229203156E+02  0.90716600478E+02 0.  0.
          2    1    3    3  502    0  0.19224618947E+02 -0.34953404168E+02  0.30265643256E+02  0.50073302250E+02  0.00000000000E+00 0. -1.
         -2    1    3    3    0  502 -0.19224618947E+02  0.34953404168E+02 -0.13630610572E+02  0.42155900905E+02  0.00000000000E+00 0.  1.
<mgrwt>
<rscale>  0 0.90716600E+02</rscale>
<asrwt>0</asrwt>
<pdfrwt beam="1">  1        2 0.83741720E-02 0.90716600E+02</pdfrwt>
<pdfrwt beam="2">  1       -2 0.58149362E-02 0.90716600E+02</pdfrwt>
<totfact> 0.10485000E+05</totfact>
</mgrwt>
</event>
<event>
 5    1  0.3854342E+001  0.8861376E+02  0.7546771E-02  0.1306244E+00
          3   -1    0    0  501    0  0.00000000000E+00  0.00000000000E+00  0.99790416237E+01  0.99790416237E+01  0.00000000000E+00 0. -1.
         -3   -1    0    0    0  501 -0.00000000000E+00 -0.00000000000E+00 -0.19672225489E+03  0.19672225489E+03  0.00000000000E+00 0.  1.
         23    2    1    2    0    0  0.00000000000E+00  0.00000000000E+00 -0.18674321327E+03  0.20670129651E+03  0.88613758973E+02 0.  0.
          2    1    3    3  502    0 -0.35778366827E+02 -0.25570474123E+02 -0.10596745825E+03  0.11473030501E+03  0.00000000000E+00 0. -1.
         -2    1    3    3    0  502  0.35778366827E+02  0.25570474123E+02 -0.80775755016E+02  0.91970991503E+02  0.00000000000E+00 0.  1.
<mgrwt>
<rscale>  0 0.88613759E+02</rscale>
<asrwt>0</asrwt>
<pdfrwt beam="1">  1        3 0.15352374E-02 0.88613759E+02</pdfrwt>
<pdfrwt beam="2">  1       -3 0.30264958E-01 0.88613759E+02</pdfrwt>
<totfact> 0.30397490E+04</totfact>
</mgrwt>
</event>
<event>
 5    1  0.3854342E+001  0.8958398E+02  0.7546771E-02  0.1303862E+00
          3   -1    0    0  501    0  0.00000000000E+00  0.00000000000E+00  0.20360914457E+02  0.20360914457E+02  0.00000000000E+00 0. -1.
         -3   -1    0    0    0  501 -0.00000000000E+00 -0.00000000000E+00 -0.98537936415E+02  0.98537936415E+02  0.00000000000E+00 0.  1.
         23    2    1    2    0    0  0.00000000000E+00  0.00000000000E+00 -0.78177021957E+02  0.11889885087E+03  0.89583982812E+02 0.  0.
          2    1    3    3  502    0  0.19533810395E+02  0.13744133261E+02  0.11203854228E+02  0.26381760692E+02  0.00000000000E+00 0. -1.
         -2    1    3    3    0  502 -0.19533810395E+02 -0.13744133261E+02 -0.89380876185E+02  0.92517090180E+02  0.00000000000E+00 0.  1.
<mgrwt>
<rscale>  0 0.89583983E+02</rscale>
<asrwt>0</asrwt>
<pdfrwt beam="1">  1        3 0.31324484E-02 0.89583983E+02</pdfrwt>
<pdfrwt beam="2">  1       -3 0.15159683E-01 0.89583983E+02</pdfrwt>
<totfact> 0.34953465E+04</totfact>
</mgrwt>
</event>
<event>
 5    1  0.3854342E+001  0.9145650E+02  0.7546771E-02  0.1299362E+00
         -4   -1    0    0    0  501 -0.00000000000E+00  0.00000000000E+00  0.29195773570E+02  0.29195773570E+02  0.00000000000E+00 0.  1.
          4   -1    0    0  501    0  0.00000000000E+00 -0.00000000000E+00 -0.71622453830E+02  0.71622453830E+02  0.00000000000E+00 0. -1.
         23    2    1    2    0    0  0.00000000000E+00  0.00000000000E+00 -0.42426680260E+02  0.10081822740E+03  0.91456502110E+02 0.  0.
          2    1    3    3  502    0 -0.33931133706E+02  0.18781421227E+02 -0.47921684729E+02  0.61648613003E+02  0.00000000000E+00 0. -1.
         -2    1    3    3    0  502  0.33931133706E+02 -0.18781421227E+02  0.54950044695E+01  0.39169614397E+02  0.00000000000E+00 0.  1.
<mgrwt>
<rscale>  0 0.91456502E+02</rscale>
<asrwt>0</asrwt>
<pdfrwt beam="2">  1        4 0.11018839E-01 0.91456502E+02</pdfrwt>
<pdfrwt beam="1">  1       -4 0.44916575E-02 0.91456502E+02</pdfrwt>
<totfact> 0.26188921E+04</totfact>
</mgrwt>
</event>
<event>
 5    1  0.3854342E+001  0.8746716E+02  0.7546771E-02  0.1309104E+00
          2   -1    0    0  501    0  0.00000000000E+00  0.00000000000E+00  0.20243790829E+04  0.20243790829E+04  0.00000000000E+00 0. -1.
         -2   -1    0    0    0  501 -0.00000000000E+00 -0.00000000000E+00 -0.94479634122E+00  0.94479634122E+00  0.00000000000E+00 0.  1.
         23    2    1    2    0    0  0.00000000000E+00  0.00000000000E+00  0.20234342866E+04  0.20253238792E+04  0.87467158426E+02 0.  0.
          2    1    3    3  502    0 -0.26546992401E+02  0.54038556768E+01  0.21675271308E+03  0.21843919770E+03  0.00000000000E+00 0.  1.
         -2    1    3    3    0  502  0.26546992401E+02 -0.54038556768E+01  0.18066815735E+04  0.18068846815E+04  0.00000000000E+00 0. -1.
<mgrwt>
<rscale>  0 0.87467158E+02</rscale>
<asrwt>0</asrwt>
<pdfrwt beam="1">  1        2 0.31143946E+00 0.87467158E+02</pdfrwt>
<pdfrwt beam="2">  1       -2 0.14535490E-03 0.87467158E+02</pdfrwt>
<totfact> 0.21711153E+05</totfact>
</mgrwt>
</event>
<event>
 5    1  0.3854342E+001  0.9173482E+02  0.7546771E-02  0.1298704E+00
         -4   -1    0    0    0  501 -0.00000000000E+00  0.00000000000E+00  0.76825346287E+01  0.76825346287E+01  0.00000000000E+00 0.  1.
          4   -1    0    0  501    0  0.00000000000E+00 -0.00000000000E+00 -0.27384440012E+03  0.27384440012E+03  0.00000000000E+00 0. -1.
         23    2    1    2    0    0  0.00000000000E+00  0.00000000000E+00 -0.26616186549E+03  0.28152693475E+03  0.91734815349E+02 0.  0.
          2    1    3    3  502    0 -0.34552871056E+02  0.16436568740E+02 -0.55457397431E+02  0.67376439651E+02  0.00000000000E+00 0. -1.
         -2    1    3    3    0  502  0.34552871056E+02 -0.16436568740E+02 -0.21070446806E+03  0.21415049510E+03  0.00000000000E+00 0.  1.
<mgrwt>
<rscale>  0 0.91734815E+02</rscale>
<asrwt>0</asrwt>
<pdfrwt beam="2">  1        4 0.42129902E-01 0.91734815E+02</pdfrwt>
<pdfrwt beam="1">  1       -4 0.11819286E-02 0.91734815E+02</pdfrwt>
<totfact> 0.18102135E+04</totfact>
</mgrwt>
</event>
<event>
 5    1  0.3854342E+001  0.9188016E+02  0.7546771E-02  0.1298361E+00
          2   -1    0    0  501    0  0.00000000000E+00  0.00000000000E+00  0.75996246739E+02  0.75996246739E+02  0.00000000000E+00 0. -1.
         -2   -1    0    0    0  501 -0.00000000000E+00 -0.00000000000E+00 -0.27770986254E+02  0.27770986254E+02  0.00000000000E+00 0.  1.
         23    2    1    2    0    0  0.00000000000E+00  0.00000000000E+00  0.48225260485E+02  0.10376723299E+03  0.91880155061E+02 0.  0.
          2    1    3    3  502    0  0.21193032702E+01 -0.42147455970E+02  0.44616051842E+02  0.61412470827E+02  0.00000000000E+00 0. -1.
         -2    1    3    3    0  502 -0.21193032702E+01  0.42147455970E+02  0.36092086427E+01  0.42354762166E+02  0.00000000000E+00 0.  1.
<mgrwt>
<rscale>  0 0.91880155E+02</rscale>
<asrwt>0</asrwt>
<pdfrwt beam="1">  1        2 0.11691730E-01 0.91880155E+02</pdfrwt>
<pdfrwt beam="2">  1       -2 0.42724595E-02 0.91880155E+02</pdfrwt>
<totfact> 0.11079076E+05</totfact>
</mgrwt>
</event>
<event>
 5    1  0.3854342E+001  0.9219288E+02  0.7546771E-02  0.1297627E+00
          1   -1    0    0  501    0  0.00000000000E+00  0.00000000000E+00  0.21056412715E+02  0.21056412715E+02  0.00000000000E+00 0. -1.
         -1   -1    0    0    0  501 -0.00000000000E+00 -0.00000000000E+00 -0.10091376001E+03  0.10091376001E+03  0.00000000000E+00 0.  1.
         23    2    1    2    0    0  0.00000000000E+00  0.00000000000E+00 -0.79857347290E+02  0.12197017272E+03  0.92192879971E+02 0.  0.
          2    1    3    3  502    0  0.31990841557E+02 -0.54832995340E+00  0.39731827065E+01  0.32241290143E+02  0.00000000000E+00 0. -1.
         -2    1    3    3    0  502 -0.31990841557E+02  0.54832995340E+00 -0.83830529997E+02  0.89728882578E+02  0.00000000000E+00 0.  1.
<mgrwt>
<rscale>  0 0.92192880E+02</rscale>
<asrwt>0</asrwt>
<pdfrwt beam="1">  1        1 0.32394481E-02 0.92192880E+02</pdfrwt>
<pdfrwt beam="2">  1       -1 0.15525194E-01 0.92192880E+02</pdfrwt>
<totfact> 0.78944136E+04</totfact>
</mgrwt>
</event>
<event>
 5    1  0.3854342E+001  0.8579718E+02  0.7546771E-02  0.1313361E+00
         -2   -1    0    0    0  501 -0.00000000000E+00  0.00000000000E+00  0.17411083231E+04  0.17411083231E+04  0.00000000000E+00 0.  1.
          2   -1    0    0  501    0  0.00000000000E+00 -0.00000000000E+00 -0.10569641907E+01  0.10569641907E+01  0.00000000000E+00 0. -1.
         23    2    1    2    0    0  0.00000000000E+00  0.00000000000E+00  0.17400513589E+04  0.17421652873E+04  0.85797182932E+02 0.  0.
          2    1    3    3  502    0 -0.18954395163E+02 -0.17456684570E+02  0.15664476485E+04  0.15666595803E+04  0.00000000000E+00 0.  1.
         -2    1    3    3    0  502  0.18954395163E+02  0.17456684570E+02  0.17360371040E+03  0.17550570702E+03  0.00000000000E+00 0. -1.
<mgrwt>
<rscale>  0 0.85797183E+02</rscale>
<asrwt>0</asrwt>
<pdfrwt beam="2">  1        2 0.16261127E-03 0.85797183E+02</pdfrwt>
<pdfrwt beam="1">  1       -2 0.26786052E+00 0.85797183E+02</pdfrwt>
<totfact> 0.93852454E+03</totfact>
</mgrwt>
</event>
<event>
 5    1  0.3854342E+001  0.9722615E+02  0.7546771E-02  0.1286240E+00
         -1   -1    0    0    0  501 -0.00000000000E+00  0.00000000000E+00  0.20756910420E+01  0.20756910420E+01  0.00000000000E+00 0.  1.
          1   -1    0    0  501    0  0.00000000000E+00 -0.00000000000E+00 -0.11385273055E+04  0.11385273055E+04  0.00000000000E+00 0. -1.
         23    2    1    2    0    0  0.00000000000E+00  0.00000000000E+00 -0.11364516145E+04  0.11406029966E+04  0.97226147289E+02 0.  0.
          2    1    3    3  502    0 -0.19055640547E+02  0.92161569141E+01 -0.10816256965E+04  0.10818327978E+04  0.00000000000E+00 0. -1.
         -2    1    3    3    0  502  0.19055640547E+02 -0.92161569141E+01 -0.54825917987E+02  0.58770198809E+02  0.00000000000E+00 0.  1.
<mgrwt>
<rscale>  0 0.97226147E+02</rscale>
<asrwt>0</asrwt>
<pdfrwt beam="2">  1        1 0.17515848E+00 0.97226147E+02</pdfrwt>
<pdfrwt beam="1">  1       -1 0.31933629E-03 0.97226147E+02</pdfrwt>
<totfact> 0.10985961E+05</totfact>
</mgrwt>
</event>
<event>
 5    1  0.3854342E+001  0.8909077E+02  0.7546771E-02  0.1305069E+00
         -3   -1    0    0    0  501 -0.00000000000E+00  0.00000000000E+00  0.39288362604E+02  0.39288362604E+02  0.00000000000E+00 0.  1.
          3   -1    0    0  501    0  0.00000000000E+00 -0.00000000000E+00 -0.50505833724E+02  0.50505833724E+02  0.00000000000E+00 0. -1.
         23    2    1    2    0    0  0.00000000000E+00  0.00000000000E+00 -0.11217471119E+02  0.89794196328E+02  0.89090774135E+02 0.  0.
          2    1    3    3  502    0 -0.43508684145E+02 -0.95543473992E+01 -0.55896451117E+01  0.44894713304E+02  0.00000000000E+00 0. -1.
         -2    1    3    3    0  502  0.43508684145E+02  0.95543473992E+01 -0.56278260075E+01  0.44899483024E+02  0.00000000000E+00 0.  1.
<mgrwt>
<rscale>  0 0.89090774E+02</rscale>
<asrwt>0</asrwt>
<pdfrwt beam="2">  1        3 0.77701282E-02 0.89090774E+02</pdfrwt>
<pdfrwt beam="1">  1       -3 0.60443635E-02 0.89090774E+02</pdfrwt>
<totfact> 0.37746491E+04</totfact>
</mgrwt>
</event>
<event>
 5    1  0.3854342E+001  0.9155780E+02  0.7546771E-02  0.1299123E+00
         -4   -1    0    0    0  501 -0.00000000000E+00  0.00000000000E+00  0.24682134062E+02  0.24682134062E+02  0.00000000000E+00 0.  1.
          4   -1    0    0  501    0  0.00000000000E+00 -0.00000000000E+00 -0.84907886289E+02  0.84907886289E+02  0.00000000000E+00 0. -1.
         23    2    1    2    0    0  0.00000000000E+00  0.00000000000E+00 -0.60225752226E+02  0.10959002035E+03  0.91557803213E+02 0.  0.
          2    1    3    3  502    0 -0.28402351177E+02  0.26154628835E+02 -0.67304827734E+00  0.38616203281E+02  0.00000000000E+00 0.  1.
         -2    1    3    3    0  502  0.28402351177E+02 -0.26154628835E+02 -0.59552703949E+02  0.70973817070E+02  0.00000000000E+00 0. -1.
<mgrwt>
<rscale>  0 0.91557803E+02</rscale>
<asrwt>0</asrwt>
<pdfrwt beam="2">  1        4 0.13062752E-01 0.91557803E+02</pdfrwt>
<pdfrwt beam="1">  1       -4 0.37972514E-02 0.91557803E+02</pdfrwt>
<totfact> 0.25586169E+04</totfact>
</mgrwt>
</event>
<event>
 5    1  0.3854342E+001  0.9052031E+02  0.7546771E-02  0.1301597E+00
         -2   -1    0    0    0  501 -0.00000000000E+00  0.00000000000E+00  0.14959162815E+02  0.14959162815E+02  0.00000000000E+00 0.  1.
          2   -1    0    0  501    0  0.00000000000E+00 -0.00000000000E+00 -0.13693825273E+03  0.13693825273E+03  0.00000000000E+00 0. -1.
         23    2    1    2    0    0  0.00000000000E+00  0.00000000000E+00 -0.12197908991E+03  0.15189741554E+03  0.90520309726E+02 0.  0.
          2    1    3    3  502    0  0.24800729480E+02  0.31763020338E+00 -0.12451877511E+03  0.12696496535E+03  0.00000000000E+00 0. -1.
         -2    1    3    3    0  502 -0.24800729480E+02 -0.31763020338E+00  0.25396851977E+01  0.24932450192E+02  0.00000000000E+00 0.  1.
<mgrwt>
<rscale>  0 0.90520310E+02</rscale>
<asrwt>0</asrwt>
<pdfrwt beam="2">  1        2 0.21067424E-01 0.90520310E+02</pdfrwt>
<pdfrwt beam="1">  1       -2 0.23014096E-02 0.90520310E+02</pdfrwt>
<totfact> 0.13828058E+05</totfact>
</mgrwt>
</event>
<event>
 5    1  0.3854342E+001  0.8684876E+02  0.7546771E-02  0.1310667E+00
         -2   -1    0    0    0  501 -0.00000000000E+00  0.00000000000E+00  0.68037465364E+03  0.68037465364E+03  0.00000000000E+00 0. -1.
          2   -1    0    0  501    0  0.00000000000E+00 -0.00000000000E+00 -0.27715271827E+01  0.27715271827E+01  0.00000000000E+00 0.  1.
         23    2    1    2    0    0  0.00000000000E+00  0.00000000000E+00  0.67760312646E+03  0.68314618083E+03  0.86848761580E+02 0.  0.
          2    1    3    3  502    0  0.39998907613E+02 -0.85057373998E+01  0.45371324542E+03  0.45555237817E+03  0.00000000000E+00 0. -1.
         -2    1    3    3    0  502 -0.39998907613E+02  0.85057373998E+01  0.22388988104E+03  0.22759380266E+03  0.00000000000E+00 0.  1.
<mgrwt>
<rscale>  0 0.86848762E+02</rscale>
<asrwt>0</asrwt>
<pdfrwt beam="2">  1        2 0.42638934E-03 0.86848762E+02</pdfrwt>
<pdfrwt beam="1">  1       -2 0.10467289E+00 0.86848762E+02</pdfrwt>
<totfact> 0.31667980E+04</totfact>
</mgrwt>
</event>
<event>
 5    1  0.3854342E+001  0.9084772E+02  0.7546771E-02  0.1300812E+00
          2   -1    0    0  501    0  0.00000000000E+00  0.00000000000E+00  0.40843274959E+02  0.40843274959E+02  0.00000000000E+00 0. -1.
         -2   -1    0    0    0  501 -0.00000000000E+00 -0.00000000000E+00 -0.50518156336E+02  0.50518156336E+02  0.00000000000E+00 0.  1.
         23    2    1    2    0    0  0.00000000000E+00  0.00000000000E+00 -0.96748813771E+01  0.91361431294E+02  0.90847717630E+02 0.  0.
          2    1    3    3  502    0  0.40741771662E+02 -0.17091121393E+02  0.57734580883E+01  0.44557055635E+02  0.00000000000E+00 0. -1.
         -2    1    3    3    0  502 -0.40741771662E+02  0.17091121393E+02 -0.15448339465E+02  0.46804375659E+02  0.00000000000E+00 0.  1.
<mgrwt>
<rscale>  0 0.90847718E+02</rscale>
<asrwt>0</asrwt>
<pdfrwt beam="1">  1        2 0.62835808E-02 0.90847718E+02</pdfrwt>
<pdfrwt beam="2">  1       -2 0.77720240E-02 0.90847718E+02</pdfrwt>
<totfact> 0.96912672E+04</totfact>
</mgrwt>
</event>
<event>
 5    1  0.3854342E+001  0.9141113E+02  0.7546771E-02  0.1299470E+00
          2   -1    0    0  501    0  0.00000000000E+00  0.00000000000E+00  0.11139240706E+03  0.11139240706E+03  0.00000000000E+00 0.  1.
         -2   -1    0    0    0  501 -0.00000000000E+00 -0.00000000000E+00 -0.18753510671E+02  0.18753510671E+02  0.00000000000E+00 0. -1.
         23    2    1    2    0    0  0.00000000000E+00  0.00000000000E+00  0.92638896386E+02  0.13014591773E+03  0.91411130491E+02 0.  0.
          2    1    3    3  502    0  0.14778008307E+02 -0.38241822452E+02  0.75083705893E+02  0.85547585616E+02  0.00000000000E+00 0.  1.
         -2    1    3    3    0  502 -0.14778008307E+02  0.38241822452E+02  0.17555190493E+02  0.44598332112E+02  0.00000000000E+00 0. -1.
<mgrwt>
<rscale>  0 0.91411130E+02</rscale>
<asrwt>0</asrwt>
<pdfrwt beam="1">  1        2 0.17137293E-01 0.91411130E+02</pdfrwt>
<pdfrwt beam="2">  1       -2 0.28851556E-02 0.91411130E+02</pdfrwt>
<totfact> 0.12594641E+05</totfact>
</mgrwt>
</event>
<event>
 5    1  0.3854342E+001  0.9772267E+02  0.7546771E-02  0.1285159E+00
         -1   -1    0    0    0  501 -0.00000000000E+00  0.00000000000E+00  0.61153825154E+01  0.61153825154E+01  0.00000000000E+00 0.  1.
          1   -1    0    0  501    0  0.00000000000E+00 -0.00000000000E+00 -0.39039749194E+03  0.39039749194E+03  0.00000000000E+00 0. -1.
         23    2    1    2    0    0  0.00000000000E+00  0.00000000000E+00 -0.38428210942E+03  0.39651287445E+03  0.97722668736E+02 0.  0.
          2    1    3    3  502    0 -0.46447786404E+02 -0.13092252775E+01 -0.25345130112E+03  0.25767551877E+03  0.00000000000E+00 0. -1.
         -2    1    3    3    0  502  0.46447786404E+02  0.13092252775E+01 -0.13083080830E+03  0.13883735568E+03  0.00000000000E+00 0.  1.
<mgrwt>
<rscale>  0 0.97722669E+02</rscale>
<asrwt>0</asrwt>
<pdfrwt beam="2">  1        1 0.60061166E-01 0.97722669E+02</pdfrwt>
<pdfrwt beam="1">  1       -1 0.94082787E-03 0.97722669E+02</pdfrwt>
<totfact> 0.11167481E+05</totfact>
</mgrwt>
</event>
<event>
 5    1  0.3854342E+001  0.9156889E+02  0.7546771E-02  0.1299096E+00
          2   -1    0    0  501    0  0.00000000000E+00  0.00000000000E+00  0.24700398123E+03  0.24700398123E+03  0.00000000000E+00 0.  1.
         -2   -1    0    0    0  501 -0.00000000000E+00 -0.00000000000E+00 -0.84865658235E+01  0.84865658235E+01  0.00000000000E+00 0. -1.
         23    2    1    2    0    0  0.00000000000E+00  0.00000000000E+00  0.23851741540E+03  0.25549054705E+03  0.91568893088E+02 0.  0.
          2    1    3    3  502    0  0.17888611708E+02  0.23300504408E+02  0.21724406241E+03  0.21922111802E+03  0.00000000000E+00 0.  1.
         -2    1    3    3    0  502 -0.17888611708E+02 -0.23300504408E+02  0.21273352994E+02  0.36269429029E+02  0.00000000000E+00 0. -1.
<mgrwt>
<rscale>  0 0.91568893E+02</rscale>
<asrwt>0</asrwt>
<pdfrwt beam="1">  1        2 0.38000607E-01 0.91568893E+02</pdfrwt>
<pdfrwt beam="2">  1       -2 0.13056257E-02 0.91568893E+02</pdfrwt>
<totfact> 0.16520179E+05</totfact>
</mgrwt>
</event>
<event>
 5    1  0.3854342E+001  0.9102080E+02  0.7546771E-02  0.1300398E+00
          1   -1    0    0  501    0  0.00000000000E+00  0.00000000000E+00  0.44761717341E+03  0.44761717341E+03  0.00000000000E+00 0. -1.
         -1   -1    0    0    0  501 -0.00000000000E+00 -0.00000000000E+00 -0.46271604593E+01  0.46271604593E+01  0.00000000000E+00 0.  1.
         23    2    1    2    0    0  0.00000000000E+00  0.00000000000E+00  0.44299001295E+03  0.45224433387E+03  0.91020799507E+02 0.  0.
          2    1    3    3  502    0  0.37453776672E+02 -0.22703095413E+02  0.16004094255E+03  0.16592564365E+03  0.00000000000E+00 0. -1.
         -2    1    3    3    0  502 -0.37453776672E+02  0.22703095413E+02  0.28294907040E+03  0.28631869022E+03  0.00000000000E+00 0.  1.
<mgrwt>
<rscale>  0 0.91020800E+02</rscale>
<asrwt>0</asrwt>
<pdfrwt beam="1">  1        1 0.68864147E-01 0.91020800E+02</pdfrwt>
<pdfrwt beam="2">  1       -1 0.71187119E-03 0.91020800E+02</pdfrwt>
<totfact> 0.13787816E+05</totfact>
</mgrwt>
</event>
<event>
 5    1  0.3854342E+001  0.9118418E+02  0.7546771E-02  0.1300009E+00
         -1   -1    0    0    0  501 -0.00000000000E+00  0.00000000000E+00  0.30111192350E+03  0.30111192350E+03  0.00000000000E+00 0.  1.
          1   -1    0    0  501    0  0.00000000000E+00 -0.00000000000E+00 -0.69032088451E+01  0.69032088451E+01  0.00000000000E+00 0. -1.
         23    2    1    2    0    0  0.00000000000E+00  0.00000000000E+00  0.29420871465E+03  0.30801513234E+03  0.91184176119E+02 0.  0.
          2    1    3    3  502    0  0.11984810851E+02  0.29210656989E+02  0.36004350970E+02  0.47887487527E+02  0.00000000000E+00 0. -1.
         -2    1    3    3    0  502 -0.11984810851E+02 -0.29210656989E+02  0.25820436368E+03  0.26012764481E+03  0.00000000000E+00 0.  1.
<mgrwt>
<rscale>  0 0.91184176E+02</rscale>
<asrwt>0</asrwt>
<pdfrwt beam="2">  1        1 0.10620324E-02 0.91184176E+02</pdfrwt>
<pdfrwt beam="1">  1       -1 0.46324901E-01 0.91184176E+02</pdfrwt>
<totfact> 0.60485313E+04</totfact>
</mgrwt>
</event>
<event>
 5    1  0.3854342E+001  0.9178527E+02  0.7546771E-02  0.1298585E+00
          2   -1    0    0  501    0  0.00000000000E+00  0.00000000000E+00  0.19976899500E+03  0.19976899500E+03  0.00000000000E+00 0. -1.
         -2   -1    0    0    0  501 -0.00000000000E+00 -0.00000000000E+00 -0.10542847901E+02  0.10542847901E+02  0.00000000000E+00 0.  1.
         23    2    1    2    0    0  0.00000000000E+00  0.00000000000E+00  0.18922614710E+03  0.21031184290E+03  0.91785273971E+02 0.  0.
          2    1    3    3  502    0  0.28881017752E+02 -0.27458035843E+02  0.14676711464E+03  0.15208104043E+03  0.00000000000E+00 0. -1.
         -2    1    3    3    0  502 -0.28881017752E+02  0.27458035843E+02  0.42459032456E+02  0.58230802466E+02  0.00000000000E+00 0.  1.
<mgrwt>
<rscale>  0 0.91785274E+02</rscale>
<asrwt>0</asrwt>
<pdfrwt beam="1">  1        2 0.30733689E-01 0.91785274E+02</pdfrwt>
<pdfrwt beam="2">  1       -2 0.16219768E-02 0.91785274E+02</pdfrwt>
<totfact> 0.15186769E+05</totfact>
</mgrwt>
</event>
<event>
 5    1  0.3854342E+001  0.9140822E+02  0.7546771E-02  0.1299477E+00
         -1   -1    0    0    0  501 -0.00000000000E+00  0.00000000000E+00  0.85475614795E+01  0.85475614795E+01  0.00000000000E+00 0.  1.
          1   -1    0    0  501    0  0.00000000000E+00 -0.00000000000E+00 -0.24438150015E+03  0.24438150015E+03  0.00000000000E+00 0. -1.
         23    2    1    2    0    0  0.00000000000E+00  0.00000000000E+00 -0.23583393867E+03  0.25292906163E+03  0.91408224946E+02 0.  0.
          2    1    3    3  502    0 -0.29853993816E+02  0.54576755990E+01 -0.21247560012E+03  0.21463207546E+03  0.00000000000E+00 0. -1.
         -2    1    3    3    0  502  0.29853993816E+02 -0.54576755990E+01 -0.23358338545E+02  0.38296986164E+02  0.00000000000E+00 0.  1.
<mgrwt>
<rscale>  0 0.91408225E+02</rscale>
<asrwt>0</asrwt>
<pdfrwt beam="2">  1        1 0.37597154E-01 0.91408225E+02</pdfrwt>
<pdfrwt beam="1">  1       -1 0.13150095E-02 0.91408225E+02</pdfrwt>
<totfact> 0.12229162E+05</totfact>
</mgrwt>
</event>
<event>
 5    1  0.3854342E+001  0.9081805E+02  0.7546771E-02  0.1300883E+00
          2   -1    0    0  501    0  0.00000000000E+00  0.00000000000E+00  0.80099324144E+02  0.80099324144E+02  0.00000000000E+00 0. -1.
         -2   -1    0    0    0  501 -0.00000000000E+00 -0.00000000000E+00 -0.25742780989E+02  0.25742780989E+02  0.00000000000E+00 0.  1.
         23    2    1    2    0    0  0.00000000000E+00  0.00000000000E+00  0.54356543155E+02  0.10584210513E+03  0.90818045758E+02 0.  0.
          2    1    3    3  502    0  0.21259767826E+02  0.60662719606E-01  0.73940906938E+02  0.76936591598E+02  0.00000000000E+00 0. -1.
         -2    1    3    3    0  502 -0.21259767826E+02 -0.60662719606E-01 -0.19584363783E+02  0.28905513535E+02  0.00000000000E+00 0.  1.
<mgrwt>
<rscale>  0 0.90818046E+02</rscale>
<asrwt>0</asrwt>
<pdfrwt beam="1">  1        2 0.12322973E-01 0.90818046E+02</pdfrwt>
<pdfrwt beam="2">  1       -2 0.39604279E-02 0.90818046E+02</pdfrwt>
<totfact> 0.11616176E+05</totfact>
</mgrwt>
</event>
<event>
 5    1  0.3854342E+001  0.9059513E+02  0.7546771E-02  0.1301417E+00
         -1   -1    0    0    0  501 -0.00000000000E+00  0.00000000000E+00  0.16891820290E+02  0.16891820290E+02  0.00000000000E+00 0.  1.
          1   -1    0    0  501    0  0.00000000000E+00 -0.00000000000E+00 -0.12147118791E+03  0.12147118791E+03  0.00000000000E+00 0. -1.
         23    2    1    2    0    0  0.00000000000E+00  0.00000000000E+00 -0.10457936762E+03  0.13836300820E+03  0.90595131801E+02 0.  0.
          2    1    3    3  502    0  0.33398292229E+02 -0.29912604610E+02 -0.62147322158E+02  0.76632235317E+02  0.00000000000E+00 0. -1.
         -2    1    3    3    0  502 -0.33398292229E+02  0.29912604610E+02 -0.42432045459E+02  0.61730772879E+02  0.00000000000E+00 0.  1.
<mgrwt>
<rscale>  0 0.90595132E+02</rscale>
<asrwt>0</asrwt>
<pdfrwt beam="2">  1        1 0.18687875E-01 0.90595132E+02</pdfrwt>
<pdfrwt beam="1">  1       -1 0.25987416E-02 0.90595132E+02</pdfrwt>
<totfact> 0.10985576E+05</totfact>
</mgrwt>
</event>
<event>
 5    1  0.3854342E+001  0.9006455E+02  0.7546771E-02  0.1302695E+00
          3   -1    0    0  501    0  0.00000000000E+00  0.00000000000E+00  0.15935330225E+03  0.15935330225E+03  0.00000000000E+00 0. -1.
         -3   -1    0    0    0  501 -0.00000000000E+00 -0.00000000000E+00 -0.12725846840E+02  0.12725846840E+02  0.00000000000E+00 0.  1.
         23    2    1    2    0    0  0.00000000000E+00  0.00000000000E+00  0.14662745541E+03  0.17207914909E+03  0.90064548362E+02 0.  0.
          2    1    3    3  502    0 -0.12505066119E+02  0.41434473461E+02  0.49548695495E+02  0.65789554603E+02  0.00000000000E+00 0.  1.
         -2    1    3    3    0  502  0.12505066119E+02 -0.41434473461E+02  0.97078759915E+02  0.10628959449E+03  0.00000000000E+00 0. -1.
<mgrwt>
<rscale>  0 0.90064548E+02</rscale>
<asrwt>0</asrwt>
<pdfrwt beam="1">  1        3 0.24515891E-01 0.90064548E+02</pdfrwt>
<pdfrwt beam="2">  1       -3 0.19578227E-02 0.90064548E+02</pdfrwt>
<totfact> 0.31018785E+04</totfact>
</mgrwt>
</event>
<event>
 5    1  0.3854342E+001  0.8945066E+02  0.7546771E-02  0.1304187E+00
         -2   -1    0    0    0  501 -0.00000000000E+00  0.00000000000E+00  0.11163215221E+03  0.11163215221E+03  0.00000000000E+00 0.  1.
          2   -1    0    0  501    0  0.00000000000E+00 -0.00000000000E+00 -0.17919165152E+02  0.17919165152E+02  0.00000000000E+00 0. -1.
         23    2    1    2    0    0  0.00000000000E+00  0.00000000000E+00  0.93712987059E+02  0.12955131736E+03  0.89450656157E+02 0.  0.
          2    1    3    3  502    0  0.41061838545E+02  0.65982377213E+01  0.23025758412E+02  0.47537320877E+02  0.00000000000E+00 0. -1.
         -2    1    3    3    0  502 -0.41061838545E+02 -0.65982377213E+01  0.70687228647E+02  0.82013996486E+02  0.00000000000E+00 0.  1.
<mgrwt>
<rscale>  0 0.89450656E+02</rscale>
<asrwt>0</asrwt>
<pdfrwt beam="2">  1        2 0.27567947E-02 0.89450656E+02</pdfrwt>
<pdfrwt beam="1">  1       -2 0.17174177E-01 0.89450656E+02</pdfrwt>
<totfact> 0.80946154E+04</totfact>
</mgrwt>
</event>
<event>
 5    1  0.3854342E+001  0.8970599E+02  0.7546771E-02  0.1303565E+00
          2   -1    0    0  501    0  0.00000000000E+00  0.00000000000E+00  0.30468504821E+04  0.30468504821E+04  0.00000000000E+00 0.  1.
         -2   -1    0    0    0  501 -0.00000000000E+00 -0.00000000000E+00 -0.66028543743E+00  0.66028543743E+00  0.00000000000E+00 0. -1.
         23    2    1    2    0    0  0.00000000000E+00  0.00000000000E+00  0.30461901967E+04  0.30475107675E+04  0.89705986497E+02 0.  0.
          2    1    3    3  502    0 -0.26115222894E+02  0.26865248696E+02  0.68538929905E+03  0.68641258563E+03  0.00000000000E+00 0. -1.
         -2    1    3    3    0  502  0.26115222894E+02 -0.26865248696E+02  0.23608008976E+04  0.23610981819E+04  0.00000000000E+00 0.  1.
<mgrwt>
<rscale>  0 0.89705986E+02</rscale>
<asrwt>0</asrwt>
<pdfrwt beam="1">  1        2 0.46873497E+00 0.89705986E+02</pdfrwt>
<pdfrwt beam="2">  1       -2 0.10158481E-03 0.89705986E+02</pdfrwt>
<totfact> 0.10223380E+05</totfact>
</mgrwt>
</event>
<event>
 5    1  0.3854342E+001  0.9198981E+02  0.7546771E-02  0.1298103E+00
         -2   -1    0    0    0  501 -0.00000000000E+00  0.00000000000E+00  0.20170221538E+03  0.20170221538E+03  0.00000000000E+00 0.  1.
          2   -1    0    0  501    0  0.00000000000E+00 -0.00000000000E+00 -0.10488388816E+02  0.10488388816E+02  0.00000000000E+00 0. -1.
         23    2    1    2    0    0  0.00000000000E+00  0.00000000000E+00  0.19121382656E+03  0.21219060420E+03  0.91989809435E+02 0.  0.
          2    1    3    3  502    0  0.15169391098E+02  0.34685116250E+02  0.35351740180E+02  0.51796845940E+02  0.00000000000E+00 0. -1.
         -2    1    3    3    0  502 -0.15169391098E+02 -0.34685116250E+02  0.15586208639E+03  0.16039375826E+03  0.00000000000E+00 0.  1.
<mgrwt>
<rscale>  0 0.91989809E+02</rscale>
<asrwt>0</asrwt>
<pdfrwt beam="2">  1        2 0.16135984E-02 0.91989809E+02</pdfrwt>
<pdfrwt beam="1">  1       -2 0.31031107E-01 0.91989809E+02</pdfrwt>
<totfact> 0.60697025E+04</totfact>
</mgrwt>
</event>
<event>
 5    1  0.3854342E+001  0.9324294E+02  0.7546771E-02  0.1295183E+00
          1   -1    0    0  501    0  0.00000000000E+00  0.00000000000E+00  0.19804690831E+02  0.19804690831E+02  0.00000000000E+00 0. -1.
         -1   -1    0    0    0  501 -0.00000000000E+00 -0.00000000000E+00 -0.10974983624E+03  0.10974983624E+03  0.00000000000E+00 0.  1.
         23    2    1    2    0    0  0.00000000000E+00  0.00000000000E+00 -0.89945145407E+02  0.12955452707E+03  0.93242942371E+02 0.  0.
          2    1    3    3  502    0  0.39110284690E+02 -0.90017862047E+01 -0.12007195120E+02  0.41890562876E+02  0.00000000000E+00 0. -1.
         -2    1    3    3    0  502 -0.39110284690E+02  0.90017862047E+01 -0.77937950287E+02  0.87663964195E+02  0.00000000000E+00 0.  1.
<mgrwt>
<rscale>  0 0.93242942E+02</rscale>
<asrwt>0</asrwt>
<pdfrwt beam="1">  1        1 0.30468755E-02 0.93242942E+02</pdfrwt>
<pdfrwt beam="2">  1       -1 0.16884591E-01 0.93242942E+02</pdfrwt>
<totfact> 0.75445351E+04</totfact>
</mgrwt>
</event>
<event>
 5    1  0.3854342E+001  0.9101226E+02  0.7546771E-02  0.1300419E+00
         -1   -1    0    0    0  501 -0.00000000000E+00  0.00000000000E+00  0.39641501408E+01  0.39641501408E+01  0.00000000000E+00 0.  1.
          1   -1    0    0  501    0  0.00000000000E+00 -0.00000000000E+00 -0.52238381182E+03  0.52238381182E+03  0.00000000000E+00 0. -1.
         23    2    1    2    0    0  0.00000000000E+00  0.00000000000E+00 -0.51841966168E+03  0.52634796196E+03  0.91012259859E+02 0.  0.
          2    1    3    3  502    0  0.22092200014E+02  0.21816318630E+02 -0.45161016323E+03  0.45267621607E+03  0.00000000000E+00 0. -1.
         -2    1    3    3    0  502 -0.22092200014E+02 -0.21816318630E+02 -0.66809498450E+02  0.73671745895E+02  0.00000000000E+00 0.  1.
<mgrwt>
<rscale>  0 0.91012260E+02</rscale>
<asrwt>0</asrwt>
<pdfrwt beam="2">  1        1 0.80366691E-01 0.91012260E+02</pdfrwt>
<pdfrwt beam="1">  1       -1 0.60986962E-03 0.91012260E+02</pdfrwt>
<totfact> 0.14062188E+05</totfact>
</mgrwt>
</event>
<event>
 5    1  0.3854342E+001  0.9197385E+02  0.7546771E-02  0.1298141E+00
         -1   -1    0    0    0  501 -0.00000000000E+00  0.00000000000E+00  0.15480437110E+01  0.15480437110E+01  0.00000000000E+00 0.  1.
          1   -1    0    0  501    0  0.00000000000E+00 -0.00000000000E+00 -0.13661096078E+04  0.13661096078E+04  0.00000000000E+00 0. -1.
         23    2    1    2    0    0  0.00000000000E+00  0.00000000000E+00 -0.13645615641E+04  0.13676576515E+04  0.91973852522E+02 0.  0.
          2    1    3    3  502    0  0.40627657308E+00  0.44962995745E+02 -0.82565273754E+03  0.82687621750E+03  0.00000000000E+00 0. -1.
         -2    1    3    3    0  502 -0.40627657308E+00 -0.44962995745E+02 -0.53890882657E+03  0.54078143404E+03  0.00000000000E+00 0.  1.
<mgrwt>
<rscale>  0 0.91973853E+02</rscale>
<asrwt>0</asrwt>
<pdfrwt beam="2">  1        1 0.21016978E+00 0.91973853E+02</pdfrwt>
<pdfrwt beam="1">  1       -1 0.23816163E-03 0.91973853E+02</pdfrwt>
<totfact> 0.11568455E+05</totfact>
</mgrwt>
</event>
<event>
 5    1  0.3854342E+001  0.9133271E+02  0.7546771E-02  0.1299656E+00
          4   -1    0    0  501    0  0.00000000000E+00  0.00000000000E+00  0.13027577130E+03  0.13027577130E+03  0.00000000000E+00 0. -1.
         -4   -1    0    0    0  501 -0.00000000000E+00 -0.00000000000E+00 -0.16007702359E+02  0.16007702359E+02  0.00000000000E+00 0.  1.
         23    2    1    2    0    0  0.00000000000E+00  0.00000000000E+00  0.11426806894E+03  0.14628347366E+03  0.91332705458E+02 0.  0.
          2    1    3    3  502    0 -0.41085622088E+02  0.19927430154E+02  0.57989019221E+02  0.73809600765E+02  0.00000000000E+00 0. -1.
         -2    1    3    3    0  502  0.41085622088E+02 -0.19927430154E+02  0.56279049718E+02  0.72473872893E+02  0.00000000000E+00 0.  1.
<mgrwt>
<rscale>  0 0.91332705E+02</rscale>
<asrwt>0</asrwt>
<pdfrwt beam="1">  1        4 0.20042426E-01 0.91332705E+02</pdfrwt>
<pdfrwt beam="2">  1       -4 0.24627235E-02 0.91332705E+02</pdfrwt>
<totfact> 0.23751371E+04</totfact>
</mgrwt>
</event>
<event>
 5    1  0.3854342E+001  0.8302703E+02  0.7546771E-02  0.1320674E+00
         -2   -1    0    0    0  501 -0.00000000000E+00  0.00000000000E+00  0.34543038631E+02  0.34543038631E+02  0.00000000000E+00 0.  1.
          2   -1    0    0  501    0  0.00000000000E+00 -0.00000000000E+00 -0.49890572523E+02  0.49890572523E+02  0.00000000000E+00 0. -1.
         23    2    1    2    0    0  0.00000000000E+00  0.00000000000E+00 -0.15347533891E+02  0.84433611154E+02  0.83027031116E+02 0.  0.
          2    1    3    3  502    0 -0.26929124731E+02 -0.28371687517E+01 -0.39673413872E+02  0.48033395191E+02  0.00000000000E+00 0. -1.
         -2    1    3    3    0  502  0.26929124731E+02  0.28371687517E+01  0.24325879981E+02  0.36400215963E+02  0.00000000000E+00 0.  1.
<mgrwt>
<rscale>  0 0.83027031E+02</rscale>
<asrwt>0</asrwt>
<pdfrwt beam="2">  1        2 0.76754727E-02 0.83027031E+02</pdfrwt>
<pdfrwt beam="1">  1       -2 0.53143136E-02 0.83027031E+02</pdfrwt>
<totfact> 0.13160540E+05</totfact>
</mgrwt>
</event>
<event>
 5    1  0.3854342E+001  0.9062537E+02  0.7546771E-02  0.1301344E+00
          2   -1    0    0  501    0  0.00000000000E+00  0.00000000000E+00  0.48281818634E+03  0.48281818634E+03  0.00000000000E+00 0. -1.
         -2   -1    0    0    0  501 -0.00000000000E+00 -0.00000000000E+00 -0.42526139348E+01  0.42526139348E+01  0.00000000000E+00 0.  1.
         23    2    1    2    0    0  0.00000000000E+00  0.00000000000E+00  0.47856557241E+03  0.48707080027E+03  0.90625368352E+02 0.  0.
          2    1    3    3  502    0 -0.44068551268E+02 -0.75035601878E+01  0.19946075369E+03  0.20440873976E+03  0.00000000000E+00 0. -1.
         -2    1    3    3    0  502  0.44068551268E+02  0.75035601878E+01  0.27910481871E+03  0.28266206052E+03  0.00000000000E+00 0.  1.
<mgrwt>
<rscale>  0 0.90625368E+02</rscale>
<asrwt>0</asrwt>
<pdfrwt beam="1">  1        2 0.74279678E-01 0.90625368E+02</pdfrwt>
<pdfrwt beam="2">  1       -2 0.65424868E-03 0.90625368E+02</pdfrwt>
<totfact> 0.21648580E+05</totfact>
</mgrwt>
</event>
<event>
 5    1  0.3854342E+001  0.9441261E+02  0.7546771E-02  0.1292505E+00
         -1   -1    0    0    0  501 -0.00000000000E+00  0.00000000000E+00  0.42727346933E+01  0.42727346933E+01  0.00000000000E+00 0.  1.
          1   -1    0    0  501    0  0.00000000000E+00 -0.00000000000E+00 -0.52154775600E+03  0.52154775600E+03  0.00000000000E+00 0. -1.
         23    2    1    2    0    0  0.00000000000E+00  0.00000000000E+00 -0.51727502131E+03  0.52582049069E+03  0.94412609142E+02 0.  0.
          2    1    3    3  502    0  0.15794658640E+02 -0.14456091681E+02 -0.24326690687E+02  0.32407371199E+02  0.00000000000E+00 0.  1.
         -2    1    3    3    0  502 -0.15794658640E+02  0.14456091681E+02 -0.49294833062E+03  0.49341311949E+03  0.00000000000E+00 0. -1.
<mgrwt>
<rscale>  0 0.94412609E+02</rscale>
<asrwt>0</asrwt>
<pdfrwt beam="2">  1        1 0.80238174E-01 0.94412609E+02</pdfrwt>
<pdfrwt beam="1">  1       -1 0.65734333E-03 0.94412609E+02</pdfrwt>
<totfact> 0.12755499E+05</totfact>
</mgrwt>
</event>
<event>
 5    1  0.3854342E+001  0.8995044E+02  0.7546771E-02  0.1302972E+00
         -3   -1    0    0    0  501 -0.00000000000E+00  0.00000000000E+00  0.86362431691E+02  0.86362431691E+02  0.00000000000E+00 0.  1.
          3   -1    0    0  501    0  0.00000000000E+00 -0.00000000000E+00 -0.23421876867E+02  0.23421876867E+02  0.00000000000E+00 0. -1.
         23    2    1    2    0    0  0.00000000000E+00  0.00000000000E+00  0.62940554824E+02  0.10978430856E+03  0.89950436153E+02 0.  0.
          2    1    3    3  502    0  0.21065084204E+01  0.24181170024E+02 -0.14741383851E+02  0.28398499244E+02  0.00000000000E+00 0. -1.
         -2    1    3    3    0  502 -0.21065084204E+01 -0.24181170024E+02  0.77681938675E+02  0.81385809315E+02  0.00000000000E+00 0.  1.
<mgrwt>
<rscale>  0 0.89950436E+02</rscale>
<asrwt>0</asrwt>
<pdfrwt beam="2">  1        3 0.36033657E-02 0.89950436E+02</pdfrwt>
<pdfrwt beam="1">  1       -3 0.13286528E-01 0.89950436E+02</pdfrwt>
<totfact> 0.35232575E+04</totfact>
</mgrwt>
</event>
<event>
 5    1  0.3854342E+001  0.9200015E+02  0.7546771E-02  0.1298079E+00
          1   -1    0    0  501    0  0.00000000000E+00  0.00000000000E+00  0.33052940156E+04  0.33052940156E+04  0.00000000000E+00 0. -1.
         -1   -1    0    0    0  501 -0.00000000000E+00 -0.00000000000E+00 -0.64018719451E+00  0.64018719451E+00  0.00000000000E+00 0.  1.
         23    2    1    2    0    0  0.00000000000E+00  0.00000000000E+00  0.33046538284E+04  0.33059342028E+04  0.92000150063E+02 0.  0.
          2    1    3    3  502    0 -0.45009746762E+02  0.86506152031E+01  0.15117865482E+04  0.15124811661E+04  0.00000000000E+00 0.  1.
         -2    1    3    3    0  502  0.45009746762E+02 -0.86506152031E+01  0.17928672802E+04  0.17934530368E+04  0.00000000000E+00 0. -1.
<mgrwt>
<rscale>  0 0.92000150E+02</rscale>
<asrwt>0</asrwt>
<pdfrwt beam="1">  1        1 0.50849311E+00 0.92000150E+02</pdfrwt>
<pdfrwt beam="2">  1       -1 0.98492984E-04 0.92000150E+02</pdfrwt>
<totfact> 0.21529359E+04</totfact>
</mgrwt>
</event>
<event>
 5    1  0.3854342E+001  0.9062473E+02  0.7546771E-02  0.1301346E+00
          2   -1    0    0  501    0  0.00000000000E+00  0.00000000000E+00  0.14057796555E+04  0.14057796555E+04  0.00000000000E+00 0. -1.
         -2   -1    0    0    0  501 -0.00000000000E+00 -0.00000000000E+00 -0.14605491000E+01  0.14605491000E+01  0.00000000000E+00 0.  1.
         23    2    1    2    0    0  0.00000000000E+00  0.00000000000E+00  0.14043191064E+04  0.14072402046E+04  0.90624725338E+02 0.  0.
          2    1    3    3  502    0  0.29493702964E+02  0.66200700711E+01  0.12263389049E+04  0.12267113815E+04  0.00000000000E+00 0. -1.
         -2    1    3    3    0  502 -0.29493702964E+02 -0.66200700711E+01  0.17798020153E+03  0.18052882312E+03  0.00000000000E+00 0.  1.
<mgrwt>
<rscale>  0 0.90624725E+02</rscale>
<asrwt>0</asrwt>
<pdfrwt beam="1">  1        2 0.21627271E+00 0.90624725E+02</pdfrwt>
<pdfrwt beam="2">  1       -2 0.22470099E-03 0.90624725E+02</pdfrwt>
<totfact> 0.24500291E+05</totfact>
</mgrwt>
</event>
<event>
 5    1  0.3854342E+001  0.8262912E+02  0.7546771E-02  0.1321752E+00
          2   -1    0    0  501    0  0.00000000000E+00  0.00000000000E+00  0.22104267577E+03  0.22104267577E+03  0.00000000000E+00 0. -1.
         -2   -1    0    0    0  501 -0.00000000000E+00 -0.00000000000E+00 -0.77220051366E+01  0.77220051366E+01  0.00000000000E+00 0.  1.
         23    2    1    2    0    0  0.00000000000E+00  0.00000000000E+00  0.21332067063E+03  0.22876468091E+03  0.82629115394E+02 0.  0.
          2    1    3    3  502    0  0.22025766214E+02 -0.12301649287E+02  0.19724080028E+03  0.19884767599E+03  0.00000000000E+00 0. -1.
         -2    1    3    3    0  502 -0.22025766214E+02  0.12301649287E+02  0.16079870354E+02  0.29917004915E+02  0.00000000000E+00 0.  1.
<mgrwt>
<rscale>  0 0.82629115E+02</rscale>
<asrwt>0</asrwt>
<pdfrwt beam="1">  1        2 0.34006561E-01 0.82629115E+02</pdfrwt>
<pdfrwt beam="2">  1       -2 0.11880010E-02 0.82629115E+02</pdfrwt>
<totfact> 0.20861774E+05</totfact>
</mgrwt>
</event>
<event>
 5    1  0.3854342E+001  0.9181117E+02  0.7546771E-02  0.1298524E+00
          2   -1    0    0  501    0  0.00000000000E+00  0.00000000000E+00  0.22012495330E+03  0.22012495330E+03  0.00000000000E+00 0. -1.
         -2   -1    0    0    0  501 -0.00000000000E+00 -0.00000000000E+00 -0.95733021641E+01  0.95733021641E+01  0.00000000000E+00 0.  1.
         23    2    1    2    0    0  0.00000000000E+00  0.00000000000E+00  0.21055165114E+03  0.22969825546E+03  0.91811169076E+02 0.  0.
          2    1    3    3  502    0  0.39692450530E+02  0.90621757795E+01  0.15833102907E+03  0.16348189021E+03  0.00000000000E+00 0. -1.
         -2    1    3    3    0  502 -0.39692450530E+02 -0.90621757795E+01  0.52220622063E+02  0.66216365255E+02  0.00000000000E+00 0.  1.
<mgrwt>
<rscale>  0 0.91811169E+02</rscale>
<asrwt>0</asrwt>
<pdfrwt beam="1">  1        2 0.33865374E-01 0.91811169E+02</pdfrwt>
<pdfrwt beam="2">  1       -2 0.14728159E-02 0.91811169E+02</pdfrwt>
<totfact> 0.15721486E+05</totfact>
</mgrwt>
</event>
<event>
 5    1  0.3854342E+001  0.8863319E+02  0.7546771E-02  0.1306196E+00
         -1   -1    0    0    0  501 -0.00000000000E+00  0.00000000000E+00  0.10458200846E+03  0.10458200846E+03  0.00000000000E+00 0.  1.
          1   -1    0    0  501    0  0.00000000000E+00 -0.00000000000E+00 -0.18779145196E+02  0.18779145196E+02  0.00000000000E+00 0. -1.
         23    2    1    2    0    0  0.00000000000E+00  0.00000000000E+00  0.85802863260E+02  0.12336115365E+03  0.88633192916E+02 0.  0.
          2    1    3    3  502    0  0.11864968640E+02 -0.26036229061E+02 -0.42007781114E+01  0.28919011762E+02  0.00000000000E+00 0. -1.
         -2    1    3    3    0  502 -0.11864968640E+02  0.26036229061E+02  0.90003641371E+02  0.94442141889E+02  0.00000000000E+00 0.  1.
<mgrwt>
<rscale>  0 0.88633193E+02</rscale>
<asrwt>0</asrwt>
<pdfrwt beam="2">  1        1 0.28890993E-02 0.88633193E+02</pdfrwt>
<pdfrwt beam="1">  1       -1 0.16089539E-01 0.88633193E+02</pdfrwt>
<totfact> 0.86784649E+04</totfact>
</mgrwt>
</event>
<event>
 5    1  0.3854342E+001  0.8920825E+02  0.7546771E-02  0.1304780E+00
         -3   -1    0    0    0  501 -0.00000000000E+00  0.00000000000E+00  0.16940322416E+03  0.16940322416E+03  0.00000000000E+00 0.  1.
          3   -1    0    0  501    0  0.00000000000E+00 -0.00000000000E+00 -0.11744332319E+02  0.11744332319E+02  0.00000000000E+00 0. -1.
         23    2    1    2    0    0  0.00000000000E+00  0.00000000000E+00  0.15765889184E+03  0.18114755648E+03  0.89208245372E+02 0.  0.
          2    1    3    3  502    0 -0.66682973609E+01 -0.29982756462E+02  0.13152457563E+02  0.33412857027E+02  0.00000000000E+00 0. -1.
         -2    1    3    3    0  502  0.66682973609E+01  0.29982756462E+02  0.14450643428E+03  0.14773469946E+03  0.00000000000E+00 0.  1.
<mgrwt>
<rscale>  0 0.89208245E+02</rscale>
<asrwt>0</asrwt>
<pdfrwt beam="2">  1        3 0.18068205E-02 0.89208245E+02</pdfrwt>
<pdfrwt beam="1">  1       -3 0.26062033E-01 0.89208245E+02</pdfrwt>
<totfact> 0.31289744E+04</totfact>
</mgrwt>
</event>
<event>
 5    1  0.3854342E+001  0.8757268E+02  0.7546771E-02  0.1308839E+00
          2   -1    0    0  501    0  0.00000000000E+00  0.00000000000E+00  0.30642424785E+02  0.30642424785E+02  0.00000000000E+00 0.  1.
         -2   -1    0    0    0  501 -0.00000000000E+00 -0.00000000000E+00 -0.62568270819E+02  0.62568270819E+02  0.00000000000E+00 0. -1.
         23    2    1    2    0    0  0.00000000000E+00  0.00000000000E+00 -0.31925846034E+02  0.93210695604E+02  0.87572679130E+02 0.  0.
          2    1    3    3  502    0 -0.31375078836E+02 -0.18160553370E+00 -0.48471268644E+02  0.57739868692E+02  0.00000000000E+00 0. -1.
         -2    1    3    3    0  502  0.31375078836E+02  0.18160553370E+00  0.16545422610E+02  0.35470826913E+02  0.00000000000E+00 0.  1.
<mgrwt>
<rscale>  0 0.87572679E+02</rscale>
<asrwt>0</asrwt>
<pdfrwt beam="1">  1        2 0.47142192E-02 0.87572679E+02</pdfrwt>
<pdfrwt beam="2">  1       -2 0.96258878E-02 0.87572679E+02</pdfrwt>
<totfact> 0.10018778E+05</totfact>
</mgrwt>
</event>
<event>
 5    1  0.3854342E+001  0.8947684E+02  0.7546771E-02  0.1304124E+00
          2   -1    0    0  501    0  0.00000000000E+00  0.00000000000E+00  0.68368318384E+03  0.68368318384E+03  0.00000000000E+00 0. -1.
         -2   -1    0    0    0  501 -0.00000000000E+00 -0.00000000000E+00 -0.29275639806E+01  0.29275639806E+01  0.00000000000E+00 0.  1.
         23    2    1    2    0    0  0.00000000000E+00  0.00000000000E+00  0.68075561986E+03  0.68661074782E+03  0.89476840873E+02 0.  0.
          2    1    3    3  502    0  0.25758346356E+02 -0.20515229373E+02  0.57277042513E+03  0.57371624254E+03  0.00000000000E+00 0. -1.
         -2    1    3    3    0  502 -0.25758346356E+02  0.20515229373E+02  0.10798519473E+03  0.11289450529E+03  0.00000000000E+00 0.  1.
<mgrwt>
<rscale>  0 0.89476841E+02</rscale>
<asrwt>0</asrwt>
<pdfrwt beam="1">  1        2 0.10518190E+00 0.89476841E+02</pdfrwt>
<pdfrwt beam="2">  1       -2 0.45039500E-03 0.89476841E+02</pdfrwt>
<totfact> 0.24781021E+05</totfact>
</mgrwt>
</event>
<event>
 5    1  0.3854342E+001  0.9175631E+02  0.7546771E-02  0.1298653E+00
         -2   -1    0    0    0  501 -0.00000000000E+00  0.00000000000E+00  0.13773621955E+02  0.13773621955E+02  0.00000000000E+00 0. -1.
          2   -1    0    0  501    0  0.00000000000E+00 -0.00000000000E+00 -0.15281420808E+03  0.15281420808E+03  0.00000000000E+00 0.  1.
         23    2    1    2    0    0  0.00000000000E+00  0.00000000000E+00 -0.13904058612E+03  0.16658783003E+03  0.91756310547E+02 0.  0.
          2    1    3    3  502    0 -0.13852444909E+01 -0.29319425789E+02 -0.55043905708E+01  0.29863789888E+02  0.00000000000E+00 0. -1.
         -2    1    3    3    0  502  0.13852444909E+01  0.29319425789E+02 -0.13353619555E+03  0.13672404014E+03  0.00000000000E+00 0.  1.
<mgrwt>
<rscale>  0 0.91756311E+02</rscale>
<asrwt>0</asrwt>
<pdfrwt beam="2">  1        2 0.23509879E-01 0.91756311E+02</pdfrwt>
<pdfrwt beam="1">  1       -2 0.21190187E-02 0.91756311E+02</pdfrwt>
<totfact> 0.13829805E+05</totfact>
</mgrwt>
</event>
<event>
 5    1  0.3854342E+001  0.9177794E+02  0.7546771E-02  0.1298602E+00
          2   -1    0    0  501    0  0.00000000000E+00  0.00000000000E+00  0.79479589892E+03  0.79479589892E+03  0.00000000000E+00 0. -1.
         -2   -1    0    0    0  501 -0.00000000000E+00 -0.00000000000E+00 -0.26494821103E+01  0.26494821103E+01  0.00000000000E+00 0.  1.
         23    2    1    2    0    0  0.00000000000E+00  0.00000000000E+00  0.79214641681E+03  0.79744538103E+03  0.91777938864E+02 0.  0.
          2    1    3    3  502    0 -0.41884777307E+02 -0.15687020932E+02  0.48526859718E+03  0.48732538268E+03  0.00000000000E+00 0. -1.
         -2    1    3    3    0  502  0.41884777307E+02  0.15687020932E+02  0.30687781963E+03  0.31011999835E+03  0.00000000000E+00 0.  1.
<mgrwt>
<rscale>  0 0.91777939E+02</rscale>
<asrwt>0</asrwt>
<pdfrwt beam="1">  1        2 0.12227610E+00 0.91777939E+02</pdfrwt>
<pdfrwt beam="2">  1       -2 0.40761327E-03 0.91777939E+02</pdfrwt>
<totfact> 0.23927593E+05</totfact>
</mgrwt>
</event>
<event>
 5    1  0.3854342E+001  0.9137381E+02  0.7546771E-02  0.1299559E+00
          1   -1    0    0  501    0  0.00000000000E+00  0.00000000000E+00  0.66706763042E+03  0.66706763042E+03  0.00000000000E+00 0. -1.
         -1   -1    0    0    0  501 -0.00000000000E+00 -0.00000000000E+00 -0.31290582047E+01  0.31290582047E+01  0.00000000000E+00 0.  1.
         23    2    1    2    0    0  0.00000000000E+00  0.00000000000E+00  0.66393857221E+03  0.67019668862E+03  0.91373813361E+02 0.  0.
          2    1    3    3  502    0  0.79139616720E+01  0.44950879864E+02  0.34678650164E+03  0.34977720067E+03  0.00000000000E+00 0. -1.
         -2    1    3    3    0  502 -0.79139616720E+01 -0.44950879864E+02  0.31715207057E+03  0.32041948795E+03  0.00000000000E+00 0.  1.
<mgrwt>
<rscale>  0 0.91373813E+02</rscale>
<asrwt>0</asrwt>
<pdfrwt beam="1">  1        1 0.10262568E+00 0.91373813E+02</pdfrwt>
<pdfrwt beam="2">  1       -1 0.48139410E-03 0.91373813E+02</pdfrwt>
<totfact> 0.14134705E+05</totfact>
</mgrwt>
</event>
<event>
 5    1  0.3854342E+001  0.9213741E+02  0.7546771E-02  0.1297757E+00
          1   -1    0    0  501    0  0.00000000000E+00  0.00000000000E+00  0.27054085787E+04  0.27054085787E+04  0.00000000000E+00 0. -1.
         -1   -1    0    0    0  501 -0.00000000000E+00 -0.00000000000E+00 -0.78447509506E+00  0.78447509506E+00  0.00000000000E+00 0.  1.
         23    2    1    2    0    0  0.00000000000E+00  0.00000000000E+00  0.27046241036E+04  0.27061930538E+04  0.92137411554E+02 0.  0.
          2    1    3    3  502    0 -0.35433056148E+02  0.27387679730E+02  0.10349674666E+04  0.10359359263E+04  0.00000000000E+00 0. -1.
         -2    1    3    3    0  502  0.35433056148E+02 -0.27387679730E+02  0.16696566370E+04  0.16702571275E+04  0.00000000000E+00 0.  1.
<mgrwt>
<rscale>  0 0.92137412E+02</rscale>
<asrwt>0</asrwt>
<pdfrwt beam="1">  1        1 0.41620923E+00 0.92137412E+02</pdfrwt>
<pdfrwt beam="2">  1       -1 0.12069064E-03 0.92137412E+02</pdfrwt>
<totfact> 0.41703309E+04</totfact>
</mgrwt>
</event>
<event>
 5    1  0.3854342E+001  0.8153663E+02  0.7546771E-02  0.1324746E+00
          1   -1    0    0  501    0  0.00000000000E+00  0.00000000000E+00  0.32195516436E+03  0.32195516436E+03  0.00000000000E+00 0. -1.
         -1   -1    0    0    0  501 -0.00000000000E+00 -0.00000000000E+00 -0.51623815333E+01  0.51623815333E+01  0.00000000000E+00 0.  1.
         23    2    1    2    0    0  0.00000000000E+00  0.00000000000E+00  0.31679278283E+03  0.32711754589E+03  0.81536627231E+02 0.  0.
          2    1    3    3  502    0 -0.50166545418E+01 -0.39087560302E+02  0.20029178982E+03  0.20413183304E+03  0.00000000000E+00 0. -1.
         -2    1    3    3    0  502  0.50166545418E+01  0.39087560302E+02  0.11650099301E+03  0.12298571285E+03  0.00000000000E+00 0.  1.
<mgrwt>
<rscale>  0 0.81536627E+02</rscale>
<asrwt>0</asrwt>
<pdfrwt beam="1">  1        1 0.49531548E-01 0.81536627E+02</pdfrwt>
<pdfrwt beam="2">  1       -1 0.79421280E-03 0.81536627E+02</pdfrwt>
<totfact> 0.17450524E+05</totfact>
</mgrwt>
</event>
<event>
 5    1  0.3854342E+001  0.7454872E+02  0.7546771E-02  0.1345274E+00
          2   -1    0    0  501    0  0.00000000000E+00  0.00000000000E+00  0.61016618272E+03  0.61016618272E+03  0.00000000000E+00 0. -1.
         -2   -1    0    0    0  501 -0.00000000000E+00 -0.00000000000E+00 -0.22770483864E+01  0.22770483864E+01  0.00000000000E+00 0.  1.
         23    2    1    2    0    0  0.00000000000E+00  0.00000000000E+00  0.60788913433E+03  0.61244323111E+03  0.74548720225E+02 0.  0.
          2    1    3    3  502    0 -0.14954364598E+01 -0.22735377414E+02  0.54629634884E+03  0.54677128168E+03  0.00000000000E+00 0. -1.
         -2    1    3    3    0  502  0.14954364598E+01  0.22735377414E+02  0.61592785498E+02  0.65671949429E+02  0.00000000000E+00 0.  1.
<mgrwt>
<rscale>  0 0.74548720E+02</rscale>
<asrwt>0</asrwt>
<pdfrwt beam="1">  1        2 0.93871590E-01 0.74548720E+02</pdfrwt>
<pdfrwt beam="2">  1       -2 0.35031562E-03 0.74548720E+02</pdfrwt>
<totfact> 0.38745541E+05</totfact>
</mgrwt>
</event>
<event>
 5    1  0.3854342E+001  0.8389494E+02  0.7546771E-02  0.1318348E+00
         -4   -1    0    0    0  501 -0.00000000000E+00  0.00000000000E+00  0.32239789564E+03  0.32239789564E+03  0.00000000000E+00 0.  1.
          4   -1    0    0  501    0  0.00000000000E+00 -0.00000000000E+00 -0.54578211603E+01  0.54578211603E+01  0.00000000000E+00 0. -1.
         23    2    1    2    0    0  0.00000000000E+00  0.00000000000E+00  0.31694007448E+03  0.32785571680E+03  0.83894935649E+02 0.  0.
          2    1    3    3  502    0  0.33687747400E+02 -0.24831239023E+02  0.14732365795E+03  0.15315258714E+03  0.00000000000E+00 0. -1.
         -2    1    3    3    0  502 -0.33687747400E+02  0.24831239023E+02  0.16961641653E+03  0.17470312966E+03  0.00000000000E+00 0.  1.
<mgrwt>
<rscale>  0 0.83894936E+02</rscale>
<asrwt>0</asrwt>
<pdfrwt beam="2">  1        4 0.83966504E-03 0.83894936E+02</pdfrwt>
<pdfrwt beam="1">  1       -4 0.49599661E-01 0.83894936E+02</pdfrwt>
<totfact> 0.21173923E+04</totfact>
</mgrwt>
</event>
<event>
 5    1  0.3854342E+001  0.9834212E+02  0.7546771E-02  0.1283821E+00
         -1   -1    0    0    0  501 -0.00000000000E+00  0.00000000000E+00  0.11556822374E+03  0.11556822374E+03  0.00000000000E+00 0.  1.
          1   -1    0    0  501    0  0.00000000000E+00 -0.00000000000E+00 -0.20920916033E+02  0.20920916033E+02  0.00000000000E+00 0. -1.
         23    2    1    2    0    0  0.00000000000E+00  0.00000000000E+00  0.94647307708E+02  0.13648913977E+03  0.98342119255E+02 0.  0.
          2    1    3    3  502    0  0.47746962532E+02 -0.10005649934E+01  0.31077528799E+02  0.56978823764E+02  0.00000000000E+00 0. -1.
         -2    1    3    3    0  502 -0.47746962532E+02  0.10005649934E+01  0.63569778909E+02  0.79510316009E+02  0.00000000000E+00 0.  1.
<mgrwt>
<rscale>  0 0.98342119E+02</rscale>
<asrwt>0</asrwt>
<pdfrwt beam="2">  1        1 0.32186025E-02 0.98342119E+02</pdfrwt>
<pdfrwt beam="1">  1       -1 0.17779726E-01 0.98342119E+02</pdfrwt>
<totfact> 0.65056733E+04</totfact>
</mgrwt>
</event>
<event>
 5    1  0.3854342E+001  0.8947526E+02  0.7546771E-02  0.1304127E+00
          1   -1    0    0  501    0  0.00000000000E+00  0.00000000000E+00  0.48990227175E+03  0.48990227175E+03  0.00000000000E+00 0. -1.
         -1   -1    0    0    0  501 -0.00000000000E+00 -0.00000000000E+00 -0.40854179749E+01  0.40854179749E+01  0.00000000000E+00 0.  1.
         23    2    1    2    0    0  0.00000000000E+00  0.00000000000E+00  0.48581685377E+03  0.49398768972E+03  0.89475260199E+02 0.  0.
          2    1    3    3  502    0  0.25598411769E+02 -0.36318420273E+02  0.27167524054E+03  0.27528483914E+03  0.00000000000E+00 0.  1.
         -2    1    3    3    0  502 -0.25598411769E+02  0.36318420273E+02  0.21414161323E+03  0.21870285058E+03  0.00000000000E+00 0. -1.
<mgrwt>
<rscale>  0 0.89475260E+02</rscale>
<asrwt>0</asrwt>
<pdfrwt beam="1">  1        1 0.75369534E-01 0.89475260E+02</pdfrwt>
<pdfrwt beam="2">  1       -1 0.62852623E-03 0.89475260E+02</pdfrwt>
<totfact> 0.14602583E+05</totfact>
</mgrwt>
</event>
<event>
 5    1  0.3854342E+001  0.9271460E+02  0.7546771E-02  0.1296408E+00
          1   -1    0    0  501    0  0.00000000000E+00  0.00000000000E+00  0.32990128153E+03  0.32990128153E+03  0.00000000000E+00 0. -1.
         -1   -1    0    0    0  501 -0.00000000000E+00 -0.00000000000E+00 -0.65140670994E+01  0.65140670994E+01  0.00000000000E+00 0.  1.
         23    2    1    2    0    0  0.00000000000E+00  0.00000000000E+00  0.32338721443E+03  0.33641534863E+03  0.92714596134E+02 0.  0.
          2    1    3    3  502    0 -0.18641502867E+02  0.42363267060E+02  0.15219894055E+03  0.15908070131E+03  0.00000000000E+00 0. -1.
         -2    1    3    3    0  502  0.18641502867E+02 -0.42363267060E+02  0.17118827388E+03  0.17733464731E+03  0.00000000000E+00 0.  1.
<mgrwt>
<rscale>  0 0.92714596E+02</rscale>
<asrwt>0</asrwt>
<pdfrwt beam="1">  1        1 0.50754030E-01 0.92714596E+02</pdfrwt>
<pdfrwt beam="2">  1       -1 0.10021644E-02 0.92714596E+02</pdfrwt>
<totfact> 0.12473992E+05</totfact>
</mgrwt>
</event>
<event>
 5    1  0.3854342E+001  0.9157855E+02  0.7546771E-02  0.1299073E+00
          3   -1    0    0  501    0  0.00000000000E+00  0.00000000000E+00  0.37712780103E+01  0.37712780103E+01  0.00000000000E+00 0. -1.
         -3   -1    0    0    0  501 -0.00000000000E+00 -0.00000000000E+00 -0.55595414326E+03  0.55595414326E+03  0.00000000000E+00 0.  1.
         23    2    1    2    0    0  0.00000000000E+00  0.00000000000E+00 -0.55218286525E+03  0.55972542127E+03  0.91578548475E+02 0.  0.
          2    1    3    3  502    0  0.35731351633E+02 -0.24087469319E+02 -0.18146004837E+03  0.18650652756E+03  0.00000000000E+00 0. -1.
         -2    1    3    3    0  502 -0.35731351633E+02  0.24087469319E+02 -0.37072281688E+03  0.37321889371E+03  0.00000000000E+00 0.  1.
<mgrwt>
<rscale>  0 0.91578548E+02</rscale>
<asrwt>0</asrwt>
<pdfrwt beam="1">  1        3 0.58019711E-03 0.91578548E+02</pdfrwt>
<pdfrwt beam="2">  1       -3 0.85531334E-01 0.91578548E+02</pdfrwt>
<totfact> 0.16336856E+04</totfact>
</mgrwt>
</event>
<event>
 5    1  0.3854342E+001  0.9063861E+02  0.7546771E-02  0.1301313E+00
          1   -1    0    0  501    0  0.00000000000E+00  0.00000000000E+00  0.15298154848E+04  0.15298154848E+04  0.00000000000E+00 0. -1.
         -1   -1    0    0    0  501 -0.00000000000E+00 -0.00000000000E+00 -0.13425407077E+01  0.13425407077E+01  0.00000000000E+00 0.  1.
         23    2    1    2    0    0  0.00000000000E+00  0.00000000000E+00  0.15284729441E+04  0.15311580255E+04  0.90638613487E+02 0.  0.
          2    1    3    3  502    0  0.39778267480E+02 -0.66629902706E+01  0.11133676307E+04  0.11140979252E+04  0.00000000000E+00 0. -1.
         -2    1    3    3    0  502 -0.39778267480E+02  0.66629902706E+01  0.41510531346E+03  0.41706010030E+03  0.00000000000E+00 0.  1.
<mgrwt>
<rscale>  0 0.90638613E+02</rscale>
<asrwt>0</asrwt>
<pdfrwt beam="1">  1        1 0.23535483E+00 0.90638613E+02</pdfrwt>
<pdfrwt beam="2">  1       -1 0.20654595E-03 0.90638613E+02</pdfrwt>
<totfact> 0.11042242E+05</totfact>
</mgrwt>
</event>
<event>
 5    1  0.3854342E+001  0.8803673E+02  0.7546771E-02  0.1307677E+00
         -4   -1    0    0    0  501 -0.00000000000E+00  0.00000000000E+00  0.63122234729E+02  0.63122234729E+02  0.00000000000E+00 0.  1.
          4   -1    0    0  501    0  0.00000000000E+00 -0.00000000000E+00 -0.30696260290E+02  0.30696260290E+02  0.00000000000E+00 0. -1.
         23    2    1    2    0    0  0.00000000000E+00  0.00000000000E+00  0.32425974439E+02  0.93818495019E+02  0.88036732046E+02 0.  0.
          2    1    3    3  502    0 -0.40439410041E+02 -0.12143558321E+02  0.29538105980E+01  0.42326550653E+02  0.00000000000E+00 0. -1.
         -2    1    3    3    0  502  0.40439410041E+02  0.12143558321E+02  0.29472163841E+02  0.51491944366E+02  0.00000000000E+00 0.  1.
<mgrwt>
<rscale>  0 0.88036732E+02</rscale>
<asrwt>0</asrwt>
<pdfrwt beam="2">  1        4 0.47225016E-02 0.88036732E+02</pdfrwt>
<pdfrwt beam="1">  1       -4 0.97111130E-02 0.88036732E+02</pdfrwt>
<totfact> 0.29513029E+04</totfact>
</mgrwt>
</event>
<event>
 5    1  0.3854342E+001  0.9182172E+02  0.7546771E-02  0.1298499E+00
         -1   -1    0    0    0  501 -0.00000000000E+00  0.00000000000E+00  0.54655718059E+01  0.54655718059E+01  0.00000000000E+00 0.  1.
          1   -1    0    0  501    0  0.00000000000E+00 -0.00000000000E+00 -0.38565171701E+03  0.38565171701E+03  0.00000000000E+00 0. -1.
         23    2    1    2    0    0  0.00000000000E+00  0.00000000000E+00 -0.38018614521E+03  0.39111728882E+03  0.91821721862E+02 0.  0.
          2    1    3    3  502    0 -0.22634762179E+02 -0.46135851816E+01 -0.35909439010E+03  0.35983662769E+03  0.00000000000E+00 0. -1.
         -2    1    3    3    0  502  0.22634762179E+02  0.46135851816E+01 -0.21091755110E+02  0.31280661130E+02  0.00000000000E+00 0.  1.
<mgrwt>
<rscale>  0 0.91821722E+02</rscale>
<asrwt>0</asrwt>
<pdfrwt beam="2">  1        1 0.59331056E-01 0.91821722E+02</pdfrwt>
<pdfrwt beam="1">  1       -1 0.84085688E-03 0.91821722E+02</pdfrwt>
<totfact> 0.13158520E+05</totfact>
</mgrwt>
</event>
<event>
 5    1  0.3854342E+001  0.8953963E+02  0.7546771E-02  0.1303970E+00
         -1   -1    0    0    0  501 -0.00000000000E+00  0.00000000000E+00  0.28236156828E+01  0.28236156828E+01  0.00000000000E+00 0.  1.
          1   -1    0    0  501    0  0.00000000000E+00 -0.00000000000E+00 -0.70984743262E+03  0.70984743262E+03  0.00000000000E+00 0. -1.
         23    2    1    2    0    0  0.00000000000E+00  0.00000000000E+00 -0.70702381693E+03  0.71267104830E+03  0.89539630178E+02 0.  0.
          2    1    3    3  502    0  0.25201717848E+02  0.21768743520E+02 -0.59167023401E+03  0.59260667444E+03  0.00000000000E+00 0. -1.
         -2    1    3    3    0  502 -0.25201717848E+02 -0.21768743520E+02 -0.11535358292E+03  0.12006437386E+03  0.00000000000E+00 0.  1.
<mgrwt>
<rscale>  0 0.89539630E+02</rscale>
<asrwt>0</asrwt>
<pdfrwt beam="2">  1        1 0.10920732E+00 0.89539630E+02</pdfrwt>
<pdfrwt beam="1">  1       -1 0.43440232E-03 0.89539630E+02</pdfrwt>
<totfact> 0.14912050E+05</totfact>
</mgrwt>
</event>
<event>
 5    1  0.3854342E+001  0.9151217E+02  0.7546771E-02  0.1299231E+00
          2   -1    0    0  501    0  0.00000000000E+00  0.00000000000E+00  0.15020313689E+03  0.15020313689E+03  0.00000000000E+00 0. -1.
         -2   -1    0    0    0  501 -0.00000000000E+00 -0.00000000000E+00 -0.13938585622E+02  0.13938585622E+02  0.00000000000E+00 0.  1.
         23    2    1    2    0    0  0.00000000000E+00  0.00000000000E+00  0.13626455127E+03  0.16414172252E+03  0.91512169339E+02 0.  0.
          2    1    3    3  502    0  0.17452504486E+02  0.39856651905E+02  0.93528669653E+02  0.10315403366E+03  0.00000000000E+00 0. -1.
         -2    1    3    3    0  502 -0.17452504486E+02 -0.39856651905E+02  0.42735881619E+02  0.60987688853E+02  0.00000000000E+00 0.  1.
<mgrwt>
<rscale>  0 0.91512169E+02</rscale>
<asrwt>0</asrwt>
<pdfrwt beam="1">  1        2 0.23108174E-01 0.91512169E+02</pdfrwt>
<pdfrwt beam="2">  1       -2 0.21443979E-02 0.91512169E+02</pdfrwt>
<totfact> 0.13848581E+05</totfact>
</mgrwt>
</event>
<event>
 5    1  0.3854342E+001  0.8962344E+02  0.7546771E-02  0.1303766E+00
         -2   -1    0    0    0  501 -0.00000000000E+00  0.00000000000E+00  0.15370424340E+01  0.15370424340E+01  0.00000000000E+00 0.  1.
          2   -1    0    0  501    0  0.00000000000E+00 -0.00000000000E+00 -0.13064638957E+04  0.13064638957E+04  0.00000000000E+00 0. -1.
         23    2    1    2    0    0  0.00000000000E+00  0.00000000000E+00 -0.13049268533E+04  0.13080009382E+04  0.89623444394E+02 0.  0.
          2    1    3    3  502    0  0.50641688569E+00  0.40279852611E+02 -0.93896297796E+03  0.93982668454E+03  0.00000000000E+00 0. -1.
         -2    1    3    3    0  502 -0.50641688569E+00 -0.40279852611E+02 -0.36596387533E+03  0.36817425362E+03  0.00000000000E+00 0.  1.
<mgrwt>
<rscale>  0 0.89623444E+02</rscale>
<asrwt>0</asrwt>
<pdfrwt beam="2">  1        2 0.20099371E+00 0.89623444E+02</pdfrwt>
<pdfrwt beam="1">  1       -2 0.23646893E-03 0.89623444E+02</pdfrwt>
<totfact> 0.25680899E+05</totfact>
</mgrwt>
</event>
<event>
 5    1  0.3854342E+001  0.9112363E+02  0.7546771E-02  0.1300153E+00
          2   -1    0    0  501    0  0.00000000000E+00  0.00000000000E+00  0.95283041967E+03  0.95283041967E+03  0.00000000000E+00 0. -1.
         -2   -1    0    0    0  501 -0.00000000000E+00 -0.00000000000E+00 -0.21786445807E+01  0.21786445807E+01  0.00000000000E+00 0.  1.
         23    2    1    2    0    0  0.00000000000E+00  0.00000000000E+00  0.95065177508E+03  0.95500906425E+03  0.91123626578E+02 0.  0.
          2    1    3    3  502    0 -0.30620986578E+02 -0.12253663346E+02  0.80476331352E+03  0.80543887904E+03  0.00000000000E+00 0. -1.
         -2    1    3    3    0  502  0.30620986578E+02  0.12253663346E+02  0.14588846157E+03  0.14957018521E+03  0.00000000000E+00 0.  1.
<mgrwt>
<rscale>  0 0.91123627E+02</rscale>
<asrwt>0</asrwt>
<pdfrwt beam="1">  1        2 0.14658896E+00 0.91123627E+02</pdfrwt>
<pdfrwt beam="2">  1       -2 0.33517685E-03 0.91123627E+02</pdfrwt>
<totfact> 0.24966996E+05</totfact>
</mgrwt>
</event>
<event>
 5    1  0.3854342E+001  0.8747340E+02  0.7546771E-02  0.1309088E+00
         -2   -1    0    0    0  501 -0.00000000000E+00  0.00000000000E+00  0.55172247144E+01  0.55172247144E+01  0.00000000000E+00 0.  1.
          2   -1    0    0  501    0  0.00000000000E+00 -0.00000000000E+00 -0.34671401595E+03  0.34671401595E+03  0.00000000000E+00 0. -1.
         23    2    1    2    0    0  0.00000000000E+00  0.00000000000E+00 -0.34119679124E+03  0.35223124067E+03  0.87473404818E+02 0.  0.
          2    1    3    3  502    0 -0.39603168593E+01  0.23722685294E+02 -0.31769507501E+03  0.31860415972E+03  0.00000000000E+00 0. -1.
         -2    1    3    3    0  502  0.39603168593E+01 -0.23722685294E+02 -0.23501716231E+02  0.33627080947E+02  0.00000000000E+00 0.  1.
<mgrwt>
<rscale>  0 0.87473405E+02</rscale>
<asrwt>0</asrwt>
<pdfrwt beam="2">  1        2 0.53340617E-01 0.87473405E+02</pdfrwt>
<pdfrwt beam="1">  1       -2 0.84880382E-03 0.87473405E+02</pdfrwt>
<totfact> 0.21158848E+05</totfact>
</mgrwt>
</event>
<event>
 5    1  0.3854342E+001  0.9855105E+02  0.7546771E-02  0.1283373E+00
          2   -1    0    0  501    0  0.00000000000E+00  0.00000000000E+00  0.13127242061E+04  0.13127242061E+04  0.00000000000E+00 0.  1.
         -2   -1    0    0    0  501 -0.00000000000E+00 -0.00000000000E+00 -0.18496478692E+01  0.18496478692E+01  0.00000000000E+00 0. -1.
         23    2    1    2    0    0  0.00000000000E+00  0.00000000000E+00  0.13108745582E+04  0.13145738540E+04  0.98551053381E+02 0.  0.
          2    1    3    3  502    0 -0.37086931825E+02 -0.28246590897E+02  0.86834696014E+03  0.86959746642E+03  0.00000000000E+00 0. -1.
         -2    1    3    3    0  502  0.37086931825E+02  0.28246590897E+02  0.44252759807E+03  0.44497638754E+03  0.00000000000E+00 0.  1.
<mgrwt>
<rscale>  0 0.98551053E+02</rscale>
<asrwt>0</asrwt>
<pdfrwt beam="1">  1        2 0.20195683E+00 0.98551053E+02</pdfrwt>
<pdfrwt beam="2">  1       -2 0.28456226E-03 0.98551053E+02</pdfrwt>
<totfact> 0.19965314E+05</totfact>
</mgrwt>
</event>
<event>
 5    1  0.3854342E+001  0.9261644E+02  0.7546771E-02  0.1296637E+00
          2   -1    0    0  501    0  0.00000000000E+00  0.00000000000E+00  0.64247907476E+01  0.64247907476E+01  0.00000000000E+00 0. -1.
         -2   -1    0    0    0  501 -0.00000000000E+00 -0.00000000000E+00 -0.33377762075E+03  0.33377762075E+03  0.00000000000E+00 0.  1.
         23    2    1    2    0    0  0.00000000000E+00  0.00000000000E+00 -0.32735283000E+03  0.34020241150E+03  0.92616442807E+02 0.  0.
          2    1    3    3  502    0 -0.24519496447E+02  0.34393013130E+02 -0.23340669085E+03  0.23719774112E+03  0.00000000000E+00 0.  1.
         -2    1    3    3    0  502  0.24519496447E+02 -0.34393013130E+02 -0.93946139149E+02  0.10300467038E+03  0.00000000000E+00 0. -1.
<mgrwt>
<rscale>  0 0.92616443E+02</rscale>
<asrwt>0</asrwt>
<pdfrwt beam="1">  1        2 0.98842912E-03 0.92616443E+02</pdfrwt>
<pdfrwt beam="2">  1       -2 0.51350415E-01 0.92616443E+02</pdfrwt>
<totfact> 0.46028764E+04</totfact>
</mgrwt>
</event>
<event>
 5    1  0.3854342E+001  0.9092522E+02  0.7546771E-02  0.1300626E+00
         -2   -1    0    0    0  501 -0.00000000000E+00  0.00000000000E+00  0.76845783575E+00  0.76845783575E+00  0.00000000000E+00 0.  1.
          2   -1    0    0  501    0  0.00000000000E+00 -0.00000000000E+00 -0.26896062441E+04  0.26896062441E+04  0.00000000000E+00 0. -1.
         23    2    1    2    0    0  0.00000000000E+00  0.00000000000E+00 -0.26888377863E+04  0.26903747020E+04  0.90925221878E+02 0.  0.
          2    1    3    3  502    0  0.61891749389E+01  0.32280370135E+02 -0.41506413520E+03  0.41636350046E+03  0.00000000000E+00 0.  1.
         -2    1    3    3    0  502 -0.61891749389E+01 -0.32280370135E+02 -0.22737736511E+04  0.22740112015E+04  0.00000000000E+00 0. -1.
<mgrwt>
<rscale>  0 0.90925222E+02</rscale>
<asrwt>0</asrwt>
<pdfrwt beam="2">  1        2 0.41378576E+00 0.90925222E+02</pdfrwt>
<pdfrwt beam="1">  1       -2 0.11822423E-03 0.90925222E+02</pdfrwt>
<totfact> 0.13120803E+05</totfact>
</mgrwt>
</event>
<event>
 5    1  0.3854342E+001  0.9548541E+02  0.7546771E-02  0.1290087E+00
         -2   -1    0    0    0  501 -0.00000000000E+00  0.00000000000E+00  0.11453390027E+02  0.11453390027E+02  0.00000000000E+00 0. -1.
          2   -1    0    0  501    0  0.00000000000E+00 -0.00000000000E+00 -0.19901231725E+03  0.19901231725E+03  0.00000000000E+00 0.  1.
         23    2    1    2    0    0  0.00000000000E+00  0.00000000000E+00 -0.18755892722E+03  0.21046570728E+03  0.95485405998E+02 0.  0.
          2    1    3    3  502    0 -0.12877001367E+02  0.16039137644E+02 -0.18874538658E+03  0.18986282431E+03  0.00000000000E+00 0.  1.
         -2    1    3    3    0  502  0.12877001367E+02 -0.16039137644E+02  0.11864593591E+01  0.20602882963E+02  0.00000000000E+00 0. -1.
<mgrwt>
<rscale>  0 0.95485406E+02</rscale>
<asrwt>0</asrwt>
<pdfrwt beam="2">  1        2 0.30617278E-01 0.95485406E+02</pdfrwt>
<pdfrwt beam="1">  1       -2 0.17620601E-02 0.95485406E+02</pdfrwt>
<totfact> 0.13629303E+05</totfact>
</mgrwt>
</event>
<event>
 5    1  0.3854342E+001  0.8985280E+02  0.7546771E-02  0.1303209E+00
          1   -1    0    0  501    0  0.00000000000E+00  0.00000000000E+00  0.27718558696E+03  0.27718558696E+03  0.00000000000E+00 0. -1.
         -1   -1    0    0    0  501 -0.00000000000E+00 -0.00000000000E+00 -0.72816963307E+01  0.72816963307E+01  0.00000000000E+00 0.  1.
         23    2    1    2    0    0  0.00000000000E+00  0.00000000000E+00  0.26990389063E+03  0.28446728329E+03  0.89852796762E+02 0.  0.
          2    1    3    3  502    0  0.40639780556E+01 -0.28890641384E+02  0.24311343425E+03  0.24485776890E+03  0.00000000000E+00 0. -1.
         -2    1    3    3    0  502 -0.40639780556E+01  0.28890641384E+02  0.26790456374E+02  0.39609514387E+02  0.00000000000E+00 0.  1.
<mgrwt>
<rscale>  0 0.89852797E+02</rscale>
<asrwt>0</asrwt>
<pdfrwt beam="1">  1        1 0.42643928E-01 0.89852797E+02</pdfrwt>
<pdfrwt beam="2">  1       -1 0.11202612E-02 0.89852797E+02</pdfrwt>
<totfact> 0.13120004E+05</totfact>
</mgrwt>
</event>
<event>
 5    1  0.3854342E+001  0.8964686E+02  0.7546771E-02  0.1303709E+00
         -2   -1    0    0    0  501 -0.00000000000E+00  0.00000000000E+00  0.17738072883E+02  0.17738072883E+02  0.00000000000E+00 0.  1.
          2   -1    0    0  501    0  0.00000000000E+00 -0.00000000000E+00 -0.11326707809E+03  0.11326707809E+03  0.00000000000E+00 0. -1.
         23    2    1    2    0    0  0.00000000000E+00  0.00000000000E+00 -0.95529005208E+02  0.13100515097E+03  0.89646855749E+02 0.  0.
          2    1    3    3  502    0  0.28738852508E+02  0.26203332497E+02 -0.80330033184E+02  0.89249372596E+02  0.00000000000E+00 0.  1.
         -2    1    3    3    0  502 -0.28738852508E+02 -0.26203332497E+02 -0.15198972024E+02  0.41755778379E+02  0.00000000000E+00 0. -1.
<mgrwt>
<rscale>  0 0.89646856E+02</rscale>
<asrwt>0</asrwt>
<pdfrwt beam="2">  1        2 0.17425705E-01 0.89646856E+02</pdfrwt>
<pdfrwt beam="1">  1       -2 0.27289342E-02 0.89646856E+02</pdfrwt>
<totfact> 0.13354230E+05</totfact>
</mgrwt>
</event>
<event>
 5    1  0.3854342E+001  0.9181126E+02  0.7546771E-02  0.1298524E+00
          2   -1    0    0  501    0  0.00000000000E+00  0.00000000000E+00  0.13541739013E+03  0.13541739013E+03  0.00000000000E+00 0. -1.
         -2   -1    0    0    0  501 -0.00000000000E+00 -0.00000000000E+00 -0.15561716696E+02  0.15561716696E+02  0.00000000000E+00 0.  1.
         23    2    1    2    0    0  0.00000000000E+00  0.00000000000E+00  0.11985567343E+03  0.15097910682E+03  0.91811264253E+02 0.  0.
          2    1    3    3  502    0  0.45545388626E+02  0.42683052998E-01  0.50489374733E+02  0.67996773511E+02  0.00000000000E+00 0.  1.
         -2    1    3    3    0  502 -0.45545388626E+02 -0.42683052998E-01  0.69366298697E+02  0.82982333312E+02  0.00000000000E+00 0. -1.
<mgrwt>
<rscale>  0 0.91811264E+02</rscale>
<asrwt>0</asrwt>
<pdfrwt beam="1">  1        2 0.20833444E-01 0.91811264E+02</pdfrwt>
<pdfrwt beam="2">  1       -2 0.23941104E-02 0.91811264E+02</pdfrwt>
<totfact> 0.13255778E+05</totfact>
</mgrwt>
</event>
<event>
 5    1  0.3854342E+001  0.8972325E+02  0.7546771E-02  0.1303523E+00
          3   -1    0    0  501    0  0.00000000000E+00  0.00000000000E+00  0.31890630864E+03  0.31890630864E+03  0.00000000000E+00 0. -1.
         -3   -1    0    0    0  501 -0.00000000000E+00 -0.00000000000E+00 -0.63108356003E+01  0.63108356003E+01  0.00000000000E+00 0.  1.
         23    2    1    2    0    0  0.00000000000E+00  0.00000000000E+00  0.31259547304E+03  0.32521714424E+03  0.89723247505E+02 0.  0.
          2    1    3    3  502    0 -0.21152292600E+02  0.24461939225E+02  0.26899870140E+03  0.27093561469E+03  0.00000000000E+00 0. -1.
         -2    1    3    3    0  502  0.21152292600E+02 -0.24461939225E+02  0.43596771641E+02  0.54281529551E+02  0.00000000000E+00 0.  1.
<mgrwt>
<rscale>  0 0.89723248E+02</rscale>
<asrwt>0</asrwt>
<pdfrwt beam="1">  1        3 0.49062496E-01 0.89723248E+02</pdfrwt>
<pdfrwt beam="2">  1       -3 0.97089803E-03 0.89723248E+02</pdfrwt>
<totfact> 0.24101816E+04</totfact>
</mgrwt>
</event>
<event>
 5    1  0.3854342E+001  0.9173921E+02  0.7546771E-02  0.1298694E+00
         -2   -1    0    0    0  501 -0.00000000000E+00  0.00000000000E+00  0.12744689329E+02  0.12744689329E+02  0.00000000000E+00 0.  1.
          2   -1    0    0  501    0  0.00000000000E+00 -0.00000000000E+00 -0.16508998971E+03  0.16508998971E+03  0.00000000000E+00 0. -1.
         23    2    1    2    0    0  0.00000000000E+00  0.00000000000E+00 -0.15234530038E+03  0.17783467904E+03  0.91739209288E+02 0.  0.
          2    1    3    3  502    0  0.20651774215E+02 -0.37756850427E+02 -0.10694172368E+03  0.11527622390E+03  0.00000000000E+00 0. -1.
         -2    1    3    3    0  502 -0.20651774215E+02  0.37756850427E+02 -0.45403576700E+02  0.62558455140E+02  0.00000000000E+00 0.  1.
<mgrwt>
<rscale>  0 0.91739209E+02</rscale>
<asrwt>0</asrwt>
<pdfrwt beam="2">  1        2 0.25398458E-01 0.91739209E+02</pdfrwt>
<pdfrwt beam="1">  1       -2 0.19607216E-02 0.91739209E+02</pdfrwt>
<totfact> 0.14210742E+05</totfact>
</mgrwt>
</event>
<event>
 5    1  0.3854342E+001  0.9155277E+02  0.7546771E-02  0.1299134E+00
         -1   -1    0    0    0  501 -0.00000000000E+00  0.00000000000E+00  0.76703100031E+02  0.76703100031E+02  0.00000000000E+00 0.  1.
          1   -1    0    0  501    0  0.00000000000E+00 -0.00000000000E+00 -0.27319330556E+02  0.27319330556E+02  0.00000000000E+00 0. -1.
         23    2    1    2    0    0  0.00000000000E+00  0.00000000000E+00  0.49383769475E+02  0.10402243059E+03  0.91552768268E+02 0.  0.
          2    1    3    3  502    0  0.37020700403E+02  0.43001284052E+01  0.54891224996E+02  0.66348096764E+02  0.00000000000E+00 0. -1.
         -2    1    3    3    0  502 -0.37020700403E+02 -0.43001284052E+01 -0.55074555209E+01  0.37674333822E+02  0.00000000000E+00 0.  1.
<mgrwt>
<rscale>  0 0.91552768E+02</rscale>
<asrwt>0</asrwt>
<pdfrwt beam="2">  1        1 0.42029740E-02 0.91552768E+02</pdfrwt>
<pdfrwt beam="1">  1       -1 0.11800477E-01 0.91552768E+02</pdfrwt>
<totfact> 0.84357551E+04</totfact>
</mgrwt>
</event>
<event>
 5    1  0.3854342E+001  0.9092561E+02  0.7546771E-02  0.1300626E+00
          1   -1    0    0  501    0  0.00000000000E+00  0.00000000000E+00  0.18501447845E+02  0.18501447845E+02  0.00000000000E+00 0. -1.
         -1   -1    0    0    0  501 -0.00000000000E+00 -0.00000000000E+00 -0.11171376809E+03  0.11171376809E+03  0.00000000000E+00 0.  1.
         23    2    1    2    0    0  0.00000000000E+00  0.00000000000E+00 -0.93212320245E+02  0.13021521594E+03  0.90925605941E+02 0.  0.
          2    1    3    3  502    0 -0.29477856451E+02 -0.32308722277E+02 -0.64382118282E+02  0.77832221544E+02  0.00000000000E+00 0.  1.
         -2    1    3    3    0  502  0.29477856451E+02  0.32308722277E+02 -0.28830201964E+02  0.52382994391E+02  0.00000000000E+00 0. -1.
<mgrwt>
<rscale>  0 0.90925606E+02</rscale>
<asrwt>0</asrwt>
<pdfrwt beam="1">  1        1 0.28463765E-02 0.90925606E+02</pdfrwt>
<pdfrwt beam="2">  1       -1 0.17186734E-01 0.90925606E+02</pdfrwt>
<totfact> 0.80235216E+04</totfact>
</mgrwt>
</event>
<event>
 5    1  0.3854342E+001  0.9107703E+02  0.7546771E-02  0.1300264E+00
          2   -1    0    0  501    0  0.00000000000E+00  0.00000000000E+00  0.73790513101E+03  0.73790513101E+03  0.00000000000E+00 0.  1.
         -2   -1    0    0    0  501 -0.00000000000E+00 -0.00000000000E+00 -0.28103289952E+01  0.28103289952E+01  0.00000000000E+00 0. -1.
         23    2    1    2    0    0  0.00000000000E+00  0.00000000000E+00  0.73509480202E+03  0.74071546001E+03  0.91077026421E+02 0.  0.
          2    1    3    3  502    0  0.70158174358E+01 -0.25627305646E+02  0.66766671958E+02  0.71859369419E+02  0.00000000000E+00 0. -1.
         -2    1    3    3    0  502 -0.70158174358E+01  0.25627305646E+02  0.66832813006E+03  0.66885609059E+03  0.00000000000E+00 0.  1.
<mgrwt>
<rscale>  0 0.91077026E+02</rscale>
<asrwt>0</asrwt>
<pdfrwt beam="1">  1        2 0.11352371E+00 0.91077026E+02</pdfrwt>
<pdfrwt beam="2">  1       -2 0.43235890E-03 0.91077026E+02</pdfrwt>
<totfact> 0.24063758E+05</totfact>
</mgrwt>
</event>
<event>
 5    1  0.3854342E+001  0.9086040E+02  0.7546771E-02  0.1300781E+00
         -1   -1    0    0    0  501 -0.00000000000E+00  0.00000000000E+00  0.19309577197E+01  0.19309577197E+01  0.00000000000E+00 0.  1.
          1   -1    0    0  501    0  0.00000000000E+00 -0.00000000000E+00 -0.10688493252E+04  0.10688493252E+04  0.00000000000E+00 0. -1.
         23    2    1    2    0    0  0.00000000000E+00  0.00000000000E+00 -0.10669183675E+04  0.10707802829E+04  0.90860395237E+02 0.  0.
          2    1    3    3  502    0  0.33232573467E+02  0.40563736639E+00 -0.89847421344E+03  0.89908869457E+03  0.00000000000E+00 0. -1.
         -2    1    3    3    0  502 -0.33232573467E+02 -0.40563736639E+00 -0.16844415405E+03  0.17169158836E+03  0.00000000000E+00 0.  1.
<mgrwt>
<rscale>  0 0.90860395E+02</rscale>
<asrwt>0</asrwt>
<pdfrwt beam="2">  1        1 0.16443854E+00 0.90860395E+02</pdfrwt>
<pdfrwt beam="1">  1       -1 0.29707008E-03 0.90860395E+02</pdfrwt>
<totfact> 0.13456313E+05</totfact>
</mgrwt>
</event>
<event>
 5    1  0.3854342E+001  0.9151937E+02  0.7546771E-02  0.1299213E+00
          3   -1    0    0  501    0  0.00000000000E+00  0.00000000000E+00  0.56805443343E+02  0.56805443343E+02  0.00000000000E+00 0. -1.
         -3   -1    0    0    0  501 -0.00000000000E+00 -0.00000000000E+00 -0.36861762655E+02  0.36861762655E+02  0.00000000000E+00 0.  1.
         23    2    1    2    0    0  0.00000000000E+00  0.00000000000E+00  0.19943680688E+02  0.93667205998E+02  0.91519369972E+02 0.  0.
          2    1    3    3  502    0  0.21619308936E+02  0.64067041697E+01  0.50724768301E+02  0.55510742171E+02  0.00000000000E+00 0. -1.
         -2    1    3    3    0  502 -0.21619308936E+02 -0.64067041697E+01 -0.30781087613E+02  0.38156463827E+02  0.00000000000E+00 0.  1.
<mgrwt>
<rscale>  0 0.91519370E+02</rscale>
<asrwt>0</asrwt>
<pdfrwt beam="1">  1        3 0.87392990E-02 0.91519370E+02</pdfrwt>
<pdfrwt beam="2">  1       -3 0.56710404E-02 0.91519370E+02</pdfrwt>
<totfact> 0.34790352E+04</totfact>
</mgrwt>
</event>
<event>
 5    1  0.3854342E+001  0.9247297E+02  0.7546771E-02  0.1296971E+00
          1   -1    0    0  501    0  0.00000000000E+00  0.00000000000E+00  0.16917564111E+04  0.16917564111E+04  0.00000000000E+00 0. -1.
         -1   -1    0    0    0  501 -0.00000000000E+00 -0.00000000000E+00 -0.12636646217E+01  0.12636646217E+01  0.00000000000E+00 0.  1.
         23    2    1    2    0    0  0.00000000000E+00  0.00000000000E+00  0.16904927465E+04  0.16930200757E+04  0.92472973893E+02 0.  0.
          2    1    3    3  502    0 -0.51447136918E+01 -0.23312666727E+02  0.15701854452E+04  0.15703669255E+04  0.00000000000E+00 0. -1.
         -2    1    3    3    0  502  0.51447136918E+01  0.23312666727E+02  0.12030730129E+03  0.12265315019E+03  0.00000000000E+00 0.  1.
<mgrwt>
<rscale>  0 0.92472974E+02</rscale>
<asrwt>0</asrwt>
<pdfrwt beam="1">  1        1 0.26026841E+00 0.92472974E+02</pdfrwt>
<pdfrwt beam="2">  1       -1 0.19441130E-03 0.92472974E+02</pdfrwt>
<totfact> 0.95087103E+04</totfact>
</mgrwt>
</event>
<event>
 5    1  0.3854342E+001  0.8918958E+02  0.7546771E-02  0.1304826E+00
          1   -1    0    0  501    0  0.00000000000E+00  0.00000000000E+00  0.89094923203E+02  0.89094923203E+02  0.00000000000E+00 0. -1.
         -1   -1    0    0    0  501 -0.00000000000E+00 -0.00000000000E+00 -0.22321086114E+02  0.22321086114E+02  0.00000000000E+00 0.  1.
         23    2    1    2    0    0  0.00000000000E+00  0.00000000000E+00  0.66773837089E+02  0.11141600932E+03  0.89189583543E+02 0.  0.
          2    1    3    3  502    0 -0.17202848002E+02 -0.27365942848E+02  0.71765406674E+02  0.78708998230E+02  0.00000000000E+00 0. -1.
         -2    1    3    3    0  502  0.17202848002E+02  0.27365942848E+02 -0.49915695847E+01  0.32707011087E+02  0.00000000000E+00 0.  1.
<mgrwt>
<rscale>  0 0.89189584E+02</rscale>
<asrwt>0</asrwt>
<pdfrwt beam="1">  1        1 0.13706911E-01 0.89189584E+02</pdfrwt>
<pdfrwt beam="2">  1       -1 0.34340133E-02 0.89189584E+02</pdfrwt>
<totfact> 0.10884573E+05</totfact>
</mgrwt>
</event>
<event>
 5    1  0.3854342E+001  0.9122912E+02  0.7546771E-02  0.1299902E+00
          2   -1    0    0  501    0  0.00000000000E+00  0.00000000000E+00  0.29498396551E+03  0.29498396551E+03  0.00000000000E+00 0. -1.
         -2   -1    0    0    0  501 -0.00000000000E+00 -0.00000000000E+00 -0.70535633273E+01  0.70535633273E+01  0.00000000000E+00 0.  1.
         23    2    1    2    0    0  0.00000000000E+00  0.00000000000E+00  0.28793040218E+03  0.30203752884E+03  0.91229119940E+02 0.  0.
          2    1    3    3  502    0 -0.37518539354E+02  0.20236485444E+01  0.58335398209E+02  0.69388432991E+02  0.00000000000E+00 0.  1.
         -2    1    3    3    0  502  0.37518539354E+02 -0.20236485444E+01  0.22959500398E+03  0.23264909585E+03  0.00000000000E+00 0. -1.
<mgrwt>
<rscale>  0 0.91229120E+02</rscale>
<asrwt>0</asrwt>
<pdfrwt beam="1">  1        2 0.45382139E-01 0.91229120E+02</pdfrwt>
<pdfrwt beam="2">  1       -2 0.10851638E-02 0.91229120E+02</pdfrwt>
<totfact> 0.17826201E+05</totfact>
</mgrwt>
</event>
<event>
 5    1  0.3854342E+001  0.9153053E+02  0.7546771E-02  0.1299187E+00
         -2   -1    0    0    0  501 -0.00000000000E+00  0.00000000000E+00  0.24487756658E+02  0.24487756658E+02  0.00000000000E+00 0.  1.
          2   -1    0    0  501    0  0.00000000000E+00 -0.00000000000E+00 -0.85530881909E+02  0.85530881909E+02  0.00000000000E+00 0. -1.
         23    2    1    2    0    0  0.00000000000E+00  0.00000000000E+00 -0.61043125252E+02  0.11001863857E+03  0.91530528741E+02 0.  0.
          2    1    3    3  502    0  0.94260020751E+01 -0.43247285051E+02 -0.44501997919E+02  0.62766272776E+02  0.00000000000E+00 0. -1.
         -2    1    3    3    0  502 -0.94260020751E+01  0.43247285051E+02 -0.16541127333E+02  0.47252365791E+02  0.00000000000E+00 0.  1.
<mgrwt>
<rscale>  0 0.91530529E+02</rscale>
<asrwt>0</asrwt>
<pdfrwt beam="2">  1        2 0.13158597E-01 0.91530529E+02</pdfrwt>
<pdfrwt beam="1">  1       -2 0.37673472E-02 0.91530529E+02</pdfrwt>
<totfact> 0.11584292E+05</totfact>
</mgrwt>
</event>
<event>
 5    1  0.3854342E+001  0.9207791E+02  0.7546771E-02  0.1297896E+00
         -1   -1    0    0    0  501 -0.00000000000E+00  0.00000000000E+00  0.15115110645E+01  0.15115110645E+01  0.00000000000E+00 0.  1.
          1   -1    0    0  501    0  0.00000000000E+00 -0.00000000000E+00 -0.14022956010E+04  0.14022956010E+04  0.00000000000E+00 0. -1.
         23    2    1    2    0    0  0.00000000000E+00  0.00000000000E+00 -0.14007840900E+04  0.14038071121E+04  0.92077908678E+02 0.  0.
          2    1    3    3  502    0  0.41344579941E+02 -0.18877095775E+02 -0.81228699556E+03  0.81355754694E+03  0.00000000000E+00 0. -1.
         -2    1    3    3    0  502 -0.41344579941E+02  0.18877095775E+02 -0.58849709442E+03  0.59024956517E+03  0.00000000000E+00 0.  1.
<mgrwt>
<rscale>  0 0.92077909E+02</rscale>
<asrwt>0</asrwt>
<pdfrwt beam="2">  1        1 0.21573810E+00 0.92077909E+02</pdfrwt>
<pdfrwt beam="1">  1       -1 0.23253983E-03 0.92077909E+02</pdfrwt>
<totfact> 0.11331083E+05</totfact>
</mgrwt>
</event>
<event>
 5    1  0.3854342E+001  0.9212199E+02  0.7546771E-02  0.1297793E+00
          1   -1    0    0  501    0  0.00000000000E+00  0.00000000000E+00  0.45650608148E+03  0.45650608148E+03  0.00000000000E+00 0. -1.
         -1   -1    0    0    0  501 -0.00000000000E+00 -0.00000000000E+00 -0.46475068602E+01  0.46475068602E+01  0.00000000000E+00 0.  1.
         23    2    1    2    0    0  0.00000000000E+00  0.00000000000E+00  0.45185857462E+03  0.46115358834E+03  0.92121987504E+02 0.  0.
          2    1    3    3  502    0  0.27013340924E+02 -0.18667122003E+02  0.64227581745E+02  0.72134348881E+02  0.00000000000E+00 0. -1.
         -2    1    3    3    0  502 -0.27013340924E+02  0.18667122003E+02  0.38763099288E+03  0.38901923946E+03  0.00000000000E+00 0.  1.
<mgrwt>
<rscale>  0 0.92121988E+02</rscale>
<asrwt>0</asrwt>
<pdfrwt beam="1">  1        1 0.70231670E-01 0.92121988E+02</pdfrwt>
<pdfrwt beam="2">  1       -1 0.71500141E-03 0.92121988E+02</pdfrwt>
<totfact> 0.13391950E+05</totfact>
</mgrwt>
</event>
<event>
 5    1  0.3854342E+001  0.9450845E+02  0.7546771E-02  0.1292287E+00
         -1   -1    0    0    0  501 -0.00000000000E+00  0.00000000000E+00  0.37273202602E+01  0.37273202602E+01  0.00000000000E+00 0.  1.
          1   -1    0    0  501    0  0.00000000000E+00 -0.00000000000E+00 -0.59907965867E+03  0.59907965867E+03  0.00000000000E+00 0. -1.
         23    2    1    2    0    0  0.00000000000E+00  0.00000000000E+00 -0.59535233841E+03  0.60280697893E+03  0.94508449342E+02 0.  0.
          2    1    3    3  502    0 -0.96153384443E+00  0.40590295299E+02 -0.45187707926E+03  0.45369746680E+03  0.00000000000E+00 0. -1.
         -2    1    3    3    0  502  0.96153384443E+00 -0.40590295299E+02 -0.14347525915E+03  0.14910951213E+03  0.00000000000E+00 0.  1.
<mgrwt>
<rscale>  0 0.94508449E+02</rscale>
<asrwt>0</asrwt>
<pdfrwt beam="2">  1        1 0.92166030E-01 0.94508449E+02</pdfrwt>
<pdfrwt beam="1">  1       -1 0.57343433E-03 0.94508449E+02</pdfrwt>
<totfact> 0.12872096E+05</totfact>
</mgrwt>
</event>
<event>
 5    1  0.3854342E+001  0.8279529E+02  0.7546771E-02  0.1321301E+00
          1   -1    0    0  501    0  0.00000000000E+00  0.00000000000E+00  0.16819523575E+02  0.16819523575E+02  0.00000000000E+00 0. -1.
         -1   -1    0    0    0  501 -0.00000000000E+00 -0.00000000000E+00 -0.10189140211E+03  0.10189140211E+03  0.00000000000E+00 0.  1.
         23    2    1    2    0    0  0.00000000000E+00  0.00000000000E+00 -0.85071878536E+02  0.11871092569E+03  0.82795285853E+02 0.  0.
          2    1    3    3  502    0  0.91168420539E+01 -0.24105701805E+02  0.39144516412E+01  0.26067692652E+02  0.00000000000E+00 0. -1.
         -2    1    3    3    0  502 -0.91168420539E+01  0.24105701805E+02 -0.88986330177E+02  0.92643233034E+02  0.00000000000E+00 0.  1.
<mgrwt>
<rscale>  0 0.82795286E+02</rscale>
<asrwt>0</asrwt>
<pdfrwt beam="1">  1        1 0.25876190E-02 0.82795286E+02</pdfrwt>
<pdfrwt beam="2">  1       -1 0.15675600E-01 0.82795286E+02</pdfrwt>
<totfact> 0.10388839E+05</totfact>
</mgrwt>
</event>
<event>
 5    1  0.3854342E+001  0.9271193E+02  0.7546771E-02  0.1296414E+00
          3   -1    0    0  501    0  0.00000000000E+00  0.00000000000E+00  0.21449651857E+02  0.21449651857E+02  0.00000000000E+00 0.  1.
         -3   -1    0    0    0  501 -0.00000000000E+00 -0.00000000000E+00 -0.10018229215E+03  0.10018229215E+03  0.00000000000E+00 0. -1.
         23    2    1    2    0    0  0.00000000000E+00  0.00000000000E+00 -0.78732640290E+02  0.12163194400E+03  0.92711925637E+02 0.  0.
          2    1    3    3  502    0 -0.10198049970E+02  0.22477882434E+02  0.12111340163E+02  0.27494362740E+02  0.00000000000E+00 0.  1.
         -2    1    3    3    0  502  0.10198049970E+02 -0.22477882434E+02 -0.90843980453E+02  0.94137581265E+02  0.00000000000E+00 0. -1.
<mgrwt>
<rscale>  0 0.92711926E+02</rscale>
<asrwt>0</asrwt>
<pdfrwt beam="1">  1        3 0.32999464E-02 0.92711926E+02</pdfrwt>
<pdfrwt beam="2">  1       -3 0.15412660E-01 0.92711926E+02</pdfrwt>
<totfact> 0.31664222E+04</totfact>
</mgrwt>
</event>
<event>
 5    1  0.3854342E+001  0.9208123E+02  0.7546771E-02  0.1297889E+00
          1   -1    0    0  501    0  0.00000000000E+00  0.00000000000E+00  0.81937098644E+02  0.81937098644E+02  0.00000000000E+00 0. -1.
         -1   -1    0    0    0  501 -0.00000000000E+00 -0.00000000000E+00 -0.25870310322E+02  0.25870310322E+02  0.00000000000E+00 0.  1.
         23    2    1    2    0    0  0.00000000000E+00  0.00000000000E+00  0.56066788323E+02  0.10780740897E+03  0.92081228679E+02 0.  0.
          2    1    3    3  502    0  0.92569152898E+01  0.21033761433E+02  0.74742157125E+02  0.78195266176E+02  0.00000000000E+00 0. -1.
         -2    1    3    3    0  502 -0.92569152898E+01 -0.21033761433E+02 -0.18675368802E+02  0.29612142790E+02  0.00000000000E+00 0.  1.
<mgrwt>
<rscale>  0 0.92081229E+02</rscale>
<asrwt>0</asrwt>
<pdfrwt beam="1">  1        1 0.12605707E-01 0.92081229E+02</pdfrwt>
<pdfrwt beam="2">  1       -1 0.39800478E-02 0.92081229E+02</pdfrwt>
<totfact> 0.98421100E+04</totfact>
</mgrwt>
</event>
<event>
 5    1  0.3854342E+001  0.9132115E+02  0.7546771E-02  0.1299684E+00
         -4   -1    0    0    0  501 -0.00000000000E+00  0.00000000000E+00  0.71489348222E+02  0.71489348222E+02  0.00000000000E+00 0.  1.
          4   -1    0    0  501    0  0.00000000000E+00 -0.00000000000E+00 -0.29163618316E+02  0.29163618316E+02  0.00000000000E+00 0. -1.
         23    2    1    2    0    0  0.00000000000E+00  0.00000000000E+00  0.42325729905E+02  0.10065296654E+03  0.91321149034E+02 0.  0.
          2    1    3    3  502    0 -0.33316037811E+02 -0.13333554287E+02 -0.99560290316E+01  0.37240630492E+02  0.00000000000E+00 0. -1.
         -2    1    3    3    0  502  0.33316037811E+02  0.13333554287E+02  0.52281758937E+02  0.63412336047E+02  0.00000000000E+00 0.  1.
<mgrwt>
<rscale>  0 0.91321149E+02</rscale>
<asrwt>0</asrwt>
<pdfrwt beam="2">  1        4 0.44867105E-02 0.91321149E+02</pdfrwt>
<pdfrwt beam="1">  1       -4 0.10998361E-01 0.91321149E+02</pdfrwt>
<totfact> 0.26304643E+04</totfact>
</mgrwt>
</event>
<event>
 5    1  0.3854342E+001  0.8915741E+02  0.7546771E-02  0.1304905E+00
         -1   -1    0    0    0  501 -0.00000000000E+00  0.00000000000E+00  0.43204330970E+02  0.43204330970E+02  0.00000000000E+00 0.  1.
          1   -1    0    0  501    0  0.00000000000E+00 -0.00000000000E+00 -0.45996796386E+02  0.45996796386E+02  0.00000000000E+00 0. -1.
         23    2    1    2    0    0  0.00000000000E+00  0.00000000000E+00 -0.27924654165E+01  0.89201127356E+02  0.89157407199E+02 0.  0.
          2    1    3    3  502    0 -0.44143247153E+02  0.61988041207E+01 -0.18540299187E+01  0.44614895144E+02  0.00000000000E+00 0. -1.
         -2    1    3    3    0  502  0.44143247153E+02 -0.61988041207E+01 -0.93843549778E+00  0.44586232213E+02  0.00000000000E+00 0.  1.
<mgrwt>
<rscale>  0 0.89157407E+02</rscale>
<asrwt>0</asrwt>
<pdfrwt beam="2">  1        1 0.70764302E-02 0.89157407E+02</pdfrwt>
<pdfrwt beam="1">  1       -1 0.66468202E-02 0.89157407E+02</pdfrwt>
<totfact> 0.98585484E+04</totfact>
</mgrwt>
</event>
<event>
 5    1  0.3854342E+001  0.9025415E+02  0.7546771E-02  0.1302237E+00
         -1   -1    0    0    0  501 -0.00000000000E+00  0.00000000000E+00  0.21208884677E+03  0.21208884677E+03  0.00000000000E+00 0.  1.
          1   -1    0    0  501    0  0.00000000000E+00 -0.00000000000E+00 -0.96018854841E+01  0.96018854841E+01  0.00000000000E+00 0. -1.
         23    2    1    2    0    0  0.00000000000E+00  0.00000000000E+00  0.20248696128E+03  0.22169073225E+03  0.90254148251E+02 0.  0.
          2    1    3    3  502    0  0.78516579723E+01  0.26700602186E+02  0.13988593567E+02  0.31148859369E+02  0.00000000000E+00 0. -1.
         -2    1    3    3    0  502 -0.78516579723E+01 -0.26700602186E+02  0.18849836772E+03  0.19054187288E+03  0.00000000000E+00 0.  1.
<mgrwt>
<rscale>  0 0.90254148E+02</rscale>
<asrwt>0</asrwt>
<pdfrwt beam="2">  1        1 0.14772133E-02 0.90254148E+02</pdfrwt>
<pdfrwt beam="1">  1       -1 0.32629050E-01 0.90254148E+02</pdfrwt>
<totfact> 0.70076083E+04</totfact>
</mgrwt>
</event>
<event>
 5    1  0.3854342E+001  0.9101260E+02  0.7546771E-02  0.1300418E+00
         -1   -1    0    0    0  501 -0.00000000000E+00  0.00000000000E+00  0.36896934624E+03  0.36896934624E+03  0.00000000000E+00 0.  1.
          1   -1    0    0  501    0  0.00000000000E+00 -0.00000000000E+00 -0.56124530333E+01  0.56124530333E+01  0.00000000000E+00 0. -1.
         23    2    1    2    0    0  0.00000000000E+00  0.00000000000E+00  0.36335689321E+03  0.37458179928E+03  0.91012595316E+02 0.  0.
          2    1    3    3  502    0  0.17068018490E+02  0.13602841333E+02  0.17334710714E+02  0.27871970563E+02  0.00000000000E+00 0. -1.
         -2    1    3    3    0  502 -0.17068018490E+02 -0.13602841333E+02  0.34602218250E+03  0.34670982871E+03  0.00000000000E+00 0.  1.
<mgrwt>
<rscale>  0 0.91012595E+02</rscale>
<asrwt>0</asrwt>
<pdfrwt beam="2">  1        1 0.86345460E-03 0.91012595E+02</pdfrwt>
<pdfrwt beam="1">  1       -1 0.56764496E-01 0.91012595E+02</pdfrwt>
<totfact> 0.55692030E+04</totfact>
</mgrwt>
</event>
<event>
 5    1  0.3854342E+001  0.6677581E+02  0.7546771E-02  0.1371413E+00
          3   -1    0    0  501    0  0.00000000000E+00  0.00000000000E+00  0.12049158080E+02  0.12049158080E+02  0.00000000000E+00 0. -1.
         -3   -1    0    0    0  501 -0.00000000000E+00 -0.00000000000E+00 -0.92517026161E+02  0.92517026161E+02  0.00000000000E+00 0.  1.
         23    2    1    2    0    0  0.00000000000E+00  0.00000000000E+00 -0.80467868081E+02  0.10456618424E+03  0.66775812185E+02 0.  0.
          2    1    3    3  502    0 -0.20898521541E+02 -0.51652470543E+01 -0.26977120362E+00  0.21529067705E+02  0.00000000000E+00 0. -1.
         -2    1    3    3    0  502  0.20898521541E+02  0.51652470543E+01 -0.80198096878E+02  0.83037116535E+02  0.00000000000E+00 0.  1.
<mgrwt>
<rscale>  0 0.66775812E+02</rscale>
<asrwt>0</asrwt>
<pdfrwt beam="1">  1        3 0.18537166E-02 0.66775812E+02</pdfrwt>
<pdfrwt beam="2">  1       -3 0.14233389E-01 0.66775812E+02</pdfrwt>
<totfact> 0.78763639E+04</totfact>
</mgrwt>
</event>
<event>
 5    1  0.3854342E+001  0.9054806E+02  0.7546771E-02  0.1301530E+00
         -2   -1    0    0    0  501 -0.00000000000E+00  0.00000000000E+00  0.34958833656E+01  0.34958833656E+01  0.00000000000E+00 0.  1.
          2   -1    0    0  501    0  0.00000000000E+00 -0.00000000000E+00 -0.58632904085E+03  0.58632904085E+03  0.00000000000E+00 0. -1.
         23    2    1    2    0    0  0.00000000000E+00  0.00000000000E+00 -0.58283315748E+03  0.58982492421E+03  0.90548063274E+02 0.  0.
          2    1    3    3  502    0 -0.22860695837E+02  0.31206309524E+02 -0.13819446351E+03  0.14350663717E+03  0.00000000000E+00 0.  1.
         -2    1    3    3    0  502  0.22860695837E+02 -0.31206309524E+02 -0.44463869397E+03  0.44631828704E+03  0.00000000000E+00 0. -1.
<mgrwt>
<rscale>  0 0.90548063E+02</rscale>
<asrwt>0</asrwt>
<pdfrwt beam="2">  1        2 0.90204443E-01 0.90548063E+02</pdfrwt>
<pdfrwt beam="1">  1       -2 0.53782836E-03 0.90548063E+02</pdfrwt>
<totfact> 0.23052346E+05</totfact>
</mgrwt>
</event>
<event>
 5    1  0.3854342E+001  0.9103815E+02  0.7546771E-02  0.1300357E+00
          2   -1    0    0  501    0  0.00000000000E+00  0.00000000000E+00  0.79992881370E+03  0.79992881370E+03  0.00000000000E+00 0.  1.
         -2   -1    0    0    0  501 -0.00000000000E+00 -0.00000000000E+00 -0.25902134969E+01  0.25902134969E+01  0.00000000000E+00 0. -1.
         23    2    1    2    0    0  0.00000000000E+00  0.00000000000E+00  0.79733860020E+03  0.80251902720E+03  0.91038154854E+02 0.  0.
          2    1    3    3  502    0  0.39420812128E+02 -0.16076801357E+02  0.54067943769E+03  0.54235294626E+03  0.00000000000E+00 0. -1.
         -2    1    3    3    0  502 -0.39420812128E+02  0.16076801357E+02  0.25665916251E+03  0.26016608094E+03  0.00000000000E+00 0.  1.
<mgrwt>
<rscale>  0 0.91038155E+02</rscale>
<asrwt>0</asrwt>
<pdfrwt beam="1">  1        2 0.12306577E+00 0.91038155E+02</pdfrwt>
<pdfrwt beam="2">  1       -2 0.39849502E-03 0.91038155E+02</pdfrwt>
<totfact> 0.24471549E+05</totfact>
</mgrwt>
</event>
<event>
 5    1  0.3854342E+001  0.9429270E+02  0.7546771E-02  0.1292777E+00
          2   -1    0    0  501    0  0.00000000000E+00  0.00000000000E+00  0.23349332560E+03  0.23349332560E+03  0.00000000000E+00 0. -1.
         -2   -1    0    0    0  501 -0.00000000000E+00 -0.00000000000E+00 -0.95196661598E+01  0.95196661598E+01  0.00000000000E+00 0.  1.
         23    2    1    2    0    0  0.00000000000E+00  0.00000000000E+00  0.22397365944E+03  0.24301299176E+03  0.94292704071E+02 0.  0.
          2    1    3    3  502    0 -0.25365716671E+02  0.28156299958E+02  0.18426769136E+03  0.18812437080E+03  0.00000000000E+00 0. -1.
         -2    1    3    3    0  502  0.25365716671E+02 -0.28156299958E+02  0.39705968074E+02  0.54888620954E+02  0.00000000000E+00 0.  1.
<mgrwt>
<rscale>  0 0.94292704E+02</rscale>
<asrwt>0</asrwt>
<pdfrwt beam="1">  1        2 0.35922046E-01 0.94292704E+02</pdfrwt>
<pdfrwt beam="2">  1       -2 0.14645642E-02 0.94292704E+02</pdfrwt>
<totfact> 0.14953667E+05</totfact>
</mgrwt>
</event>
<event>
 5    1  0.3854342E+001  0.9216933E+02  0.7546771E-02  0.1297682E+00
         -2   -1    0    0    0  501 -0.00000000000E+00  0.00000000000E+00  0.10828778022E+04  0.10828778022E+04  0.00000000000E+00 0.  1.
          2   -1    0    0  501    0  0.00000000000E+00 -0.00000000000E+00 -0.19612521652E+01  0.19612521652E+01  0.00000000000E+00 0. -1.
         23    2    1    2    0    0  0.00000000000E+00  0.00000000000E+00  0.10809165500E+04  0.10848390543E+04  0.92169331865E+02 0.  0.
          2    1    3    3  502    0 -0.45295521238E+02  0.84117967117E+01  0.52676312760E+03  0.52877389796E+03  0.00000000000E+00 0. -1.
         -2    1    3    3    0  502  0.45295521238E+02 -0.84117967117E+01  0.55415342240E+03  0.55606515637E+03  0.00000000000E+00 0.  1.
<mgrwt>
<rscale>  0 0.92169332E+02</rscale>
<asrwt>0</asrwt>
<pdfrwt beam="2">  1        2 0.30173197E-03 0.92169332E+02</pdfrwt>
<pdfrwt beam="1">  1       -2 0.16659611E+00 0.92169332E+02</pdfrwt>
<totfact> 0.16499289E+04</totfact>
</mgrwt>
</event>
<event>
 5    1  0.3854342E+001  0.9102227E+02  0.7546771E-02  0.1300395E+00
          1   -1    0    0  501    0  0.00000000000E+00  0.00000000000E+00  0.69538596424E+03  0.69538596424E+03  0.00000000000E+00 0. -1.
         -1   -1    0    0    0  501 -0.00000000000E+00 -0.00000000000E+00 -0.29785809230E+01  0.29785809230E+01  0.00000000000E+00 0.  1.
         23    2    1    2    0    0  0.00000000000E+00  0.00000000000E+00  0.69240738332E+03  0.69836454517E+03  0.91022269082E+02 0.  0.
          2    1    3    3  502    0  0.10408009448E+02  0.18416924164E+02  0.65537172972E+03  0.65571305757E+03  0.00000000000E+00 0. -1.
         -2    1    3    3    0  502 -0.10408009448E+02 -0.18416924164E+02  0.37035653606E+02  0.42651487598E+02  0.00000000000E+00 0.  1.
<mgrwt>
<rscale>  0 0.91022269E+02</rscale>
<asrwt>0</asrwt>
<pdfrwt beam="1">  1        1 0.10698233E+00 0.91022269E+02</pdfrwt>
<pdfrwt beam="2">  1       -1 0.45824377E-03 0.91022269E+02</pdfrwt>
<totfact> 0.14282177E+05</totfact>
</mgrwt>
</event>
<event>
 5    1  0.3854342E+001  0.9099619E+02  0.7546771E-02  0.1300457E+00
          3   -1    0    0  501    0  0.00000000000E+00  0.00000000000E+00  0.69787722770E+01  0.69787722770E+01  0.00000000000E+00 0. -1.
         -3   -1    0    0    0  501 -0.00000000000E+00 -0.00000000000E+00 -0.29662475754E+03  0.29662475754E+03  0.00000000000E+00 0.  1.
         23    2    1    2    0    0  0.00000000000E+00  0.00000000000E+00 -0.28964598527E+03  0.30360352982E+03  0.90996189692E+02 0.  0.
          2    1    3    3  502    0  0.22793776673E+02  0.35348095152E+02 -0.86934753798E+02  0.96574818166E+02  0.00000000000E+00 0. -1.
         -2    1    3    3    0  502 -0.22793776673E+02 -0.35348095152E+02 -0.20271123147E+03  0.20702871165E+03  0.00000000000E+00 0.  1.
<mgrwt>
<rscale>  0 0.90996190E+02</rscale>
<asrwt>0</asrwt>
<pdfrwt beam="1">  1        3 0.10736574E-02 0.90996190E+02</pdfrwt>
<pdfrwt beam="2">  1       -3 0.45634572E-01 0.90996190E+02</pdfrwt>
<totfact> 0.24012067E+04</totfact>
</mgrwt>
</event>
<event>
 5    1  0.3854342E+001  0.9087052E+02  0.7546771E-02  0.1300757E+00
         -1   -1    0    0    0  501 -0.00000000000E+00  0.00000000000E+00  0.24783656053E+02  0.24783656053E+02  0.00000000000E+00 0.  1.
          1   -1    0    0  501    0  0.00000000000E+00 -0.00000000000E+00 -0.83295336864E+02  0.83295336864E+02  0.00000000000E+00 0. -1.
         23    2    1    2    0    0  0.00000000000E+00  0.00000000000E+00 -0.58511680811E+02  0.10807899292E+03  0.90870522826E+02 0.  0.
          2    1    3    3  502    0 -0.25848572192E+02  0.55533057869E+01 -0.73204359970E+02  0.77832295406E+02  0.00000000000E+00 0. -1.
         -2    1    3    3    0  502  0.25848572192E+02 -0.55533057869E+01  0.14692679158E+02  0.30246697512E+02  0.00000000000E+00 0.  1.
<mgrwt>
<rscale>  0 0.90870523E+02</rscale>
<asrwt>0</asrwt>
<pdfrwt beam="2">  1        1 0.12814667E-01 0.90870523E+02</pdfrwt>
<pdfrwt beam="1">  1       -1 0.38128702E-02 0.90870523E+02</pdfrwt>
<totfact> 0.10233015E+05</totfact>
</mgrwt>
</event>
<event>
 5    1  0.3854342E+001  0.9220077E+02  0.7546771E-02  0.1297608E+00
         -1   -1    0    0    0  501 -0.00000000000E+00  0.00000000000E+00  0.32070755703E+03  0.32070755703E+03  0.00000000000E+00 0.  1.
          1   -1    0    0  501    0  0.00000000000E+00 -0.00000000000E+00 -0.66267398924E+01  0.66267398924E+01  0.00000000000E+00 0. -1.
         23    2    1    2    0    0  0.00000000000E+00  0.00000000000E+00  0.31408081714E+03  0.32733429692E+03  0.92200771406E+02 0.  0.
          2    1    3    3  502    0 -0.32648158052E+02  0.29826073263E+02  0.11078524996E+03  0.11928482082E+03  0.00000000000E+00 0. -1.
         -2    1    3    3    0  502  0.32648158052E+02 -0.29826073263E+02  0.20329556718E+03  0.20804947610E+03  0.00000000000E+00 0.  1.
<mgrwt>
<rscale>  0 0.92200771E+02</rscale>
<asrwt>0</asrwt>
<pdfrwt beam="2">  1        1 0.10194987E-02 0.92200771E+02</pdfrwt>
<pdfrwt beam="1">  1       -1 0.49339612E-01 0.92200771E+02</pdfrwt>
<totfact> 0.57271471E+04</totfact>
</mgrwt>
</event>
<event>
 5    1  0.3854342E+001  0.9013815E+02  0.7546771E-02  0.1302517E+00
         -2   -1    0    0    0  501 -0.00000000000E+00  0.00000000000E+00  0.52350162419E+01  0.52350162419E+01  0.00000000000E+00 0.  1.
          2   -1    0    0  501    0  0.00000000000E+00 -0.00000000000E+00 -0.38800676684E+03  0.38800676684E+03  0.00000000000E+00 0. -1.
         23    2    1    2    0    0  0.00000000000E+00  0.00000000000E+00 -0.38277175060E+03  0.39324178308E+03  0.90138154549E+02 0.  0.
          2    1    3    3  502    0  0.18934299922E+02 -0.32509090854E+02 -0.29965299561E+03  0.30200540803E+03  0.00000000000E+00 0. -1.
         -2    1    3    3    0  502 -0.18934299922E+02  0.32509090854E+02 -0.83118754986E+02  0.91236375049E+02  0.00000000000E+00 0.  1.
<mgrwt>
<rscale>  0 0.90138155E+02</rscale>
<asrwt>0</asrwt>
<pdfrwt beam="2">  1        2 0.59693336E-01 0.90138155E+02</pdfrwt>
<pdfrwt beam="1">  1       -2 0.80538729E-03 0.90138155E+02</pdfrwt>
<totfact> 0.20355009E+05</totfact>
</mgrwt>
</event>
<event>
 5    1  0.3854342E+001  0.9464417E+02  0.7546771E-02  0.1291980E+00
         -1   -1    0    0    0  501 -0.00000000000E+00  0.00000000000E+00  0.26686077145E+02  0.26686077145E+02  0.00000000000E+00 0.  1.
          1   -1    0    0  501    0  0.00000000000E+00 -0.00000000000E+00 -0.83915655724E+02  0.83915655724E+02  0.00000000000E+00 0. -1.
         23    2    1    2    0    0  0.00000000000E+00  0.00000000000E+00 -0.57229578579E+02  0.11060173287E+03  0.94644168597E+02 0.  0.
          2    1    3    3  502    0 -0.40462864608E+02 -0.18086240537E+02 -0.92348019487E+01  0.45272917689E+02  0.00000000000E+00 0.  1.
         -2    1    3    3    0  502  0.40462864608E+02  0.18086240537E+02 -0.47994776630E+02  0.65328815180E+02  0.00000000000E+00 0. -1.
<mgrwt>
<rscale>  0 0.94644169E+02</rscale>
<asrwt>0</asrwt>
<pdfrwt beam="2">  1        1 0.12910101E-01 0.94644169E+02</pdfrwt>
<pdfrwt beam="1">  1       -1 0.41055503E-02 0.94644169E+02</pdfrwt>
<totfact> 0.91608941E+04</totfact>
</mgrwt>
</event>
<event>
 5    1  0.3854342E+001  0.9250811E+02  0.7546771E-02  0.1296889E+00
         -1   -1    0    0    0  501 -0.00000000000E+00  0.00000000000E+00  0.17266000691E+01  0.17266000691E+01  0.00000000000E+00 0.  1.
          1   -1    0    0  501    0  0.00000000000E+00 -0.00000000000E+00 -0.12391042314E+04  0.12391042314E+04  0.00000000000E+00 0. -1.
         23    2    1    2    0    0  0.00000000000E+00  0.00000000000E+00 -0.12373776313E+04  0.12408308314E+04  0.92508106703E+02 0.  0.
          2    1    3    3  502    0  0.20697173129E+02  0.40779564993E+02 -0.52567077378E+03  0.52765624066E+03  0.00000000000E+00 0. -1.
         -2    1    3    3    0  502 -0.20697173129E+02 -0.40779564993E+02 -0.71170685751E+03  0.71317459077E+03  0.00000000000E+00 0.  1.
<mgrwt>
<rscale>  0 0.92508107E+02</rscale>
<asrwt>0</asrwt>
<pdfrwt beam="2">  1        1 0.19063135E+00 0.92508107E+02</pdfrwt>
<pdfrwt beam="1">  1       -1 0.26563088E-03 0.92508107E+02</pdfrwt>
<totfact> 0.12059576E+05</totfact>
</mgrwt>
</event>
<event>
 5    1  0.3854342E+001  0.9142391E+02  0.7546771E-02  0.1299440E+00
          2   -1    0    0  501    0  0.00000000000E+00  0.00000000000E+00  0.28897849909E+03  0.28897849909E+03  0.00000000000E+00 0. -1.
         -2   -1    0    0    0  501 -0.00000000000E+00 -0.00000000000E+00 -0.72309291066E+01  0.72309291066E+01  0.00000000000E+00 0.  1.
         23    2    1    2    0    0  0.00000000000E+00  0.00000000000E+00  0.28174756999E+03  0.29620942820E+03  0.91423914602E+02 0.  0.
          2    1    3    3  502    0 -0.34490826528E+02 -0.27536151356E+01  0.23766029671E+03  0.24016580969E+03  0.00000000000E+00 0. -1.
         -2    1    3    3    0  502  0.34490826528E+02  0.27536151356E+01  0.44087273278E+02  0.56043618513E+02  0.00000000000E+00 0.  1.
<mgrwt>
<rscale>  0 0.91423915E+02</rscale>
<asrwt>0</asrwt>
<pdfrwt beam="1">  1        2 0.44458222E-01 0.91423915E+02</pdfrwt>
<pdfrwt beam="2">  1       -2 0.11124509E-02 0.91423915E+02</pdfrwt>
<totfact> 0.17589459E+05</totfact>
</mgrwt>
</event>
<event>
 5    1  0.3854342E+001  0.9038951E+02  0.7546771E-02  0.1301911E+00
          1   -1    0    0  501    0  0.00000000000E+00  0.00000000000E+00  0.74165006545E+01  0.74165006545E+01  0.00000000000E+00 0. -1.
         -1   -1    0    0    0  501 -0.00000000000E+00 -0.00000000000E+00 -0.27540829215E+03  0.27540829215E+03  0.00000000000E+00 0.  1.
         23    2    1    2    0    0  0.00000000000E+00  0.00000000000E+00 -0.26799179149E+03  0.28282479280E+03  0.90389507775E+02 0.  0.
          2    1    3    3  502    0  0.66324716121E+00 -0.20998313708E+02 -0.87908590353E+01  0.22773850750E+02  0.00000000000E+00 0. -1.
         -2    1    3    3    0  502 -0.66324716121E+00  0.20998313708E+02 -0.25920093246E+03  0.26005094205E+03  0.00000000000E+00 0.  1.
<mgrwt>
<rscale>  0 0.90389508E+02</rscale>
<asrwt>0</asrwt>
<pdfrwt beam="1">  1        1 0.11410003E-02 0.90389508E+02</pdfrwt>
<pdfrwt beam="2">  1       -1 0.42370501E-01 0.90389508E+02</pdfrwt>
<totfact> 0.64022913E+04</totfact>
</mgrwt>
</event>
<event>
 5    1  0.3854342E+001  0.9005062E+02  0.7546771E-02  0.1302729E+00
          1   -1    0    0  501    0  0.00000000000E+00  0.00000000000E+00  0.20590380719E+03  0.20590380719E+03  0.00000000000E+00 0. -1.
         -1   -1    0    0    0  501 -0.00000000000E+00 -0.00000000000E+00 -0.98457561770E+01  0.98457561770E+01  0.00000000000E+00 0.  1.
         23    2    1    2    0    0  0.00000000000E+00  0.00000000000E+00  0.19605805101E+03  0.21574956337E+03  0.90050623130E+02 0.  0.
          2    1    3    3  502    0  0.23215363540E+02 -0.27862612722E+02  0.16195882152E+03  0.16596969049E+03  0.00000000000E+00 0. -1.
         -2    1    3    3    0  502 -0.23215363540E+02  0.27862612722E+02  0.34099229492E+02  0.49779872879E+02  0.00000000000E+00 0.  1.
<mgrwt>
<rscale>  0 0.90050623E+02</rscale>
<asrwt>0</asrwt>
<pdfrwt beam="1">  1        1 0.31677506E-01 0.90050623E+02</pdfrwt>
<pdfrwt beam="2">  1       -1 0.15147319E-02 0.90050623E+02</pdfrwt>
<totfact> 0.12310557E+05</totfact>
</mgrwt>
</event>
<event>
 5    1  0.3854342E+001  0.9215674E+02  0.7546771E-02  0.1297711E+00
         -2   -1    0    0    0  501 -0.00000000000E+00  0.00000000000E+00  0.14953211604E+03  0.14953211604E+03  0.00000000000E+00 0.  1.
          2   -1    0    0  501    0  0.00000000000E+00 -0.00000000000E+00 -0.14199063706E+02  0.14199063706E+02  0.00000000000E+00 0. -1.
         23    2    1    2    0    0  0.00000000000E+00  0.00000000000E+00  0.13533305233E+03  0.16373117975E+03  0.92156736959E+02 0.  0.
          2    1    3    3  502    0 -0.14567240768E+02 -0.28897372275E+02  0.12594404266E+03  0.13003524333E+03  0.00000000000E+00 0.  1.
         -2    1    3    3    0  502  0.14567240768E+02  0.28897372275E+02  0.93890096774E+01  0.33695936413E+02  0.00000000000E+00 0. -1.
<mgrwt>
<rscale>  0 0.92156737E+02</rscale>
<asrwt>0</asrwt>
<pdfrwt beam="2">  1        2 0.21844715E-02 0.92156737E+02</pdfrwt>
<pdfrwt beam="1">  1       -2 0.23004940E-01 0.92156737E+02</pdfrwt>
<totfact> 0.68067038E+04</totfact>
</mgrwt>
</event>
<event>
 5    1  0.3854342E+001  0.9003733E+02  0.7546771E-02  0.1302761E+00
          1   -1    0    0  501    0  0.00000000000E+00  0.00000000000E+00  0.13811982923E+01  0.13811982923E+01  0.00000000000E+00 0. -1.
         -1   -1    0    0    0  501 -0.00000000000E+00 -0.00000000000E+00 -0.14673347883E+04  0.14673347883E+04  0.00000000000E+00 0.  1.
         23    2    1    2    0    0  0.00000000000E+00  0.00000000000E+00 -0.14659535900E+04  0.14687159866E+04  0.90037332343E+02 0.  0.
          2    1    3    3  502    0  0.29858681614E+02 -0.33655928829E+02 -0.70761187228E+03  0.70904077754E+03  0.00000000000E+00 0. -1.
         -2    1    3    3    0  502 -0.29858681614E+02  0.33655928829E+02 -0.75834171769E+03  0.75967520903E+03  0.00000000000E+00 0.  1.
<mgrwt>
<rscale>  0 0.90037332E+02</rscale>
<asrwt>0</asrwt>
<pdfrwt beam="1">  1        1 0.21249303E-03 0.90037332E+02</pdfrwt>
<pdfrwt beam="2">  1       -1 0.22574277E+00 0.90037332E+02</pdfrwt>
<totfact> 0.14869312E+04</totfact>
</mgrwt>
</event>
<event>
 5    1  0.3854342E+001  0.9662145E+02  0.7546771E-02  0.1287565E+00
         -2   -1    0    0    0  501 -0.00000000000E+00  0.00000000000E+00  0.11374637792E+01  0.11374637792E+01  0.00000000000E+00 0.  1.
          2   -1    0    0  501    0  0.00000000000E+00 -0.00000000000E+00 -0.20518686295E+04  0.20518686295E+04  0.00000000000E+00 0. -1.
         23    2    1    2    0    0  0.00000000000E+00  0.00000000000E+00 -0.20507311657E+04  0.20530060932E+04  0.96621451979E+02 0.  0.
          2    1    3    3  502    0  0.29860634131E+02 -0.25446886507E+02 -0.16243631325E+04  0.16248368496E+04  0.00000000000E+00 0. -1.
         -2    1    3    3    0  502 -0.29860634131E+02  0.25446886507E+02 -0.42636803319E+03  0.42816924367E+03  0.00000000000E+00 0.  1.
<mgrwt>
<rscale>  0 0.96621452E+02</rscale>
<asrwt>0</asrwt>
<pdfrwt beam="2">  1        2 0.31566861E+00 0.96621452E+02</pdfrwt>
<pdfrwt beam="1">  1       -2 0.17499636E-03 0.96621452E+02</pdfrwt>
<totfact> 0.16464600E+05</totfact>
</mgrwt>
</event>
<event>
 5    1  0.3854342E+001  0.8955562E+02  0.7546771E-02  0.1303931E+00
          2   -1    0    0  501    0  0.00000000000E+00  0.00000000000E+00  0.15239930903E+04  0.15239930903E+04  0.00000000000E+00 0. -1.
         -2   -1    0    0    0  501 -0.00000000000E+00 -0.00000000000E+00 -0.13156571616E+01  0.13156571616E+01  0.00000000000E+00 0.  1.
         23    2    1    2    0    0  0.00000000000E+00  0.00000000000E+00  0.15226774332E+04  0.15253087475E+04  0.89555623465E+02 0.  0.
          2    1    3    3  502    0 -0.57367883413E+01 -0.29761533006E+02  0.13227205387E+04  0.13230677545E+04  0.00000000000E+00 0. -1.
         -2    1    3    3    0  502  0.57367883413E+01  0.29761533006E+02  0.19995689449E+03  0.20224099298E+03  0.00000000000E+00 0.  1.
<mgrwt>
<rscale>  0 0.89555623E+02</rscale>
<asrwt>0</asrwt>
<pdfrwt beam="1">  1        2 0.23445906E+00 0.89555623E+02</pdfrwt>
<pdfrwt beam="2">  1       -2 0.20241001E-03 0.89555623E+02</pdfrwt>
<totfact> 0.24585667E+05</totfact>
</mgrwt>
</event>
<event>
 5    1  0.3854342E+001  0.9382627E+02  0.7546771E-02  0.1293842E+00
          2   -1    0    0  501    0  0.00000000000E+00  0.00000000000E+00  0.13637826143E+03  0.13637826143E+03  0.00000000000E+00 0. -1.
         -2   -1    0    0    0  501 -0.00000000000E+00 -0.00000000000E+00 -0.16137777738E+02  0.16137777738E+02  0.00000000000E+00 0.  1.
         23    2    1    2    0    0  0.00000000000E+00  0.00000000000E+00  0.12024048369E+03  0.15251603916E+03  0.93826266498E+02 0.  0.
          2    1    3    3  502    0  0.39641076238E+01  0.45497019177E+02  0.77563254059E+02  0.90009728827E+02  0.00000000000E+00 0.  1.
         -2    1    3    3    0  502 -0.39641076238E+01 -0.45497019177E+02  0.42677229629E+02  0.62506310338E+02  0.00000000000E+00 0. -1.
<mgrwt>
<rscale>  0 0.93826266E+02</rscale>
<asrwt>0</asrwt>
<pdfrwt beam="1">  1        2 0.20981270E-01 0.93826266E+02</pdfrwt>
<pdfrwt beam="2">  1       -2 0.24827351E-02 0.93826266E+02</pdfrwt>
<totfact> 0.12522135E+05</totfact>
</mgrwt>
</event>
<event>
 5    1  0.3854342E+001  0.8588373E+02  0.7546771E-02  0.1313138E+00
          2   -1    0    0  501    0  0.00000000000E+00  0.00000000000E+00  0.14430773895E+04  0.14430773895E+04  0.00000000000E+00 0. -1.
         -2   -1    0    0    0  501 -0.00000000000E+00 -0.00000000000E+00 -0.12778274536E+01  0.12778274536E+01  0.00000000000E+00 0.  1.
         23    2    1    2    0    0  0.00000000000E+00  0.00000000000E+00  0.14417995621E+04  0.14443552170E+04  0.85883733174E+02 0.  0.
          2    1    3    3  502    0  0.30135246602E+02  0.28161340672E+02  0.92187474929E+03  0.92279696985E+03  0.00000000000E+00 0.  1.
         -2    1    3    3    0  502 -0.30135246602E+02 -0.28161340672E+02  0.51992481278E+03  0.52155824712E+03  0.00000000000E+00 0. -1.
<mgrwt>
<rscale>  0 0.85883733E+02</rscale>
<asrwt>0</asrwt>
<pdfrwt beam="1">  1        2 0.22201060E+00 0.85883733E+02</pdfrwt>
<pdfrwt beam="2">  1       -2 0.19658999E-03 0.85883733E+02</pdfrwt>
<totfact> 0.27988662E+05</totfact>
</mgrwt>
</event>
<event>
 5    1  0.3854342E+001  0.9041242E+02  0.7546771E-02  0.1301856E+00
          1   -1    0    0  501    0  0.00000000000E+00  0.00000000000E+00  0.23685054872E+03  0.23685054872E+03  0.00000000000E+00 0. -1.
         -1   -1    0    0    0  501 -0.00000000000E+00 -0.00000000000E+00 -0.86282318854E+01  0.86282318854E+01  0.00000000000E+00 0.  1.
         23    2    1    2    0    0  0.00000000000E+00  0.00000000000E+00  0.22822231683E+03  0.24547878060E+03  0.90412420751E+02 0.  0.
          2    1    3    3  502    0 -0.97589077857E+01  0.21415095166E+02  0.21890695192E+03  0.22016833601E+03  0.00000000000E+00 0. -1.
         -2    1    3    3    0  502  0.97589077857E+01 -0.21415095166E+02  0.93153649138E+01  0.25310444595E+02  0.00000000000E+00 0.  1.
<mgrwt>
<rscale>  0 0.90412421E+02</rscale>
<asrwt>0</asrwt>
<pdfrwt beam="1">  1        1 0.36438541E-01 0.90412421E+02</pdfrwt>
<pdfrwt beam="2">  1       -1 0.13274205E-02 0.90412421E+02</pdfrwt>
<totfact> 0.12515748E+05</totfact>
</mgrwt>
</event>
<event>
 5    1  0.3854342E+001  0.9105353E+02  0.7546771E-02  0.1300320E+00
         -3   -1    0    0    0  501 -0.00000000000E+00  0.00000000000E+00  0.29003746333E+02  0.29003746333E+02  0.00000000000E+00 0.  1.
          3   -1    0    0  501    0  0.00000000000E+00 -0.00000000000E+00 -0.71462713332E+02  0.71462713332E+02  0.00000000000E+00 0. -1.
         23    2    1    2    0    0  0.00000000000E+00  0.00000000000E+00 -0.42458967000E+02  0.10046645967E+03  0.91053531721E+02 0.  0.
          2    1    3    3  502    0 -0.36973376599E+02 -0.26394404354E+02 -0.24538008134E+02  0.51631472975E+02  0.00000000000E+00 0. -1.
         -2    1    3    3    0  502  0.36973376599E+02  0.26394404354E+02 -0.17920958866E+02  0.48834986690E+02  0.00000000000E+00 0.  1.
<mgrwt>
<rscale>  0 0.91053532E+02</rscale>
<asrwt>0</asrwt>
<pdfrwt beam="2">  1        3 0.10994264E-01 0.91053532E+02</pdfrwt>
<pdfrwt beam="1">  1       -3 0.44621148E-02 0.91053532E+02</pdfrwt>
<totfact> 0.34764521E+04</totfact>
</mgrwt>
</event>
<event>
 5    1  0.3854342E+001  0.8924590E+02  0.7546771E-02  0.1304688E+00
          2   -1    0    0  501    0  0.00000000000E+00  0.00000000000E+00  0.54878692337E+02  0.54878692337E+02  0.00000000000E+00 0. -1.
         -2   -1    0    0    0  501 -0.00000000000E+00 -0.00000000000E+00 -0.36283803116E+02  0.36283803116E+02  0.00000000000E+00 0.  1.
         23    2    1    2    0    0  0.00000000000E+00  0.00000000000E+00  0.18594889221E+02  0.91162495454E+02  0.89245900031E+02 0.  0.
          2    1    3    3  502    0 -0.43954434867E+02 -0.37932188379E+01  0.16136511791E+02  0.46976247896E+02  0.00000000000E+00 0. -1.
         -2    1    3    3    0  502  0.43954434867E+02  0.37932188379E+01  0.24583774302E+01  0.44186247558E+02  0.00000000000E+00 0.  1.
<mgrwt>
<rscale>  0 0.89245900E+02</rscale>
<asrwt>0</asrwt>
<pdfrwt beam="1">  1        2 0.84428758E-02 0.89245900E+02</pdfrwt>
<pdfrwt beam="2">  1       -2 0.55821235E-02 0.89245900E+02</pdfrwt>
<totfact> 0.11004231E+05</totfact>
</mgrwt>
</event>
<event>
 5    1  0.3854342E+001  0.8966941E+02  0.7546771E-02  0.1303654E+00
         -2   -1    0    0    0  501 -0.00000000000E+00  0.00000000000E+00  0.36444211037E+01  0.36444211037E+01  0.00000000000E+00 0.  1.
          2   -1    0    0  501    0  0.00000000000E+00 -0.00000000000E+00 -0.55156929682E+03  0.55156929682E+03  0.00000000000E+00 0. -1.
         23    2    1    2    0    0  0.00000000000E+00  0.00000000000E+00 -0.54792487572E+03  0.55521371793E+03  0.89669410291E+02 0.  0.
          2    1    3    3  502    0  0.40836454118E+00  0.44832218883E+02 -0.27249492043E+03  0.27615860709E+03  0.00000000000E+00 0.  1.
         -2    1    3    3    0  502 -0.40836454118E+00 -0.44832218883E+02 -0.27542995529E+03  0.27905511083E+03  0.00000000000E+00 0. -1.
<mgrwt>
<rscale>  0 0.89669410E+02</rscale>
<asrwt>0</asrwt>
<pdfrwt beam="2">  1        2 0.84856778E-01 0.89669410E+02</pdfrwt>
<pdfrwt beam="1">  1       -2 0.56068041E-03 0.89669410E+02</pdfrwt>
<totfact> 0.23227165E+05</totfact>
</mgrwt>
</event>
<event>
 5    1  0.3854342E+001  0.8746763E+02  0.7546771E-02  0.1309103E+00
          4   -1    0    0  501    0  0.00000000000E+00  0.00000000000E+00  0.66497372541E+02  0.66497372541E+02  0.00000000000E+00 0. -1.
         -4   -1    0    0    0  501 -0.00000000000E+00 -0.00000000000E+00 -0.28762736080E+02  0.28762736080E+02  0.00000000000E+00 0.  1.
         23    2    1    2    0    0  0.00000000000E+00  0.00000000000E+00  0.37734636461E+02  0.95260108620E+02  0.87467625471E+02 0.  0.
          2    1    3    3  502    0 -0.24614426690E+02 -0.36139639137E+02  0.19780374570E+02  0.47991736126E+02  0.00000000000E+00 0. -1.
         -2    1    3    3    0  502  0.24614426690E+02  0.36139639137E+02  0.17954261891E+02  0.47268372495E+02  0.00000000000E+00 0.  1.
<mgrwt>
<rscale>  0 0.87467625E+02</rscale>
<asrwt>0</asrwt>
<pdfrwt beam="1">  1        4 0.10230365E-01 0.87467625E+02</pdfrwt>
<pdfrwt beam="2">  1       -4 0.44250363E-02 0.87467625E+02</pdfrwt>
<totfact> 0.29929903E+04</totfact>
</mgrwt>
</event>
<event>
 5    1  0.3854342E+001  0.8891316E+02  0.7546771E-02  0.1305505E+00
          2   -1    0    0  501    0  0.00000000000E+00  0.00000000000E+00  0.81263075744E+03  0.81263075744E+03  0.00000000000E+00 0.  1.
         -2   -1    0    0    0  501 -0.00000000000E+00 -0.00000000000E+00 -0.24320855494E+01  0.24320855494E+01  0.00000000000E+00 0. -1.
         23    2    1    2    0    0  0.00000000000E+00  0.00000000000E+00  0.81019867189E+03  0.81506284299E+03  0.88913160379E+02 0.  0.
          2    1    3    3  502    0  0.17510479525E+02  0.31588427593E+02  0.16747500893E+03  0.17132520032E+03  0.00000000000E+00 0. -1.
         -2    1    3    3    0  502 -0.17510479525E+02 -0.31588427593E+02  0.64272366296E+03  0.64373764266E+03  0.00000000000E+00 0.  1.
<mgrwt>
<rscale>  0 0.88913160E+02</rscale>
<asrwt>0</asrwt>
<pdfrwt beam="1">  1        2 0.12501990E+00 0.88913160E+02</pdfrwt>
<pdfrwt beam="2">  1       -2 0.37416765E-03 0.88913160E+02</pdfrwt>
<totfact> 0.26111138E+05</totfact>
</mgrwt>
</event>
<event>
 5    1  0.3854342E+001  0.9399347E+02  0.7546771E-02  0.1293459E+00
         -2   -1    0    0    0  501 -0.00000000000E+00  0.00000000000E+00  0.80097842161E+03  0.80097842161E+03  0.00000000000E+00 0.  1.
          2   -1    0    0  501    0  0.00000000000E+00 -0.00000000000E+00 -0.27574936557E+01  0.27574936557E+01  0.00000000000E+00 0. -1.
         23    2    1    2    0    0  0.00000000000E+00  0.00000000000E+00  0.79822092795E+03  0.80373591526E+03  0.93993466069E+02 0.  0.
          2    1    3    3  502    0 -0.69354097908E+01  0.19407293734E+02  0.37944310097E+02  0.43180014217E+02  0.00000000000E+00 0. -1.
         -2    1    3    3    0  502  0.69354097908E+01 -0.19407293734E+02  0.76027661785E+03  0.76055590104E+03  0.00000000000E+00 0.  1.
<mgrwt>
<rscale>  0 0.93993466E+02</rscale>
<asrwt>0</asrwt>
<pdfrwt beam="2">  1        2 0.42423043E-03 0.93993466E+02</pdfrwt>
<pdfrwt beam="1">  1       -2 0.12322726E+00 0.93993466E+02</pdfrwt>
<totfact> 0.22002569E+04</totfact>
</mgrwt>
</event>
<event>
 5    1  0.3854342E+001  0.9268773E+02  0.7546771E-02  0.1296470E+00
          1   -1    0    0  501    0  0.00000000000E+00  0.00000000000E+00  0.84545439313E+01  0.84545439313E+01  0.00000000000E+00 0. -1.
         -1   -1    0    0    0  501 -0.00000000000E+00 -0.00000000000E+00 -0.25403544667E+03  0.25403544667E+03  0.00000000000E+00 0.  1.
         23    2    1    2    0    0  0.00000000000E+00  0.00000000000E+00 -0.24558090274E+03  0.26248999060E+03  0.92687730449E+02 0.  0.
          2    1    3    3  502    0 -0.19935482010E+02  0.26595592741E+02 -0.31329932124E+02  0.45676182449E+02  0.00000000000E+00 0. -1.
         -2    1    3    3    0  502  0.19935482010E+02 -0.26595592741E+02 -0.21425097061E+03  0.21681380815E+03  0.00000000000E+00 0.  1.
<mgrwt>
<rscale>  0 0.92687730E+02</rscale>
<asrwt>0</asrwt>
<pdfrwt beam="1">  1        1 0.13006990E-02 0.92687730E+02</pdfrwt>
<pdfrwt beam="2">  1       -1 0.39082378E-01 0.92687730E+02</pdfrwt>
<totfact> 0.61702794E+04</totfact>
</mgrwt>
</event>
<event>
 5    1  0.3854342E+001  0.9011643E+02  0.7546771E-02  0.1302570E+00
          2   -1    0    0  501    0  0.00000000000E+00  0.00000000000E+00  0.73351129096E+03  0.73351129096E+03  0.00000000000E+00 0. -1.
         -2   -1    0    0    0  501 -0.00000000000E+00 -0.00000000000E+00 -0.27678412130E+01  0.27678412130E+01  0.00000000000E+00 0.  1.
         23    2    1    2    0    0  0.00000000000E+00  0.00000000000E+00  0.73074344974E+03  0.73627913217E+03  0.90116430939E+02 0.  0.
          2    1    3    3  502    0  0.37297676897E+02 -0.83571063828E+01  0.56031278462E+03  0.56161497001E+03  0.00000000000E+00 0. -1.
         -2    1    3    3    0  502 -0.37297676897E+02  0.83571063828E+01  0.17043066512E+03  0.17466416216E+03  0.00000000000E+00 0.  1.
<mgrwt>
<rscale>  0 0.90116431E+02</rscale>
<asrwt>0</asrwt>
<pdfrwt beam="1">  1        2 0.11284774E+00 0.90116431E+02</pdfrwt>
<pdfrwt beam="2">  1       -2 0.42582231E-03 0.90116431E+02</pdfrwt>
<totfact> 0.24713929E+05</totfact>
</mgrwt>
</event>
<event>
 5    1  0.3854342E+001  0.9143083E+02  0.7546771E-02  0.1299423E+00
          2   -1    0    0  501    0  0.00000000000E+00  0.00000000000E+00  0.68074708669E+03  0.68074708669E+03  0.00000000000E+00 0. -1.
         -2   -1    0    0    0  501 -0.00000000000E+00 -0.00000000000E+00 -0.30700081302E+01  0.30700081302E+01  0.00000000000E+00 0.  1.
         23    2    1    2    0    0  0.00000000000E+00  0.00000000000E+00  0.67767707856E+03  0.68381709482E+03  0.91430828296E+02 0.  0.
          2    1    3    3  502    0  0.39490831900E+02 -0.15460635081E+02  0.46649678877E+03  0.46842054927E+03  0.00000000000E+00 0. -1.
         -2    1    3    3    0  502 -0.39490831900E+02  0.15460635081E+02  0.21118028979E+03  0.21539654556E+03  0.00000000000E+00 0.  1.
<mgrwt>
<rscale>  0 0.91430828E+02</rscale>
<asrwt>0</asrwt>
<pdfrwt beam="1">  1        2 0.10473020E+00 0.91430828E+02</pdfrwt>
<pdfrwt beam="2">  1       -2 0.47230949E-03 0.91430828E+02</pdfrwt>
<totfact> 0.23385046E+05</totfact>
</mgrwt>
</event>
<event>
 5    1  0.3854342E+001  0.8424890E+02  0.7546771E-02  0.1317409E+00
         -1   -1    0    0    0  501 -0.00000000000E+00  0.00000000000E+00  0.48976022550E+03  0.48976022550E+03  0.00000000000E+00 0.  1.
          1   -1    0    0  501    0  0.00000000000E+00 -0.00000000000E+00 -0.36231389285E+01  0.36231389285E+01  0.00000000000E+00 0. -1.
         23    2    1    2    0    0  0.00000000000E+00  0.00000000000E+00  0.48613708657E+03  0.49338336443E+03  0.84248901206E+02 0.  0.
          2    1    3    3  502    0  0.30947283951E+02 -0.28538045829E+02  0.23415837519E+03  0.23791237697E+03  0.00000000000E+00 0. -1.
         -2    1    3    3    0  502 -0.30947283951E+02  0.28538045829E+02  0.25197871137E+03  0.25547098745E+03  0.00000000000E+00 0.  1.
<mgrwt>
<rscale>  0 0.84248901E+02</rscale>
<asrwt>0</asrwt>
<pdfrwt beam="2">  1        1 0.55740638E-03 0.84248901E+02</pdfrwt>
<pdfrwt beam="1">  1       -1 0.75347675E-01 0.84248901E+02</pdfrwt>
<totfact> 0.58572111E+04</totfact>
</mgrwt>
</event>
<event>
 5    1  0.3854342E+001  0.9302053E+02  0.7546771E-02  0.1295698E+00
          2   -1    0    0  501    0  0.00000000000E+00  0.00000000000E+00  0.89034134355E+03  0.89034134355E+03  0.00000000000E+00 0. -1.
         -2   -1    0    0    0  501 -0.00000000000E+00 -0.00000000000E+00 -0.24296350399E+01  0.24296350399E+01  0.00000000000E+00 0.  1.
         23    2    1    2    0    0  0.00000000000E+00  0.00000000000E+00  0.88791170851E+03  0.89277097859E+03  0.93020525171E+02 0.  0.
          2    1    3    3  502    0  0.16075496699E+02 -0.43411432112E+02  0.40078759688E+03  0.40345219277E+03  0.00000000000E+00 0. -1.
         -2    1    3    3    0  502 -0.16075496699E+02  0.43411432112E+02  0.48712411163E+03  0.48931878583E+03  0.00000000000E+00 0.  1.
<mgrwt>
<rscale>  0 0.93020525E+02</rscale>
<asrwt>0</asrwt>
<pdfrwt beam="1">  1        2 0.13697533E+00 0.93020525E+02</pdfrwt>
<pdfrwt beam="2">  1       -2 0.37379072E-03 0.93020525E+02</pdfrwt>
<totfact> 0.23489963E+05</totfact>
</mgrwt>
</event>
<event>
 5    1  0.3854342E+001  0.9189757E+02  0.7546771E-02  0.1298320E+00
          1   -1    0    0  501    0  0.00000000000E+00  0.00000000000E+00  0.57594340589E+02  0.57594340589E+02  0.00000000000E+00 0. -1.
         -1   -1    0    0    0  501 -0.00000000000E+00 -0.00000000000E+00 -0.36657956539E+02  0.36657956539E+02  0.00000000000E+00 0.  1.
         23    2    1    2    0    0  0.00000000000E+00  0.00000000000E+00  0.20936384050E+02  0.94252297128E+02  0.91897569810E+02 0.  0.
          2    1    3    3  502    0  0.30723668963E+02 -0.13792990796E+02  0.42527748763E+02  0.54247579158E+02  0.00000000000E+00 0. -1.
         -2    1    3    3    0  502 -0.30723668963E+02  0.13792990796E+02 -0.21591364714E+02  0.40004717970E+02  0.00000000000E+00 0.  1.
<mgrwt>
<rscale>  0 0.91897570E+02</rscale>
<asrwt>0</asrwt>
<pdfrwt beam="1">  1        1 0.88606677E-02 0.91897570E+02</pdfrwt>
<pdfrwt beam="2">  1       -1 0.56396856E-02 0.91897570E+02</pdfrwt>
<totfact> 0.93701705E+04</totfact>
</mgrwt>
</event>
<event>
 5    1  0.3854342E+001  0.8658224E+02  0.7546771E-02  0.1311346E+00
         -2   -1    0    0    0  501 -0.00000000000E+00  0.00000000000E+00  0.24262122244E+02  0.24262122244E+02  0.00000000000E+00 0.  1.
          2   -1    0    0  501    0  0.00000000000E+00 -0.00000000000E+00 -0.77244737063E+02  0.77244737063E+02  0.00000000000E+00 0. -1.
         23    2    1    2    0    0  0.00000000000E+00  0.00000000000E+00 -0.52982614819E+02  0.10150685931E+03  0.86582244215E+02 0.  0.
          2    1    3    3  502    0  0.10713915889E+02 -0.31147746090E+02 -0.59425472280E+02  0.67943777021E+02  0.00000000000E+00 0. -1.
         -2    1    3    3    0  502 -0.10713915889E+02  0.31147746090E+02  0.64428574617E+01  0.33563082285E+02  0.00000000000E+00 0.  1.
<mgrwt>
<rscale>  0 0.86582244E+02</rscale>
<asrwt>0</asrwt>
<pdfrwt beam="2">  1        2 0.11883806E-01 0.86582244E+02</pdfrwt>
<pdfrwt beam="1">  1       -2 0.37326342E-02 0.86582244E+02</pdfrwt>
<totfact> 0.13122657E+05</totfact>
</mgrwt>
</event>
<event>
 5    1  0.3854342E+001  0.8105915E+02  0.7546771E-02  0.1326072E+00
         -2   -1    0    0    0  501 -0.00000000000E+00  0.00000000000E+00  0.26790468147E+02  0.26790468147E+02  0.00000000000E+00 0.  1.
          2   -1    0    0  501    0  0.00000000000E+00 -0.00000000000E+00 -0.61314592524E+02  0.61314592524E+02  0.00000000000E+00 0. -1.
         23    2    1    2    0    0  0.00000000000E+00  0.00000000000E+00 -0.34524124377E+02  0.88105060671E+02  0.81059154646E+02 0.  0.
          2    1    3    3  502    0 -0.18359055684E+02  0.34681922589E+02 -0.62440743072E+01  0.39735112231E+02  0.00000000000E+00 0. -1.
         -2    1    3    3    0  502  0.18359055684E+02 -0.34681922589E+02 -0.28280050070E+02  0.48369948440E+02  0.00000000000E+00 0.  1.
<mgrwt>
<rscale>  0 0.81059155E+02</rscale>
<asrwt>0</asrwt>
<pdfrwt beam="2">  1        2 0.94330141E-02 0.81059155E+02</pdfrwt>
<pdfrwt beam="1">  1       -2 0.41216106E-02 0.81059155E+02</pdfrwt>
<totfact> 0.14807391E+05</totfact>
</mgrwt>
</event>
<event>
 5    1  0.3854342E+001  0.9151020E+02  0.7546771E-02  0.1299235E+00
          2   -1    0    0  501    0  0.00000000000E+00  0.00000000000E+00  0.95015057867E+02  0.95015057867E+02  0.00000000000E+00 0. -1.
         -2   -1    0    0    0  501 -0.00000000000E+00 -0.00000000000E+00 -0.22033654451E+02  0.22033654451E+02  0.00000000000E+00 0.  1.
         23    2    1    2    0    0  0.00000000000E+00  0.00000000000E+00  0.72981403417E+02  0.11704871232E+03  0.91510195118E+02 0.  0.
          2    1    3    3  502    0  0.25386242006E+02  0.37826523873E+02  0.31030705589E+02  0.55119977148E+02  0.00000000000E+00 0. -1.
         -2    1    3    3    0  502 -0.25386242006E+02 -0.37826523873E+02  0.41950697828E+02  0.61928735170E+02  0.00000000000E+00 0.  1.
<mgrwt>
<rscale>  0 0.91510195E+02</rscale>
<asrwt>0</asrwt>
<pdfrwt beam="1">  1        2 0.14617701E-01 0.91510195E+02</pdfrwt>
<pdfrwt beam="2">  1       -2 0.33897931E-02 0.91510195E+02</pdfrwt>
<totfact> 0.11958271E+05</totfact>
</mgrwt>
</event>
<event>
 5    1  0.3854342E+001  0.9050129E+02  0.7546771E-02  0.1301642E+00
          1   -1    0    0  501    0  0.00000000000E+00  0.00000000000E+00  0.19341144256E+03  0.19341144256E+03  0.00000000000E+00 0. -1.
         -1   -1    0    0    0  501 -0.00000000000E+00 -0.00000000000E+00 -0.10586864277E+02  0.10586864277E+02  0.00000000000E+00 0.  1.
         23    2    1    2    0    0  0.00000000000E+00  0.00000000000E+00  0.18282457829E+03  0.20399830684E+03  0.90501286005E+02 0.  0.
          2    1    3    3  502    0  0.47409822768E+00  0.24323333632E+02  0.17741623924E+03  0.17907643975E+03  0.00000000000E+00 0. -1.
         -2    1    3    3    0  502 -0.47409822768E+00 -0.24323333632E+02  0.54083390493E+01  0.24921867092E+02  0.00000000000E+00 0.  1.
<mgrwt>
<rscale>  0 0.90501286E+02</rscale>
<asrwt>0</asrwt>
<pdfrwt beam="1">  1        1 0.29755604E-01 0.90501286E+02</pdfrwt>
<pdfrwt beam="2">  1       -1 0.16287485E-02 0.90501286E+02</pdfrwt>
<totfact> 0.12000987E+05</totfact>
</mgrwt>
</event>
<event>
 5    1  0.3854342E+001  0.8940264E+02  0.7546771E-02  0.1304305E+00
          1   -1    0    0  501    0  0.00000000000E+00  0.00000000000E+00  0.18994661034E+03  0.18994661034E+03  0.00000000000E+00 0. -1.
         -1   -1    0    0    0  501 -0.00000000000E+00 -0.00000000000E+00 -0.10519839153E+02  0.10519839153E+02  0.00000000000E+00 0.  1.
         23    2    1    2    0    0  0.00000000000E+00  0.00000000000E+00  0.17942677119E+03  0.20046644950E+03  0.89402635052E+02 0.  0.
          2    1    3    3  502    0 -0.24199414758E+02  0.20165559615E+02  0.16083126235E+03  0.16388702334E+03  0.00000000000E+00 0. -1.
         -2    1    3    3    0  502  0.24199414758E+02 -0.20165559615E+02  0.18595508842E+02  0.36579426162E+02  0.00000000000E+00 0.  1.
<mgrwt>
<rscale>  0 0.89402635E+02</rscale>
<asrwt>0</asrwt>
<pdfrwt beam="1">  1        1 0.29222553E-01 0.89402635E+02</pdfrwt>
<pdfrwt beam="2">  1       -1 0.16184369E-02 0.89402635E+02</pdfrwt>
<totfact> 0.12356955E+05</totfact>
</mgrwt>
</event>
<event>
 5    1  0.3854342E+001  0.9199936E+02  0.7546771E-02  0.1298081E+00
          2   -1    0    0  501    0  0.00000000000E+00  0.00000000000E+00  0.35191866050E+04  0.35191866050E+04  0.00000000000E+00 0. -1.
         -2   -1    0    0    0  501 -0.00000000000E+00 -0.00000000000E+00 -0.60126688253E+00  0.60126688253E+00  0.00000000000E+00 0.  1.
         23    2    1    2    0    0  0.00000000000E+00  0.00000000000E+00  0.35185853381E+04  0.35197878719E+04  0.91999355629E+02 0.  0.
          2    1    3    3  502    0 -0.38173681338E+02  0.18475107453E+02  0.24409130478E+04  0.24412814395E+04  0.00000000000E+00 0. -1.
         -2    1    3    3    0  502  0.38173681338E+02 -0.18475107453E+02  0.10776722903E+04  0.10785064324E+04  0.00000000000E+00 0.  1.
<mgrwt>
<rscale>  0 0.91999356E+02</rscale>
<asrwt>0</asrwt>
<pdfrwt beam="1">  1        2 0.54139683E+00 0.91999356E+02</pdfrwt>
<pdfrwt beam="2">  1       -2 0.92505415E-04 0.91999356E+02</pdfrwt>
<totfact> 0.60279882E+04</totfact>
</mgrwt>
</event>
<event>
 5    1  0.3854342E+001  0.8677715E+02  0.7546771E-02  0.1310849E+00
         -2   -1    0    0    0  501 -0.00000000000E+00  0.00000000000E+00  0.20800759401E+01  0.20800759401E+01  0.00000000000E+00 0. -1.
          2   -1    0    0  501    0  0.00000000000E+00 -0.00000000000E+00 -0.90504787608E+03  0.90504787608E+03  0.00000000000E+00 0.  1.
         23    2    1    2    0    0  0.00000000000E+00  0.00000000000E+00 -0.90296780014E+03  0.90712795202E+03  0.86777147029E+02 0.  0.
          2    1    3    3  502    0 -0.17036363534E+02 -0.17896521185E+02 -0.78650813423E+02  0.82440727829E+02  0.00000000000E+00 0. -1.
         -2    1    3    3    0  502  0.17036363534E+02  0.17896521185E+02 -0.82431698671E+03  0.82468722419E+03  0.00000000000E+00 0.  1.
<mgrwt>
<rscale>  0 0.86777147E+02</rscale>
<asrwt>0</asrwt>
<pdfrwt beam="2">  1        2 0.13923819E+00 0.86777147E+02</pdfrwt>
<pdfrwt beam="1">  1       -2 0.32001156E-03 0.86777147E+02</pdfrwt>
<totfact> 0.28251851E+05</totfact>
</mgrwt>
</event>
<event>
 5    1  0.3854342E+001  0.9055352E+02  0.7546771E-02  0.1301517E+00
          1   -1    0    0  501    0  0.00000000000E+00  0.00000000000E+00  0.27557336735E+03  0.27557336735E+03  0.00000000000E+00 0. -1.
         -1   -1    0    0    0  501 -0.00000000000E+00 -0.00000000000E+00 -0.74389809932E+01  0.74389809932E+01  0.00000000000E+00 0.  1.
         23    2    1    2    0    0  0.00000000000E+00  0.00000000000E+00  0.26813438636E+03  0.28301234834E+03  0.90553521012E+02 0.  0.
          2    1    3    3  502    0 -0.32235845347E+02 -0.11188755007E+02  0.41057033423E+02  0.53385559446E+02  0.00000000000E+00 0.  1.
         -2    1    3    3    0  502  0.32235845347E+02  0.11188755007E+02  0.22707735293E+03  0.22962678890E+03  0.00000000000E+00 0. -1.
<mgrwt>
<rscale>  0 0.90553521E+02</rscale>
<asrwt>0</asrwt>
<pdfrwt beam="1">  1        1 0.42395895E-01 0.90553521E+02</pdfrwt>
<pdfrwt beam="2">  1       -1 0.11444588E-02 0.90553521E+02</pdfrwt>
<totfact> 0.12836873E+05</totfact>
</mgrwt>
</event>
<event>
 5    1  0.3854342E+001  0.9113788E+02  0.7546771E-02  0.1300119E+00
          2   -1    0    0  501    0  0.00000000000E+00  0.00000000000E+00  0.17124979665E+04  0.17124979665E+04  0.00000000000E+00 0. -1.
         -2   -1    0    0    0  501 -0.00000000000E+00 -0.00000000000E+00 -0.12125728164E+01  0.12125728164E+01  0.00000000000E+00 0.  1.
         23    2    1    2    0    0  0.00000000000E+00  0.00000000000E+00  0.17112853937E+04  0.17137105394E+04  0.91137884163E+02 0.  0.
          2    1    3    3  502    0  0.23598301497E+02 -0.35266910312E+02  0.11679696082E+04  0.11687401938E+04  0.00000000000E+00 0. -1.
         -2    1    3    3    0  502 -0.23598301497E+02  0.35266910312E+02  0.54331578550E+03  0.54497034559E+03  0.00000000000E+00 0.  1.
<mgrwt>
<rscale>  0 0.91137884E+02</rscale>
<asrwt>0</asrwt>
<pdfrwt beam="1">  1        2 0.26345929E+00 0.91137884E+02</pdfrwt>
<pdfrwt beam="2">  1       -2 0.18655103E-03 0.91137884E+02</pdfrwt>
<totfact> 0.22157982E+05</totfact>
</mgrwt>
</event>
<event>
 5    1  0.3854342E+001  0.8957801E+02  0.7546771E-02  0.1303877E+00
         -3   -1    0    0    0  501 -0.00000000000E+00  0.00000000000E+00  0.39050008069E+02  0.39050008069E+02  0.00000000000E+00 0.  1.
          3   -1    0    0  501    0  0.00000000000E+00 -0.00000000000E+00 -0.51371440686E+02  0.51371440686E+02  0.00000000000E+00 0. -1.
         23    2    1    2    0    0  0.00000000000E+00  0.00000000000E+00 -0.12321432617E+02  0.90421448755E+02  0.89578014564E+02 0.  0.
          2    1    3    3  502    0  0.37368671944E+02 -0.24619256284E+02 -0.42642635482E+01  0.44952301014E+02  0.00000000000E+00 0. -1.
         -2    1    3    3    0  502 -0.37368671944E+02  0.24619256284E+02 -0.80571690685E+01  0.45469147741E+02  0.00000000000E+00 0.  1.
<mgrwt>
<rscale>  0 0.89578015E+02</rscale>
<asrwt>0</asrwt>
<pdfrwt beam="2">  1        3 0.79032985E-02 0.89578015E+02</pdfrwt>
<pdfrwt beam="1">  1       -3 0.60076936E-02 0.89578015E+02</pdfrwt>
<totfact> 0.37140790E+04</totfact>
</mgrwt>
</event>
<event>
 5    1  0.3854342E+001  0.8435280E+02  0.7546771E-02  0.1317134E+00
          2   -1    0    0  501    0  0.00000000000E+00  0.00000000000E+00  0.11567521227E+01  0.11567521227E+01  0.00000000000E+00 0. -1.
         -2   -1    0    0    0  501 -0.00000000000E+00 -0.00000000000E+00 -0.15377960641E+04  0.15377960641E+04  0.00000000000E+00 0.  1.
         23    2    1    2    0    0  0.00000000000E+00  0.00000000000E+00 -0.15366393120E+04  0.15389528162E+04  0.84352803424E+02 0.  0.
          2    1    3    3  502    0 -0.16902782262E+02 -0.36823261793E+02 -0.98201275671E+03  0.98284826449E+03  0.00000000000E+00 0. -1.
         -2    1    3    3    0  502  0.16902782262E+02  0.36823261793E+02 -0.55462655529E+03  0.55610455176E+03  0.00000000000E+00 0.  1.
<mgrwt>
<rscale>  0 0.84352803E+02</rscale>
<asrwt>0</asrwt>
<pdfrwt beam="1">  1        2 0.17796189E-03 0.84352803E+02</pdfrwt>
<pdfrwt beam="2">  1       -2 0.23658397E+00 0.84352803E+02</pdfrwt>
<totfact> 0.12443736E+04</totfact>
</mgrwt>
</event>
<event>
 5    1  0.3854342E+001  0.9156414E+02  0.7546771E-02  0.1299108E+00
         -1   -1    0    0    0  501 -0.00000000000E+00  0.00000000000E+00  0.25102574010E+02  0.25102574010E+02  0.00000000000E+00 0.  1.
          1   -1    0    0  501    0  0.00000000000E+00 -0.00000000000E+00 -0.83497322978E+02  0.83497322978E+02  0.00000000000E+00 0. -1.
         23    2    1    2    0    0  0.00000000000E+00  0.00000000000E+00 -0.58394748968E+02  0.10859989699E+03  0.91564135549E+02 0.  0.
          2    1    3    3  502    0  0.38154005143E+02  0.22415029171E+02 -0.43122062829E+02  0.61787328344E+02  0.00000000000E+00 0. -1.
         -2    1    3    3    0  502 -0.38154005143E+02 -0.22415029171E+02 -0.15272686138E+02  0.46812568644E+02  0.00000000000E+00 0.  1.
<mgrwt>
<rscale>  0 0.91564136E+02</rscale>
<asrwt>0</asrwt>
<pdfrwt beam="2">  1        1 0.12845742E-01 0.91564136E+02</pdfrwt>
<pdfrwt beam="1">  1       -1 0.38619344E-02 0.91564136E+02</pdfrwt>
<totfact> 0.10025679E+05</totfact>
</mgrwt>
</event>
<event>
 5    1  0.3854342E+001  0.9064951E+02  0.7546771E-02  0.1301286E+00
         -1   -1    0    0    0  501 -0.00000000000E+00  0.00000000000E+00  0.12630323811E+02  0.12630323811E+02  0.00000000000E+00 0.  1.
          1   -1    0    0  501    0  0.00000000000E+00 -0.00000000000E+00 -0.16265089665E+03  0.16265089665E+03  0.00000000000E+00 0. -1.
         23    2    1    2    0    0  0.00000000000E+00  0.00000000000E+00 -0.15002057284E+03  0.17528122046E+03  0.90649511698E+02 0.  0.
          2    1    3    3  502    0  0.30871810771E+02 -0.19069272887E+01 -0.13907185838E+03  0.14246995075E+03  0.00000000000E+00 0. -1.
         -2    1    3    3    0  502 -0.30871810771E+02  0.19069272887E+01 -0.10948714456E+02  0.32811269713E+02  0.00000000000E+00 0.  1.
<mgrwt>
<rscale>  0 0.90649512E+02</rscale>
<asrwt>0</asrwt>
<pdfrwt beam="2">  1        1 0.25023215E-01 0.90649512E+02</pdfrwt>
<pdfrwt beam="1">  1       -1 0.19431267E-02 0.90649512E+02</pdfrwt>
<totfact> 0.11561878E+05</totfact>
</mgrwt>
</event>
<event>
 5    1  0.3854342E+001  0.9243623E+02  0.7546771E-02  0.1297057E+00
          2   -1    0    0  501    0  0.00000000000E+00  0.00000000000E+00  0.10423417573E+02  0.10423417573E+02  0.00000000000E+00 0. -1.
         -2   -1    0    0    0  501 -0.00000000000E+00 -0.00000000000E+00 -0.20493416192E+03  0.20493416192E+03  0.00000000000E+00 0.  1.
         23    2    1    2    0    0  0.00000000000E+00  0.00000000000E+00 -0.19451074434E+03  0.21535757949E+03  0.92436234120E+02 0.  0.
          2    1    3    3  502    0  0.45286890811E+02 -0.70529326994E+01 -0.83380266423E+02  0.95146808500E+02  0.00000000000E+00 0. -1.
         -2    1    3    3    0  502 -0.45286890811E+02  0.70529326994E+01 -0.11113047792E+03  0.12021077099E+03  0.00000000000E+00 0.  1.
<mgrwt>
<rscale>  0 0.92436234E+02</rscale>
<asrwt>0</asrwt>
<pdfrwt beam="1">  1        2 0.16036028E-02 0.92436234E+02</pdfrwt>
<pdfrwt beam="2">  1       -2 0.31528331E-01 0.92436234E+02</pdfrwt>
<totfact> 0.59533966E+04</totfact>
</mgrwt>
</event>
<event>
 5    1  0.3854342E+001  0.8969033E+02  0.7546771E-02  0.1303603E+00
         -1   -1    0    0    0  501 -0.00000000000E+00  0.00000000000E+00  0.23463177850E+01  0.23463177850E+01  0.00000000000E+00 0.  1.
          1   -1    0    0  501    0  0.00000000000E+00 -0.00000000000E+00 -0.85712552653E+03  0.85712552653E+03  0.00000000000E+00 0. -1.
         23    2    1    2    0    0  0.00000000000E+00  0.00000000000E+00 -0.85477920875E+03  0.85947184432E+03  0.89690330958E+02 0.  0.
          2    1    3    3  502    0 -0.40029601152E+02 -0.32734735999E+01 -0.61856407343E+03  0.61986659656E+03  0.00000000000E+00 0. -1.
         -2    1    3    3    0  502  0.40029601152E+02  0.32734735999E+01 -0.23621513532E+03  0.23960524775E+03  0.00000000000E+00 0.  1.
<mgrwt>
<rscale>  0 0.89690331E+02</rscale>
<asrwt>0</asrwt>
<pdfrwt beam="2">  1        1 0.13186562E+00 0.89690331E+02</pdfrwt>
<pdfrwt beam="1">  1       -1 0.36097155E-03 0.89690331E+02</pdfrwt>
<totfact> 0.14644663E+05</totfact>
</mgrwt>
</event>
<event>
 5    1  0.3854342E+001  0.9115067E+02  0.7546771E-02  0.1300089E+00
         -1   -1    0    0    0  501 -0.00000000000E+00  0.00000000000E+00  0.60623734839E+03  0.60623734839E+03  0.00000000000E+00 0.  1.
          1   -1    0    0  501    0  0.00000000000E+00 -0.00000000000E+00 -0.34262345409E+01  0.34262345409E+01  0.00000000000E+00 0. -1.
         23    2    1    2    0    0  0.00000000000E+00  0.00000000000E+00  0.60281111384E+03  0.60966358293E+03  0.91150674007E+02 0.  0.
          2    1    3    3  502    0  0.35462468841E+02 -0.38393167720E+01  0.49115045866E+03  0.49244400706E+03  0.00000000000E+00 0. -1.
         -2    1    3    3    0  502 -0.35462468841E+02  0.38393167720E+01  0.11166065519E+03  0.11721957587E+03  0.00000000000E+00 0.  1.
<mgrwt>
<rscale>  0 0.91150674E+02</rscale>
<asrwt>0</asrwt>
<pdfrwt beam="2">  1        1 0.52711349E-03 0.91150674E+02</pdfrwt>
<pdfrwt beam="1">  1       -1 0.93267199E-01 0.91150674E+02</pdfrwt>
<totfact> 0.41331737E+04</totfact>
</mgrwt>
</event>
<event>
 5    1  0.3854342E+001  0.8965057E+02  0.7546771E-02  0.1303700E+00
          1   -1    0    0  501    0  0.00000000000E+00  0.00000000000E+00  0.58031287410E+03  0.58031287410E+03  0.00000000000E+00 0. -1.
         -1   -1    0    0    0  501 -0.00000000000E+00 -0.00000000000E+00 -0.34624534090E+01  0.34624534090E+01  0.00000000000E+00 0.  1.
         23    2    1    2    0    0  0.00000000000E+00  0.00000000000E+00  0.57685042069E+03  0.58377532751E+03  0.89650572540E+02 0.  0.
          2    1    3    3  502    0  0.17137596186E+02  0.11407943602E+02  0.54770663045E+03  0.54809341486E+03  0.00000000000E+00 0. -1.
         -2    1    3    3    0  502 -0.17137596186E+02 -0.11407943602E+02  0.29143790242E+02  0.35681912644E+02  0.00000000000E+00 0.  1.
<mgrwt>
<rscale>  0 0.89650573E+02</rscale>
<asrwt>0</asrwt>
<pdfrwt beam="1">  1        1 0.89278827E-01 0.89650573E+02</pdfrwt>
<pdfrwt beam="2">  1       -1 0.53268560E-03 0.89650573E+02</pdfrwt>
<totfact> 0.14772560E+05</totfact>
</mgrwt>
</event>
<event>
 5    1  0.3854342E+001  0.7242449E+02  0.7546771E-02  0.1352037E+00
          2   -1    0    0  501    0  0.00000000000E+00  0.00000000000E+00  0.43209180721E+03  0.43209180721E+03  0.00000000000E+00 0. -1.
         -2   -1    0    0    0  501 -0.00000000000E+00 -0.00000000000E+00 -0.30348336531E+01  0.30348336531E+01  0.00000000000E+00 0.  1.
         23    2    1    2    0    0  0.00000000000E+00  0.00000000000E+00  0.42905697355E+03  0.43512664086E+03  0.72424491927E+02 0.  0.
          2    1    3    3  502    0 -0.75510871296E+00  0.21198859546E+02  0.39085751245E+03  0.39143269776E+03  0.00000000000E+00 0. -1.
         -2    1    3    3    0  502  0.75510871296E+00 -0.21198859546E+02  0.38199461107E+02  0.43693943106E+02  0.00000000000E+00 0.  1.
<mgrwt>
<rscale>  0 0.72424492E+02</rscale>
<asrwt>0</asrwt>
<pdfrwt beam="1">  1        2 0.66475614E-01 0.72424492E+02</pdfrwt>
<pdfrwt beam="2">  1       -2 0.46689783E-03 0.72424492E+02</pdfrwt>
<totfact> 0.37494137E+05</totfact>
</mgrwt>
</event>
<event>
 5    1  0.3854342E+001  0.9042458E+02  0.7546771E-02  0.1301827E+00
         -1   -1    0    0    0  501 -0.00000000000E+00  0.00000000000E+00  0.59494250948E+03  0.59494250948E+03  0.00000000000E+00 0.  1.
          1   -1    0    0  501    0  0.00000000000E+00 -0.00000000000E+00 -0.34358800453E+01  0.34358800453E+01  0.00000000000E+00 0. -1.
         23    2    1    2    0    0  0.00000000000E+00  0.00000000000E+00  0.59150662943E+03  0.59837838952E+03  0.90424578437E+02 0.  0.
          2    1    3    3  502    0 -0.44218939287E+02 -0.92954230629E+01  0.28543433410E+03  0.28898871702E+03  0.00000000000E+00 0. -1.
         -2    1    3    3    0  502  0.44218939287E+02  0.92954230629E+01  0.30607229534E+03  0.30938967251E+03  0.00000000000E+00 0.  1.
<mgrwt>
<rscale>  0 0.90424578E+02</rscale>
<asrwt>0</asrwt>
<pdfrwt beam="2">  1        1 0.52859740E-03 0.90424578E+02</pdfrwt>
<pdfrwt beam="1">  1       -1 0.91529535E-01 0.90424578E+02</pdfrwt>
<totfact> 0.42793265E+04</totfact>
</mgrwt>
</event>
<event>
 5    1  0.3854342E+001  0.9341774E+02  0.7546771E-02  0.1294780E+00
          2   -1    0    0  501    0  0.00000000000E+00  0.00000000000E+00  0.20490397968E+04  0.20490397968E+04  0.00000000000E+00 0. -1.
         -2   -1    0    0    0  501 -0.00000000000E+00 -0.00000000000E+00 -0.10647517710E+01  0.10647517710E+01  0.00000000000E+00 0.  1.
         23    2    1    2    0    0  0.00000000000E+00  0.00000000000E+00  0.20479750450E+04  0.20501045485E+04  0.93417744621E+02 0.  0.
          2    1    3    3  502    0  0.23670818368E+02  0.26879287766E+02  0.16819572988E+04  0.16823385982E+04  0.00000000000E+00 0. -1.
         -2    1    3    3    0  502 -0.23670818368E+02 -0.26879287766E+02  0.36601774615E+03  0.36776595037E+03  0.00000000000E+00 0.  1.
<mgrwt>
<rscale>  0 0.93417745E+02</rscale>
<asrwt>0</asrwt>
<pdfrwt beam="1">  1        2 0.31523374E+00 0.93417745E+02</pdfrwt>
<pdfrwt beam="2">  1       -2 0.16380960E-03 0.93417745E+02</pdfrwt>
<totfact> 0.18030447E+05</totfact>
</mgrwt>
</event>
<event>
 5    1  0.3854342E+001  0.9054025E+02  0.7546771E-02  0.1301549E+00
         -1   -1    0    0    0  501 -0.00000000000E+00  0.00000000000E+00  0.30445448364E+01  0.30445448364E+01  0.00000000000E+00 0.  1.
          1   -1    0    0  501    0  0.00000000000E+00 -0.00000000000E+00 -0.67313316682E+03  0.67313316682E+03  0.00000000000E+00 0. -1.
         23    2    1    2    0    0  0.00000000000E+00  0.00000000000E+00 -0.67008862198E+03  0.67617771165E+03  0.90540247564E+02 0.  0.
          2    1    3    3  502    0 -0.24053320017E+02  0.71571053150E+01 -0.61642988240E+03  0.61694050465E+03  0.00000000000E+00 0. -1.
         -2    1    3    3    0  502  0.24053320017E+02 -0.71571053150E+01 -0.53658739577E+02  0.59237207001E+02  0.00000000000E+00 0.  1.
<mgrwt>
<rscale>  0 0.90540248E+02</rscale>
<asrwt>0</asrwt>
<pdfrwt beam="2">  1        1 0.10355898E+00 0.90540248E+02</pdfrwt>
<pdfrwt beam="1">  1       -1 0.46839138E-03 0.90540248E+02</pdfrwt>
<totfact> 0.14483052E+05</totfact>
</mgrwt>
</event>
<event>
 5    1  0.3854342E+001  0.9097523E+02  0.7546771E-02  0.1300507E+00
         -2   -1    0    0    0  501 -0.00000000000E+00  0.00000000000E+00  0.11667871828E+01  0.11667871828E+01  0.00000000000E+00 0.  1.
          2   -1    0    0  501    0  0.00000000000E+00 -0.00000000000E+00 -0.17733509645E+04  0.17733509645E+04  0.00000000000E+00 0. -1.
         23    2    1    2    0    0  0.00000000000E+00  0.00000000000E+00 -0.17721841773E+04  0.17745177517E+04  0.90975231266E+02 0.  0.
          2    1    3    3  502    0  0.19676771187E+01  0.44669280653E+02 -0.10491781544E+04  0.10501304757E+04  0.00000000000E+00 0. -1.
         -2    1    3    3    0  502 -0.19676771187E+01 -0.44669280653E+02 -0.72300602290E+03  0.72438727593E+03  0.00000000000E+00 0.  1.
<mgrwt>
<rscale>  0 0.90975231E+02</rscale>
<asrwt>0</asrwt>
<pdfrwt beam="2">  1        2 0.27282187E+00 0.90975231E+02</pdfrwt>
<pdfrwt beam="1">  1       -2 0.17950661E-03 0.90975231E+02</pdfrwt>
<totfact> 0.21778068E+05</totfact>
</mgrwt>
</event>
<event>
 5    1  0.3854342E+001  0.9167294E+02  0.7546771E-02  0.1298850E+00
          2   -1    0    0  501    0  0.00000000000E+00  0.00000000000E+00  0.72461924455E+03  0.72461924455E+03  0.00000000000E+00 0. -1.
         -2   -1    0    0    0  501 -0.00000000000E+00 -0.00000000000E+00 -0.28994290165E+01  0.28994290165E+01  0.00000000000E+00 0.  1.
         23    2    1    2    0    0  0.00000000000E+00  0.00000000000E+00  0.72171981554E+03  0.72751867357E+03  0.91672941779E+02 0.  0.
          2    1    3    3  502    0 -0.17966450643E+02  0.10022103724E+02  0.68592183260E+03  0.68623027939E+03  0.00000000000E+00 0. -1.
         -2    1    3    3    0  502  0.17966450643E+02 -0.10022103724E+02  0.35797982937E+02  0.41288394182E+02  0.00000000000E+00 0.  1.
<mgrwt>
<rscale>  0 0.91672942E+02</rscale>
<asrwt>0</asrwt>
<pdfrwt beam="1">  1        2 0.11147974E+00 0.91672942E+02</pdfrwt>
<pdfrwt beam="2">  1       -2 0.44606658E-03 0.91672942E+02</pdfrwt>
<totfact> 0.23560754E+05</totfact>
</mgrwt>
</event>
<event>
 5    1  0.3854342E+001  0.7730206E+02  0.7546771E-02  0.1336887E+00
          1   -1    0    0  501    0  0.00000000000E+00  0.00000000000E+00  0.14196339566E+02  0.14196339566E+02  0.00000000000E+00 0. -1.
         -1   -1    0    0    0  501 -0.00000000000E+00 -0.00000000000E+00 -0.10523150606E+03  0.10523150606E+03  0.00000000000E+00 0.  1.
         23    2    1    2    0    0  0.00000000000E+00  0.00000000000E+00 -0.91035166494E+02  0.11942784563E+03  0.77302061889E+02 0.  0.
          2    1    3    3  502    0  0.27969954695E+02  0.19910293244E+02 -0.18090295892E+02  0.38807176503E+02  0.00000000000E+00 0. -1.
         -2    1    3    3    0  502 -0.27969954695E+02 -0.19910293244E+02 -0.72944870602E+02  0.80620669123E+02  0.00000000000E+00 0.  1.
<mgrwt>
<rscale>  0 0.77302062E+02</rscale>
<asrwt>0</asrwt>
<pdfrwt beam="1">  1        1 0.21840523E-02 0.77302062E+02</pdfrwt>
<pdfrwt beam="2">  1       -1 0.16189462E-01 0.77302062E+02</pdfrwt>
<totfact> 0.12314681E+05</totfact>
</mgrwt>
</event>
<event>
 5    1  0.3854342E+001  0.9108025E+02  0.7546771E-02  0.1300257E+00
         -2   -1    0    0    0  501 -0.00000000000E+00  0.00000000000E+00  0.11186117656E+02  0.11186117656E+02  0.00000000000E+00 0.  1.
          2   -1    0    0  501    0  0.00000000000E+00 -0.00000000000E+00 -0.18539970217E+03  0.18539970217E+03  0.00000000000E+00 0. -1.
         23    2    1    2    0    0  0.00000000000E+00  0.00000000000E+00 -0.17421358452E+03  0.19658581983E+03  0.91080247736E+02 0.  0.
          2    1    3    3  502    0 -0.17365152345E+02 -0.11579057727E+02 -0.17446868233E+03  0.17571267515E+03  0.00000000000E+00 0. -1.
         -2    1    3    3    0  502  0.17365152345E+02  0.11579057727E+02  0.25509781679E+00  0.20873144677E+02  0.00000000000E+00 0.  1.
<mgrwt>
<rscale>  0 0.91080248E+02</rscale>
<asrwt>0</asrwt>
<pdfrwt beam="2">  1        2 0.28523030E-01 0.91080248E+02</pdfrwt>
<pdfrwt beam="1">  1       -2 0.17209413E-02 0.91080248E+02</pdfrwt>
<totfact> 0.15095377E+05</totfact>
</mgrwt>
</event>
<event>
 5    1  0.3854342E+001  0.9206717E+02  0.7546771E-02  0.1297922E+00
          3   -1    0    0  501    0  0.00000000000E+00  0.00000000000E+00  0.91779787669E+02  0.91779787669E+02  0.00000000000E+00 0. -1.
         -3   -1    0    0    0  501 -0.00000000000E+00 -0.00000000000E+00 -0.23088863484E+02  0.23088863484E+02  0.00000000000E+00 0.  1.
         23    2    1    2    0    0  0.00000000000E+00  0.00000000000E+00  0.68690924185E+02  0.11486865115E+03  0.92067170871E+02 0.  0.
          2    1    3    3  502    0  0.31885998222E+01  0.21970486124E+02  0.84659199700E+02  0.87521708868E+02  0.00000000000E+00 0. -1.
         -2    1    3    3    0  502 -0.31885998222E+01 -0.21970486124E+02 -0.15968275515E+02  0.27346942284E+02  0.00000000000E+00 0.  1.
<mgrwt>
<rscale>  0 0.92067171E+02</rscale>
<asrwt>0</asrwt>
<pdfrwt beam="1">  1        3 0.14119967E-01 0.92067171E+02</pdfrwt>
<pdfrwt beam="2">  1       -3 0.35521329E-02 0.92067171E+02</pdfrwt>
<totfact> 0.32723520E+04</totfact>
</mgrwt>
</event>
<event>
 5    1  0.3854342E+001  0.9431946E+02  0.7546771E-02  0.1292716E+00
         -1   -1    0    0    0  501 -0.00000000000E+00  0.00000000000E+00  0.12574847848E+02  0.12574847848E+02  0.00000000000E+00 0.  1.
          1   -1    0    0  501    0  0.00000000000E+00 -0.00000000000E+00 -0.17686418355E+03  0.17686418355E+03  0.00000000000E+00 0. -1.
         23    2    1    2    0    0  0.00000000000E+00  0.00000000000E+00 -0.16428933570E+03  0.18943903140E+03  0.94319461361E+02 0.  0.
          2    1    3    3  502    0  0.65141335774E+01  0.25892214967E+02 -0.16022273402E+03  0.16243203265E+03  0.00000000000E+00 0. -1.
         -2    1    3    3    0  502 -0.65141335774E+01 -0.25892214967E+02 -0.40666016767E+01  0.27006998748E+02  0.00000000000E+00 0.  1.
<mgrwt>
<rscale>  0 0.94319461E+02</rscale>
<asrwt>0</asrwt>
<pdfrwt beam="2">  1        1 0.27209872E-01 0.94319461E+02</pdfrwt>
<pdfrwt beam="1">  1       -1 0.19345921E-02 0.94319461E+02</pdfrwt>
<totfact> 0.10554381E+05</totfact>
</mgrwt>
</event>
<event>
 5    1  0.3854342E+001  0.9580483E+02  0.7546771E-02  0.1289374E+00
         -1   -1    0    0    0  501 -0.00000000000E+00  0.00000000000E+00  0.28784995316E+01  0.28784995316E+01  0.00000000000E+00 0.  1.
          1   -1    0    0  501    0  0.00000000000E+00 -0.00000000000E+00 -0.79716578440E+03  0.79716578440E+03  0.00000000000E+00 0. -1.
         23    2    1    2    0    0  0.00000000000E+00  0.00000000000E+00 -0.79428728487E+03  0.80004428393E+03  0.95804829461E+02 0.  0.
          2    1    3    3  502    0  0.10777004419E+02 -0.45450005067E+02 -0.30845445281E+03  0.31197114649E+03  0.00000000000E+00 0. -1.
         -2    1    3    3    0  502 -0.10777004419E+02  0.45450005067E+02 -0.48583283206E+03  0.48807313744E+03  0.00000000000E+00 0.  1.
<mgrwt>
<rscale>  0 0.95804829E+02</rscale>
<asrwt>0</asrwt>
<pdfrwt beam="2">  1        1 0.12264091E+00 0.95804829E+02</pdfrwt>
<pdfrwt beam="1">  1       -1 0.44284602E-03 0.95804829E+02</pdfrwt>
<totfact> 0.12396016E+05</totfact>
</mgrwt>
</event>
<event>
 5    1  0.3854342E+001  0.9123259E+02  0.7546771E-02  0.1299894E+00
          1   -1    0    0  501    0  0.00000000000E+00  0.00000000000E+00  0.28717287638E+03  0.28717287638E+03  0.00000000000E+00 0. -1.
         -1   -1    0    0    0  501 -0.00000000000E+00 -0.00000000000E+00 -0.72459703831E+01  0.72459703831E+01  0.00000000000E+00 0.  1.
         23    2    1    2    0    0  0.00000000000E+00  0.00000000000E+00  0.27992690599E+03  0.29441884676E+03  0.91232585342E+02 0.  0.
          2    1    3    3  502    0  0.37886455743E+01  0.44411041284E+02  0.17127682130E+03  0.17698147908E+03  0.00000000000E+00 0. -1.
         -2    1    3    3    0  502 -0.37886455743E+01 -0.44411041284E+02  0.10865008469E+03  0.11743736767E+03  0.00000000000E+00 0.  1.
<mgrwt>
<rscale>  0 0.91232585E+02</rscale>
<asrwt>0</asrwt>
<pdfrwt beam="1">  1        1 0.44180434E-01 0.91232585E+02</pdfrwt>
<pdfrwt beam="2">  1       -1 0.11147649E-02 0.91232585E+02</pdfrwt>
<totfact> 0.12684581E+05</totfact>
</mgrwt>
</event>
<event>
 5    1  0.3854342E+001  0.8925262E+02  0.7546771E-02  0.1304672E+00
         -2   -1    0    0    0  501 -0.00000000000E+00  0.00000000000E+00  0.97494484006E+02  0.97494484006E+02  0.00000000000E+00 0.  1.
          2   -1    0    0  501    0  0.00000000000E+00 -0.00000000000E+00 -0.20426876203E+02  0.20426876203E+02  0.00000000000E+00 0. -1.
         23    2    1    2    0    0  0.00000000000E+00  0.00000000000E+00  0.77067607803E+02  0.11792136021E+03  0.89252624729E+02 0.  0.
          2    1    3    3  502    0 -0.29385255845E+01 -0.19855687748E+02 -0.14126348255E+02  0.24544591738E+02  0.00000000000E+00 0. -1.
         -2    1    3    3    0  502  0.29385255845E+01  0.19855687748E+02  0.91193956058E+02  0.93376768471E+02  0.00000000000E+00 0.  1.
<mgrwt>
<rscale>  0 0.89252625E+02</rscale>
<asrwt>0</asrwt>
<pdfrwt beam="2">  1        2 0.31425964E-02 0.89252625E+02</pdfrwt>
<pdfrwt beam="1">  1       -2 0.14999151E-01 0.89252625E+02</pdfrwt>
<totfact> 0.84784015E+04</totfact>
</mgrwt>
</event>
<event>
 5    1  0.3854342E+001  0.9151978E+02  0.7546771E-02  0.1299213E+00
          1   -1    0    0  501    0  0.00000000000E+00  0.00000000000E+00  0.12397946372E+04  0.12397946372E+04  0.00000000000E+00 0. -1.
         -1   -1    0    0    0  501 -0.00000000000E+00 -0.00000000000E+00 -0.16889632123E+01  0.16889632123E+01  0.00000000000E+00 0.  1.
         23    2    1    2    0    0  0.00000000000E+00  0.00000000000E+00  0.12381056739E+04  0.12414836004E+04  0.91519780005E+02 0.  0.
          2    1    3    3  502    0  0.24294774919E+02 -0.26401381473E+01  0.11438630349E+04  0.11441240532E+04  0.00000000000E+00 0. -1.
         -2    1    3    3    0  502 -0.24294774919E+02  0.26401381473E+01  0.94242639027E+02  0.97359547188E+02  0.00000000000E+00 0.  1.
<mgrwt>
<rscale>  0 0.91519780E+02</rscale>
<asrwt>0</asrwt>
<pdfrwt beam="1">  1        1 0.19073691E+00 0.91519780E+02</pdfrwt>
<pdfrwt beam="2">  1       -1 0.25984149E-03 0.91519780E+02</pdfrwt>
<totfact> 0.12403780E+05</totfact>
</mgrwt>
</event>
<event>
 5    1  0.3854342E+001  0.9081317E+02  0.7546771E-02  0.1300894E+00
          1   -1    0    0  501    0  0.00000000000E+00  0.00000000000E+00  0.38354348288E+03  0.38354348288E+03  0.00000000000E+00 0. -1.
         -1   -1    0    0    0  501 -0.00000000000E+00 -0.00000000000E+00 -0.53755522380E+01  0.53755522380E+01  0.00000000000E+00 0.  1.
         23    2    1    2    0    0  0.00000000000E+00  0.00000000000E+00  0.37816793065E+03  0.38891903512E+03  0.90813171463E+02 0.  0.
          2    1    3    3  502    0  0.68575582682E+01  0.41792180799E+02  0.25921264315E+03  0.26264958947E+03  0.00000000000E+00 0. -1.
         -2    1    3    3    0  502 -0.68575582682E+01 -0.41792180799E+02  0.11895528750E+03  0.12626944565E+03  0.00000000000E+00 0.  1.
<mgrwt>
<rscale>  0 0.90813171E+02</rscale>
<asrwt>0</asrwt>
<pdfrwt beam="1">  1        1 0.59006668E-01 0.90813171E+02</pdfrwt>
<pdfrwt beam="2">  1       -1 0.82700834E-03 0.90813171E+02</pdfrwt>
<totfact> 0.13537891E+05</totfact>
</mgrwt>
</event>
<event>
 5    1  0.3854342E+001  0.9163779E+02  0.7546771E-02  0.1298933E+00
          2   -1    0    0  501    0  0.00000000000E+00  0.00000000000E+00  0.69349083348E+03  0.69349083348E+03  0.00000000000E+00 0.  1.
         -2   -1    0    0    0  501 -0.00000000000E+00 -0.00000000000E+00 -0.30272513422E+01  0.30272513422E+01  0.00000000000E+00 0. -1.
         23    2    1    2    0    0  0.00000000000E+00  0.00000000000E+00  0.69046358214E+03  0.69651808482E+03  0.91637788198E+02 0.  0.
          2    1    3    3  502    0 -0.15586174919E+02 -0.25605452297E+02  0.81845185881E+02  0.87161932562E+02  0.00000000000E+00 0. -1.
         -2    1    3    3    0  502  0.15586174919E+02  0.25605452297E+02  0.60861839626E+03  0.60935615226E+03  0.00000000000E+00 0.  1.
<mgrwt>
<rscale>  0 0.91637788E+02</rscale>
<asrwt>0</asrwt>
<pdfrwt beam="1">  1        2 0.10669077E+00 0.91637788E+02</pdfrwt>
<pdfrwt beam="2">  1       -2 0.46573153E-03 0.91637788E+02</pdfrwt>
<totfact> 0.23349536E+05</totfact>
</mgrwt>
</event>
<event>
 5    1  0.3854342E+001  0.9313603E+02  0.7546771E-02  0.1295430E+00
         -2   -1    0    0    0  501 -0.00000000000E+00  0.00000000000E+00  0.23938314555E+01  0.23938314555E+01  0.00000000000E+00 0.  1.
          2   -1    0    0  501    0  0.00000000000E+00 -0.00000000000E+00 -0.90590341895E+03  0.90590341895E+03  0.00000000000E+00 0. -1.
         23    2    1    2    0    0  0.00000000000E+00  0.00000000000E+00 -0.90350958749E+03  0.90829725040E+03  0.93136031695E+02 0.  0.
          2    1    3    3  502    0 -0.23297737439E+02 -0.34738992998E+02 -0.65138037361E+03  0.65272197246E+03  0.00000000000E+00 0. -1.
         -2    1    3    3    0  502  0.23297737439E+02  0.34738992998E+02 -0.25212921388E+03  0.25557527794E+03  0.00000000000E+00 0.  1.
<mgrwt>
<rscale>  0 0.93136032E+02</rscale>
<asrwt>0</asrwt>
<pdfrwt beam="2">  1        2 0.13936991E+00 0.93136032E+02</pdfrwt>
<pdfrwt beam="1">  1       -2 0.36828135E-03 0.93136032E+02</pdfrwt>
<totfact> 0.23459406E+05</totfact>
</mgrwt>
</event>
<event>
 5    1  0.3854342E+001  0.8700206E+02  0.7546771E-02  0.1310278E+00
         -1   -1    0    0    0  501 -0.00000000000E+00  0.00000000000E+00  0.64095128278E+02  0.64095128278E+02  0.00000000000E+00 0.  1.
          1   -1    0    0  501    0  0.00000000000E+00 -0.00000000000E+00 -0.29523920587E+02  0.29523920587E+02  0.00000000000E+00 0. -1.
         23    2    1    2    0    0  0.00000000000E+00  0.00000000000E+00  0.34571207691E+02  0.93619048864E+02  0.87002056924E+02 0.  0.
          2    1    3    3  502    0 -0.13744555473E+02  0.38530944312E+02  0.33202244750E+02  0.52687147684E+02  0.00000000000E+00 0. -1.
         -2    1    3    3    0  502  0.13744555473E+02 -0.38530944312E+02  0.13689629413E+01  0.40931901180E+02  0.00000000000E+00 0.  1.
<mgrwt>
<rscale>  0 0.87002057E+02</rscale>
<asrwt>0</asrwt>
<pdfrwt beam="2">  1        1 0.45421416E-02 0.87002057E+02</pdfrwt>
<pdfrwt beam="1">  1       -1 0.98607889E-02 0.87002057E+02</pdfrwt>
<totfact> 0.98856396E+04</totfact>
</mgrwt>
</event>
<event>
 5    1  0.3854342E+001  0.9277657E+02  0.7546771E-02  0.1296264E+00
         -2   -1    0    0    0  501 -0.00000000000E+00  0.00000000000E+00  0.45078257326E+01  0.45078257326E+01  0.00000000000E+00 0. -1.
          2   -1    0    0  501    0  0.00000000000E+00 -0.00000000000E+00 -0.47736383241E+03  0.47736383241E+03  0.00000000000E+00 0.  1.
         23    2    1    2    0    0  0.00000000000E+00  0.00000000000E+00 -0.47285600667E+03  0.48187165814E+03  0.92776569619E+02 0.  0.
          2    1    3    3  502    0 -0.25847120635E+02 -0.36881657481E+02 -0.29415800282E+03  0.29758572030E+03  0.00000000000E+00 0. -1.
         -2    1    3    3    0  502  0.25847120635E+02  0.36881657481E+02 -0.17869800385E+03  0.18428593783E+03  0.00000000000E+00 0.  1.
<mgrwt>
<rscale>  0 0.92776570E+02</rscale>
<asrwt>0</asrwt>
<pdfrwt beam="2">  1        2 0.73440560E-01 0.92776570E+02</pdfrwt>
<pdfrwt beam="1">  1       -2 0.69351193E-03 0.92776570E+02</pdfrwt>
<totfact> 0.20266803E+05</totfact>
</mgrwt>
</event>
<event>
 5    1  0.3854342E+001  0.9547247E+02  0.7546771E-02  0.1290116E+00
         -1   -1    0    0    0  501 -0.00000000000E+00  0.00000000000E+00  0.10973667340E+03  0.10973667340E+03  0.00000000000E+00 0.  1.
          1   -1    0    0  501    0  0.00000000000E+00 -0.00000000000E+00 -0.20765602420E+02  0.20765602420E+02  0.00000000000E+00 0. -1.
         23    2    1    2    0    0  0.00000000000E+00  0.00000000000E+00  0.88971070978E+02  0.13050227582E+03  0.95472469972E+02 0.  0.
          2    1    3    3  502    0  0.31885684141E+02  0.12167763358E+02 -0.11372608790E+01  0.34147396396E+02  0.00000000000E+00 0. -1.
         -2    1    3    3    0  502 -0.31885684141E+02 -0.12167763358E+02  0.90108331857E+02  0.96354879421E+02  0.00000000000E+00 0.  1.
<mgrwt>
<rscale>  0 0.95472470E+02</rscale>
<asrwt>0</asrwt>
<pdfrwt beam="2">  1        1 0.31947081E-02 0.95472470E+02</pdfrwt>
<pdfrwt beam="1">  1       -1 0.16882565E-01 0.95472470E+02</pdfrwt>
<totfact> 0.70975424E+04</totfact>
</mgrwt>
</event>
<event>
 5    1  0.3854342E+001  0.9182347E+02  0.7546771E-02  0.1298495E+00
          2   -1    0    0  501    0  0.00000000000E+00  0.00000000000E+00  0.15770445864E+04  0.15770445864E+04  0.00000000000E+00 0. -1.
         -2   -1    0    0    0  501 -0.00000000000E+00 -0.00000000000E+00 -0.13366061977E+01  0.13366061977E+01  0.00000000000E+00 0.  1.
         23    2    1    2    0    0  0.00000000000E+00  0.00000000000E+00  0.15757079802E+04  0.15783811926E+04  0.91823473431E+02 0.  0.
          2    1    3    3  502    0 -0.38354052900E+02  0.17832912186E+02  0.48091959403E+03  0.48277603716E+03  0.00000000000E+00 0. -1.
         -2    1    3    3    0  502  0.38354052900E+02 -0.17832912186E+02  0.10947883861E+04  0.10956051554E+04  0.00000000000E+00 0.  1.
<mgrwt>
<rscale>  0 0.91823473E+02</rscale>
<asrwt>0</asrwt>
<pdfrwt beam="1">  1        2 0.24262075E+00 0.91823473E+02</pdfrwt>
<pdfrwt beam="2">  1       -2 0.20563299E-03 0.91823473E+02</pdfrwt>
<totfact> 0.22683454E+05</totfact>
</mgrwt>
</event>
<event>
 5    1  0.3854342E+001  0.9291405E+02  0.7546771E-02  0.1295944E+00
         -2   -1    0    0    0  501 -0.00000000000E+00  0.00000000000E+00  0.76161613476E+02  0.76161613476E+02  0.00000000000E+00 0.  1.
          2   -1    0    0  501    0  0.00000000000E+00 -0.00000000000E+00 -0.28337837180E+02  0.28337837180E+02  0.00000000000E+00 0. -1.
         23    2    1    2    0    0  0.00000000000E+00  0.00000000000E+00  0.47823776295E+02  0.10449945066E+03  0.92914054956E+02 0.  0.
          2    1    3    3  502    0  0.27453530172E+02  0.44421506579E+01 -0.17941464962E+02  0.33095697400E+02  0.00000000000E+00 0. -1.
         -2    1    3    3    0  502 -0.27453530172E+02 -0.44421506579E+01  0.65765241257E+02  0.71403753256E+02  0.00000000000E+00 0.  1.
<mgrwt>
<rscale>  0 0.92914055E+02</rscale>
<asrwt>0</asrwt>
<pdfrwt beam="2">  1        2 0.43596673E-02 0.92914055E+02</pdfrwt>
<pdfrwt beam="1">  1       -2 0.11717171E-01 0.92914055E+02</pdfrwt>
<totfact> 0.82336317E+04</totfact>
</mgrwt>
</event>
<event>
 5    1  0.3854342E+001  0.8980710E+02  0.7546771E-02  0.1303320E+00
          3   -1    0    0  501    0  0.00000000000E+00  0.00000000000E+00  0.21258505091E+03  0.21258505091E+03  0.00000000000E+00 0. -1.
         -3   -1    0    0    0  501 -0.00000000000E+00 -0.00000000000E+00 -0.94848101892E+01  0.94848101892E+01  0.00000000000E+00 0.  1.
         23    2    1    2    0    0  0.00000000000E+00  0.00000000000E+00  0.20310024072E+03  0.22206986110E+03  0.89807101211E+02 0.  0.
          2    1    3    3  502    0  0.32680635223E+02 -0.26001928224E+02  0.14234697922E+03  0.14834684588E+03  0.00000000000E+00 0. -1.
         -2    1    3    3    0  502 -0.32680635223E+02  0.26001928224E+02  0.60753261508E+02  0.73723015224E+02  0.00000000000E+00 0.  1.
<mgrwt>
<rscale>  0 0.89807101E+02</rscale>
<asrwt>0</asrwt>
<pdfrwt beam="1">  1        3 0.32705389E-01 0.89807101E+02</pdfrwt>
<pdfrwt beam="2">  1       -3 0.14592017E-02 0.89807101E+02</pdfrwt>
<totfact> 0.28534410E+04</totfact>
</mgrwt>
</event>
<event>
 5    1  0.3854342E+001  0.8803779E+02  0.7546771E-02  0.1307674E+00
         -1   -1    0    0    0  501 -0.00000000000E+00  0.00000000000E+00  0.38348303797E+01  0.38348303797E+01  0.00000000000E+00 0.  1.
          1   -1    0    0  501    0  0.00000000000E+00 -0.00000000000E+00 -0.50527999359E+03  0.50527999359E+03  0.00000000000E+00 0. -1.
         23    2    1    2    0    0  0.00000000000E+00  0.00000000000E+00 -0.50144516321E+03  0.50911482397E+03  0.88037788924E+02 0.  0.
          2    1    3    3  502    0  0.28659485137E+02 -0.21835242626E+02 -0.39696501217E+03  0.39859674459E+03  0.00000000000E+00 0. -1.
         -2    1    3    3    0  502 -0.28659485137E+02  0.21835242626E+02 -0.10448015104E+03  0.11051807938E+03  0.00000000000E+00 0.  1.
<mgrwt>
<rscale>  0 0.88037789E+02</rscale>
<asrwt>0</asrwt>
<pdfrwt beam="2">  1        1 0.77735309E-01 0.88037789E+02</pdfrwt>
<pdfrwt beam="1">  1       -1 0.58997447E-03 0.88037789E+02</pdfrwt>
<totfact> 0.15297075E+05</totfact>
</mgrwt>
</event>
<event>
 4    1  0.3854342E+001  0.1288399E+03  0.7546771E-02  0.1229187E+00
          2   -1    0    0  501    0  0.00000000000E+00  0.00000000000E+00  0.57317977238E+02  0.57317977238E+02  0.00000000000E+00 0. -1.
         -2   -1    0    0    0  501 -0.00000000000E+00 -0.00000000000E+00 -0.72401944322E+02  0.72401944322E+02  0.00000000000E+00 0.  1.
          2    1    1    2  502    0 -0.56639393451E+02 -0.27896187092E+02  0.53405172905E+01  0.63361970216E+02  0.00000000000E+00 0. -1.
         -2    1    1    2    0  502  0.56639393451E+02  0.27896187092E+02 -0.20424484374E+02  0.66357951345E+02  0.00000000000E+00 0.  1.
<mgrwt>
<rscale>  0 0.12883995E+03</rscale>
<asrwt>0</asrwt>
<pdfrwt beam="1">  1        2 0.88181504E-02 0.12883995E+03</pdfrwt>
<pdfrwt beam="2">  1       -2 0.11138761E-01 0.12883995E+03</pdfrwt>
<totfact> 0.38018899E+04</totfact>
</mgrwt>
</event>
<event>
 5    1  0.3854342E+001  0.9045927E+02  0.7546771E-02  0.1301743E+00
          3   -1    0    0  501    0  0.00000000000E+00  0.00000000000E+00  0.52218170144E+01  0.52218170144E+01  0.00000000000E+00 0. -1.
         -3   -1    0    0    0  501 -0.00000000000E+00 -0.00000000000E+00 -0.39176396166E+03  0.39176396166E+03  0.00000000000E+00 0.  1.
         23    2    1    2    0    0  0.00000000000E+00  0.00000000000E+00 -0.38654214465E+03  0.39698577868E+03  0.90459266427E+02 0.  0.
          2    1    3    3  502    0  0.21784936599E+02 -0.39617416628E+02 -0.18772591081E+03  0.19309360619E+03  0.00000000000E+00 0. -1.
         -2    1    3    3    0  502 -0.21784936599E+02  0.39617416628E+02 -0.19881623384E+03  0.20389217248E+03  0.00000000000E+00 0.  1.
<mgrwt>
<rscale>  0 0.90459266E+02</rscale>
<asrwt>0</asrwt>
<pdfrwt beam="1">  1        3 0.80335652E-03 0.90459266E+02</pdfrwt>
<pdfrwt beam="2">  1       -3 0.60271374E-01 0.90459266E+02</pdfrwt>
<totfact> 0.21133068E+04</totfact>
</mgrwt>
</event>
<event>
 5    1  0.3854342E+001  0.8384696E+02  0.7546771E-02  0.1318476E+00
          1   -1    0    0  501    0  0.00000000000E+00  0.00000000000E+00  0.54861725280E+01  0.54861725280E+01  0.00000000000E+00 0. -1.
         -1   -1    0    0    0  501 -0.00000000000E+00 -0.00000000000E+00 -0.32036508357E+03  0.32036508357E+03  0.00000000000E+00 0.  1.
         23    2    1    2    0    0  0.00000000000E+00  0.00000000000E+00 -0.31487891104E+03  0.32585125609E+03  0.83846958690E+02 0.  0.
          2    1    3    3  502    0 -0.37962881076E+02  0.14814132584E+02 -0.11917619917E+03  0.12595080513E+03  0.00000000000E+00 0. -1.
         -2    1    3    3    0  502  0.37962881076E+02 -0.14814132584E+02 -0.19570271187E+03  0.19990045097E+03  0.00000000000E+00 0.  1.
<mgrwt>
<rscale>  0 0.83846959E+02</rscale>
<asrwt>0</asrwt>
<pdfrwt beam="1">  1        1 0.84402622E-03 0.83846959E+02</pdfrwt>
<pdfrwt beam="2">  1       -1 0.49286955E-01 0.83846959E+02</pdfrwt>
<totfact> 0.73406723E+04</totfact>
</mgrwt>
</event>
<event>
 5    1  0.3854342E+001  0.9427969E+02  0.7546771E-02  0.1292807E+00
          2   -1    0    0  501    0  0.00000000000E+00  0.00000000000E+00  0.12138628170E+03  0.12138628170E+03  0.00000000000E+00 0. -1.
         -2   -1    0    0    0  501 -0.00000000000E+00 -0.00000000000E+00 -0.18306558226E+02  0.18306558226E+02  0.00000000000E+00 0.  1.
         23    2    1    2    0    0  0.00000000000E+00  0.00000000000E+00  0.10307972347E+03  0.13969283992E+03  0.94279690998E+02 0.  0.
          2    1    3    3  502    0 -0.42770175458E+02  0.18405691042E+02  0.62438829831E+02  0.77888797924E+02  0.00000000000E+00 0. -1.
         -2    1    3    3    0  502  0.42770175458E+02 -0.18405691042E+02  0.40640893639E+02  0.61804041998E+02  0.00000000000E+00 0.  1.
<mgrwt>
<rscale>  0 0.94279691E+02</rscale>
<asrwt>0</asrwt>
<pdfrwt beam="1">  1        2 0.18674812E-01 0.94279691E+02</pdfrwt>
<pdfrwt beam="2">  1       -2 0.28163937E-02 0.94279691E+02</pdfrwt>
<totfact> 0.11891763E+05</totfact>
</mgrwt>
</event>
<event>
 5    1  0.3854342E+001  0.9157655E+02  0.7546771E-02  0.1299078E+00
          2   -1    0    0  501    0  0.00000000000E+00  0.00000000000E+00  0.12878059483E+04  0.12878059483E+04  0.00000000000E+00 0. -1.
         -2   -1    0    0    0  501 -0.00000000000E+00 -0.00000000000E+00 -0.16280141331E+01  0.16280141331E+01  0.00000000000E+00 0.  1.
         23    2    1    2    0    0  0.00000000000E+00  0.00000000000E+00  0.12861779342E+04  0.12894339625E+04  0.91576553432E+02 0.  0.
          2    1    3    3  502    0  0.32797340269E+02 -0.62188496567E+01  0.10843754965E+04  0.10848891911E+04  0.00000000000E+00 0. -1.
         -2    1    3    3    0  502 -0.32797340269E+02  0.62188496567E+01  0.20180243774E+03  0.20454477138E+03  0.00000000000E+00 0.  1.
<mgrwt>
<rscale>  0 0.91576553E+02</rscale>
<asrwt>0</asrwt>
<pdfrwt beam="1">  1        2 0.19812318E+00 0.91576553E+02</pdfrwt>
<pdfrwt beam="2">  1       -2 0.25046474E-03 0.91576553E+02</pdfrwt>
<totfact> 0.24331330E+05</totfact>
</mgrwt>
</event>
<event>
 5    1  0.3854342E+001  0.9253497E+02  0.7546771E-02  0.1296826E+00
         -2   -1    0    0    0  501 -0.00000000000E+00  0.00000000000E+00  0.58745715767E+01  0.58745715767E+01  0.00000000000E+00 0.  1.
          2   -1    0    0  501    0  0.00000000000E+00 -0.00000000000E+00 -0.36439768680E+03  0.36439768680E+03  0.00000000000E+00 0. -1.
         23    2    1    2    0    0  0.00000000000E+00  0.00000000000E+00 -0.35852311523E+03  0.37027225838E+03  0.92534972708E+02 0.  0.
          2    1    3    3  502    0  0.14256343208E+02 -0.35743924362E+02 -0.28204527947E+03  0.28465841129E+03  0.00000000000E+00 0.  1.
         -2    1    3    3    0  502 -0.14256343208E+02  0.35743924362E+02 -0.76477835758E+02  0.85613847085E+02  0.00000000000E+00 0. -1.
<mgrwt>
<rscale>  0 0.92534973E+02</rscale>
<asrwt>0</asrwt>
<pdfrwt beam="2">  1        2 0.56061186E-01 0.92534973E+02</pdfrwt>
<pdfrwt beam="1">  1       -2 0.90378019E-03 0.92534973E+02</pdfrwt>
<totfact> 0.18556344E+05</totfact>
</mgrwt>
</event>
<event>
 5    1  0.3854342E+001  0.9252951E+02  0.7546771E-02  0.1296839E+00
          3   -1    0    0  501    0  0.00000000000E+00  0.00000000000E+00  0.34705529189E+02  0.34705529189E+02  0.00000000000E+00 0. -1.
         -3   -1    0    0    0  501 -0.00000000000E+00 -0.00000000000E+00 -0.61673969070E+02  0.61673969070E+02  0.00000000000E+00 0.  1.
         23    2    1    2    0    0  0.00000000000E+00  0.00000000000E+00 -0.26968439881E+02  0.96379498259E+02  0.92529513859E+02 0.  0.
          2    1    3    3  502    0  0.31957095666E+02  0.58145492116E+00  0.21356502074E+02  0.38440788676E+02  0.00000000000E+00 0. -1.
         -2    1    3    3    0  502 -0.31957095666E+02 -0.58145492116E+00 -0.48324941955E+02  0.57938709583E+02  0.00000000000E+00 0.  1.
<mgrwt>
<rscale>  0 0.92529514E+02</rscale>
<asrwt>0</asrwt>
<pdfrwt beam="1">  1        3 0.53393122E-02 0.92529514E+02</pdfrwt>
<pdfrwt beam="2">  1       -3 0.94883029E-02 0.92529514E+02</pdfrwt>
<totfact> 0.33566177E+04</totfact>
</mgrwt>
</event>
<event>
 5    1  0.3854342E+001  0.9277898E+02  0.7546771E-02  0.1296258E+00
          3   -1    0    0  501    0  0.00000000000E+00  0.00000000000E+00  0.61478112764E+01  0.61478112764E+01  0.00000000000E+00 0. -1.
         -3   -1    0    0    0  501 -0.00000000000E+00 -0.00000000000E+00 -0.35004077278E+03  0.35004077278E+03  0.00000000000E+00 0.  1.
         23    2    1    2    0    0  0.00000000000E+00  0.00000000000E+00 -0.34389296151E+03  0.35618858406E+03  0.92778976285E+02 0.  0.
          2    1    3    3  502    0  0.20578275333E+02  0.40096055826E+02 -0.21414621571E+03  0.21883729301E+03  0.00000000000E+00 0. -1.
         -2    1    3    3    0  502 -0.20578275333E+02 -0.40096055826E+02 -0.12974674579E+03  0.13735129105E+03  0.00000000000E+00 0.  1.
<mgrwt>
<rscale>  0 0.92778976E+02</rscale>
<asrwt>0</asrwt>
<pdfrwt beam="1">  1        3 0.94581700E-03 0.92778976E+02</pdfrwt>
<pdfrwt beam="2">  1       -3 0.53852433E-01 0.92778976E+02</pdfrwt>
<totfact> 0.20991843E+04</totfact>
</mgrwt>
</event>
<event>
 5    1  0.3854342E+001  0.9062543E+02  0.7546771E-02  0.1301344E+00
          1   -1    0    0  501    0  0.00000000000E+00  0.00000000000E+00  0.18820969161E+03  0.18820969161E+03  0.00000000000E+00 0. -1.
         -1   -1    0    0    0  501 -0.00000000000E+00 -0.00000000000E+00 -0.10909332897E+02  0.10909332897E+02  0.00000000000E+00 0.  1.
         23    2    1    2    0    0  0.00000000000E+00  0.00000000000E+00  0.17730035871E+03  0.19911902450E+03  0.90625430872E+02 0.  0.
          2    1    3    3  502    0  0.10916278060E+02 -0.26587880315E+02  0.16561877510E+03  0.16809419732E+03  0.00000000000E+00 0. -1.
         -2    1    3    3    0  502 -0.10916278060E+02  0.26587880315E+02  0.11681583611E+02  0.31024827187E+02  0.00000000000E+00 0.  1.
<mgrwt>
<rscale>  0 0.90625431E+02</rscale>
<asrwt>0</asrwt>
<pdfrwt beam="1">  1        1 0.28955335E-01 0.90625431E+02</pdfrwt>
<pdfrwt beam="2">  1       -1 0.16783590E-02 0.90625431E+02</pdfrwt>
<totfact> 0.11894371E+05</totfact>
</mgrwt>
</event>
<event>
 5    1  0.3854342E+001  0.9483215E+02  0.7546771E-02  0.1291555E+00
          2   -1    0    0  501    0  0.00000000000E+00  0.00000000000E+00  0.95969376489E+02  0.95969376489E+02  0.00000000000E+00 0. -1.
         -2   -1    0    0    0  501 -0.00000000000E+00 -0.00000000000E+00 -0.23427101802E+02  0.23427101802E+02  0.00000000000E+00 0.  1.
         23    2    1    2    0    0  0.00000000000E+00  0.00000000000E+00  0.72542274687E+02  0.11939647829E+03  0.94832153890E+02 0.  0.
          2    1    3    3  502    0  0.22553954184E+02  0.10794961011E+02  0.86994126392E+02  0.90516241964E+02  0.00000000000E+00 0. -1.
         -2    1    3    3    0  502 -0.22553954184E+02 -0.10794961011E+02 -0.14451851705E+02  0.28880236327E+02  0.00000000000E+00 0.  1.
<mgrwt>
<rscale>  0 0.94832154E+02</rscale>
<asrwt>0</asrwt>
<pdfrwt beam="1">  1        2 0.14764519E-01 0.94832154E+02</pdfrwt>
<pdfrwt beam="2">  1       -2 0.36041696E-02 0.94832154E+02</pdfrwt>
<totfact> 0.10866718E+05</totfact>
</mgrwt>
</event>
<event>
 5    1  0.3854342E+001  0.9367360E+02  0.7546771E-02  0.1294192E+00
          1   -1    0    0  501    0  0.00000000000E+00  0.00000000000E+00  0.30726032572E+04  0.30726032572E+04  0.00000000000E+00 0. -1.
         -1   -1    0    0    0  501 -0.00000000000E+00 -0.00000000000E+00 -0.71395026812E+00  0.71395026812E+00  0.00000000000E+00 0.  1.
         23    2    1    2    0    0  0.00000000000E+00  0.00000000000E+00  0.30718893070E+04  0.30733172075E+04  0.93673601817E+02 0.  0.
          2    1    3    3  502    0  0.10445543863E+02 -0.37087256504E+02  0.24096149416E+04  0.24099229741E+04  0.00000000000E+00 0. -1.
         -2    1    3    3    0  502 -0.10445543863E+02  0.37087256504E+02  0.66227436535E+03  0.66339423346E+03  0.00000000000E+00 0.  1.
<mgrwt>
<rscale>  0 0.93673602E+02</rscale>
<asrwt>0</asrwt>
<pdfrwt beam="1">  1        1 0.47269760E+00 0.93673602E+02</pdfrwt>
<pdfrwt beam="2">  1       -1 0.10984096E-03 0.93673602E+02</pdfrwt>
<totfact> 0.26965200E+04</totfact>
</mgrwt>
</event>
<event>
 5    1  0.3854342E+001  0.9307153E+02  0.7546771E-02  0.1295580E+00
         -1   -1    0    0    0  501 -0.00000000000E+00  0.00000000000E+00  0.59882676993E+01  0.59882676993E+01  0.00000000000E+00 0.  1.
          1   -1    0    0  501    0  0.00000000000E+00 -0.00000000000E+00 -0.36163668437E+03  0.36163668437E+03  0.00000000000E+00 0. -1.
         23    2    1    2    0    0  0.00000000000E+00  0.00000000000E+00 -0.35564841667E+03  0.36762495207E+03  0.93071526815E+02 0.  0.
          2    1    3    3  502    0 -0.24247705538E+02  0.63975056676E+01 -0.33266393703E+03  0.33360781511E+03  0.00000000000E+00 0. -1.
         -2    1    3    3    0  502  0.24247705538E+02 -0.63975056676E+01 -0.22984479646E+02  0.34017136964E+02  0.00000000000E+00 0.  1.
<mgrwt>
<rscale>  0 0.93071527E+02</rscale>
<asrwt>0</asrwt>
<pdfrwt beam="2">  1        1 0.55636418E-01 0.93071527E+02</pdfrwt>
<pdfrwt beam="1">  1       -1 0.92127187E-03 0.93071527E+02</pdfrwt>
<totfact> 0.12553190E+05</totfact>
</mgrwt>
</event>
<event>
 5    1  0.3854342E+001  0.9066899E+02  0.7546771E-02  0.1301240E+00
          4   -1    0    0  501    0  0.00000000000E+00  0.00000000000E+00  0.16803237719E+02  0.16803237719E+02  0.00000000000E+00 0. -1.
         -4   -1    0    0    0  501 -0.00000000000E+00 -0.00000000000E+00 -0.12231074767E+03  0.12231074767E+03  0.00000000000E+00 0.  1.
         23    2    1    2    0    0  0.00000000000E+00  0.00000000000E+00 -0.10550750995E+03  0.13911398539E+03  0.90668992907E+02 0.  0.
          2    1    3    3  502    0  0.11442546550E+02 -0.31619960819E+02 -0.61032107220E+01  0.34176058504E+02  0.00000000000E+00 0. -1.
         -2    1    3    3    0  502 -0.11442546550E+02  0.31619960819E+02 -0.99404299230E+02  0.10493792689E+03  0.00000000000E+00 0.  1.
<mgrwt>
<rscale>  0 0.90668993E+02</rscale>
<asrwt>0</asrwt>
<pdfrwt beam="1">  1        4 0.25851136E-02 0.90668993E+02</pdfrwt>
<pdfrwt beam="2">  1       -4 0.18817038E-01 0.90668993E+02</pdfrwt>
<totfact> 0.24598590E+04</totfact>
</mgrwt>
</event>
<event>
 5    1  0.3854342E+001  0.9117984E+02  0.7546771E-02  0.1300019E+00
         -1   -1    0    0    0  501 -0.00000000000E+00  0.00000000000E+00  0.22120915487E+03  0.22120915487E+03  0.00000000000E+00 0.  1.
          1   -1    0    0  501    0  0.00000000000E+00 -0.00000000000E+00 -0.93958171856E+01  0.93958171856E+01  0.00000000000E+00 0. -1.
         23    2    1    2    0    0  0.00000000000E+00  0.00000000000E+00  0.21181333768E+03  0.23060497206E+03  0.91179839415E+02 0.  0.
          2    1    3    3  502    0  0.12865148592E+02 -0.20248840444E+02  0.78591084605E+01  0.25244666237E+02  0.00000000000E+00 0. -1.
         -2    1    3    3    0  502 -0.12865148592E+02  0.20248840444E+02  0.20395422922E+03  0.20536030582E+03  0.00000000000E+00 0.  1.
<mgrwt>
<rscale>  0 0.91179839E+02</rscale>
<asrwt>0</asrwt>
<pdfrwt beam="2">  1        1 0.14455105E-02 0.91179839E+02</pdfrwt>
<pdfrwt beam="1">  1       -1 0.34032174E-01 0.91179839E+02</pdfrwt>
<totfact> 0.67371731E+04</totfact>
</mgrwt>
</event>
<event>
 5    1  0.3854342E+001  0.9652947E+02  0.7546771E-02  0.1287768E+00
          2   -1    0    0  501    0  0.00000000000E+00  0.00000000000E+00  0.16918206699E+03  0.16918206699E+03  0.00000000000E+00 0. -1.
         -2   -1    0    0    0  501 -0.00000000000E+00 -0.00000000000E+00 -0.13769098880E+02  0.13769098880E+02  0.00000000000E+00 0.  1.
         23    2    1    2    0    0  0.00000000000E+00  0.00000000000E+00  0.15541296811E+03  0.18295116587E+03  0.96529469267E+02 0.  0.
          2    1    3    3  502    0 -0.25646690259E+02  0.67801146489E+01  0.15412590424E+03  0.15639218981E+03  0.00000000000E+00 0. -1.
         -2    1    3    3    0  502  0.25646690259E+02 -0.67801146489E+01  0.12870638684E+01  0.26558976059E+02  0.00000000000E+00 0.  1.
<mgrwt>
<rscale>  0 0.96529469E+02</rscale>
<asrwt>0</asrwt>
<pdfrwt beam="1">  1        2 0.26028009E-01 0.96529469E+02</pdfrwt>
<pdfrwt beam="2">  1       -2 0.21183230E-02 0.96529469E+02</pdfrwt>
<totfact> 0.12481456E+05</totfact>
</mgrwt>
</event>
<event>
 5    1  0.3854342E+001  0.9606194E+02  0.7546771E-02  0.1288802E+00
         -1   -1    0    0    0  501 -0.00000000000E+00  0.00000000000E+00  0.92564987819E+02  0.92564987819E+02  0.00000000000E+00 0.  1.
          1   -1    0    0  501    0  0.00000000000E+00 -0.00000000000E+00 -0.24922751598E+02  0.24922751598E+02  0.00000000000E+00 0. -1.
         23    2    1    2    0    0  0.00000000000E+00  0.00000000000E+00  0.67642236221E+02  0.11748773942E+03  0.96061942476E+02 0.  0.
          2    1    3    3  502    0  0.37682365473E+02 -0.25926849804E+02  0.15895652624E+02  0.48423485838E+02  0.00000000000E+00 0. -1.
         -2    1    3    3    0  502 -0.37682365473E+02  0.25926849804E+02  0.51746583596E+02  0.69064253578E+02  0.00000000000E+00 0.  1.
<mgrwt>
<rscale>  0 0.96061942E+02</rscale>
<asrwt>0</asrwt>
<pdfrwt beam="2">  1        1 0.38342695E-02 0.96061942E+02</pdfrwt>
<pdfrwt beam="1">  1       -1 0.14240767E-01 0.96061942E+02</pdfrwt>
<totfact> 0.72152123E+04</totfact>
</mgrwt>
</event>
<event>
 5    1  0.3854342E+001  0.8852788E+02  0.7546771E-02  0.1306456E+00
         -1   -1    0    0    0  501 -0.00000000000E+00  0.00000000000E+00  0.88070425272E+01  0.88070425272E+01  0.00000000000E+00 0.  1.
          1   -1    0    0  501    0  0.00000000000E+00 -0.00000000000E+00 -0.22246925274E+03  0.22246925274E+03  0.00000000000E+00 0. -1.
         23    2    1    2    0    0  0.00000000000E+00  0.00000000000E+00 -0.21366221022E+03  0.23127629527E+03  0.88527875156E+02 0.  0.
          2    1    3    3  502    0 -0.31422165890E+02  0.25652988268E+02 -0.15311442468E+03  0.15839651310E+03  0.00000000000E+00 0. -1.
         -2    1    3    3    0  502  0.31422165890E+02 -0.25652988268E+02 -0.60547785535E+02  0.72879782172E+02  0.00000000000E+00 0.  1.
<mgrwt>
<rscale>  0 0.88527875E+02</rscale>
<asrwt>0</asrwt>
<pdfrwt beam="2">  1        1 0.34226040E-01 0.88527875E+02</pdfrwt>
<pdfrwt beam="1">  1       -1 0.13549296E-02 0.88527875E+02</pdfrwt>
<totfact> 0.13079033E+05</totfact>
</mgrwt>
</event>
<event>
 5    1  0.3854342E+001  0.9710930E+02  0.7546771E-02  0.1286495E+00
         -3   -1    0    0    0  501 -0.00000000000E+00  0.00000000000E+00  0.28499293618E+02  0.28499293618E+02  0.00000000000E+00 0. -1.
          3   -1    0    0  501    0  0.00000000000E+00 -0.00000000000E+00 -0.82723236556E+02  0.82723236556E+02  0.00000000000E+00 0.  1.
         23    2    1    2    0    0  0.00000000000E+00  0.00000000000E+00 -0.54223942937E+02  0.11122253017E+03  0.97109295285E+02 0.  0.
          2    1    3    3  502    0  0.87957966819E+01 -0.18650970528E+02  0.23234902611E+02  0.31065824313E+02  0.00000000000E+00 0. -1.
         -2    1    3    3    0  502 -0.87957966819E+01  0.18650970528E+02 -0.77458845548E+02  0.80156705861E+02  0.00000000000E+00 0.  1.
<mgrwt>
<rscale>  0 0.97109295E+02</rscale>
<asrwt>0</asrwt>
<pdfrwt beam="2">  1        3 0.12726651E-01 0.97109295E+02</pdfrwt>
<pdfrwt beam="1">  1       -3 0.43845068E-02 0.97109295E+02</pdfrwt>
<totfact> 0.28501745E+04</totfact>
</mgrwt>
</event>
<event>
 5    1  0.3854342E+001  0.9291025E+02  0.7546771E-02  0.1295953E+00
         -2   -1    0    0    0  501 -0.00000000000E+00  0.00000000000E+00  0.24210176631E+02  0.24210176631E+02  0.00000000000E+00 0.  1.
          2   -1    0    0  501    0  0.00000000000E+00 -0.00000000000E+00 -0.89139317273E+02  0.89139317273E+02  0.00000000000E+00 0. -1.
         23    2    1    2    0    0  0.00000000000E+00  0.00000000000E+00 -0.64929140642E+02  0.11334949390E+03  0.92910249509E+02 0.  0.
          2    1    3    3  502    0  0.73145767931E+01  0.30484764301E+02  0.93590826587E+01  0.32717217430E+02  0.00000000000E+00 0.  1.
         -2    1    3    3    0  502 -0.73145767931E+01 -0.30484764301E+02 -0.74288223300E+02  0.80632276473E+02  0.00000000000E+00 0. -1.
<mgrwt>
<rscale>  0 0.92910250E+02</rscale>
<asrwt>0</asrwt>
<pdfrwt beam="2">  1        2 0.13713742E-01 0.92910250E+02</pdfrwt>
<pdfrwt beam="1">  1       -2 0.37246424E-02 0.92910250E+02</pdfrwt>
<totfact> 0.11249178E+05</totfact>
</mgrwt>
</event>
<event>
 5    1  0.3854342E+001  0.9277185E+02  0.7546771E-02  0.1296275E+00
          2   -1    0    0  501    0  0.00000000000E+00  0.00000000000E+00  0.25488614002E+04  0.25488614002E+04  0.00000000000E+00 0. -1.
         -2   -1    0    0    0  501 -0.00000000000E+00 -0.00000000000E+00 -0.84416277119E+00  0.84416277119E+00  0.00000000000E+00 0.  1.
         23    2    1    2    0    0  0.00000000000E+00  0.00000000000E+00  0.25480172375E+04  0.25497055630E+04  0.92771847087E+02 0.  0.
          2    1    3    3  502    0 -0.36601435380E+02  0.16763498178E+02  0.19073100062E+04  0.19077348190E+04  0.00000000000E+00 0. -1.
         -2    1    3    3    0  502  0.36601435380E+02 -0.16763498178E+02  0.64070723128E+03  0.64197074400E+03  0.00000000000E+00 0.  1.
<mgrwt>
<rscale>  0 0.92771847E+02</rscale>
<asrwt>0</asrwt>
<pdfrwt beam="1">  1        2 0.39212636E+00 0.92771847E+02</pdfrwt>
<pdfrwt beam="2">  1       -2 0.12987324E-03 0.92771847E+02</pdfrwt>
<totfact> 0.13731983E+05</totfact>
</mgrwt>
</event>
<event>
 5    1  0.3854342E+001  0.9705324E+02  0.7546771E-02  0.1286618E+00
          2   -1    0    0  501    0  0.00000000000E+00  0.00000000000E+00  0.31911913175E+03  0.31911913175E+03  0.00000000000E+00 0. -1.
         -2   -1    0    0    0  501 -0.00000000000E+00 -0.00000000000E+00 -0.73791647682E+01  0.73791647682E+01  0.00000000000E+00 0.  1.
         23    2    1    2    0    0  0.00000000000E+00  0.00000000000E+00  0.31173996698E+03  0.32649829652E+03  0.97053235987E+02 0.  0.
          2    1    3    3  502    0  0.44591461823E+02  0.14683883344E+02  0.19718397321E+03  0.20269566889E+03  0.00000000000E+00 0. -1.
         -2    1    3    3    0  502 -0.44591461823E+02 -0.14683883344E+02  0.11455599377E+03  0.12380262763E+03  0.00000000000E+00 0.  1.
<mgrwt>
<rscale>  0 0.97053236E+02</rscale>
<asrwt>0</asrwt>
<pdfrwt beam="1">  1        2 0.49095240E-01 0.97053236E+02</pdfrwt>
<pdfrwt beam="2">  1       -2 0.11352564E-02 0.97053236E+02</pdfrwt>
<totfact> 0.15554086E+05</totfact>
</mgrwt>
</event>
<event>
 5    1  0.3854342E+001  0.9166390E+02  0.7546771E-02  0.1298872E+00
          1   -1    0    0  501    0  0.00000000000E+00  0.00000000000E+00  0.21261311911E+04  0.21261311911E+04  0.00000000000E+00 0. -1.
         -1   -1    0    0    0  501 -0.00000000000E+00 -0.00000000000E+00 -0.98797657227E+00  0.98797657227E+00  0.00000000000E+00 0.  1.
         23    2    1    2    0    0  0.00000000000E+00  0.00000000000E+00  0.21251432146E+04  0.21271191677E+04  0.91663903613E+02 0.  0.
          2    1    3    3  502    0  0.91310123441E+01 -0.33683830861E+02  0.17519750628E+04  0.17523226292E+04  0.00000000000E+00 0. -1.
         -2    1    3    3    0  502 -0.91310123441E+01  0.33683830861E+02  0.37316815172E+03  0.37479653855E+03  0.00000000000E+00 0.  1.
<mgrwt>
<rscale>  0 0.91663904E+02</rscale>
<asrwt>0</asrwt>
<pdfrwt beam="1">  1        1 0.32709344E+00 0.91663904E+02</pdfrwt>
<pdfrwt beam="2">  1       -1 0.15199810E-03 0.91663904E+02</pdfrwt>
<totfact> 0.71287132E+04</totfact>
</mgrwt>
</event>
<event>
 5    1  0.3854342E+001  0.1262433E+03  0.7546771E-02  0.1233139E+00
         -1   -1    0    0    0  501 -0.00000000000E+00  0.00000000000E+00  0.37679721572E+02  0.37679721572E+02  0.00000000000E+00 0.  1.
          1   -1    0    0  501    0  0.00000000000E+00 -0.00000000000E+00 -0.10574238905E+03  0.10574238905E+03  0.00000000000E+00 0. -1.
         23    2    1    2    0    0  0.00000000000E+00  0.00000000000E+00 -0.68062667476E+02  0.14342211062E+03  0.12624331709E+03 0.  0.
          2    1    3    3  502    0 -0.15482541725E+02 -0.55529758470E+02 -0.48211075726E+01  0.57848995257E+02  0.00000000000E+00 0. -1.
         -2    1    3    3    0  502  0.15482541725E+02  0.55529758470E+02 -0.63241559903E+02  0.85573115363E+02  0.00000000000E+00 0.  1.
<mgrwt>
<rscale>  0 0.12624332E+03</rscale>
<asrwt>0</asrwt>
<pdfrwt beam="2">  1        1 0.16268060E-01 0.12624332E+03</pdfrwt>
<pdfrwt beam="1">  1       -1 0.57968803E-02 0.12624332E+03</pdfrwt>
<totfact> 0.42619229E+04</totfact>
</mgrwt>
</event>
<event>
 5    1  0.3854342E+001  0.9710205E+02  0.7546771E-02  0.1286511E+00
          1   -1    0    0  501    0  0.00000000000E+00  0.00000000000E+00  0.15987318072E+04  0.15987318072E+04  0.00000000000E+00 0. -1.
         -1   -1    0    0    0  501 -0.00000000000E+00 -0.00000000000E+00 -0.14744200201E+01  0.14744200201E+01  0.00000000000E+00 0.  1.
         23    2    1    2    0    0  0.00000000000E+00  0.00000000000E+00  0.15972573872E+04  0.16002062272E+04  0.97102053187E+02 0.  0.
          2    1    3    3  502    0 -0.73879192767E+01 -0.47957584944E+02  0.82566171429E+03  0.82708631820E+03  0.00000000000E+00 0. -1.
         -2    1    3    3    0  502  0.73879192767E+01  0.47957584944E+02  0.77159567290E+03  0.77311990903E+03  0.00000000000E+00 0.  1.
<mgrwt>
<rscale>  0 0.97102053E+02</rscale>
<asrwt>0</asrwt>
<pdfrwt beam="1">  1        1 0.24595735E+00 0.97102053E+02</pdfrwt>
<pdfrwt beam="2">  1       -1 0.22683513E-03 0.97102053E+02</pdfrwt>
<totfact> 0.88390370E+04</totfact>
</mgrwt>
</event>
<event>
 5    1  0.3854342E+001  0.8957546E+02  0.7546771E-02  0.1303883E+00
         -4   -1    0    0    0  501 -0.00000000000E+00  0.00000000000E+00  0.23032819192E+02  0.23032819192E+02  0.00000000000E+00 0.  1.
          4   -1    0    0  501    0  0.00000000000E+00 -0.00000000000E+00 -0.87090534808E+02  0.87090534808E+02  0.00000000000E+00 0. -1.
         23    2    1    2    0    0  0.00000000000E+00  0.00000000000E+00 -0.64057715616E+02  0.11012335400E+03  0.89575455155E+02 0.  0.
          2    1    3    3  502    0 -0.13683885801E+02 -0.14654447506E+02 -0.81265035167E+02  0.83701896651E+02  0.00000000000E+00 0. -1.
         -2    1    3    3    0  502  0.13683885801E+02  0.14654447506E+02  0.17207319551E+02  0.26421457349E+02  0.00000000000E+00 0.  1.
<mgrwt>
<rscale>  0 0.89575455E+02</rscale>
<asrwt>0</asrwt>
<pdfrwt beam="2">  1        4 0.13398544E-01 0.89575455E+02</pdfrwt>
<pdfrwt beam="1">  1       -4 0.35435107E-02 0.89575455E+02</pdfrwt>
<totfact> 0.27110761E+04</totfact>
</mgrwt>
</event>
<event>
 5    1  0.3854342E+001  0.8550788E+02  0.7546771E-02  0.1314110E+00
         -2   -1    0    0    0  501 -0.00000000000E+00  0.00000000000E+00  0.76907894711E+03  0.76907894711E+03  0.00000000000E+00 0.  1.
          2   -1    0    0  501    0  0.00000000000E+00 -0.00000000000E+00 -0.23767385617E+01  0.23767385617E+01  0.00000000000E+00 0. -1.
         23    2    1    2    0    0  0.00000000000E+00  0.00000000000E+00  0.76670220855E+03  0.77145568567E+03  0.85507884797E+02 0.  0.
          2    1    3    3  502    0  0.40244486966E+02 -0.28662909932E+01  0.25573936279E+03  0.25890240639E+03  0.00000000000E+00 0. -1.
         -2    1    3    3    0  502 -0.40244486966E+02  0.28662909932E+01  0.51096284576E+03  0.51255327928E+03  0.00000000000E+00 0.  1.
<mgrwt>
<rscale>  0 0.85507885E+02</rscale>
<asrwt>0</asrwt>
<pdfrwt beam="2">  1        2 0.36565270E-03 0.85507885E+02</pdfrwt>
<pdfrwt beam="1">  1       -2 0.11831964E+00 0.85507885E+02</pdfrwt>
<totfact> 0.29305539E+04</totfact>
</mgrwt>
</event>
<event>
 5    1  0.3854342E+001  0.9104636E+02  0.7546771E-02  0.1300337E+00
          1   -1    0    0  501    0  0.00000000000E+00  0.00000000000E+00  0.23556450974E+02  0.23556450974E+02  0.00000000000E+00 0.  1.
         -1   -1    0    0    0  501 -0.00000000000E+00 -0.00000000000E+00 -0.87974193142E+02  0.87974193142E+02  0.00000000000E+00 0. -1.
         23    2    1    2    0    0  0.00000000000E+00  0.00000000000E+00 -0.64417742168E+02  0.11153064412E+03  0.91046356713E+02 0.  0.
          2    1    3    3  502    0 -0.27624938084E+02  0.31944028504E+02 -0.53026508537E+02  0.67789149344E+02  0.00000000000E+00 0. -1.
         -2    1    3    3    0  502  0.27624938084E+02 -0.31944028504E+02 -0.11391233632E+02  0.43741494772E+02  0.00000000000E+00 0.  1.
<mgrwt>
<rscale>  0 0.91046357E+02</rscale>
<asrwt>0</asrwt>
<pdfrwt beam="1">  1        1 0.36240695E-02 0.91046357E+02</pdfrwt>
<pdfrwt beam="2">  1       -1 0.13534491E-01 0.91046357E+02</pdfrwt>
<totfact> 0.83583094E+04</totfact>
</mgrwt>
</event>
<event>
 5    1  0.3854342E+001  0.9075030E+02  0.7546771E-02  0.1301045E+00
          1   -1    0    0  501    0  0.00000000000E+00  0.00000000000E+00  0.14851262742E+04  0.14851262742E+04  0.00000000000E+00 0. -1.
         -1   -1    0    0    0  501 -0.00000000000E+00 -0.00000000000E+00 -0.13863495128E+01  0.13863495128E+01  0.00000000000E+00 0.  1.
         23    2    1    2    0    0  0.00000000000E+00  0.00000000000E+00  0.14837399247E+04  0.14865126237E+04  0.90750296678E+02 0.  0.
          2    1    3    3  502    0  0.33115404756E+02 -0.17612476634E+02  0.11601520149E+04  0.11607581690E+04  0.00000000000E+00 0. -1.
         -2    1    3    3    0  502 -0.33115404756E+02  0.17612476634E+02  0.32358790985E+03  0.32575445471E+03  0.00000000000E+00 0.  1.
<mgrwt>
<rscale>  0 0.90750297E+02</rscale>
<asrwt>0</asrwt>
<pdfrwt beam="1">  1        1 0.22847969E+00 0.90750297E+02</pdfrwt>
<pdfrwt beam="2">  1       -1 0.21328573E-03 0.90750297E+02</pdfrwt>
<totfact> 0.11279702E+05</totfact>
</mgrwt>
</event>
<event>
 5    1  0.3854342E+001  0.9082492E+02  0.7546771E-02  0.1300866E+00
          1   -1    0    0  501    0  0.00000000000E+00  0.00000000000E+00  0.60499606274E+01  0.60499606274E+01  0.00000000000E+00 0. -1.
         -1   -1    0    0    0  501 -0.00000000000E+00 -0.00000000000E+00 -0.34087681439E+03  0.34087681439E+03  0.00000000000E+00 0.  1.
         23    2    1    2    0    0  0.00000000000E+00  0.00000000000E+00 -0.33482685377E+03  0.34692677502E+03  0.90824915213E+02 0.  0.
          2    1    3    3  502    0  0.29427948271E+02  0.33897957970E+02 -0.19366018259E+03  0.19879472331E+03  0.00000000000E+00 0.  1.
         -2    1    3    3    0  502 -0.29427948271E+02 -0.33897957970E+02 -0.14116667118E+03  0.14813205171E+03  0.00000000000E+00 0. -1.
<mgrwt>
<rscale>  0 0.90824915E+02</rscale>
<asrwt>0</asrwt>
<pdfrwt beam="1">  1        1 0.93076294E-03 0.90824915E+02</pdfrwt>
<pdfrwt beam="2">  1       -1 0.52442600E-01 0.90824915E+02</pdfrwt>
<totfact> 0.58039905E+04</totfact>
</mgrwt>
</event>
<event>
 5    1  0.3854342E+001  0.9107060E+02  0.7546771E-02  0.1300280E+00
         -2   -1    0    0    0  501 -0.00000000000E+00  0.00000000000E+00  0.38811625426E+03  0.38811625426E+03  0.00000000000E+00 0.  1.
          2   -1    0    0  501    0  0.00000000000E+00 -0.00000000000E+00 -0.53423778567E+01  0.53423778567E+01  0.00000000000E+00 0. -1.
         23    2    1    2    0    0  0.00000000000E+00  0.00000000000E+00  0.38277387641E+03  0.39345863212E+03  0.91070602998E+02 0.  0.
          2    1    3    3  502    0  0.24711076173E+02  0.32505290482E+01  0.26743994677E+02  0.36557413421E+02  0.00000000000E+00 0. -1.
         -2    1    3    3    0  502 -0.24711076173E+02 -0.32505290482E+01  0.35602988173E+03  0.35690121870E+03  0.00000000000E+00 0.  1.
<mgrwt>
<rscale>  0 0.91070603E+02</rscale>
<asrwt>0</asrwt>
<pdfrwt beam="2">  1        2 0.82190459E-03 0.91070603E+02</pdfrwt>
<pdfrwt beam="1">  1       -2 0.59710171E-01 0.91070603E+02</pdfrwt>
<totfact> 0.43695387E+04</totfact>
</mgrwt>
</event>
<event>
 5    1  0.3854342E+001  0.8594163E+02  0.7546771E-02  0.1312988E+00
          1   -1    0    0  501    0  0.00000000000E+00  0.00000000000E+00  0.41518519119E+03  0.41518519119E+03  0.00000000000E+00 0. -1.
         -1   -1    0    0    0  501 -0.00000000000E+00 -0.00000000000E+00 -0.44473907011E+01  0.44473907011E+01  0.00000000000E+00 0.  1.
         23    2    1    2    0    0  0.00000000000E+00  0.00000000000E+00  0.41073780049E+03  0.41963258190E+03  0.85941625737E+02 0.  0.
          2    1    3    3  502    0 -0.89687054654E+01  0.30894240871E+02  0.34447186222E+03  0.34597074393E+03  0.00000000000E+00 0. -1.
         -2    1    3    3    0  502  0.89687054654E+01 -0.30894240871E+02  0.66265938277E+02  0.73661837965E+02  0.00000000000E+00 0.  1.
<mgrwt>
<rscale>  0 0.85941626E+02</rscale>
<asrwt>0</asrwt>
<pdfrwt beam="1">  1        1 0.63874614E-01 0.85941626E+02</pdfrwt>
<pdfrwt beam="2">  1       -1 0.68421428E-03 0.85941626E+02</pdfrwt>
<totfact> 0.15868197E+05</totfact>
</mgrwt>
</event>
<event>
 5    1  0.3854342E+001  0.9584697E+02  0.7546771E-02  0.1289280E+00
          3   -1    0    0  501    0  0.00000000000E+00  0.00000000000E+00  0.33079314143E+03  0.33079314143E+03  0.00000000000E+00 0. -1.
         -3   -1    0    0    0  501 -0.00000000000E+00 -0.00000000000E+00 -0.69428907715E+01  0.69428907715E+01  0.00000000000E+00 0.  1.
         23    2    1    2    0    0  0.00000000000E+00  0.00000000000E+00  0.32385025066E+03  0.33773603221E+03  0.95846974891E+02 0.  0.
          2    1    3    3  502    0 -0.86081559394E+01  0.47077913827E+02  0.17072050334E+03  0.17730177828E+03  0.00000000000E+00 0. -1.
         -2    1    3    3    0  502  0.86081559394E+01 -0.47077913827E+02  0.15312974732E+03  0.16043425393E+03  0.00000000000E+00 0.  1.
<mgrwt>
<rscale>  0 0.95846975E+02</rscale>
<asrwt>0</asrwt>
<pdfrwt beam="1">  1        3 0.50891240E-01 0.95846975E+02</pdfrwt>
<pdfrwt beam="2">  1       -3 0.10681373E-02 0.95846975E+02</pdfrwt>
<totfact> 0.19793467E+04</totfact>
</mgrwt>
</event>
<event>
 5    1  0.3854342E+001  0.9276575E+02  0.7546771E-02  0.1296289E+00
          4   -1    0    0  501    0  0.00000000000E+00  0.00000000000E+00  0.58437194617E+01  0.58437194617E+01  0.00000000000E+00 0. -1.
         -4   -1    0    0    0  501 -0.00000000000E+00 -0.00000000000E+00 -0.36815095138E+03  0.36815095138E+03  0.00000000000E+00 0.  1.
         23    2    1    2    0    0  0.00000000000E+00  0.00000000000E+00 -0.36230723192E+03  0.37399467084E+03  0.92765745389E+02 0.  0.
          2    1    3    3  502    0 -0.75591928188E+01  0.28299540835E+02 -0.36163496847E+02  0.46538198416E+02  0.00000000000E+00 0. -1.
         -2    1    3    3    0  502  0.75591928188E+01 -0.28299540835E+02 -0.32614373507E+03  0.32745647242E+03  0.00000000000E+00 0.  1.
<mgrwt>
<rscale>  0 0.92765745E+02</rscale>
<asrwt>0</asrwt>
<pdfrwt beam="1">  1        4 0.89903360E-03 0.92765745E+02</pdfrwt>
<pdfrwt beam="2">  1       -4 0.56638618E-01 0.92765745E+02</pdfrwt>
<totfact> 0.15070821E+04</totfact>
</mgrwt>
</event>
<event>
 5    1  0.3854342E+001  0.9273346E+02  0.7546771E-02  0.1296364E+00
          2   -1    0    0  501    0  0.00000000000E+00  0.00000000000E+00  0.10904331770E+04  0.10904331770E+04  0.00000000000E+00 0. -1.
         -2   -1    0    0    0  501 -0.00000000000E+00 -0.00000000000E+00 -0.19715774966E+01  0.19715774966E+01  0.00000000000E+00 0.  1.
         23    2    1    2    0    0  0.00000000000E+00  0.00000000000E+00  0.10884615995E+04  0.10924047545E+04  0.92733457032E+02 0.  0.
          2    1    3    3  502    0 -0.10086984476E+02 -0.28430773916E+02  0.95901861156E+03  0.95949296687E+03  0.00000000000E+00 0. -1.
         -2    1    3    3    0  502  0.10086984476E+02  0.28430773916E+02  0.12944298793E+03  0.13291178761E+03  0.00000000000E+00 0.  1.
<mgrwt>
<rscale>  0 0.92733457E+02</rscale>
<asrwt>0</asrwt>
<pdfrwt beam="1">  1        2 0.16775847E+00 0.92733457E+02</pdfrwt>
<pdfrwt beam="2">  1       -2 0.30332049E-03 0.92733457E+02</pdfrwt>
<totfact> 0.23933291E+05</totfact>
</mgrwt>
</event>
<event>
 5    1  0.3854342E+001  0.9116058E+02  0.7546771E-02  0.1300065E+00
         -1   -1    0    0    0  501 -0.00000000000E+00  0.00000000000E+00  0.54065522114E+01  0.54065522114E+01  0.00000000000E+00 0.  1.
          1   -1    0    0  501    0  0.00000000000E+00 -0.00000000000E+00 -0.38426762373E+03  0.38426762373E+03  0.00000000000E+00 0. -1.
         23    2    1    2    0    0  0.00000000000E+00  0.00000000000E+00 -0.37886107152E+03  0.38967417594E+03  0.91160582948E+02 0.  0.
          2    1    3    3  502    0  0.23170195555E+02 -0.37954746728E+02 -0.14665424563E+03  0.15324780104E+03  0.00000000000E+00 0. -1.
         -2    1    3    3    0  502 -0.23170195555E+02  0.37954746728E+02 -0.23220682589E+03  0.23642637491E+03  0.00000000000E+00 0.  1.
<mgrwt>
<rscale>  0 0.91160583E+02</rscale>
<asrwt>0</asrwt>
<pdfrwt beam="2">  1        1 0.59118083E-01 0.91160583E+02</pdfrwt>
<pdfrwt beam="1">  1       -1 0.83177745E-03 0.91160583E+02</pdfrwt>
<totfact> 0.13405605E+05</totfact>
</mgrwt>
</event>
<event>
 5    1  0.3854342E+001  0.9045897E+02  0.7546771E-02  0.1301744E+00
         -2   -1    0    0    0  501 -0.00000000000E+00  0.00000000000E+00  0.10714410543E+01  0.10714410543E+01  0.00000000000E+00 0.  1.
          2   -1    0    0  501    0  0.00000000000E+00 -0.00000000000E+00 -0.19093034974E+04  0.19093034974E+04  0.00000000000E+00 0. -1.
         23    2    1    2    0    0  0.00000000000E+00  0.00000000000E+00 -0.19082320564E+04  0.19103749385E+04  0.90458966436E+02 0.  0.
          2    1    3    3  502    0  0.41930438066E+01 -0.28009036077E+02 -0.16988661214E+04  0.16991021706E+04  0.00000000000E+00 0. -1.
         -2    1    3    3    0  502 -0.41930438066E+01  0.28009036077E+02 -0.20936593491E+03  0.21127276782E+03  0.00000000000E+00 0.  1.
<mgrwt>
<rscale>  0 0.90458966E+02</rscale>
<asrwt>0</asrwt>
<pdfrwt beam="2">  1        2 0.29373802E+00 0.90458966E+02</pdfrwt>
<pdfrwt beam="1">  1       -2 0.16483763E-03 0.90458966E+02</pdfrwt>
<totfact> 0.20930319E+05</totfact>
</mgrwt>
</event>
<event>
 5    1  0.3854342E+001  0.8816830E+02  0.7546771E-02  0.1307349E+00
          1   -1    0    0  501    0  0.00000000000E+00  0.00000000000E+00  0.29438312445E+02  0.29438312445E+02  0.00000000000E+00 0. -1.
         -1   -1    0    0    0  501 -0.00000000000E+00 -0.00000000000E+00 -0.66016422602E+02  0.66016422602E+02  0.00000000000E+00 0.  1.
         23    2    1    2    0    0  0.00000000000E+00  0.00000000000E+00 -0.36578110157E+02  0.95454735047E+02  0.88168295323E+02 0.  0.
          2    1    3    3  502    0  0.35804129554E+02 -0.82309678583E+01  0.80911782905E+01  0.37618501979E+02  0.00000000000E+00 0. -1.
         -2    1    3    3    0  502 -0.35804129554E+02  0.82309678583E+01 -0.44669288448E+02  0.57836233068E+02  0.00000000000E+00 0.  1.
<mgrwt>
<rscale>  0 0.88168295E+02</rscale>
<asrwt>0</asrwt>
<pdfrwt beam="1">  1        1 0.45289712E-02 0.88168295E+02</pdfrwt>
<pdfrwt beam="2">  1       -1 0.10156373E-01 0.88168295E+02</pdfrwt>
<totfact> 0.95132616E+04</totfact>
</mgrwt>
</event>
<event>
 5    1  0.3854342E+001  0.8987648E+02  0.7546771E-02  0.1303151E+00
          4   -1    0    0  501    0  0.00000000000E+00  0.00000000000E+00  0.74965902581E+01  0.74965902581E+01  0.00000000000E+00 0. -1.
         -4   -1    0    0    0  501 -0.00000000000E+00 -0.00000000000E+00 -0.26938184683E+03  0.26938184683E+03  0.00000000000E+00 0.  1.
         23    2    1    2    0    0  0.00000000000E+00  0.00000000000E+00 -0.26188525658E+03  0.27687843709E+03  0.89876478095E+02 0.  0.
          2    1    3    3  502    0 -0.33260972476E+02  0.49651115208E+01 -0.39115293874E+02  0.51584404981E+02  0.00000000000E+00 0. -1.
         -2    1    3    3    0  502  0.33260972476E+02 -0.49651115208E+01 -0.22276996270E+03  0.22529403211E+03  0.00000000000E+00 0.  1.
<mgrwt>
<rscale>  0 0.89876478E+02</rscale>
<asrwt>0</asrwt>
<pdfrwt beam="1">  1        4 0.11533217E-02 0.89876478E+02</pdfrwt>
<pdfrwt beam="2">  1       -4 0.41443356E-01 0.89876478E+02</pdfrwt>
<totfact> 0.19270903E+04</totfact>
</mgrwt>
</event>
<event>
 5    1  0.3854342E+001  0.9266227E+02  0.7546771E-02  0.1296530E+00
         -2   -1    0    0    0  501 -0.00000000000E+00  0.00000000000E+00  0.11300017465E+02  0.11300017465E+02  0.00000000000E+00 0. -1.
          2   -1    0    0  501    0  0.00000000000E+00 -0.00000000000E+00 -0.18996201936E+03  0.18996201936E+03  0.00000000000E+00 0.  1.
         23    2    1    2    0    0  0.00000000000E+00  0.00000000000E+00 -0.17866200189E+03  0.20126203682E+03  0.92662271425E+02 0.  0.
          2    1    3    3  502    0 -0.30520788866E+02  0.32724738896E+01 -0.13954729865E+02  0.33718868960E+02  0.00000000000E+00 0. -1.
         -2    1    3    3    0  502  0.30520788866E+02 -0.32724738896E+01 -0.16470727203E+03  0.16754316786E+03  0.00000000000E+00 0.  1.
<mgrwt>
<rscale>  0 0.92662271E+02</rscale>
<asrwt>0</asrwt>
<pdfrwt beam="2">  1        2 0.29224927E-01 0.92662271E+02</pdfrwt>
<pdfrwt beam="1">  1       -2 0.17384642E-02 0.92662271E+02</pdfrwt>
<totfact> 0.14535338E+05</totfact>
</mgrwt>
</event>
<event>
 5    1  0.3854342E+001  0.9004220E+02  0.7546771E-02  0.1302750E+00
          1   -1    0    0  501    0  0.00000000000E+00  0.00000000000E+00  0.10922209124E+03  0.10922209124E+03  0.00000000000E+00 0. -1.
         -1   -1    0    0    0  501 -0.00000000000E+00 -0.00000000000E+00 -0.18557596739E+02  0.18557596739E+02  0.00000000000E+00 0.  1.
         23    2    1    2    0    0  0.00000000000E+00  0.00000000000E+00  0.90664494502E+02  0.12777968798E+03  0.90042201755E+02 0.  0.
          2    1    3    3  502    0  0.39963983788E+02  0.33590547112E+01  0.16301279330E+02  0.43291280376E+02  0.00000000000E+00 0. -1.
         -2    1    3    3    0  502 -0.39963983788E+02 -0.33590547112E+01  0.74363215171E+02  0.84488407604E+02  0.00000000000E+00 0.  1.
<mgrwt>
<rscale>  0 0.90042202E+02</rscale>
<asrwt>0</asrwt>
<pdfrwt beam="1">  1        1 0.16803398E-01 0.90042202E+02</pdfrwt>
<pdfrwt beam="2">  1       -1 0.28550150E-02 0.90042202E+02</pdfrwt>
<totfact> 0.10967787E+05</totfact>
</mgrwt>
</event>
<event>
 5    1  0.3854342E+001  0.9151991E+02  0.7546771E-02  0.1299212E+00
          1   -1    0    0  501    0  0.00000000000E+00  0.00000000000E+00  0.54692581500E+03  0.54692581500E+03  0.00000000000E+00 0. -1.
         -1   -1    0    0    0  501 -0.00000000000E+00 -0.00000000000E+00 -0.38286242019E+01  0.38286242019E+01  0.00000000000E+00 0.  1.
         23    2    1    2    0    0  0.00000000000E+00  0.00000000000E+00  0.54309719079E+03  0.55075443920E+03  0.91519908477E+02 0.  0.
          2    1    3    3  502    0  0.43578373991E+02 -0.13212935211E+02  0.29867380012E+03  0.30212529721E+03  0.00000000000E+00 0. -1.
         -2    1    3    3    0  502 -0.43578373991E+02  0.13212935211E+02  0.24442339068E+03  0.24862914199E+03  0.00000000000E+00 0.  1.
<mgrwt>
<rscale>  0 0.91519908E+02</rscale>
<asrwt>0</asrwt>
<pdfrwt beam="1">  1        1 0.84142371E-01 0.91519908E+02</pdfrwt>
<pdfrwt beam="2">  1       -1 0.58901954E-03 0.91519908E+02</pdfrwt>
<totfact> 0.13919664E+05</totfact>
</mgrwt>
</event>
<event>
 5    1  0.3854342E+001  0.9429892E+02  0.7546771E-02  0.1292763E+00
          2   -1    0    0  501    0  0.00000000000E+00  0.00000000000E+00  0.46588835977E+02  0.46588835977E+02  0.00000000000E+00 0. -1.
         -2   -1    0    0    0  501 -0.00000000000E+00 -0.00000000000E+00 -0.47716834513E+02  0.47716834513E+02  0.00000000000E+00 0.  1.
         23    2    1    2    0    0  0.00000000000E+00  0.00000000000E+00 -0.11279985359E+01  0.94305670490E+02  0.94298924203E+02 0.  0.
          2    1    3    3  502    0 -0.32150513807E+02 -0.34485058757E+02 -0.12016468967E+00  0.47147526500E+02  0.00000000000E+00 0.  1.
         -2    1    3    3    0  502  0.32150513807E+02  0.34485058757E+02 -0.10078338462E+01  0.47158143990E+02  0.00000000000E+00 0. -1.
<mgrwt>
<rscale>  0 0.94298924E+02</rscale>
<asrwt>0</asrwt>
<pdfrwt beam="1">  1        2 0.71675132E-02 0.94298924E+02</pdfrwt>
<pdfrwt beam="2">  1       -2 0.73410515E-02 0.94298924E+02</pdfrwt>
<totfact> 0.90068428E+04</totfact>
</mgrwt>
</event>
<event>
 5    1  0.3854342E+001  0.9128269E+02  0.7546771E-02  0.1299775E+00
         -2   -1    0    0    0  501 -0.00000000000E+00  0.00000000000E+00  0.13376624644E+03  0.13376624644E+03  0.00000000000E+00 0.  1.
          2   -1    0    0  501    0  0.00000000000E+00 -0.00000000000E+00 -0.15572928256E+02  0.15572928256E+02  0.00000000000E+00 0. -1.
         23    2    1    2    0    0  0.00000000000E+00  0.00000000000E+00  0.11819331818E+03  0.14933917470E+03  0.91282685300E+02 0.  0.
          2    1    3    3  502    0  0.90641464003E+01 -0.34652458107E+02  0.12818152423E+02  0.38042826320E+02  0.00000000000E+00 0. -1.
         -2    1    3    3    0  502 -0.90641464003E+01  0.34652458107E+02  0.10537516576E+03  0.11129634838E+03  0.00000000000E+00 0.  1.
<mgrwt>
<rscale>  0 0.91282685E+02</rscale>
<asrwt>0</asrwt>
<pdfrwt beam="2">  1        2 0.23958352E-02 0.91282685E+02</pdfrwt>
<pdfrwt beam="1">  1       -2 0.20579422E-01 0.91282685E+02</pdfrwt>
<totfact> 0.72525910E+04</totfact>
</mgrwt>
</event>
<event>
 5    1  0.3854342E+001  0.9391653E+02  0.7546771E-02  0.1293635E+00
         -2   -1    0    0    0  501 -0.00000000000E+00  0.00000000000E+00  0.45182562824E+02  0.45182562824E+02  0.00000000000E+00 0.  1.
          2   -1    0    0  501    0  0.00000000000E+00 -0.00000000000E+00 -0.48803750321E+02  0.48803750321E+02  0.00000000000E+00 0. -1.
         23    2    1    2    0    0  0.00000000000E+00  0.00000000000E+00 -0.36211874965E+01  0.93986313145E+02  0.93916527085E+02 0.  0.
          2    1    3    3  502    0 -0.25400845109E+02  0.22297051745E+02 -0.34434158668E+02  0.48250106030E+02  0.00000000000E+00 0. -1.
         -2    1    3    3    0  502  0.25400845109E+02 -0.22297051745E+02  0.30812971172E+02  0.45736207114E+02  0.00000000000E+00 0.  1.
<mgrwt>
<rscale>  0 0.93916527E+02</rscale>
<asrwt>0</asrwt>
<pdfrwt beam="2">  1        2 0.75082693E-02 0.93916527E+02</pdfrwt>
<pdfrwt beam="1">  1       -2 0.69511635E-02 0.93916527E+02</pdfrwt>
<totfact> 0.92264359E+04</totfact>
</mgrwt>
</event>
<event>
 5    1  0.3854342E+001  0.9070831E+02  0.7546771E-02  0.1301145E+00
          2   -1    0    0  501    0  0.00000000000E+00  0.00000000000E+00  0.18332118375E+03  0.18332118375E+03  0.00000000000E+00 0.  1.
         -2   -1    0    0    0  501 -0.00000000000E+00 -0.00000000000E+00 -0.11220739968E+02  0.11220739968E+02  0.00000000000E+00 0. -1.
         23    2    1    2    0    0  0.00000000000E+00  0.00000000000E+00  0.17210044378E+03  0.19454192372E+03  0.90708309068E+02 0.  0.
          2    1    3    3  502    0  0.15367462923E+01  0.43251304746E+02  0.56961097605E+02  0.71537427908E+02  0.00000000000E+00 0. -1.
         -2    1    3    3    0  502 -0.15367462923E+01 -0.43251304746E+02  0.11513934618E+03  0.12300449581E+03  0.00000000000E+00 0.  1.
<mgrwt>
<rscale>  0 0.90708309E+02</rscale>
<asrwt>0</asrwt>
<pdfrwt beam="1">  1        2 0.28203257E-01 0.90708309E+02</pdfrwt>
<pdfrwt beam="2">  1       -2 0.17262678E-02 0.90708309E+02</pdfrwt>
<totfact> 0.15201571E+05</totfact>
</mgrwt>
</event>
<event>
 5    1  0.3854342E+001  0.9177835E+02  0.7546771E-02  0.1298601E+00
         -1   -1    0    0    0  501 -0.00000000000E+00  0.00000000000E+00  0.11315099579E+02  0.11315099579E+02  0.00000000000E+00 0.  1.
          1   -1    0    0  501    0  0.00000000000E+00 -0.00000000000E+00 -0.18610673807E+03  0.18610673807E+03  0.00000000000E+00 0. -1.
         23    2    1    2    0    0  0.00000000000E+00  0.00000000000E+00 -0.17479163849E+03  0.19742183765E+03  0.91778347633E+02 0.  0.
          2    1    3    3  502    0 -0.16976311380E+02  0.32794476214E+02 -0.14599599069E+03  0.15059383160E+03  0.00000000000E+00 0. -1.
         -2    1    3    3    0  502  0.16976311380E+02 -0.32794476214E+02 -0.28795647799E+02  0.46828006048E+02  0.00000000000E+00 0.  1.
<mgrwt>
<rscale>  0 0.91778348E+02</rscale>
<asrwt>0</asrwt>
<pdfrwt beam="2">  1        1 0.28631805E-01 0.91778348E+02</pdfrwt>
<pdfrwt beam="1">  1       -1 0.17407846E-02 0.91778348E+02</pdfrwt>
<totfact> 0.11472466E+05</totfact>
</mgrwt>
</event>
<event>
 5    1  0.3854342E+001  0.8996755E+02  0.7546771E-02  0.1302930E+00
          3   -1    0    0  501    0  0.00000000000E+00  0.00000000000E+00  0.10789400961E+03  0.10789400961E+03  0.00000000000E+00 0. -1.
         -3   -1    0    0    0  501 -0.00000000000E+00 -0.00000000000E+00 -0.18754887380E+02  0.18754887380E+02  0.00000000000E+00 0.  1.
         23    2    1    2    0    0  0.00000000000E+00  0.00000000000E+00  0.89139122227E+02  0.12664889699E+03  0.89967549687E+02 0.  0.
          2    1    3    3  502    0  0.14021882387E+02 -0.32377720569E+02  0.83849926120E+02  0.90971094779E+02  0.00000000000E+00 0. -1.
         -2    1    3    3    0  502 -0.14021882387E+02  0.32377720569E+02  0.52891961064E+01  0.35677802208E+02  0.00000000000E+00 0.  1.
<mgrwt>
<rscale>  0 0.89967550E+02</rscale>
<asrwt>0</asrwt>
<pdfrwt beam="1">  1        3 0.16599078E-01 0.89967550E+02</pdfrwt>
<pdfrwt beam="2">  1       -3 0.28853674E-02 0.89967550E+02</pdfrwt>
<totfact> 0.34005310E+04</totfact>
</mgrwt>
</event>
<event>
 5    1  0.3854342E+001  0.8538298E+02  0.7546771E-02  0.1314434E+00
         -1   -1    0    0    0  501 -0.00000000000E+00  0.00000000000E+00  0.79457437041E+03  0.79457437041E+03  0.00000000000E+00 0.  1.
          1   -1    0    0  501    0  0.00000000000E+00 -0.00000000000E+00 -0.22937607615E+01  0.22937607615E+01  0.00000000000E+00 0. -1.
         23    2    1    2    0    0  0.00000000000E+00  0.00000000000E+00  0.79228060965E+03  0.79686813118E+03  0.85382984556E+02 0.  0.
          2    1    3    3  502    0 -0.12905624822E+02  0.30882763071E+02  0.64346365202E+03  0.64433358726E+03  0.00000000000E+00 0.  1.
         -2    1    3    3    0  502  0.12905624822E+02 -0.30882763071E+02  0.14881695764E+03  0.15253454391E+03  0.00000000000E+00 0. -1.
<mgrwt>
<rscale>  0 0.85382985E+02</rscale>
<asrwt>0</asrwt>
<pdfrwt beam="2">  1        1 0.35288691E-03 0.85382985E+02</pdfrwt>
<pdfrwt beam="1">  1       -1 0.12224199E+00 0.85382985E+02</pdfrwt>
<totfact> 0.39038241E+04</totfact>
</mgrwt>
</event>
<event>
 5    1  0.3854342E+001  0.8988306E+02  0.7546771E-02  0.1303135E+00
          3   -1    0    0  501    0  0.00000000000E+00  0.00000000000E+00  0.36054472039E+03  0.36054472039E+03  0.00000000000E+00 0. -1.
         -3   -1    0    0    0  501 -0.00000000000E+00 -0.00000000000E+00 -0.56019150920E+01  0.56019150920E+01  0.00000000000E+00 0.  1.
         23    2    1    2    0    0  0.00000000000E+00  0.00000000000E+00  0.35494280530E+03  0.36614663549E+03  0.89883055367E+02 0.  0.
          2    1    3    3  502    0 -0.21004511314E+02 -0.53164089522E+01  0.33786362433E+03  0.33855764996E+03  0.00000000000E+00 0. -1.
         -2    1    3    3    0  502  0.21004511314E+02  0.53164089522E+01  0.17079180967E+02  0.27588985523E+02  0.00000000000E+00 0.  1.
<mgrwt>
<rscale>  0 0.89883055E+02</rscale>
<asrwt>0</asrwt>
<pdfrwt beam="1">  1        3 0.55468400E-01 0.89883055E+02</pdfrwt>
<pdfrwt beam="2">  1       -3 0.86183337E-03 0.89883055E+02</pdfrwt>
<totfact> 0.22522453E+04</totfact>
</mgrwt>
</event>
<event>
 5    1  0.3854342E+001  0.8920662E+02  0.7546771E-02  0.1304784E+00
          2   -1    0    0  501    0  0.00000000000E+00  0.00000000000E+00  0.81467202564E+03  0.81467202564E+03  0.00000000000E+00 0. -1.
         -2   -1    0    0    0  501 -0.00000000000E+00 -0.00000000000E+00 -0.24420321966E+01  0.24420321966E+01  0.00000000000E+00 0.  1.
         23    2    1    2    0    0  0.00000000000E+00  0.00000000000E+00  0.81222999344E+03  0.81711405784E+03  0.89206621195E+02 0.  0.
          2    1    3    3  502    0  0.14784576980E+02 -0.40295209928E+02  0.29499511273E+03  0.29810133209E+03  0.00000000000E+00 0.  1.
         -2    1    3    3    0  502 -0.14784576980E+02  0.40295209928E+02  0.51723488071E+03  0.51901272575E+03  0.00000000000E+00 0. -1.
<mgrwt>
<rscale>  0 0.89206621E+02</rscale>
<asrwt>0</asrwt>
<pdfrwt beam="1">  1        2 0.12533394E+00 0.89206621E+02</pdfrwt>
<pdfrwt beam="2">  1       -2 0.37569791E-03 0.89206621E+02</pdfrwt>
<totfact> 0.25896812E+05</totfact>
</mgrwt>
</event>
<event>
 5    1  0.3854342E+001  0.9111625E+02  0.7546771E-02  0.1300171E+00
         -3   -1    0    0    0  501 -0.00000000000E+00  0.00000000000E+00  0.25561886792E+03  0.25561886792E+03  0.00000000000E+00 0.  1.
          3   -1    0    0  501    0  0.00000000000E+00 -0.00000000000E+00 -0.81196783100E+01  0.81196783100E+01  0.00000000000E+00 0. -1.
         23    2    1    2    0    0  0.00000000000E+00  0.00000000000E+00  0.24749918961E+03  0.26373854623E+03  0.91116254916E+02 0.  0.
          2    1    3    3  502    0  0.32892767918E+02 -0.28766389284E+02  0.86444570545E+02  0.96861257014E+02  0.00000000000E+00 0. -1.
         -2    1    3    3    0  502 -0.32892767918E+02  0.28766389284E+02  0.16105461907E+03  0.16687728922E+03  0.00000000000E+00 0.  1.
<mgrwt>
<rscale>  0 0.91116255E+02</rscale>
<asrwt>0</asrwt>
<pdfrwt beam="2">  1        3 0.12491815E-02 0.91116255E+02</pdfrwt>
<pdfrwt beam="1">  1       -3 0.39325974E-01 0.91116255E+02</pdfrwt>
<totfact> 0.25545964E+04</totfact>
</mgrwt>
</event>
<event>
 5    1  0.3854342E+001  0.8914898E+02  0.7546771E-02  0.1304926E+00
          1   -1    0    0  501    0  0.00000000000E+00  0.00000000000E+00  0.24305934564E+02  0.24305934564E+02  0.00000000000E+00 0. -1.
         -1   -1    0    0    0  501 -0.00000000000E+00 -0.00000000000E+00 -0.81744857434E+02  0.81744857434E+02  0.00000000000E+00 0.  1.
         23    2    1    2    0    0  0.00000000000E+00  0.00000000000E+00 -0.57438922870E+02  0.10605079200E+03  0.89148979932E+02 0.  0.
          2    1    3    3  502    0  0.20615937850E+02 -0.15479038526E+02  0.14537620672E+02  0.29596620448E+02  0.00000000000E+00 0. -1.
         -2    1    3    3    0  502 -0.20615937850E+02  0.15479038526E+02 -0.71976543542E+02  0.76454171550E+02  0.00000000000E+00 0.  1.
<mgrwt>
<rscale>  0 0.89148980E+02</rscale>
<asrwt>0</asrwt>
<pdfrwt beam="1">  1        1 0.37393746E-02 0.89148980E+02</pdfrwt>
<pdfrwt beam="2">  1       -1 0.12576132E-01 0.89148980E+02</pdfrwt>
<totfact> 0.89336963E+04</totfact>
</mgrwt>
</event>
<event>
 5    1  0.3854342E+001  0.9103462E+02  0.7546771E-02  0.1300365E+00
          1   -1    0    0  501    0  0.00000000000E+00  0.00000000000E+00  0.48743911978E+03  0.48743911978E+03  0.00000000000E+00 0. -1.
         -1   -1    0    0    0  501 -0.00000000000E+00 -0.00000000000E+00 -0.42504296217E+01  0.42504296217E+01  0.00000000000E+00 0.  1.
         23    2    1    2    0    0  0.00000000000E+00  0.00000000000E+00  0.48318869016E+03  0.49168954940E+03  0.91034623599E+02 0.  0.
          2    1    3    3  502    0 -0.22833137013E+02  0.16801828147E+02  0.43393605551E+03  0.43486107419E+03  0.00000000000E+00 0. -1.
         -2    1    3    3    0  502  0.22833137013E+02 -0.16801828147E+02  0.49252634645E+02  0.56828475207E+02  0.00000000000E+00 0.  1.
<mgrwt>
<rscale>  0 0.91034624E+02</rscale>
<asrwt>0</asrwt>
<pdfrwt beam="1">  1        1 0.74990589E-01 0.91034624E+02</pdfrwt>
<pdfrwt beam="2">  1       -1 0.65391264E-03 0.91034624E+02</pdfrwt>
<totfact> 0.13941172E+05</totfact>
</mgrwt>
</event>
<event>
 5    1  0.3854342E+001  0.9337468E+02  0.7546771E-02  0.1294879E+00
          2   -1    0    0  501    0  0.00000000000E+00  0.00000000000E+00  0.99503496561E+02  0.99503496561E+02  0.00000000000E+00 0. -1.
         -2   -1    0    0    0  501 -0.00000000000E+00 -0.00000000000E+00 -0.21905838162E+02  0.21905838162E+02  0.00000000000E+00 0.  1.
         23    2    1    2    0    0  0.00000000000E+00  0.00000000000E+00  0.77597658399E+02  0.12140933472E+03  0.93374675201E+02 0.  0.
          2    1    3    3  502    0  0.25650795179E+02  0.10312699609E+02  0.87716008762E+02  0.91969632269E+02  0.00000000000E+00 0. -1.
         -2    1    3    3    0  502 -0.25650795179E+02 -0.10312699609E+02 -0.10118350363E+02  0.29439702454E+02  0.00000000000E+00 0.  1.
<mgrwt>
<rscale>  0 0.93374675E+02</rscale>
<asrwt>0</asrwt>
<pdfrwt beam="1">  1        2 0.15308230E-01 0.93374675E+02</pdfrwt>
<pdfrwt beam="2">  1       -2 0.33701290E-02 0.93374675E+02</pdfrwt>
<totfact> 0.11469465E+05</totfact>
</mgrwt>
</event>
<event>
 5    1  0.3854342E+001  0.9223732E+02  0.7546771E-02  0.1297522E+00
          2   -1    0    0  501    0  0.00000000000E+00  0.00000000000E+00  0.19000137914E+03  0.19000137914E+03  0.00000000000E+00 0.  1.
         -2   -1    0    0    0  501 -0.00000000000E+00 -0.00000000000E+00 -0.11194292170E+02  0.11194292170E+02  0.00000000000E+00 0. -1.
         23    2    1    2    0    0  0.00000000000E+00  0.00000000000E+00  0.17880708697E+03  0.20119567131E+03  0.92237323267E+02 0.  0.
          2    1    3    3  502    0  0.46566925926E+01  0.42918960861E+02  0.12479205361E+03  0.13204839504E+03  0.00000000000E+00 0. -1.
         -2    1    3    3    0  502 -0.46566925926E+01 -0.42918960861E+02  0.54015033356E+02  0.69147276271E+02  0.00000000000E+00 0.  1.
<mgrwt>
<rscale>  0 0.92237323E+02</rscale>
<asrwt>0</asrwt>
<pdfrwt beam="1">  1        2 0.29230979E-01 0.92237323E+02</pdfrwt>
<pdfrwt beam="2">  1       -2 0.17221989E-02 0.92237323E+02</pdfrwt>
<totfact> 0.14718116E+05</totfact>
</mgrwt>
</event>
<event>
 5    1  0.3854342E+001  0.8997127E+02  0.7546771E-02  0.1302921E+00
         -2   -1    0    0    0  501 -0.00000000000E+00  0.00000000000E+00  0.71613846968E+00  0.71613846968E+00  0.00000000000E+00 0.  1.
          2   -1    0    0  501    0  0.00000000000E+00 -0.00000000000E+00 -0.28258605569E+04  0.28258605569E+04  0.00000000000E+00 0. -1.
         23    2    1    2    0    0  0.00000000000E+00  0.00000000000E+00 -0.28251444184E+04  0.28265766953E+04  0.89971272187E+02 0.  0.
          2    1    3    3  502    0 -0.33183897861E+02 -0.75102241575E+01 -0.48798222836E+03  0.48916687310E+03  0.00000000000E+00 0.  1.
         -2    1    3    3    0  502  0.33183897861E+02  0.75102241575E+01 -0.23371621900E+04  0.23374098222E+04  0.00000000000E+00 0. -1.
<mgrwt>
<rscale>  0 0.89971272E+02</rscale>
<asrwt>0</asrwt>
<pdfrwt beam="2">  1        2 0.43475215E+00 0.89971272E+02</pdfrwt>
<pdfrwt beam="1">  1       -2 0.11017404E-03 0.89971272E+02</pdfrwt>
<totfact> 0.12174089E+05</totfact>
</mgrwt>
</event>
<event>
 5    1  0.3854342E+001  0.9254716E+02  0.7546771E-02  0.1296798E+00
         -2   -1    0    0    0  501 -0.00000000000E+00  0.00000000000E+00  0.14186762907E+01  0.14186762907E+01  0.00000000000E+00 0.  1.
          2   -1    0    0  501    0  0.00000000000E+00 -0.00000000000E+00 -0.15093253170E+04  0.15093253170E+04  0.00000000000E+00 0. -1.
         23    2    1    2    0    0  0.00000000000E+00  0.00000000000E+00 -0.15079066407E+04  0.15107439933E+04  0.92547156458E+02 0.  0.
          2    1    3    3  502    0 -0.15787099380E+02  0.22055360407E+02 -0.13659575729E+04  0.13662268342E+04  0.00000000000E+00 0. -1.
         -2    1    3    3    0  502  0.15787099380E+02 -0.22055360407E+02 -0.14194906775E+03  0.14451715907E+03  0.00000000000E+00 0.  1.
<mgrwt>
<rscale>  0 0.92547156E+02</rscale>
<asrwt>0</asrwt>
<pdfrwt beam="2">  1        2 0.23220409E+00 0.92547156E+02</pdfrwt>
<pdfrwt beam="1">  1       -2 0.21825771E-03 0.92547156E+02</pdfrwt>
<totfact> 0.22632825E+05</totfact>
</mgrwt>
</event>
<event>
 5    1  0.3854342E+001  0.9140127E+02  0.7546771E-02  0.1299493E+00
         -2   -1    0    0    0  501 -0.00000000000E+00  0.00000000000E+00  0.51889063467E+02  0.51889063467E+02  0.00000000000E+00 0.  1.
          2   -1    0    0  501    0  0.00000000000E+00 -0.00000000000E+00 -0.40250250810E+02  0.40250250810E+02  0.00000000000E+00 0. -1.
         23    2    1    2    0    0  0.00000000000E+00  0.00000000000E+00  0.11638812657E+02  0.92139314276E+02  0.91401265173E+02 0.  0.
          2    1    3    3  502    0 -0.27821208622E+02  0.33469936743E+02  0.19870808810E+02  0.47844595907E+02  0.00000000000E+00 0. -1.
         -2    1    3    3    0  502  0.27821208622E+02 -0.33469936743E+02 -0.82319961529E+01  0.44294718369E+02  0.00000000000E+00 0.  1.
<mgrwt>
<rscale>  0 0.91401265E+02</rscale>
<asrwt>0</asrwt>
<pdfrwt beam="2">  1        2 0.61923463E-02 0.91401265E+02</pdfrwt>
<pdfrwt beam="1">  1       -2 0.79829329E-02 0.91401265E+02</pdfrwt>
<totfact> 0.94864048E+04</totfact>
</mgrwt>
</event>
<event>
 5    1  0.3854342E+001  0.9224872E+02  0.7546771E-02  0.1297496E+00
          1   -1    0    0  501    0  0.00000000000E+00  0.00000000000E+00  0.32218496667E+03  0.32218496667E+03  0.00000000000E+00 0. -1.
         -1   -1    0    0    0  501 -0.00000000000E+00 -0.00000000000E+00 -0.66032153798E+01  0.66032153798E+01  0.00000000000E+00 0.  1.
         23    2    1    2    0    0  0.00000000000E+00  0.00000000000E+00  0.31558175129E+03  0.32878818205E+03  0.92248723071E+02 0.  0.
          2    1    3    3  502    0 -0.41466033409E+02 -0.17979141781E+02  0.12497451590E+03  0.13289586558E+03  0.00000000000E+00 0. -1.
         -2    1    3    3    0  502  0.41466033409E+02  0.17979141781E+02  0.19060723540E+03  0.19589231647E+03  0.00000000000E+00 0.  1.
<mgrwt>
<rscale>  0 0.92248723E+02</rscale>
<asrwt>0</asrwt>
<pdfrwt beam="1">  1        1 0.49566906E-01 0.92248723E+02</pdfrwt>
<pdfrwt beam="2">  1       -1 0.10158795E-02 0.92248723E+02</pdfrwt>
<totfact> 0.12587315E+05</totfact>
</mgrwt>
</event>
<event>
 5    1  0.3854342E+001  0.9004482E+02  0.7546771E-02  0.1302743E+00
          4   -1    0    0  501    0  0.00000000000E+00  0.00000000000E+00  0.14564989303E+04  0.14564989303E+04  0.00000000000E+00 0. -1.
         -4   -1    0    0    0  501 -0.00000000000E+00 -0.00000000000E+00 -0.13917055119E+01  0.13917055119E+01  0.00000000000E+00 0.  1.
         23    2    1    2    0    0  0.00000000000E+00  0.00000000000E+00  0.14551072248E+04  0.14578906358E+04  0.90044824157E+02 0.  0.
          2    1    3    3  502    0  0.17714556176E+02 -0.34143774342E+02  0.11063662374E+04  0.11070347123E+04  0.00000000000E+00 0. -1.
         -2    1    3    3    0  502 -0.17714556176E+02  0.34143774342E+02  0.34874098735E+03  0.35085592354E+03  0.00000000000E+00 0.  1.
<mgrwt>
<rscale>  0 0.90044824E+02</rscale>
<asrwt>0</asrwt>
<pdfrwt beam="1">  1        4 0.22407554E+00 0.90044824E+02</pdfrwt>
<pdfrwt beam="2">  1       -4 0.21410970E-03 0.90044824E+02</pdfrwt>
<totfact> 0.45201361E+03</totfact>
</mgrwt>
</event>
<event>
 5    1  0.3854342E+001  0.9076432E+02  0.7546771E-02  0.1301011E+00
          2   -1    0    0  501    0  0.00000000000E+00  0.00000000000E+00  0.56259248613E+03  0.56259248613E+03  0.00000000000E+00 0. -1.
         -2   -1    0    0    0  501 -0.00000000000E+00 -0.00000000000E+00 -0.36608036904E+01  0.36608036904E+01  0.00000000000E+00 0.  1.
         23    2    1    2    0    0  0.00000000000E+00  0.00000000000E+00  0.55893168244E+03  0.56625328982E+03  0.90764324477E+02 0.  0.
          2    1    3    3  502    0  0.70619475521E+01  0.42016863776E+02  0.37696822849E+03  0.37936833452E+03  0.00000000000E+00 0. -1.
         -2    1    3    3    0  502 -0.70619475521E+01 -0.42016863776E+02  0.18196345396E+03  0.18688495531E+03  0.00000000000E+00 0.  1.
<mgrwt>
<rscale>  0 0.90764324E+02</rscale>
<asrwt>0</asrwt>
<pdfrwt beam="1">  1        2 0.86552621E-01 0.90764324E+02</pdfrwt>
<pdfrwt beam="2">  1       -2 0.56320102E-03 0.90764324E+02</pdfrwt>
<totfact> 0.22630010E+05</totfact>
</mgrwt>
</event>
<event>
 5    1  0.3854342E+001  0.9185041E+02  0.7546771E-02  0.1298432E+00
         -1   -1    0    0    0  501 -0.00000000000E+00  0.00000000000E+00  0.12492124668E+02  0.12492124668E+02  0.00000000000E+00 0.  1.
          1   -1    0    0  501    0  0.00000000000E+00 -0.00000000000E+00 -0.16883633836E+03  0.16883633836E+03  0.00000000000E+00 0. -1.
         23    2    1    2    0    0  0.00000000000E+00  0.00000000000E+00 -0.15634421369E+03  0.18132846303E+03  0.91850412896E+02 0.  0.
          2    1    3    3  502    0 -0.24474336500E+02  0.33979090736E+02 -0.40946915470E+02  0.58568094051E+02  0.00000000000E+00 0. -1.
         -2    1    3    3    0  502  0.24474336500E+02 -0.33979090736E+02 -0.11539729822E+03  0.12276036898E+03  0.00000000000E+00 0.  1.
<mgrwt>
<rscale>  0 0.91850413E+02</rscale>
<asrwt>0</asrwt>
<pdfrwt beam="2">  1        1 0.25974820E-01 0.91850413E+02</pdfrwt>
<pdfrwt beam="1">  1       -1 0.19218654E-02 0.91850413E+02</pdfrwt>
<totfact> 0.11237674E+05</totfact>
</mgrwt>
</event>
<event>
 5    1  0.3854342E+001  0.9137962E+02  0.7546771E-02  0.1299545E+00
         -1   -1    0    0    0  501 -0.00000000000E+00  0.00000000000E+00  0.11472998187E+03  0.11472998187E+03  0.00000000000E+00 0.  1.
          1   -1    0    0  501    0  0.00000000000E+00 -0.00000000000E+00 -0.18195406056E+02  0.18195406056E+02  0.00000000000E+00 0. -1.
         23    2    1    2    0    0  0.00000000000E+00  0.00000000000E+00  0.96534575819E+02  0.13292538793E+03  0.91379617136E+02 0.  0.
          2    1    3    3  502    0 -0.64656858287E+01  0.41152988611E+02  0.20968456544E+02  0.46637428474E+02  0.00000000000E+00 0. -1.
         -2    1    3    3    0  502  0.64656858287E+01 -0.41152988611E+02  0.75566119275E+02  0.86287959457E+02  0.00000000000E+00 0.  1.
<mgrwt>
<rscale>  0 0.91379617E+02</rscale>
<asrwt>0</asrwt>
<pdfrwt beam="2">  1        1 0.27992933E-02 0.91379617E+02</pdfrwt>
<pdfrwt beam="1">  1       -1 0.17650766E-01 0.91379617E+02</pdfrwt>
<totfact> 0.78792443E+04</totfact>
</mgrwt>
</event>
<event>
 5    1  0.3854342E+001  0.9184974E+02  0.7546771E-02  0.1298433E+00
          1   -1    0    0  501    0  0.00000000000E+00  0.00000000000E+00  0.19055261873E+02  0.19055261873E+02  0.00000000000E+00 0. -1.
         -1   -1    0    0    0  501 -0.00000000000E+00 -0.00000000000E+00 -0.11068299733E+03  0.11068299733E+03  0.00000000000E+00 0.  1.
         23    2    1    2    0    0  0.00000000000E+00  0.00000000000E+00 -0.91627735453E+02  0.12973825920E+03  0.91849735960E+02 0.  0.
          2    1    3    3  502    0  0.13487118700E+02 -0.15377833614E+02 -0.10389367233E+03  0.10588803184E+03  0.00000000000E+00 0.  1.
         -2    1    3    3    0  502 -0.13487118700E+02  0.15377833614E+02  0.12265936876E+02  0.23850227357E+02  0.00000000000E+00 0. -1.
<mgrwt>
<rscale>  0 0.91849736E+02</rscale>
<asrwt>0</asrwt>
<pdfrwt beam="1">  1        1 0.29315787E-02 0.91849736E+02</pdfrwt>
<pdfrwt beam="2">  1       -1 0.17028154E-01 0.91849736E+02</pdfrwt>
<totfact> 0.78308723E+04</totfact>
</mgrwt>
</event>
<event>
 5    1  0.3854342E+001  0.9765284E+02  0.7546771E-02  0.1285311E+00
         -2   -1    0    0    0  501 -0.00000000000E+00  0.00000000000E+00  0.16087956659E+03  0.16087956659E+03  0.00000000000E+00 0.  1.
          2   -1    0    0  501    0  0.00000000000E+00 -0.00000000000E+00 -0.14818656941E+02  0.14818656941E+02  0.00000000000E+00 0. -1.
         23    2    1    2    0    0  0.00000000000E+00  0.00000000000E+00  0.14606090965E+03  0.17569822353E+03  0.97652836233E+02 0.  0.
          2    1    3    3  502    0 -0.48798979479E+02  0.16249613263E+01  0.72678762384E+02  0.87556743881E+02  0.00000000000E+00 0. -1.
         -2    1    3    3    0  502  0.48798979479E+02 -0.16249613263E+01  0.73382147268E+02  0.88141479651E+02  0.00000000000E+00 0.  1.
<mgrwt>
<rscale>  0 0.97652836E+02</rscale>
<asrwt>0</asrwt>
<pdfrwt beam="2">  1        2 0.22797935E-02 0.97652836E+02</pdfrwt>
<pdfrwt beam="1">  1       -2 0.24750701E-01 0.97652836E+02</pdfrwt>
<totfact> 0.57175234E+04</totfact>
</mgrwt>
</event>
<event>
 4    1  0.3854342E+001  0.1681084E+03  0.7546771E-02  0.1179835E+00
          2   -1    0    0  501    0  0.00000000000E+00  0.00000000000E+00  0.16693514744E+04  0.16693514744E+04  0.00000000000E+00 0. -1.
         -2   -1    0    0    0  501 -0.00000000000E+00 -0.00000000000E+00 -0.42322468922E+01  0.42322468922E+01  0.00000000000E+00 0.  1.
          2    1    1    2  502    0  0.70373420379E+02 -0.23072165779E+02  0.43679525129E+03  0.44302915782E+03  0.00000000000E+00 0.  1.
         -2    1    1    2    0  502 -0.70373420379E+02  0.23072165779E+02  0.12283239762E+04  0.12305545635E+04  0.00000000000E+00 0. -1.
<mgrwt>
<rscale>  0 0.16810839E+03</rscale>
<asrwt>0</asrwt>
<pdfrwt beam="1">  1        2 0.25682278E+00 0.16810839E+03</pdfrwt>
<pdfrwt beam="2">  1       -2 0.65111624E-03 0.16810839E+03</pdfrwt>
<totfact> 0.42706984E+04</totfact>
</mgrwt>
</event>
<event>
 5    1  0.3854342E+001  0.1169689E+03  0.7546771E-02  0.1248183E+00
          1   -1    0    0  501    0  0.00000000000E+00  0.00000000000E+00  0.63864385098E+02  0.63864385098E+02  0.00000000000E+00 0. -1.
         -1   -1    0    0    0  501 -0.00000000000E+00 -0.00000000000E+00 -0.53557742438E+02  0.53557742438E+02  0.00000000000E+00 0.  1.
         23    2    1    2    0    0  0.00000000000E+00  0.00000000000E+00  0.10306642660E+02  0.11742212754E+03  0.11696892387E+03 0.  0.
          2    1    3    3  502    0  0.28980336424E+02 -0.43736442997E+02  0.31093252490E+02  0.60987922540E+02  0.00000000000E+00 0. -1.
         -2    1    3    3    0  502 -0.28980336424E+02  0.43736442997E+02 -0.20786609831E+02  0.56434204996E+02  0.00000000000E+00 0.  1.
<mgrwt>
<rscale>  0 0.11696892E+03</rscale>
<asrwt>0</asrwt>
<pdfrwt beam="1">  1        1 0.98252900E-02 0.11696892E+03</pdfrwt>
<pdfrwt beam="2">  1       -1 0.82396527E-02 0.11696892E+03</pdfrwt>
<totfact> 0.48162042E+04</totfact>
</mgrwt>
</event>
<event>
 4    1  0.3854342E+001  0.4703037E+02  0.7546771E-02  0.1462050E+00
         -2   -1    0    0    0  501 -0.00000000000E+00  0.00000000000E+00  0.96102659861E+02  0.96102659861E+02  0.00000000000E+00 0.  1.
          2   -1    0    0  501    0  0.00000000000E+00 -0.00000000000E+00 -0.57538866171E+01  0.57538866171E+01  0.00000000000E+00 0. -1.
          2    1    1    2  502    0 -0.19870311045E+02  0.10400852573E+02  0.60482016773E+02  0.64506444238E+02  0.00000000000E+00 0. -1.
         -2    1    1    2    0  502  0.19870311045E+02 -0.10400852573E+02  0.29866756471E+02  0.37350102240E+02  0.00000000000E+00 0.  1.
<mgrwt>
<rscale>  0 0.47030365E+02</rscale>
<asrwt>0</asrwt>
<pdfrwt beam="2">  1        2 0.88521339E-03 0.47030365E+02</pdfrwt>
<pdfrwt beam="1">  1       -2 0.14785023E-01 0.47030365E+02</pdfrwt>
<totfact> 0.41373023E+05</totfact>
</mgrwt>
</event>
<event>
 5    1  0.3854342E+001  0.8996099E+02  0.7546771E-02  0.1302946E+00
         -1   -1    0    0    0  501 -0.00000000000E+00  0.00000000000E+00  0.57664116620E+01  0.57664116620E+01  0.00000000000E+00 0.  1.
          1   -1    0    0  501    0  0.00000000000E+00 -0.00000000000E+00 -0.35086721474E+03  0.35086721474E+03  0.00000000000E+00 0. -1.
         23    2    1    2    0    0  0.00000000000E+00  0.00000000000E+00 -0.34510080307E+03  0.35663362640E+03  0.89960987075E+02 0.  0.
          2    1    3    3  502    0 -0.27250759082E+02 -0.36846276451E+01 -0.31437269798E+02  0.41766999938E+02  0.00000000000E+00 0. -1.
         -2    1    3    3    0  502  0.27250759082E+02  0.36846276451E+01 -0.31366353328E+03  0.31486662646E+03  0.00000000000E+00 0.  1.
<mgrwt>
<rscale>  0 0.89960987E+02</rscale>
<asrwt>0</asrwt>
<pdfrwt beam="2">  1        1 0.53979568E-01 0.89960987E+02</pdfrwt>
<pdfrwt beam="1">  1       -1 0.88714031E-03 0.89960987E+02</pdfrwt>
<totfact> 0.13667853E+05</totfact>
</mgrwt>
</event>
<event>
 5    1  0.3854342E+001  0.8995594E+02  0.7546771E-02  0.1302958E+00
          3   -1    0    0  501    0  0.00000000000E+00  0.00000000000E+00  0.26720321695E+01  0.26720321695E+01  0.00000000000E+00 0. -1.
         -3   -1    0    0    0  501 -0.00000000000E+00 -0.00000000000E+00 -0.75710831122E+03  0.75710831122E+03  0.00000000000E+00 0.  1.
         23    2    1    2    0    0  0.00000000000E+00  0.00000000000E+00 -0.75443627906E+03  0.75978034339E+03  0.89955939512E+02 0.  0.
          2    1    3    3  502    0  0.36780104501E+02 -0.73902439889E+01 -0.58678213785E+03  0.58798016046E+03  0.00000000000E+00 0.  1.
         -2    1    3    3    0  502 -0.36780104501E+02  0.73902439889E+01 -0.16765414120E+03  0.17180018293E+03  0.00000000000E+00 0. -1.
<mgrwt>
<rscale>  0 0.89955940E+02</rscale>
<asrwt>0</asrwt>
<pdfrwt beam="1">  1        3 0.41108141E-03 0.89955940E+02</pdfrwt>
<pdfrwt beam="2">  1       -3 0.11647833E+00 0.89955940E+02</pdfrwt>
<totfact> 0.13426729E+04</totfact>
</mgrwt>
</event>
<event>
 5    1  0.3854342E+001  0.8718987E+02  0.7546771E-02  0.1309803E+00
          1   -1    0    0  501    0  0.00000000000E+00  0.00000000000E+00  0.80177766379E+03  0.80177766379E+03  0.00000000000E+00 0. -1.
         -1   -1    0    0    0  501 -0.00000000000E+00 -0.00000000000E+00 -0.23703809878E+01  0.23703809878E+01  0.00000000000E+00 0.  1.
         23    2    1    2    0    0  0.00000000000E+00  0.00000000000E+00  0.79940728280E+03  0.80414804478E+03  0.87189873969E+02 0.  0.
          2    1    3    3  502    0  0.62030211988E+01  0.25138609130E+02  0.72317709825E+03  0.72364047881E+03  0.00000000000E+00 0. -1.
         -2    1    3    3    0  502 -0.62030211988E+01 -0.25138609130E+02  0.76230184554E+02  0.80507565968E+02  0.00000000000E+00 0.  1.
<mgrwt>
<rscale>  0 0.87189874E+02</rscale>
<asrwt>0</asrwt>
<pdfrwt beam="1">  1        1 0.12335019E+00 0.87189874E+02</pdfrwt>
<pdfrwt beam="2">  1       -1 0.36467464E-03 0.87189874E+02</pdfrwt>
<totfact> 0.15895662E+05</totfact>
</mgrwt>
</event>
<event>
 5    1  0.3854342E+001  0.9195836E+02  0.7546771E-02  0.1298177E+00
          1   -1    0    0  501    0  0.00000000000E+00  0.00000000000E+00  0.89192024705E+01  0.89192024705E+01  0.00000000000E+00 0. -1.
         -1   -1    0    0    0  501 -0.00000000000E+00 -0.00000000000E+00 -0.23702622694E+03  0.23702622694E+03  0.00000000000E+00 0.  1.
         23    2    1    2    0    0  0.00000000000E+00  0.00000000000E+00 -0.22810702447E+03  0.24594542941E+03  0.91958358160E+02 0.  0.
          2    1    3    3  502    0  0.44400177906E+02 -0.11946051249E+02 -0.11397019855E+03  0.12289544375E+03  0.00000000000E+00 0. -1.
         -2    1    3    3    0  502 -0.44400177906E+02  0.11946051249E+02 -0.11413682592E+03  0.12304998565E+03  0.00000000000E+00 0.  1.
<mgrwt>
<rscale>  0 0.91958358E+02</rscale>
<asrwt>0</asrwt>
<pdfrwt beam="1">  1        1 0.13721853E-02 0.91958358E+02</pdfrwt>
<pdfrwt beam="2">  1       -1 0.36465565E-01 0.91958358E+02</pdfrwt>
<totfact> 0.64466968E+04</totfact>
</mgrwt>
</event>
<event>
 5    1  0.3854342E+001  0.1043092E+03  0.7546771E-02  0.1271487E+00
         -4   -1    0    0    0  501 -0.00000000000E+00  0.00000000000E+00  0.45242933449E+02  0.45242933449E+02  0.00000000000E+00 0.  1.
          4   -1    0    0  501    0  0.00000000000E+00 -0.00000000000E+00 -0.60122105655E+02  0.60122105655E+02  0.00000000000E+00 0. -1.
         23    2    1    2    0    0  0.00000000000E+00  0.00000000000E+00 -0.14879172207E+02  0.10536503910E+03  0.10430916403E+03 0.  0.
          2    1    3    3  502    0  0.20825105559E+02 -0.30949523186E+02 -0.44257720650E+02  0.57881809268E+02  0.00000000000E+00 0. -1.
         -2    1    3    3    0  502 -0.20825105559E+02  0.30949523186E+02  0.29378548444E+02  0.47483229836E+02  0.00000000000E+00 0.  1.
<mgrwt>
<rscale>  0 0.10430916E+03</rscale>
<asrwt>0</asrwt>
<pdfrwt beam="2">  1        4 0.92495547E-02 0.10430916E+03</pdfrwt>
<pdfrwt beam="1">  1       -4 0.69604513E-02 0.10430916E+03</pdfrwt>
<totfact> 0.18082233E+04</totfact>
</mgrwt>
</event>
<event>
 5    1  0.3854342E+001  0.9066514E+02  0.7546771E-02  0.1301249E+00
          2   -1    0    0  501    0  0.00000000000E+00  0.00000000000E+00  0.15632090802E+04  0.15632090802E+04  0.00000000000E+00 0. -1.
         -2   -1    0    0    0  501 -0.00000000000E+00 -0.00000000000E+00 -0.13146301643E+01  0.13146301643E+01  0.00000000000E+00 0.  1.
         23    2    1    2    0    0  0.00000000000E+00  0.00000000000E+00  0.15618944500E+04  0.15645237104E+04  0.90665137952E+02 0.  0.
          2    1    3    3  502    0  0.18872036915E+02 -0.29989769641E+02  0.12688704960E+04  0.12693651467E+04  0.00000000000E+00 0. -1.
         -2    1    3    3    0  502 -0.18872036915E+02  0.29989769641E+02  0.29302395406E+03  0.29515856368E+03  0.00000000000E+00 0.  1.
<mgrwt>
<rscale>  0 0.90665138E+02</rscale>
<asrwt>0</asrwt>
<pdfrwt beam="1">  1        2 0.24049222E+00 0.90665138E+02</pdfrwt>
<pdfrwt beam="2">  1       -2 0.20225205E-03 0.90665138E+02</pdfrwt>
<totfact> 0.23548010E+05</totfact>
</mgrwt>
</event>
<event>
 5    1  0.3854342E+001  0.9106837E+02  0.7546771E-02  0.1300285E+00
          2   -1    0    0  501    0  0.00000000000E+00  0.00000000000E+00  0.73133136195E+03  0.73133136195E+03  0.00000000000E+00 0. -1.
         -2   -1    0    0    0  501 -0.00000000000E+00 -0.00000000000E+00 -0.28350515129E+01  0.28350515129E+01  0.00000000000E+00 0.  1.
         23    2    1    2    0    0  0.00000000000E+00  0.00000000000E+00  0.72849631044E+03  0.73416641346E+03  0.91068371769E+02 0.  0.
          2    1    3    3  502    0  0.34437499650E+02 -0.29140324849E+02  0.41411498252E+03  0.41656490330E+03  0.00000000000E+00 0. -1.
         -2    1    3    3    0  502 -0.34437499650E+02  0.29140324849E+02  0.31438132791E+03  0.31760151016E+03  0.00000000000E+00 0.  1.
<mgrwt>
<rscale>  0 0.91068372E+02</rscale>
<asrwt>0</asrwt>
<pdfrwt beam="1">  1        2 0.11251237E+00 0.91068372E+02</pdfrwt>
<pdfrwt beam="2">  1       -2 0.43616235E-03 0.91068372E+02</pdfrwt>
<totfact> 0.24023777E+05</totfact>
</mgrwt>
</event>
<event>
 5    1  0.3854342E+001  0.9364208E+02  0.7546771E-02  0.1294264E+00
          2   -1    0    0  501    0  0.00000000000E+00  0.00000000000E+00  0.12968369027E+03  0.12968369027E+03  0.00000000000E+00 0. -1.
         -2   -1    0    0    0  501 -0.00000000000E+00 -0.00000000000E+00 -0.16904281225E+02  0.16904281225E+02  0.00000000000E+00 0.  1.
         23    2    1    2    0    0  0.00000000000E+00  0.00000000000E+00  0.11277940904E+03  0.14658797149E+03  0.93642075384E+02 0.  0.
          2    1    3    3  502    0 -0.19960714108E+02  0.27586455828E+02  0.10669670963E+03  0.11199835043E+03  0.00000000000E+00 0. -1.
         -2    1    3    3    0  502  0.19960714108E+02 -0.27586455828E+02  0.60826994057E+01  0.34589621058E+02  0.00000000000E+00 0.  1.
<mgrwt>
<rscale>  0 0.93642075E+02</rscale>
<asrwt>0</asrwt>
<pdfrwt beam="1">  1        2 0.19951336E-01 0.93642075E+02</pdfrwt>
<pdfrwt beam="2">  1       -2 0.26006587E-02 0.93642075E+02</pdfrwt>
<totfact> 0.12380649E+05</totfact>
</mgrwt>
</event>
<event>
 5    1  0.3854342E+001  0.9411117E+02  0.7546771E-02  0.1293191E+00
         -2   -1    0    0    0  501 -0.00000000000E+00  0.00000000000E+00  0.11162547303E+04  0.11162547303E+04  0.00000000000E+00 0.  1.
          2   -1    0    0  501    0  0.00000000000E+00 -0.00000000000E+00 -0.19836224197E+01  0.19836224197E+01  0.00000000000E+00 0. -1.
         23    2    1    2    0    0  0.00000000000E+00  0.00000000000E+00  0.11142711078E+04  0.11182383527E+04  0.94111166372E+02 0.  0.
          2    1    3    3  502    0 -0.40564184863E+02  0.23324466328E+02  0.61624119540E+03  0.61801512500E+03  0.00000000000E+00 0. -1.
         -2    1    3    3    0  502  0.40564184863E+02 -0.23324466328E+02  0.49802991244E+03  0.50022322768E+03  0.00000000000E+00 0.  1.
<mgrwt>
<rscale>  0 0.94111166E+02</rscale>
<asrwt>0</asrwt>
<pdfrwt beam="2">  1        2 0.30517357E-03 0.94111166E+02</pdfrwt>
<pdfrwt beam="1">  1       -2 0.17173100E+00 0.94111166E+02</pdfrwt>
<totfact> 0.15041533E+04</totfact>
</mgrwt>
</event>
<event>
 5    1  0.3854342E+001  0.9229904E+02  0.7546771E-02  0.1297378E+00
          2   -1    0    0  501    0  0.00000000000E+00  0.00000000000E+00  0.57271071548E+03  0.57271071548E+03  0.00000000000E+00 0. -1.
         -2   -1    0    0    0  501 -0.00000000000E+00 -0.00000000000E+00 -0.37187681860E+01  0.37187681860E+01  0.00000000000E+00 0.  1.
         23    2    1    2    0    0  0.00000000000E+00  0.00000000000E+00  0.56899194729E+03  0.57642948366E+03  0.92299044166E+02 0.  0.
          2    1    3    3  502    0 -0.68442091631E+01  0.45431681244E+02  0.25734712041E+03  0.26141618397E+03  0.00000000000E+00 0. -1.
         -2    1    3    3    0  502  0.68442091631E+01 -0.45431681244E+02  0.31164482689E+03  0.31501329970E+03  0.00000000000E+00 0.  1.
<mgrwt>
<rscale>  0 0.92299044E+02</rscale>
<asrwt>0</asrwt>
<pdfrwt beam="1">  1        2 0.88109271E-01 0.92299044E+02</pdfrwt>
<pdfrwt beam="2">  1       -2 0.57211864E-03 0.92299044E+02</pdfrwt>
<totfact> 0.21763942E+05</totfact>
</mgrwt>
</event>
<event>
 5    1  0.3854342E+001  0.9583197E+02  0.7546771E-02  0.1289313E+00
         -1   -1    0    0    0  501 -0.00000000000E+00  0.00000000000E+00  0.69941174467E+02  0.69941174467E+02  0.00000000000E+00 0.  1.
          1   -1    0    0  501    0  0.00000000000E+00 -0.00000000000E+00 -0.32826750260E+02  0.32826750260E+02  0.00000000000E+00 0. -1.
         23    2    1    2    0    0  0.00000000000E+00  0.00000000000E+00  0.37114424207E+02  0.10276792473E+03  0.95831966841E+02 0.  0.
          2    1    3    3  502    0 -0.31474595192E+02 -0.32083214736E+02  0.74289428196E+00  0.44950358198E+02  0.00000000000E+00 0. -1.
         -2    1    3    3    0  502  0.31474595192E+02  0.32083214736E+02  0.36371529925E+02  0.57817566529E+02  0.00000000000E+00 0.  1.
<mgrwt>
<rscale>  0 0.95831967E+02</rscale>
<asrwt>0</asrwt>
<pdfrwt beam="2">  1        1 0.50502693E-02 0.95831967E+02</pdfrwt>
<pdfrwt beam="1">  1       -1 0.10760181E-01 0.95831967E+02</pdfrwt>
<totfact> 0.76221507E+04</totfact>
</mgrwt>
</event>
<event>
 5    1  0.3854342E+001  0.1267641E+03  0.7546771E-02  0.1232338E+00
         -2   -1    0    0    0  501 -0.00000000000E+00  0.00000000000E+00  0.36600421901E+01  0.36600421901E+01  0.00000000000E+00 0.  1.
          2   -1    0    0  501    0  0.00000000000E+00 -0.00000000000E+00 -0.10976067738E+04  0.10976067738E+04  0.00000000000E+00 0. -1.
         23    2    1    2    0    0  0.00000000000E+00  0.00000000000E+00 -0.10939467316E+04  0.11012668160E+04  0.12676414478E+03 0.  0.
          2    1    3    3  502    0 -0.98653755183E+01 -0.45756101975E+02 -0.91824093015E+03  0.91943316902E+03  0.00000000000E+00 0. -1.
         -2    1    3    3    0  502  0.98653755183E+01  0.45756101975E+02 -0.17570580149E+03  0.18183364699E+03  0.00000000000E+00 0.  1.
<mgrwt>
<rscale>  0 0.12676414E+03</rscale>
<asrwt>0</asrwt>
<pdfrwt beam="2">  1        2 0.16886268E+00 0.12676414E+03</pdfrwt>
<pdfrwt beam="1">  1       -2 0.56308309E-03 0.12676414E+03</pdfrwt>
<totfact> 0.10362424E+05</totfact>
</mgrwt>
</event>
<event>
 5    1  0.3854342E+001  0.8274780E+02  0.7546771E-02  0.1321430E+00
          1   -1    0    0  501    0  0.00000000000E+00  0.00000000000E+00  0.12527073675E+04  0.12527073675E+04  0.00000000000E+00 0. -1.
         -1   -1    0    0    0  501 -0.00000000000E+00 -0.00000000000E+00 -0.13664799222E+01  0.13664799222E+01  0.00000000000E+00 0.  1.
         23    2    1    2    0    0  0.00000000000E+00  0.00000000000E+00  0.12513408875E+04  0.12540738474E+04  0.82747796731E+02 0.  0.
          2    1    3    3  502    0 -0.13637596019E+02 -0.18995705692E+02  0.11429503960E+04  0.11431895855E+04  0.00000000000E+00 0. -1.
         -2    1    3    3    0  502  0.13637596019E+02  0.18995705692E+02  0.10839049157E+03  0.11088426183E+03  0.00000000000E+00 0.  1.
<mgrwt>
<rscale>  0 0.82747797E+02</rscale>
<asrwt>0</asrwt>
<pdfrwt beam="1">  1        1 0.19272329E+00 0.82747797E+02</pdfrwt>
<pdfrwt beam="2">  1       -1 0.21022868E-03 0.82747797E+02</pdfrwt>
<totfact> 0.16086501E+05</totfact>
</mgrwt>
</event>
<event>
 5    1  0.3854342E+001  0.9206437E+02  0.7546771E-02  0.1297928E+00
          1   -1    0    0  501    0  0.00000000000E+00  0.00000000000E+00  0.30549682350E+02  0.30549682350E+02  0.00000000000E+00 0. -1.
         -1   -1    0    0    0  501 -0.00000000000E+00 -0.00000000000E+00 -0.69361180267E+02  0.69361180267E+02  0.00000000000E+00 0.  1.
         23    2    1    2    0    0  0.00000000000E+00  0.00000000000E+00 -0.38811497917E+02  0.99910862617E+02  0.92064369320E+02 0.  0.
          2    1    3    3  502    0 -0.18966168925E+02  0.78727253775E+01  0.25303375575E+02  0.32587669203E+02  0.00000000000E+00 0. -1.
         -2    1    3    3    0  502  0.18966168925E+02 -0.78727253775E+01 -0.64114873492E+02  0.67323193414E+02  0.00000000000E+00 0.  1.
<mgrwt>
<rscale>  0 0.92064369E+02</rscale>
<asrwt>0</asrwt>
<pdfrwt beam="1">  1        1 0.46999512E-02 0.92064369E+02</pdfrwt>
<pdfrwt beam="2">  1       -1 0.10670951E-01 0.92064369E+02</pdfrwt>
<totfact> 0.84551727E+04</totfact>
</mgrwt>
</event>
<event>
 5    1  0.3854342E+001  0.7743374E+02  0.7546771E-02  0.1336496E+00
         -2   -1    0    0    0  501 -0.00000000000E+00  0.00000000000E+00  0.12834776593E+01  0.12834776593E+01  0.00000000000E+00 0.  1.
          2   -1    0    0  501    0  0.00000000000E+00 -0.00000000000E+00 -0.11679176265E+04  0.11679176265E+04  0.00000000000E+00 0. -1.
         23    2    1    2    0    0  0.00000000000E+00  0.00000000000E+00 -0.11666341488E+04  0.11692011042E+04  0.77433744106E+02 0.  0.
          2    1    3    3  502    0 -0.10679763492E+02  0.29612468018E+02 -0.24298086640E+03  0.24501154472E+03  0.00000000000E+00 0.  1.
         -2    1    3    3    0  502  0.10679763492E+02 -0.29612468018E+02 -0.92365328245E+03  0.92418955944E+03  0.00000000000E+00 0. -1.
<mgrwt>
<rscale>  0 0.77433744E+02</rscale>
<asrwt>0</asrwt>
<pdfrwt beam="2">  1        2 0.17967990E+00 0.77433744E+02</pdfrwt>
<pdfrwt beam="1">  1       -2 0.19745781E-03 0.77433744E+02</pdfrwt>
<totfact> 0.38200410E+05</totfact>
</mgrwt>
</event>
<event>
 5    1  0.3854342E+001  0.9190279E+02  0.7546771E-02  0.1298308E+00
         -2   -1    0    0    0  501 -0.00000000000E+00  0.00000000000E+00  0.24594276420E+01  0.24594276420E+01  0.00000000000E+00 0.  1.
          2   -1    0    0  501    0  0.00000000000E+00 -0.00000000000E+00 -0.85854547798E+03  0.85854547798E+03  0.00000000000E+00 0. -1.
         23    2    1    2    0    0  0.00000000000E+00  0.00000000000E+00 -0.85608605034E+03  0.86100490563E+03  0.91902785170E+02 0.  0.
          2    1    3    3  502    0  0.44549151179E+02 -0.93681819929E+01 -0.48665571708E+03  0.48878029489E+03  0.00000000000E+00 0. -1.
         -2    1    3    3    0  502 -0.44549151179E+02  0.93681819929E+01 -0.36943033326E+03  0.37222461074E+03  0.00000000000E+00 0.  1.
<mgrwt>
<rscale>  0 0.91902785E+02</rscale>
<asrwt>0</asrwt>
<pdfrwt beam="2">  1        2 0.13208399E+00 0.91902785E+02</pdfrwt>
<pdfrwt beam="1">  1       -2 0.37837329E-03 0.91902785E+02</pdfrwt>
<totfact> 0.24137391E+05</totfact>
</mgrwt>
</event>
<event>
 5    1  0.3854342E+001  0.9237145E+02  0.7546771E-02  0.1297208E+00
         -1   -1    0    0    0  501 -0.00000000000E+00  0.00000000000E+00  0.30757649195E+01  0.30757649195E+01  0.00000000000E+00 0. -1.
          1   -1    0    0  501    0  0.00000000000E+00 -0.00000000000E+00 -0.69352550404E+03  0.69352550404E+03  0.00000000000E+00 0.  1.
         23    2    1    2    0    0  0.00000000000E+00  0.00000000000E+00 -0.69044973912E+03  0.69660126896E+03  0.92371454815E+02 0.  0.
          2    1    3    3  502    0 -0.34029623456E+02  0.29246786097E+02 -0.26270643980E+03  0.26651090650E+03  0.00000000000E+00 0. -1.
         -2    1    3    3    0  502  0.34029623456E+02 -0.29246786097E+02 -0.42774329933E+03  0.43009036247E+03  0.00000000000E+00 0.  1.
<mgrwt>
<rscale>  0 0.92371455E+02</rscale>
<asrwt>0</asrwt>
<pdfrwt beam="2">  1        1 0.10669630E+00 0.92371455E+02</pdfrwt>
<pdfrwt beam="1">  1       -1 0.47319431E-03 0.92371455E+02</pdfrwt>
<totfact> 0.13736825E+05</totfact>
</mgrwt>
</event>
<event>
 5    1  0.3854342E+001  0.9118535E+02  0.7546771E-02  0.1300006E+00
          1   -1    0    0  501    0  0.00000000000E+00  0.00000000000E+00  0.19688075824E+04  0.19688075824E+04  0.00000000000E+00 0. -1.
         -1   -1    0    0    0  501 -0.00000000000E+00 -0.00000000000E+00 -0.10558127304E+01  0.10558127304E+01  0.00000000000E+00 0.  1.
         23    2    1    2    0    0  0.00000000000E+00  0.00000000000E+00  0.19677517697E+04  0.19698633952E+04  0.91185352095E+02 0.  0.
          2    1    3    3  502    0 -0.40148023041E+02  0.19241791892E+02  0.77157163992E+03  0.77285503546E+03  0.00000000000E+00 0. -1.
         -2    1    3    3    0  502  0.40148023041E+02 -0.19241791892E+02  0.11961801298E+04  0.11970083597E+04  0.00000000000E+00 0.  1.
<mgrwt>
<rscale>  0 0.91185352E+02</rscale>
<asrwt>0</asrwt>
<pdfrwt beam="1">  1        1 0.30289054E+00 0.91185352E+02</pdfrwt>
<pdfrwt beam="2">  1       -1 0.16243430E-03 0.91185352E+02</pdfrwt>
<totfact> 0.81595744E+04</totfact>
</mgrwt>
</event>
<event>
 5    1  0.3854342E+001  0.9108306E+02  0.7546771E-02  0.1300250E+00
          2   -1    0    0  501    0  0.00000000000E+00  0.00000000000E+00  0.25975155561E+03  0.25975155561E+03  0.00000000000E+00 0. -1.
         -2   -1    0    0    0  501 -0.00000000000E+00 -0.00000000000E+00 -0.79846715335E+01  0.79846715335E+01  0.00000000000E+00 0.  1.
         23    2    1    2    0    0  0.00000000000E+00  0.00000000000E+00  0.25176688408E+03  0.26773622715E+03  0.91083057741E+02 0.  0.
          2    1    3    3  502    0  0.42255743905E+02 -0.74618495385E+01  0.17073365741E+03  0.17604320170E+03  0.00000000000E+00 0. -1.
         -2    1    3    3    0  502 -0.42255743905E+02  0.74618495385E+01  0.81033226670E+02  0.91693025449E+02  0.00000000000E+00 0.  1.
<mgrwt>
<rscale>  0 0.91083058E+02</rscale>
<asrwt>0</asrwt>
<pdfrwt beam="1">  1        2 0.39961771E-01 0.91083058E+02</pdfrwt>
<pdfrwt beam="2">  1       -2 0.12284112E-02 0.91083058E+02</pdfrwt>
<totfact> 0.17073103E+05</totfact>
</mgrwt>
</event>
<event>
 5    1  0.3854342E+001  0.8198741E+02  0.7546771E-02  0.1323504E+00
          1   -1    0    0  501    0  0.00000000000E+00  0.00000000000E+00  0.43709506423E+03  0.43709506423E+03  0.00000000000E+00 0. -1.
         -1   -1    0    0    0  501 -0.00000000000E+00 -0.00000000000E+00 -0.38446647730E+01  0.38446647730E+01  0.00000000000E+00 0.  1.
         23    2    1    2    0    0  0.00000000000E+00  0.00000000000E+00  0.43325039946E+03  0.44093972900E+03  0.81987413569E+02 0.  0.
          2    1    3    3  502    0 -0.28335948640E+02  0.29062781965E+02  0.24747937199E+03  0.25078598614E+03  0.00000000000E+00 0. -1.
         -2    1    3    3    0  502  0.28335948640E+02 -0.29062781965E+02  0.18577102747E+03  0.19015374287E+03  0.00000000000E+00 0.  1.
<mgrwt>
<rscale>  0 0.81987414E+02</rscale>
<asrwt>0</asrwt>
<pdfrwt beam="1">  1        1 0.67245355E-01 0.81987414E+02</pdfrwt>
<pdfrwt beam="2">  1       -1 0.59148723E-03 0.81987414E+02</pdfrwt>
<totfact> 0.18102334E+05</totfact>
</mgrwt>
</event>
<event>
 5    1  0.3854342E+001  0.9153437E+02  0.7546771E-02  0.1299178E+00
         -1   -1    0    0    0  501 -0.00000000000E+00  0.00000000000E+00  0.61248602574E+01  0.61248602574E+01  0.00000000000E+00 0.  1.
          1   -1    0    0  501    0  0.00000000000E+00 -0.00000000000E+00 -0.34198906758E+03  0.34198906758E+03  0.00000000000E+00 0. -1.
         23    2    1    2    0    0  0.00000000000E+00  0.00000000000E+00 -0.33586420733E+03  0.34811392784E+03  0.91534370562E+02 0.  0.
          2    1    3    3  502    0  0.87559040852E+01 -0.31187280550E+02 -0.29089170244E+03  0.29268975874E+03  0.00000000000E+00 0. -1.
         -2    1    3    3    0  502 -0.87559040852E+01  0.31187280550E+02 -0.44972504885E+02  0.55424169097E+02  0.00000000000E+00 0.  1.
<mgrwt>
<rscale>  0 0.91534371E+02</rscale>
<asrwt>0</asrwt>
<pdfrwt beam="2">  1        1 0.52613705E-01 0.91534371E+02</pdfrwt>
<pdfrwt beam="1">  1       -1 0.94228615E-03 0.91534371E+02</pdfrwt>
<totfact> 0.12992447E+05</totfact>
</mgrwt>
</event>
<event>
 5    1  0.3854342E+001  0.9244990E+02  0.7546771E-02  0.1297025E+00
          1   -1    0    0  501    0  0.00000000000E+00  0.00000000000E+00  0.15787672413E+03  0.15787672413E+03  0.00000000000E+00 0. -1.
         -1   -1    0    0    0  501 -0.00000000000E+00 -0.00000000000E+00 -0.13534268153E+02  0.13534268153E+02  0.00000000000E+00 0.  1.
         23    2    1    2    0    0  0.00000000000E+00  0.00000000000E+00  0.14434245598E+03  0.17141099229E+03  0.92449898204E+02 0.  0.
          2    1    3    3  502    0  0.21162467679E+02  0.40875086404E+02  0.64278091997E+02  0.79058812523E+02  0.00000000000E+00 0. -1.
         -2    1    3    3    0  502 -0.21162467679E+02 -0.40875086404E+02  0.80064363983E+02  0.92352179762E+02  0.00000000000E+00 0.  1.
<mgrwt>
<rscale>  0 0.92449898E+02</rscale>
<asrwt>0</asrwt>
<pdfrwt beam="1">  1        1 0.24288725E-01 0.92449898E+02</pdfrwt>
<pdfrwt beam="2">  1       -1 0.20821952E-02 0.92449898E+02</pdfrwt>
<totfact> 0.10904018E+05</totfact>
</mgrwt>
</event>
<event>
 5    1  0.3854342E+001  0.8796942E+02  0.7546771E-02  0.1307845E+00
         -2   -1    0    0    0  501 -0.00000000000E+00  0.00000000000E+00  0.24289928363E+02  0.24289928363E+02  0.00000000000E+00 0. -1.
          2   -1    0    0  501    0  0.00000000000E+00 -0.00000000000E+00 -0.79648432530E+02  0.79648432530E+02  0.00000000000E+00 0.  1.
         23    2    1    2    0    0  0.00000000000E+00  0.00000000000E+00 -0.55358504167E+02  0.10393836089E+03  0.87969420150E+02 0.  0.
          2    1    3    3  502    0  0.42489467630E+02 -0.10756176410E+02 -0.23321265349E+02  0.49648077586E+02  0.00000000000E+00 0. -1.
         -2    1    3    3    0  502 -0.42489467630E+02  0.10756176410E+02 -0.32037238818E+02  0.54290283307E+02  0.00000000000E+00 0.  1.
<mgrwt>
<rscale>  0 0.87969420E+02</rscale>
<asrwt>0</asrwt>
<pdfrwt beam="2">  1        2 0.12253605E-01 0.87969420E+02</pdfrwt>
<pdfrwt beam="1">  1       -2 0.37369120E-02 0.87969420E+02</pdfrwt>
<totfact> 0.12667225E+05</totfact>
</mgrwt>
</event>
<event>
 5    1  0.3854342E+001  0.9424693E+02  0.7546771E-02  0.1292881E+00
         -3   -1    0    0    0  501 -0.00000000000E+00  0.00000000000E+00  0.15533147074E+02  0.15533147074E+02  0.00000000000E+00 0.  1.
          3   -1    0    0  501    0  0.00000000000E+00 -0.00000000000E+00 -0.14296014704E+03  0.14296014704E+03  0.00000000000E+00 0. -1.
         23    2    1    2    0    0  0.00000000000E+00  0.00000000000E+00 -0.12742699997E+03  0.15849329412E+03  0.94246930768E+02 0.  0.
          2    1    3    3  502    0  0.36405223898E+02  0.17126323227E+02 -0.10497366850E+03  0.11241940380E+03  0.00000000000E+00 0. -1.
         -2    1    3    3    0  502 -0.36405223898E+02 -0.17126323227E+02 -0.22453331473E+02  0.46073890313E+02  0.00000000000E+00 0.  1.
<mgrwt>
<rscale>  0 0.94246931E+02</rscale>
<asrwt>0</asrwt>
<pdfrwt beam="2">  1        3 0.21993870E-01 0.94246931E+02</pdfrwt>
<pdfrwt beam="1">  1       -3 0.23897148E-02 0.94246931E+02</pdfrwt>
<totfact> 0.28146944E+04</totfact>
</mgrwt>
</event>
<event>
 5    1  0.3854342E+001  0.9194878E+02  0.7546771E-02  0.1298200E+00
          1   -1    0    0  501    0  0.00000000000E+00  0.00000000000E+00  0.34751929991E+03  0.34751929991E+03  0.00000000000E+00 0. -1.
         -1   -1    0    0    0  501 -0.00000000000E+00 -0.00000000000E+00 -0.60820924836E+01  0.60820924836E+01  0.00000000000E+00 0.  1.
         23    2    1    2    0    0  0.00000000000E+00  0.00000000000E+00  0.34143720743E+03  0.35360139239E+03  0.91948779696E+02 0.  0.
          2    1    3    3  502    0  0.40176985143E+02  0.15524858632E+02  0.23254046953E+03  0.23649583790E+03  0.00000000000E+00 0. -1.
         -2    1    3    3    0  502 -0.40176985143E+02 -0.15524858632E+02  0.10889673789E+03  0.11710555450E+03  0.00000000000E+00 0.  1.
<mgrwt>
<rscale>  0 0.91948780E+02</rscale>
<asrwt>0</asrwt>
<pdfrwt beam="1">  1        1 0.53464492E-01 0.91948780E+02</pdfrwt>
<pdfrwt beam="2">  1       -1 0.93570680E-03 0.91948780E+02</pdfrwt>
<totfact> 0.12874279E+05</totfact>
</mgrwt>
</event>
<event>
 5    1  0.3854342E+001  0.8590390E+02  0.7546771E-02  0.1313086E+00
          1   -1    0    0  501    0  0.00000000000E+00  0.00000000000E+00  0.91321619689E+03  0.91321619689E+03  0.00000000000E+00 0. -1.
         -1   -1    0    0    0  501 -0.00000000000E+00 -0.00000000000E+00 -0.20201899081E+01  0.20201899081E+01  0.00000000000E+00 0.  1.
         23    2    1    2    0    0  0.00000000000E+00  0.00000000000E+00  0.91119600699E+03  0.91523638680E+03  0.85903903169E+02 0.  0.
          2    1    3    3  502    0  0.22862128009E+02 -0.13407136952E+02  0.95486124793E+02  0.99096055655E+02  0.00000000000E+00 0.  1.
         -2    1    3    3    0  502 -0.22862128009E+02  0.13407136952E+02  0.81570988219E+03  0.81614033115E+03  0.00000000000E+00 0. -1.
<mgrwt>
<rscale>  0 0.85903903E+02</rscale>
<asrwt>0</asrwt>
<pdfrwt beam="1">  1        1 0.14049447E+00 0.85903903E+02</pdfrwt>
<pdfrwt beam="2">  1       -1 0.31079918E-03 0.85903903E+02</pdfrwt>
<totfact> 0.16241575E+05</totfact>
</mgrwt>
</event>
<event>
 5    1  0.3854342E+001  0.9063512E+02  0.7546771E-02  0.1301321E+00
          2   -1    0    0  501    0  0.00000000000E+00  0.00000000000E+00  0.49573475931E+02  0.49573475931E+02  0.00000000000E+00 0. -1.
         -2   -1    0    0    0  501 -0.00000000000E+00 -0.00000000000E+00 -0.41427015548E+02  0.41427015548E+02  0.00000000000E+00 0.  1.
         23    2    1    2    0    0  0.00000000000E+00  0.00000000000E+00  0.81464603832E+01  0.91000491479E+02  0.90635118098E+02 0.  0.
          2    1    3    3  502    0  0.26510185517E+02  0.78029191391E+01  0.40134668399E+02  0.48728503883E+02  0.00000000000E+00 0. -1.
         -2    1    3    3    0  502 -0.26510185517E+02 -0.78029191391E+01 -0.31988208016E+02  0.42271987596E+02  0.00000000000E+00 0.  1.
<mgrwt>
<rscale>  0 0.90635118E+02</rscale>
<asrwt>0</asrwt>
<pdfrwt beam="1">  1        2 0.76266886E-02 0.90635118E+02</pdfrwt>
<pdfrwt beam="2">  1       -2 0.63733870E-02 0.90635118E+02</pdfrwt>
<totfact> 0.10257902E+05</totfact>
</mgrwt>
</event>
<event>
 5    1  0.3854342E+001  0.9134453E+02  0.7546771E-02  0.1299628E+00
         -2   -1    0    0    0  501 -0.00000000000E+00  0.00000000000E+00  0.15834319894E+01  0.15834319894E+01  0.00000000000E+00 0.  1.
          2   -1    0    0  501    0  0.00000000000E+00 -0.00000000000E+00 -0.13173635343E+04  0.13173635343E+04  0.00000000000E+00 0. -1.
         23    2    1    2    0    0  0.00000000000E+00  0.00000000000E+00 -0.13157801023E+04  0.13189469663E+04  0.91344525001E+02 0.  0.
          2    1    3    3  502    0  0.21138797317E+02 -0.14496114495E+02 -0.12037186505E+04  0.12039915181E+04  0.00000000000E+00 0. -1.
         -2    1    3    3    0  502 -0.21138797317E+02  0.14496114495E+02 -0.11206145184E+03  0.11495544822E+03  0.00000000000E+00 0.  1.
<mgrwt>
<rscale>  0 0.91344525E+02</rscale>
<asrwt>0</asrwt>
<pdfrwt beam="2">  1        2 0.20267162E+00 0.91344525E+02</pdfrwt>
<pdfrwt beam="1">  1       -2 0.24360455E-03 0.91344525E+02</pdfrwt>
<totfact> 0.24385434E+05</totfact>
</mgrwt>
</event>
<event>
 5    1  0.3854342E+001  0.1101926E+03  0.7546771E-02  0.1260214E+00
         -2   -1    0    0    0  501 -0.00000000000E+00  0.00000000000E+00  0.87487076898E+01  0.87487076898E+01  0.00000000000E+00 0.  1.
          2   -1    0    0  501    0  0.00000000000E+00 -0.00000000000E+00 -0.34697749916E+03  0.34697749916E+03  0.00000000000E+00 0. -1.
         23    2    1    2    0    0  0.00000000000E+00  0.00000000000E+00 -0.33822879147E+03  0.35572620685E+03  0.11019264431E+03 0.  0.
          2    1    3    3  502    0 -0.36883248196E+02  0.21566173688E+02 -0.28141431042E+03  0.28463922420E+03  0.00000000000E+00 0. -1.
         -2    1    3    3    0  502  0.36883248196E+02 -0.21566173688E+02 -0.56814481050E+02  0.71086982648E+02  0.00000000000E+00 0.  1.
<mgrwt>
<rscale>  0 0.11019264E+03</rscale>
<asrwt>0</asrwt>
<pdfrwt beam="2">  1        2 0.53381152E-01 0.11019264E+03</pdfrwt>
<pdfrwt beam="1">  1       -2 0.13459551E-02 0.11019264E+03</pdfrwt>
<totfact> 0.11391617E+05</totfact>
</mgrwt>
</event>
<event>
 5    1  0.3854342E+001  0.8959389E+02  0.7546771E-02  0.1303838E+00
          1   -1    0    0  501    0  0.00000000000E+00  0.00000000000E+00  0.66926424401E+02  0.66926424401E+02  0.00000000000E+00 0. -1.
         -1   -1    0    0    0  501 -0.00000000000E+00 -0.00000000000E+00 -0.29984664549E+02  0.29984664549E+02  0.00000000000E+00 0.  1.
         23    2    1    2    0    0  0.00000000000E+00  0.00000000000E+00  0.36941759851E+02  0.96911088950E+02  0.89593892317E+02 0.  0.
          2    1    3    3  502    0  0.31734622588E+02  0.14469448414E+02  0.48879396202E+02  0.60047036407E+02  0.00000000000E+00 0. -1.
         -2    1    3    3    0  502 -0.31734622588E+02 -0.14469448414E+02 -0.11937636350E+02  0.36864052543E+02  0.00000000000E+00 0.  1.
<mgrwt>
<rscale>  0 0.89593892E+02</rscale>
<asrwt>0</asrwt>
<pdfrwt beam="1">  1        1 0.10296373E-01 0.89593892E+02</pdfrwt>
<pdfrwt beam="2">  1       -1 0.46130253E-02 0.89593892E+02</pdfrwt>
<totfact> 0.10283465E+05</totfact>
</mgrwt>
</event>
<event>
 5    1  0.3854342E+001  0.9183113E+02  0.7546771E-02  0.1298477E+00
          1   -1    0    0  501    0  0.00000000000E+00  0.00000000000E+00  0.14224573897E+03  0.14224573897E+03  0.00000000000E+00 0. -1.
         -1   -1    0    0    0  501 -0.00000000000E+00 -0.00000000000E+00 -0.14821105804E+02  0.14821105804E+02  0.00000000000E+00 0.  1.
         23    2    1    2    0    0  0.00000000000E+00  0.00000000000E+00  0.12742463317E+03  0.15706684477E+03  0.91831130831E+02 0.  0.
          2    1    3    3  502    0  0.80273005329E+00  0.41276921240E+02  0.29342009293E+02  0.50649601301E+02  0.00000000000E+00 0.  1.
         -2    1    3    3    0  502 -0.80273005329E+00 -0.41276921240E+02  0.98082623872E+02  0.10641724347E+03  0.00000000000E+00 0. -1.
<mgrwt>
<rscale>  0 0.91831131E+02</rscale>
<asrwt>0</asrwt>
<pdfrwt beam="1">  1        1 0.21883959E-01 0.91831131E+02</pdfrwt>
<pdfrwt beam="2">  1       -1 0.22801702E-02 0.91831131E+02</pdfrwt>
<totfact> 0.10892316E+05</totfact>
</mgrwt>
</event>
<event>
 5    1  0.3854342E+001  0.9036617E+02  0.7546771E-02  0.1301967E+00
         -1   -1    0    0    0  501 -0.00000000000E+00  0.00000000000E+00  0.33175386284E+02  0.33175386284E+02  0.00000000000E+00 0.  1.
          1   -1    0    0  501    0  0.00000000000E+00 -0.00000000000E+00 -0.61536926102E+02  0.61536926102E+02  0.00000000000E+00 0. -1.
         23    2    1    2    0    0  0.00000000000E+00  0.00000000000E+00 -0.28361539818E+02  0.94712312386E+02  0.90366172745E+02 0.  0.
          2    1    3    3  502    0 -0.32321075600E+02  0.10318872860E+02 -0.45455120821E+02  0.56721240059E+02  0.00000000000E+00 0. -1.
         -2    1    3    3    0  502  0.32321075600E+02 -0.10318872860E+02  0.17093581003E+02  0.37991072327E+02  0.00000000000E+00 0.  1.
<mgrwt>
<rscale>  0 0.90366173E+02</rscale>
<asrwt>0</asrwt>
<pdfrwt beam="2">  1        1 0.94672194E-02 0.90366173E+02</pdfrwt>
<pdfrwt beam="1">  1       -1 0.51039056E-02 0.90366173E+02</pdfrwt>
<totfact> 0.99162153E+04</totfact>
</mgrwt>
</event>
<event>
 5    1  0.3854342E+001  0.9066203E+02  0.7546771E-02  0.1301256E+00
          2   -1    0    0  501    0  0.00000000000E+00  0.00000000000E+00  0.13378688523E+04  0.13378688523E+04  0.00000000000E+00 0. -1.
         -2   -1    0    0    0  501 -0.00000000000E+00 -0.00000000000E+00 -0.15359509128E+01  0.15359509128E+01  0.00000000000E+00 0.  1.
         23    2    1    2    0    0  0.00000000000E+00  0.00000000000E+00  0.13363329014E+04  0.13394048033E+04  0.90662029205E+02 0.  0.
          2    1    3    3  502    0  0.26961514440E+02 -0.36182298135E+01  0.12038773391E+04  0.12041846463E+04  0.00000000000E+00 0. -1.
         -2    1    3    3    0  502 -0.26961514440E+02  0.36182298135E+01  0.13245556232E+03  0.13522015692E+03  0.00000000000E+00 0.  1.
<mgrwt>
<rscale>  0 0.90662029E+02</rscale>
<asrwt>0</asrwt>
<pdfrwt beam="1">  1        2 0.20582505E+00 0.90662029E+02</pdfrwt>
<pdfrwt beam="2">  1       -2 0.23630121E-03 0.90662029E+02</pdfrwt>
<totfact> 0.24788033E+05</totfact>
</mgrwt>
</event>
<event>
 5    1  0.3854342E+001  0.9248992E+02  0.7546771E-02  0.1296932E+00
         -4   -1    0    0    0  501 -0.00000000000E+00  0.00000000000E+00  0.49200164342E+02  0.49200164342E+02  0.00000000000E+00 0.  1.
          4   -1    0    0  501    0  0.00000000000E+00 -0.00000000000E+00 -0.43467257261E+02  0.43467257261E+02  0.00000000000E+00 0. -1.
         23    2    1    2    0    0  0.00000000000E+00  0.00000000000E+00  0.57329070813E+01  0.92667421604E+02  0.92489917305E+02 0.  0.
          2    1    3    3  502    0 -0.23153263411E+02 -0.39554423593E+02 -0.33073662649E+01  0.45951764972E+02  0.00000000000E+00 0. -1.
         -2    1    3    3    0  502  0.23153263411E+02  0.39554423593E+02  0.90402733462E+01  0.46715656632E+02  0.00000000000E+00 0.  1.
<mgrwt>
<rscale>  0 0.92489917E+02</rscale>
<asrwt>0</asrwt>
<pdfrwt beam="2">  1        4 0.66872704E-02 0.92489917E+02</pdfrwt>
<pdfrwt beam="1">  1       -4 0.75692560E-02 0.92489917E+02</pdfrwt>
<totfact> 0.25892845E+04</totfact>
</mgrwt>
</event>
<event>
 5    1  0.3854342E+001  0.9296613E+02  0.7546771E-02  0.1295824E+00
         -2   -1    0    0    0  501 -0.00000000000E+00  0.00000000000E+00  0.17041675774E+01  0.17041675774E+01  0.00000000000E+00 0.  1.
          2   -1    0    0  501    0  0.00000000000E+00 -0.00000000000E+00 -0.12678771861E+04  0.12678771861E+04  0.00000000000E+00 0. -1.
         23    2    1    2    0    0  0.00000000000E+00  0.00000000000E+00 -0.12661730186E+04  0.12695813537E+04  0.92966127007E+02 0.  0.
          2    1    3    3  502    0  0.15678840493E+02  0.38456004873E+02 -0.34793774603E+03  0.35040742781E+03  0.00000000000E+00 0.  1.
         -2    1    3    3    0  502 -0.15678840493E+02 -0.38456004873E+02 -0.91823527253E+03  0.91917392590E+03  0.00000000000E+00 0. -1.
<mgrwt>
<rscale>  0 0.92966127E+02</rscale>
<asrwt>0</asrwt>
<pdfrwt beam="2">  1        2 0.19505740E+00 0.92966127E+02</pdfrwt>
<pdfrwt beam="1">  1       -2 0.26218047E-03 0.92966127E+02</pdfrwt>
<totfact> 0.23448392E+05</totfact>
</mgrwt>
</event>
<event>
 5    1  0.3854342E+001  0.9066233E+02  0.7546771E-02  0.1301256E+00
          2   -1    0    0  501    0  0.00000000000E+00  0.00000000000E+00  0.32084957775E+01  0.32084957775E+01  0.00000000000E+00 0. -1.
         -2   -1    0    0    0  501 -0.00000000000E+00 -0.00000000000E+00 -0.64046039887E+03  0.64046039887E+03  0.00000000000E+00 0.  1.
         23    2    1    2    0    0  0.00000000000E+00  0.00000000000E+00 -0.63725190309E+03  0.64366889465E+03  0.90662329232E+02 0.  0.
          2    1    3    3  502    0  0.40331015246E+02  0.25961705442E+00 -0.17170371632E+03  0.17637693837E+03  0.00000000000E+00 0. -1.
         -2    1    3    3    0  502 -0.40331015246E+02 -0.25961705442E+00 -0.46554818677E+03  0.46729195627E+03  0.00000000000E+00 0.  1.
<mgrwt>
<rscale>  0 0.90662329E+02</rscale>
<asrwt>0</asrwt>
<pdfrwt beam="1">  1        2 0.49361512E-03 0.90662329E+02</pdfrwt>
<pdfrwt beam="2">  1       -2 0.98532293E-01 0.90662329E+02</pdfrwt>
<totfact> 0.29952135E+04</totfact>
</mgrwt>
</event>
<event>
 5    1  0.3854342E+001  0.9129992E+02  0.7546771E-02  0.1299734E+00
          2   -1    0    0  501    0  0.00000000000E+00  0.00000000000E+00  0.51377832270E+03  0.51377832270E+03  0.00000000000E+00 0.  1.
         -2   -1    0    0    0  501 -0.00000000000E+00 -0.00000000000E+00 -0.40560658958E+01  0.40560658958E+01  0.00000000000E+00 0. -1.
         23    2    1    2    0    0  0.00000000000E+00  0.00000000000E+00  0.50972225680E+03  0.51783438859E+03  0.91299917474E+02 0.  0.
          2    1    3    3  502    0 -0.45560011923E+01 -0.31231066052E+02  0.67796594259E+02  0.74783118595E+02  0.00000000000E+00 0. -1.
         -2    1    3    3    0  502  0.45560011923E+01  0.31231066052E+02  0.44192566254E+03  0.44305127000E+03  0.00000000000E+00 0.  1.
<mgrwt>
<rscale>  0 0.91299917E+02</rscale>
<asrwt>0</asrwt>
<pdfrwt beam="1">  1        2 0.79042767E-01 0.91299917E+02</pdfrwt>
<pdfrwt beam="2">  1       -2 0.62401055E-03 0.91299917E+02</pdfrwt>
<totfact> 0.21661844E+05</totfact>
</mgrwt>
</event>
<event>
 5    1  0.3854342E+001  0.9222223E+02  0.7546771E-02  0.1297558E+00
         -1   -1    0    0    0  501 -0.00000000000E+00  0.00000000000E+00  0.40643935576E+01  0.40643935576E+01  0.00000000000E+00 0.  1.
          1   -1    0    0  501    0  0.00000000000E+00 -0.00000000000E+00 -0.52313711959E+03  0.52313711959E+03  0.00000000000E+00 0. -1.
         23    2    1    2    0    0  0.00000000000E+00  0.00000000000E+00 -0.51907272603E+03  0.52720151315E+03  0.92222234599E+02 0.  0.
          2    1    3    3  502    0  0.19263686715E+02  0.20775431761E+02 -0.46750957585E+03  0.46836728291E+03  0.00000000000E+00 0. -1.
         -2    1    3    3    0  502 -0.19263686715E+02 -0.20775431761E+02 -0.51563150181E+02  0.58834230235E+02  0.00000000000E+00 0.  1.
<mgrwt>
<rscale>  0 0.92222235E+02</rscale>
<asrwt>0</asrwt>
<pdfrwt beam="2">  1        1 0.80482571E-01 0.92222235E+02</pdfrwt>
<pdfrwt beam="1">  1       -1 0.62529180E-03 0.92222235E+02</pdfrwt>
<totfact> 0.13580403E+05</totfact>
</mgrwt>
</event>
<event>
 5    1  0.3854342E+001  0.7872796E+02  0.7546771E-02  0.1332701E+00
         -2   -1    0    0    0  501 -0.00000000000E+00  0.00000000000E+00  0.47704619401E+01  0.47704619401E+01  0.00000000000E+00 0. -1.
          2   -1    0    0  501    0  0.00000000000E+00 -0.00000000000E+00 -0.32481612583E+03  0.32481612583E+03  0.00000000000E+00 0.  1.
         23    2    1    2    0    0  0.00000000000E+00  0.00000000000E+00 -0.32004566389E+03  0.32958658777E+03  0.78727961127E+02 0.  0.
          2    1    3    3  502    0 -0.23087307640E+02  0.21915547354E+02 -0.63081906669E+02  0.70658629614E+02  0.00000000000E+00 0. -1.
         -2    1    3    3    0  502  0.23087307640E+02 -0.21915547354E+02 -0.25696375722E+03  0.25892795815E+03  0.00000000000E+00 0.  1.
<mgrwt>
<rscale>  0 0.78727961E+02</rscale>
<asrwt>0</asrwt>
<pdfrwt beam="2">  1        2 0.49971715E-01 0.78727961E+02</pdfrwt>
<pdfrwt beam="1">  1       -2 0.73391718E-03 0.78727961E+02</pdfrwt>
<totfact> 0.27271865E+05</totfact>
</mgrwt>
</event>
<event>
 5    1  0.3854342E+001  0.8621764E+02  0.7546771E-02  0.1312279E+00
          2   -1    0    0  501    0  0.00000000000E+00  0.00000000000E+00  0.44902279552E+03  0.44902279552E+03  0.00000000000E+00 0. -1.
         -2   -1    0    0    0  501 -0.00000000000E+00 -0.00000000000E+00 -0.41386996185E+01  0.41386996185E+01  0.00000000000E+00 0.  1.
         23    2    1    2    0    0  0.00000000000E+00  0.00000000000E+00  0.44488409590E+03  0.45316149513E+03  0.86217642569E+02 0.  0.
          2    1    3    3  502    0  0.24588077074E+02  0.22271989092E+02  0.36712634168E+03  0.36862225352E+03  0.00000000000E+00 0. -1.
         -2    1    3    3    0  502 -0.24588077074E+02 -0.22271989092E+02  0.77757754213E+02  0.84539241613E+02  0.00000000000E+00 0.  1.
<mgrwt>
<rscale>  0 0.86217643E+02</rscale>
<asrwt>0</asrwt>
<pdfrwt beam="1">  1        2 0.69080391E-01 0.86217643E+02</pdfrwt>
<pdfrwt beam="2">  1       -2 0.63672337E-03 0.86217643E+02</pdfrwt>
<totfact> 0.24098196E+05</totfact>
</mgrwt>
</event>
<event>
 5    1  0.3854342E+001  0.9062758E+02  0.7546771E-02  0.1301339E+00
         -1   -1    0    0    0  501 -0.00000000000E+00  0.00000000000E+00  0.51664321167E+02  0.51664321167E+02  0.00000000000E+00 0.  1.
          1   -1    0    0  501    0  0.00000000000E+00 -0.00000000000E+00 -0.39743857278E+02  0.39743857278E+02  0.00000000000E+00 0. -1.
         23    2    1    2    0    0  0.00000000000E+00  0.00000000000E+00  0.11920463889E+02  0.91408178446E+02  0.90627576529E+02 0.  0.
          2    1    3    3  502    0 -0.27192242521E+02  0.17632367987E+02 -0.25983061458E+02  0.41538391120E+02  0.00000000000E+00 0. -1.
         -2    1    3    3    0  502  0.27192242521E+02 -0.17632367987E+02  0.37903525347E+02  0.49869787325E+02  0.00000000000E+00 0.  1.
<mgrwt>
<rscale>  0 0.90627577E+02</rscale>
<asrwt>0</asrwt>
<pdfrwt beam="2">  1        1 0.61144395E-02 0.90627577E+02</pdfrwt>
<pdfrwt beam="1">  1       -1 0.79483571E-02 0.90627577E+02</pdfrwt>
<totfact> 0.92133376E+04</totfact>
</mgrwt>
</event>
<event>
 5    1  0.3854342E+001  0.9525905E+02  0.7546771E-02  0.1290594E+00
          2   -1    0    0  501    0  0.00000000000E+00  0.00000000000E+00  0.47475724215E+03  0.47475724215E+03  0.00000000000E+00 0. -1.
         -2   -1    0    0    0  501 -0.00000000000E+00 -0.00000000000E+00 -0.47783822289E+01  0.47783822289E+01  0.00000000000E+00 0.  1.
         23    2    1    2    0    0  0.00000000000E+00  0.00000000000E+00  0.46997885992E+03  0.47953562438E+03  0.95259048262E+02 0.  0.
          2    1    3    3  502    0 -0.34522261302E+02 -0.32128452854E+02  0.26858844936E+03  0.27269722979E+03  0.00000000000E+00 0. -1.
         -2    1    3    3    0  502  0.34522261302E+02  0.32128452854E+02  0.20139041057E+03  0.20683839459E+03  0.00000000000E+00 0.  1.
<mgrwt>
<rscale>  0 0.95259048E+02</rscale>
<asrwt>0</asrwt>
<pdfrwt beam="1">  1        2 0.73039539E-01 0.95259048E+02</pdfrwt>
<pdfrwt beam="2">  1       -2 0.73513610E-03 0.95259048E+02</pdfrwt>
<totfact> 0.18858596E+05</totfact>
</mgrwt>
</event>
<event>
 5    1  0.3854342E+001  0.9009675E+02  0.7546771E-02  0.1302618E+00
          2   -1    0    0  501    0  0.00000000000E+00  0.00000000000E+00  0.10174755185E+02  0.10174755185E+02  0.00000000000E+00 0. -1.
         -2   -1    0    0    0  501 -0.00000000000E+00 -0.00000000000E+00 -0.19945009747E+03  0.19945009747E+03  0.00000000000E+00 0.  1.
         23    2    1    2    0    0  0.00000000000E+00  0.00000000000E+00 -0.18927534228E+03  0.20962485265E+03  0.90096746077E+02 0.  0.
          2    1    3    3  502    0  0.21177966041E+02  0.42588558785E+01 -0.18661337325E+03  0.18785950914E+03  0.00000000000E+00 0.  1.
         -2    1    3    3    0  502 -0.21177966041E+02 -0.42588558785E+01 -0.26619690312E+01  0.21765343511E+02  0.00000000000E+00 0. -1.
<mgrwt>
<rscale>  0 0.90096746E+02</rscale>
<asrwt>0</asrwt>
<pdfrwt beam="1">  1        2 0.15653470E-02 0.90096746E+02</pdfrwt>
<pdfrwt beam="2">  1       -2 0.30684629E-01 0.90096746E+02</pdfrwt>
<totfact> 0.64319611E+04</totfact>
</mgrwt>
</event>
<event>
 5    1  0.3854342E+001  0.9105089E+02  0.7546771E-02  0.1300327E+00
          1   -1    0    0  501    0  0.00000000000E+00  0.00000000000E+00  0.66583354078E+02  0.66583354078E+02  0.00000000000E+00 0. -1.
         -1   -1    0    0    0  501 -0.00000000000E+00 -0.00000000000E+00 -0.31127394449E+02  0.31127394449E+02  0.00000000000E+00 0.  1.
         23    2    1    2    0    0  0.00000000000E+00  0.00000000000E+00  0.35455959629E+02  0.97710748527E+02  0.91050894034E+02 0.  0.
          2    1    3    3  502    0 -0.56105466452E+01 -0.36633606302E+02  0.46101780965E+02  0.59151276846E+02  0.00000000000E+00 0. -1.
         -2    1    3    3    0  502  0.56105466452E+01  0.36633606302E+02 -0.10645821335E+02  0.38559471681E+02  0.00000000000E+00 0.  1.
<mgrwt>
<rscale>  0 0.91050894E+02</rscale>
<asrwt>0</asrwt>
<pdfrwt beam="1">  1        1 0.10243593E-01 0.91050894E+02</pdfrwt>
<pdfrwt beam="2">  1       -1 0.47888299E-02 0.91050894E+02</pdfrwt>
<totfact> 0.98285673E+04</totfact>
</mgrwt>
</event>
<event>
 5    1  0.3854342E+001  0.9010267E+02  0.7546771E-02  0.1302603E+00
          1   -1    0    0  501    0  0.00000000000E+00  0.00000000000E+00  0.46077813737E+03  0.46077813737E+03  0.00000000000E+00 0. -1.
         -1   -1    0    0    0  501 -0.00000000000E+00 -0.00000000000E+00 -0.44047722652E+01  0.44047722652E+01  0.00000000000E+00 0.  1.
         23    2    1    2    0    0  0.00000000000E+00  0.00000000000E+00  0.45637336511E+03  0.46518290964E+03  0.90102669437E+02 0.  0.
          2    1    3    3  502    0 -0.13696659960E+02 -0.20827571919E+02  0.42192873373E+03  0.42266445627E+03  0.00000000000E+00 0. -1.
         -2    1    3    3    0  502  0.13696659960E+02  0.20827571919E+02  0.34444631374E+02  0.42518453365E+02  0.00000000000E+00 0.  1.
<mgrwt>
<rscale>  0 0.90102669E+02</rscale>
<asrwt>0</asrwt>
<pdfrwt beam="1">  1        1 0.70888906E-01 0.90102669E+02</pdfrwt>
<pdfrwt beam="2">  1       -1 0.67765764E-03 0.90102669E+02</pdfrwt>
<totfact> 0.14221007E+05</totfact>
</mgrwt>
</event>
<event>
 5    1  0.3854342E+001  0.9446918E+02  0.7546771E-02  0.1292376E+00
          1   -1    0    0  501    0  0.00000000000E+00  0.00000000000E+00  0.14497561608E+02  0.14497561608E+02  0.00000000000E+00 0. -1.
         -1   -1    0    0    0  501 -0.00000000000E+00 -0.00000000000E+00 -0.15389528631E+03  0.15389528631E+03  0.00000000000E+00 0.  1.
         23    2    1    2    0    0  0.00000000000E+00  0.00000000000E+00 -0.13939772470E+03  0.16839284792E+03  0.94469177925E+02 0.  0.
          2    1    3    3  502    0 -0.13450772620E+02 -0.38041652359E+02 -0.25926715234E+02  0.47961288151E+02  0.00000000000E+00 0. -1.
         -2    1    3    3    0  502  0.13450772620E+02  0.38041652359E+02 -0.11347100947E+03  0.12043155976E+03  0.00000000000E+00 0.  1.
<mgrwt>
<rscale>  0 0.94469178E+02</rscale>
<asrwt>0</asrwt>
<pdfrwt beam="1">  1        1 0.22303940E-02 0.94469178E+02</pdfrwt>
<pdfrwt beam="2">  1       -1 0.23676199E-01 0.94469178E+02</pdfrwt>
<totfact> 0.67785529E+04</totfact>
</mgrwt>
</event>
<event>
 5    1  0.3854342E+001  0.9258364E+02  0.7546771E-02  0.1296713E+00
          2   -1    0    0  501    0  0.00000000000E+00  0.00000000000E+00  0.11977519389E+03  0.11977519389E+03  0.00000000000E+00 0. -1.
         -2   -1    0    0    0  501 -0.00000000000E+00 -0.00000000000E+00 -0.17891290135E+02  0.17891290135E+02  0.00000000000E+00 0.  1.
         23    2    1    2    0    0  0.00000000000E+00  0.00000000000E+00  0.10188390376E+03  0.13766648403E+03  0.92583643154E+02 0.  0.
          2    1    3    3  502    0 -0.34341527832E+02 -0.27630095605E+02  0.71979420413E+02  0.84402604699E+02  0.00000000000E+00 0. -1.
         -2    1    3    3    0  502  0.34341527832E+02  0.27630095605E+02  0.29904483345E+02  0.53263879329E+02  0.00000000000E+00 0.  1.
<mgrwt>
<rscale>  0 0.92583643E+02</rscale>
<asrwt>0</asrwt>
<pdfrwt beam="1">  1        2 0.18426952E-01 0.92583643E+02</pdfrwt>
<pdfrwt beam="2">  1       -2 0.27525063E-02 0.92583643E+02</pdfrwt>
<totfact> 0.12445492E+05</totfact>
</mgrwt>
</event>
<event>
 5    1  0.3854342E+001  0.9745675E+02  0.7546771E-02  0.1285737E+00
          1   -1    0    0  501    0  0.00000000000E+00  0.00000000000E+00  0.11930858786E+04  0.11930858786E+04  0.00000000000E+00 0. -1.
         -1   -1    0    0    0  501 -0.00000000000E+00 -0.00000000000E+00 -0.19901792486E+01  0.19901792486E+01  0.00000000000E+00 0.  1.
         23    2    1    2    0    0  0.00000000000E+00  0.00000000000E+00  0.11910956994E+04  0.11950760579E+04  0.97456754664E+02 0.  0.
          2    1    3    3  502    0 -0.13355422711E+02 -0.19789115627E+02  0.11164539433E+04  0.11167091761E+04  0.00000000000E+00 0. -1.
         -2    1    3    3    0  502  0.13355422711E+02  0.19789115627E+02  0.74641756066E+02  0.78366881791E+02  0.00000000000E+00 0.  1.
<mgrwt>
<rscale>  0 0.97456755E+02</rscale>
<asrwt>0</asrwt>
<pdfrwt beam="1">  1        1 0.18355110E+00 0.97456755E+02</pdfrwt>
<pdfrwt beam="2">  1       -1 0.30618238E-03 0.97456755E+02</pdfrwt>
<totfact> 0.10697384E+05</totfact>
</mgrwt>
</event>
<event>
 5    1  0.3854342E+001  0.9000365E+02  0.7546771E-02  0.1302843E+00
         -1   -1    0    0    0  501 -0.00000000000E+00  0.00000000000E+00  0.64426052330E+00  0.64426052330E+00  0.00000000000E+00 0.  1.
          1   -1    0    0  501    0  0.00000000000E+00 -0.00000000000E+00 -0.31433932372E+04  0.31433932372E+04  0.00000000000E+00 0. -1.
         23    2    1    2    0    0  0.00000000000E+00  0.00000000000E+00 -0.31427489767E+04  0.31440374977E+04  0.90003648191E+02 0.  0.
          2    1    3    3  502    0 -0.10104807637E+02  0.43588607735E+02 -0.17392326598E+04  0.17398081270E+04  0.00000000000E+00 0. -1.
         -2    1    3    3    0  502  0.10104807637E+02 -0.43588607735E+02 -0.14035163169E+04  0.14042293707E+04  0.00000000000E+00 0.  1.
<mgrwt>
<rscale>  0 0.90003648E+02</rscale>
<asrwt>0</asrwt>
<pdfrwt beam="2">  1        1 0.48359903E+00 0.90003648E+02</pdfrwt>
<pdfrwt beam="1">  1       -1 0.99116990E-04 0.90003648E+02</pdfrwt>
<totfact> 0.27678207E+04</totfact>
</mgrwt>
</event>
<event>
 5    1  0.3854342E+001  0.8887974E+02  0.7546771E-02  0.1305587E+00
          4   -1    0    0  501    0  0.00000000000E+00  0.00000000000E+00  0.63229917367E+03  0.63229917367E+03  0.00000000000E+00 0. -1.
         -4   -1    0    0    0  501 -0.00000000000E+00 -0.00000000000E+00 -0.31233665027E+01  0.31233665027E+01  0.00000000000E+00 0.  1.
         23    2    1    2    0    0  0.00000000000E+00  0.00000000000E+00  0.62917580717E+03  0.63542254017E+03  0.88879740295E+02 0.  0.
          2    1    3    3  502    0 -0.14998817203E+02 -0.33519596659E+02  0.49351526741E+03  0.49487962884E+03  0.00000000000E+00 0. -1.
         -2    1    3    3    0  502  0.14998817203E+02  0.33519596659E+02  0.13566053976E+03  0.14054291133E+03  0.00000000000E+00 0.  1.
<mgrwt>
<rscale>  0 0.88879740E+02</rscale>
<asrwt>0</asrwt>
<pdfrwt beam="1">  1        4 0.97276694E-01 0.88879740E+02</pdfrwt>
<pdfrwt beam="2">  1       -4 0.48051843E-03 0.88879740E+02</pdfrwt>
<totfact> 0.11649591E+04</totfact>
</mgrwt>
</event>
<event>
 5    1  0.3854342E+001  0.9156693E+02  0.7546771E-02  0.1299101E+00
         -2   -1    0    0    0  501 -0.00000000000E+00  0.00000000000E+00  0.37690072633E+01  0.37690072633E+01  0.00000000000E+00 0.  1.
          2   -1    0    0  501    0  0.00000000000E+00 -0.00000000000E+00 -0.55614789327E+03  0.55614789327E+03  0.00000000000E+00 0. -1.
         23    2    1    2    0    0  0.00000000000E+00  0.00000000000E+00 -0.55237888601E+03  0.55991690053E+03  0.91566925235E+02 0.  0.
          2    1    3    3  502    0 -0.95929317841E+01 -0.40666376786E+02 -0.16173462216E+03  0.16704450468E+03  0.00000000000E+00 0. -1.
         -2    1    3    3    0  502  0.95929317841E+01  0.40666376786E+02 -0.39064426385E+03  0.39287239585E+03  0.00000000000E+00 0.  1.
<mgrwt>
<rscale>  0 0.91566925E+02</rscale>
<asrwt>0</asrwt>
<pdfrwt beam="2">  1        2 0.85561268E-01 0.91566925E+02</pdfrwt>
<pdfrwt beam="1">  1       -2 0.57984691E-03 0.91566925E+02</pdfrwt>
<totfact> 0.22032674E+05</totfact>
</mgrwt>
</event>
<event>
 5    1  0.3854342E+001  0.9064775E+02  0.7546771E-02  0.1301291E+00
          2   -1    0    0  501    0  0.00000000000E+00  0.00000000000E+00  0.58582941927E+02  0.58582941927E+02  0.00000000000E+00 0. -1.
         -2   -1    0    0    0  501 -0.00000000000E+00 -0.00000000000E+00 -0.35065734108E+02  0.35065734108E+02  0.00000000000E+00 0.  1.
         23    2    1    2    0    0  0.00000000000E+00  0.00000000000E+00  0.23517207819E+02  0.93648676035E+02  0.90647754851E+02 0.  0.
          2    1    3    3  502    0  0.13701182018E+02 -0.25006101733E+02  0.48155980617E+02  0.55964506447E+02  0.00000000000E+00 0. -1.
         -2    1    3    3    0  502 -0.13701182018E+02  0.25006101733E+02 -0.24638772798E+02  0.37684169589E+02  0.00000000000E+00 0.  1.
<mgrwt>
<rscale>  0 0.90647755E+02</rscale>
<asrwt>0</asrwt>
<pdfrwt beam="1">  1        2 0.90127603E-02 0.90647755E+02</pdfrwt>
<pdfrwt beam="2">  1       -2 0.53947283E-02 0.90647755E+02</pdfrwt>
<totfact> 0.10713774E+05</totfact>
</mgrwt>
</event>
<event>
 5    1  0.3854342E+001  0.8384560E+02  0.7546771E-02  0.1318479E+00
          2   -1    0    0  501    0  0.00000000000E+00  0.00000000000E+00  0.27406226215E+02  0.27406226215E+02  0.00000000000E+00 0. -1.
         -2   -1    0    0    0  501 -0.00000000000E+00 -0.00000000000E+00 -0.64128538707E+02  0.64128538707E+02  0.00000000000E+00 0.  1.
         23    2    1    2    0    0  0.00000000000E+00  0.00000000000E+00 -0.36722312492E+02  0.91534764922E+02  0.83845601880E+02 0.  0.
          2    1    3    3  502    0 -0.22669203764E+02  0.34820632014E+02 -0.12267907204E+02  0.43322866483E+02  0.00000000000E+00 0. -1.
         -2    1    3    3    0  502  0.22669203764E+02 -0.34820632014E+02 -0.24454405288E+02  0.48211898439E+02  0.00000000000E+00 0.  1.
<mgrwt>
<rscale>  0 0.83845602E+02</rscale>
<asrwt>0</asrwt>
<pdfrwt beam="1">  1        2 0.42163425E-02 0.83845602E+02</pdfrwt>
<pdfrwt beam="2">  1       -2 0.98659290E-02 0.83845602E+02</pdfrwt>
<totfact> 0.11064327E+05</totfact>
</mgrwt>
</event>
<event>
 5    1  0.3854342E+001  0.8886096E+02  0.7546771E-02  0.1305634E+00
         -1   -1    0    0    0  501 -0.00000000000E+00  0.00000000000E+00  0.49933828088E+02  0.49933828088E+02  0.00000000000E+00 0.  1.
          1   -1    0    0  501    0  0.00000000000E+00 -0.00000000000E+00 -0.39533671624E+02  0.39533671624E+02  0.00000000000E+00 0. -1.
         23    2    1    2    0    0  0.00000000000E+00  0.00000000000E+00  0.10400156463E+02  0.89467499712E+02  0.88860960215E+02 0.  0.
          2    1    3    3  502    0  0.13118309427E+02 -0.16735072719E+02 -0.34077931890E+02  0.40167874514E+02  0.00000000000E+00 0. -1.
         -2    1    3    3    0  502 -0.13118309427E+02  0.16735072719E+02  0.44478088353E+02  0.49299625198E+02  0.00000000000E+00 0.  1.
<mgrwt>
<rscale>  0 0.88860960E+02</rscale>
<asrwt>0</asrwt>
<pdfrwt beam="2">  1        1 0.60821033E-02 0.88860960E+02</pdfrwt>
<pdfrwt beam="1">  1       -1 0.76821274E-02 0.88860960E+02</pdfrwt>
<totfact> 0.97306931E+04</totfact>
</mgrwt>
</event>
<event>
 5    1  0.3854342E+001  0.9193822E+02  0.7546771E-02  0.1298225E+00
         -4   -1    0    0    0  501 -0.00000000000E+00  0.00000000000E+00  0.15671920817E+02  0.15671920817E+02  0.00000000000E+00 0.  1.
          4   -1    0    0  501    0  0.00000000000E+00 -0.00000000000E+00 -0.13483727477E+03  0.13483727477E+03  0.00000000000E+00 0. -1.
         23    2    1    2    0    0  0.00000000000E+00  0.00000000000E+00 -0.11916535395E+03  0.15050919558E+03  0.91938220416E+02 0.  0.
          2    1    3    3  502    0  0.19158820915E+02 -0.26156246556E+02 -0.11293076532E+03  0.11749283982E+03  0.00000000000E+00 0. -1.
         -2    1    3    3    0  502 -0.19158820915E+02  0.26156246556E+02 -0.62345886307E+01  0.33016355767E+02  0.00000000000E+00 0.  1.
<mgrwt>
<rscale>  0 0.91938220E+02</rscale>
<asrwt>0</asrwt>
<pdfrwt beam="2">  1        4 0.20744195E-01 0.91938220E+02</pdfrwt>
<pdfrwt beam="1">  1       -4 0.24110648E-02 0.91938220E+02</pdfrwt>
<totfact> 0.23123067E+04</totfact>
</mgrwt>
</event>
<event>
 5    1  0.3854342E+001  0.9128953E+02  0.7546771E-02  0.1299759E+00
         -1   -1    0    0    0  501 -0.00000000000E+00  0.00000000000E+00  0.29693060655E+02  0.29693060655E+02  0.00000000000E+00 0.  1.
          1   -1    0    0  501    0  0.00000000000E+00 -0.00000000000E+00 -0.70166042701E+02  0.70166042701E+02  0.00000000000E+00 0. -1.
         23    2    1    2    0    0  0.00000000000E+00  0.00000000000E+00 -0.40472982046E+02  0.99859103355E+02  0.91289529779E+02 0.  0.
          2    1    3    3  502    0 -0.22170774344E+01 -0.31755940335E+02 -0.56019488651E+02  0.64432431955E+02  0.00000000000E+00 0. -1.
         -2    1    3    3    0  502  0.22170774344E+01  0.31755940335E+02  0.15546506605E+02  0.35426671400E+02  0.00000000000E+00 0.  1.
<mgrwt>
<rscale>  0 0.91289530E+02</rscale>
<asrwt>0</asrwt>
<pdfrwt beam="2">  1        1 0.10794776E-01 0.91289530E+02</pdfrwt>
<pdfrwt beam="1">  1       -1 0.45681632E-02 0.91289530E+02</pdfrwt>
<totfact> 0.98367061E+04</totfact>
</mgrwt>
</event>
<event>
 5    1  0.3854342E+001  0.9638268E+02  0.7546771E-02  0.1288092E+00
         -2   -1    0    0    0  501 -0.00000000000E+00  0.00000000000E+00  0.68103982547E+01  0.68103982547E+01  0.00000000000E+00 0.  1.
          2   -1    0    0  501    0  0.00000000000E+00 -0.00000000000E+00 -0.34100870051E+03  0.34100870051E+03  0.00000000000E+00 0. -1.
         23    2    1    2    0    0  0.00000000000E+00  0.00000000000E+00 -0.33419830226E+03  0.34781909877E+03  0.96382676012E+02 0.  0.
          2    1    3    3  502    0  0.24757937441E+01 -0.28996319426E+02 -0.30571804472E+03  0.30710004715E+03  0.00000000000E+00 0. -1.
         -2    1    3    3    0  502 -0.24757937441E+01  0.28996319426E+02 -0.28480257542E+02  0.40719051617E+02  0.00000000000E+00 0.  1.
<mgrwt>
<rscale>  0 0.96382676E+02</rscale>
<asrwt>0</asrwt>
<pdfrwt beam="2">  1        2 0.52462875E-01 0.96382676E+02</pdfrwt>
<pdfrwt beam="1">  1       -2 0.10477536E-02 0.96382676E+02</pdfrwt>
<totfact> 0.16242070E+05</totfact>
</mgrwt>
</event>
<event>
 5    1  0.3854342E+001  0.8774370E+02  0.7546771E-02  0.1308409E+00
          1   -1    0    0  501    0  0.00000000000E+00  0.00000000000E+00  0.25785200205E+02  0.25785200205E+02  0.00000000000E+00 0. -1.
         -1   -1    0    0    0  501 -0.00000000000E+00 -0.00000000000E+00 -0.74645110471E+02  0.74645110471E+02  0.00000000000E+00 0.  1.
         23    2    1    2    0    0  0.00000000000E+00  0.00000000000E+00 -0.48859910266E+02  0.10043031068E+03  0.87743697615E+02 0.  0.
          2    1    3    3  502    0 -0.17593546779E+02 -0.38841063611E+02 -0.36246286778E+02  0.55963867056E+02  0.00000000000E+00 0. -1.
         -2    1    3    3    0  502  0.17593546779E+02  0.38841063611E+02 -0.12613623488E+02  0.44466443620E+02  0.00000000000E+00 0.  1.
<mgrwt>
<rscale>  0 0.87743698E+02</rscale>
<asrwt>0</asrwt>
<pdfrwt beam="1">  1        1 0.39669540E-02 0.87743698E+02</pdfrwt>
<pdfrwt beam="2">  1       -1 0.11483863E-01 0.87743698E+02</pdfrwt>
<totfact> 0.94445413E+04</totfact>
</mgrwt>
</event>
<event>
 5    1  0.3854342E+001  0.9134986E+02  0.7546771E-02  0.1299615E+00
         -2   -1    0    0    0  501 -0.00000000000E+00  0.00000000000E+00  0.33652795077E+01  0.33652795077E+01  0.00000000000E+00 0.  1.
          2   -1    0    0  501    0  0.00000000000E+00 -0.00000000000E+00 -0.61991861593E+03  0.61991861593E+03  0.00000000000E+00 0. -1.
         23    2    1    2    0    0  0.00000000000E+00  0.00000000000E+00 -0.61655333642E+03  0.62328389544E+03  0.91349864032E+02 0.  0.
          2    1    3    3  502    0 -0.26258896074E+02 -0.18218599673E+02 -0.53091621937E+03  0.53187731573E+03  0.00000000000E+00 0. -1.
         -2    1    3    3    0  502  0.26258896074E+02  0.18218599673E+02 -0.85637117059E+02  0.91406579715E+02  0.00000000000E+00 0.  1.
<mgrwt>
<rscale>  0 0.91349864E+02</rscale>
<asrwt>0</asrwt>
<pdfrwt beam="2">  1        2 0.95372005E-01 0.91349864E+02</pdfrwt>
<pdfrwt beam="1">  1       -2 0.51773580E-03 0.91349864E+02</pdfrwt>
<totfact> 0.22878424E+05</totfact>
</mgrwt>
</event>
<event>
 5    1  0.3854342E+001  0.8902926E+02  0.7546771E-02  0.1305220E+00
          1   -1    0    0  501    0  0.00000000000E+00  0.00000000000E+00  0.13068686795E+03  0.13068686795E+03  0.00000000000E+00 0. -1.
         -1   -1    0    0    0  501 -0.00000000000E+00 -0.00000000000E+00 -0.15162597439E+02  0.15162597439E+02  0.00000000000E+00 0.  1.
         23    2    1    2    0    0  0.00000000000E+00  0.00000000000E+00  0.11552427051E+03  0.14584946539E+03  0.89029261913E+02 0.  0.
          2    1    3    3  502    0 -0.19217788469E+02 -0.38701225943E+02  0.75287567823E+02  0.86806256410E+02  0.00000000000E+00 0. -1.
         -2    1    3    3    0  502  0.19217788469E+02  0.38701225943E+02  0.40236702685E+02  0.59043208975E+02  0.00000000000E+00 0.  1.
<mgrwt>
<rscale>  0 0.89029262E+02</rscale>
<asrwt>0</asrwt>
<pdfrwt beam="1">  1        1 0.20105671E-01 0.89029262E+02</pdfrwt>
<pdfrwt beam="2">  1       -1 0.23327074E-02 0.89029262E+02</pdfrwt>
<totfact> 0.11664109E+05</totfact>
</mgrwt>
</event>
<event>
 5    1  0.3854342E+001  0.9059765E+02  0.7546771E-02  0.1301411E+00
          2   -1    0    0  501    0  0.00000000000E+00  0.00000000000E+00  0.70835417267E+03  0.70835417267E+03  0.00000000000E+00 0. -1.
         -2   -1    0    0    0  501 -0.00000000000E+00 -0.00000000000E+00 -0.28968327066E+01  0.28968327066E+01  0.00000000000E+00 0.  1.
         23    2    1    2    0    0  0.00000000000E+00  0.00000000000E+00  0.70545733997E+03  0.71125100538E+03  0.90597649754E+02 0.  0.
          2    1    3    3  502    0  0.23317982766E+02 -0.17958869702E+02  0.62306202697E+03  0.62375679458E+03  0.00000000000E+00 0. -1.
         -2    1    3    3    0  502 -0.23317982766E+02  0.17958869702E+02  0.82395312991E+02  0.87494210803E+02  0.00000000000E+00 0.  1.
<mgrwt>
<rscale>  0 0.90597650E+02</rscale>
<asrwt>0</asrwt>
<pdfrwt beam="1">  1        2 0.10897743E+00 0.90597650E+02</pdfrwt>
<pdfrwt beam="2">  1       -2 0.44566713E-03 0.90597650E+02</pdfrwt>
<totfact> 0.24182155E+05</totfact>
</mgrwt>
</event>
<event>
 5    1  0.3854342E+001  0.9945747E+02  0.7546771E-02  0.1281441E+00
          2   -1    0    0  501    0  0.00000000000E+00  0.00000000000E+00  0.75796308393E+03  0.75796308393E+03  0.00000000000E+00 0. -1.
         -2   -1    0    0    0  501 -0.00000000000E+00 -0.00000000000E+00 -0.32626223560E+01  0.32626223560E+01  0.00000000000E+00 0.  1.
         23    2    1    2    0    0  0.00000000000E+00  0.00000000000E+00  0.75470046158E+03  0.76122570629E+03  0.99457474384E+02 0.  0.
          2    1    3    3  502    0 -0.42804298431E+02 -0.11863917479E+02  0.54849171296E+03  0.55028730649E+03  0.00000000000E+00 0. -1.
         -2    1    3    3    0  502  0.42804298431E+02  0.11863917479E+02  0.20620874862E+03  0.21093839980E+03  0.00000000000E+00 0.  1.
<mgrwt>
<rscale>  0 0.99457474E+02</rscale>
<asrwt>0</asrwt>
<pdfrwt beam="1">  1        2 0.11660957E+00 0.99457474E+02</pdfrwt>
<pdfrwt beam="2">  1       -2 0.50194250E-03 0.99457474E+02</pdfrwt>
<totfact> 0.19166341E+05</totfact>
</mgrwt>
</event>
<event>
 5    1  0.3854342E+001  0.8690801E+02  0.7546771E-02  0.1310517E+00
          1   -1    0    0  501    0  0.00000000000E+00  0.00000000000E+00  0.88227597430E+03  0.88227597430E+03  0.00000000000E+00 0. -1.
         -1   -1    0    0    0  501 -0.00000000000E+00 -0.00000000000E+00 -0.21402037343E+01  0.21402037343E+01  0.00000000000E+00 0.  1.
         23    2    1    2    0    0  0.00000000000E+00  0.00000000000E+00  0.88013577057E+03  0.88441617804E+03  0.86908005038E+02 0.  0.
          2    1    3    3  502    0 -0.28291386220E+02  0.10050254450E+02  0.75975145100E+03  0.76034444658E+03  0.00000000000E+00 0. -1.
         -2    1    3    3    0  502  0.28291386220E+02 -0.10050254450E+02  0.12038431957E+03  0.12407173146E+03  0.00000000000E+00 0.  1.
<mgrwt>
<rscale>  0 0.86908005E+02</rscale>
<asrwt>0</asrwt>
<pdfrwt beam="1">  1        1 0.13573448E+00 0.86908005E+02</pdfrwt>
<pdfrwt beam="2">  1       -1 0.32926282E-03 0.86908005E+02</pdfrwt>
<totfact> 0.15845796E+05</totfact>
</mgrwt>
</event>
<event>
 5    1  0.3854342E+001  0.8962759E+02  0.7546771E-02  0.1303756E+00
          2   -1    0    0  501    0  0.00000000000E+00  0.00000000000E+00  0.28564524191E+03  0.28564524191E+03  0.00000000000E+00 0. -1.
         -2   -1    0    0    0  501 -0.00000000000E+00 -0.00000000000E+00 -0.70306651612E+01  0.70306651612E+01  0.00000000000E+00 0.  1.
         23    2    1    2    0    0  0.00000000000E+00  0.00000000000E+00  0.27861457675E+03  0.29267590707E+03  0.89627586172E+02 0.  0.
          2    1    3    3  502    0  0.25520522789E+02  0.19540948891E+02  0.37336307981E+02  0.49266070075E+02  0.00000000000E+00 0.  1.
         -2    1    3    3    0  502 -0.25520522789E+02 -0.19540948891E+02  0.24127826877E+03  0.24340983700E+03  0.00000000000E+00 0. -1.
<mgrwt>
<rscale>  0 0.89627586E+02</rscale>
<asrwt>0</asrwt>
<pdfrwt beam="1">  1        2 0.43945413E-01 0.89627586E+02</pdfrwt>
<pdfrwt beam="2">  1       -2 0.10816410E-02 0.89627586E+02</pdfrwt>
<totfact> 0.18465520E+05</totfact>
</mgrwt>
</event>
<event>
 5    1  0.3854342E+001  0.9273025E+02  0.7546771E-02  0.1296372E+00
          2   -1    0    0  501    0  0.00000000000E+00  0.00000000000E+00  0.89852490230E+03  0.89852490230E+03  0.00000000000E+00 0. -1.
         -2   -1    0    0    0  501 -0.00000000000E+00 -0.00000000000E+00 -0.23925044612E+01  0.23925044612E+01  0.00000000000E+00 0.  1.
         23    2    1    2    0    0  0.00000000000E+00  0.00000000000E+00  0.89613239784E+03  0.90091740677E+03  0.92730250453E+02 0.  0.
          2    1    3    3  502    0  0.19371982009E+02  0.39552488999E+02  0.58887399863E+03  0.59051863589E+03  0.00000000000E+00 0. -1.
         -2    1    3    3    0  502 -0.19371982009E+02 -0.39552488999E+02  0.30725839922E+03  0.31039877088E+03  0.00000000000E+00 0.  1.
<mgrwt>
<rscale>  0 0.92730250E+02</rscale>
<asrwt>0</asrwt>
<pdfrwt beam="1">  1        2 0.13823433E+00 0.92730250E+02</pdfrwt>
<pdfrwt beam="2">  1       -2 0.36807833E-03 0.92730250E+02</pdfrwt>
<totfact> 0.23709724E+05</totfact>
</mgrwt>
</event>
<event>
 5    1  0.3854342E+001  0.9190190E+02  0.7546771E-02  0.1298310E+00
          2   -1    0    0  501    0  0.00000000000E+00  0.00000000000E+00  0.15824109292E+04  0.15824109292E+04  0.00000000000E+00 0.  1.
         -2   -1    0    0    0  501 -0.00000000000E+00 -0.00000000000E+00 -0.13343498307E+01  0.13343498307E+01  0.00000000000E+00 0. -1.
         23    2    1    2    0    0  0.00000000000E+00  0.00000000000E+00  0.15810765794E+04  0.15837452790E+04  0.91901898903E+02 0.  0.
          2    1    3    3  502    0 -0.77128910986E+01  0.40374620602E+02  0.43657272118E+03  0.43850352286E+03  0.00000000000E+00 0. -1.
         -2    1    3    3    0  502  0.77128910986E+01 -0.40374620602E+02  0.11445038582E+04  0.11452417562E+04  0.00000000000E+00 0.  1.
<mgrwt>
<rscale>  0 0.91901899E+02</rscale>
<asrwt>0</asrwt>
<pdfrwt beam="1">  1        2 0.24344633E+00 0.91901899E+02</pdfrwt>
<pdfrwt beam="2">  1       -2 0.20528585E-03 0.91901899E+02</pdfrwt>
<totfact> 0.22597283E+05</totfact>
</mgrwt>
</event>
<event>
 5    1  0.3854342E+001  0.9237896E+02  0.7546771E-02  0.1297191E+00
         -2   -1    0    0    0  501 -0.00000000000E+00  0.00000000000E+00  0.18498206005E+02  0.18498206005E+02  0.00000000000E+00 0.  1.
          2   -1    0    0  501    0  0.00000000000E+00 -0.00000000000E+00 -0.11533377873E+03  0.11533377873E+03  0.00000000000E+00 0. -1.
         23    2    1    2    0    0  0.00000000000E+00  0.00000000000E+00 -0.96835572724E+02  0.13383198473E+03  0.92378958606E+02 0.  0.
          2    1    3    3  502    0 -0.20538521309E+02  0.39687130825E+02 -0.65348005657E+02  0.79166034724E+02  0.00000000000E+00 0. -1.
         -2    1    3    3    0  502  0.20538521309E+02 -0.39687130825E+02 -0.31487567067E+02  0.54665950010E+02  0.00000000000E+00 0.  1.
<mgrwt>
<rscale>  0 0.92378959E+02</rscale>
<asrwt>0</asrwt>
<pdfrwt beam="2">  1        2 0.17743658E-01 0.92378959E+02</pdfrwt>
<pdfrwt beam="1">  1       -2 0.28458779E-02 0.92378959E+02</pdfrwt>
<totfact> 0.12370910E+05</totfact>
</mgrwt>
</event>
<event>
 5    1  0.3854342E+001  0.9585003E+02  0.7546771E-02  0.1289273E+00
         -3   -1    0    0    0  501 -0.00000000000E+00  0.00000000000E+00  0.91331780844E+02  0.91331780844E+02  0.00000000000E+00 0.  1.
          3   -1    0    0  501    0  0.00000000000E+00 -0.00000000000E+00 -0.25147948704E+02  0.25147948704E+02  0.00000000000E+00 0. -1.
         23    2    1    2    0    0  0.00000000000E+00  0.00000000000E+00  0.66183832140E+02  0.11647972955E+03  0.95850027432E+02 0.  0.
          2    1    3    3  502    0  0.42907418128E+02 -0.17524291971E+02  0.47908721991E+02  0.66658780234E+02  0.00000000000E+00 0. -1.
         -2    1    3    3    0  502 -0.42907418128E+02  0.17524291971E+02  0.18275110150E+02  0.49820949314E+02  0.00000000000E+00 0.  1.
<mgrwt>
<rscale>  0 0.95850027E+02</rscale>
<asrwt>0</asrwt>
<pdfrwt beam="2">  1        3 0.38689152E-02 0.95850027E+02</pdfrwt>
<pdfrwt beam="1">  1       -3 0.14051043E-01 0.95850027E+02</pdfrwt>
<totfact> 0.29220761E+04</totfact>
</mgrwt>
</event>
<event>
 5    1  0.3854342E+001  0.9087025E+02  0.7546771E-02  0.1300758E+00
         -3   -1    0    0    0  501 -0.00000000000E+00  0.00000000000E+00  0.33917361221E+01  0.33917361221E+01  0.00000000000E+00 0.  1.
          3   -1    0    0  501    0  0.00000000000E+00 -0.00000000000E+00 -0.60864127805E+03  0.60864127805E+03  0.00000000000E+00 0. -1.
         23    2    1    2    0    0  0.00000000000E+00  0.00000000000E+00 -0.60524954192E+03  0.61203301417E+03  0.90870250537E+02 0.  0.
          2    1    3    3  502    0 -0.39264379880E+02  0.22676678474E+02 -0.28307245384E+03  0.28668089821E+03  0.00000000000E+00 0. -1.
         -2    1    3    3    0  502  0.39264379880E+02 -0.22676678474E+02 -0.32217708808E+03  0.32535211596E+03  0.00000000000E+00 0.  1.
<mgrwt>
<rscale>  0 0.90870251E+02</rscale>
<asrwt>0</asrwt>
<pdfrwt beam="2">  1        3 0.93637051E-01 0.90870251E+02</pdfrwt>
<pdfrwt beam="1">  1       -3 0.52180594E-03 0.90870251E+02</pdfrwt>
<totfact> 0.15631838E+04</totfact>
</mgrwt>
</event>
<event>
 5    1  0.3854342E+001  0.8961375E+02  0.7546771E-02  0.1303790E+00
         -2   -1    0    0    0  501 -0.00000000000E+00  0.00000000000E+00  0.15896875432E+01  0.15896875432E+01  0.00000000000E+00 0.  1.
          2   -1    0    0  501    0  0.00000000000E+00 -0.00000000000E+00 -0.12629248453E+04  0.12629248453E+04  0.00000000000E+00 0. -1.
         23    2    1    2    0    0  0.00000000000E+00  0.00000000000E+00 -0.12613351577E+04  0.12645145328E+04  0.89613746592E+02 0.  0.
          2    1    3    3  502    0 -0.37004452572E+02  0.20925989330E+02 -0.43089776976E+03  0.43298973951E+03  0.00000000000E+00 0.  1.
         -2    1    3    3    0  502  0.37004452572E+02 -0.20925989330E+02 -0.83043738795E+03  0.83152479328E+03  0.00000000000E+00 0. -1.
<mgrwt>
<rscale>  0 0.89613747E+02</rscale>
<asrwt>0</asrwt>
<pdfrwt beam="2">  1        2 0.19429605E+00 0.89613747E+02</pdfrwt>
<pdfrwt beam="1">  1       -2 0.24456741E-03 0.89613747E+02</pdfrwt>
<totfact> 0.25846051E+05</totfact>
</mgrwt>
</event>
<event>
 5    1  0.3854342E+001  0.9202407E+02  0.7546771E-02  0.1298023E+00
          4   -1    0    0  501    0  0.00000000000E+00  0.00000000000E+00  0.44166559383E+03  0.44166559383E+03  0.00000000000E+00 0. -1.
         -4   -1    0    0    0  501 -0.00000000000E+00 -0.00000000000E+00 -0.47934624030E+01  0.47934624030E+01  0.00000000000E+00 0.  1.
         23    2    1    2    0    0  0.00000000000E+00  0.00000000000E+00  0.43687213143E+03  0.44645905624E+03  0.92024071171E+02 0.  0.
          2    1    3    3  502    0  0.44684684995E+02 -0.69073108047E+01  0.25979543610E+03  0.26370077859E+03  0.00000000000E+00 0. -1.
         -2    1    3    3    0  502 -0.44684684995E+02  0.69073108047E+01  0.17707669533E+03  0.18275827764E+03  0.00000000000E+00 0.  1.
<mgrwt>
<rscale>  0 0.92024071E+02</rscale>
<asrwt>0</asrwt>
<pdfrwt beam="1">  1        4 0.67948521E-01 0.92024071E+02</pdfrwt>
<pdfrwt beam="2">  1       -4 0.73745610E-03 0.92024071E+02</pdfrwt>
<totfact> 0.13781496E+04</totfact>
</mgrwt>
</event>
<event>
 5    1  0.3854342E+001  0.9226885E+02  0.7546771E-02  0.1297449E+00
         -1   -1    0    0    0  501 -0.00000000000E+00  0.00000000000E+00  0.17047989717E+02  0.17047989717E+02  0.00000000000E+00 0.  1.
          1   -1    0    0  501    0  0.00000000000E+00 -0.00000000000E+00 -0.12484670343E+03  0.12484670343E+03  0.00000000000E+00 0. -1.
         23    2    1    2    0    0  0.00000000000E+00  0.00000000000E+00 -0.10779871371E+03  0.14189469314E+03  0.92268853168E+02 0.  0.
          2    1    3    3  502    0  0.16768390494E+02  0.19811986853E+02  0.47544888005E+01  0.26387476321E+02  0.00000000000E+00 0.  1.
         -2    1    3    3    0  502 -0.16768390494E+02 -0.19811986853E+02 -0.11255320251E+03  0.11550721682E+03  0.00000000000E+00 0. -1.
<mgrwt>
<rscale>  0 0.92268853E+02</rscale>
<asrwt>0</asrwt>
<pdfrwt beam="2">  1        1 0.19207185E-01 0.92268853E+02</pdfrwt>
<pdfrwt beam="1">  1       -1 0.26227677E-02 0.92268853E+02</pdfrwt>
<totfact> 0.10503861E+05</totfact>
</mgrwt>
</event>
<event>
 5    1  0.3854342E+001  0.8719099E+02  0.7546771E-02  0.1309800E+00
         -2   -1    0    0    0  501 -0.00000000000E+00  0.00000000000E+00  0.59337508004E+02  0.59337508004E+02  0.00000000000E+00 0.  1.
          2   -1    0    0  501    0  0.00000000000E+00 -0.00000000000E+00 -0.32029780317E+02  0.32029780317E+02  0.00000000000E+00 0. -1.
         23    2    1    2    0    0  0.00000000000E+00  0.00000000000E+00  0.27307727687E+02  0.91367288322E+02  0.87190993708E+02 0.  0.
          2    1    3    3  502    0  0.13031654686E+02 -0.37636578936E+02 -0.49217764933E+01  0.40131782688E+02  0.00000000000E+00 0. -1.
         -2    1    3    3    0  502 -0.13031654686E+02  0.37636578936E+02  0.32229504180E+02  0.51235505634E+02  0.00000000000E+00 0.  1.
<mgrwt>
<rscale>  0 0.87190994E+02</rscale>
<asrwt>0</asrwt>
<pdfrwt beam="2">  1        2 0.49276585E-02 0.87190994E+02</pdfrwt>
<pdfrwt beam="1">  1       -2 0.91288474E-02 0.87190994E+02</pdfrwt>
<totfact> 0.10262412E+05</totfact>
</mgrwt>
</event>
<event>
 5    1  0.3854342E+001  0.9134687E+02  0.7546771E-02  0.1299622E+00
         -3   -1    0    0    0  501 -0.00000000000E+00  0.00000000000E+00  0.17808096768E+03  0.17808096768E+03  0.00000000000E+00 0.  1.
          3   -1    0    0  501    0  0.00000000000E+00 -0.00000000000E+00 -0.11714124606E+02  0.11714124606E+02  0.00000000000E+00 0. -1.
         23    2    1    2    0    0  0.00000000000E+00  0.00000000000E+00  0.16636684307E+03  0.18979509229E+03  0.91346869578E+02 0.  0.
          2    1    3    3  502    0  0.35034829579E+02  0.39363403671E+01  0.14351410101E+03  0.14778102466E+03  0.00000000000E+00 0.  1.
         -2    1    3    3    0  502 -0.35034829579E+02 -0.39363403671E+01  0.22852742060E+02  0.42014067629E+02  0.00000000000E+00 0. -1.
<mgrwt>
<rscale>  0 0.91346870E+02</rscale>
<asrwt>0</asrwt>
<pdfrwt beam="2">  1        3 0.18021731E-02 0.91346870E+02</pdfrwt>
<pdfrwt beam="1">  1       -3 0.27397070E-01 0.91346870E+02</pdfrwt>
<totfact> 0.28888340E+04</totfact>
</mgrwt>
</event>
<event>
 5    1  0.3854342E+001  0.9119171E+02  0.7546771E-02  0.1299991E+00
          1   -1    0    0  501    0  0.00000000000E+00  0.00000000000E+00  0.14865838971E+03  0.14865838971E+03  0.00000000000E+00 0. -1.
         -1   -1    0    0    0  501 -0.00000000000E+00 -0.00000000000E+00 -0.13984963164E+02  0.13984963164E+02  0.00000000000E+00 0.  1.
         23    2    1    2    0    0  0.00000000000E+00  0.00000000000E+00  0.13467342655E+03  0.16264335288E+03  0.91191712432E+02 0.  0.
          2    1    3    3  502    0  0.28000433728E+02 -0.30246375123E+02  0.10210939833E+03  0.11011447100E+03  0.00000000000E+00 0. -1.
         -2    1    3    3    0  502 -0.28000433728E+02  0.30246375123E+02  0.32564028223E+02  0.52528881876E+02  0.00000000000E+00 0.  1.
<mgrwt>
<rscale>  0 0.91191712E+02</rscale>
<asrwt>0</asrwt>
<pdfrwt beam="1">  1        1 0.22870520E-01 0.91191712E+02</pdfrwt>
<pdfrwt beam="2">  1       -1 0.21515329E-02 0.91191712E+02</pdfrwt>
<totfact> 0.11189852E+05</totfact>
</mgrwt>
</event>
<event>
 5    1  0.3854342E+001  0.8786485E+02  0.7546771E-02  0.1308106E+00
         -1   -1    0    0    0  501 -0.00000000000E+00  0.00000000000E+00  0.44944918282E+03  0.44944918282E+03  0.00000000000E+00 0.  1.
          1   -1    0    0  501    0  0.00000000000E+00 -0.00000000000E+00 -0.42942741604E+01  0.42942741604E+01  0.00000000000E+00 0. -1.
         23    2    1    2    0    0  0.00000000000E+00  0.00000000000E+00  0.44515490865E+03  0.45374345698E+03  0.87864851043E+02 0.  0.
          2    1    3    3  502    0  0.39708285834E-01  0.43151861404E+02  0.26515340487E+03  0.26864179279E+03  0.00000000000E+00 0.  1.
         -2    1    3    3    0  502 -0.39708285834E-01 -0.43151861404E+02  0.18000150379E+03  0.18510166419E+03  0.00000000000E+00 0. -1.
<mgrwt>
<rscale>  0 0.87864851E+02</rscale>
<asrwt>0</asrwt>
<pdfrwt beam="2">  1        1 0.66065792E-03 0.87864851E+02</pdfrwt>
<pdfrwt beam="1">  1       -1 0.69145991E-01 0.87864851E+02</pdfrwt>
<totfact> 0.55177452E+04</totfact>
</mgrwt>
</event>
<event>
 5    1  0.3854342E+001  0.9264803E+02  0.7546771E-02  0.1296563E+00
         -3   -1    0    0    0  501 -0.00000000000E+00  0.00000000000E+00  0.27900920541E+03  0.27900920541E+03  0.00000000000E+00 0.  1.
          3   -1    0    0  501    0  0.00000000000E+00 -0.00000000000E+00 -0.76911958348E+01  0.76911958348E+01  0.00000000000E+00 0. -1.
         23    2    1    2    0    0  0.00000000000E+00  0.00000000000E+00  0.27131800957E+03  0.28670040124E+03  0.92648031571E+02 0.  0.
          2    1    3    3  502    0  0.91053507067E+01 -0.45049487123E+02  0.15358334326E+03  0.16031284112E+03  0.00000000000E+00 0. -1.
         -2    1    3    3    0  502 -0.91053507067E+01  0.45049487123E+02  0.11773466631E+03  0.12638756012E+03  0.00000000000E+00 0.  1.
<mgrwt>
<rscale>  0 0.92648032E+02</rscale>
<asrwt>0</asrwt>
<pdfrwt beam="2">  1        3 0.11832611E-02 0.92648032E+02</pdfrwt>
<pdfrwt beam="1">  1       -3 0.42924485E-01 0.92648032E+02</pdfrwt>
<totfact> 0.23513080E+04</totfact>
</mgrwt>
</event>
<event>
 5    1  0.3854342E+001  0.9068776E+02  0.7546771E-02  0.1301195E+00
         -2   -1    0    0    0  501 -0.00000000000E+00  0.00000000000E+00  0.14239754476E+01  0.14239754476E+01  0.00000000000E+00 0.  1.
          2   -1    0    0  501    0  0.00000000000E+00 -0.00000000000E+00 -0.14438925870E+04  0.14438925870E+04  0.00000000000E+00 0. -1.
         23    2    1    2    0    0  0.00000000000E+00  0.00000000000E+00 -0.14424686116E+04  0.14453165625E+04  0.90687763076E+02 0.  0.
          2    1    3    3  502    0 -0.35731742226E+02 -0.14824128418E+02 -0.34423909060E+03  0.34640592327E+03  0.00000000000E+00 0. -1.
         -2    1    3    3    0  502  0.35731742226E+02  0.14824128418E+02 -0.10982295210E+04  0.10989106392E+04  0.00000000000E+00 0.  1.
<mgrwt>
<rscale>  0 0.90687763E+02</rscale>
<asrwt>0</asrwt>
<pdfrwt beam="2">  1        2 0.22213748E+00 0.90687763E+02</pdfrwt>
<pdfrwt beam="1">  1       -2 0.21907299E-03 0.90687763E+02</pdfrwt>
<totfact> 0.24255718E+05</totfact>
</mgrwt>
</event>
<event>
 5    1  0.3854342E+001  0.9141154E+02  0.7546771E-02  0.1299469E+00
         -1   -1    0    0    0  501 -0.00000000000E+00  0.00000000000E+00  0.11882081071E+03  0.11882081071E+03  0.00000000000E+00 0.  1.
          1   -1    0    0  501    0  0.00000000000E+00 -0.00000000000E+00 -0.17581241642E+02  0.17581241642E+02  0.00000000000E+00 0. -1.
         23    2    1    2    0    0  0.00000000000E+00  0.00000000000E+00  0.10123956906E+03  0.13640205235E+03  0.91411539429E+02 0.  0.
          2    1    3    3  502    0  0.83343203071E+01  0.39310693002E+02  0.18125085450E+02  0.44082992206E+02  0.00000000000E+00 0. -1.
         -2    1    3    3    0  502 -0.83343203071E+01 -0.39310693002E+02  0.83114483615E+02  0.92319060144E+02  0.00000000000E+00 0.  1.
<mgrwt>
<rscale>  0 0.91411539E+02</rscale>
<asrwt>0</asrwt>
<pdfrwt beam="2">  1        1 0.27048065E-02 0.91411539E+02</pdfrwt>
<pdfrwt beam="1">  1       -1 0.18280124E-01 0.91411539E+02</pdfrwt>
<totfact> 0.78167331E+04</totfact>
</mgrwt>
</event>
<event>
 5    1  0.3854342E+001  0.8060205E+02  0.7546771E-02  0.1327352E+00
          1   -1    0    0  501    0  0.00000000000E+00  0.00000000000E+00  0.29802369840E+02  0.29802369840E+02  0.00000000000E+00 0. -1.
         -1   -1    0    0    0  501 -0.00000000000E+00 -0.00000000000E+00 -0.54498107155E+02  0.54498107155E+02  0.00000000000E+00 0.  1.
         23    2    1    2    0    0  0.00000000000E+00  0.00000000000E+00 -0.24695737315E+02  0.84300476995E+02  0.80602053200E+02 0.  0.
          2    1    3    3  502    0  0.22706608439E+02  0.33287839507E+02 -0.11606529353E+02  0.41933063917E+02  0.00000000000E+00 0. -1.
         -2    1    3    3    0  502 -0.22706608439E+02 -0.33287839507E+02 -0.13089207963E+02  0.42367413078E+02  0.00000000000E+00 0.  1.
<mgrwt>
<rscale>  0 0.80602053E+02</rscale>
<asrwt>0</asrwt>
<pdfrwt beam="1">  1        1 0.45849800E-02 0.80602053E+02</pdfrwt>
<pdfrwt beam="2">  1       -1 0.83843241E-02 0.80602053E+02</pdfrwt>
<totfact> 0.12284966E+05</totfact>
</mgrwt>
</event>
<event>
 5    1  0.3854342E+001  0.8927186E+02  0.7546771E-02  0.1304625E+00
          1   -1    0    0  501    0  0.00000000000E+00  0.00000000000E+00  0.29380503131E+03  0.29380503131E+03  0.00000000000E+00 0. -1.
         -1   -1    0    0    0  501 -0.00000000000E+00 -0.00000000000E+00 -0.67812534556E+01  0.67812534556E+01  0.00000000000E+00 0.  1.
         23    2    1    2    0    0  0.00000000000E+00  0.00000000000E+00  0.28702377785E+03  0.30058628476E+03  0.89271863066E+02 0.  0.
          2    1    3    3  502    0  0.36952831465E+02  0.17885620099E+02  0.20250413156E+03  0.20662364448E+03  0.00000000000E+00 0. -1.
         -2    1    3    3    0  502 -0.36952831465E+02 -0.17885620099E+02  0.84519646295E+02  0.93962640286E+02  0.00000000000E+00 0.  1.
<mgrwt>
<rscale>  0 0.89271863E+02</rscale>
<asrwt>0</asrwt>
<pdfrwt beam="1">  1        1 0.45200764E-01 0.89271863E+02</pdfrwt>
<pdfrwt beam="2">  1       -1 0.10432700E-02 0.89271863E+02</pdfrwt>
<totfact> 0.13498689E+05</totfact>
</mgrwt>
</event>
<event>
 5    1  0.3854342E+001  0.9516102E+02  0.7546771E-02  0.1290814E+00
         -2   -1    0    0    0  501 -0.00000000000E+00  0.00000000000E+00  0.17534137276E+03  0.17534137276E+03  0.00000000000E+00 0.  1.
          2   -1    0    0  501    0  0.00000000000E+00 -0.00000000000E+00 -0.12911412560E+02  0.12911412560E+02  0.00000000000E+00 0. -1.
         23    2    1    2    0    0  0.00000000000E+00  0.00000000000E+00  0.16242996020E+03  0.18825278532E+03  0.95161017281E+02 0.  0.
          2    1    3    3  502    0  0.30985833050E+02  0.30138516953E+02  0.12055455238E+03  0.12806971599E+03  0.00000000000E+00 0. -1.
         -2    1    3    3    0  502 -0.30985833050E+02 -0.30138516953E+02  0.41875407821E+02  0.60183069332E+02  0.00000000000E+00 0.  1.
<mgrwt>
<rscale>  0 0.95161017E+02</rscale>
<asrwt>0</asrwt>
<pdfrwt beam="2">  1        2 0.19863713E-02 0.95161017E+02</pdfrwt>
<pdfrwt beam="1">  1       -2 0.26975594E-01 0.95161017E+02</pdfrwt>
<totfact> 0.59030238E+04</totfact>
</mgrwt>
</event>
<event>
 5    1  0.3854342E+001  0.9384049E+02  0.7546771E-02  0.1293809E+00
          2   -1    0    0  501    0  0.00000000000E+00  0.00000000000E+00  0.15397702559E+04  0.15397702559E+04  0.00000000000E+00 0. -1.
         -2   -1    0    0    0  501 -0.00000000000E+00 -0.00000000000E+00 -0.14297648918E+01  0.14297648918E+01  0.00000000000E+00 0.  1.
         23    2    1    2    0    0  0.00000000000E+00  0.00000000000E+00  0.15383404910E+04  0.15412000208E+04  0.93840491333E+02 0.  0.
          2    1    3    3  502    0 -0.68063564783E+01  0.41489259280E+02  0.11112486715E+04  0.11120437469E+04  0.00000000000E+00 0. -1.
         -2    1    3    3    0  502  0.68063564783E+01 -0.41489259280E+02  0.42709181952E+03  0.42915627389E+03  0.00000000000E+00 0.  1.
<mgrwt>
<rscale>  0 0.93840491E+02</rscale>
<asrwt>0</asrwt>
<pdfrwt beam="1">  1        2 0.23688641E+00 0.93840491E+02</pdfrwt>
<pdfrwt beam="2">  1       -2 0.21996506E-03 0.93840491E+02</pdfrwt>
<totfact> 0.21643877E+05</totfact>
</mgrwt>
</event>
<event>
 5    1  0.3854342E+001  0.9020844E+02  0.7546771E-02  0.1302348E+00
         -2   -1    0    0    0  501 -0.00000000000E+00  0.00000000000E+00  0.21977845329E+01  0.21977845329E+01  0.00000000000E+00 0.  1.
          2   -1    0    0  501    0  0.00000000000E+00 -0.00000000000E+00 -0.92565527215E+03  0.92565527215E+03  0.00000000000E+00 0. -1.
         23    2    1    2    0    0  0.00000000000E+00  0.00000000000E+00 -0.92345748762E+03  0.92785305669E+03  0.90208443949E+02 0.  0.
          2    1    3    3  502    0 -0.29789891611E+02  0.15619120113E+02 -0.77081165420E+03  0.77154520335E+03  0.00000000000E+00 0. -1.
         -2    1    3    3    0  502  0.29789891611E+02 -0.15619120113E+02 -0.15264583342E+03  0.15630785334E+03  0.00000000000E+00 0.  1.
<mgrwt>
<rscale>  0 0.90208444E+02</rscale>
<asrwt>0</asrwt>
<pdfrwt beam="2">  1        2 0.14240839E+00 0.90208444E+02</pdfrwt>
<pdfrwt beam="1">  1       -2 0.33812096E-03 0.90208444E+02</pdfrwt>
<totfact> 0.25575448E+05</totfact>
</mgrwt>
</event>
<event>
 5    1  0.3854342E+001  0.9464772E+02  0.7546771E-02  0.1291971E+00
         -1   -1    0    0    0  501 -0.00000000000E+00  0.00000000000E+00  0.59236807862E+01  0.59236807862E+01  0.00000000000E+00 0.  1.
          1   -1    0    0  501    0  0.00000000000E+00 -0.00000000000E+00 -0.37806688373E+03  0.37806688373E+03  0.00000000000E+00 0. -1.
         23    2    1    2    0    0  0.00000000000E+00  0.00000000000E+00 -0.37214320294E+03  0.38399056452E+03  0.94647715980E+02 0.  0.
          2    1    3    3  502    0  0.67683203221E+01 -0.35836816199E+02 -0.63722097974E+02  0.73420660073E+02  0.00000000000E+00 0.  1.
         -2    1    3    3    0  502 -0.67683203221E+01  0.35836816199E+02 -0.30842110497E+03  0.31056990444E+03  0.00000000000E+00 0. -1.
<mgrwt>
<rscale>  0 0.94647716E+02</rscale>
<asrwt>0</asrwt>
<pdfrwt beam="2">  1        1 0.58164138E-01 0.94647716E+02</pdfrwt>
<pdfrwt beam="1">  1       -1 0.91133547E-03 0.94647716E+02</pdfrwt>
<totfact> 0.12096660E+05</totfact>
</mgrwt>
</event>
<event>
 5    1  0.3854342E+001  0.8327281E+02  0.7546771E-02  0.1320012E+00
          2   -1    0    0  501    0  0.00000000000E+00  0.00000000000E+00  0.14654546776E+02  0.14654546776E+02  0.00000000000E+00 0. -1.
         -2   -1    0    0    0  501 -0.00000000000E+00 -0.00000000000E+00 -0.11829709990E+03  0.11829709990E+03  0.00000000000E+00 0.  1.
         23    2    1    2    0    0  0.00000000000E+00  0.00000000000E+00 -0.10364255312E+03  0.13295164667E+03  0.83272813905E+02 0.  0.
          2    1    3    3  502    0 -0.34139904582E+02 -0.17046550670E+02 -0.25226252784E+02  0.45743653157E+02  0.00000000000E+00 0. -1.
         -2    1    3    3    0  502  0.34139904582E+02  0.17046550670E+02 -0.78416300335E+02  0.87207993514E+02  0.00000000000E+00 0.  1.
<mgrwt>
<rscale>  0 0.83272814E+02</rscale>
<asrwt>0</asrwt>
<pdfrwt beam="1">  1        2 0.22545457E-02 0.83272814E+02</pdfrwt>
<pdfrwt beam="2">  1       -2 0.18199553E-01 0.83272814E+02</pdfrwt>
<totfact> 0.95098541E+04</totfact>
</mgrwt>
</event>
<event>
 5    1  0.3854342E+001  0.9073662E+02  0.7546771E-02  0.1301078E+00
          2   -1    0    0  501    0  0.00000000000E+00  0.00000000000E+00  0.22970762793E+02  0.22970762793E+02  0.00000000000E+00 0. -1.
         -2   -1    0    0    0  501 -0.00000000000E+00 -0.00000000000E+00 -0.89604500534E+02  0.89604500534E+02  0.00000000000E+00 0.  1.
         23    2    1    2    0    0  0.00000000000E+00  0.00000000000E+00 -0.66633737741E+02  0.11257526333E+03  0.90736623850E+02 0.  0.
          2    1    3    3  502    0  0.25069636240E+02  0.29164976584E+02 -0.34578808496E+01  0.38613980115E+02  0.00000000000E+00 0. -1.
         -2    1    3    3    0  502 -0.25069636240E+02 -0.29164976584E+02 -0.63175856891E+02  0.73961283212E+02  0.00000000000E+00 0.  1.
<mgrwt>
<rscale>  0 0.90736624E+02</rscale>
<asrwt>0</asrwt>
<pdfrwt beam="1">  1        2 0.35339635E-02 0.90736624E+02</pdfrwt>
<pdfrwt beam="2">  1       -2 0.13785308E-01 0.90736624E+02</pdfrwt>
<totfact> 0.83400660E+04</totfact>
</mgrwt>
</event>
<event>
 5    1  0.3854342E+001  0.9349044E+02  0.7546771E-02  0.1294613E+00
          2   -1    0    0  501    0  0.00000000000E+00  0.00000000000E+00  0.70087930265E+01  0.70087930265E+01  0.00000000000E+00 0.  1.
         -2   -1    0    0    0  501 -0.00000000000E+00 -0.00000000000E+00 -0.31176771105E+03  0.31176771105E+03  0.00000000000E+00 0. -1.
         23    2    1    2    0    0  0.00000000000E+00  0.00000000000E+00 -0.30475891803E+03  0.31877650408E+03  0.93490435000E+02 0.  0.
          2    1    3    3  502    0  0.36115961675E+02  0.21363956211E+02 -0.22261760873E+03  0.22653781368E+03  0.00000000000E+00 0. -1.
         -2    1    3    3    0  502 -0.36115961675E+02 -0.21363956211E+02 -0.82141309300E+02  0.92238690397E+02  0.00000000000E+00 0.  1.
<mgrwt>
<rscale>  0 0.93490435E+02</rscale>
<asrwt>0</asrwt>
<pdfrwt beam="1">  1        2 0.10782758E-02 0.93490435E+02</pdfrwt>
<pdfrwt beam="2">  1       -2 0.47964266E-01 0.93490435E+02</pdfrwt>
<totfact> 0.46772260E+04</totfact>
</mgrwt>
</event>
<event>
 5    1  0.3854342E+001  0.9358726E+02  0.7546771E-02  0.1294390E+00
          1   -1    0    0  501    0  0.00000000000E+00  0.00000000000E+00  0.87849998587E+02  0.87849998587E+02  0.00000000000E+00 0. -1.
         -1   -1    0    0    0  501 -0.00000000000E+00 -0.00000000000E+00 -0.24924803876E+02  0.24924803876E+02  0.00000000000E+00 0.  1.
         23    2    1    2    0    0  0.00000000000E+00  0.00000000000E+00  0.62925194711E+02  0.11277480246E+03  0.93587263777E+02 0.  0.
          2    1    3    3  502    0  0.43745264624E+02  0.91942943803E+00  0.11474086289E+02  0.45234369496E+02  0.00000000000E+00 0.  1.
         -2    1    3    3    0  502 -0.43745264624E+02 -0.91942943803E+00  0.51451108422E+02  0.67540432967E+02  0.00000000000E+00 0. -1.
<mgrwt>
<rscale>  0 0.93587264E+02</rscale>
<asrwt>0</asrwt>
<pdfrwt beam="1">  1        1 0.13515384E-01 0.93587264E+02</pdfrwt>
<pdfrwt beam="2">  1       -1 0.38345852E-02 0.93587264E+02</pdfrwt>
<totfact> 0.95194242E+04</totfact>
</mgrwt>
</event>
<event>
 5    1  0.3854342E+001  0.9149769E+02  0.7546771E-02  0.1299265E+00
          1   -1    0    0  501    0  0.00000000000E+00  0.00000000000E+00  0.31521213136E+02  0.31521213136E+02  0.00000000000E+00 0. -1.
         -1   -1    0    0    0  501 -0.00000000000E+00 -0.00000000000E+00 -0.66398360512E+02  0.66398360512E+02  0.00000000000E+00 0.  1.
         23    2    1    2    0    0  0.00000000000E+00  0.00000000000E+00 -0.34877147376E+02  0.97919573648E+02  0.91497691197E+02 0.  0.
          2    1    3    3  502    0  0.12151919692E+02 -0.32955707824E+02  0.13931013101E+02  0.37786518183E+02  0.00000000000E+00 0. -1.
         -2    1    3    3    0  502 -0.12151919692E+02  0.32955707824E+02 -0.48808160477E+02  0.60133055465E+02  0.00000000000E+00 0.  1.
<mgrwt>
<rscale>  0 0.91497691E+02</rscale>
<asrwt>0</asrwt>
<pdfrwt beam="1">  1        1 0.48494174E-02 0.91497691E+02</pdfrwt>
<pdfrwt beam="2">  1       -1 0.10215132E-01 0.91497691E+02</pdfrwt>
<totfact> 0.86498848E+04</totfact>
</mgrwt>
</event>
<event>
 5    1  0.3854342E+001  0.9097530E+02  0.7546771E-02  0.1300507E+00
         -1   -1    0    0    0  501 -0.00000000000E+00  0.00000000000E+00  0.57165860265E+02  0.57165860265E+02  0.00000000000E+00 0.  1.
          1   -1    0    0  501    0  0.00000000000E+00 -0.00000000000E+00 -0.36195136230E+02  0.36195136230E+02  0.00000000000E+00 0. -1.
         23    2    1    2    0    0  0.00000000000E+00  0.00000000000E+00  0.20970724035E+02  0.93360996495E+02  0.90975295548E+02 0.  0.
          2    1    3    3  502    0 -0.42590602083E+02 -0.15764251197E+02  0.13132760070E+02  0.47275156146E+02  0.00000000000E+00 0.  1.
         -2    1    3    3    0  502  0.42590602083E+02  0.15764251197E+02  0.78379639644E+01  0.46085840349E+02  0.00000000000E+00 0. -1.
<mgrwt>
<rscale>  0 0.90975296E+02</rscale>
<asrwt>0</asrwt>
<pdfrwt beam="2">  1        1 0.55684825E-02 0.90975296E+02</pdfrwt>
<pdfrwt beam="1">  1       -1 0.87947477E-02 0.90975296E+02</pdfrwt>
<totfact> 0.89850102E+04</totfact>
</mgrwt>
</event>
<event>
 5    1  0.3854342E+001  0.8970091E+02  0.7546771E-02  0.1303578E+00
          3   -1    0    0  501    0  0.00000000000E+00  0.00000000000E+00  0.18766039270E+02  0.18766039270E+02  0.00000000000E+00 0. -1.
         -3   -1    0    0    0  501 -0.00000000000E+00 -0.00000000000E+00 -0.10719167653E+03  0.10719167653E+03  0.00000000000E+00 0.  1.
         23    2    1    2    0    0  0.00000000000E+00  0.00000000000E+00 -0.88425637255E+02  0.12595771580E+03  0.89700907712E+02 0.  0.
          2    1    3    3  502    0  0.21649750268E+02  0.54471769007E+01  0.10409886499E+02  0.24632278818E+02  0.00000000000E+00 0. -1.
         -2    1    3    3    0  502 -0.21649750268E+02 -0.54471769007E+01 -0.98835523754E+02  0.10132543698E+03  0.00000000000E+00 0.  1.
<mgrwt>
<rscale>  0 0.89700908E+02</rscale>
<asrwt>0</asrwt>
<pdfrwt beam="1">  1        3 0.28870830E-02 0.89700908E+02</pdfrwt>
<pdfrwt beam="2">  1       -3 0.16491027E-01 0.89700908E+02</pdfrwt>
<totfact> 0.34329518E+04</totfact>
</mgrwt>
</event>
<event>
 5    1  0.3854342E+001  0.8914953E+02  0.7546771E-02  0.1304924E+00
          1   -1    0    0  501    0  0.00000000000E+00  0.00000000000E+00  0.26348816751E+03  0.26348816751E+03  0.00000000000E+00 0. -1.
         -1   -1    0    0    0  501 -0.00000000000E+00 -0.00000000000E+00 -0.75407927120E+01  0.75407927120E+01  0.00000000000E+00 0.  1.
         23    2    1    2    0    0  0.00000000000E+00  0.00000000000E+00  0.25594737480E+03  0.27102896022E+03  0.89149529517E+02 0.  0.
          2    1    3    3  502    0  0.35025687956E+02 -0.27001511138E+02  0.14490856889E+03  0.15150700894E+03  0.00000000000E+00 0. -1.
         -2    1    3    3    0  502 -0.35025687956E+02  0.27001511138E+02  0.11103880591E+03  0.11952195128E+03  0.00000000000E+00 0.  1.
<mgrwt>
<rscale>  0 0.89149530E+02</rscale>
<asrwt>0</asrwt>
<pdfrwt beam="1">  1        1 0.40536634E-01 0.89149530E+02</pdfrwt>
<pdfrwt beam="2">  1       -1 0.11601222E-02 0.89149530E+02</pdfrwt>
<totfact> 0.13266053E+05</totfact>
</mgrwt>
</event>
<event>
 5    1  0.3854342E+001  0.9085524E+02  0.7546771E-02  0.1300794E+00
         -2   -1    0    0    0  501 -0.00000000000E+00  0.00000000000E+00  0.31422005856E+02  0.31422005856E+02  0.00000000000E+00 0.  1.
          2   -1    0    0  501    0  0.00000000000E+00 -0.00000000000E+00 -0.65675909649E+02  0.65675909649E+02  0.00000000000E+00 0. -1.
         23    2    1    2    0    0  0.00000000000E+00  0.00000000000E+00 -0.34253903793E+02  0.97097915505E+02  0.90855243494E+02 0.  0.
          2    1    3    3  502    0  0.59029921515E+01  0.23910479167E+02 -0.57921906104E+02  0.62940476143E+02  0.00000000000E+00 0. -1.
         -2    1    3    3    0  502 -0.59029921515E+01 -0.23910479167E+02  0.23668002312E+02  0.34157439362E+02  0.00000000000E+00 0.  1.
<mgrwt>
<rscale>  0 0.90855243E+02</rscale>
<asrwt>0</asrwt>
<pdfrwt beam="2">  1        2 0.10103986E-01 0.90855243E+02</pdfrwt>
<pdfrwt beam="1">  1       -2 0.48341547E-02 0.90855243E+02</pdfrwt>
<totfact> 0.10977922E+05</totfact>
</mgrwt>
</event>
<event>
 5    1  0.3854342E+001  0.9146974E+02  0.7546771E-02  0.1299331E+00
         -4   -1    0    0    0  501 -0.00000000000E+00  0.00000000000E+00  0.76332586136E+03  0.76332586136E+03  0.00000000000E+00 0.  1.
          4   -1    0    0  501    0  0.00000000000E+00 -0.00000000000E+00 -0.27402168936E+01  0.27402168936E+01  0.00000000000E+00 0. -1.
         23    2    1    2    0    0  0.00000000000E+00  0.00000000000E+00  0.76058564447E+03  0.76606607825E+03  0.91469741896E+02 0.  0.
          2    1    3    3  502    0  0.16975073554E+02 -0.42301158684E+02  0.34880289969E+03  0.35176839537E+03  0.00000000000E+00 0. -1.
         -2    1    3    3    0  502 -0.16975073554E+02  0.42301158684E+02  0.41178274478E+03  0.41429768289E+03  0.00000000000E+00 0.  1.
<mgrwt>
<rscale>  0 0.91469742E+02</rscale>
<asrwt>0</asrwt>
<pdfrwt beam="2">  1        4 0.42157244E-03 0.91469742E+02</pdfrwt>
<pdfrwt beam="1">  1       -4 0.11743458E+00 0.91469742E+02</pdfrwt>
<totfact> 0.91951521E+03</totfact>
</mgrwt>
</event>
<event>
 5    1  0.3854342E+001  0.8912878E+02  0.7546771E-02  0.1304975E+00
         -2   -1    0    0    0  501 -0.00000000000E+00  0.00000000000E+00  0.21854197051E+02  0.21854197051E+02  0.00000000000E+00 0.  1.
          2   -1    0    0  501    0  0.00000000000E+00 -0.00000000000E+00 -0.90874301314E+02  0.90874301314E+02  0.00000000000E+00 0. -1.
         23    2    1    2    0    0  0.00000000000E+00  0.00000000000E+00 -0.69020104263E+02  0.11272849837E+03  0.89128780712E+02 0.  0.
          2    1    3    3  502    0 -0.30718839038E+02  0.10470523441E+02 -0.73136798796E+02  0.80014187936E+02  0.00000000000E+00 0. -1.
         -2    1    3    3    0  502  0.30718839038E+02 -0.10470523441E+02  0.41166945330E+01  0.32714310429E+02  0.00000000000E+00 0.  1.
<mgrwt>
<rscale>  0 0.89128781E+02</rscale>
<asrwt>0</asrwt>
<pdfrwt beam="2">  1        2 0.13980662E-01 0.89128781E+02</pdfrwt>
<pdfrwt beam="1">  1       -2 0.33621842E-02 0.89128781E+02</pdfrwt>
<totfact> 0.12690335E+05</totfact>
</mgrwt>
</event>
<event>
 5    1  0.3854342E+001  0.9119088E+02  0.7546771E-02  0.1299993E+00
         -1   -1    0    0    0  501 -0.00000000000E+00  0.00000000000E+00  0.12044553310E+01  0.12044553310E+01  0.00000000000E+00 0.  1.
          1   -1    0    0  501    0  0.00000000000E+00 -0.00000000000E+00 -0.17260448827E+04  0.17260448827E+04  0.00000000000E+00 0. -1.
         23    2    1    2    0    0  0.00000000000E+00  0.00000000000E+00 -0.17248404273E+04  0.17272493380E+04  0.91190875871E+02 0.  0.
          2    1    3    3  502    0 -0.69916309561E+01 -0.30197436547E+02 -0.14957919922E+04  0.14961131147E+04  0.00000000000E+00 0. -1.
         -2    1    3    3    0  502  0.69916309561E+01  0.30197436547E+02 -0.22904843509E+03  0.23113622324E+03  0.00000000000E+00 0.  1.
<mgrwt>
<rscale>  0 0.91190876E+02</rscale>
<asrwt>0</asrwt>
<pdfrwt beam="2">  1        1 0.26554442E+00 0.91190876E+02</pdfrwt>
<pdfrwt beam="1">  1       -1 0.18530148E-03 0.91190876E+02</pdfrwt>
<totfact> 0.96538100E+04</totfact>
</mgrwt>
</event>
<event>
 5    1  0.3854342E+001  0.8956547E+02  0.7546771E-02  0.1303907E+00
          3   -1    0    0  501    0  0.00000000000E+00  0.00000000000E+00  0.32501146432E+02  0.32501146432E+02  0.00000000000E+00 0. -1.
         -3   -1    0    0    0  501 -0.00000000000E+00 -0.00000000000E+00 -0.61705312624E+02  0.61705312624E+02  0.00000000000E+00 0.  1.
         23    2    1    2    0    0  0.00000000000E+00  0.00000000000E+00 -0.29204166192E+02  0.94206459055E+02  0.89565471052E+02 0.  0.
          2    1    3    3  502    0 -0.18345763481E+01 -0.29282891429E+02  0.20983535952E+02  0.36071625717E+02  0.00000000000E+00 0. -1.
         -2    1    3    3    0  502  0.18345763481E+01  0.29282891429E+02 -0.50187702144E+02  0.58134833339E+02  0.00000000000E+00 0.  1.
<mgrwt>
<rscale>  0 0.89565471E+02</rscale>
<asrwt>0</asrwt>
<pdfrwt beam="1">  1        3 0.50001764E-02 0.89565471E+02</pdfrwt>
<pdfrwt beam="2">  1       -3 0.94931250E-02 0.89565471E+02</pdfrwt>
<totfact> 0.36850057E+04</totfact>
</mgrwt>
</event>
<event>
 5    1  0.3854342E+001  0.9256553E+02  0.7546771E-02  0.1296755E+00
          1   -1    0    0  501    0  0.00000000000E+00  0.00000000000E+00  0.72296602973E+03  0.72296602973E+03  0.00000000000E+00 0. -1.
         -1   -1    0    0    0  501 -0.00000000000E+00 -0.00000000000E+00 -0.29629255036E+01  0.29629255036E+01  0.00000000000E+00 0.  1.
         23    2    1    2    0    0  0.00000000000E+00  0.00000000000E+00  0.72000310423E+03  0.72592895524E+03  0.92565533278E+02 0.  0.
          2    1    3    3  502    0 -0.29781049227E+02  0.21384708018E+02  0.58152159075E+03  0.58267621982E+03  0.00000000000E+00 0. -1.
         -2    1    3    3    0  502  0.29781049227E+02 -0.21384708018E+02  0.13848151348E+03  0.14325273542E+03  0.00000000000E+00 0.  1.
<mgrwt>
<rscale>  0 0.92565533E+02</rscale>
<asrwt>0</asrwt>
<pdfrwt beam="1">  1        1 0.11122540E+00 0.92565533E+02</pdfrwt>
<pdfrwt beam="2">  1       -1 0.45583527E-03 0.92565533E+02</pdfrwt>
<totfact> 0.13652214E+05</totfact>
</mgrwt>
</event>
<event>
 5    1  0.3854342E+001  0.9517071E+02  0.7546771E-02  0.1290792E+00
         -1   -1    0    0    0  501 -0.00000000000E+00  0.00000000000E+00  0.31560511953E+02  0.31560511953E+02  0.00000000000E+00 0.  1.
          1   -1    0    0  501    0  0.00000000000E+00 -0.00000000000E+00 -0.71746802556E+02  0.71746802556E+02  0.00000000000E+00 0. -1.
         23    2    1    2    0    0  0.00000000000E+00  0.00000000000E+00 -0.40186290603E+02  0.10330731451E+03  0.95170705990E+02 0.  0.
          2    1    3    3  502    0 -0.34857291664E+02 -0.30623746465E+02 -0.86299292308E+01  0.47194494470E+02  0.00000000000E+00 0.  1.
         -2    1    3    3    0  502  0.34857291664E+02  0.30623746465E+02 -0.31556361372E+02  0.56112820039E+02  0.00000000000E+00 0. -1.
<mgrwt>
<rscale>  0 0.95170706E+02</rscale>
<asrwt>0</asrwt>
<pdfrwt beam="2">  1        1 0.11037970E-01 0.95170706E+02</pdfrwt>
<pdfrwt beam="1">  1       -1 0.48554634E-02 0.95170706E+02</pdfrwt>
<totfact> 0.87967490E+04</totfact>
</mgrwt>
</event>
<event>
 5    1  0.3854342E+001  0.9111310E+02  0.7546771E-02  0.1300178E+00
          2   -1    0    0  501    0  0.00000000000E+00  0.00000000000E+00  0.17297753038E+02  0.17297753038E+02  0.00000000000E+00 0. -1.
         -2   -1    0    0    0  501 -0.00000000000E+00 -0.00000000000E+00 -0.11998085459E+03  0.11998085459E+03  0.00000000000E+00 0.  1.
         23    2    1    2    0    0  0.00000000000E+00  0.00000000000E+00 -0.10268310155E+03  0.13727860762E+03  0.91113098771E+02 0.  0.
          2    1    3    3  502    0 -0.36315522182E+02  0.23707280748E+02 -0.30326319029E+02  0.52920109010E+02  0.00000000000E+00 0. -1.
         -2    1    3    3    0  502  0.36315522182E+02 -0.23707280748E+02 -0.72356782520E+02  0.84358498614E+02  0.00000000000E+00 0.  1.
<mgrwt>
<rscale>  0 0.91113099E+02</rscale>
<asrwt>0</asrwt>
<pdfrwt beam="1">  1        2 0.26611927E-02 0.91113099E+02</pdfrwt>
<pdfrwt beam="2">  1       -2 0.18458594E-01 0.91113099E+02</pdfrwt>
<totfact> 0.75553246E+04</totfact>
</mgrwt>
</event>
<event>
 5    1  0.3854342E+001  0.8990883E+02  0.7546771E-02  0.1303073E+00
          2   -1    0    0  501    0  0.00000000000E+00  0.00000000000E+00  0.45162227028E+02  0.45162227028E+02  0.00000000000E+00 0. -1.
         -2   -1    0    0    0  501 -0.00000000000E+00 -0.00000000000E+00 -0.44747557719E+02  0.44747557719E+02  0.00000000000E+00 0.  1.
         23    2    1    2    0    0  0.00000000000E+00  0.00000000000E+00  0.41466930970E+00  0.89909784747E+02  0.89908828502E+02 0.  0.
          2    1    3    3  502    0 -0.40656220322E+02 -0.35934076583E+01  0.19050531937E+02  0.45041798327E+02  0.00000000000E+00 0. -1.
         -2    1    3    3    0  502  0.40656220322E+02  0.35934076583E+01 -0.18635862627E+02  0.44867986420E+02  0.00000000000E+00 0.  1.
<mgrwt>
<rscale>  0 0.89908829E+02</rscale>
<asrwt>0</asrwt>
<pdfrwt beam="1">  1        2 0.69480349E-02 0.89908829E+02</pdfrwt>
<pdfrwt beam="2">  1       -2 0.68842397E-02 0.89908829E+02</pdfrwt>
<totfact> 0.10246472E+05</totfact>
</mgrwt>
</event>
<event>
 5    1  0.3854342E+001  0.9185383E+02  0.7546771E-02  0.1298423E+00
          2   -1    0    0  501    0  0.00000000000E+00  0.00000000000E+00  0.12999362413E+03  0.12999362413E+03  0.00000000000E+00 0.  1.
         -2   -1    0    0    0  501 -0.00000000000E+00 -0.00000000000E+00 -0.16226037138E+02  0.16226037138E+02  0.00000000000E+00 0. -1.
         23    2    1    2    0    0  0.00000000000E+00  0.00000000000E+00  0.11376758699E+03  0.14621966126E+03  0.91853826762E+02 0.  0.
          2    1    3    3  502    0  0.32699222635E+02  0.16253993064E+02  0.12543620895E+02  0.38610541004E+02  0.00000000000E+00 0. -1.
         -2    1    3    3    0  502 -0.32699222635E+02 -0.16253993064E+02  0.10122396609E+03  0.10760912026E+03  0.00000000000E+00 0.  1.
<mgrwt>
<rscale>  0 0.91853827E+02</rscale>
<asrwt>0</asrwt>
<pdfrwt beam="1">  1        2 0.19999018E-01 0.91853827E+02</pdfrwt>
<pdfrwt beam="2">  1       -2 0.24963135E-02 0.91853827E+02</pdfrwt>
<totfact> 0.13061358E+05</totfact>
</mgrwt>
</event>
<event>
 5    1  0.3854342E+001  0.9653508E+02  0.7546771E-02  0.1287756E+00
          2   -1    0    0  501    0  0.00000000000E+00  0.00000000000E+00  0.22812178669E+02  0.22812178669E+02  0.00000000000E+00 0. -1.
         -2   -1    0    0    0  501 -0.00000000000E+00 -0.00000000000E+00 -0.10212769309E+03  0.10212769309E+03  0.00000000000E+00 0.  1.
         23    2    1    2    0    0  0.00000000000E+00  0.00000000000E+00 -0.79315514419E+02  0.12493987176E+03  0.96535075114E+02 0.  0.
          2    1    3    3  502    0  0.65884987701E+01 -0.22798562158E+02  0.14740081008E+02  0.27936584269E+02  0.00000000000E+00 0. -1.
         -2    1    3    3    0  502 -0.65884987701E+01  0.22798562158E+02 -0.94055595427E+02  0.97003287489E+02  0.00000000000E+00 0.  1.
<mgrwt>
<rscale>  0 0.96535075E+02</rscale>
<asrwt>0</asrwt>
<pdfrwt beam="1">  1        2 0.35095660E-02 0.96535075E+02</pdfrwt>
<pdfrwt beam="2">  1       -2 0.15711953E-01 0.96535075E+02</pdfrwt>
<totfact> 0.68787271E+04</totfact>
</mgrwt>
</event>
<event>
 5    1  0.3854342E+001  0.9341183E+02  0.7546771E-02  0.1294794E+00
          2   -1    0    0  501    0  0.00000000000E+00  0.00000000000E+00  0.82634711574E+03  0.82634711574E+03  0.00000000000E+00 0. -1.
         -2   -1    0    0    0  501 -0.00000000000E+00 -0.00000000000E+00 -0.26398622694E+01  0.26398622694E+01  0.00000000000E+00 0.  1.
         23    2    1    2    0    0  0.00000000000E+00  0.00000000000E+00  0.82370725348E+03  0.82898697801E+03  0.93411831633E+02 0.  0.
          2    1    3    3  502    0 -0.29194710673E+02  0.29146487271E+02  0.60620274062E+03  0.60760481531E+03  0.00000000000E+00 0. -1.
         -2    1    3    3    0  502  0.29194710673E+02 -0.29146487271E+02  0.21750451285E+03  0.22138216270E+03  0.00000000000E+00 0.  1.
<mgrwt>
<rscale>  0 0.93411832E+02</rscale>
<asrwt>0</asrwt>
<pdfrwt beam="1">  1        2 0.12713012E+00 0.93411832E+02</pdfrwt>
<pdfrwt beam="2">  1       -2 0.40613332E-03 0.93411832E+02</pdfrwt>
<totfact> 0.22989858E+05</totfact>
</mgrwt>
</event>
<event>
 5    1  0.3854342E+001  0.9601983E+02  0.7546771E-02  0.1288896E+00
          2   -1    0    0  501    0  0.00000000000E+00  0.00000000000E+00  0.57761992669E+02  0.57761992669E+02  0.00000000000E+00 0. -1.
         -2   -1    0    0    0  501 -0.00000000000E+00 -0.00000000000E+00 -0.39904301456E+02  0.39904301456E+02  0.00000000000E+00 0.  1.
         23    2    1    2    0    0  0.00000000000E+00  0.00000000000E+00  0.17857691213E+02  0.97666294125E+02  0.96019830622E+02 0.  0.
          2    1    3    3  502    0 -0.20034726258E+02 -0.79895188564E+01  0.52556386684E+02  0.56810179097E+02  0.00000000000E+00 0. -1.
         -2    1    3    3    0  502  0.20034726258E+02  0.79895188564E+01 -0.34698695471E+02  0.40856115028E+02  0.00000000000E+00 0.  1.
<mgrwt>
<rscale>  0 0.96019831E+02</rscale>
<asrwt>0</asrwt>
<pdfrwt beam="1">  1        2 0.88864605E-02 0.96019831E+02</pdfrwt>
<pdfrwt beam="2">  1       -2 0.61391233E-02 0.96019831E+02</pdfrwt>
<totfact> 0.90632081E+04</totfact>
</mgrwt>
</event>
<event>
 5    1  0.3854342E+001  0.8950635E+02  0.7546771E-02  0.1304052E+00
         -1   -1    0    0    0  501 -0.00000000000E+00  0.00000000000E+00  0.28586563577E+02  0.28586563577E+02  0.00000000000E+00 0.  1.
          1   -1    0    0  501    0  0.00000000000E+00 -0.00000000000E+00 -0.70062525865E+02  0.70062525865E+02  0.00000000000E+00 0. -1.
         23    2    1    2    0    0  0.00000000000E+00  0.00000000000E+00 -0.41475962289E+02  0.98649089442E+02  0.89506353964E+02 0.  0.
          2    1    3    3  502    0  0.26475416786E+02 -0.32696141089E+02 -0.37556512634E+02  0.56395717722E+02  0.00000000000E+00 0. -1.
         -2    1    3    3    0  502 -0.26475416786E+02  0.32696141089E+02 -0.39194496550E+01  0.42253371720E+02  0.00000000000E+00 0.  1.
<mgrwt>
<rscale>  0 0.89506354E+02</rscale>
<asrwt>0</asrwt>
<pdfrwt beam="2">  1        1 0.10778850E-01 0.89506354E+02</pdfrwt>
<pdfrwt beam="1">  1       -1 0.43979329E-02 0.89506354E+02</pdfrwt>
<totfact> 0.10383201E+05</totfact>
</mgrwt>
</event>
<event>
 5    1  0.3854342E+001  0.9083046E+02  0.7546771E-02  0.1300853E+00
          2   -1    0    0  501    0  0.00000000000E+00  0.00000000000E+00  0.10316024349E+04  0.10316024349E+04  0.00000000000E+00 0. -1.
         -2   -1    0    0    0  501 -0.00000000000E+00 -0.00000000000E+00 -0.19993584955E+01  0.19993584955E+01  0.00000000000E+00 0.  1.
         23    2    1    2    0    0  0.00000000000E+00  0.00000000000E+00  0.10296030764E+04  0.10336017934E+04  0.90830459479E+02 0.  0.
          2    1    3    3  502    0 -0.22186943600E+02  0.34857918512E+02  0.72926988285E+03  0.73043952315E+03  0.00000000000E+00 0. -1.
         -2    1    3    3    0  502  0.22186943600E+02 -0.34857918512E+02  0.30033319360E+03  0.30316227029E+03  0.00000000000E+00 0.  1.
<mgrwt>
<rscale>  0 0.90830459E+02</rscale>
<asrwt>0</asrwt>
<pdfrwt beam="1">  1        2 0.15870764E+00 0.90830459E+02</pdfrwt>
<pdfrwt beam="2">  1       -2 0.30759444E-03 0.90830459E+02</pdfrwt>
<totfact> 0.25278415E+05</totfact>
</mgrwt>
</event>
<event>
 5    1  0.3854342E+001  0.9415507E+02  0.7546771E-02  0.1293091E+00
          2   -1    0    0  501    0  0.00000000000E+00  0.00000000000E+00  0.57645469916E+02  0.57645469916E+02  0.00000000000E+00 0. -1.
         -2   -1    0    0    0  501 -0.00000000000E+00 -0.00000000000E+00 -0.38446978553E+02  0.38446978553E+02  0.00000000000E+00 0.  1.
         23    2    1    2    0    0  0.00000000000E+00  0.00000000000E+00  0.19198491362E+02  0.96092448469E+02  0.94155066683E+02 0.  0.
          2    1    3    3  502    0  0.26590276531E+02  0.26095859930E+02 -0.19772396954E+02  0.42178008402E+02  0.00000000000E+00 0.  1.
         -2    1    3    3    0  502 -0.26590276531E+02 -0.26095859930E+02  0.38970888317E+02  0.53914440066E+02  0.00000000000E+00 0. -1.
<mgrwt>
<rscale>  0 0.94155067E+02</rscale>
<asrwt>0</asrwt>
<pdfrwt beam="1">  1        2 0.88685339E-02 0.94155067E+02</pdfrwt>
<pdfrwt beam="2">  1       -2 0.59149198E-02 0.94155067E+02</pdfrwt>
<totfact> 0.95791233E+04</totfact>
</mgrwt>
</event>
<event>
 5    1  0.3854342E+001  0.9093588E+02  0.7546771E-02  0.1300601E+00
          1   -1    0    0  501    0  0.00000000000E+00  0.00000000000E+00  0.34217205753E+02  0.34217205753E+02  0.00000000000E+00 0. -1.
         -1   -1    0    0    0  501 -0.00000000000E+00 -0.00000000000E+00 -0.60417955361E+02  0.60417955361E+02  0.00000000000E+00 0.  1.
         23    2    1    2    0    0  0.00000000000E+00  0.00000000000E+00 -0.26200749607E+02  0.94635161114E+02  0.90935880922E+02 0.  0.
          2    1    3    3  502    0 -0.29310250615E+02  0.17627580643E+02 -0.44277580667E+02  0.55949321177E+02  0.00000000000E+00 0. -1.
         -2    1    3    3    0  502  0.29310250615E+02 -0.17627580643E+02  0.18076831060E+02  0.38685839937E+02  0.00000000000E+00 0.  1.
<mgrwt>
<rscale>  0 0.90935881E+02</rscale>
<asrwt>0</asrwt>
<pdfrwt beam="1">  1        1 0.52641856E-02 0.90935881E+02</pdfrwt>
<pdfrwt beam="2">  1       -1 0.92950700E-02 0.90935881E+02</pdfrwt>
<totfact> 0.89181284E+04</totfact>
</mgrwt>
</event>
<event>
 5    1  0.3854342E+001  0.8882389E+02  0.7546771E-02  0.1305725E+00
         -1   -1    0    0    0  501 -0.00000000000E+00  0.00000000000E+00  0.20087470771E+03  0.20087470771E+03  0.00000000000E+00 0.  1.
          1   -1    0    0  501    0  0.00000000000E+00 -0.00000000000E+00 -0.98191606175E+01  0.98191606175E+01  0.00000000000E+00 0. -1.
         23    2    1    2    0    0  0.00000000000E+00  0.00000000000E+00  0.19105554709E+03  0.21069386833E+03  0.88823893610E+02 0.  0.
          2    1    3    3  502    0  0.16240236630E+02 -0.41310003428E+02  0.92042124875E+02  0.10218617529E+03  0.00000000000E+00 0. -1.
         -2    1    3    3    0  502 -0.16240236630E+02  0.41310003428E+02  0.99013422219E+02  0.10850769304E+03  0.00000000000E+00 0.  1.
<mgrwt>
<rscale>  0 0.88823894E+02</rscale>
<asrwt>0</asrwt>
<pdfrwt beam="2">  1        1 0.15106402E-02 0.88823894E+02</pdfrwt>
<pdfrwt beam="1">  1       -1 0.30903798E-01 0.88823894E+02</pdfrwt>
<totfact> 0.74218505E+04</totfact>
</mgrwt>
</event>
<event>
 5    1  0.3854342E+001  0.8988710E+02  0.7546771E-02  0.1303125E+00
          2   -1    0    0  501    0  0.00000000000E+00  0.00000000000E+00  0.20526055640E+04  0.20526055640E+04  0.00000000000E+00 0. -1.
         -2   -1    0    0    0  501 -0.00000000000E+00 -0.00000000000E+00 -0.98407731056E+00  0.98407731056E+00  0.00000000000E+00 0.  1.
         23    2    1    2    0    0  0.00000000000E+00  0.00000000000E+00  0.20516214867E+04  0.20535896413E+04  0.89887097252E+02 0.  0.
          2    1    3    3  502    0 -0.24020477962E+02  0.16203556040E+02  0.18107353811E+04  0.18109671889E+04  0.00000000000E+00 0. -1.
         -2    1    3    3    0  502  0.24020477962E+02 -0.16203556040E+02  0.24088610559E+03  0.24262245250E+03  0.00000000000E+00 0.  1.
<mgrwt>
<rscale>  0 0.89887097E+02</rscale>
<asrwt>0</asrwt>
<pdfrwt beam="1">  1        2 0.31578204E+00 0.89887097E+02</pdfrwt>
<pdfrwt beam="2">  1       -2 0.15139815E-03 0.89887097E+02</pdfrwt>
<totfact> 0.19930174E+05</totfact>
</mgrwt>
</event>
<event>
 5    1  0.3854342E+001  0.9045501E+02  0.7546771E-02  0.1301754E+00
         -2   -1    0    0    0  501 -0.00000000000E+00  0.00000000000E+00  0.42146870177E+01  0.42146870177E+01  0.00000000000E+00 0.  1.
          2   -1    0    0  501    0  0.00000000000E+00 -0.00000000000E+00 -0.48533307909E+03  0.48533307909E+03  0.00000000000E+00 0. -1.
         23    2    1    2    0    0  0.00000000000E+00  0.00000000000E+00 -0.48111839207E+03  0.48954776610E+03  0.90455006001E+02 0.  0.
          2    1    3    3  502    0  0.80992472028E+01  0.36566023873E+02 -0.10333868887E+03  0.10991613405E+03  0.00000000000E+00 0. -1.
         -2    1    3    3    0  502 -0.80992472028E+01 -0.36566023873E+02 -0.37777970320E+03  0.37963163205E+03  0.00000000000E+00 0.  1.
<mgrwt>
<rscale>  0 0.90455006E+02</rscale>
<asrwt>0</asrwt>
<pdfrwt beam="2">  1        2 0.74666642E-01 0.90455006E+02</pdfrwt>
<pdfrwt beam="1">  1       -2 0.64841326E-03 0.90455006E+02</pdfrwt>
<totfact> 0.21793979E+05</totfact>
</mgrwt>
</event>
<event>
 5    1  0.3854342E+001  0.9252846E+02  0.7546771E-02  0.1296842E+00
         -1   -1    0    0    0  501 -0.00000000000E+00  0.00000000000E+00  0.17141540988E+01  0.17141540988E+01  0.00000000000E+00 0.  1.
          1   -1    0    0  501    0  0.00000000000E+00 -0.00000000000E+00 -0.12486502870E+04  0.12486502870E+04  0.00000000000E+00 0. -1.
         23    2    1    2    0    0  0.00000000000E+00  0.00000000000E+00 -0.12469361329E+04  0.12503644411E+04  0.92528460647E+02 0.  0.
          2    1    3    3  502    0 -0.25358518996E+02 -0.17439259201E+02 -0.15668261678E+03  0.15967662524E+03  0.00000000000E+00 0.  1.
         -2    1    3    3    0  502  0.25358518996E+02  0.17439259201E+02 -0.10902535161E+04  0.10906878159E+04  0.00000000000E+00 0. -1.
<mgrwt>
<rscale>  0 0.92528461E+02</rscale>
<asrwt>0</asrwt>
<pdfrwt beam="2">  1        1 0.19210007E+00 0.92528461E+02</pdfrwt>
<pdfrwt beam="1">  1       -1 0.26371598E-03 0.92528461E+02</pdfrwt>
<totfact> 0.12004694E+05</totfact>
</mgrwt>
</event>
<event>
 5    1  0.3854342E+001  0.9233380E+02  0.7546771E-02  0.1297296E+00
         -1   -1    0    0    0  501 -0.00000000000E+00  0.00000000000E+00  0.70671091295E+01  0.70671091295E+01  0.00000000000E+00 0.  1.
          1   -1    0    0  501    0  0.00000000000E+00 -0.00000000000E+00 -0.30159188596E+03  0.30159188596E+03  0.00000000000E+00 0. -1.
         23    2    1    2    0    0  0.00000000000E+00  0.00000000000E+00 -0.29452477683E+03  0.30865899509E+03  0.92333802492E+02 0.  0.
          2    1    3    3  502    0 -0.99384113489E+01 -0.17821833856E+02 -0.28569849969E+03  0.28642629507E+03  0.00000000000E+00 0. -1.
         -2    1    3    3    0  502  0.99384113489E+01  0.17821833856E+02 -0.88262771445E+01  0.22232700024E+02  0.00000000000E+00 0.  1.
<mgrwt>
<rscale>  0 0.92333802E+02</rscale>
<asrwt>0</asrwt>
<pdfrwt beam="2">  1        1 0.46398743E-01 0.92333802E+02</pdfrwt>
<pdfrwt beam="1">  1       -1 0.10872478E-02 0.92333802E+02</pdfrwt>
<totfact> 0.12400870E+05</totfact>
</mgrwt>
</event>
<event>
 5    1  0.3854342E+001  0.8537699E+02  0.7546771E-02  0.1314450E+00
         -2   -1    0    0    0  501 -0.00000000000E+00  0.00000000000E+00  0.71732996874E+00  0.71732996874E+00  0.00000000000E+00 0.  1.
          2   -1    0    0  501    0  0.00000000000E+00 -0.00000000000E+00 -0.25404038410E+04  0.25404038410E+04  0.00000000000E+00 0. -1.
         23    2    1    2    0    0  0.00000000000E+00  0.00000000000E+00 -0.25396865110E+04  0.25411211710E+04  0.85376994744E+02 0.  0.
          2    1    3    3  502    0  0.29035338688E+02 -0.13949269766E+02 -0.21035808026E+04  0.21038274231E+04  0.00000000000E+00 0. -1.
         -2    1    3    3    0  502 -0.29035338688E+02  0.13949269766E+02 -0.43610570845E+03  0.43729374791E+03  0.00000000000E+00 0.  1.
<mgrwt>
<rscale>  0 0.85376995E+02</rscale>
<asrwt>0</asrwt>
<pdfrwt beam="2">  1        2 0.39083320E+00 0.85376995E+02</pdfrwt>
<pdfrwt beam="1">  1       -2 0.11035794E-03 0.85376995E+02</pdfrwt>
<totfact> 0.17212782E+05</totfact>
</mgrwt>
</event>
<event>
 5    1  0.3854342E+001  0.9035729E+02  0.7546771E-02  0.1301989E+00
         -1   -1    0    0    0  501 -0.00000000000E+00  0.00000000000E+00  0.25518452258E+03  0.25518452258E+03  0.00000000000E+00 0.  1.
          1   -1    0    0  501    0  0.00000000000E+00 -0.00000000000E+00 -0.79985642605E+01  0.79985642605E+01  0.00000000000E+00 0. -1.
         23    2    1    2    0    0  0.00000000000E+00  0.00000000000E+00  0.24718595832E+03  0.26318308684E+03  0.90357286417E+02 0.  0.
          2    1    3    3  502    0  0.28042806914E+02 -0.27299466548E+02  0.57850581202E+02  0.69845183361E+02  0.00000000000E+00 0.  1.
         -2    1    3    3    0  502 -0.28042806914E+02  0.27299466548E+02  0.18933537712E+03  0.19333790348E+03  0.00000000000E+00 0. -1.
<mgrwt>
<rscale>  0 0.90357286E+02</rscale>
<asrwt>0</asrwt>
<pdfrwt beam="2">  1        1 0.12305485E-02 0.90357286E+02</pdfrwt>
<pdfrwt beam="1">  1       -1 0.39259151E-01 0.90357286E+02</pdfrwt>
<totfact> 0.65845854E+04</totfact>
</mgrwt>
</event>
<event>
 5    1  0.3854342E+001  0.7290561E+02  0.7546771E-02  0.1350482E+00
         -2   -1    0    0    0  501 -0.00000000000E+00  0.00000000000E+00  0.11520446103E+01  0.11520446103E+01  0.00000000000E+00 0.  1.
          2   -1    0    0  501    0  0.00000000000E+00 -0.00000000000E+00 -0.11534337651E+04  0.11534337651E+04  0.00000000000E+00 0. -1.
         23    2    1    2    0    0  0.00000000000E+00  0.00000000000E+00 -0.11522817204E+04  0.11545858097E+04  0.72905614390E+02 0.  0.
          2    1    3    3  502    0 -0.18575332340E+02 -0.20061054061E+02 -0.95797278378E+03  0.95836284534E+03  0.00000000000E+00 0. -1.
         -2    1    3    3    0  502  0.18575332340E+02  0.20061054061E+02 -0.19430893666E+03  0.19622296432E+03  0.00000000000E+00 0.  1.
<mgrwt>
<rscale>  0 0.72905614E+02</rscale>
<asrwt>0</asrwt>
<pdfrwt beam="2">  1        2 0.17745091E+00 0.72905614E+02</pdfrwt>
<pdfrwt beam="1">  1       -2 0.17723807E-03 0.72905614E+02</pdfrwt>
<totfact> 0.44672571E+05</totfact>
</mgrwt>
</event>
<event>
 5    1  0.3854342E+001  0.9074569E+02  0.7546771E-02  0.1301056E+00
         -1   -1    0    0    0  501 -0.00000000000E+00  0.00000000000E+00  0.30337567267E+01  0.30337567267E+01  0.00000000000E+00 0.  1.
          1   -1    0    0  501    0  0.00000000000E+00 -0.00000000000E+00 -0.67859593469E+03  0.67859593469E+03  0.00000000000E+00 0. -1.
         23    2    1    2    0    0  0.00000000000E+00  0.00000000000E+00 -0.67556217796E+03  0.68162969141E+03  0.90745688196E+02 0.  0.
          2    1    3    3  502    0  0.34401482121E+02  0.19520055609E+02 -0.50476478303E+03  0.50631213765E+03  0.00000000000E+00 0. -1.
         -2    1    3    3    0  502 -0.34401482121E+02 -0.19520055609E+02 -0.17079739493E+03  0.17531755376E+03  0.00000000000E+00 0.  1.
<mgrwt>
<rscale>  0 0.90745688E+02</rscale>
<asrwt>0</asrwt>
<pdfrwt beam="2">  1        1 0.10439953E+00 0.90745688E+02</pdfrwt>
<pdfrwt beam="1">  1       -1 0.46673109E-03 0.90745688E+02</pdfrwt>
<totfact> 0.14397479E+05</totfact>
</mgrwt>
</event>
<event>
 5    1  0.3854342E+001  0.9030334E+02  0.7546771E-02  0.1302119E+00
         -2   -1    0    0    0  501 -0.00000000000E+00  0.00000000000E+00  0.13957692030E+01  0.13957692030E+01  0.00000000000E+00 0.  1.
          2   -1    0    0  501    0  0.00000000000E+00 -0.00000000000E+00 -0.14606091114E+04  0.14606091114E+04  0.00000000000E+00 0. -1.
         23    2    1    2    0    0  0.00000000000E+00  0.00000000000E+00 -0.14592133422E+04  0.14620048806E+04  0.90303338040E+02 0.  0.
          2    1    3    3  502    0 -0.35301929385E+02 -0.27363889857E+02 -0.62262499267E+03  0.62422503168E+03  0.00000000000E+00 0. -1.
         -2    1    3    3    0  502  0.35301929385E+02  0.27363889857E+02 -0.83658834953E+03  0.83777984892E+03  0.00000000000E+00 0.  1.
<mgrwt>
<rscale>  0 0.90303338E+02</rscale>
<asrwt>0</asrwt>
<pdfrwt beam="2">  1        2 0.22470926E+00 0.90303338E+02</pdfrwt>
<pdfrwt beam="1">  1       -2 0.21473357E-03 0.90303338E+02</pdfrwt>
<totfact> 0.24434948E+05</totfact>
</mgrwt>
</event>
<event>
 5    1  0.3854342E+001  0.9504490E+02  0.7546771E-02  0.1291075E+00
         -4   -1    0    0    0  501 -0.00000000000E+00  0.00000000000E+00  0.39939918512E+02  0.39939918512E+02  0.00000000000E+00 0.  1.
          4   -1    0    0  501    0  0.00000000000E+00 -0.00000000000E+00 -0.56544511872E+02  0.56544511872E+02  0.00000000000E+00 0. -1.
         23    2    1    2    0    0  0.00000000000E+00  0.00000000000E+00 -0.16604593360E+02  0.96484430385E+02  0.95044898790E+02 0.  0.
          2    1    3    3  502    0  0.12993930652E+02  0.45449177015E+02 -0.33381121012E+01  0.47387898429E+02  0.00000000000E+00 0. -1.
         -2    1    3    3    0  502 -0.12993930652E+02 -0.45449177015E+02 -0.13266481258E+02  0.49096531956E+02  0.00000000000E+00 0.  1.
<mgrwt>
<rscale>  0 0.95044899E+02</rscale>
<asrwt>0</asrwt>
<pdfrwt beam="2">  1        4 0.86991557E-02 0.95044899E+02</pdfrwt>
<pdfrwt beam="1">  1       -4 0.61446029E-02 0.95044899E+02</pdfrwt>
<totfact> 0.23823359E+04</totfact>
</mgrwt>
</event>
<event>
 5    1  0.3854342E+001  0.9023067E+02  0.7546771E-02  0.1302294E+00
          3   -1    0    0  501    0  0.00000000000E+00  0.00000000000E+00  0.69223307861E+02  0.69223307861E+02  0.00000000000E+00 0. -1.
         -3   -1    0    0    0  501 -0.00000000000E+00 -0.00000000000E+00 -0.29403295142E+02  0.29403295142E+02  0.00000000000E+00 0.  1.
         23    2    1    2    0    0  0.00000000000E+00  0.00000000000E+00  0.39820012719E+02  0.98626603002E+02  0.90230667773E+02 0.  0.
          2    1    3    3  502    0 -0.28199111728E+02  0.29987954878E+02  0.40092274526E+02  0.57461794409E+02  0.00000000000E+00 0. -1.
         -2    1    3    3    0  502  0.28199111728E+02 -0.29987954878E+02 -0.27226180731E+00  0.41164808593E+02  0.00000000000E+00 0.  1.
<mgrwt>
<rscale>  0 0.90230668E+02</rscale>
<asrwt>0</asrwt>
<pdfrwt beam="1">  1        3 0.10649740E-01 0.90230668E+02</pdfrwt>
<pdfrwt beam="2">  1       -3 0.45235839E-02 0.90230668E+02</pdfrwt>
<totfact> 0.35772885E+04</totfact>
</mgrwt>
</event>
<event>
 5    1  0.3854342E+001  0.8695885E+02  0.7546771E-02  0.1310388E+00
         -1   -1    0    0    0  501 -0.00000000000E+00  0.00000000000E+00  0.70998929880E+02  0.70998929880E+02  0.00000000000E+00 0.  1.
          1   -1    0    0  501    0  0.00000000000E+00 -0.00000000000E+00 -0.26626603206E+02  0.26626603206E+02  0.00000000000E+00 0. -1.
         23    2    1    2    0    0  0.00000000000E+00  0.00000000000E+00  0.44372326674E+02  0.97625533086E+02  0.86958848519E+02 0.  0.
          2    1    3    3  502    0 -0.41115269254E+02  0.10149628103E+02  0.33241978444E+02  0.53837806858E+02  0.00000000000E+00 0. -1.
         -2    1    3    3    0  502  0.41115269254E+02 -0.10149628103E+02  0.11130348230E+02  0.43787726227E+02  0.00000000000E+00 0.  1.
<mgrwt>
<rscale>  0 0.86958849E+02</rscale>
<asrwt>0</asrwt>
<pdfrwt beam="2">  1        1 0.40964005E-02 0.86958849E+02</pdfrwt>
<pdfrwt beam="1">  1       -1 0.10922912E-01 0.86958849E+02</pdfrwt>
<totfact> 0.97412185E+04</totfact>
</mgrwt>
</event>
<event>
 5    1  0.3854342E+001  0.9020716E+02  0.7546771E-02  0.1302351E+00
         -2   -1    0    0    0  501 -0.00000000000E+00  0.00000000000E+00  0.51072987600E+01  0.51072987600E+01  0.00000000000E+00 0.  1.
          2   -1    0    0  501    0  0.00000000000E+00 -0.00000000000E+00 -0.39831879550E+03  0.39831879550E+03  0.00000000000E+00 0. -1.
         23    2    1    2    0    0  0.00000000000E+00  0.00000000000E+00 -0.39321149674E+03  0.40342609426E+03  0.90207163582E+02 0.  0.
          2    1    3    3  502    0 -0.18674287346E+02 -0.16968202871E+02 -0.36380236395E+03  0.36467630706E+03  0.00000000000E+00 0. -1.
         -2    1    3    3    0  502  0.18674287346E+02  0.16968202871E+02 -0.29409132795E+02  0.38749787203E+02  0.00000000000E+00 0.  1.
<mgrwt>
<rscale>  0 0.90207164E+02</rscale>
<asrwt>0</asrwt>
<pdfrwt beam="2">  1        2 0.61279822E-01 0.90207164E+02</pdfrwt>
<pdfrwt beam="1">  1       -2 0.78573818E-03 0.90207164E+02</pdfrwt>
<totfact> 0.20505826E+05</totfact>
</mgrwt>
</event>
<event>
 5    1  0.3854342E+001  0.9076482E+02  0.7546771E-02  0.1301010E+00
         -3   -1    0    0    0  501 -0.00000000000E+00  0.00000000000E+00  0.45747681561E+01  0.45747681561E+01  0.00000000000E+00 0.  1.
          3   -1    0    0  501    0  0.00000000000E+00 -0.00000000000E+00 -0.45020056160E+03  0.45020056160E+03  0.00000000000E+00 0. -1.
         23    2    1    2    0    0  0.00000000000E+00  0.00000000000E+00 -0.44562579344E+03  0.45477532976E+03  0.90764821227E+02 0.  0.
          2    1    3    3  502    0 -0.35784067465E+02 -0.95863156960E+01 -0.35415690164E+03  0.35608918534E+03  0.00000000000E+00 0. -1.
         -2    1    3    3    0  502  0.35784067465E+02  0.95863156960E+01 -0.91468891800E+02  0.98686144418E+02  0.00000000000E+00 0.  1.
<mgrwt>
<rscale>  0 0.90764821E+02</rscale>
<asrwt>0</asrwt>
<pdfrwt beam="2">  1        3 0.69261611E-01 0.90764821E+02</pdfrwt>
<pdfrwt beam="1">  1       -3 0.70381063E-03 0.90764821E+02</pdfrwt>
<totfact> 0.19292587E+04</totfact>
</mgrwt>
</event>
<event>
 5    1  0.3854342E+001  0.9292687E+02  0.7546771E-02  0.1295915E+00
         -2   -1    0    0    0  501 -0.00000000000E+00  0.00000000000E+00  0.38203872931E+01  0.38203872931E+01  0.00000000000E+00 0.  1.
          2   -1    0    0  501    0  0.00000000000E+00 -0.00000000000E+00 -0.56508687022E+03  0.56508687022E+03  0.00000000000E+00 0. -1.
         23    2    1    2    0    0  0.00000000000E+00  0.00000000000E+00 -0.56126648293E+03  0.56890725751E+03  0.92926867987E+02 0.  0.
          2    1    3    3  502    0  0.57305340795E+01 -0.30704973752E+02 -0.70045910828E+02  0.76694615572E+02  0.00000000000E+00 0.  1.
         -2    1    3    3    0  502 -0.57305340795E+01  0.30704973752E+02 -0.49122057210E+03  0.49221264194E+03  0.00000000000E+00 0. -1.
<mgrwt>
<rscale>  0 0.92926868E+02</rscale>
<asrwt>0</asrwt>
<pdfrwt beam="2">  1        2 0.86936455E-01 0.92926868E+02</pdfrwt>
<pdfrwt beam="1">  1       -2 0.58775180E-03 0.92926868E+02</pdfrwt>
<totfact> 0.21291539E+05</totfact>
</mgrwt>
</event>
<event>
 5    1  0.3854342E+001  0.9713617E+02  0.7546771E-02  0.1286436E+00
         -1   -1    0    0    0  501 -0.00000000000E+00  0.00000000000E+00  0.81536193914E+02  0.81536193914E+02  0.00000000000E+00 0.  1.
          1   -1    0    0  501    0  0.00000000000E+00 -0.00000000000E+00 -0.28930203594E+02  0.28930203594E+02  0.00000000000E+00 0. -1.
         23    2    1    2    0    0  0.00000000000E+00  0.00000000000E+00  0.52605990320E+02  0.11046639751E+03  0.97136166080E+02 0.  0.
          2    1    3    3  502    0 -0.37607877261E+02  0.46395918509E+01 -0.82468004994E+01  0.38779994367E+02  0.00000000000E+00 0. -1.
         -2    1    3    3    0  502  0.37607877261E+02 -0.46395918509E+01  0.60852790820E+02  0.71686403140E+02  0.00000000000E+00 0.  1.
<mgrwt>
<rscale>  0 0.97136166E+02</rscale>
<asrwt>0</asrwt>
<pdfrwt beam="2">  1        1 0.44508006E-02 0.97136166E+02</pdfrwt>
<pdfrwt beam="1">  1       -1 0.12544030E-01 0.97136166E+02</pdfrwt>
<totfact> 0.71729857E+04</totfact>
</mgrwt>
</event>
<event>
 5    1  0.3854342E+001  0.9274197E+02  0.7546771E-02  0.1296344E+00
          2   -1    0    0  501    0  0.00000000000E+00  0.00000000000E+00  0.60388982939E+01  0.60388982939E+01  0.00000000000E+00 0. -1.
         -2   -1    0    0    0  501 -0.00000000000E+00 -0.00000000000E+00 -0.35606964917E+03  0.35606964917E+03  0.00000000000E+00 0.  1.
         23    2    1    2    0    0  0.00000000000E+00  0.00000000000E+00 -0.35003075087E+03  0.36210854746E+03  0.92741973170E+02 0.  0.
          2    1    3    3  502    0  0.40668586600E+01 -0.33454070835E+02 -0.50649832082E+02  0.60836828358E+02  0.00000000000E+00 0. -1.
         -2    1    3    3    0  502 -0.40668586600E+01  0.33454070835E+02 -0.29938091879E+03  0.30127171910E+03  0.00000000000E+00 0.  1.
<mgrwt>
<rscale>  0 0.92741973E+02</rscale>
<asrwt>0</asrwt>
<pdfrwt beam="1">  1        2 0.92906123E-03 0.92741973E+02</pdfrwt>
<pdfrwt beam="2">  1       -2 0.54779949E-01 0.92741973E+02</pdfrwt>
<totfact> 0.44076234E+04</totfact>
</mgrwt>
</event>
<event>
 5    1  0.3854342E+001  0.1050473E+03  0.7546771E-02  0.1270027E+00
          2   -1    0    0  501    0  0.00000000000E+00  0.00000000000E+00  0.76884037588E+03  0.76884037588E+03  0.00000000000E+00 0.  1.
         -2   -1    0    0    0  501 -0.00000000000E+00 -0.00000000000E+00 -0.35881722897E+01  0.35881722897E+01  0.00000000000E+00 0. -1.
         23    2    1    2    0    0  0.00000000000E+00  0.00000000000E+00  0.76525220359E+03  0.77242854817E+03  0.10504726045E+03 0.  0.
          2    1    3    3  502    0  0.19610047815E+02  0.47869340076E+02  0.44949696681E+03  0.45246386691E+03  0.00000000000E+00 0. -1.
         -2    1    3    3    0  502 -0.19610047815E+02 -0.47869340076E+02  0.31575523678E+03  0.31996468126E+03  0.00000000000E+00 0.  1.
<mgrwt>
<rscale>  0 0.10504726E+03</rscale>
<asrwt>0</asrwt>
<pdfrwt beam="1">  1        2 0.11828300E+00 0.10504726E+03</pdfrwt>
<pdfrwt beam="2">  1       -2 0.55202712E-03 0.10504726E+03</pdfrwt>
<totfact> 0.16613396E+05</totfact>
</mgrwt>
</event>
<event>
 5    1  0.3854342E+001  0.6552920E+02  0.7546771E-02  0.1375992E+00
         -2   -1    0    0    0  501 -0.00000000000E+00  0.00000000000E+00  0.84666024108E+02  0.84666024108E+02  0.00000000000E+00 0.  1.
          2   -1    0    0  501    0  0.00000000000E+00 -0.00000000000E+00 -0.12679455383E+02  0.12679455383E+02  0.00000000000E+00 0. -1.
         23    2    1    2    0    0  0.00000000000E+00  0.00000000000E+00  0.71986568724E+02  0.97345479491E+02  0.65529201893E+02 0.  0.
          2    1    3    3  502    0 -0.18808125549E+02 -0.19328814522E+02  0.83540577803E+01  0.28233649053E+02  0.00000000000E+00 0. -1.
         -2    1    3    3    0  502  0.18808125549E+02  0.19328814522E+02  0.63632510944E+02  0.69111830438E+02  0.00000000000E+00 0.  1.
<mgrwt>
<rscale>  0 0.65529202E+02</rscale>
<asrwt>0</asrwt>
<pdfrwt beam="2">  1        2 0.19506855E-02 0.65529202E+02</pdfrwt>
<pdfrwt beam="1">  1       -2 0.13025542E-01 0.65529202E+02</pdfrwt>
<totfact> 0.18931440E+05</totfact>
</mgrwt>
</event>
<event>
 5    1  0.3854342E+001  0.9150739E+02  0.7546771E-02  0.1299242E+00
          2   -1    0    0  501    0  0.00000000000E+00  0.00000000000E+00  0.88214780259E+02  0.88214780259E+02  0.00000000000E+00 0. -1.
         -2   -1    0    0    0  501 -0.00000000000E+00 -0.00000000000E+00 -0.23730724809E+02  0.23730724809E+02  0.00000000000E+00 0.  1.
         23    2    1    2    0    0  0.00000000000E+00  0.00000000000E+00  0.64484055449E+02  0.11194550507E+03  0.91507391492E+02 0.  0.
          2    1    3    3  502    0 -0.29040284006E+02 -0.24545742952E+02  0.63373061116E+02  0.73905185660E+02  0.00000000000E+00 0. -1.
         -2    1    3    3    0  502  0.29040284006E+02  0.24545742952E+02  0.11109943329E+01  0.38040319408E+02  0.00000000000E+00 0.  1.
<mgrwt>
<rscale>  0 0.91507391E+02</rscale>
<asrwt>0</asrwt>
<pdfrwt beam="1">  1        2 0.13571505E-01 0.91507391E+02</pdfrwt>
<pdfrwt beam="2">  1       -2 0.36508808E-02 0.91507391E+02</pdfrwt>
<totfact> 0.11697941E+05</totfact>
</mgrwt>
</event>
<event>
 5    1  0.3854342E+001  0.9110070E+02  0.7546771E-02  0.1300208E+00
         -1   -1    0    0    0  501 -0.00000000000E+00  0.00000000000E+00  0.20678068606E+03  0.20678068606E+03  0.00000000000E+00 0.  1.
          1   -1    0    0  501    0  0.00000000000E+00 -0.00000000000E+00 -0.10033985785E+02  0.10033985785E+02  0.00000000000E+00 0. -1.
         23    2    1    2    0    0  0.00000000000E+00  0.00000000000E+00  0.19674670028E+03  0.21681467185E+03  0.91100701746E+02 0.  0.
          2    1    3    3  502    0  0.27043988415E+02  0.33663427126E+02  0.63865719001E+02  0.77093668344E+02  0.00000000000E+00 0. -1.
         -2    1    3    3    0  502 -0.27043988415E+02 -0.33663427126E+02  0.13288098128E+03  0.13972100350E+03  0.00000000000E+00 0.  1.
<mgrwt>
<rscale>  0 0.91100702E+02</rscale>
<asrwt>0</asrwt>
<pdfrwt beam="2">  1        1 0.15436903E-02 0.91100702E+02</pdfrwt>
<pdfrwt beam="1">  1       -1 0.31812410E-01 0.91100702E+02</pdfrwt>
<totfact> 0.68907529E+04</totfact>
</mgrwt>
</event>
<event>
 5    1  0.3854342E+001  0.8959443E+02  0.7546771E-02  0.1303837E+00
         -2   -1    0    0    0  501 -0.00000000000E+00  0.00000000000E+00  0.64640841429E+00  0.64640841429E+00  0.00000000000E+00 0.  1.
          2   -1    0    0  501    0  0.00000000000E+00 -0.00000000000E+00 -0.31045238945E+04  0.31045238945E+04  0.00000000000E+00 0. -1.
         23    2    1    2    0    0  0.00000000000E+00  0.00000000000E+00 -0.31038774860E+04  0.31051703029E+04  0.89594427678E+02 0.  0.
          2    1    3    3  502    0 -0.11839023737E+02  0.42292538299E+02 -0.12459075790E+04  0.12466814014E+04  0.00000000000E+00 0.  1.
         -2    1    3    3    0  502  0.11839023737E+02 -0.42292538299E+02 -0.18579699071E+04  0.18584889015E+04  0.00000000000E+00 0. -1.
<mgrwt>
<rscale>  0 0.89594428E+02</rscale>
<asrwt>0</asrwt>
<pdfrwt beam="2">  1        2 0.47763483E+00 0.89594428E+02</pdfrwt>
<pdfrwt beam="1">  1       -2 0.99444165E-04 0.89594428E+02</pdfrwt>
<totfact> 0.97464804E+04</totfact>
</mgrwt>
</event>
<event>
 5    1  0.3854342E+001  0.9046594E+02  0.7546771E-02  0.1301727E+00
         -2   -1    0    0    0  501 -0.00000000000E+00  0.00000000000E+00  0.27553917846E+03  0.27553917846E+03  0.00000000000E+00 0.  1.
          2   -1    0    0  501    0  0.00000000000E+00 -0.00000000000E+00 -0.74255200047E+01  0.74255200047E+01  0.00000000000E+00 0. -1.
         23    2    1    2    0    0  0.00000000000E+00  0.00000000000E+00  0.26811365846E+03  0.28296469847E+03  0.90465942359E+02 0.  0.
          2    1    3    3  502    0 -0.70697446109E+00 -0.32203654752E+02  0.34728398122E+02  0.47367043695E+02  0.00000000000E+00 0. -1.
         -2    1    3    3    0  502  0.70697446109E+00  0.32203654752E+02  0.23338526033E+03  0.23559765477E+03  0.00000000000E+00 0.  1.
<mgrwt>
<rscale>  0 0.90465942E+02</rscale>
<asrwt>0</asrwt>
<pdfrwt beam="2">  1        2 0.11423879E-02 0.90465942E+02</pdfrwt>
<pdfrwt beam="1">  1       -2 0.42390635E-01 0.90465942E+02</pdfrwt>
<totfact> 0.54515730E+04</totfact>
</mgrwt>
</event>
<event>
 5    1  0.3854342E+001  0.8793113E+02  0.7546771E-02  0.1307941E+00
          2   -1    0    0  501    0  0.00000000000E+00  0.00000000000E+00  0.33237385533E+01  0.33237385533E+01  0.00000000000E+00 0. -1.
         -2   -1    0    0    0  501 -0.00000000000E+00 -0.00000000000E+00 -0.58156525130E+03  0.58156525130E+03  0.00000000000E+00 0.  1.
         23    2    1    2    0    0  0.00000000000E+00  0.00000000000E+00 -0.57824151274E+03  0.58488898985E+03  0.87931128663E+02 0.  0.
          2    1    3    3  502    0 -0.39688668283E+02 -0.17480351442E+02 -0.33718697534E+03  0.33996442375E+03  0.00000000000E+00 0. -1.
         -2    1    3    3    0  502  0.39688668283E+02  0.17480351442E+02 -0.24105453741E+03  0.24492456611E+03  0.00000000000E+00 0.  1.
<mgrwt>
<rscale>  0 0.87931129E+02</rscale>
<asrwt>0</asrwt>
<pdfrwt beam="1">  1        2 0.51134498E-03 0.87931129E+02</pdfrwt>
<pdfrwt beam="2">  1       -2 0.89471475E-01 0.87931129E+02</pdfrwt>
<totfact> 0.35267901E+04</totfact>
</mgrwt>
</event>
<event>
 5    1  0.3854342E+001  0.9317563E+02  0.7546771E-02  0.1295339E+00
         -2   -1    0    0    0  501 -0.00000000000E+00  0.00000000000E+00  0.28276139290E+02  0.28276139290E+02  0.00000000000E+00 0.  1.
          2   -1    0    0  501    0  0.00000000000E+00 -0.00000000000E+00 -0.76758170367E+02  0.76758170367E+02  0.00000000000E+00 0. -1.
         23    2    1    2    0    0  0.00000000000E+00  0.00000000000E+00 -0.48482031078E+02  0.10503430966E+03  0.93175634517E+02 0.  0.
          2    1    3    3  502    0  0.16065228041E+02  0.14962097318E+02 -0.70561740467E+02  0.73898004884E+02  0.00000000000E+00 0. -1.
         -2    1    3    3    0  502 -0.16065228041E+02 -0.14962097318E+02  0.22079709389E+02  0.31136304773E+02  0.00000000000E+00 0.  1.
<mgrwt>
<rscale>  0 0.93175635E+02</rscale>
<asrwt>0</asrwt>
<pdfrwt beam="2">  1        2 0.11808949E-01 0.93175635E+02</pdfrwt>
<pdfrwt beam="1">  1       -2 0.43501753E-02 0.93175635E+02</pdfrwt>
<totfact> 0.10684222E+05</totfact>
</mgrwt>
</event>
<event>
 5    1  0.3854342E+001  0.9293989E+02  0.7546771E-02  0.1295885E+00
         -1   -1    0    0    0  501 -0.00000000000E+00  0.00000000000E+00  0.12160277455E+02  0.12160277455E+02  0.00000000000E+00 0.  1.
          1   -1    0    0  501    0  0.00000000000E+00 -0.00000000000E+00 -0.17758276408E+03  0.17758276408E+03  0.00000000000E+00 0. -1.
         23    2    1    2    0    0  0.00000000000E+00  0.00000000000E+00 -0.16542248662E+03  0.18974304153E+03  0.92939887721E+02 0.  0.
          2    1    3    3  502    0 -0.16672812800E+02  0.28592051054E+02 -0.14930414184E+03  0.15292879010E+03  0.00000000000E+00 0. -1.
         -2    1    3    3    0  502  0.16672812800E+02 -0.28592051054E+02 -0.16118344780E+02  0.36814251433E+02  0.00000000000E+00 0.  1.
<mgrwt>
<rscale>  0 0.92939888E+02</rscale>
<asrwt>0</asrwt>
<pdfrwt beam="2">  1        1 0.27320423E-01 0.92939888E+02</pdfrwt>
<pdfrwt beam="1">  1       -1 0.18708121E-02 0.92939888E+02</pdfrwt>
<totfact> 0.10990960E+05</totfact>
</mgrwt>
</event>
<event>
 5    1  0.3854342E+001  0.1039052E+03  0.7546771E-02  0.1272292E+00
          3   -1    0    0  501    0  0.00000000000E+00  0.00000000000E+00  0.67551239495E+03  0.67551239495E+03  0.00000000000E+00 0. -1.
         -3   -1    0    0    0  501 -0.00000000000E+00 -0.00000000000E+00 -0.39955895043E+01  0.39955895043E+01  0.00000000000E+00 0.  1.
         23    2    1    2    0    0  0.00000000000E+00  0.00000000000E+00  0.67151680545E+03  0.67950798446E+03  0.10390515358E+03 0.  0.
          2    1    3    3  502    0 -0.37545836419E+02 -0.21124111767E+02  0.14586473125E+03  0.15209351648E+03  0.00000000000E+00 0.  1.
         -2    1    3    3    0  502  0.37545836419E+02  0.21124111767E+02  0.52565207419E+03  0.52741446798E+03  0.00000000000E+00 0. -1.
<mgrwt>
<rscale>  0 0.10390515E+03</rscale>
<asrwt>0</asrwt>
<pdfrwt beam="1">  1        3 0.10392489E+00 0.10390515E+03</pdfrwt>
<pdfrwt beam="2">  1       -3 0.61470661E-03 0.10390515E+03</pdfrwt>
<totfact> 0.10047792E+04</totfact>
</mgrwt>
</event>
<event>
 5    1  0.3854342E+001  0.8943735E+02  0.7546771E-02  0.1304220E+00
          2   -1    0    0  501    0  0.00000000000E+00  0.00000000000E+00  0.24477123107E+02  0.24477123107E+02  0.00000000000E+00 0.  1.
         -2   -1    0    0    0  501 -0.00000000000E+00 -0.00000000000E+00 -0.81699146802E+02  0.81699146802E+02  0.00000000000E+00 0. -1.
         23    2    1    2    0    0  0.00000000000E+00  0.00000000000E+00 -0.57222023696E+02  0.10617626991E+03  0.89437354030E+02 0.  0.
          2    1    3    3  502    0 -0.34630220372E+02 -0.19074278618E+02 -0.38031076454E+01  0.39718306806E+02  0.00000000000E+00 0. -1.
         -2    1    3    3    0  502  0.34630220372E+02  0.19074278618E+02 -0.53418916050E+02  0.66457963103E+02  0.00000000000E+00 0.  1.
<mgrwt>
<rscale>  0 0.89437354E+02</rscale>
<asrwt>0</asrwt>
<pdfrwt beam="1">  1        2 0.37657112E-02 0.89437354E+02</pdfrwt>
<pdfrwt beam="2">  1       -2 0.12569100E-01 0.89437354E+02</pdfrwt>
<totfact> 0.88687298E+04</totfact>
</mgrwt>
</event>
<event>
 5    1  0.3854342E+001  0.9131292E+02  0.7546771E-02  0.1299703E+00
          2   -1    0    0  501    0  0.00000000000E+00  0.00000000000E+00  0.11058799247E+03  0.11058799247E+03  0.00000000000E+00 0. -1.
         -2   -1    0    0    0  501 -0.00000000000E+00 -0.00000000000E+00 -0.18849356509E+02  0.18849356509E+02  0.00000000000E+00 0.  1.
         23    2    1    2    0    0  0.00000000000E+00  0.00000000000E+00  0.91738635960E+02  0.12943734898E+03  0.91312923415E+02 0.  0.
          2    1    3    3  502    0  0.29871485710E+01 -0.43376647032E+02  0.65615849517E+02  0.78714015729E+02  0.00000000000E+00 0. -1.
         -2    1    3    3    0  502 -0.29871485710E+01  0.43376647032E+02  0.26122786444E+02  0.50723333249E+02  0.00000000000E+00 0.  1.
<mgrwt>
<rscale>  0 0.91312923E+02</rscale>
<asrwt>0</asrwt>
<pdfrwt beam="1">  1        2 0.17013537E-01 0.91312923E+02</pdfrwt>
<pdfrwt beam="2">  1       -2 0.28999011E-02 0.91312923E+02</pdfrwt>
<totfact> 0.12603186E+05</totfact>
</mgrwt>
</event>
<event>
 5    1  0.3854342E+001  0.9072466E+02  0.7546771E-02  0.1301106E+00
          1   -1    0    0  501    0  0.00000000000E+00  0.00000000000E+00  0.19957010659E+02  0.19957010659E+02  0.00000000000E+00 0. -1.
         -1   -1    0    0    0  501 -0.00000000000E+00 -0.00000000000E+00 -0.10310867930E+03  0.10310867930E+03  0.00000000000E+00 0.  1.
         23    2    1    2    0    0  0.00000000000E+00  0.00000000000E+00 -0.83151668640E+02  0.12306568996E+03  0.90724660633E+02 0.  0.
          2    1    3    3  502    0  0.27146163623E+02  0.30538447551E+02 -0.14848465711E+02  0.43473991215E+02  0.00000000000E+00 0. -1.
         -2    1    3    3    0  502 -0.27146163623E+02 -0.30538447551E+02 -0.68303202929E+02  0.79591698742E+02  0.00000000000E+00 0.  1.
<mgrwt>
<rscale>  0 0.90724661E+02</rscale>
<asrwt>0</asrwt>
<pdfrwt beam="1">  1        1 0.30703092E-02 0.90724661E+02</pdfrwt>
<pdfrwt beam="2">  1       -1 0.15862874E-01 0.90724661E+02</pdfrwt>
<totfact> 0.81947996E+04</totfact>
</mgrwt>
</event>
<event>
 5    1  0.3854342E+001  0.9115748E+02  0.7546771E-02  0.1300073E+00
          1   -1    0    0  501    0  0.00000000000E+00  0.00000000000E+00  0.58192184389E+01  0.58192184389E+01  0.00000000000E+00 0. -1.
         -1   -1    0    0    0  501 -0.00000000000E+00 -0.00000000000E+00 -0.35699323195E+03  0.35699323195E+03  0.00000000000E+00 0.  1.
         23    2    1    2    0    0  0.00000000000E+00  0.00000000000E+00 -0.35117401352E+03  0.36281245039E+03  0.91157481272E+02 0.  0.
          2    1    3    3  502    0 -0.13637062444E+02  0.19698579329E+02 -0.21264328391E+02  0.32033968870E+02  0.00000000000E+00 0. -1.
         -2    1    3    3    0  502  0.13637062444E+02 -0.19698579329E+02 -0.32990968512E+03  0.33077848152E+03  0.00000000000E+00 0.  1.
<mgrwt>
<rscale>  0 0.91157481E+02</rscale>
<asrwt>0</asrwt>
<pdfrwt beam="1">  1        1 0.89526431E-03 0.91157481E+02</pdfrwt>
<pdfrwt beam="2">  1       -1 0.54922040E-01 0.91157481E+02</pdfrwt>
<totfact> 0.56312916E+04</totfact>
</mgrwt>
</event>
<event>
 5    1  0.3854342E+001  0.8700291E+02  0.7546771E-02  0.1310276E+00
         -1   -1    0    0    0  501 -0.00000000000E+00  0.00000000000E+00  0.61753494315E+03  0.61753494315E+03  0.00000000000E+00 0.  1.
          1   -1    0    0  501    0  0.00000000000E+00 -0.00000000000E+00 -0.30644044091E+01  0.30644044091E+01  0.00000000000E+00 0. -1.
         23    2    1    2    0    0  0.00000000000E+00  0.00000000000E+00  0.61447053874E+03  0.62059934756E+03  0.87002914953E+02 0.  0.
          2    1    3    3  502    0  0.12938215936E+02  0.38931605434E+02  0.41043342828E+03  0.41247868598E+03  0.00000000000E+00 0.  1.
         -2    1    3    3    0  502 -0.12938215936E+02 -0.38931605434E+02  0.20403711046E+03  0.20812066158E+03  0.00000000000E+00 0. -1.
<mgrwt>
<rscale>  0 0.87002915E+02</rscale>
<asrwt>0</asrwt>
<pdfrwt beam="2">  1        1 0.47144732E-03 0.87002915E+02</pdfrwt>
<pdfrwt beam="1">  1       -1 0.95005277E-01 0.87002915E+02</pdfrwt>
<totfact> 0.46057372E+04</totfact>
</mgrwt>
</event>
<event>
 5    1  0.3854342E+001  0.8772220E+02  0.7546771E-02  0.1308463E+00
          4   -1    0    0  501    0  0.00000000000E+00  0.00000000000E+00  0.20548076191E+03  0.20548076191E+03  0.00000000000E+00 0.  1.
         -4   -1    0    0    0  501 -0.00000000000E+00 -0.00000000000E+00 -0.93624151140E+01  0.93624151140E+01  0.00000000000E+00 0. -1.
         23    2    1    2    0    0  0.00000000000E+00  0.00000000000E+00  0.19611834680E+03  0.21484317703E+03  0.87722202229E+02 0.  0.
          2    1    3    3  502    0 -0.11090753151E+02 -0.31812440885E+02  0.29275640814E+02  0.44632940141E+02  0.00000000000E+00 0. -1.
         -2    1    3    3    0  502  0.11090753151E+02  0.31812440885E+02  0.16684270598E+03  0.17021023689E+03  0.00000000000E+00 0.  1.
<mgrwt>
<rscale>  0 0.87722202E+02</rscale>
<asrwt>0</asrwt>
<pdfrwt beam="1">  1        4 0.31612421E-01 0.87722202E+02</pdfrwt>
<pdfrwt beam="2">  1       -4 0.14403717E-02 0.87722202E+02</pdfrwt>
<totfact> 0.23032557E+04</totfact>
</mgrwt>
</event>
<event>
 5    1  0.3854342E+001  0.9285195E+02  0.7546771E-02  0.1296089E+00
          2   -1    0    0  501    0  0.00000000000E+00  0.00000000000E+00  0.27066660757E+02  0.27066660757E+02  0.00000000000E+00 0. -1.
         -2   -1    0    0    0  501 -0.00000000000E+00 -0.00000000000E+00 -0.79631951363E+02  0.79631951363E+02  0.00000000000E+00 0.  1.
         23    2    1    2    0    0  0.00000000000E+00  0.00000000000E+00 -0.52565290607E+02  0.10669861212E+03  0.92851946947E+02 0.  0.
          2    1    3    3  502    0  0.37634718103E+02  0.23741529346E+02 -0.11066425990E+02  0.45853004335E+02  0.00000000000E+00 0. -1.
         -2    1    3    3    0  502 -0.37634718103E+02 -0.23741529346E+02 -0.41498864617E+02  0.60845607786E+02  0.00000000000E+00 0.  1.
<mgrwt>
<rscale>  0 0.92851947E+02</rscale>
<asrwt>0</asrwt>
<pdfrwt beam="1">  1        2 0.41641017E-02 0.92851947E+02</pdfrwt>
<pdfrwt beam="2">  1       -2 0.12251069E-01 0.92851947E+02</pdfrwt>
<totfact> 0.81459491E+04</totfact>
</mgrwt>
</event>
<event>
 5    1  0.3854342E+001  0.8307154E+02  0.7546771E-02  0.1320554E+00
         -2   -1    0    0    0  501 -0.00000000000E+00  0.00000000000E+00  0.24217726875E+01  0.24217726875E+01  0.00000000000E+00 0.  1.
          2   -1    0    0  501    0  0.00000000000E+00 -0.00000000000E+00 -0.71237899808E+03  0.71237899808E+03  0.00000000000E+00 0. -1.
         23    2    1    2    0    0  0.00000000000E+00  0.00000000000E+00 -0.70995722540E+03  0.71480077077E+03  0.83071535454E+02 0.  0.
          2    1    3    3  502    0  0.37075977669E+02  0.37237401404E+01 -0.19708270735E+03  0.20057439492E+03  0.00000000000E+00 0.  1.
         -2    1    3    3    0  502 -0.37075977669E+02 -0.37237401404E+01 -0.51287451805E+03  0.51422637585E+03  0.00000000000E+00 0. -1.
<mgrwt>
<rscale>  0 0.83071535E+02</rscale>
<asrwt>0</asrwt>
<pdfrwt beam="2">  1        2 0.10959701E+00 0.83071535E+02</pdfrwt>
<pdfrwt beam="1">  1       -2 0.37257959E-03 0.83071535E+02</pdfrwt>
<totfact> 0.30400007E+05</totfact>
</mgrwt>
</event>
<event>
 5    1  0.3854342E+001  0.9008964E+02  0.7546771E-02  0.1302635E+00
         -2   -1    0    0    0  501 -0.00000000000E+00  0.00000000000E+00  0.21975542200E+02  0.21975542200E+02  0.00000000000E+00 0. -1.
          2   -1    0    0  501    0  0.00000000000E+00 -0.00000000000E+00 -0.92331550019E+02  0.92331550019E+02  0.00000000000E+00 0.  1.
         23    2    1    2    0    0  0.00000000000E+00  0.00000000000E+00 -0.70356007819E+02  0.11430709222E+03  0.90089641443E+02 0.  0.
          2    1    3    3  502    0 -0.24092555971E+02  0.41993342444E+01  0.12818607885E+02  0.27611634675E+02  0.00000000000E+00 0. -1.
         -2    1    3    3    0  502  0.24092555971E+02 -0.41993342444E+01 -0.83174615704E+02  0.86695457545E+02  0.00000000000E+00 0.  1.
<mgrwt>
<rscale>  0 0.90089641E+02</rscale>
<asrwt>0</asrwt>
<pdfrwt beam="2">  1        2 0.14204854E-01 0.90089641E+02</pdfrwt>
<pdfrwt beam="1">  1       -2 0.33808527E-02 0.90089641E+02</pdfrwt>
<totfact> 0.12379168E+05</totfact>
</mgrwt>
</event>
<event>
 5    1  0.3854342E+001  0.9141597E+02  0.7546771E-02  0.1299458E+00
          2   -1    0    0  501    0  0.00000000000E+00  0.00000000000E+00  0.14300541219E+01  0.14300541219E+01  0.00000000000E+00 0. -1.
         -2   -1    0    0    0  501 -0.00000000000E+00 -0.00000000000E+00 -0.14609377074E+04  0.14609377074E+04  0.00000000000E+00 0.  1.
         23    2    1    2    0    0  0.00000000000E+00  0.00000000000E+00 -0.14595076532E+04  0.14623677615E+04  0.91415972133E+02 0.  0.
          2    1    3    3  502    0 -0.39479991496E+02  0.17416380325E+02 -0.48862020996E+03  0.49052187475E+03  0.00000000000E+00 0. -1.
         -2    1    3    3    0  502  0.39479991496E+02 -0.17416380325E+02 -0.97088744329E+03  0.97184588674E+03  0.00000000000E+00 0.  1.
<mgrwt>
<rscale>  0 0.91415972E+02</rscale>
<asrwt>0</asrwt>
<pdfrwt beam="1">  1        2 0.22000931E-03 0.91415972E+02</pdfrwt>
<pdfrwt beam="2">  1       -2 0.22475864E+00 0.91415972E+02</pdfrwt>
<totfact> 0.11010610E+04</totfact>
</mgrwt>
</event>
<event>
 5    1  0.3854342E+001  0.8494572E+02  0.7546771E-02  0.1315575E+00
         -1   -1    0    0    0  501 -0.00000000000E+00  0.00000000000E+00  0.80222410487E+03  0.80222410487E+03  0.00000000000E+00 0.  1.
          1   -1    0    0  501    0  0.00000000000E+00 -0.00000000000E+00 -0.22486782480E+01  0.22486782480E+01  0.00000000000E+00 0. -1.
         23    2    1    2    0    0  0.00000000000E+00  0.00000000000E+00  0.79997542662E+03  0.80447278312E+03  0.84945721367E+02 0.  0.
          2    1    3    3  502    0  0.36085099196E+02 -0.27446015431E+00  0.61211996009E+03  0.61318272583E+03  0.00000000000E+00 0. -1.
         -2    1    3    3    0  502 -0.36085099196E+02  0.27446015431E+00  0.18785546653E+03  0.19129005729E+03  0.00000000000E+00 0.  1.
<mgrwt>
<rscale>  0 0.84945721E+02</rscale>
<asrwt>0</asrwt>
<pdfrwt beam="2">  1        1 0.34595114E-03 0.84945721E+02</pdfrwt>
<pdfrwt beam="1">  1       -1 0.12341886E+00 0.84945721E+02</pdfrwt>
<totfact> 0.39201036E+04</totfact>
</mgrwt>
</event>
<event>
 5    1  0.3854342E+001  0.9341689E+02  0.7546771E-02  0.1294782E+00
         -2   -1    0    0    0  501 -0.00000000000E+00  0.00000000000E+00  0.33643187691E+01  0.33643187691E+01  0.00000000000E+00 0.  1.
          2   -1    0    0  501    0  0.00000000000E+00 -0.00000000000E+00 -0.64847566870E+03  0.64847566870E+03  0.00000000000E+00 0. -1.
         23    2    1    2    0    0  0.00000000000E+00  0.00000000000E+00 -0.64511134993E+03  0.65183998747E+03  0.93416890626E+02 0.  0.
          2    1    3    3  502    0  0.31337552318E+02 -0.21767017383E+02 -0.13456594016E+03  0.13987078853E+03  0.00000000000E+00 0.  1.
         -2    1    3    3    0  502 -0.31337552318E+02  0.21767017383E+02 -0.51054540977E+03  0.51196919894E+03  0.00000000000E+00 0. -1.
<mgrwt>
<rscale>  0 0.93416891E+02</rscale>
<asrwt>0</asrwt>
<pdfrwt beam="2">  1        2 0.99765469E-01 0.93416891E+02</pdfrwt>
<pdfrwt beam="1">  1       -2 0.51758760E-03 0.93416891E+02</pdfrwt>
<totfact> 0.21825151E+05</totfact>
</mgrwt>
</event>
<event>
 5    1  0.3854342E+001  0.9094880E+02  0.7546771E-02  0.1300570E+00
         -3   -1    0    0    0  501 -0.00000000000E+00  0.00000000000E+00  0.85202130847E+02  0.85202130847E+02  0.00000000000E+00 0.  1.
          3   -1    0    0  501    0  0.00000000000E+00 -0.00000000000E+00 -0.24270767342E+02  0.24270767342E+02  0.00000000000E+00 0. -1.
         23    2    1    2    0    0  0.00000000000E+00  0.00000000000E+00  0.60931363505E+02  0.10947289819E+03  0.90948800867E+02 0.  0.
          2    1    3    3  502    0  0.24962504794E+02 -0.23627890464E+02 -0.53730994265E+01  0.34788993242E+02  0.00000000000E+00 0. -1.
         -2    1    3    3    0  502 -0.24962504794E+02  0.23627890464E+02  0.66304462932E+02  0.74683904946E+02  0.00000000000E+00 0.  1.
<mgrwt>
<rscale>  0 0.90948801E+02</rscale>
<asrwt>0</asrwt>
<pdfrwt beam="2">  1        3 0.37339642E-02 0.90948801E+02</pdfrwt>
<pdfrwt beam="1">  1       -3 0.13108020E-01 0.90948801E+02</pdfrwt>
<totfact> 0.34216262E+04</totfact>
</mgrwt>
</event>
<event>
 5    1  0.3854342E+001  0.8969594E+02  0.7546771E-02  0.1303590E+00
         -2   -1    0    0    0  501 -0.00000000000E+00  0.00000000000E+00  0.15945568278E+03  0.15945568278E+03  0.00000000000E+00 0.  1.
          2   -1    0    0  501    0  0.00000000000E+00 -0.00000000000E+00 -0.12613789440E+02  0.12613789440E+02  0.00000000000E+00 0. -1.
         23    2    1    2    0    0  0.00000000000E+00  0.00000000000E+00  0.14684189334E+03  0.17206947222E+03  0.89695939875E+02 0.  0.
          2    1    3    3  502    0 -0.13567424315E+02 -0.42204270979E+02  0.86441102560E+02  0.97145971111E+02  0.00000000000E+00 0. -1.
         -2    1    3    3    0  502  0.13567424315E+02  0.42204270979E+02  0.60400790776E+02  0.74923501105E+02  0.00000000000E+00 0.  1.
<mgrwt>
<rscale>  0 0.89695940E+02</rscale>
<asrwt>0</asrwt>
<pdfrwt beam="2">  1        2 0.19405831E-02 0.89695940E+02</pdfrwt>
<pdfrwt beam="1">  1       -2 0.24531642E-01 0.89695940E+02</pdfrwt>
<totfact> 0.71186476E+04</totfact>
</mgrwt>
</event>
<event>
 5    1  0.3854342E+001  0.9194550E+02  0.7546771E-02  0.1298208E+00
         -1   -1    0    0    0  501 -0.00000000000E+00  0.00000000000E+00  0.60282093425E+01  0.60282093425E+01  0.00000000000E+00 0.  1.
          1   -1    0    0  501    0  0.00000000000E+00 -0.00000000000E+00 -0.35060056068E+03  0.35060056068E+03  0.00000000000E+00 0. -1.
         23    2    1    2    0    0  0.00000000000E+00  0.00000000000E+00 -0.34457235134E+03  0.35662877003E+03  0.91945496364E+02 0.  0.
          2    1    3    3  502    0  0.26991620710E+02  0.30729724753E+02 -0.90867703781E+02  0.99648397691E+02  0.00000000000E+00 0. -1.
         -2    1    3    3    0  502 -0.26991620710E+02 -0.30729724753E+02 -0.25370464756E+03  0.25698037233E+03  0.00000000000E+00 0.  1.
<mgrwt>
<rscale>  0 0.91945496E+02</rscale>
<asrwt>0</asrwt>
<pdfrwt beam="2">  1        1 0.53938539E-01 0.91945496E+02</pdfrwt>
<pdfrwt beam="1">  1       -1 0.92741697E-03 0.91945496E+02</pdfrwt>
<totfact> 0.12895877E+05</totfact>
</mgrwt>
</event>
<event>
 5    1  0.3854342E+001  0.9162692E+02  0.7546771E-02  0.1298959E+00
         -2   -1    0    0    0  501 -0.00000000000E+00  0.00000000000E+00  0.43634979983E+01  0.43634979983E+01  0.00000000000E+00 0.  1.
          2   -1    0    0  501    0  0.00000000000E+00 -0.00000000000E+00 -0.48100705984E+03  0.48100705984E+03  0.00000000000E+00 0. -1.
         23    2    1    2    0    0  0.00000000000E+00  0.00000000000E+00 -0.47664356184E+03  0.48537055783E+03  0.91626924924E+02 0.  0.
          2    1    3    3  502    0  0.33405852523E+02  0.56020270073E+01 -0.40172618707E+03  0.40315166261E+03  0.00000000000E+00 0. -1.
         -2    1    3    3    0  502 -0.33405852523E+02 -0.56020270073E+01 -0.74917374765E+02  0.82218895219E+02  0.00000000000E+00 0.  1.
<mgrwt>
<rscale>  0 0.91626925E+02</rscale>
<asrwt>0</asrwt>
<pdfrwt beam="2">  1        2 0.74001114E-01 0.91626925E+02</pdfrwt>
<pdfrwt beam="1">  1       -2 0.67130713E-03 0.91626925E+02</pdfrwt>
<totfact> 0.21001411E+05</totfact>
</mgrwt>
</event>
<event>
 5    1  0.3854342E+001  0.9161695E+02  0.7546771E-02  0.1298983E+00
          1   -1    0    0  501    0  0.00000000000E+00  0.00000000000E+00  0.73836167122E+01  0.73836167122E+01  0.00000000000E+00 0. -1.
         -1   -1    0    0    0  501 -0.00000000000E+00 -0.00000000000E+00 -0.28419896044E+03  0.28419896044E+03  0.00000000000E+00 0.  1.
         23    2    1    2    0    0  0.00000000000E+00  0.00000000000E+00 -0.27681534373E+03  0.29158257715E+03  0.91616945898E+02 0.  0.
          2    1    3    3  502    0 -0.20004868630E+02 -0.30490727052E+02 -0.50177292380E+02  0.62029346891E+02  0.00000000000E+00 0. -1.
         -2    1    3    3    0  502  0.20004868630E+02  0.30490727052E+02 -0.22663805135E+03  0.22955323026E+03  0.00000000000E+00 0.  1.
<mgrwt>
<rscale>  0 0.91616946E+02</rscale>
<asrwt>0</asrwt>
<pdfrwt beam="1">  1        1 0.11359412E-02 0.91616946E+02</pdfrwt>
<pdfrwt beam="2">  1       -1 0.43722910E-01 0.91616946E+02</pdfrwt>
<totfact> 0.61087559E+04</totfact>
</mgrwt>
</event>
<event>
 5    1  0.3854342E+001  0.9091041E+02  0.7546771E-02  0.1300662E+00
          2   -1    0    0  501    0  0.00000000000E+00  0.00000000000E+00  0.62509568338E+02  0.62509568338E+02  0.00000000000E+00 0. -1.
         -2   -1    0    0    0  501 -0.00000000000E+00 -0.00000000000E+00 -0.33053746954E+02  0.33053746954E+02  0.00000000000E+00 0.  1.
         23    2    1    2    0    0  0.00000000000E+00  0.00000000000E+00  0.29455821384E+02  0.95563315291E+02  0.90910405434E+02 0.  0.
          2    1    3    3  502    0  0.14488084206E+02  0.42386609956E+02  0.66095399260E+01  0.45279303280E+02  0.00000000000E+00 0. -1.
         -2    1    3    3    0  502 -0.14488084206E+02 -0.42386609956E+02  0.22846281458E+02  0.50284012011E+02  0.00000000000E+00 0.  1.
<mgrwt>
<rscale>  0 0.90910405E+02</rscale>
<asrwt>0</asrwt>
<pdfrwt beam="1">  1        2 0.96168566E-02 0.90910405E+02</pdfrwt>
<pdfrwt beam="2">  1       -2 0.50851919E-02 0.90910405E+02</pdfrwt>
<totfact> 0.10813318E+05</totfact>
</mgrwt>
</event>
<event>
 5    1  0.3854342E+001  0.9271808E+02  0.7546771E-02  0.1296400E+00
          1   -1    0    0  501    0  0.00000000000E+00  0.00000000000E+00  0.36989747741E+02  0.36989747741E+02  0.00000000000E+00 0. -1.
         -1   -1    0    0    0  501 -0.00000000000E+00 -0.00000000000E+00 -0.58101515538E+02  0.58101515538E+02  0.00000000000E+00 0.  1.
         23    2    1    2    0    0  0.00000000000E+00  0.00000000000E+00 -0.21111767797E+02  0.95091263280E+02  0.92718075975E+02 0.  0.
          2    1    3    3  502    0  0.46350178477E+02 -0.70603470433E+00 -0.99731204962E+01  0.47416248927E+02  0.00000000000E+00 0. -1.
         -2    1    3    3    0  502 -0.46350178477E+02  0.70603470433E+00 -0.11138647301E+02  0.47675014353E+02  0.00000000000E+00 0.  1.
<mgrwt>
<rscale>  0 0.92718076E+02</rscale>
<asrwt>0</asrwt>
<pdfrwt beam="1">  1        1 0.56907304E-02 0.92718076E+02</pdfrwt>
<pdfrwt beam="2">  1       -1 0.89386947E-02 0.92718076E+02</pdfrwt>
<totfact> 0.85416649E+04</totfact>
</mgrwt>
</event>
<event>
 5    1  0.3854342E+001  0.8680767E+02  0.7546771E-02  0.1310772E+00
          2   -1    0    0  501    0  0.00000000000E+00  0.00000000000E+00  0.13562853923E+03  0.13562853923E+03  0.00000000000E+00 0. -1.
         -2   -1    0    0    0  501 -0.00000000000E+00 -0.00000000000E+00 -0.13890092501E+02  0.13890092501E+02  0.00000000000E+00 0.  1.
         23    2    1    2    0    0  0.00000000000E+00  0.00000000000E+00  0.12173844672E+03  0.14951863173E+03  0.86807671448E+02 0.  0.
          2    1    3    3  502    0 -0.96865689678E+01 -0.41290850482E+02  0.76761129181E+02  0.87698545626E+02  0.00000000000E+00 0. -1.
         -2    1    3    3    0  502  0.96865689678E+01  0.41290850482E+02  0.44977317544E+02  0.61820086099E+02  0.00000000000E+00 0.  1.
<mgrwt>
<rscale>  0 0.86807671E+02</rscale>
<asrwt>0</asrwt>
<pdfrwt beam="1">  1        2 0.20865928E-01 0.86807671E+02</pdfrwt>
<pdfrwt beam="2">  1       -2 0.21369374E-02 0.86807671E+02</pdfrwt>
<totfact> 0.15441048E+05</totfact>
</mgrwt>
</event>
<event>
 5    1  0.3854342E+001  0.9094144E+02  0.7546771E-02  0.1300588E+00
         -2   -1    0    0    0  501 -0.00000000000E+00  0.00000000000E+00  0.21267021688E+02  0.21267021688E+02  0.00000000000E+00 0.  1.
          2   -1    0    0  501    0  0.00000000000E+00 -0.00000000000E+00 -0.97220300265E+02  0.97220300265E+02  0.00000000000E+00 0. -1.
         23    2    1    2    0    0  0.00000000000E+00  0.00000000000E+00 -0.75953278577E+02  0.11848732195E+03  0.90941436853E+02 0.  0.
          2    1    3    3  502    0 -0.36076391547E+02  0.27547568338E+02 -0.41475514639E+02  0.61486525865E+02  0.00000000000E+00 0. -1.
         -2    1    3    3    0  502  0.36076391547E+02 -0.27547568338E+02 -0.34477763938E+02  0.57000796087E+02  0.00000000000E+00 0.  1.
<mgrwt>
<rscale>  0 0.90941437E+02</rscale>
<asrwt>0</asrwt>
<pdfrwt beam="2">  1        2 0.14956969E-01 0.90941437E+02</pdfrwt>
<pdfrwt beam="1">  1       -2 0.32718495E-02 0.90941437E+02</pdfrwt>
<totfact> 0.12250146E+05</totfact>
</mgrwt>
</event>
<event>
 5    1  0.3854342E+001  0.9170572E+02  0.7546771E-02  0.1298773E+00
          1   -1    0    0  501    0  0.00000000000E+00  0.00000000000E+00  0.25393363038E+03  0.25393363038E+03  0.00000000000E+00 0. -1.
         -1   -1    0    0    0  501 -0.00000000000E+00 -0.00000000000E+00 -0.82796630131E+01  0.82796630131E+01  0.00000000000E+00 0.  1.
         23    2    1    2    0    0  0.00000000000E+00  0.00000000000E+00  0.24565396736E+03  0.26221329339E+03  0.91705722552E+02 0.  0.
          2    1    3    3  502    0  0.17941353713E+02 -0.40991363907E+02  0.94191108221E+02  0.10427918755E+03  0.00000000000E+00 0. -1.
         -2    1    3    3    0  502 -0.17941353713E+02  0.40991363907E+02  0.15146285914E+03  0.15793410584E+03  0.00000000000E+00 0.  1.
<mgrwt>
<rscale>  0 0.91705723E+02</rscale>
<asrwt>0</asrwt>
<pdfrwt beam="1">  1        1 0.39066706E-01 0.91705723E+02</pdfrwt>
<pdfrwt beam="2">  1       -1 0.12737945E-02 0.91705723E+02</pdfrwt>
<totfact> 0.12214289E+05</totfact>
</mgrwt>
</event>
<event>
 5    1  0.3854342E+001  0.9115424E+02  0.7546771E-02  0.1300080E+00
         -1   -1    0    0    0  501 -0.00000000000E+00  0.00000000000E+00  0.49067244997E+01  0.49067244997E+01  0.00000000000E+00 0.  1.
          1   -1    0    0  501    0  0.00000000000E+00 -0.00000000000E+00 -0.42335244425E+03  0.42335244425E+03  0.00000000000E+00 0. -1.
         23    2    1    2    0    0  0.00000000000E+00  0.00000000000E+00 -0.41844571975E+03  0.42825916875E+03  0.91154238743E+02 0.  0.
          2    1    3    3  502    0  0.42500274220E+02  0.12526007069E+02 -0.25940763174E+03  0.26316438506E+03  0.00000000000E+00 0. -1.
         -2    1    3    3    0  502 -0.42500274220E+02 -0.12526007069E+02 -0.15903808801E+03  0.16509478369E+03  0.00000000000E+00 0.  1.
<mgrwt>
<rscale>  0 0.91154239E+02</rscale>
<asrwt>0</asrwt>
<pdfrwt beam="2">  1        1 0.65131142E-01 0.91154239E+02</pdfrwt>
<pdfrwt beam="1">  1       -1 0.75488073E-03 0.91154239E+02</pdfrwt>
<totfact> 0.13620535E+05</totfact>
</mgrwt>
</event>
<event>
 5    1  0.3854342E+001  0.9172428E+02  0.7546771E-02  0.1298729E+00
         -3   -1    0    0    0  501 -0.00000000000E+00  0.00000000000E+00  0.19504804217E+03  0.19504804217E+03  0.00000000000E+00 0.  1.
          3   -1    0    0  501    0  0.00000000000E+00 -0.00000000000E+00 -0.10783681569E+02  0.10783681569E+02  0.00000000000E+00 0. -1.
         23    2    1    2    0    0  0.00000000000E+00  0.00000000000E+00  0.18426436060E+03  0.20583172374E+03  0.91724282009E+02 0.  0.
          2    1    3    3  502    0  0.17547614507E+02 -0.38755973699E+02  0.53694965933E+02  0.68506157671E+02  0.00000000000E+00 0. -1.
         -2    1    3    3    0  502 -0.17547614507E+02  0.38755973699E+02  0.13056939467E+03  0.13732556607E+03  0.00000000000E+00 0.  1.
<mgrwt>
<rscale>  0 0.91724282E+02</rscale>
<asrwt>0</asrwt>
<pdfrwt beam="2">  1        3 0.16590281E-02 0.91724282E+02</pdfrwt>
<pdfrwt beam="1">  1       -3 0.30007388E-01 0.91724282E+02</pdfrwt>
<totfact> 0.27745834E+04</totfact>
</mgrwt>
</event>
<event>
 4    1  0.3854342E+001  0.2132582E+03  0.7546771E-02  0.1139012E+00
          1   -1    0    0  501    0  0.00000000000E+00  0.00000000000E+00  0.50672169440E+03  0.50672169440E+03  0.00000000000E+00 0. -1.
         -1   -1    0    0    0  501 -0.00000000000E+00 -0.00000000000E+00 -0.22437881668E+02  0.22437881668E+02  0.00000000000E+00 0.  1.
          2    1    1    2  502    0 -0.75543090883E+02 -0.53553594609E+02  0.37332355555E+03  0.38463648189E+03  0.00000000000E+00 0. -1.
         -2    1    1    2    0  502  0.75543090883E+02  0.53553594609E+02  0.11096025718E+03  0.14452309417E+03  0.00000000000E+00 0.  1.
<mgrwt>
<rscale>  0 0.21325817E+03</rscale>
<asrwt>0</asrwt>
<pdfrwt beam="1">  1        1 0.77957175E-01 0.21325817E+03</pdfrwt>
<pdfrwt beam="2">  1       -1 0.34519822E-02 0.21325817E+03</pdfrwt>
<totfact> 0.13303805E+04</totfact>
</mgrwt>
</event>
<event>
 5    1  0.3854342E+001  0.9187864E+02  0.7546771E-02  0.1298365E+00
          2   -1    0    0  501    0  0.00000000000E+00  0.00000000000E+00  0.29711479990E+04  0.29711479990E+04  0.00000000000E+00 0.  1.
         -2   -1    0    0    0  501 -0.00000000000E+00 -0.00000000000E+00 -0.71030488733E+00  0.71030488733E+00  0.00000000000E+00 0. -1.
         23    2    1    2    0    0  0.00000000000E+00  0.00000000000E+00  0.29704376941E+04  0.29718583039E+04  0.91878636139E+02 0.  0.
          2    1    3    3  502    0 -0.23766667288E+02  0.38682008129E+02  0.12581805144E+04  0.12589993483E+04  0.00000000000E+00 0. -1.
         -2    1    3    3    0  502  0.23766667288E+02 -0.38682008129E+02  0.17122571798E+04  0.17128589556E+04  0.00000000000E+00 0.  1.
<mgrwt>
<rscale>  0 0.91878636E+02</rscale>
<asrwt>0</asrwt>
<pdfrwt beam="1">  1        2 0.45708974E+00 0.91878636E+02</pdfrwt>
<pdfrwt beam="2">  1       -2 0.10928005E-03 0.91878636E+02</pdfrwt>
<totfact> 0.10232462E+05</totfact>
</mgrwt>
</event>
<event>
 5    1  0.3854342E+001  0.9251343E+02  0.7546771E-02  0.1296877E+00
         -1   -1    0    0    0  501 -0.00000000000E+00  0.00000000000E+00  0.12571667777E+01  0.12571667777E+01  0.00000000000E+00 0.  1.
          1   -1    0    0  501    0  0.00000000000E+00 -0.00000000000E+00 -0.17019886884E+04  0.17019886884E+04  0.00000000000E+00 0. -1.
         23    2    1    2    0    0  0.00000000000E+00  0.00000000000E+00 -0.17007315216E+04  0.17032458552E+04  0.92513428973E+02 0.  0.
          2    1    3    3  502    0  0.28533905739E+02  0.32755298558E+02 -0.55776134549E+03  0.55945045526E+03  0.00000000000E+00 0. -1.
         -2    1    3    3    0  502 -0.28533905739E+02 -0.32755298558E+02 -0.11429701761E+04  0.11437953999E+04  0.00000000000E+00 0.  1.
<mgrwt>
<rscale>  0 0.92513429E+02</rscale>
<asrwt>0</asrwt>
<pdfrwt beam="2">  1        1 0.26184697E+00 0.92513429E+02</pdfrwt>
<pdfrwt beam="1">  1       -1 0.19340838E-03 0.92513429E+02</pdfrwt>
<totfact> 0.94362157E+04</totfact>
</mgrwt>
</event>
<event>
 5    1  0.3854342E+001  0.9103392E+02  0.7546771E-02  0.1300367E+00
         -2   -1    0    0    0  501 -0.00000000000E+00  0.00000000000E+00  0.22663903984E+01  0.22663903984E+01  0.00000000000E+00 0.  1.
          2   -1    0    0  501    0  0.00000000000E+00 -0.00000000000E+00 -0.91413799070E+03  0.91413799070E+03  0.00000000000E+00 0. -1.
         23    2    1    2    0    0  0.00000000000E+00  0.00000000000E+00 -0.91187160031E+03  0.91640438110E+03  0.91033918183E+02 0.  0.
          2    1    3    3  502    0 -0.37429522089E+02  0.23250943448E+02 -0.57080921938E+03  0.57250741517E+03  0.00000000000E+00 0. -1.
         -2    1    3    3    0  502  0.37429522089E+02 -0.23250943448E+02 -0.34106238092E+03  0.34389696593E+03  0.00000000000E+00 0.  1.
<mgrwt>
<rscale>  0 0.91033918E+02</rscale>
<asrwt>0</asrwt>
<pdfrwt beam="2">  1        2 0.14063670E+00 0.91033918E+02</pdfrwt>
<pdfrwt beam="1">  1       -2 0.34867522E-03 0.91033918E+02</pdfrwt>
<totfact> 0.24938650E+05</totfact>
</mgrwt>
</event>
<event>
 5    1  0.3854342E+001  0.8464328E+02  0.7546771E-02  0.1316368E+00
         -2   -1    0    0    0  501 -0.00000000000E+00  0.00000000000E+00  0.77597815292E+02  0.77597815292E+02  0.00000000000E+00 0.  1.
          2   -1    0    0  501    0  0.00000000000E+00 -0.00000000000E+00 -0.23082108915E+02  0.23082108915E+02  0.00000000000E+00 0. -1.
         23    2    1    2    0    0  0.00000000000E+00  0.00000000000E+00  0.54515706378E+02  0.10067992421E+03  0.84643280279E+02 0.  0.
          2    1    3    3  502    0 -0.26220228294E+02  0.32050891109E+02  0.37651952356E+02  0.55968111536E+02  0.00000000000E+00 0.  1.
         -2    1    3    3    0  502  0.26220228294E+02 -0.32050891109E+02  0.16863754022E+02  0.44711812671E+02  0.00000000000E+00 0. -1.
<mgrwt>
<rscale>  0 0.84643280E+02</rscale>
<asrwt>0</asrwt>
<pdfrwt beam="2">  1        2 0.35510937E-02 0.84643280E+02</pdfrwt>
<pdfrwt beam="1">  1       -2 0.11938125E-01 0.84643280E+02</pdfrwt>
<totfact> 0.10296770E+05</totfact>
</mgrwt>
</event>
<event>
 5    1  0.3854342E+001  0.9048387E+02  0.7546771E-02  0.1301684E+00
          4   -1    0    0  501    0  0.00000000000E+00  0.00000000000E+00  0.91736579081E+02  0.91736579081E+02  0.00000000000E+00 0. -1.
         -4   -1    0    0    0  501 -0.00000000000E+00 -0.00000000000E+00 -0.22312066537E+02  0.22312066537E+02  0.00000000000E+00 0.  1.
         23    2    1    2    0    0  0.00000000000E+00  0.00000000000E+00  0.69424512544E+02  0.11404864562E+03  0.90483869420E+02 0.  0.
          2    1    3    3  502    0 -0.14559696101E+02  0.36599578496E+02  0.62764096472E+02  0.74100240908E+02  0.00000000000E+00 0. -1.
         -2    1    3    3    0  502  0.14559696101E+02 -0.36599578496E+02  0.66604160722E+01  0.39948404710E+02  0.00000000000E+00 0.  1.
<mgrwt>
<rscale>  0 0.90483869E+02</rscale>
<asrwt>0</asrwt>
<pdfrwt beam="1">  1        4 0.14113320E-01 0.90483869E+02</pdfrwt>
<pdfrwt beam="2">  1       -4 0.34326257E-02 0.90483869E+02</pdfrwt>
<totfact> 0.26147627E+04</totfact>
</mgrwt>
</event>
<event>
 5    1  0.3854342E+001  0.8608158E+02  0.7546771E-02  0.1312628E+00
         -2   -1    0    0    0  501 -0.00000000000E+00  0.00000000000E+00  0.16141154722E+03  0.16141154722E+03  0.00000000000E+00 0. -1.
          2   -1    0    0  501    0  0.00000000000E+00 -0.00000000000E+00 -0.11476933296E+02  0.11476933296E+02  0.00000000000E+00 0.  1.
         23    2    1    2    0    0  0.00000000000E+00  0.00000000000E+00  0.14993461393E+03  0.17288848052E+03  0.86081578998E+02 0.  0.
          2    1    3    3  502    0 -0.28125748068E+02 -0.19810422521E+02  0.12691527590E+03  0.13149523870E+03  0.00000000000E+00 0. -1.
         -2    1    3    3    0  502  0.28125748068E+02  0.19810422521E+02  0.23019338028E+02  0.41393241817E+02  0.00000000000E+00 0.  1.
<mgrwt>
<rscale>  0 0.86081579E+02</rscale>
<asrwt>0</asrwt>
<pdfrwt beam="2">  1        2 0.17656822E-02 0.86081579E+02</pdfrwt>
<pdfrwt beam="1">  1       -2 0.24832544E-01 0.86081579E+02</pdfrwt>
<totfact> 0.78643891E+04</totfact>
</mgrwt>
</event>
<event>
 5    1  0.3854342E+001  0.9099232E+02  0.7546771E-02  0.1300466E+00
          1   -1    0    0  501    0  0.00000000000E+00  0.00000000000E+00  0.23361673903E+03  0.23361673903E+03  0.00000000000E+00 0. -1.
         -1   -1    0    0    0  501 -0.00000000000E+00 -0.00000000000E+00 -0.88602413184E+01  0.88602413184E+01  0.00000000000E+00 0.  1.
         23    2    1    2    0    0  0.00000000000E+00  0.00000000000E+00  0.22475649771E+03  0.24247698035E+03  0.90992322397E+02 0.  0.
          2    1    3    3  502    0 -0.19274437289E+02 -0.81067722001E+01  0.22005350215E+03  0.22104471832E+03  0.00000000000E+00 0. -1.
         -2    1    3    3    0  502  0.19274437289E+02  0.81067722001E+01  0.47029955579E+01  0.21432262026E+02  0.00000000000E+00 0.  1.
<mgrwt>
<rscale>  0 0.90992322E+02</rscale>
<asrwt>0</asrwt>
<pdfrwt beam="1">  1        1 0.35941032E-01 0.90992322E+02</pdfrwt>
<pdfrwt beam="2">  1       -1 0.13631142E-02 0.90992322E+02</pdfrwt>
<totfact> 0.12270936E+05</totfact>
</mgrwt>
</event>
<event>
 5    1  0.3854342E+001  0.9383028E+02  0.7546771E-02  0.1293833E+00
         -1   -1    0    0    0  501 -0.00000000000E+00  0.00000000000E+00  0.64382360901E+03  0.64382360901E+03  0.00000000000E+00 0.  1.
          1   -1    0    0  501    0  0.00000000000E+00 -0.00000000000E+00 -0.34186855577E+01  0.34186855577E+01  0.00000000000E+00 0. -1.
         23    2    1    2    0    0  0.00000000000E+00  0.00000000000E+00  0.64040492346E+03  0.64724229457E+03  0.93830282401E+02 0.  0.
          2    1    3    3  502    0  0.21522480389E+02 -0.33945969682E+02  0.15329277213E+03  0.15847466677E+03  0.00000000000E+00 0. -1.
         -2    1    3    3    0  502 -0.21522480389E+02  0.33945969682E+02  0.48711215133E+03  0.48876762780E+03  0.00000000000E+00 0.  1.
<mgrwt>
<rscale>  0 0.93830282E+02</rscale>
<asrwt>0</asrwt>
<pdfrwt beam="2">  1        1 0.52595214E-03 0.93830282E+02</pdfrwt>
<pdfrwt beam="1">  1       -1 0.99049690E-01 0.93830282E+02</pdfrwt>
<totfact> 0.36588105E+04</totfact>
</mgrwt>
</event>
<event>
 5    1  0.3854342E+001  0.9004829E+02  0.7546771E-02  0.1302735E+00
         -3   -1    0    0    0  501 -0.00000000000E+00  0.00000000000E+00  0.30167696147E+02  0.30167696147E+02  0.00000000000E+00 0.  1.
          3   -1    0    0  501    0  0.00000000000E+00 -0.00000000000E+00 -0.67196834176E+02  0.67196834176E+02  0.00000000000E+00 0. -1.
         23    2    1    2    0    0  0.00000000000E+00  0.00000000000E+00 -0.37029138029E+02  0.97364530323E+02  0.90048290943E+02 0.  0.
          2    1    3    3  502    0 -0.52431170409E+01  0.44604795465E+02 -0.21950083704E+02  0.49988841049E+02  0.00000000000E+00 0. -1.
         -2    1    3    3    0  502  0.52431170409E+01 -0.44604795465E+02 -0.15079054325E+02  0.47375689274E+02  0.00000000000E+00 0.  1.
<mgrwt>
<rscale>  0 0.90048291E+02</rscale>
<asrwt>0</asrwt>
<pdfrwt beam="2">  1        3 0.10337974E-01 0.90048291E+02</pdfrwt>
<pdfrwt beam="1">  1       -3 0.46411841E-02 0.90048291E+02</pdfrwt>
<totfact> 0.36067672E+04</totfact>
</mgrwt>
</event>
<event>
 5    1  0.3854342E+001  0.9267767E+02  0.7546771E-02  0.1296494E+00
         -2   -1    0    0    0  501 -0.00000000000E+00  0.00000000000E+00  0.40277930407E+02  0.40277930407E+02  0.00000000000E+00 0.  1.
          2   -1    0    0  501    0  0.00000000000E+00 -0.00000000000E+00 -0.53311765441E+02  0.53311765441E+02  0.00000000000E+00 0. -1.
         23    2    1    2    0    0  0.00000000000E+00  0.00000000000E+00 -0.13033835034E+02  0.93589695848E+02  0.92677668903E+02 0.  0.
          2    1    3    3  502    0 -0.42526481773E+02  0.12419462439E+02 -0.20235258080E+02  0.48705342303E+02  0.00000000000E+00 0. -1.
         -2    1    3    3    0  502  0.42526481773E+02 -0.12419462439E+02  0.72014230460E+01  0.44884353545E+02  0.00000000000E+00 0.  1.
<mgrwt>
<rscale>  0 0.92677669E+02</rscale>
<asrwt>0</asrwt>
<pdfrwt beam="2">  1        2 0.82018101E-02 0.92677669E+02</pdfrwt>
<pdfrwt beam="1">  1       -2 0.61966047E-02 0.92677669E+02</pdfrwt>
<totfact> 0.98122542E+04</totfact>
</mgrwt>
</event>
<event>
 5    1  0.3854342E+001  0.9097651E+02  0.7546771E-02  0.1300504E+00
          1   -1    0    0  501    0  0.00000000000E+00  0.00000000000E+00  0.13596716619E+04  0.13596716619E+04  0.00000000000E+00 0.  1.
         -1   -1    0    0    0  501 -0.00000000000E+00 -0.00000000000E+00 -0.15218243380E+01  0.15218243380E+01  0.00000000000E+00 0. -1.
         23    2    1    2    0    0  0.00000000000E+00  0.00000000000E+00  0.13581498375E+04  0.13611934862E+04  0.90976511842E+02 0.  0.
          2    1    3    3  502    0 -0.19536747197E+02  0.24296784621E+02  0.18348074107E+03  0.18611072128E+03  0.00000000000E+00 0. -1.
         -2    1    3    3    0  502  0.19536747197E+02 -0.24296784621E+02  0.11746690965E+04  0.11750827649E+04  0.00000000000E+00 0.  1.
<mgrwt>
<rscale>  0 0.90976512E+02</rscale>
<asrwt>0</asrwt>
<pdfrwt beam="1">  1        1 0.20917928E+00 0.90976512E+02</pdfrwt>
<pdfrwt beam="2">  1       -1 0.23412791E-03 0.90976512E+02</pdfrwt>
<totfact> 0.11943892E+05</totfact>
</mgrwt>
</event>
<event>
 5    1  0.3854342E+001  0.9186072E+02  0.7546771E-02  0.1298407E+00
          1   -1    0    0  501    0  0.00000000000E+00  0.00000000000E+00  0.15293995261E+04  0.15293995261E+04  0.00000000000E+00 0. -1.
         -1   -1    0    0    0  501 -0.00000000000E+00 -0.00000000000E+00 -0.13793636717E+01  0.13793636717E+01  0.00000000000E+00 0.  1.
         23    2    1    2    0    0  0.00000000000E+00  0.00000000000E+00  0.15280201625E+04  0.15307788898E+04  0.91860723834E+02 0.  0.
          2    1    3    3  502    0  0.13926857252E+02  0.27066300779E+02  0.13371824962E+04  0.13375289044E+04  0.00000000000E+00 0. -1.
         -2    1    3    3    0  502 -0.13926857252E+02 -0.27066300779E+02  0.19083766629E+03  0.19324998542E+03  0.00000000000E+00 0.  1.
<mgrwt>
<rscale>  0 0.91860724E+02</rscale>
<asrwt>0</asrwt>
<pdfrwt beam="1">  1        1 0.23529088E+00 0.91860724E+02</pdfrwt>
<pdfrwt beam="2">  1       -1 0.21221102E-03 0.91860724E+02</pdfrwt>
<totfact> 0.10659962E+05</totfact>
</mgrwt>
</event>
<event>
 5    1  0.3854342E+001  0.9055619E+02  0.7546771E-02  0.1301510E+00
         -4   -1    0    0    0  501 -0.00000000000E+00  0.00000000000E+00  0.44308575648E+02  0.44308575648E+02  0.00000000000E+00 0.  1.
          4   -1    0    0  501    0  0.00000000000E+00 -0.00000000000E+00 -0.46268827377E+02  0.46268827377E+02  0.00000000000E+00 0. -1.
         23    2    1    2    0    0  0.00000000000E+00  0.00000000000E+00 -0.19602517290E+01  0.90577403026E+02  0.90556188922E+02 0.  0.
          2    1    3    3  502    0  0.42895939520E+02 -0.14472786825E+02 -0.21663045781E+00  0.45272178151E+02  0.00000000000E+00 0. -1.
         -2    1    3    3    0  502 -0.42895939520E+02  0.14472786825E+02 -0.17436212712E+01  0.45305224875E+02  0.00000000000E+00 0.  1.
<mgrwt>
<rscale>  0 0.90556189E+02</rscale>
<asrwt>0</asrwt>
<pdfrwt beam="2">  1        4 0.71182812E-02 0.90556189E+02</pdfrwt>
<pdfrwt beam="1">  1       -4 0.68167039E-02 0.90556189E+02</pdfrwt>
<totfact> 0.27560488E+04</totfact>
</mgrwt>
</event>
<event>
 5    1  0.3854342E+001  0.9147658E+02  0.7546771E-02  0.1299315E+00
         -3   -1    0    0    0  501 -0.00000000000E+00  0.00000000000E+00  0.30177394422E+01  0.30177394422E+01  0.00000000000E+00 0.  1.
          3   -1    0    0  501    0  0.00000000000E+00 -0.00000000000E+00 -0.69323121243E+03  0.69323121243E+03  0.00000000000E+00 0. -1.
         23    2    1    2    0    0  0.00000000000E+00  0.00000000000E+00 -0.69021347299E+03  0.69624895187E+03  0.91476580005E+02 0.  0.
          2    1    3    3  502    0  0.10815917415E+02 -0.36344324606E+02 -0.53976631138E+03  0.54109663176E+03  0.00000000000E+00 0. -1.
         -2    1    3    3    0  502 -0.10815917415E+02  0.36344324606E+02 -0.15044716161E+03  0.15515232011E+03  0.00000000000E+00 0.  1.
<mgrwt>
<rscale>  0 0.91476580E+02</rscale>
<asrwt>0</asrwt>
<pdfrwt beam="2">  1        3 0.10665082E+00 0.91476580E+02</pdfrwt>
<pdfrwt beam="1">  1       -3 0.46426819E-03 0.91476580E+02</pdfrwt>
<totfact> 0.13859557E+04</totfact>
</mgrwt>
</event>
<event>
 5    1  0.3854342E+001  0.8923390E+02  0.7546771E-02  0.1304718E+00
          2   -1    0    0  501    0  0.00000000000E+00  0.00000000000E+00  0.80641365471E+03  0.80641365471E+03  0.00000000000E+00 0. -1.
         -2   -1    0    0    0  501 -0.00000000000E+00 -0.00000000000E+00 -0.24685498816E+01  0.24685498816E+01  0.00000000000E+00 0.  1.
         23    2    1    2    0    0  0.00000000000E+00  0.00000000000E+00  0.80394510483E+03  0.80888220459E+03  0.89233902344E+02 0.  0.
          2    1    3    3  502    0 -0.33223212493E+02 -0.25303705169E+02  0.54432448517E+03  0.54592417468E+03  0.00000000000E+00 0. -1.
         -2    1    3    3    0  502  0.33223212493E+02  0.25303705169E+02  0.25962061966E+03  0.26295802991E+03  0.00000000000E+00 0.  1.
<mgrwt>
<rscale>  0 0.89233902E+02</rscale>
<asrwt>0</asrwt>
<pdfrwt beam="1">  1        2 0.12406343E+00 0.89233902E+02</pdfrwt>
<pdfrwt beam="2">  1       -2 0.37977755E-03 0.89233902E+02</pdfrwt>
<totfact> 0.25831491E+05</totfact>
</mgrwt>
</event>
<event>
 5    1  0.3854342E+001  0.9037520E+02  0.7546771E-02  0.1301946E+00
          2   -1    0    0  501    0  0.00000000000E+00  0.00000000000E+00  0.40498908237E+03  0.40498908237E+03  0.00000000000E+00 0. -1.
         -2   -1    0    0    0  501 -0.00000000000E+00 -0.00000000000E+00 -0.50419113427E+01  0.50419113427E+01  0.00000000000E+00 0.  1.
         23    2    1    2    0    0  0.00000000000E+00  0.00000000000E+00  0.39994717103E+03  0.41003099371E+03  0.90375196776E+02 0.  0.
          2    1    3    3  502    0  0.39597459011E+02 -0.11873852201E+02  0.28276231852E+03  0.28576822059E+03  0.00000000000E+00 0. -1.
         -2    1    3    3    0  502 -0.39597459011E+02  0.11873852201E+02  0.11718485251E+03  0.12426277312E+03  0.00000000000E+00 0.  1.
<mgrwt>
<rscale>  0 0.90375197E+02</rscale>
<asrwt>0</asrwt>
<pdfrwt beam="1">  1        2 0.62305987E-01 0.90375197E+02</pdfrwt>
<pdfrwt beam="2">  1       -2 0.77567899E-03 0.90375197E+02</pdfrwt>
<totfact> 0.20526154E+05</totfact>
</mgrwt>
</event>
<event>
 5    1  0.3854342E+001  0.9049733E+02  0.7546771E-02  0.1301652E+00
         -1   -1    0    0    0  501 -0.00000000000E+00  0.00000000000E+00  0.82950630315E+01  0.82950630315E+01  0.00000000000E+00 0.  1.
          1   -1    0    0  501    0  0.00000000000E+00 -0.00000000000E+00 -0.24682654433E+03  0.24682654433E+03  0.00000000000E+00 0. -1.
         23    2    1    2    0    0  0.00000000000E+00  0.00000000000E+00 -0.23853148130E+03  0.25512160736E+03  0.90497331299E+02 0.  0.
          2    1    3    3  502    0 -0.34126371120E+02  0.75698364620E+01 -0.20026441852E+03  0.20329227470E+03  0.00000000000E+00 0. -1.
         -2    1    3    3    0  502  0.34126371120E+02 -0.75698364620E+01 -0.38267062779E+02  0.51829332657E+02  0.00000000000E+00 0.  1.
<mgrwt>
<rscale>  0 0.90497331E+02</rscale>
<asrwt>0</asrwt>
<pdfrwt beam="2">  1        1 0.37973309E-01 0.90497331E+02</pdfrwt>
<pdfrwt beam="1">  1       -1 0.12761637E-02 0.90497331E+02</pdfrwt>
<totfact> 0.12585117E+05</totfact>
</mgrwt>
</event>
<event>
 5    1  0.3854342E+001  0.9146645E+02  0.7546771E-02  0.1299339E+00
          1   -1    0    0  501    0  0.00000000000E+00  0.00000000000E+00  0.12832551340E+03  0.12832551340E+03  0.00000000000E+00 0.  1.
         -1   -1    0    0    0  501 -0.00000000000E+00 -0.00000000000E+00 -0.16298613083E+02  0.16298613083E+02  0.00000000000E+00 0. -1.
         23    2    1    2    0    0  0.00000000000E+00  0.00000000000E+00  0.11202690032E+03  0.14462412649E+03  0.91466450497E+02 0.  0.
          2    1    3    3  502    0 -0.30802003678E+02  0.14179810020E+02  0.74919052852E+01  0.34726921655E+02  0.00000000000E+00 0. -1.
         -2    1    3    3    0  502  0.30802003678E+02 -0.14179810020E+02  0.10453499503E+03  0.10989720483E+03  0.00000000000E+00 0.  1.
<mgrwt>
<rscale>  0 0.91466450E+02</rscale>
<asrwt>0</asrwt>
<pdfrwt beam="1">  1        1 0.19742386E-01 0.91466450E+02</pdfrwt>
<pdfrwt beam="2">  1       -1 0.25074790E-02 0.91466450E+02</pdfrwt>
<totfact> 0.10808279E+05</totfact>
</mgrwt>
</event>
<event>
 5    1  0.3854342E+001  0.7979699E+02  0.7546771E-02  0.1329629E+00
         -2   -1    0    0    0  501 -0.00000000000E+00  0.00000000000E+00  0.55550321228E+01  0.55550321228E+01  0.00000000000E+00 0.  1.
          2   -1    0    0  501    0  0.00000000000E+00 -0.00000000000E+00 -0.28656714724E+03  0.28656714724E+03  0.00000000000E+00 0. -1.
         23    2    1    2    0    0  0.00000000000E+00  0.00000000000E+00 -0.28101211512E+03  0.29212217937E+03  0.79796985113E+02 0.  0.
          2    1    3    3  502    0 -0.24283545561E+02  0.19222689730E+02 -0.23258760629E+03  0.23464056978E+03  0.00000000000E+00 0. -1.
         -2    1    3    3    0  502  0.24283545561E+02 -0.19222689730E+02 -0.48424508830E+02  0.57481609588E+02  0.00000000000E+00 0.  1.
<mgrwt>
<rscale>  0 0.79796985E+02</rscale>
<asrwt>0</asrwt>
<pdfrwt beam="2">  1        2 0.44087265E-01 0.79796985E+02</pdfrwt>
<pdfrwt beam="1">  1       -2 0.85462010E-03 0.79796985E+02</pdfrwt>
<totfact> 0.25145287E+05</totfact>
</mgrwt>
</event>
<event>
 5    1  0.3854342E+001  0.9006154E+02  0.7546771E-02  0.1302703E+00
         -2   -1    0    0    0  501 -0.00000000000E+00  0.00000000000E+00  0.34261081086E+01  0.34261081086E+01  0.00000000000E+00 0.  1.
          2   -1    0    0  501    0  0.00000000000E+00 -0.00000000000E+00 -0.59185827982E+03  0.59185827982E+03  0.00000000000E+00 0. -1.
         23    2    1    2    0    0  0.00000000000E+00  0.00000000000E+00 -0.58843217171E+03  0.59528438793E+03  0.90061544549E+02 0.  0.
          2    1    3    3  502    0  0.42510905534E+02 -0.10547400891E+02 -0.36333325626E+03  0.36596376850E+03  0.00000000000E+00 0. -1.
         -2    1    3    3    0  502 -0.42510905534E+02  0.10547400891E+02 -0.22509891546E+03  0.22932061943E+03  0.00000000000E+00 0.  1.
<mgrwt>
<rscale>  0 0.90061545E+02</rscale>
<asrwt>0</asrwt>
<pdfrwt beam="2">  1        2 0.91055206E-01 0.90061545E+02</pdfrwt>
<pdfrwt beam="1">  1       -2 0.52709306E-03 0.90061545E+02</pdfrwt>
<totfact> 0.23445698E+05</totfact>
</mgrwt>
</event>
<event>
 5    1  0.3854342E+001  0.9367823E+02  0.7546771E-02  0.1294181E+00
          2   -1    0    0  501    0  0.00000000000E+00  0.00000000000E+00  0.19180338298E+04  0.19180338298E+04  0.00000000000E+00 0. -1.
         -2   -1    0    0    0  501 -0.00000000000E+00 -0.00000000000E+00 -0.11438290057E+01  0.11438290057E+01  0.00000000000E+00 0.  1.
         23    2    1    2    0    0  0.00000000000E+00  0.00000000000E+00  0.19168900008E+04  0.19191776588E+04  0.93678230735E+02 0.  0.
          2    1    3    3  502    0 -0.46423806917E+02 -0.62197399254E+01  0.95396988903E+03  0.95511905236E+03  0.00000000000E+00 0. -1.
         -2    1    3    3    0  502  0.46423806917E+02  0.62197399254E+01  0.96292011174E+03  0.96405860642E+03  0.00000000000E+00 0.  1.
<mgrwt>
<rscale>  0 0.93678231E+02</rscale>
<asrwt>0</asrwt>
<pdfrwt beam="1">  1        2 0.29507955E+00 0.93678231E+02</pdfrwt>
<pdfrwt beam="2">  1       -2 0.17597523E-03 0.93678231E+02</pdfrwt>
<totfact> 0.19010761E+05</totfact>
</mgrwt>
</event>
<event>
 5    1  0.3854342E+001  0.9319122E+02  0.7546771E-02  0.1295303E+00
          1   -1    0    0  501    0  0.00000000000E+00  0.00000000000E+00  0.22973734712E+04  0.22973734712E+04  0.00000000000E+00 0.  1.
         -1   -1    0    0    0  501 -0.00000000000E+00 -0.00000000000E+00 -0.94505793931E+00  0.94505793931E+00  0.00000000000E+00 0. -1.
         23    2    1    2    0    0  0.00000000000E+00  0.00000000000E+00  0.22964284132E+04  0.22983185291E+04  0.93191223589E+02 0.  0.
          2    1    3    3  502    0 -0.32265988109E+02 -0.31516159372E+02  0.85977094882E+03  0.86095321982E+03  0.00000000000E+00 0. -1.
         -2    1    3    3    0  502  0.32265988109E+02  0.31516159372E+02  0.14366574644E+04  0.14373653093E+04  0.00000000000E+00 0.  1.
<mgrwt>
<rscale>  0 0.93191224E+02</rscale>
<asrwt>0</asrwt>
<pdfrwt beam="1">  1        1 0.35343760E+00 0.93191224E+02</pdfrwt>
<pdfrwt beam="2">  1       -1 0.14539537E-03 0.93191224E+02</pdfrwt>
<totfact> 0.59177936E+04</totfact>
</mgrwt>
</event>
<event>
 5    1  0.3854342E+001  0.9134226E+02  0.7546771E-02  0.1299633E+00
         -2   -1    0    0    0  501 -0.00000000000E+00  0.00000000000E+00  0.25585314061E+03  0.25585314061E+03  0.00000000000E+00 0.  1.
          2   -1    0    0  501    0  0.00000000000E+00 -0.00000000000E+00 -0.81525358893E+01  0.81525358893E+01  0.00000000000E+00 0. -1.
         23    2    1    2    0    0  0.00000000000E+00  0.00000000000E+00  0.24770060473E+03  0.26400567650E+03  0.91342255529E+02 0.  0.
          2    1    3    3  502    0  0.12168944724E+02  0.32144628571E+02  0.36925484315E+02  0.50446523702E+02  0.00000000000E+00 0. -1.
         -2    1    3    3    0  502 -0.12168944724E+02 -0.32144628571E+02  0.21077512041E+03  0.21355915280E+03  0.00000000000E+00 0.  1.
<mgrwt>
<rscale>  0 0.91342256E+02</rscale>
<asrwt>0</asrwt>
<pdfrwt beam="2">  1        2 0.12542365E-02 0.91342256E+02</pdfrwt>
<pdfrwt beam="1">  1       -2 0.39362016E-01 0.91342256E+02</pdfrwt>
<totfact> 0.55269070E+04</totfact>
</mgrwt>
</event>
<event>
 5    1  0.3854342E+001  0.9367158E+02  0.7546771E-02  0.1294196E+00
         -1   -1    0    0    0  501 -0.00000000000E+00  0.00000000000E+00  0.89188653407E+02  0.89188653407E+02  0.00000000000E+00 0.  1.
          1   -1    0    0  501    0  0.00000000000E+00 -0.00000000000E+00 -0.24594958536E+02  0.24594958536E+02  0.00000000000E+00 0. -1.
         23    2    1    2    0    0  0.00000000000E+00  0.00000000000E+00  0.64593694872E+02  0.11378361194E+03  0.93671580160E+02 0.  0.
          2    1    3    3  502    0 -0.41863206567E+02 -0.82955376094E+01  0.88606254296E+01  0.43587322599E+02  0.00000000000E+00 0. -1.
         -2    1    3    3    0  502  0.41863206567E+02  0.82955376094E+01  0.55733069442E+02  0.70196289345E+02  0.00000000000E+00 0.  1.
<mgrwt>
<rscale>  0 0.93671580E+02</rscale>
<asrwt>0</asrwt>
<pdfrwt beam="2">  1        1 0.37838398E-02 0.93671580E+02</pdfrwt>
<pdfrwt beam="1">  1       -1 0.13721331E-01 0.93671580E+02</pdfrwt>
<totfact> 0.77505062E+04</totfact>
</mgrwt>
</event>
<event>
 5    1  0.3854342E+001  0.8889594E+02  0.7546771E-02  0.1305548E+00
         -1   -1    0    0    0  501 -0.00000000000E+00  0.00000000000E+00  0.19808714860E+02  0.19808714860E+02  0.00000000000E+00 0.  1.
          1   -1    0    0  501    0  0.00000000000E+00 -0.00000000000E+00 -0.99734987958E+02  0.99734987958E+02  0.00000000000E+00 0. -1.
         23    2    1    2    0    0  0.00000000000E+00  0.00000000000E+00 -0.79926273099E+02  0.11954370282E+03  0.88895937770E+02 0.  0.
          2    1    3    3  502    0  0.44178053728E+02  0.44421147836E+01 -0.37210769512E+02  0.57931633695E+02  0.00000000000E+00 0. -1.
         -2    1    3    3    0  502 -0.44178053728E+02 -0.44421147836E+01 -0.42715503587E+02  0.61612069123E+02  0.00000000000E+00 0.  1.
<mgrwt>
<rscale>  0 0.88895938E+02</rscale>
<asrwt>0</asrwt>
<pdfrwt beam="2">  1        1 0.15343844E-01 0.88895938E+02</pdfrwt>
<pdfrwt beam="1">  1       -1 0.30474946E-02 0.88895938E+02</pdfrwt>
<totfact> 0.11185285E+05</totfact>
</mgrwt>
</event>
<event>
 5    1  0.3854342E+001  0.9820828E+02  0.7546771E-02  0.1284109E+00
          2   -1    0    0  501    0  0.00000000000E+00  0.00000000000E+00  0.31285139847E+03  0.31285139847E+03  0.00000000000E+00 0. -1.
         -2   -1    0    0    0  501 -0.00000000000E+00 -0.00000000000E+00 -0.77072260016E+01  0.77072260016E+01  0.00000000000E+00 0.  1.
         23    2    1    2    0    0  0.00000000000E+00  0.00000000000E+00  0.30514417247E+03  0.32055862447E+03  0.98208277307E+02 0.  0.
          2    1    3    3  502    0  0.31158037842E+02  0.36124539240E+02  0.19055479954E+03  0.19643558049E+03  0.00000000000E+00 0. -1.
         -2    1    3    3    0  502 -0.31158037842E+02 -0.36124539240E+02  0.11458937293E+03  0.12412304398E+03  0.00000000000E+00 0.  1.
<mgrwt>
<rscale>  0 0.98208277E+02</rscale>
<asrwt>0</asrwt>
<pdfrwt beam="1">  1        2 0.48130975E-01 0.98208277E+02</pdfrwt>
<pdfrwt beam="2">  1       -2 0.11857273E-02 0.98208277E+02</pdfrwt>
<totfact> 0.14955972E+05</totfact>
</mgrwt>
</event>
<event>
 5    1  0.3854342E+001  0.9203617E+02  0.7546771E-02  0.1297994E+00
          2   -1    0    0  501    0  0.00000000000E+00  0.00000000000E+00  0.83579927375E+02  0.83579927375E+02  0.00000000000E+00 0. -1.
         -2   -1    0    0    0  501 -0.00000000000E+00 -0.00000000000E+00 -0.25336992899E+02  0.25336992899E+02  0.00000000000E+00 0.  1.
         23    2    1    2    0    0  0.00000000000E+00  0.00000000000E+00  0.58242934476E+02  0.10891692027E+03  0.92036167379E+02 0.  0.
          2    1    3    3  502    0 -0.23456336992E+02 -0.38699571745E+02  0.39008993418E+02  0.59745779481E+02  0.00000000000E+00 0. -1.
         -2    1    3    3    0  502  0.23456336992E+02  0.38699571745E+02  0.19233941057E+02  0.49171140793E+02  0.00000000000E+00 0.  1.
<mgrwt>
<rscale>  0 0.92036167E+02</rscale>
<asrwt>0</asrwt>
<pdfrwt beam="1">  1        2 0.12858450E-01 0.92036167E+02</pdfrwt>
<pdfrwt beam="2">  1       -2 0.38979989E-02 0.92036167E+02</pdfrwt>
<totfact> 0.11331909E+05</totfact>
</mgrwt>
</event>
<event>
 5    1  0.3854342E+001  0.9083350E+02  0.7546771E-02  0.1300846E+00
         -2   -1    0    0    0  501 -0.00000000000E+00  0.00000000000E+00  0.28133846979E+02  0.28133846979E+02  0.00000000000E+00 0.  1.
          2   -1    0    0  501    0  0.00000000000E+00 -0.00000000000E+00 -0.73316705826E+02  0.73316705826E+02  0.00000000000E+00 0. -1.
         23    2    1    2    0    0  0.00000000000E+00  0.00000000000E+00 -0.45182858847E+02  0.10145055281E+03  0.90833495644E+02 0.  0.
          2    1    3    3  502    0  0.44119220738E+02 -0.65243762547E+01 -0.13009113576E+02  0.46457616815E+02  0.00000000000E+00 0. -1.
         -2    1    3    3    0  502 -0.44119220738E+02  0.65243762547E+01 -0.32173745271E+02  0.54992935990E+02  0.00000000000E+00 0.  1.
<mgrwt>
<rscale>  0 0.90833496E+02</rscale>
<asrwt>0</asrwt>
<pdfrwt beam="2">  1        2 0.11279493E-01 0.90833496E+02</pdfrwt>
<pdfrwt beam="1">  1       -2 0.43282843E-02 0.90833496E+02</pdfrwt>
<totfact> 0.11324083E+05</totfact>
</mgrwt>
</event>
<event>
 5    1  0.3854342E+001  0.8806905E+02  0.7546771E-02  0.1307596E+00
         -2   -1    0    0    0  501 -0.00000000000E+00  0.00000000000E+00  0.21393028914E+03  0.21393028914E+03  0.00000000000E+00 0.  1.
          2   -1    0    0  501    0  0.00000000000E+00 -0.00000000000E+00 -0.90638847908E+01  0.90638847908E+01  0.00000000000E+00 0. -1.
         23    2    1    2    0    0  0.00000000000E+00  0.00000000000E+00  0.20486640435E+03  0.22299417393E+03  0.88069052317E+02 0.  0.
          2    1    3    3  502    0 -0.27274528793E+02 -0.28802211316E+02  0.15084561996E+03  0.15597393487E+03  0.00000000000E+00 0. -1.
         -2    1    3    3    0  502  0.27274528793E+02  0.28802211316E+02  0.54020784381E+02  0.67020239053E+02  0.00000000000E+00 0.  1.
<mgrwt>
<rscale>  0 0.88069052E+02</rscale>
<asrwt>0</asrwt>
<pdfrwt beam="2">  1        2 0.13944440E-02 0.88069052E+02</pdfrwt>
<pdfrwt beam="1">  1       -2 0.32912348E-01 0.88069052E+02</pdfrwt>
<totfact> 0.66094660E+04</totfact>
</mgrwt>
</event>
<event>
 5    1  0.3854342E+001  0.8988509E+02  0.7546771E-02  0.1303130E+00
          2   -1    0    0  501    0  0.00000000000E+00  0.00000000000E+00  0.20265596362E+01  0.20265596362E+01  0.00000000000E+00 0. -1.
         -2   -1    0    0    0  501 -0.00000000000E+00 -0.00000000000E+00 -0.99668053543E+03  0.99668053543E+03  0.00000000000E+00 0.  1.
         23    2    1    2    0    0  0.00000000000E+00  0.00000000000E+00 -0.99465397579E+03  0.99870709507E+03  0.89885094276E+02 0.  0.
          2    1    3    3  502    0  0.35322636702E+02  0.27372184025E+02 -0.44414818469E+03  0.44639056339E+03  0.00000000000E+00 0. -1.
         -2    1    3    3    0  502 -0.35322636702E+02 -0.27372184025E+02 -0.55050579111E+03  0.55231653168E+03  0.00000000000E+00 0.  1.
<mgrwt>
<rscale>  0 0.89885094E+02</rscale>
<asrwt>0</asrwt>
<pdfrwt beam="1">  1        2 0.31177813E-03 0.89885094E+02</pdfrwt>
<pdfrwt beam="2">  1       -2 0.15333560E+00 0.89885094E+02</pdfrwt>
<totfact> 0.19467142E+04</totfact>
</mgrwt>
</event>
<event>
 5    1  0.3854342E+001  0.1056391E+03  0.7546771E-02  0.1268865E+00
         -1   -1    0    0    0  501 -0.00000000000E+00  0.00000000000E+00  0.22085131120E+01  0.22085131120E+01  0.00000000000E+00 0.  1.
          1   -1    0    0  501    0  0.00000000000E+00 -0.00000000000E+00 -0.12632510937E+04  0.12632510937E+04  0.00000000000E+00 0. -1.
         23    2    1    2    0    0  0.00000000000E+00  0.00000000000E+00 -0.12610425806E+04  0.12654596068E+04  0.10563913298E+03 0.  0.
          2    1    3    3  502    0  0.48946691128E+02  0.19725728501E+02 -0.65737064641E+03  0.65948544313E+03  0.00000000000E+00 0. -1.
         -2    1    3    3    0  502 -0.48946691128E+02 -0.19725728501E+02 -0.60367193414E+03  0.60597416364E+03  0.00000000000E+00 0.  1.
<mgrwt>
<rscale>  0 0.10563913E+03</rscale>
<asrwt>0</asrwt>
<pdfrwt beam="2">  1        1 0.19434669E+00 0.10563913E+03</pdfrwt>
<pdfrwt beam="1">  1       -1 0.33977061E-03 0.10563913E+03</pdfrwt>
<totfact> 0.83806779E+04</totfact>
</mgrwt>
</event>
<event>
 5    1  0.3854342E+001  0.9184559E+02  0.7546771E-02  0.1298443E+00
         -1   -1    0    0    0  501 -0.00000000000E+00  0.00000000000E+00  0.18350596635E+03  0.18350596635E+03  0.00000000000E+00 0.  1.
          1   -1    0    0  501    0  0.00000000000E+00 -0.00000000000E+00 -0.11492285105E+02  0.11492285105E+02  0.00000000000E+00 0. -1.
         23    2    1    2    0    0  0.00000000000E+00  0.00000000000E+00  0.17201368125E+03  0.19499825146E+03  0.91845585278E+02 0.  0.
          2    1    3    3  502    0 -0.64255947628E+01  0.43203205179E+02  0.55899252993E+02  0.70940338954E+02  0.00000000000E+00 0. -1.
         -2    1    3    3    0  502  0.64255947628E+01 -0.43203205179E+02  0.11611442826E+03  0.12405791250E+03  0.00000000000E+00 0.  1.
<mgrwt>
<rscale>  0 0.91845585E+02</rscale>
<asrwt>0</asrwt>
<pdfrwt beam="2">  1        1 0.17680440E-02 0.91845585E+02</pdfrwt>
<pdfrwt beam="1">  1       -1 0.28231685E-01 0.91845585E+02</pdfrwt>
<totfact> 0.69760981E+04</totfact>
</mgrwt>
</event>
<event>
 5    1  0.3854342E+001  0.9028156E+02  0.7546771E-02  0.1302171E+00
         -2   -1    0    0    0  501 -0.00000000000E+00  0.00000000000E+00  0.37037559033E+01  0.37037559033E+01  0.00000000000E+00 0.  1.
          2   -1    0    0  501    0  0.00000000000E+00 -0.00000000000E+00 -0.55016856194E+03  0.55016856194E+03  0.00000000000E+00 0. -1.
         23    2    1    2    0    0  0.00000000000E+00  0.00000000000E+00 -0.54646480604E+03  0.55387231784E+03  0.90281560889E+02 0.  0.
          2    1    3    3  502    0  0.12538982016E+02  0.19872262753E+02 -0.50969109598E+03  0.51023244332E+03  0.00000000000E+00 0. -1.
         -2    1    3    3    0  502 -0.12538982016E+02 -0.19872262753E+02 -0.36773710056E+02  0.43639874521E+02  0.00000000000E+00 0.  1.
<mgrwt>
<rscale>  0 0.90281561E+02</rscale>
<asrwt>0</asrwt>
<pdfrwt beam="2">  1        2 0.84641275E-01 0.90281561E+02</pdfrwt>
<pdfrwt beam="1">  1       -2 0.56980889E-03 0.90281561E+02</pdfrwt>
<totfact> 0.22796152E+05</totfact>
</mgrwt>
</event>
<event>
 5    1  0.3854342E+001  0.9322243E+02  0.7546771E-02  0.1295231E+00
          2   -1    0    0  501    0  0.00000000000E+00  0.00000000000E+00  0.50164192222E+02  0.50164192222E+02  0.00000000000E+00 0. -1.
         -2   -1    0    0    0  501 -0.00000000000E+00 -0.00000000000E+00 -0.43309888823E+02  0.43309888823E+02  0.00000000000E+00 0.  1.
         23    2    1    2    0    0  0.00000000000E+00  0.00000000000E+00  0.68543033992E+01  0.93474081045E+02  0.93222434811E+02 0.  0.
          2    1    3    3  502    0  0.26841967506E+02  0.10111755941E+02 -0.33412559256E+02  0.44035644015E+02  0.00000000000E+00 0.  1.
         -2    1    3    3    0  502 -0.26841967506E+02 -0.10111755941E+02  0.40266862655E+02  0.49438437029E+02  0.00000000000E+00 0. -1.
<mgrwt>
<rscale>  0 0.93222435E+02</rscale>
<asrwt>0</asrwt>
<pdfrwt beam="1">  1        2 0.77175680E-02 0.93222435E+02</pdfrwt>
<pdfrwt beam="2">  1       -2 0.66630598E-02 0.93222435E+02</pdfrwt>
<totfact> 0.94942645E+04</totfact>
</mgrwt>
</event>
<event>
 5    1  0.3854342E+001  0.9049081E+02  0.7546771E-02  0.1301667E+00
          1   -1    0    0  501    0  0.00000000000E+00  0.00000000000E+00  0.68153425676E+02  0.68153425676E+02  0.00000000000E+00 0. -1.
         -1   -1    0    0    0  501 -0.00000000000E+00 -0.00000000000E+00 -0.30037325499E+02  0.30037325499E+02  0.00000000000E+00 0.  1.
         23    2    1    2    0    0  0.00000000000E+00  0.00000000000E+00  0.38116100177E+02  0.98190751175E+02  0.90490809056E+02 0.  0.
          2    1    3    3  502    0 -0.27727873865E+02 -0.24933337121E+02  0.46863497764E+02  0.59889011611E+02  0.00000000000E+00 0. -1.
         -2    1    3    3    0  502  0.27727873865E+02  0.24933337121E+02 -0.87473975875E+01  0.38301739564E+02  0.00000000000E+00 0.  1.
<mgrwt>
<rscale>  0 0.90490809E+02</rscale>
<asrwt>0</asrwt>
<pdfrwt beam="1">  1        1 0.10485142E-01 0.90490809E+02</pdfrwt>
<pdfrwt beam="2">  1       -1 0.46211270E-02 0.90490809E+02</pdfrwt>
<totfact> 0.10032933E+05</totfact>
</mgrwt>
</event>
<event>
 5    1  0.3854342E+001  0.8829683E+02  0.7546771E-02  0.1307029E+00
         -1   -1    0    0    0  501 -0.00000000000E+00  0.00000000000E+00  0.48830501740E+01  0.48830501740E+01  0.00000000000E+00 0.  1.
          1   -1    0    0  501    0  0.00000000000E+00 -0.00000000000E+00 -0.39915266788E+03  0.39915266788E+03  0.00000000000E+00 0. -1.
         23    2    1    2    0    0  0.00000000000E+00  0.00000000000E+00 -0.39426961771E+03  0.40403571806E+03  0.88296829034E+02 0.  0.
          2    1    3    3  502    0  0.32724826550E+02  0.92147343621E+01 -0.32601363816E+03  0.32778150934E+03  0.00000000000E+00 0. -1.
         -2    1    3    3    0  502 -0.32724826550E+02 -0.92147343621E+01 -0.68255979549E+02  0.76254208713E+02  0.00000000000E+00 0.  1.
<mgrwt>
<rscale>  0 0.88296829E+02</rscale>
<asrwt>0</asrwt>
<pdfrwt beam="2">  1        1 0.61408096E-01 0.88296829E+02</pdfrwt>
<pdfrwt beam="1">  1       -1 0.75123857E-03 0.88296829E+02</pdfrwt>
<totfact> 0.14681597E+05</totfact>
</mgrwt>
</event>
<event>
 5    1  0.3854342E+001  0.8809715E+02  0.7546771E-02  0.1307526E+00
         -1   -1    0    0    0  501 -0.00000000000E+00  0.00000000000E+00  0.67568166813E+01  0.67568166813E+01  0.00000000000E+00 0.  1.
          1   -1    0    0  501    0  0.00000000000E+00 -0.00000000000E+00 -0.28715842156E+03  0.28715842156E+03  0.00000000000E+00 0. -1.
         23    2    1    2    0    0  0.00000000000E+00  0.00000000000E+00 -0.28040160488E+03  0.29391523824E+03  0.88097146672E+02 0.  0.
          2    1    3    3  502    0  0.40529430321E+02  0.43814120049E+01 -0.19587195614E+03  0.20006912480E+03  0.00000000000E+00 0. -1.
         -2    1    3    3    0  502 -0.40529430321E+02 -0.43814120049E+01 -0.84529648732E+02  0.93846113442E+02  0.00000000000E+00 0.  1.
<mgrwt>
<rscale>  0 0.88097147E+02</rscale>
<asrwt>0</asrwt>
<pdfrwt beam="2">  1        1 0.44178221E-01 0.88097147E+02</pdfrwt>
<pdfrwt beam="1">  1       -1 0.10395102E-02 0.88097147E+02</pdfrwt>
<totfact> 0.13921091E+05</totfact>
</mgrwt>
</event>
<event>
 5    1  0.3854342E+001  0.8838213E+02  0.7546771E-02  0.1306818E+00
          2   -1    0    0  501    0  0.00000000000E+00  0.00000000000E+00  0.11388302448E+04  0.11388302448E+04  0.00000000000E+00 0. -1.
         -2   -1    0    0    0  501 -0.00000000000E+00 -0.00000000000E+00 -0.17147861533E+01  0.17147861533E+01  0.00000000000E+00 0.  1.
         23    2    1    2    0    0  0.00000000000E+00  0.00000000000E+00  0.11371154587E+04  0.11405450310E+04  0.88382132466E+02 0.  0.
          2    1    3    3  502    0 -0.37045765865E+01  0.21242714306E+02  0.10663303103E+04  0.10665483146E+04  0.00000000000E+00 0. -1.
         -2    1    3    3    0  502  0.37045765865E+01 -0.21242714306E+02  0.70785148381E+02  0.73996716346E+02  0.00000000000E+00 0.  1.
<mgrwt>
<rscale>  0 0.88382132E+02</rscale>
<asrwt>0</asrwt>
<pdfrwt beam="1">  1        2 0.17520405E+00 0.88382132E+02</pdfrwt>
<pdfrwt beam="2">  1       -2 0.26381417E-03 0.88382132E+02</pdfrwt>
<totfact> 0.27109611E+05</totfact>
</mgrwt>
</event>
<event>
 5    1  0.3854342E+001  0.9182548E+02  0.7546771E-02  0.1298490E+00
         -2   -1    0    0    0  501 -0.00000000000E+00  0.00000000000E+00  0.46376299358E+01  0.46376299358E+01  0.00000000000E+00 0.  1.
          2   -1    0    0  501    0  0.00000000000E+00 -0.00000000000E+00 -0.45453814604E+03  0.45453814604E+03  0.00000000000E+00 0. -1.
         23    2    1    2    0    0  0.00000000000E+00  0.00000000000E+00 -0.44990051611E+03  0.45917577598E+03  0.91825480408E+02 0.  0.
          2    1    3    3  502    0 -0.57217242217E+01  0.31575662253E+02 -0.38914879290E+03  0.39046964491E+03  0.00000000000E+00 0. -1.
         -2    1    3    3    0  502  0.57217242217E+01 -0.31575662253E+02 -0.60751723205E+02  0.68706131074E+02  0.00000000000E+00 0.  1.
<mgrwt>
<rscale>  0 0.91825480E+02</rscale>
<asrwt>0</asrwt>
<pdfrwt beam="2">  1        2 0.69928987E-01 0.91825480E+02</pdfrwt>
<pdfrwt beam="1">  1       -2 0.71348110E-03 0.91825480E+02</pdfrwt>
<totfact> 0.20486703E+05</totfact>
</mgrwt>
</event>
<event>
 5    1  0.3854342E+001  0.8981235E+02  0.7546771E-02  0.1303307E+00
          3   -1    0    0  501    0  0.00000000000E+00  0.00000000000E+00  0.69992252956E+01  0.69992252956E+01  0.00000000000E+00 0. -1.
         -3   -1    0    0    0  501 -0.00000000000E+00 -0.00000000000E+00 -0.28811255988E+03  0.28811255988E+03  0.00000000000E+00 0.  1.
         23    2    1    2    0    0  0.00000000000E+00  0.00000000000E+00 -0.28111333458E+03  0.29511178517E+03  0.89812353651E+02 0.  0.
          2    1    3    3  502    0 -0.32878670152E+02  0.15350013219E+02 -0.53624744126E+02  0.64747533075E+02  0.00000000000E+00 0. -1.
         -2    1    3    3    0  502  0.32878670152E+02 -0.15350013219E+02 -0.22748859046E+03  0.23036425210E+03  0.00000000000E+00 0.  1.
<mgrwt>
<rscale>  0 0.89812354E+02</rscale>
<asrwt>0</asrwt>
<pdfrwt beam="1">  1        3 0.10768040E-02 0.89812354E+02</pdfrwt>
<pdfrwt beam="2">  1       -3 0.44325005E-01 0.89812354E+02</pdfrwt>
<totfact> 0.25212382E+04</totfact>
</mgrwt>
</event>
<event>
 5    1  0.3854342E+001  0.9419760E+02  0.7546771E-02  0.1292994E+00
          1   -1    0    0  501    0  0.00000000000E+00  0.00000000000E+00  0.31630531251E+03  0.31630531251E+03  0.00000000000E+00 0.  1.
         -1   -1    0    0    0  501 -0.00000000000E+00 -0.00000000000E+00 -0.70131518261E+01  0.70131518261E+01  0.00000000000E+00 0. -1.
         23    2    1    2    0    0  0.00000000000E+00  0.00000000000E+00  0.30929216068E+03  0.32331846433E+03  0.94197604641E+02 0.  0.
          2    1    3    3  502    0  0.26899481175E+02  0.35484280837E+02  0.10196426981E+03  0.11126288057E+03  0.00000000000E+00 0. -1.
         -2    1    3    3    0  502 -0.26899481175E+02 -0.35484280837E+02  0.20732789087E+03  0.21205558376E+03  0.00000000000E+00 0.  1.
<mgrwt>
<rscale>  0 0.94197605E+02</rscale>
<asrwt>0</asrwt>
<pdfrwt beam="1">  1        1 0.48662345E-01 0.94197605E+02</pdfrwt>
<pdfrwt beam="2">  1       -1 0.10789467E-02 0.94197605E+02</pdfrwt>
<totfact> 0.11862961E+05</totfact>
</mgrwt>
</event>
<event>
 5    1  0.3854342E+001  0.8635446E+02  0.7546771E-02  0.1311928E+00
         -2   -1    0    0    0  501 -0.00000000000E+00  0.00000000000E+00  0.61965121986E+01  0.61965121986E+01  0.00000000000E+00 0.  1.
          2   -1    0    0  501    0  0.00000000000E+00 -0.00000000000E+00 -0.30085849833E+03  0.30085849833E+03  0.00000000000E+00 0. -1.
         23    2    1    2    0    0  0.00000000000E+00  0.00000000000E+00 -0.29466198613E+03  0.30705501053E+03  0.86354463809E+02 0.  0.
          2    1    3    3  502    0 -0.20568937731E+02 -0.26676380915E+02 -0.24337333783E+03  0.24569349211E+03  0.00000000000E+00 0. -1.
         -2    1    3    3    0  502  0.20568937731E+02  0.26676380915E+02 -0.51288648296E+02  0.61361518414E+02  0.00000000000E+00 0.  1.
<mgrwt>
<rscale>  0 0.86354464E+02</rscale>
<asrwt>0</asrwt>
<pdfrwt beam="2">  1        2 0.46285915E-01 0.86354464E+02</pdfrwt>
<pdfrwt beam="1">  1       -2 0.95330973E-03 0.86354464E+02</pdfrwt>
<totfact> 0.20780577E+05</totfact>
</mgrwt>
</event>
<event>
 5    1  0.3854342E+001  0.9147523E+02  0.7546771E-02  0.1299318E+00
         -2   -1    0    0    0  501 -0.00000000000E+00  0.00000000000E+00  0.13636030430E+01  0.13636030430E+01  0.00000000000E+00 0.  1.
          2   -1    0    0  501    0  0.00000000000E+00 -0.00000000000E+00 -0.15341192103E+04  0.15341192103E+04  0.00000000000E+00 0. -1.
         23    2    1    2    0    0  0.00000000000E+00  0.00000000000E+00 -0.15327556073E+04  0.15354828133E+04  0.91475234322E+02 0.  0.
          2    1    3    3  502    0 -0.15583081344E+02 -0.34267425785E+02 -0.33032199884E+03  0.33246009055E+03  0.00000000000E+00 0.  1.
         -2    1    3    3    0  502  0.15583081344E+02  0.34267425785E+02 -0.12024336084E+04  0.12030227228E+04  0.00000000000E+00 0. -1.
<mgrwt>
<rscale>  0 0.91475234E+02</rscale>
<asrwt>0</asrwt>
<pdfrwt beam="2">  1        2 0.23601808E+00 0.91475234E+02</pdfrwt>
<pdfrwt beam="1">  1       -2 0.20978531E-03 0.91475234E+02</pdfrwt>
<totfact> 0.23187336E+05</totfact>
</mgrwt>
</event>
<event>
 5    1  0.3854342E+001  0.8834079E+02  0.7546771E-02  0.1306920E+00
          2   -1    0    0  501    0  0.00000000000E+00  0.00000000000E+00  0.18994435489E+03  0.18994435489E+03  0.00000000000E+00 0. -1.
         -2   -1    0    0    0  501 -0.00000000000E+00 -0.00000000000E+00 -0.10271555046E+02  0.10271555046E+02  0.00000000000E+00 0.  1.
         23    2    1    2    0    0  0.00000000000E+00  0.00000000000E+00  0.17967279985E+03  0.20021590994E+03  0.88340792321E+02 0.  0.
          2    1    3    3  502    0 -0.33573528627E+02 -0.15178821619E+02  0.14504766472E+03  0.14965427990E+03  0.00000000000E+00 0. -1.
         -2    1    3    3    0  502  0.33573528627E+02  0.15178821619E+02  0.34625135128E+02  0.50561630045E+02  0.00000000000E+00 0.  1.
<mgrwt>
<rscale>  0 0.88340792E+02</rscale>
<asrwt>0</asrwt>
<pdfrwt beam="1">  1        2 0.29222206E-01 0.88340792E+02</pdfrwt>
<pdfrwt beam="2">  1       -2 0.15802394E-02 0.88340792E+02</pdfrwt>
<totfact> 0.16529728E+05</totfact>
</mgrwt>
</event>
<event>
 5    1  0.3854342E+001  0.9266078E+02  0.7546771E-02  0.1296533E+00
         -2   -1    0    0    0  501 -0.00000000000E+00  0.00000000000E+00  0.25228084157E+02  0.25228084157E+02  0.00000000000E+00 0.  1.
          2   -1    0    0  501    0  0.00000000000E+00 -0.00000000000E+00 -0.85083941359E+02  0.85083941359E+02  0.00000000000E+00 0. -1.
         23    2    1    2    0    0  0.00000000000E+00  0.00000000000E+00 -0.59855857202E+02  0.11031202552E+03  0.92660775585E+02 0.  0.
          2    1    3    3  502    0 -0.48397288239E+01  0.38118173579E+02 -0.60745075416E+02  0.71877550872E+02  0.00000000000E+00 0. -1.
         -2    1    3    3    0  502  0.48397288239E+01 -0.38118173579E+02  0.88921821404E+00  0.38434474644E+02  0.00000000000E+00 0.  1.
<mgrwt>
<rscale>  0 0.92660776E+02</rscale>
<asrwt>0</asrwt>
<pdfrwt beam="2">  1        2 0.13089837E-01 0.92660776E+02</pdfrwt>
<pdfrwt beam="1">  1       -2 0.38812438E-02 0.92660776E+02</pdfrwt>
<totfact> 0.11178835E+05</totfact>
</mgrwt>
</event>
<event>
 5    1  0.3854342E+001  0.9147508E+02  0.7546771E-02  0.1299318E+00
          4   -1    0    0  501    0  0.00000000000E+00  0.00000000000E+00  0.32921798731E+02  0.32921798731E+02  0.00000000000E+00 0. -1.
         -4   -1    0    0    0  501 -0.00000000000E+00 -0.00000000000E+00 -0.63542169719E+02  0.63542169719E+02  0.00000000000E+00 0.  1.
         23    2    1    2    0    0  0.00000000000E+00  0.00000000000E+00 -0.30620370988E+02  0.96463968450E+02  0.91475079064E+02 0.  0.
          2    1    3    3  502    0  0.23223857719E+01  0.44127922655E+02 -0.28659422337E+01  0.44281832149E+02  0.00000000000E+00 0. -1.
         -2    1    3    3    0  502 -0.23223857719E+01 -0.44127922655E+02 -0.27754428754E+02  0.52182136302E+02  0.00000000000E+00 0.  1.
<mgrwt>
<rscale>  0 0.91475079E+02</rscale>
<asrwt>0</asrwt>
<pdfrwt beam="1">  1        4 0.50648922E-02 0.91475079E+02</pdfrwt>
<pdfrwt beam="2">  1       -4 0.97757183E-02 0.91475079E+02</pdfrwt>
<totfact> 0.26443342E+04</totfact>
</mgrwt>
</event>
<event>
 5    1  0.3854342E+001  0.9138758E+02  0.7546771E-02  0.1299526E+00
         -2   -1    0    0    0  501 -0.00000000000E+00  0.00000000000E+00  0.11216947112E+01  0.11216947112E+01  0.00000000000E+00 0.  1.
          2   -1    0    0  501    0  0.00000000000E+00 -0.00000000000E+00 -0.18614000476E+04  0.18614000476E+04  0.00000000000E+00 0. -1.
         23    2    1    2    0    0  0.00000000000E+00  0.00000000000E+00 -0.18602783529E+04  0.18625217423E+04  0.91387583158E+02 0.  0.
          2    1    3    3  502    0  0.14803871448E+02  0.33128080614E+02 -0.14961507782E+04  0.14965907174E+04  0.00000000000E+00 0. -1.
         -2    1    3    3    0  502 -0.14803871448E+02 -0.33128080614E+02 -0.36412757467E+03  0.36593102488E+03  0.00000000000E+00 0.  1.
<mgrwt>
<rscale>  0 0.91387583E+02</rscale>
<asrwt>0</asrwt>
<pdfrwt beam="2">  1        2 0.28637371E+00 0.91387583E+02</pdfrwt>
<pdfrwt beam="1">  1       -2 0.17256572E-03 0.91387583E+02</pdfrwt>
<totfact> 0.20787744E+05</totfact>
</mgrwt>
</event>
<event>
 5    1  0.3854342E+001  0.9030546E+02  0.7546771E-02  0.1302114E+00
          2   -1    0    0  501    0  0.00000000000E+00  0.00000000000E+00  0.35111504900E+03  0.35111504900E+03  0.00000000000E+00 0. -1.
         -2   -1    0    0    0  501 -0.00000000000E+00 -0.00000000000E+00 -0.58065554415E+01  0.58065554415E+01  0.00000000000E+00 0.  1.
         23    2    1    2    0    0  0.00000000000E+00  0.00000000000E+00  0.34530849356E+03  0.35692160444E+03  0.90305459378E+02 0.  0.
          2    1    3    3  502    0 -0.46114360175E+01  0.31307122070E+02  0.29995330905E+03  0.30161795179E+03  0.00000000000E+00 0. -1.
         -2    1    3    3    0  502  0.46114360175E+01 -0.31307122070E+02  0.45355184514E+02  0.55303652653E+02  0.00000000000E+00 0.  1.
<mgrwt>
<rscale>  0 0.90305459E+02</rscale>
<asrwt>0</asrwt>
<pdfrwt beam="1">  1        2 0.54017683E-01 0.90305459E+02</pdfrwt>
<pdfrwt beam="2">  1       -2 0.89331650E-03 0.90305459E+02</pdfrwt>
<totfact> 0.19534113E+05</totfact>
</mgrwt>
</event>
<event>
 5    1  0.3854342E+001  0.9066026E+02  0.7546771E-02  0.1301261E+00
          2   -1    0    0  501    0  0.00000000000E+00  0.00000000000E+00  0.33877296593E+03  0.33877296593E+03  0.00000000000E+00 0. -1.
         -2   -1    0    0    0  501 -0.00000000000E+00 -0.00000000000E+00 -0.60654798752E+01  0.60654798752E+01  0.00000000000E+00 0.  1.
         23    2    1    2    0    0  0.00000000000E+00  0.00000000000E+00  0.33270748606E+03  0.34483844581E+03  0.90660258264E+02 0.  0.
          2    1    3    3  502    0 -0.22832759119E+02  0.92592717661E+01  0.31107947495E+03  0.31205369528E+03  0.00000000000E+00 0. -1.
         -2    1    3    3    0  502  0.22832759119E+02 -0.92592717661E+01  0.21628011102E+02  0.32784750523E+02  0.00000000000E+00 0.  1.
<mgrwt>
<rscale>  0 0.90660258E+02</rscale>
<asrwt>0</asrwt>
<pdfrwt beam="1">  1        2 0.52118903E-01 0.90660258E+02</pdfrwt>
<pdfrwt beam="2">  1       -2 0.93315101E-03 0.90660258E+02</pdfrwt>
<totfact> 0.19079750E+05</totfact>
</mgrwt>
</event>
<event>
 5    1  0.3854342E+001  0.9109758E+02  0.7546771E-02  0.1300215E+00
         -3   -1    0    0    0  501 -0.00000000000E+00  0.00000000000E+00  0.84744131431E+02  0.84744131431E+02  0.00000000000E+00 0.  1.
          3   -1    0    0  501    0  0.00000000000E+00 -0.00000000000E+00 -0.24481842250E+02  0.24481842250E+02  0.00000000000E+00 0. -1.
         23    2    1    2    0    0  0.00000000000E+00  0.00000000000E+00  0.60262289181E+02  0.10922597368E+03  0.91097584101E+02 0.  0.
          2    1    3    3  502    0 -0.28839204541E+02  0.30660062214E+02  0.92618905394E+01  0.43098976205E+02  0.00000000000E+00 0. -1.
         -2    1    3    3    0  502  0.28839204541E+02 -0.30660062214E+02  0.51000398642E+02  0.66126997476E+02  0.00000000000E+00 0.  1.
<mgrwt>
<rscale>  0 0.91097584E+02</rscale>
<asrwt>0</asrwt>
<pdfrwt beam="2">  1        3 0.37664373E-02 0.91097584E+02</pdfrwt>
<pdfrwt beam="1">  1       -3 0.13037558E-01 0.91097584E+02</pdfrwt>
<totfact> 0.34082327E+04</totfact>
</mgrwt>
</event>
<event>
 5    1  0.3854342E+001  0.9001092E+02  0.7546771E-02  0.1302825E+00
         -1   -1    0    0    0  501 -0.00000000000E+00  0.00000000000E+00  0.93963757742E+02  0.93963757742E+02  0.00000000000E+00 0.  1.
          1   -1    0    0  501    0  0.00000000000E+00 -0.00000000000E+00 -0.21556090842E+02  0.21556090842E+02  0.00000000000E+00 0. -1.
         23    2    1    2    0    0  0.00000000000E+00  0.00000000000E+00  0.72407666901E+02  0.11551984858E+03  0.90010917065E+02 0.  0.
          2    1    3    3  502    0 -0.34692204521E+02 -0.25361380758E+00  0.72996823410E+02  0.80821714919E+02  0.00000000000E+00 0.  1.
         -2    1    3    3    0  502  0.34692204521E+02  0.25361380758E+00 -0.58915650941E+00  0.34698133665E+02  0.00000000000E+00 0. -1.
<mgrwt>
<rscale>  0 0.90010917E+02</rscale>
<asrwt>0</asrwt>
<pdfrwt beam="2">  1        1 0.33163217E-02 0.90010917E+02</pdfrwt>
<pdfrwt beam="1">  1       -1 0.14455963E-01 0.90010917E+02</pdfrwt>
<totfact> 0.85070922E+04</totfact>
</mgrwt>
</event>
<event>
 5    1  0.3854342E+001  0.9447469E+02  0.7546771E-02  0.1292364E+00
          1   -1    0    0  501    0  0.00000000000E+00  0.00000000000E+00  0.34958389529E+02  0.34958389529E+02  0.00000000000E+00 0. -1.
         -1   -1    0    0    0  501 -0.00000000000E+00 -0.00000000000E+00 -0.63829222301E+02  0.63829222301E+02  0.00000000000E+00 0.  1.
         23    2    1    2    0    0  0.00000000000E+00  0.00000000000E+00 -0.28870832771E+02  0.98787611830E+02  0.94474691141E+02 0.  0.
          2    1    3    3  502    0 -0.11044940072E+02 -0.31157877578E+02 -0.49718415766E+02  0.59705317206E+02  0.00000000000E+00 0.  1.
         -2    1    3    3    0  502  0.11044940072E+02  0.31157877578E+02  0.20847582995E+02  0.39082294624E+02  0.00000000000E+00 0. -1.
<mgrwt>
<rscale>  0 0.94474691E+02</rscale>
<asrwt>0</asrwt>
<pdfrwt beam="1">  1        1 0.53782138E-02 0.94474691E+02</pdfrwt>
<pdfrwt beam="2">  1       -1 0.98198804E-02 0.94474691E+02</pdfrwt>
<totfact> 0.80234408E+04</totfact>
</mgrwt>
</event>
<event>
 5    1  0.3854342E+001  0.9087755E+02  0.7546771E-02  0.1300740E+00
         -2   -1    0    0    0  501 -0.00000000000E+00  0.00000000000E+00  0.27740527800E+03  0.27740527800E+03  0.00000000000E+00 0.  1.
          2   -1    0    0  501    0  0.00000000000E+00 -0.00000000000E+00 -0.74428373008E+01  0.74428373008E+01  0.00000000000E+00 0. -1.
         23    2    1    2    0    0  0.00000000000E+00  0.00000000000E+00  0.26996244070E+03  0.28484811530E+03  0.90877551695E+02 0.  0.
          2    1    3    3  502    0 -0.21253770621E+02  0.12769476921E+02  0.15630302427E+02  0.29310214267E+02  0.00000000000E+00 0. -1.
         -2    1    3    3    0  502  0.21253770621E+02 -0.12769476921E+02  0.25433213827E+03  0.25553790103E+03  0.00000000000E+00 0.  1.
<mgrwt>
<rscale>  0 0.90877552E+02</rscale>
<asrwt>0</asrwt>
<pdfrwt beam="2">  1        2 0.11450521E-02 0.90877552E+02</pdfrwt>
<pdfrwt beam="1">  1       -2 0.42677727E-01 0.90877552E+02</pdfrwt>
<totfact> 0.53690240E+04</totfact>
</mgrwt>
</event>
<event>
 5    1  0.3854342E+001  0.9039689E+02  0.7546771E-02  0.1301893E+00
         -3   -1    0    0    0  501 -0.00000000000E+00  0.00000000000E+00  0.47311296809E+02  0.47311296809E+02  0.00000000000E+00 0.  1.
          3   -1    0    0  501    0  0.00000000000E+00 -0.00000000000E+00 -0.43179949456E+02  0.43179949456E+02  0.00000000000E+00 0. -1.
         23    2    1    2    0    0  0.00000000000E+00  0.00000000000E+00  0.41313473534E+01  0.90491246265E+02  0.90396889435E+02 0.  0.
          2    1    3    3  502    0  0.16564589605E+02 -0.11347837427E+02 -0.38470301587E+02  0.43394966842E+02  0.00000000000E+00 0. -1.
         -2    1    3    3    0  502 -0.16564589605E+02  0.11347837427E+02  0.42601648940E+02  0.47096279423E+02  0.00000000000E+00 0.  1.
<mgrwt>
<rscale>  0 0.90396889E+02</rscale>
<asrwt>0</asrwt>
<pdfrwt beam="2">  1        3 0.66430692E-02 0.90396889E+02</pdfrwt>
<pdfrwt beam="1">  1       -3 0.72786610E-02 0.90396889E+02</pdfrwt>
<totfact> 0.36228510E+04</totfact>
</mgrwt>
</event>
<event>
 5    1  0.3854342E+001  0.9116363E+02  0.7546771E-02  0.1300058E+00
          1   -1    0    0  501    0  0.00000000000E+00  0.00000000000E+00  0.45681697555E+03  0.45681697555E+03  0.00000000000E+00 0. -1.
         -1   -1    0    0    0  501 -0.00000000000E+00 -0.00000000000E+00 -0.45482148170E+01  0.45482148170E+01  0.00000000000E+00 0.  1.
         23    2    1    2    0    0  0.00000000000E+00  0.00000000000E+00  0.45226876073E+03  0.46136519037E+03  0.91163627327E+02 0.  0.
          2    1    3    3  502    0  0.27784741064E+02 -0.25000287379E+02  0.94096155473E+02  0.10124767987E+03  0.00000000000E+00 0.  1.
         -2    1    3    3    0  502 -0.27784741064E+02  0.25000287379E+02  0.35817260526E+03  0.36011751049E+03  0.00000000000E+00 0. -1.
<mgrwt>
<rscale>  0 0.91163627E+02</rscale>
<asrwt>0</asrwt>
<pdfrwt beam="1">  1        1 0.70279498E-01 0.91163627E+02</pdfrwt>
<pdfrwt beam="2">  1       -1 0.69972572E-03 0.91163627E+02</pdfrwt>
<totfact> 0.13770227E+05</totfact>
</mgrwt>
</event>
<event>
 5    1  0.3854342E+001  0.8925248E+02  0.7546771E-02  0.1304672E+00
         -2   -1    0    0    0  501 -0.00000000000E+00  0.00000000000E+00  0.25054160863E+02  0.25054160863E+02  0.00000000000E+00 0.  1.
          2   -1    0    0  501    0  0.00000000000E+00 -0.00000000000E+00 -0.79487837826E+02  0.79487837826E+02  0.00000000000E+00 0. -1.
         23    2    1    2    0    0  0.00000000000E+00  0.00000000000E+00 -0.54433676963E+02  0.10454199869E+03  0.89252475048E+02 0.  0.
          2    1    3    3  502    0  0.35145063626E+02 -0.11774196905E+02 -0.56327841865E+02  0.67428725178E+02  0.00000000000E+00 0. -1.
         -2    1    3    3    0  502 -0.35145063626E+02  0.11774196905E+02  0.18941649025E+01  0.37113273511E+02  0.00000000000E+00 0.  1.
<mgrwt>
<rscale>  0 0.89252475E+02</rscale>
<asrwt>0</asrwt>
<pdfrwt beam="2">  1        2 0.12228898E-01 0.89252475E+02</pdfrwt>
<pdfrwt beam="1">  1       -2 0.38544864E-02 0.89252475E+02</pdfrwt>
<totfact> 0.12163156E+05</totfact>
</mgrwt>
</event>
<event>
 5    1  0.3854342E+001  0.9131275E+02  0.7546771E-02  0.1299703E+00
          3   -1    0    0  501    0  0.00000000000E+00  0.00000000000E+00  0.30058410277E+02  0.30058410277E+02  0.00000000000E+00 0. -1.
         -3   -1    0    0    0  501 -0.00000000000E+00 -0.00000000000E+00 -0.69348464768E+02  0.69348464768E+02  0.00000000000E+00 0.  1.
         23    2    1    2    0    0  0.00000000000E+00  0.00000000000E+00 -0.39290054491E+02  0.99406875045E+02  0.91312750611E+02 0.  0.
          2    1    3    3  502    0  0.68268240330E+01 -0.33101605244E+02  0.13770828271E+02  0.36495993032E+02  0.00000000000E+00 0. -1.
         -2    1    3    3    0  502 -0.68268240330E+01  0.33101605244E+02 -0.53060882762E+02  0.62910882013E+02  0.00000000000E+00 0.  1.
<mgrwt>
<rscale>  0 0.91312751E+02</rscale>
<asrwt>0</asrwt>
<pdfrwt beam="1">  1        3 0.46243709E-02 0.91312751E+02</pdfrwt>
<pdfrwt beam="2">  1       -3 0.10668994E-01 0.91312751E+02</pdfrwt>
<totfact> 0.34575601E+04</totfact>
</mgrwt>
</event>
<event>
 5    1  0.3854342E+001  0.9370823E+02  0.7546771E-02  0.1294112E+00
          1   -1    0    0  501    0  0.00000000000E+00  0.00000000000E+00  0.34259171409E+03  0.34259171409E+03  0.00000000000E+00 0. -1.
         -1   -1    0    0    0  501 -0.00000000000E+00 -0.00000000000E+00 -0.64079428483E+01  0.64079428483E+01  0.00000000000E+00 0.  1.
         23    2    1    2    0    0  0.00000000000E+00  0.00000000000E+00  0.33618377124E+03  0.34899965693E+03  0.93708230677E+02 0.  0.
          2    1    3    3  502    0 -0.27918679726E+02 -0.23985433044E+02  0.27606861971E+03  0.27851146559E+03  0.00000000000E+00 0. -1.
         -2    1    3    3    0  502  0.27918679726E+02  0.23985433044E+02  0.60115151529E+02  0.70488191347E+02  0.00000000000E+00 0.  1.
<mgrwt>
<rscale>  0 0.93708231E+02</rscale>
<asrwt>0</asrwt>
<pdfrwt beam="1">  1        1 0.52706403E-01 0.93708231E+02</pdfrwt>
<pdfrwt beam="2">  1       -1 0.98583763E-03 0.93708231E+02</pdfrwt>
<totfact> 0.12208353E+05</totfact>
</mgrwt>
</event>
<event>
 5    1  0.3854342E+001  0.8692600E+02  0.7546771E-02  0.1310471E+00
         -1   -1    0    0    0  501 -0.00000000000E+00  0.00000000000E+00  0.49085593432E+03  0.49085593432E+03  0.00000000000E+00 0.  1.
          1   -1    0    0  501    0  0.00000000000E+00 -0.00000000000E+00 -0.38484459063E+01  0.38484459063E+01  0.00000000000E+00 0. -1.
         23    2    1    2    0    0  0.00000000000E+00  0.00000000000E+00  0.48700748842E+03  0.49470438023E+03  0.86926003267E+02 0.  0.
          2    1    3    3  502    0 -0.64374512001E+01 -0.22438840494E+02  0.45214983223E+03  0.45275204375E+03  0.00000000000E+00 0.  1.
         -2    1    3    3    0  502  0.64374512001E+01  0.22438840494E+02  0.34857656190E+02  0.41952336476E+02  0.00000000000E+00 0. -1.
<mgrwt>
<rscale>  0 0.86926003E+02</rscale>
<asrwt>0</asrwt>
<pdfrwt beam="2">  1        1 0.59206899E-03 0.86926003E+02</pdfrwt>
<pdfrwt beam="1">  1       -1 0.75516248E-01 0.86926003E+02</pdfrwt>
<totfact> 0.53908490E+04</totfact>
</mgrwt>
</event>
<event>
 5    1  0.3854342E+001  0.9248112E+02  0.7546771E-02  0.1296952E+00
          1   -1    0    0  501    0  0.00000000000E+00  0.00000000000E+00  0.39202832950E+03  0.39202832950E+03  0.00000000000E+00 0. -1.
         -1   -1    0    0    0  501 -0.00000000000E+00 -0.00000000000E+00 -0.54541700533E+01  0.54541700533E+01  0.00000000000E+00 0.  1.
         23    2    1    2    0    0  0.00000000000E+00  0.00000000000E+00  0.38657415945E+03  0.39748249956E+03  0.92481115366E+02 0.  0.
          2    1    3    3  502    0 -0.40674454484E+02  0.67335354608E+01  0.10329200048E+03  0.11121595709E+03  0.00000000000E+00 0. -1.
         -2    1    3    3    0  502  0.40674454484E+02 -0.67335354608E+01  0.28328215897E+03  0.28626654247E+03  0.00000000000E+00 0.  1.
<mgrwt>
<rscale>  0 0.92481115E+02</rscale>
<asrwt>0</asrwt>
<pdfrwt beam="1">  1        1 0.60312028E-01 0.92481115E+02</pdfrwt>
<pdfrwt beam="2">  1       -1 0.83910340E-03 0.92481115E+02</pdfrwt>
<totfact> 0.12946059E+05</totfact>
</mgrwt>
</event>
<event>
 5    1  0.3854342E+001  0.9234770E+02  0.7546771E-02  0.1297264E+00
          1   -1    0    0  501    0  0.00000000000E+00  0.00000000000E+00  0.11019971718E+02  0.11019971718E+02  0.00000000000E+00 0. -1.
         -1   -1    0    0    0  501 -0.00000000000E+00 -0.00000000000E+00 -0.19346912664E+03  0.19346912664E+03  0.00000000000E+00 0.  1.
         23    2    1    2    0    0  0.00000000000E+00  0.00000000000E+00 -0.18244915492E+03  0.20448909835E+03  0.92347697403E+02 0.  0.
          2    1    3    3  502    0 -0.35936870776E+02  0.29618759089E+01 -0.15508792759E+03  0.15922467357E+03  0.00000000000E+00 0.  1.
         -2    1    3    3    0  502  0.35936870776E+02 -0.29618759089E+01 -0.27361227331E+02  0.45264424785E+02  0.00000000000E+00 0. -1.
<mgrwt>
<rscale>  0 0.92347697E+02</rscale>
<asrwt>0</asrwt>
<pdfrwt beam="1">  1        1 0.16953805E-02 0.92347697E+02</pdfrwt>
<pdfrwt beam="2">  1       -1 0.29764478E-01 0.92347697E+02</pdfrwt>
<totfact> 0.67785823E+04</totfact>
</mgrwt>
</event>
<event>
 5    1  0.3854342E+001  0.9206936E+02  0.7546771E-02  0.1297916E+00
         -1   -1    0    0    0  501 -0.00000000000E+00  0.00000000000E+00  0.45501646138E+03  0.45501646138E+03  0.00000000000E+00 0.  1.
          1   -1    0    0  501    0  0.00000000000E+00 -0.00000000000E+00 -0.46573959553E+01  0.46573959553E+01  0.00000000000E+00 0. -1.
         23    2    1    2    0    0  0.00000000000E+00  0.00000000000E+00  0.45035906542E+03  0.45967385733E+03  0.92069361393E+02 0.  0.
          2    1    3    3  502    0 -0.32925610362E+01  0.40202237125E+02  0.11442155051E+03  0.12132333678E+03  0.00000000000E+00 0. -1.
         -2    1    3    3    0  502  0.32925610362E+01 -0.40202237125E+02  0.33593751492E+03  0.33835052055E+03  0.00000000000E+00 0.  1.
<mgrwt>
<rscale>  0 0.92069361E+02</rscale>
<asrwt>0</asrwt>
<pdfrwt beam="2">  1        1 0.71652282E-03 0.92069361E+02</pdfrwt>
<pdfrwt beam="1">  1       -1 0.70002497E-01 0.92069361E+02</pdfrwt>
<totfact> 0.48483643E+04</totfact>
</mgrwt>
</event>
<event>
 5    1  0.3854342E+001  0.9281660E+02  0.7546771E-02  0.1296171E+00
         -1   -1    0    0    0  501 -0.00000000000E+00  0.00000000000E+00  0.60207021371E+01  0.60207021371E+01  0.00000000000E+00 0.  1.
          1   -1    0    0  501    0  0.00000000000E+00 -0.00000000000E+00 -0.35772075963E+03  0.35772075963E+03  0.00000000000E+00 0. -1.
         23    2    1    2    0    0  0.00000000000E+00  0.00000000000E+00 -0.35170005749E+03  0.36374146177E+03  0.92816596404E+02 0.  0.
          2    1    3    3  502    0  0.14966461698E+02  0.43489197022E+02 -0.20014260590E+03  0.20535911942E+03  0.00000000000E+00 0. -1.
         -2    1    3    3    0  502 -0.14966461698E+02 -0.43489197022E+02 -0.15155745159E+03  0.15838234234E+03  0.00000000000E+00 0.  1.
<mgrwt>
<rscale>  0 0.92816596E+02</rscale>
<asrwt>0</asrwt>
<pdfrwt beam="2">  1        1 0.55033946E-01 0.92816596E+02</pdfrwt>
<pdfrwt beam="1">  1       -1 0.92626215E-03 0.92816596E+02</pdfrwt>
<totfact> 0.12621028E+05</totfact>
</mgrwt>
</event>
<event>
 5    1  0.3854342E+001  0.9113386E+02  0.7546771E-02  0.1300129E+00
          2   -1    0    0  501    0  0.00000000000E+00  0.00000000000E+00  0.88282237838E+03  0.88282237838E+03  0.00000000000E+00 0. -1.
         -2   -1    0    0    0  501 -0.00000000000E+00 -0.00000000000E+00 -0.23519400375E+01  0.23519400375E+01  0.00000000000E+00 0.  1.
         23    2    1    2    0    0  0.00000000000E+00  0.00000000000E+00  0.88047043834E+03  0.88517431842E+03  0.91133864128E+02 0.  0.
          2    1    3    3  502    0  0.36317619597E+01 -0.44221485191E+02  0.54099498304E+03  0.54281147843E+03  0.00000000000E+00 0. -1.
         -2    1    3    3    0  502 -0.36317619597E+01  0.44221485191E+02  0.33947545530E+03  0.34236283998E+03  0.00000000000E+00 0.  1.
<mgrwt>
<rscale>  0 0.91133864E+02</rscale>
<asrwt>0</asrwt>
<pdfrwt beam="1">  1        2 0.13581856E+00 0.91133864E+02</pdfrwt>
<pdfrwt beam="2">  1       -2 0.36183763E-03 0.91133864E+02</pdfrwt>
<totfact> 0.24768549E+05</totfact>
</mgrwt>
</event>
<event>
 5    1  0.3854342E+001  0.8904566E+02  0.7546771E-02  0.1305179E+00
          2   -1    0    0  501    0  0.00000000000E+00  0.00000000000E+00  0.20057519246E+03  0.20057519246E+03  0.00000000000E+00 0. -1.
         -2   -1    0    0    0  501 -0.00000000000E+00 -0.00000000000E+00 -0.98829880638E+01  0.98829880638E+01  0.00000000000E+00 0.  1.
         23    2    1    2    0    0  0.00000000000E+00  0.00000000000E+00  0.19069220439E+03  0.21045818052E+03  0.89045656445E+02 0.  0.
          2    1    3    3  502    0  0.15777632265E+02  0.39143961834E+02  0.12886253705E+03  0.13559770235E+03  0.00000000000E+00 0. -1.
         -2    1    3    3    0  502 -0.15777632265E+02 -0.39143961834E+02  0.61829667341E+02  0.74860478168E+02  0.00000000000E+00 0.  1.
<mgrwt>
<rscale>  0 0.89045656E+02</rscale>
<asrwt>0</asrwt>
<pdfrwt beam="1">  1        2 0.30857719E-01 0.89045656E+02</pdfrwt>
<pdfrwt beam="2">  1       -2 0.15204598E-02 0.89045656E+02</pdfrwt>
<totfact> 0.16499866E+05</totfact>
</mgrwt>
</event>
<event>
 5    1  0.3854342E+001  0.9167717E+02  0.7546771E-02  0.1298840E+00
         -1   -1    0    0    0  501 -0.00000000000E+00  0.00000000000E+00  0.55589230299E+03  0.55589230299E+03  0.00000000000E+00 0.  1.
          1   -1    0    0  501    0  0.00000000000E+00 -0.00000000000E+00 -0.37798254351E+01  0.37798254351E+01  0.00000000000E+00 0. -1.
         23    2    1    2    0    0  0.00000000000E+00  0.00000000000E+00  0.55211247756E+03  0.55967212843E+03  0.91677169809E+02 0.  0.
          2    1    3    3  502    0  0.80776376747E+01  0.39837618916E+02  0.14671312965E+03  0.15224002931E+03  0.00000000000E+00 0. -1.
         -2    1    3    3    0  502 -0.80776376747E+01 -0.39837618916E+02  0.40539934791E+03  0.40743209912E+03  0.00000000000E+00 0.  1.
<mgrwt>
<rscale>  0 0.91677170E+02</rscale>
<asrwt>0</asrwt>
<pdfrwt beam="2">  1        1 0.58151204E-03 0.91677170E+02</pdfrwt>
<pdfrwt beam="1">  1       -1 0.85521828E-01 0.91677170E+02</pdfrwt>
<totfact> 0.43293359E+04</totfact>
</mgrwt>
</event>
<event>
 5    1  0.3854342E+001  0.8934217E+02  0.7546771E-02  0.1304453E+00
         -1   -1    0    0    0  501 -0.00000000000E+00  0.00000000000E+00  0.21704859989E+01  0.21704859989E+01  0.00000000000E+00 0.  1.
          1   -1    0    0  501    0  0.00000000000E+00 -0.00000000000E+00 -0.91938193948E+03  0.91938193948E+03  0.00000000000E+00 0. -1.
         23    2    1    2    0    0  0.00000000000E+00  0.00000000000E+00 -0.91721145348E+03  0.92155242548E+03  0.89342165348E+02 0.  0.
          2    1    3    3  502    0  0.13884405652E+02  0.24126777216E+02 -0.81898113923E+03  0.81945407712E+03  0.00000000000E+00 0. -1.
         -2    1    3    3    0  502 -0.13884405652E+02 -0.24126777216E+02 -0.98230314252E+02  0.10209834836E+03  0.00000000000E+00 0.  1.
<mgrwt>
<rscale>  0 0.89342165E+02</rscale>
<asrwt>0</asrwt>
<pdfrwt beam="2">  1        1 0.14144375E+00 0.89342165E+02</pdfrwt>
<pdfrwt beam="1">  1       -1 0.33392004E-03 0.89342165E+02</pdfrwt>
<totfact> 0.14628415E+05</totfact>
</mgrwt>
</event>
<event>
 5    1  0.3854342E+001  0.9114232E+02  0.7546771E-02  0.1300109E+00
         -2   -1    0    0    0  501 -0.00000000000E+00  0.00000000000E+00  0.18641563760E+01  0.18641563760E+01  0.00000000000E+00 0.  1.
          2   -1    0    0  501    0  0.00000000000E+00 -0.00000000000E+00 -0.11140323745E+04  0.11140323745E+04  0.00000000000E+00 0. -1.
         23    2    1    2    0    0  0.00000000000E+00  0.00000000000E+00 -0.11121682181E+04  0.11158965309E+04  0.91142318470E+02 0.  0.
          2    1    3    3  502    0 -0.22258246852E+02 -0.19771038958E+01 -0.10423498587E+04  0.10425893566E+04  0.00000000000E+00 0. -1.
         -2    1    3    3    0  502  0.22258246852E+02  0.19771038958E+01 -0.69818359437E+02  0.73307174323E+02  0.00000000000E+00 0.  1.
<mgrwt>
<rscale>  0 0.91142318E+02</rscale>
<asrwt>0</asrwt>
<pdfrwt beam="2">  1        2 0.17138892E+00 0.91142318E+02</pdfrwt>
<pdfrwt beam="1">  1       -2 0.28679442E-03 0.91142318E+02</pdfrwt>
<totfact> 0.25032454E+05</totfact>
</mgrwt>
</event>
<event>
 5    1  0.3854342E+001  0.9025984E+02  0.7546771E-02  0.1302224E+00
          2   -1    0    0  501    0  0.00000000000E+00  0.00000000000E+00  0.33385489125E+04  0.33385489125E+04  0.00000000000E+00 0. -1.
         -2   -1    0    0    0  501 -0.00000000000E+00 -0.00000000000E+00 -0.61005833165E+00  0.61005833165E+00  0.00000000000E+00 0.  1.
         23    2    1    2    0    0  0.00000000000E+00  0.00000000000E+00  0.33379388541E+04  0.33391589708E+04  0.90259837795E+02 0.  0.
          2    1    3    3  502    0 -0.42186436572E+02 -0.10046079075E+02  0.21311702401E+04  0.21316114119E+04  0.00000000000E+00 0. -1.
         -2    1    3    3    0  502  0.42186436572E+02  0.10046079075E+02  0.12067686140E+04  0.12075475589E+04  0.00000000000E+00 0.  1.
<mgrwt>
<rscale>  0 0.90259838E+02</rscale>
<asrwt>0</asrwt>
<pdfrwt beam="1">  1        2 0.51360828E+00 0.90259838E+02</pdfrwt>
<pdfrwt beam="2">  1       -2 0.93857801E-04 0.90259838E+02</pdfrwt>
<totfact> 0.76584653E+04</totfact>
</mgrwt>
</event>
<event>
 5    1  0.3854342E+001  0.9294151E+02  0.7546771E-02  0.1295881E+00
         -1   -1    0    0    0  501 -0.00000000000E+00  0.00000000000E+00  0.47271245420E+01  0.47271245420E+01  0.00000000000E+00 0.  1.
          1   -1    0    0  501    0  0.00000000000E+00 -0.00000000000E+00 -0.45683816818E+03  0.45683816818E+03  0.00000000000E+00 0. -1.
         23    2    1    2    0    0  0.00000000000E+00  0.00000000000E+00 -0.45211104364E+03  0.46156529273E+03  0.92941506692E+02 0.  0.
          2    1    3    3  502    0 -0.31175752368E+02  0.13013460259E+02 -0.38452708246E+03  0.38600823156E+03  0.00000000000E+00 0. -1.
         -2    1    3    3    0  502  0.31175752368E+02 -0.13013460259E+02 -0.67583961181E+02  0.75557061169E+02  0.00000000000E+00 0.  1.
<mgrwt>
<rscale>  0 0.92941507E+02</rscale>
<asrwt>0</asrwt>
<pdfrwt beam="2">  1        1 0.70282807E-01 0.92941507E+02</pdfrwt>
<pdfrwt beam="1">  1       -1 0.72724981E-03 0.92941507E+02</pdfrwt>
<totfact> 0.13081826E+05</totfact>
</mgrwt>
</event>
<event>
 5    1  0.3854342E+001  0.9233547E+02  0.7546771E-02  0.1297293E+00
         -2   -1    0    0    0  501 -0.00000000000E+00  0.00000000000E+00  0.98007872239E+00  0.98007872239E+00  0.00000000000E+00 0.  1.
          2   -1    0    0  501    0  0.00000000000E+00 -0.00000000000E+00 -0.21747841511E+04  0.21747841511E+04  0.00000000000E+00 0. -1.
         23    2    1    2    0    0  0.00000000000E+00  0.00000000000E+00 -0.21738040724E+04  0.21757642298E+04  0.92335468207E+02 0.  0.
          2    1    3    3  502    0  0.41662937491E+02  0.18324923676E+02 -0.12692071616E+04  0.12700230007E+04  0.00000000000E+00 0. -1.
         -2    1    3    3    0  502 -0.41662937491E+02 -0.18324923676E+02 -0.90459691075E+03  0.90574122912E+03  0.00000000000E+00 0.  1.
<mgrwt>
<rscale>  0 0.92335468E+02</rscale>
<asrwt>0</asrwt>
<pdfrwt beam="2">  1        2 0.33457877E+00 0.92335468E+02</pdfrwt>
<pdfrwt beam="1">  1       -2 0.15078288E-03 0.92335468E+02</pdfrwt>
<totfact> 0.17439613E+05</totfact>
</mgrwt>
</event>
<event>
 5    1  0.3854342E+001  0.8414953E+02  0.7546771E-02  0.1317672E+00
          2   -1    0    0  501    0  0.00000000000E+00  0.00000000000E+00  0.73935480723E+03  0.73935480723E+03  0.00000000000E+00 0. -1.
         -2   -1    0    0    0  501 -0.00000000000E+00 -0.00000000000E+00 -0.23943657605E+01  0.23943657605E+01  0.00000000000E+00 0.  1.
         23    2    1    2    0    0  0.00000000000E+00  0.00000000000E+00  0.73696044146E+03  0.74174917299E+03  0.84149529654E+02 0.  0.
          2    1    3    3  502    0 -0.24737465633E+02  0.23799627901E+02  0.15402462777E+03  0.15780351851E+03  0.00000000000E+00 0. -1.
         -2    1    3    3    0  502  0.24737465633E+02 -0.23799627901E+02  0.58293581370E+03  0.58394565448E+03  0.00000000000E+00 0.  1.
<mgrwt>
<rscale>  0 0.84149530E+02</rscale>
<asrwt>0</asrwt>
<pdfrwt beam="1">  1        2 0.11374671E+00 0.84149530E+02</pdfrwt>
<pdfrwt beam="2">  1       -2 0.36836455E-03 0.84149530E+02</pdfrwt>
<totfact> 0.29630934E+05</totfact>
</mgrwt>
</event>
<event>
 5    1  0.3854342E+001  0.9187813E+02  0.7546771E-02  0.1298366E+00
          3   -1    0    0  501    0  0.00000000000E+00  0.00000000000E+00  0.17211015915E+03  0.17211015915E+03  0.00000000000E+00 0. -1.
         -3   -1    0    0    0  501 -0.00000000000E+00 -0.00000000000E+00 -0.12261900821E+02  0.12261900821E+02  0.00000000000E+00 0.  1.
         23    2    1    2    0    0  0.00000000000E+00  0.00000000000E+00  0.15984825833E+03  0.18437205997E+03  0.91878130189E+02 0.  0.
          2    1    3    3  502    0 -0.43154093580E+02  0.14520715635E+02  0.92174997976E+02  0.10280737924E+03  0.00000000000E+00 0. -1.
         -2    1    3    3    0  502  0.43154093580E+02 -0.14520715635E+02  0.67673260357E+02  0.81564680730E+02  0.00000000000E+00 0.  1.
<mgrwt>
<rscale>  0 0.91878130E+02</rscale>
<asrwt>0</asrwt>
<pdfrwt beam="1">  1        3 0.26478484E-01 0.91878130E+02</pdfrwt>
<pdfrwt beam="2">  1       -3 0.18864464E-02 0.91878130E+02</pdfrwt>
<totfact> 0.28725145E+04</totfact>
</mgrwt>
</event>
<event>
 5    1  0.3854342E+001  0.8956971E+02  0.7546771E-02  0.1303897E+00
         -2   -1    0    0    0  501 -0.00000000000E+00  0.00000000000E+00  0.82830535019E+00  0.82830535019E+00  0.00000000000E+00 0. -1.
          2   -1    0    0  501    0  0.00000000000E+00 -0.00000000000E+00 -0.24214299296E+04  0.24214299296E+04  0.00000000000E+00 0.  1.
         23    2    1    2    0    0  0.00000000000E+00  0.00000000000E+00 -0.24206016243E+04  0.24222582350E+04  0.89569712868E+02 0.  0.
          2    1    3    3  502    0 -0.31899236616E+02 -0.12572312042E+02 -0.43116395231E+03  0.43252511846E+03  0.00000000000E+00 0. -1.
         -2    1    3    3    0  502  0.31899236616E+02  0.12572312042E+02 -0.19894376720E+04  0.19897331165E+04  0.00000000000E+00 0.  1.
<mgrwt>
<rscale>  0 0.89569713E+02</rscale>
<asrwt>0</asrwt>
<pdfrwt beam="2">  1        2 0.37253046E+00 0.89569713E+02</pdfrwt>
<pdfrwt beam="1">  1       -2 0.12743064E-03 0.89569713E+02</pdfrwt>
<totfact> 0.16378730E+05</totfact>
</mgrwt>
</event>
<event>
 5    1  0.3854342E+001  0.9233548E+02  0.7546771E-02  0.1297293E+00
          2   -1    0    0  501    0  0.00000000000E+00  0.00000000000E+00  0.44748257280E+02  0.44748257280E+02  0.00000000000E+00 0. -1.
         -2   -1    0    0    0  501 -0.00000000000E+00 -0.00000000000E+00 -0.47632253741E+02  0.47632253741E+02  0.00000000000E+00 0.  1.
         23    2    1    2    0    0  0.00000000000E+00  0.00000000000E+00 -0.28839964610E+01  0.92380511021E+02  0.92335482784E+02 0.  0.
          2    1    3    3  502    0  0.98481557585E+01  0.27144888349E+02  0.34598189336E+02  0.45065128877E+02  0.00000000000E+00 0. -1.
         -2    1    3    3    0  502 -0.98481557585E+01 -0.27144888349E+02 -0.37482185797E+02  0.47315382144E+02  0.00000000000E+00 0.  1.
<mgrwt>
<rscale>  0 0.92335483E+02</rscale>
<asrwt>0</asrwt>
<pdfrwt beam="1">  1        2 0.68843472E-02 0.92335483E+02</pdfrwt>
<pdfrwt beam="2">  1       -2 0.73280391E-02 0.92335483E+02</pdfrwt>
<totfact> 0.94692584E+04</totfact>
</mgrwt>
</event>
<event>
 5    1  0.3854342E+001  0.9215117E+02  0.7546771E-02  0.1297724E+00
          2   -1    0    0  501    0  0.00000000000E+00  0.00000000000E+00  0.12357536062E+03  0.12357536062E+03  0.00000000000E+00 0. -1.
         -2   -1    0    0    0  501 -0.00000000000E+00 -0.00000000000E+00 -0.17179472100E+02  0.17179472100E+02  0.00000000000E+00 0.  1.
         23    2    1    2    0    0  0.00000000000E+00  0.00000000000E+00  0.10639588852E+03  0.14075483272E+03  0.92151168412E+02 0.  0.
          2    1    3    3  502    0 -0.31680823115E+02  0.22292766116E+02  0.91301760201E+02  0.99179904165E+02  0.00000000000E+00 0. -1.
         -2    1    3    3    0  502  0.31680823115E+02 -0.22292766116E+02  0.15094128314E+02  0.41574928550E+02  0.00000000000E+00 0.  1.
<mgrwt>
<rscale>  0 0.92151168E+02</rscale>
<asrwt>0</asrwt>
<pdfrwt beam="1">  1        2 0.19011593E-01 0.92151168E+02</pdfrwt>
<pdfrwt beam="2">  1       -2 0.26429958E-02 0.92151168E+02</pdfrwt>
<totfact> 0.12734024E+05</totfact>
</mgrwt>
</event>
<event>
 5    1  0.3854342E+001  0.8410692E+02  0.7546771E-02  0.1317785E+00
         -2   -1    0    0    0  501 -0.00000000000E+00  0.00000000000E+00  0.32924894450E+01  0.32924894450E+01  0.00000000000E+00 0.  1.
          2   -1    0    0  501    0  0.00000000000E+00 -0.00000000000E+00 -0.53712953995E+03  0.53712953995E+03  0.00000000000E+00 0. -1.
         23    2    1    2    0    0  0.00000000000E+00  0.00000000000E+00 -0.53383705051E+03  0.54042202940E+03  0.84106916265E+02 0.  0.
          2    1    3    3  502    0 -0.58920455178E+01  0.40807780878E+02 -0.21373789647E+03  0.21767838563E+03  0.00000000000E+00 0.  1.
         -2    1    3    3    0  502  0.58920455178E+01 -0.40807780878E+02 -0.32009915404E+03  0.32274364377E+03  0.00000000000E+00 0. -1.
<mgrwt>
<rscale>  0 0.84106916E+02</rscale>
<asrwt>0</asrwt>
<pdfrwt beam="2">  1        2 0.82635289E-01 0.84106916E+02</pdfrwt>
<pdfrwt beam="1">  1       -2 0.50653699E-03 0.84106916E+02</pdfrwt>
<totfact> 0.27265315E+05</totfact>
</mgrwt>
</event>
<event>
 5    1  0.3854342E+001  0.9001946E+02  0.7546771E-02  0.1302805E+00
         -2   -1    0    0    0  501 -0.00000000000E+00  0.00000000000E+00  0.16143221504E+01  0.16143221504E+01  0.00000000000E+00 0.  1.
          2   -1    0    0  501    0  0.00000000000E+00 -0.00000000000E+00 -0.12549389231E+04  0.12549389231E+04  0.00000000000E+00 0. -1.
         23    2    1    2    0    0  0.00000000000E+00  0.00000000000E+00 -0.12533246010E+04  0.12565532453E+04  0.90019457918E+02 0.  0.
          2    1    3    3  502    0 -0.14535201689E+00 -0.35590568099E+02 -0.10112654956E+04  0.10118916011E+04  0.00000000000E+00 0. -1.
         -2    1    3    3    0  502  0.14535201689E+00  0.35590568099E+02 -0.24205910534E+03  0.24466164420E+03  0.00000000000E+00 0.  1.
<mgrwt>
<rscale>  0 0.90019458E+02</rscale>
<asrwt>0</asrwt>
<pdfrwt beam="2">  1        2 0.19306788E+00 0.90019458E+02</pdfrwt>
<pdfrwt beam="1">  1       -2 0.24835680E-03 0.90019458E+02</pdfrwt>
<totfact> 0.25566590E+05</totfact>
</mgrwt>
</event>
<event>
 5    1  0.3854342E+001  0.9713478E+02  0.7546771E-02  0.1286439E+00
          2   -1    0    0  501    0  0.00000000000E+00  0.00000000000E+00  0.12652968007E+04  0.12652968007E+04  0.00000000000E+00 0.  1.
         -2   -1    0    0    0  501 -0.00000000000E+00 -0.00000000000E+00 -0.18642198307E+01  0.18642198307E+01  0.00000000000E+00 0. -1.
         23    2    1    2    0    0  0.00000000000E+00  0.00000000000E+00  0.12634325809E+04  0.12671610205E+04  0.97134780332E+02 0.  0.
          2    1    3    3  502    0  0.45689126119E+02  0.10040733858E+02  0.80204671920E+03  0.80340976616E+03  0.00000000000E+00 0. -1.
         -2    1    3    3    0  502 -0.45689126119E+02 -0.10040733858E+02  0.46138586168E+03  0.46375125438E+03  0.00000000000E+00 0.  1.
<mgrwt>
<rscale>  0 0.97134780E+02</rscale>
<asrwt>0</asrwt>
<pdfrwt beam="1">  1        2 0.19466036E+00 0.97134780E+02</pdfrwt>
<pdfrwt beam="2">  1       -2 0.28680406E-03 0.97134780E+02</pdfrwt>
<totfact> 0.20888198E+05</totfact>
</mgrwt>
</event>
<event>
 5    1  0.3854342E+001  0.9084027E+02  0.7546771E-02  0.1300830E+00
          2   -1    0    0  501    0  0.00000000000E+00  0.00000000000E+00  0.46175068966E+02  0.46175068966E+02  0.00000000000E+00 0. -1.
         -2   -1    0    0    0  501 -0.00000000000E+00 -0.00000000000E+00 -0.44677545224E+02  0.44677545224E+02  0.00000000000E+00 0.  1.
         23    2    1    2    0    0  0.00000000000E+00  0.00000000000E+00  0.14975237413E+01  0.90852614190E+02  0.90840271509E+02 0.  0.
          2    1    3    3  502    0 -0.34289402190E+02 -0.22748203888E+01  0.30452137614E+02  0.45915907871E+02  0.00000000000E+00 0. -1.
         -2    1    3    3    0  502  0.34289402190E+02  0.22748203888E+01 -0.28954613873E+02  0.44936706319E+02  0.00000000000E+00 0.  1.
<mgrwt>
<rscale>  0 0.90840272E+02</rscale>
<asrwt>0</asrwt>
<pdfrwt beam="1">  1        2 0.71038568E-02 0.90840272E+02</pdfrwt>
<pdfrwt beam="2">  1       -2 0.68734685E-02 0.90840272E+02</pdfrwt>
<totfact> 0.10005761E+05</totfact>
</mgrwt>
</event>
<event>
 5    1  0.3854342E+001  0.9038788E+02  0.7546771E-02  0.1301915E+00
         -2   -1    0    0    0  501 -0.00000000000E+00  0.00000000000E+00  0.29403311801E+01  0.29403311801E+01  0.00000000000E+00 0.  1.
          2   -1    0    0  501    0  0.00000000000E+00 -0.00000000000E+00 -0.69464698179E+03  0.69464698179E+03  0.00000000000E+00 0. -1.
         23    2    1    2    0    0  0.00000000000E+00  0.00000000000E+00 -0.69170665061E+03  0.69758731297E+03  0.90387879270E+02 0.  0.
          2    1    3    3  502    0 -0.33861895763E+02 -0.24997476595E+02 -0.21880606719E+03  0.22281740700E+03  0.00000000000E+00 0. -1.
         -2    1    3    3    0  502  0.33861895763E+02  0.24997476595E+02 -0.47290058341E+03  0.47476990597E+03  0.00000000000E+00 0.  1.
<mgrwt>
<rscale>  0 0.90387879E+02</rscale>
<asrwt>0</asrwt>
<pdfrwt beam="2">  1        2 0.10686891E+00 0.90387879E+02</pdfrwt>
<pdfrwt beam="1">  1       -2 0.45235804E-03 0.90387879E+02</pdfrwt>
<totfact> 0.24220315E+05</totfact>
</mgrwt>
</event>
<event>
 5    1  0.3854342E+001  0.9230183E+02  0.7546771E-02  0.1297371E+00
         -2   -1    0    0    0  501 -0.00000000000E+00  0.00000000000E+00  0.46668531562E+01  0.46668531562E+01  0.00000000000E+00 0. -1.
          2   -1    0    0  501    0  0.00000000000E+00 -0.00000000000E+00 -0.45639035929E+03  0.45639035929E+03  0.00000000000E+00 0.  1.
         23    2    1    2    0    0  0.00000000000E+00  0.00000000000E+00 -0.45172350613E+03  0.46105721244E+03  0.92301826390E+02 0.  0.
          2    1    3    3  502    0  0.32070327854E+02  0.70546057042E+01 -0.63876040466E+02  0.71822154910E+02  0.00000000000E+00 0. -1.
         -2    1    3    3    0  502 -0.32070327854E+02 -0.70546057042E+01 -0.38784746567E+03  0.38923505753E+03  0.00000000000E+00 0.  1.
<mgrwt>
<rscale>  0 0.92301826E+02</rscale>
<asrwt>0</asrwt>
<pdfrwt beam="2">  1        2 0.70213888E-01 0.92301826E+02</pdfrwt>
<pdfrwt beam="1">  1       -2 0.71797754E-03 0.92301826E+02</pdfrwt>
<totfact> 0.20235379E+05</totfact>
</mgrwt>
</event>
<event>
 5    1  0.3854342E+001  0.9090231E+02  0.7546771E-02  0.1300681E+00
         -1   -1    0    0    0  501 -0.00000000000E+00  0.00000000000E+00  0.14581934418E+02  0.14581934418E+02  0.00000000000E+00 0.  1.
          1   -1    0    0  501    0  0.00000000000E+00 -0.00000000000E+00 -0.14166895629E+03  0.14166895629E+03  0.00000000000E+00 0. -1.
         23    2    1    2    0    0  0.00000000000E+00  0.00000000000E+00 -0.12708702187E+03  0.15625089071E+03  0.90902308654E+02 0.  0.
          2    1    3    3  502    0  0.32178818537E+02 -0.29854877984E+02 -0.83810165095E+02  0.94609375197E+02  0.00000000000E+00 0. -1.
         -2    1    3    3    0  502 -0.32178818537E+02  0.29854877984E+02 -0.43276856775E+02  0.61641515509E+02  0.00000000000E+00 0.  1.
<mgrwt>
<rscale>  0 0.90902309E+02</rscale>
<asrwt>0</asrwt>
<pdfrwt beam="2">  1        1 0.21795224E-01 0.90902309E+02</pdfrwt>
<pdfrwt beam="1">  1       -1 0.22433745E-02 0.90902309E+02</pdfrwt>
<totfact> 0.11187565E+05</totfact>
</mgrwt>
</event>
<event>
 5    1  0.3854342E+001  0.8968521E+02  0.7546771E-02  0.1303616E+00
          1   -1    0    0  501    0  0.00000000000E+00  0.00000000000E+00  0.62709123900E+02  0.62709123900E+02  0.00000000000E+00 0. -1.
         -1   -1    0    0    0  501 -0.00000000000E+00 -0.00000000000E+00 -0.32066453192E+02  0.32066453192E+02  0.00000000000E+00 0.  1.
         23    2    1    2    0    0  0.00000000000E+00  0.00000000000E+00  0.30642670708E+02  0.94775577093E+02  0.89685209177E+02 0.  0.
          2    1    3    3  502    0 -0.30525837945E+02  0.29821882298E+01  0.49891042411E+02  0.58564804633E+02  0.00000000000E+00 0. -1.
         -2    1    3    3    0  502  0.30525837945E+02 -0.29821882298E+01 -0.19248371703E+02  0.36210772459E+02  0.00000000000E+00 0.  1.
<mgrwt>
<rscale>  0 0.89685209E+02</rscale>
<asrwt>0</asrwt>
<pdfrwt beam="1">  1        1 0.96475575E-02 0.89685209E+02</pdfrwt>
<pdfrwt beam="2">  1       -1 0.49333005E-02 0.89685209E+02</pdfrwt>
<totfact> 0.10154386E+05</totfact>
</mgrwt>
</event>
<event>
 5    1  0.3854342E+001  0.9091631E+02  0.7546771E-02  0.1300648E+00
          4   -1    0    0  501    0  0.00000000000E+00  0.00000000000E+00  0.64498999866E+01  0.64498999866E+01  0.00000000000E+00 0.  1.
         -4   -1    0    0    0  501 -0.00000000000E+00 -0.00000000000E+00 -0.32038386160E+03  0.32038386160E+03  0.00000000000E+00 0. -1.
         23    2    1    2    0    0  0.00000000000E+00  0.00000000000E+00 -0.31393396161E+03  0.32683376159E+03  0.90916310190E+02 0.  0.
          2    1    3    3  502    0 -0.13351362287E+02 -0.17664380240E+02 -0.29968687855E+03  0.30050376767E+03  0.00000000000E+00 0. -1.
         -2    1    3    3    0  502  0.13351362287E+02  0.17664380240E+02 -0.14247083061E+02  0.26329993922E+02  0.00000000000E+00 0.  1.
<mgrwt>
<rscale>  0 0.90916310E+02</rscale>
<asrwt>0</asrwt>
<pdfrwt beam="1">  1        4 0.99229247E-03 0.90916310E+02</pdfrwt>
<pdfrwt beam="2">  1       -4 0.49289817E-01 0.90916310E+02</pdfrwt>
<totfact> 0.17161700E+04</totfact>
</mgrwt>
</event>
<event>
 5    1  0.3854342E+001  0.8966965E+02  0.7546771E-02  0.1303654E+00
          3   -1    0    0  501    0  0.00000000000E+00  0.00000000000E+00  0.27072226727E+02  0.27072226727E+02  0.00000000000E+00 0. -1.
         -3   -1    0    0    0  501 -0.00000000000E+00 -0.00000000000E+00 -0.74251805442E+02  0.74251805442E+02  0.00000000000E+00 0.  1.
         23    2    1    2    0    0  0.00000000000E+00  0.00000000000E+00 -0.47179578715E+02  0.10132403217E+03  0.89669653994E+02 0.  0.
          2    1    3    3  502    0 -0.20713870092E+02  0.18946160252E+01  0.21290197169E+02  0.29764517123E+02  0.00000000000E+00 0. -1.
         -2    1    3    3    0  502  0.20713870092E+02 -0.18946160252E+01 -0.68469775884E+02  0.71559515047E+02  0.00000000000E+00 0.  1.
<mgrwt>
<rscale>  0 0.89669654E+02</rscale>
<asrwt>0</asrwt>
<pdfrwt beam="1">  1        3 0.41649581E-02 0.89669654E+02</pdfrwt>
<pdfrwt beam="2">  1       -3 0.11423354E-01 0.89669654E+02</pdfrwt>
<totfact> 0.36175293E+04</totfact>
</mgrwt>
</event>
<event>
 5    1  0.3854342E+001  0.9044020E+02  0.7546771E-02  0.1301789E+00
         -1   -1    0    0    0  501 -0.00000000000E+00  0.00000000000E+00  0.10576309459E+03  0.10576309459E+03  0.00000000000E+00 0.  1.
          1   -1    0    0  501    0  0.00000000000E+00 -0.00000000000E+00 -0.19334318797E+02  0.19334318797E+02  0.00000000000E+00 0. -1.
         23    2    1    2    0    0  0.00000000000E+00  0.00000000000E+00  0.86428775792E+02  0.12509741339E+03  0.90440198756E+02 0.  0.
          2    1    3    3  502    0  0.33232500835E+01 -0.24728805301E+02 -0.89509906831E+01  0.26508074939E+02  0.00000000000E+00 0. -1.
         -2    1    3    3    0  502 -0.33232500835E+01  0.24728805301E+02  0.95379766475E+02  0.98589338448E+02  0.00000000000E+00 0.  1.
<mgrwt>
<rscale>  0 0.90440199E+02</rscale>
<asrwt>0</asrwt>
<pdfrwt beam="2">  1        1 0.29745106E-02 0.90440199E+02</pdfrwt>
<pdfrwt beam="1">  1       -1 0.16271245E-01 0.90440199E+02</pdfrwt>
<totfact> 0.82216167E+04</totfact>
</mgrwt>
</event>
<event>
 5    1  0.3854342E+001  0.9134074E+02  0.7546771E-02  0.1299637E+00
         -1   -1    0    0    0  501 -0.00000000000E+00  0.00000000000E+00  0.19269211220E+03  0.19269211220E+03  0.00000000000E+00 0.  1.
          1   -1    0    0  501    0  0.00000000000E+00 -0.00000000000E+00 -0.10824432397E+02  0.10824432397E+02  0.00000000000E+00 0. -1.
         23    2    1    2    0    0  0.00000000000E+00  0.00000000000E+00  0.18186767980E+03  0.20351654459E+03  0.91340741006E+02 0.  0.
          2    1    3    3  502    0 -0.17016531309E+02 -0.33784987841E+02  0.33919005491E+02  0.50808332729E+02  0.00000000000E+00 0. -1.
         -2    1    3    3    0  502  0.17016531309E+02  0.33784987841E+02  0.14794867431E+03  0.15270821187E+03  0.00000000000E+00 0.  1.
<mgrwt>
<rscale>  0 0.91340741E+02</rscale>
<asrwt>0</asrwt>
<pdfrwt beam="2">  1        1 0.16652974E-02 0.91340741E+02</pdfrwt>
<pdfrwt beam="1">  1       -1 0.29644938E-01 0.91340741E+02</pdfrwt>
<totfact> 0.69830131E+04</totfact>
</mgrwt>
</event>
<event>
 5    1  0.3854342E+001  0.9076661E+02  0.7546771E-02  0.1301006E+00
         -1   -1    0    0    0  501 -0.00000000000E+00  0.00000000000E+00  0.33404387437E+02  0.33404387437E+02  0.00000000000E+00 0.  1.
          1   -1    0    0  501    0  0.00000000000E+00 -0.00000000000E+00 -0.61657901194E+02  0.61657901194E+02  0.00000000000E+00 0. -1.
         23    2    1    2    0    0  0.00000000000E+00  0.00000000000E+00 -0.28253513757E+02  0.95062288631E+02  0.90766611043E+02 0.  0.
          2    1    3    3  502    0 -0.94559754807E+01  0.40396984782E+02 -0.33390523639E+02  0.53256538760E+02  0.00000000000E+00 0.  1.
         -2    1    3    3    0  502  0.94559754807E+01 -0.40396984782E+02  0.51370098823E+01  0.41805749871E+02  0.00000000000E+00 0. -1.
<mgrwt>
<rscale>  0 0.90766611E+02</rscale>
<asrwt>0</asrwt>
<pdfrwt beam="2">  1        1 0.94858309E-02 0.90766611E+02</pdfrwt>
<pdfrwt beam="1">  1       -1 0.51391366E-02 0.90766611E+02</pdfrwt>
<totfact> 0.97986125E+04</totfact>
</mgrwt>
</event>
<event>
 5    1  0.3854342E+001  0.9323164E+02  0.7546771E-02  0.1295209E+00
          2   -1    0    0  501    0  0.00000000000E+00  0.00000000000E+00  0.39860832630E+03  0.39860832630E+03  0.00000000000E+00 0. -1.
         -2   -1    0    0    0  501 -0.00000000000E+00 -0.00000000000E+00 -0.54515540437E+01  0.54515540437E+01  0.00000000000E+00 0.  1.
         23    2    1    2    0    0  0.00000000000E+00  0.00000000000E+00  0.39315677226E+03  0.40405988035E+03  0.93231643408E+02 0.  0.
          2    1    3    3  502    0 -0.25179476186E+02 -0.37964909520E+02  0.23941521896E+03  0.24371086854E+03  0.00000000000E+00 0. -1.
         -2    1    3    3    0  502  0.25179476186E+02  0.37964909520E+02  0.15374155330E+03  0.16034901181E+03  0.00000000000E+00 0.  1.
<mgrwt>
<rscale>  0 0.93231643E+02</rscale>
<asrwt>0</asrwt>
<pdfrwt beam="1">  1        2 0.61324335E-01 0.93231643E+02</pdfrwt>
<pdfrwt beam="2">  1       -2 0.83870093E-03 0.93231643E+02</pdfrwt>
<totfact> 0.18790252E+05</totfact>
</mgrwt>
</event>
<event>
 5    1  0.3854342E+001  0.9064777E+02  0.7546771E-02  0.1301291E+00
         -1   -1    0    0    0  501 -0.00000000000E+00  0.00000000000E+00  0.21887981196E+01  0.21887981196E+01  0.00000000000E+00 0.  1.
          1   -1    0    0  501    0  0.00000000000E+00 -0.00000000000E+00 -0.93853082967E+03  0.93853082967E+03  0.00000000000E+00 0. -1.
         23    2    1    2    0    0  0.00000000000E+00  0.00000000000E+00 -0.93634203155E+03  0.94071962779E+03  0.90647769199E+02 0.  0.
          2    1    3    3  502    0  0.28141650886E+01 -0.26608056459E+02 -0.84782445597E+03  0.84824655398E+03  0.00000000000E+00 0. -1.
         -2    1    3    3    0  502 -0.28141650886E+01  0.26608056459E+02 -0.88517575579E+02  0.92473073811E+02  0.00000000000E+00 0.  1.
<mgrwt>
<rscale>  0 0.90647769E+02</rscale>
<asrwt>0</asrwt>
<pdfrwt beam="2">  1        1 0.14438939E+00 0.90647769E+02</pdfrwt>
<pdfrwt beam="1">  1       -1 0.33673810E-03 0.90647769E+02</pdfrwt>
<totfact> 0.14020990E+05</totfact>
</mgrwt>
</event>
<event>
 5    1  0.3854342E+001  0.8961770E+02  0.7546771E-02  0.1303780E+00
          2   -1    0    0  501    0  0.00000000000E+00  0.00000000000E+00  0.83401771556E+03  0.83401771556E+03  0.00000000000E+00 0. -1.
         -2   -1    0    0    0  501 -0.00000000000E+00 -0.00000000000E+00 -0.24074226710E+01  0.24074226710E+01  0.00000000000E+00 0.  1.
         23    2    1    2    0    0  0.00000000000E+00  0.00000000000E+00  0.83161029289E+03  0.83642513823E+03  0.89617702637E+02 0.  0.
          2    1    3    3  502    0 -0.36611186346E+02 -0.31843884679E+01  0.17651783756E+03  0.18030270734E+03  0.00000000000E+00 0.  1.
         -2    1    3    3    0  502  0.36611186346E+02  0.31843884679E+01  0.65509245533E+03  0.65612243089E+03  0.00000000000E+00 0. -1.
<mgrwt>
<rscale>  0 0.89617703E+02</rscale>
<asrwt>0</asrwt>
<pdfrwt beam="1">  1        2 0.12831019E+00 0.89617703E+02</pdfrwt>
<pdfrwt beam="2">  1       -2 0.37037338E-03 0.89617703E+02</pdfrwt>
<totfact> 0.25682230E+05</totfact>
</mgrwt>
</event>
<event>
 5    1  0.3854342E+001  0.9163246E+02  0.7546771E-02  0.1298946E+00
         -1   -1    0    0    0  501 -0.00000000000E+00  0.00000000000E+00  0.33946884132E+02  0.33946884132E+02  0.00000000000E+00 0.  1.
          1   -1    0    0  501    0  0.00000000000E+00 -0.00000000000E+00 -0.61835627239E+02  0.61835627239E+02  0.00000000000E+00 0. -1.
         23    2    1    2    0    0  0.00000000000E+00  0.00000000000E+00 -0.27888743108E+02  0.95782511371E+02  0.91632458727E+02 0.  0.
          2    1    3    3  502    0 -0.55045529257E+01 -0.27131936097E+02 -0.52103689568E+02  0.59002004423E+02  0.00000000000E+00 0. -1.
         -2    1    3    3    0  502  0.55045529257E+01  0.27131936097E+02  0.24214946461E+02  0.36780506948E+02  0.00000000000E+00 0.  1.
<mgrwt>
<rscale>  0 0.91632459E+02</rscale>
<asrwt>0</asrwt>
<pdfrwt beam="2">  1        1 0.95131733E-02 0.91632459E+02</pdfrwt>
<pdfrwt beam="1">  1       -1 0.52225976E-02 0.91632459E+02</pdfrwt>
<totfact> 0.95482841E+04</totfact>
</mgrwt>
</event>
<event>
 5    1  0.3854342E+001  0.9013585E+02  0.7546771E-02  0.1302523E+00
          1   -1    0    0  501    0  0.00000000000E+00  0.00000000000E+00  0.90911290153E+01  0.90911290153E+01  0.00000000000E+00 0. -1.
         -1   -1    0    0    0  501 -0.00000000000E+00 -0.00000000000E+00 -0.22341754446E+03  0.22341754446E+03  0.00000000000E+00 0.  1.
         23    2    1    2    0    0  0.00000000000E+00  0.00000000000E+00 -0.21432641545E+03  0.23250867348E+03  0.90135846831E+02 0.  0.
          2    1    3    3  502    0  0.36047718070E+01  0.29620461702E+02 -0.20039338103E+02  0.35943583612E+02  0.00000000000E+00 0. -1.
         -2    1    3    3    0  502 -0.36047718070E+01 -0.29620461702E+02 -0.19428707734E+03  0.19656508986E+03  0.00000000000E+00 0.  1.
<mgrwt>
<rscale>  0 0.90135847E+02</rscale>
<asrwt>0</asrwt>
<pdfrwt beam="1">  1        1 0.13986353E-02 0.90135847E+02</pdfrwt>
<pdfrwt beam="2">  1       -1 0.34371929E-01 0.90135847E+02</pdfrwt>
<totfact> 0.69211317E+04</totfact>
</mgrwt>
</event>
<event>
 5    1  0.3854342E+001  0.8935422E+02  0.7546771E-02  0.1304423E+00
          3   -1    0    0  501    0  0.00000000000E+00  0.00000000000E+00  0.13159767741E+03  0.13159767741E+03  0.00000000000E+00 0. -1.
         -3   -1    0    0    0  501 -0.00000000000E+00 -0.00000000000E+00 -0.15167776351E+02  0.15167776351E+02  0.00000000000E+00 0.  1.
         23    2    1    2    0    0  0.00000000000E+00  0.00000000000E+00  0.11642990106E+03  0.14676545376E+03  0.89354219583E+02 0.  0.
          2    1    3    3  502    0 -0.25401034178E+02 -0.34168614726E+02  0.80454924456E+02  0.91025829515E+02  0.00000000000E+00 0. -1.
         -2    1    3    3    0  502  0.25401034178E+02  0.34168614726E+02  0.35974976602E+02  0.55739624246E+02  0.00000000000E+00 0.  1.
<mgrwt>
<rscale>  0 0.89354220E+02</rscale>
<asrwt>0</asrwt>
<pdfrwt beam="1">  1        3 0.20245796E-01 0.89354220E+02</pdfrwt>
<pdfrwt beam="2">  1       -3 0.23335041E-02 0.89354220E+02</pdfrwt>
<totfact> 0.33272601E+04</totfact>
</mgrwt>
</event>
<event>
 5    1  0.3854342E+001  0.8995853E+02  0.7546771E-02  0.1302952E+00
          1   -1    0    0  501    0  0.00000000000E+00  0.00000000000E+00  0.19587305364E+02  0.19587305364E+02  0.00000000000E+00 0. -1.
         -1   -1    0    0    0  501 -0.00000000000E+00 -0.00000000000E+00 -0.10328803348E+03  0.10328803348E+03  0.00000000000E+00 0.  1.
         23    2    1    2    0    0  0.00000000000E+00  0.00000000000E+00 -0.83700728121E+02  0.12287533885E+03  0.89958529385E+02 0.  0.
          2    1    3    3  502    0 -0.16641363350E+01  0.24243433725E+02  0.98493345266E+01  0.26220656345E+02  0.00000000000E+00 0. -1.
         -2    1    3    3    0  502  0.16641363350E+01 -0.24243433725E+02 -0.93550062647E+02  0.96654682503E+02  0.00000000000E+00 0.  1.
<mgrwt>
<rscale>  0 0.89958529E+02</rscale>
<asrwt>0</asrwt>
<pdfrwt beam="1">  1        1 0.30134315E-02 0.89958529E+02</pdfrwt>
<pdfrwt beam="2">  1       -1 0.15890467E-01 0.89958529E+02</pdfrwt>
<totfact> 0.83728794E+04</totfact>
</mgrwt>
</event>
<event>
 5    1  0.3854342E+001  0.9152404E+02  0.7546771E-02  0.1299202E+00
          2   -1    0    0  501    0  0.00000000000E+00  0.00000000000E+00  0.87061894568E+03  0.87061894568E+03  0.00000000000E+00 0. -1.
         -2   -1    0    0    0  501 -0.00000000000E+00 -0.00000000000E+00 -0.24053720955E+01  0.24053720955E+01  0.00000000000E+00 0.  1.
         23    2    1    2    0    0  0.00000000000E+00  0.00000000000E+00  0.86821357358E+03  0.87302431777E+03  0.91524040945E+02 0.  0.
          2    1    3    3  502    0  0.15522304606E+01  0.38217759665E+02  0.67374688712E+03  0.67483173790E+03  0.00000000000E+00 0. -1.
         -2    1    3    3    0  502 -0.15522304606E+01 -0.38217759665E+02  0.19446668646E+03  0.19819257987E+03  0.00000000000E+00 0.  1.
<mgrwt>
<rscale>  0 0.91524041E+02</rscale>
<asrwt>0</asrwt>
<pdfrwt beam="1">  1        2 0.13394113E+00 0.91524041E+02</pdfrwt>
<pdfrwt beam="2">  1       -2 0.37005794E-03 0.91524041E+02</pdfrwt>
<totfact> 0.24447818E+05</totfact>
</mgrwt>
</event>
<event>
 5    1  0.3854342E+001  0.8962128E+02  0.7546771E-02  0.1303771E+00
          1   -1    0    0  501    0  0.00000000000E+00  0.00000000000E+00  0.53486222073E+03  0.53486222073E+03  0.00000000000E+00 0. -1.
         -1   -1    0    0    0  501 -0.00000000000E+00 -0.00000000000E+00 -0.37542252549E+01  0.37542252549E+01  0.00000000000E+00 0.  1.
         23    2    1    2    0    0  0.00000000000E+00  0.00000000000E+00  0.53110799548E+03  0.53861644599E+03  0.89621275532E+02 0.  0.
          2    1    3    3  502    0 -0.20150548509E+02  0.31655230784E+02  0.11835457189E+03  0.12416079465E+03  0.00000000000E+00 0.  1.
         -2    1    3    3    0  502  0.20150548509E+02 -0.31655230784E+02  0.41275342359E+03  0.41445565133E+03  0.00000000000E+00 0. -1.
<mgrwt>
<rscale>  0 0.89621276E+02</rscale>
<asrwt>0</asrwt>
<pdfrwt beam="1">  1        1 0.82286435E-01 0.89621276E+02</pdfrwt>
<pdfrwt beam="2">  1       -1 0.57757354E-03 0.89621276E+02</pdfrwt>
<totfact> 0.14682380E+05</totfact>
</mgrwt>
</event>
<event>
 5    1  0.3854342E+001  0.8963908E+02  0.7546771E-02  0.1303728E+00
         -2   -1    0    0    0  501 -0.00000000000E+00  0.00000000000E+00  0.49533404680E+01  0.49533404680E+01  0.00000000000E+00 0.  1.
          2   -1    0    0  501    0  0.00000000000E+00 -0.00000000000E+00 -0.40554274575E+03  0.40554274575E+03  0.00000000000E+00 0. -1.
         23    2    1    2    0    0  0.00000000000E+00  0.00000000000E+00 -0.40058940528E+03  0.41049608622E+03  0.89639082861E+02 0.  0.
          2    1    3    3  502    0 -0.12256023371E+02  0.29227442054E+02 -0.34542280749E+03  0.34687370816E+03  0.00000000000E+00 0. -1.
         -2    1    3    3    0  502  0.12256023371E+02 -0.29227442054E+02 -0.55166597793E+02  0.63622378060E+02  0.00000000000E+00 0.  1.
<mgrwt>
<rscale>  0 0.89639083E+02</rscale>
<asrwt>0</asrwt>
<pdfrwt beam="2">  1        2 0.62391209E-01 0.89639083E+02</pdfrwt>
<pdfrwt beam="1">  1       -2 0.76205217E-03 0.89639083E+02</pdfrwt>
<totfact> 0.20985954E+05</totfact>
</mgrwt>
</event>
<event>
 5    1  0.3854342E+001  0.9176883E+02  0.7546771E-02  0.1298624E+00
         -1   -1    0    0    0  501 -0.00000000000E+00  0.00000000000E+00  0.45351535358E+01  0.45351535358E+01  0.00000000000E+00 0.  1.
          1   -1    0    0  501    0  0.00000000000E+00 -0.00000000000E+00 -0.46423557262E+03  0.46423557262E+03  0.00000000000E+00 0. -1.
         23    2    1    2    0    0  0.00000000000E+00  0.00000000000E+00 -0.45970041909E+03  0.46877072616E+03  0.91768831280E+02 0.  0.
          2    1    3    3  502    0 -0.19388997505E+02 -0.39168113688E+02 -0.30123771969E+03  0.30439158680E+03  0.00000000000E+00 0. -1.
         -2    1    3    3    0  502  0.19388997505E+02  0.39168113688E+02 -0.15846269940E+03  0.16437913936E+03  0.00000000000E+00 0.  1.
<mgrwt>
<rscale>  0 0.91768831E+02</rscale>
<asrwt>0</asrwt>
<pdfrwt beam="2">  1        1 0.71420849E-01 0.91768831E+02</pdfrwt>
<pdfrwt beam="1">  1       -1 0.69771601E-03 0.91768831E+02</pdfrwt>
<totfact> 0.13560640E+05</totfact>
</mgrwt>
</event>
<event>
 5    1  0.3854342E+001  0.9162278E+02  0.7546771E-02  0.1298969E+00
          3   -1    0    0  501    0  0.00000000000E+00  0.00000000000E+00  0.23037132481E+03  0.23037132481E+03  0.00000000000E+00 0. -1.
         -3   -1    0    0    0  501 -0.00000000000E+00 -0.00000000000E+00 -0.91100031829E+01  0.91100031829E+01  0.00000000000E+00 0.  1.
         23    2    1    2    0    0  0.00000000000E+00  0.00000000000E+00  0.22126132163E+03  0.23948132799E+03  0.91622781060E+02 0.  0.
          2    1    3    3  502    0 -0.44266071748E+02 -0.10756160776E+02  0.12330232136E+03  0.13144825049E+03  0.00000000000E+00 0. -1.
         -2    1    3    3    0  502  0.44266071748E+02  0.10756160776E+02  0.97959000267E+02  0.10803307751E+03  0.00000000000E+00 0.  1.
<mgrwt>
<rscale>  0 0.91622781E+02</rscale>
<asrwt>0</asrwt>
<pdfrwt beam="1">  1        3 0.35441738E-01 0.91622781E+02</pdfrwt>
<pdfrwt beam="2">  1       -3 0.14015391E-02 0.91622781E+02</pdfrwt>
<totfact> 0.26230854E+04</totfact>
</mgrwt>
</event>
<event>
 5    1  0.3854342E+001  0.9182937E+02  0.7546771E-02  0.1298481E+00
         -2   -1    0    0    0  501 -0.00000000000E+00  0.00000000000E+00  0.54820130656E+03  0.54820130656E+03  0.00000000000E+00 0.  1.
          2   -1    0    0  501    0  0.00000000000E+00 -0.00000000000E+00 -0.38455913277E+01  0.38455913277E+01  0.00000000000E+00 0. -1.
         23    2    1    2    0    0  0.00000000000E+00  0.00000000000E+00  0.54435571523E+03  0.55204689789E+03  0.91829367641E+02 0.  0.
          2    1    3    3  502    0 -0.21454923199E+02 -0.98214260081E+01  0.35392936954E+02  0.42537443794E+02  0.00000000000E+00 0. -1.
         -2    1    3    3    0  502  0.21454923199E+02  0.98214260081E+01  0.50896277828E+03  0.50950945409E+03  0.00000000000E+00 0.  1.
<mgrwt>
<rscale>  0 0.91829368E+02</rscale>
<asrwt>0</asrwt>
<pdfrwt beam="2">  1        2 0.59162987E-03 0.91829368E+02</pdfrwt>
<pdfrwt beam="1">  1       -2 0.84338601E-01 0.91829368E+02</pdfrwt>
<totfact> 0.33112014E+04</totfact>
</mgrwt>
</event>
<event>
 5    1  0.3854342E+001  0.9302815E+02  0.7546771E-02  0.1295680E+00
         -1   -1    0    0    0  501 -0.00000000000E+00  0.00000000000E+00  0.59626686007E+01  0.59626686007E+01  0.00000000000E+00 0.  1.
          1   -1    0    0  501    0  0.00000000000E+00 -0.00000000000E+00 -0.36285084443E+03  0.36285084443E+03  0.00000000000E+00 0. -1.
         23    2    1    2    0    0  0.00000000000E+00  0.00000000000E+00 -0.35688817583E+03  0.36881351303E+03  0.93028153520E+02 0.  0.
          2    1    3    3  502    0  0.30412516179E+02 -0.18166842409E+02 -0.58940827547E+02  0.68767553798E+02  0.00000000000E+00 0.  1.
         -2    1    3    3    0  502 -0.30412516179E+02  0.18166842409E+02 -0.29794734828E+03  0.30004595923E+03  0.00000000000E+00 0. -1.
<mgrwt>
<rscale>  0 0.93028154E+02</rscale>
<asrwt>0</asrwt>
<pdfrwt beam="2">  1        1 0.55823221E-01 0.93028154E+02</pdfrwt>
<pdfrwt beam="1">  1       -1 0.91733340E-03 0.93028154E+02</pdfrwt>
<totfact> 0.12576191E+05</totfact>
</mgrwt>
</event>
<event>
 5    1  0.3854342E+001  0.9297138E+02  0.7546771E-02  0.1295812E+00
         -1   -1    0    0    0  501 -0.00000000000E+00  0.00000000000E+00  0.89720779270E+02  0.89720779270E+02  0.00000000000E+00 0.  1.
          1   -1    0    0  501    0  0.00000000000E+00 -0.00000000000E+00 -0.24084936097E+02  0.24084936097E+02  0.00000000000E+00 0. -1.
         23    2    1    2    0    0  0.00000000000E+00  0.00000000000E+00  0.65635843174E+02  0.11380571537E+03  0.92971376999E+02 0.  0.
          2    1    3    3  502    0 -0.29729806194E+02 -0.34672017397E+02  0.22223383947E+02  0.50792607343E+02  0.00000000000E+00 0. -1.
         -2    1    3    3    0  502  0.29729806194E+02  0.34672017397E+02  0.43412459227E+02  0.63013108024E+02  0.00000000000E+00 0.  1.
<mgrwt>
<rscale>  0 0.92971377E+02</rscale>
<asrwt>0</asrwt>
<pdfrwt beam="2">  1        1 0.37053748E-02 0.92971377E+02</pdfrwt>
<pdfrwt beam="1">  1       -1 0.13803197E-01 0.92971377E+02</pdfrwt>
<totfact> 0.78931216E+04</totfact>
</mgrwt>
</event>
<event>
 5    1  0.3854342E+001  0.8878034E+02  0.7546771E-02  0.1305832E+00
          1   -1    0    0  501    0  0.00000000000E+00  0.00000000000E+00  0.31073455364E+04  0.31073455364E+04  0.00000000000E+00 0. -1.
         -1   -1    0    0    0  501 -0.00000000000E+00 -0.00000000000E+00 -0.63413836525E+00  0.63413836525E+00  0.00000000000E+00 0.  1.
         23    2    1    2    0    0  0.00000000000E+00  0.00000000000E+00  0.31067113980E+04  0.31079796747E+04  0.88780336082E+02 0.  0.
          2    1    3    3  502    0  0.21402299833E+02 -0.27263504759E+02  0.25242260299E+04  0.25244639841E+04  0.00000000000E+00 0. -1.
         -2    1    3    3    0  502 -0.21402299833E+02  0.27263504759E+02  0.58248536814E+03  0.58351569064E+03  0.00000000000E+00 0.  1.
<mgrwt>
<rscale>  0 0.88780336E+02</rscale>
<asrwt>0</asrwt>
<pdfrwt beam="1">  1        1 0.47804097E+00 0.88780336E+02</pdfrwt>
<pdfrwt beam="2">  1       -1 0.97562237E-04 0.88780336E+02</pdfrwt>
<totfact> 0.29932397E+04</totfact>
</mgrwt>
</event>
<event>
 5    1  0.3854342E+001  0.9655979E+02  0.7546771E-02  0.1287701E+00
          1   -1    0    0  501    0  0.00000000000E+00  0.00000000000E+00  0.75955744653E+02  0.75955744653E+02  0.00000000000E+00 0. -1.
         -1   -1    0    0    0  501 -0.00000000000E+00 -0.00000000000E+00 -0.30688243011E+02  0.30688243011E+02  0.00000000000E+00 0.  1.
         23    2    1    2    0    0  0.00000000000E+00  0.00000000000E+00  0.45267501642E+02  0.10664398766E+03  0.96559791838E+02 0.  0.
          2    1    3    3  502    0  0.52510527560E+01 -0.47617287616E+02  0.29257479221E+02  0.56133588210E+02  0.00000000000E+00 0. -1.
         -2    1    3    3    0  502 -0.52510527560E+01  0.47617287616E+02  0.16010022420E+02  0.50510399453E+02  0.00000000000E+00 0.  1.
<mgrwt>
<rscale>  0 0.96559792E+02</rscale>
<asrwt>0</asrwt>
<pdfrwt beam="1">  1        1 0.11685499E-01 0.96559792E+02</pdfrwt>
<pdfrwt beam="2">  1       -1 0.47212682E-02 0.96559792E+02</pdfrwt>
<totfact> 0.85278870E+04</totfact>
</mgrwt>
</event>
<event>
 5    1  0.3854342E+001  0.8952901E+02  0.7546771E-02  0.1303996E+00
          1   -1    0    0  501    0  0.00000000000E+00  0.00000000000E+00  0.27537221580E+01  0.27537221580E+01  0.00000000000E+00 0. -1.
         -1   -1    0    0    0  501 -0.00000000000E+00 -0.00000000000E+00 -0.72769170313E+03  0.72769170313E+03  0.00000000000E+00 0.  1.
         23    2    1    2    0    0  0.00000000000E+00  0.00000000000E+00 -0.72493798097E+03  0.73044542529E+03  0.89529006854E+02 0.  0.
          2    1    3    3  502    0  0.95863760111E+01 -0.42402512029E+02 -0.27536145290E+03  0.27877195227E+03  0.00000000000E+00 0. -1.
         -2    1    3    3    0  502 -0.95863760111E+01  0.42402512029E+02 -0.44957652807E+03  0.45167347301E+03  0.00000000000E+00 0.  1.
<mgrwt>
<rscale>  0 0.89529007E+02</rscale>
<asrwt>0</asrwt>
<pdfrwt beam="1">  1        1 0.42364980E-03 0.89529007E+02</pdfrwt>
<pdfrwt beam="2">  1       -1 0.11195251E+00 0.89529007E+02</pdfrwt>
<totfact> 0.37378298E+04</totfact>
</mgrwt>
</event>
<event>
 5    1  0.3854342E+001  0.9075508E+02  0.7546771E-02  0.1301033E+00
          2   -1    0    0  501    0  0.00000000000E+00  0.00000000000E+00  0.22691461311E+03  0.22691461311E+03  0.00000000000E+00 0. -1.
         -2   -1    0    0    0  501 -0.00000000000E+00 -0.00000000000E+00 -0.90744317373E+01  0.90744317373E+01  0.00000000000E+00 0.  1.
         23    2    1    2    0    0  0.00000000000E+00  0.00000000000E+00  0.21784018137E+03  0.23598904484E+03  0.90755080669E+02 0.  0.
          2    1    3    3  502    0  0.12309133065E+02  0.17530114698E+02  0.48989049554E+01  0.21973141512E+02  0.00000000000E+00 0.  1.
         -2    1    3    3    0  502 -0.12309133065E+02 -0.17530114698E+02  0.21294127641E+03  0.21401590333E+03  0.00000000000E+00 0. -1.
<mgrwt>
<rscale>  0 0.90755081E+02</rscale>
<asrwt>0</asrwt>
<pdfrwt beam="1">  1        2 0.34909936E-01 0.90755081E+02</pdfrwt>
<pdfrwt beam="2">  1       -2 0.13960666E-02 0.90755081E+02</pdfrwt>
<totfact> 0.16399560E+05</totfact>
</mgrwt>
</event>
<event>
 5    1  0.3854342E+001  0.9209664E+02  0.7546771E-02  0.1297852E+00
          4   -1    0    0  501    0  0.00000000000E+00  0.00000000000E+00  0.25611270688E+02  0.25611270688E+02  0.00000000000E+00 0. -1.
         -4   -1    0    0    0  501 -0.00000000000E+00 -0.00000000000E+00 -0.82793544164E+02  0.82793544164E+02  0.00000000000E+00 0.  1.
         23    2    1    2    0    0  0.00000000000E+00  0.00000000000E+00 -0.57182273476E+02  0.10840481485E+03  0.92096642085E+02 0.  0.
          2    1    3    3  502    0  0.16969077438E+02 -0.16581984560E+02  0.17862939970E+02  0.29698424628E+02  0.00000000000E+00 0. -1.
         -2    1    3    3    0  502 -0.16969077438E+02  0.16581984560E+02 -0.75045213446E+02  0.78706390225E+02  0.00000000000E+00 0.  1.
<mgrwt>
<rscale>  0 0.92096642E+02</rscale>
<asrwt>0</asrwt>
<pdfrwt beam="1">  1        4 0.39401955E-02 0.92096642E+02</pdfrwt>
<pdfrwt beam="2">  1       -4 0.12737468E-01 0.92096642E+02</pdfrwt>
<totfact> 0.25250526E+04</totfact>
</mgrwt>
</event>
<event>
 5    1  0.3854342E+001  0.9163355E+02  0.7546771E-02  0.1298943E+00
          2   -1    0    0  501    0  0.00000000000E+00  0.00000000000E+00  0.18995714110E+03  0.18995714110E+03  0.00000000000E+00 0. -1.
         -2   -1    0    0    0  501 -0.00000000000E+00 -0.00000000000E+00 -0.11050792305E+02  0.11050792305E+02  0.00000000000E+00 0.  1.
         23    2    1    2    0    0  0.00000000000E+00  0.00000000000E+00  0.17890634879E+03  0.20100793340E+03  0.91633550910E+02 0.  0.
          2    1    3    3  502    0 -0.86011287206E+01 -0.23568940476E+02  0.17354879986E+03  0.17535295920E+03  0.00000000000E+00 0. -1.
         -2    1    3    3    0  502  0.86011287206E+01  0.23568940476E+02  0.53575489362E+01  0.25654974197E+02  0.00000000000E+00 0.  1.
<mgrwt>
<rscale>  0 0.91633551E+02</rscale>
<asrwt>0</asrwt>
<pdfrwt beam="1">  1        2 0.29224173E-01 0.91633551E+02</pdfrwt>
<pdfrwt beam="2">  1       -2 0.17001220E-02 0.91633551E+02</pdfrwt>
<totfact> 0.14980238E+05</totfact>
</mgrwt>
</event>
<event>
 5    1  0.3854342E+001  0.9374849E+02  0.7546771E-02  0.1294020E+00
         -2   -1    0    0    0  501 -0.00000000000E+00  0.00000000000E+00  0.12651707984E+02  0.12651707984E+02  0.00000000000E+00 0. -1.
          2   -1    0    0  501    0  0.00000000000E+00 -0.00000000000E+00 -0.17366783404E+03  0.17366783404E+03  0.00000000000E+00 0.  1.
         23    2    1    2    0    0  0.00000000000E+00  0.00000000000E+00 -0.16101612605E+03  0.18631954202E+03  0.93748487402E+02 0.  0.
          2    1    3    3  502    0  0.30802678797E+01  0.37838635392E+02 -0.25864494964E+02  0.45937157926E+02  0.00000000000E+00 0. -1.
         -2    1    3    3    0  502 -0.30802678797E+01 -0.37838635392E+02 -0.13515163109E+03  0.14038238410E+03  0.00000000000E+00 0.  1.
<mgrwt>
<rscale>  0 0.93748487E+02</rscale>
<asrwt>0</asrwt>
<pdfrwt beam="2">  1        2 0.26718126E-01 0.93748487E+02</pdfrwt>
<pdfrwt beam="1">  1       -2 0.19464168E-02 0.93748487E+02</pdfrwt>
<totfact> 0.13639935E+05</totfact>
</mgrwt>
</event>
<event>
 5    1  0.3854342E+001  0.8836802E+02  0.7546771E-02  0.1306853E+00
         -2   -1    0    0    0  501 -0.00000000000E+00  0.00000000000E+00  0.24159899661E+01  0.24159899661E+01  0.00000000000E+00 0. -1.
          2   -1    0    0  501    0  0.00000000000E+00 -0.00000000000E+00 -0.80804424312E+03  0.80804424312E+03  0.00000000000E+00 0.  1.
         23    2    1    2    0    0  0.00000000000E+00  0.00000000000E+00 -0.80562825315E+03  0.81046023308E+03  0.88368020992E+02 0.  0.
          2    1    3    3  502    0  0.31425272746E+02 -0.11602961380E+02 -0.13858007287E+03  0.14257143149E+03  0.00000000000E+00 0. -1.
         -2    1    3    3    0  502 -0.31425272746E+02  0.11602961380E+02 -0.66704818028E+03  0.66788880159E+03  0.00000000000E+00 0.  1.
<mgrwt>
<rscale>  0 0.88368021E+02</rscale>
<asrwt>0</asrwt>
<pdfrwt beam="2">  1        2 0.12431474E+00 0.88368021E+02</pdfrwt>
<pdfrwt beam="1">  1       -2 0.37169005E-03 0.88368021E+02</pdfrwt>
<totfact> 0.26511115E+05</totfact>
</mgrwt>
</event>
<event>
 5    1  0.3854342E+001  0.9117556E+02  0.7546771E-02  0.1300030E+00
          2   -1    0    0  501    0  0.00000000000E+00  0.00000000000E+00  0.26068288119E+02  0.26068288119E+02  0.00000000000E+00 0.  1.
         -2   -1    0    0    0  501 -0.00000000000E+00 -0.00000000000E+00 -0.79723143251E+02  0.79723143251E+02  0.00000000000E+00 0. -1.
         23    2    1    2    0    0  0.00000000000E+00  0.00000000000E+00 -0.53654855131E+02  0.10579143137E+03  0.91175564008E+02 0.  0.
          2    1    3    3  502    0  0.39846137918E+02 -0.15590326262E+01 -0.52462036459E+02  0.65896969272E+02  0.00000000000E+00 0. -1.
         -2    1    3    3    0  502 -0.39846137918E+02  0.15590326262E+01 -0.11928186721E+01  0.39894462098E+02  0.00000000000E+00 0.  1.
<mgrwt>
<rscale>  0 0.91175564E+02</rscale>
<asrwt>0</asrwt>
<pdfrwt beam="1">  1        2 0.40105060E-02 0.91175564E+02</pdfrwt>
<pdfrwt beam="2">  1       -2 0.12265099E-01 0.91175564E+02</pdfrwt>
<totfact> 0.85163099E+04</totfact>
</mgrwt>
</event>
<event>
 5    1  0.3854342E+001  0.9089917E+02  0.7546771E-02  0.1300689E+00
          4   -1    0    0  501    0  0.00000000000E+00  0.00000000000E+00  0.35522050911E+02  0.35522050911E+02  0.00000000000E+00 0. -1.
         -4   -1    0    0    0  501 -0.00000000000E+00 -0.00000000000E+00 -0.58151622104E+02  0.58151622104E+02  0.00000000000E+00 0.  1.
         23    2    1    2    0    0  0.00000000000E+00  0.00000000000E+00 -0.22629571192E+02  0.93673673015E+02  0.90899172294E+02 0.  0.
          2    1    3    3  502    0  0.52531387529E+01 -0.44509358485E+02 -0.19094135641E+02  0.48716162363E+02  0.00000000000E+00 0. -1.
         -2    1    3    3    0  502 -0.52531387529E+01  0.44509358485E+02 -0.35354355516E+01  0.44957510652E+02  0.00000000000E+00 0.  1.
<mgrwt>
<rscale>  0 0.90899172E+02</rscale>
<asrwt>0</asrwt>
<pdfrwt beam="1">  1        4 0.54649310E-02 0.90899172E+02</pdfrwt>
<pdfrwt beam="2">  1       -4 0.89464033E-02 0.90899172E+02</pdfrwt>
<totfact> 0.27079572E+04</totfact>
</mgrwt>
</event>
<event>
 5    1  0.3854342E+001  0.8843089E+02  0.7546771E-02  0.1306697E+00
          2   -1    0    0  501    0  0.00000000000E+00  0.00000000000E+00  0.20055704448E+04  0.20055704448E+04  0.00000000000E+00 0. -1.
         -2   -1    0    0    0  501 -0.00000000000E+00 -0.00000000000E+00 -0.97478782928E+00  0.97478782928E+00  0.00000000000E+00 0.  1.
         23    2    1    2    0    0  0.00000000000E+00  0.00000000000E+00  0.20045956569E+04  0.20065452326E+04  0.88430891894E+02 0.  0.
          2    1    3    3  502    0  0.78430667945E+01  0.31017366557E+02  0.16947926783E+04  0.16950946325E+04  0.00000000000E+00 0. -1.
         -2    1    3    3    0  502 -0.78430667945E+01 -0.31017366557E+02  0.30980297861E+03  0.31145060006E+03  0.00000000000E+00 0.  1.
<mgrwt>
<rscale>  0 0.88430892E+02</rscale>
<asrwt>0</asrwt>
<pdfrwt beam="1">  1        2 0.30854600E+00 0.88430892E+02</pdfrwt>
<pdfrwt beam="2">  1       -2 0.14996896E-03 0.88430892E+02</pdfrwt>
<totfact> 0.21280949E+05</totfact>
</mgrwt>
</event>
<event>
 5    1  0.3854342E+001  0.9255909E+02  0.7546771E-02  0.1296770E+00
          4   -1    0    0  501    0  0.00000000000E+00  0.00000000000E+00  0.10409621834E+04  0.10409621834E+04  0.00000000000E+00 0. -1.
         -4   -1    0    0    0  501 -0.00000000000E+00 -0.00000000000E+00 -0.20575158337E+01  0.20575158337E+01  0.00000000000E+00 0.  1.
         23    2    1    2    0    0  0.00000000000E+00  0.00000000000E+00  0.10389046676E+04  0.10430196992E+04  0.92559087606E+02 0.  0.
          2    1    3    3  502    0  0.31955121587E+02 -0.17249925901E+00  0.89668201068E+03  0.89725124009E+03  0.00000000000E+00 0. -1.
         -2    1    3    3    0  502 -0.31955121587E+02  0.17249925901E+00  0.14222265689E+03  0.14576845915E+03  0.00000000000E+00 0.  1.
<mgrwt>
<rscale>  0 0.92559088E+02</rscale>
<asrwt>0</asrwt>
<pdfrwt beam="1">  1        4 0.16014761E+00 0.92559088E+02</pdfrwt>
<pdfrwt beam="2">  1       -4 0.31654173E-03 0.92559088E+02</pdfrwt>
<totfact> 0.65307362E+03</totfact>
</mgrwt>
</event>
<event>
 5    1  0.3854342E+001  0.9105007E+02  0.7546771E-02  0.1300329E+00
          2   -1    0    0  501    0  0.00000000000E+00  0.00000000000E+00  0.26414106544E+03  0.26414106544E+03  0.00000000000E+00 0. -1.
         -2   -1    0    0    0  501 -0.00000000000E+00 -0.00000000000E+00 -0.78462949351E+01  0.78462949351E+01  0.00000000000E+00 0.  1.
         23    2    1    2    0    0  0.00000000000E+00  0.00000000000E+00  0.25629477051E+03  0.27198736038E+03  0.91050067632E+02 0.  0.
          2    1    3    3  502    0 -0.13388588820E+02 -0.18962966494E+02  0.24513391770E+03  0.24623055459E+03  0.00000000000E+00 0. -1.
         -2    1    3    3    0  502  0.13388588820E+02  0.18962966494E+02  0.11160852810E+02  0.25756805786E+02  0.00000000000E+00 0.  1.
<mgrwt>
<rscale>  0 0.91050068E+02</rscale>
<asrwt>0</asrwt>
<pdfrwt beam="1">  1        2 0.40637080E-01 0.91050068E+02</pdfrwt>
<pdfrwt beam="2">  1       -2 0.12071225E-02 0.91050068E+02</pdfrwt>
<totfact> 0.17196769E+05</totfact>
</mgrwt>
</event>
<event>
 5    1  0.3854342E+001  0.9042174E+02  0.7546771E-02  0.1301834E+00
          2   -1    0    0  501    0  0.00000000000E+00  0.00000000000E+00  0.11215821127E+02  0.11215821127E+02  0.00000000000E+00 0. -1.
         -2   -1    0    0    0  501 -0.00000000000E+00 -0.00000000000E+00 -0.18224460670E+03  0.18224460670E+03  0.00000000000E+00 0.  1.
         23    2    1    2    0    0  0.00000000000E+00  0.00000000000E+00 -0.17102878557E+03  0.19346042782E+03  0.90421743182E+02 0.  0.
          2    1    3    3  502    0  0.15348911864E+02 -0.20657362331E+02 -0.59850710993E+01  0.26422278288E+02  0.00000000000E+00 0. -1.
         -2    1    3    3    0  502 -0.15348911864E+02  0.20657362331E+02 -0.16504371447E+03  0.16703814954E+03  0.00000000000E+00 0.  1.
<mgrwt>
<rscale>  0 0.90421743E+02</rscale>
<asrwt>0</asrwt>
<pdfrwt beam="1">  1        2 0.17255109E-02 0.90421743E+02</pdfrwt>
<pdfrwt beam="2">  1       -2 0.28037632E-01 0.90421743E+02</pdfrwt>
<totfact> 0.66191935E+04</totfact>
</mgrwt>
</event>
<event>
 5    1  0.3854342E+001  0.9119498E+02  0.7546771E-02  0.1299983E+00
          2   -1    0    0  501    0  0.00000000000E+00  0.00000000000E+00  0.11889661793E+04  0.11889661793E+04  0.00000000000E+00 0. -1.
         -2   -1    0    0    0  501 -0.00000000000E+00 -0.00000000000E+00 -0.17486883509E+01  0.17486883509E+01  0.00000000000E+00 0.  1.
         23    2    1    2    0    0  0.00000000000E+00  0.00000000000E+00  0.11872174910E+04  0.11907148677E+04  0.91194984672E+02 0.  0.
          2    1    3    3  502    0  0.12450204709E+02 -0.37395848698E+02  0.29424778940E+03  0.29687576302E+03  0.00000000000E+00 0.  1.
         -2    1    3    3    0  502 -0.12450204709E+02  0.37395848698E+02  0.89296970155E+03  0.89383910464E+03  0.00000000000E+00 0. -1.
<mgrwt>
<rscale>  0 0.91194985E+02</rscale>
<asrwt>0</asrwt>
<pdfrwt beam="1">  1        2 0.18291723E+00 0.91194985E+02</pdfrwt>
<pdfrwt beam="2">  1       -2 0.26902993E-03 0.91194985E+02</pdfrwt>
<totfact> 0.24879654E+05</totfact>
</mgrwt>
</event>
<event>
 5    1  0.3854342E+001  0.9155721E+02  0.7546771E-02  0.1299124E+00
          2   -1    0    0  501    0  0.00000000000E+00  0.00000000000E+00  0.11855210311E+03  0.11855210311E+03  0.00000000000E+00 0. -1.
         -2   -1    0    0    0  501 -0.00000000000E+00 -0.00000000000E+00 -0.17677296254E+02  0.17677296254E+02  0.00000000000E+00 0.  1.
         23    2    1    2    0    0  0.00000000000E+00  0.00000000000E+00  0.10087480686E+03  0.13622939937E+03  0.91557209400E+02 0.  0.
          2    1    3    3  502    0 -0.42156557558E+02  0.16261281036E+01  0.23993454796E+02  0.48533550362E+02  0.00000000000E+00 0.  1.
         -2    1    3    3    0  502  0.42156557558E+02 -0.16261281036E+01  0.76881352061E+02  0.87695849004E+02  0.00000000000E+00 0. -1.
<mgrwt>
<rscale>  0 0.91557209E+02</rscale>
<asrwt>0</asrwt>
<pdfrwt beam="1">  1        2 0.18238785E-01 0.91557209E+02</pdfrwt>
<pdfrwt beam="2">  1       -2 0.27195841E-02 0.91557209E+02</pdfrwt>
<totfact> 0.12789478E+05</totfact>
</mgrwt>
</event>
<event>
 5    1  0.3854342E+001  0.9430234E+02  0.7546771E-02  0.1292755E+00
         -3   -1    0    0    0  501 -0.00000000000E+00  0.00000000000E+00  0.73377130949E+03  0.73377130949E+03  0.00000000000E+00 0.  1.
          3   -1    0    0  501    0  0.00000000000E+00 -0.00000000000E+00 -0.30298715321E+01  0.30298715321E+01  0.00000000000E+00 0. -1.
         23    2    1    2    0    0  0.00000000000E+00  0.00000000000E+00  0.73074143796E+03  0.73680118102E+03  0.94302339350E+02 0.  0.
          2    1    3    3  502    0 -0.39525698178E+02 -0.19835394593E+02  0.49316079615E+03  0.49513967177E+03  0.00000000000E+00 0. -1.
         -2    1    3    3    0  502  0.39525698178E+02  0.19835394593E+02  0.23758064181E+03  0.24166150926E+03  0.00000000000E+00 0.  1.
<mgrwt>
<rscale>  0 0.94302339E+02</rscale>
<asrwt>0</asrwt>
<pdfrwt beam="2">  1        3 0.46613467E-03 0.94302339E+02</pdfrwt>
<pdfrwt beam="1">  1       -3 0.11288775E+00 0.94302339E+02</pdfrwt>
<totfact> 0.12157541E+04</totfact>
</mgrwt>
</event>
<event>
 5    1  0.3854342E+001  0.9096741E+02  0.7546771E-02  0.1300526E+00
         -2   -1    0    0    0  501 -0.00000000000E+00  0.00000000000E+00  0.36066049440E+01  0.36066049440E+01  0.00000000000E+00 0. -1.
          2   -1    0    0  501    0  0.00000000000E+00 -0.00000000000E+00 -0.57360524190E+03  0.57360524190E+03  0.00000000000E+00 0.  1.
         23    2    1    2    0    0  0.00000000000E+00  0.00000000000E+00 -0.56999863696E+03  0.57721184685E+03  0.90967411777E+02 0.  0.
          2    1    3    3  502    0  0.22191466705E+02  0.29830906024E+02 -0.11875553170E+03  0.12443962576E+03  0.00000000000E+00 0. -1.
         -2    1    3    3    0  502 -0.22191466705E+02 -0.29830906024E+02 -0.45124310525E+03  0.45277222109E+03  0.00000000000E+00 0.  1.
<mgrwt>
<rscale>  0 0.90967412E+02</rscale>
<asrwt>0</asrwt>
<pdfrwt beam="2">  1        2 0.88246989E-01 0.90967412E+02</pdfrwt>
<pdfrwt beam="1">  1       -2 0.55486212E-03 0.90967412E+02</pdfrwt>
<totfact> 0.22627161E+05</totfact>
</mgrwt>
</event>
<event>
 5    1  0.3854342E+001  0.8715583E+02  0.7546771E-02  0.1309889E+00
         -1   -1    0    0    0  501 -0.00000000000E+00  0.00000000000E+00  0.31886051724E+01  0.31886051724E+01  0.00000000000E+00 0.  1.
          1   -1    0    0  501    0  0.00000000000E+00 -0.00000000000E+00 -0.59556905512E+03  0.59556905512E+03  0.00000000000E+00 0. -1.
         23    2    1    2    0    0  0.00000000000E+00  0.00000000000E+00 -0.59238044995E+03  0.59875766029E+03  0.87155827565E+02 0.  0.
          2    1    3    3  502    0  0.49266041143E+01 -0.32041538635E+02 -0.49625882673E+03  0.49731655385E+03  0.00000000000E+00 0. -1.
         -2    1    3    3    0  502 -0.49266041143E+01  0.32041538635E+02 -0.96121623216E+02  0.10144110644E+03  0.00000000000E+00 0.  1.
<mgrwt>
<rscale>  0 0.87155828E+02</rscale>
<asrwt>0</asrwt>
<pdfrwt beam="2">  1        1 0.91626020E-01 0.87155828E+02</pdfrwt>
<pdfrwt beam="1">  1       -1 0.49055458E-03 0.87155828E+02</pdfrwt>
<totfact> 0.15942233E+05</totfact>
</mgrwt>
</event>
<event>
 5    1  0.3854342E+001  0.9178353E+02  0.7546771E-02  0.1298589E+00
          2   -1    0    0  501    0  0.00000000000E+00  0.00000000000E+00  0.20375647161E+04  0.20375647161E+04  0.00000000000E+00 0. -1.
         -2   -1    0    0    0  501 -0.00000000000E+00 -0.00000000000E+00 -0.10336134590E+01  0.10336134590E+01  0.00000000000E+00 0.  1.
         23    2    1    2    0    0  0.00000000000E+00  0.00000000000E+00  0.20365311027E+04  0.20385983296E+04  0.91783534778E+02 0.  0.
          2    1    3    3  502    0  0.19946472790E+02  0.36481513784E+02  0.14496907465E+04  0.14502868762E+04  0.00000000000E+00 0. -1.
         -2    1    3    3    0  502 -0.19946472790E+02 -0.36481513784E+02  0.58684035611E+03  0.58831145339E+03  0.00000000000E+00 0.  1.
<mgrwt>
<rscale>  0 0.91783535E+02</rscale>
<asrwt>0</asrwt>
<pdfrwt beam="1">  1        2 0.31346828E+00 0.91783535E+02</pdfrwt>
<pdfrwt beam="2">  1       -2 0.15901909E-03 0.91783535E+02</pdfrwt>
<totfact> 0.18997655E+05</totfact>
</mgrwt>
</event>
<event>
 5    1  0.3854342E+001  0.9008494E+02  0.7546771E-02  0.1302646E+00
         -2   -1    0    0    0  501 -0.00000000000E+00  0.00000000000E+00  0.14324113057E+02  0.14324113057E+02  0.00000000000E+00 0.  1.
          2   -1    0    0  501    0  0.00000000000E+00 -0.00000000000E+00 -0.14163698686E+03  0.14163698686E+03  0.00000000000E+00 0. -1.
         23    2    1    2    0    0  0.00000000000E+00  0.00000000000E+00 -0.12731287380E+03  0.15596109992E+03  0.90084942425E+02 0.  0.
          2    1    3    3  502    0  0.34725303169E+02 -0.92696513095E+01 -0.11065806293E+03  0.11634852817E+03  0.00000000000E+00 0. -1.
         -2    1    3    3    0  502 -0.34725303169E+02  0.92696513095E+01 -0.16654810877E+02  0.39612571753E+02  0.00000000000E+00 0.  1.
<mgrwt>
<rscale>  0 0.90084942E+02</rscale>
<asrwt>0</asrwt>
<pdfrwt beam="2">  1        2 0.21790306E-01 0.90084942E+02</pdfrwt>
<pdfrwt beam="1">  1       -2 0.22037097E-02 0.90084942E+02</pdfrwt>
<totfact> 0.14168604E+05</totfact>
</mgrwt>
</event>
<event>
 5    1  0.3854342E+001  0.8999112E+02  0.7546771E-02  0.1302873E+00
         -4   -1    0    0    0  501 -0.00000000000E+00  0.00000000000E+00  0.78210128951E+01  0.78210128951E+01  0.00000000000E+00 0.  1.
          4   -1    0    0  501    0  0.00000000000E+00 -0.00000000000E+00 -0.25886680088E+03  0.25886680088E+03  0.00000000000E+00 0. -1.
         23    2    1    2    0    0  0.00000000000E+00  0.00000000000E+00 -0.25104578799E+03  0.26668781378E+03  0.89991123736E+02 0.  0.
          2    1    3    3  502    0  0.76244338435E+01  0.35669719085E+02 -0.47445205115E+02  0.59845704436E+02  0.00000000000E+00 0.  1.
         -2    1    3    3    0  502 -0.76244338435E+01 -0.35669719085E+02 -0.20360058287E+03  0.20684210934E+03  0.00000000000E+00 0. -1.
<mgrwt>
<rscale>  0 0.89991124E+02</rscale>
<asrwt>0</asrwt>
<pdfrwt beam="2">  1        4 0.39825655E-01 0.89991124E+02</pdfrwt>
<pdfrwt beam="1">  1       -4 0.12032330E-02 0.89991124E+02</pdfrwt>
<totfact> 0.19556022E+04</totfact>
</mgrwt>
</event>
<event>
 5    1  0.3854342E+001  0.9245201E+02  0.7546771E-02  0.1297020E+00
          1   -1    0    0  501    0  0.00000000000E+00  0.00000000000E+00  0.43299139161E+02  0.43299139161E+02  0.00000000000E+00 0. -1.
         -1   -1    0    0    0  501 -0.00000000000E+00 -0.00000000000E+00 -0.49350720092E+02  0.49350720092E+02  0.00000000000E+00 0.  1.
         23    2    1    2    0    0  0.00000000000E+00  0.00000000000E+00 -0.60515809310E+01  0.92649859253E+02  0.92452013433E+02 0.  0.
          2    1    3    3  502    0  0.26007562445E+02  0.37623916958E+02  0.36886420573E+01  0.45886365206E+02  0.00000000000E+00 0.  1.
         -2    1    3    3    0  502 -0.26007562445E+02 -0.37623916958E+02 -0.97402229883E+01  0.46763494047E+02  0.00000000000E+00 0. -1.
<mgrwt>
<rscale>  0 0.92452013E+02</rscale>
<asrwt>0</asrwt>
<pdfrwt beam="1">  1        1 0.66614061E-02 0.92452013E+02</pdfrwt>
<pdfrwt beam="2">  1       -1 0.75924184E-02 0.92452013E+02</pdfrwt>
<totfact> 0.88233647E+04</totfact>
</mgrwt>
</event>
<event>
 5    1  0.3854342E+001  0.9136550E+02  0.7546771E-02  0.1299578E+00
         -2   -1    0    0    0  501 -0.00000000000E+00  0.00000000000E+00  0.17905531359E+01  0.17905531359E+01  0.00000000000E+00 0.  1.
          2   -1    0    0  501    0  0.00000000000E+00 -0.00000000000E+00 -0.11655133526E+04  0.11655133526E+04  0.00000000000E+00 0. -1.
         23    2    1    2    0    0  0.00000000000E+00  0.00000000000E+00 -0.11637227995E+04  0.11673039058E+04  0.91365498706E+02 0.  0.
          2    1    3    3  502    0  0.10803258960E+02  0.30823727427E+02 -0.98992071712E+03  0.99045940794E+03  0.00000000000E+00 0. -1.
         -2    1    3    3    0  502 -0.10803258960E+02 -0.30823727427E+02 -0.17380208237E+03  0.17684449783E+03  0.00000000000E+00 0.  1.
<mgrwt>
<rscale>  0 0.91365499E+02</rscale>
<asrwt>0</asrwt>
<pdfrwt beam="2">  1        2 0.17930969E+00 0.91365499E+02</pdfrwt>
<pdfrwt beam="1">  1       -2 0.27546980E-03 0.91365499E+02</pdfrwt>
<totfact> 0.24802749E+05</totfact>
</mgrwt>
</event>
<event>
 5    1  0.3854342E+001  0.8711142E+02  0.7546771E-02  0.1310002E+00
          3   -1    0    0  501    0  0.00000000000E+00  0.00000000000E+00  0.38358352506E+02  0.38358352506E+02  0.00000000000E+00 0. -1.
         -3   -1    0    0    0  501 -0.00000000000E+00 -0.00000000000E+00 -0.49457279090E+02  0.49457279090E+02  0.00000000000E+00 0.  1.
         23    2    1    2    0    0  0.00000000000E+00  0.00000000000E+00 -0.11098926584E+02  0.87815631596E+02  0.87111417055E+02 0.  0.
          2    1    3    3  502    0  0.34066461288E+02  0.26919552859E+02 -0.20699468992E+01  0.43468043330E+02  0.00000000000E+00 0. -1.
         -2    1    3    3    0  502 -0.34066461288E+02 -0.26919552859E+02 -0.90289796845E+01  0.44347588265E+02  0.00000000000E+00 0.  1.
<mgrwt>
<rscale>  0 0.87111417E+02</rscale>
<asrwt>0</asrwt>
<pdfrwt beam="1">  1        3 0.59012850E-02 0.87111417E+02</pdfrwt>
<pdfrwt beam="2">  1       -3 0.76088122E-02 0.87111417E+02</pdfrwt>
<totfact> 0.40291860E+04</totfact>
</mgrwt>
</event>
<event>
 5    1  0.3854342E+001  0.1025896E+03  0.7546771E-02  0.1274943E+00
          1   -1    0    0  501    0  0.00000000000E+00  0.00000000000E+00  0.23029652072E+04  0.23029652072E+04  0.00000000000E+00 0. -1.
         -1   -1    0    0    0  501 -0.00000000000E+00 -0.00000000000E+00 -0.11425072668E+01  0.11425072668E+01  0.00000000000E+00 0.  1.
         23    2    1    2    0    0  0.00000000000E+00  0.00000000000E+00  0.23018226999E+04  0.23041077145E+04  0.10258956057E+03 0.  0.
          2    1    3    3  502    0 -0.90552215645E+01  0.31360276481E+02  0.20396060036E+04  0.20398671805E+04  0.00000000000E+00 0. -1.
         -2    1    3    3    0  502  0.90552215645E+01 -0.31360276481E+02  0.26221669631E+03  0.26424053399E+03  0.00000000000E+00 0.  1.
<mgrwt>
<rscale>  0 0.10258956E+03</rscale>
<asrwt>0</asrwt>
<pdfrwt beam="1">  1        1 0.35429862E+00 0.10258956E+03</pdfrwt>
<pdfrwt beam="2">  1       -1 0.17577219E-03 0.10258956E+03</pdfrwt>
<totfact> 0.45527354E+04</totfact>
</mgrwt>
</event>
<event>
 5    1  0.3854342E+001  0.9440622E+02  0.7546771E-02  0.1292519E+00
         -4   -1    0    0    0  501 -0.00000000000E+00  0.00000000000E+00  0.14166316517E+02  0.14166316517E+02  0.00000000000E+00 0.  1.
          4   -1    0    0  501    0  0.00000000000E+00 -0.00000000000E+00 -0.15728390008E+03  0.15728390008E+03  0.00000000000E+00 0. -1.
         23    2    1    2    0    0  0.00000000000E+00  0.00000000000E+00 -0.14311758356E+03  0.17145021659E+03  0.94406218259E+02 0.  0.
          2    1    3    3  502    0  0.25752872914E+02 -0.45170664560E+00 -0.14339702065E+03  0.14569186674E+03  0.00000000000E+00 0. -1.
         -2    1    3    3    0  502 -0.25752872914E+02  0.45170664560E+00  0.27943709035E+00  0.25758349856E+02  0.00000000000E+00 0.  1.
<mgrwt>
<rscale>  0 0.94406218E+02</rscale>
<asrwt>0</asrwt>
<pdfrwt beam="2">  1        4 0.24197523E-01 0.94406218E+02</pdfrwt>
<pdfrwt beam="1">  1       -4 0.21794333E-02 0.94406218E+02</pdfrwt>
<totfact> 0.20612798E+04</totfact>
</mgrwt>
</event>
<event>
 5    1  0.3854342E+001  0.9008929E+02  0.7546771E-02  0.1302636E+00
          2   -1    0    0  501    0  0.00000000000E+00  0.00000000000E+00  0.50557201649E+03  0.50557201649E+03  0.00000000000E+00 0. -1.
         -2   -1    0    0    0  501 -0.00000000000E+00 -0.00000000000E+00 -0.40133158776E+01  0.40133158776E+01  0.00000000000E+00 0.  1.
         23    2    1    2    0    0  0.00000000000E+00  0.00000000000E+00  0.50155870061E+03  0.50958533237E+03  0.90089293505E+02 0.  0.
          2    1    3    3  502    0 -0.41150358842E+02 -0.11167285560E+02  0.33293618430E+03  0.33565542319E+03  0.00000000000E+00 0. -1.
         -2    1    3    3    0  502  0.41150358842E+02  0.11167285560E+02  0.16862251631E+03  0.17392990918E+03  0.00000000000E+00 0.  1.
<mgrwt>
<rscale>  0 0.90089294E+02</rscale>
<asrwt>0</asrwt>
<pdfrwt beam="1">  1        2 0.77780260E-01 0.90089294E+02</pdfrwt>
<pdfrwt beam="2">  1       -2 0.61743361E-03 0.90089294E+02</pdfrwt>
<totfact> 0.22324259E+05</totfact>
</mgrwt>
</event>
<event>
 5    1  0.3854342E+001  0.9143010E+02  0.7546771E-02  0.1299425E+00
          2   -1    0    0  501    0  0.00000000000E+00  0.00000000000E+00  0.81849402567E+01  0.81849402567E+01  0.00000000000E+00 0.  1.
         -2   -1    0    0    0  501 -0.00000000000E+00 -0.00000000000E+00 -0.25533059606E+03  0.25533059606E+03  0.00000000000E+00 0. -1.
         23    2    1    2    0    0  0.00000000000E+00  0.00000000000E+00 -0.24714565580E+03  0.26351553632E+03  0.91430097331E+02 0.  0.
          2    1    3    3  502    0 -0.17080318205E+02 -0.15421883250E+02 -0.97261790005E+01  0.24983400708E+02  0.00000000000E+00 0.  1.
         -2    1    3    3    0  502  0.17080318205E+02  0.15421883250E+02 -0.23741947680E+03  0.23853213561E+03  0.00000000000E+00 0. -1.
<mgrwt>
<rscale>  0 0.91430097E+02</rscale>
<asrwt>0</asrwt>
<pdfrwt beam="1">  1        2 0.12592217E-02 0.91430097E+02</pdfrwt>
<pdfrwt beam="2">  1       -2 0.39281628E-01 0.91430097E+02</pdfrwt>
<totfact> 0.55189805E+04</totfact>
</mgrwt>
</event>
<event>
 5    1  0.3854342E+001  0.9123249E+02  0.7546771E-02  0.1299894E+00
         -2   -1    0    0    0  501 -0.00000000000E+00  0.00000000000E+00  0.17594852687E+01  0.17594852687E+01  0.00000000000E+00 0.  1.
          2   -1    0    0  501    0  0.00000000000E+00 -0.00000000000E+00 -0.11826423089E+04  0.11826423089E+04  0.00000000000E+00 0. -1.
         23    2    1    2    0    0  0.00000000000E+00  0.00000000000E+00 -0.11808828236E+04  0.11844017942E+04  0.91232488087E+02 0.  0.
          2    1    3    3  502    0  0.23670097136E+02 -0.82610258194E+00 -0.10965631757E+04  0.10968189250E+04  0.00000000000E+00 0. -1.
         -2    1    3    3    0  502 -0.23670097136E+02  0.82610258194E+00 -0.84319647917E+02  0.87582869152E+02  0.00000000000E+00 0.  1.
<mgrwt>
<rscale>  0 0.91232488E+02</rscale>
<asrwt>0</asrwt>
<pdfrwt beam="2">  1        2 0.18194554E+00 0.91232488E+02</pdfrwt>
<pdfrwt beam="1">  1       -2 0.27068919E-03 0.91232488E+02</pdfrwt>
<totfact> 0.24865772E+05</totfact>
</mgrwt>
</event>
<event>
 5    1  0.3854342E+001  0.1156657E+03  0.7546771E-02  0.1250424E+00
         -4   -1    0    0    0  501 -0.00000000000E+00  0.00000000000E+00  0.33664470026E+02  0.33664470026E+02  0.00000000000E+00 0.  1.
          4   -1    0    0  501    0  0.00000000000E+00 -0.00000000000E+00 -0.99352194521E+02  0.99352194521E+02  0.00000000000E+00 0. -1.
         23    2    1    2    0    0  0.00000000000E+00  0.00000000000E+00 -0.65687724495E+02  0.13301666455E+03  0.11566570753E+03 0.  0.
          2    1    3    3  502    0  0.53170432008E+02 -0.20640760959E+02 -0.43844538654E+02  0.71940804990E+02  0.00000000000E+00 0. -1.
         -2    1    3    3    0  502 -0.53170432008E+02  0.20640760959E+02 -0.21843185841E+02  0.61075859556E+02  0.00000000000E+00 0.  1.
<mgrwt>
<rscale>  0 0.11566571E+03</rscale>
<asrwt>0</asrwt>
<pdfrwt beam="2">  1        4 0.15284953E-01 0.11566571E+03</pdfrwt>
<pdfrwt beam="1">  1       -4 0.51791492E-02 0.11566571E+03</pdfrwt>
<totfact> 0.12781285E+04</totfact>
</mgrwt>
</event>
<event>
 5    1  0.3854342E+001  0.9308825E+02  0.7546771E-02  0.1295541E+00
          1   -1    0    0  501    0  0.00000000000E+00  0.00000000000E+00  0.16557475222E+04  0.16557475222E+04  0.00000000000E+00 0. -1.
         -1   -1    0    0    0  501 -0.00000000000E+00 -0.00000000000E+00 -0.13083853359E+01  0.13083853359E+01  0.00000000000E+00 0.  1.
         23    2    1    2    0    0  0.00000000000E+00  0.00000000000E+00  0.16544391368E+04  0.16570559075E+04  0.93088254424E+02 0.  0.
          2    1    3    3  502    0 -0.40520943826E+02 -0.23937666244E+01  0.12326268186E+04  0.12332949975E+04  0.00000000000E+00 0. -1.
         -2    1    3    3    0  502  0.40520943826E+02  0.23937666244E+01  0.42181231823E+03  0.42376090996E+03  0.00000000000E+00 0.  1.
<mgrwt>
<rscale>  0 0.93088254E+02</rscale>
<asrwt>0</asrwt>
<pdfrwt beam="1">  1        1 0.25472871E+00 0.93088254E+02</pdfrwt>
<pdfrwt beam="2">  1       -1 0.20129138E-03 0.93088254E+02</pdfrwt>
<totfact> 0.95548218E+04</totfact>
</mgrwt>
</event>
<event>
 5    1  0.3854342E+001  0.8908252E+02  0.7546771E-02  0.1305089E+00
         -2   -1    0    0    0  501 -0.00000000000E+00  0.00000000000E+00  0.44499431819E+01  0.44499431819E+01  0.00000000000E+00 0. -1.
          2   -1    0    0  501    0  0.00000000000E+00 -0.00000000000E+00 -0.44583129544E+03  0.44583129544E+03  0.00000000000E+00 0.  1.
         23    2    1    2    0    0  0.00000000000E+00  0.00000000000E+00 -0.44138135226E+03  0.45028123862E+03  0.89082522044E+02 0.  0.
          2    1    3    3  502    0  0.36339384530E+02  0.41556472405E+01 -0.34917272369E+03  0.35108319704E+03  0.00000000000E+00 0.  1.
         -2    1    3    3    0  502 -0.36339384530E+02 -0.41556472405E+01 -0.92208628565E+02  0.99198041582E+02  0.00000000000E+00 0. -1.
<mgrwt>
<rscale>  0 0.89082522E+02</rscale>
<asrwt>0</asrwt>
<pdfrwt beam="2">  1        2 0.68589428E-01 0.89082522E+02</pdfrwt>
<pdfrwt beam="1">  1       -2 0.68460667E-03 0.89082522E+02</pdfrwt>
<totfact> 0.22052930E+05</totfact>
</mgrwt>
</event>
<event>
 5    1  0.3854342E+001  0.9115870E+02  0.7546771E-02  0.1300070E+00
         -2   -1    0    0    0  501 -0.00000000000E+00  0.00000000000E+00  0.15872195389E+03  0.15872195389E+03  0.00000000000E+00 0.  1.
          2   -1    0    0  501    0  0.00000000000E+00 -0.00000000000E+00 -0.13088781935E+02  0.13088781935E+02  0.00000000000E+00 0. -1.
         23    2    1    2    0    0  0.00000000000E+00  0.00000000000E+00  0.14563317195E+03  0.17181073582E+03  0.91158697726E+02 0.  0.
          2    1    3    3  502    0 -0.19474033788E+02  0.67841729216E+01 -0.37933925835E+01  0.20967899787E+02  0.00000000000E+00 0. -1.
         -2    1    3    3    0  502  0.19474033788E+02 -0.67841729216E+01  0.14942656454E+03  0.15084283604E+03  0.00000000000E+00 0.  1.
<mgrwt>
<rscale>  0 0.91158698E+02</rscale>
<asrwt>0</asrwt>
<pdfrwt beam="2">  1        2 0.20136589E-02 0.91158698E+02</pdfrwt>
<pdfrwt beam="1">  1       -2 0.24418761E-01 0.91158698E+02</pdfrwt>
<totfact> 0.68445941E+04</totfact>
</mgrwt>
</event>
<event>
 5    1  0.3854342E+001  0.8735008E+02  0.7546771E-02  0.1309399E+00
          2   -1    0    0  501    0  0.00000000000E+00  0.00000000000E+00  0.60332224270E+03  0.60332224270E+03  0.00000000000E+00 0. -1.
         -2   -1    0    0    0  501 -0.00000000000E+00 -0.00000000000E+00 -0.31616751643E+01  0.31616751643E+01  0.00000000000E+00 0.  1.
         23    2    1    2    0    0  0.00000000000E+00  0.00000000000E+00  0.60016056754E+03  0.60648391787E+03  0.87350076149E+02 0.  0.
          2    1    3    3  502    0  0.71708447088E+01 -0.28303594996E+02  0.52559821980E+03  0.52640858956E+03  0.00000000000E+00 0. -1.
         -2    1    3    3    0  502 -0.71708447088E+01  0.28303594996E+02  0.74562347742E+02  0.80075328312E+02  0.00000000000E+00 0.  1.
<mgrwt>
<rscale>  0 0.87350076E+02</rscale>
<asrwt>0</asrwt>
<pdfrwt beam="1">  1        2 0.92818715E-01 0.87350076E+02</pdfrwt>
<pdfrwt beam="2">  1       -2 0.48641204E-03 0.87350076E+02</pdfrwt>
<totfact> 0.25549763E+05</totfact>
</mgrwt>
</event>
<event>
 5    1  0.3854342E+001  0.9121468E+02  0.7546771E-02  0.1299937E+00
         -2   -1    0    0    0  501 -0.00000000000E+00  0.00000000000E+00  0.12562522059E+02  0.12562522059E+02  0.00000000000E+00 0.  1.
          2   -1    0    0  501    0  0.00000000000E+00 -0.00000000000E+00 -0.16557418737E+03  0.16557418737E+03  0.00000000000E+00 0. -1.
         23    2    1    2    0    0  0.00000000000E+00  0.00000000000E+00 -0.15301166531E+03  0.17813670943E+03  0.91214678229E+02 0.  0.
          2    1    3    3  502    0 -0.37071176227E+01 -0.44766667673E+02 -0.91912049710E+02  0.10230162334E+03  0.00000000000E+00 0.  1.
         -2    1    3    3    0  502  0.37071176227E+01  0.44766667673E+02 -0.61099615598E+02  0.75835086087E+02  0.00000000000E+00 0. -1.
<mgrwt>
<rscale>  0 0.91214678E+02</rscale>
<asrwt>0</asrwt>
<pdfrwt beam="2">  1        2 0.25472953E-01 0.91214678E+02</pdfrwt>
<pdfrwt beam="1">  1       -2 0.19326956E-02 0.91214678E+02</pdfrwt>
<totfact> 0.14447955E+05</totfact>
</mgrwt>
</event>
<event>
 5    1  0.3854342E+001  0.8934723E+02  0.7546771E-02  0.1304440E+00
         -2   -1    0    0    0  501 -0.00000000000E+00  0.00000000000E+00  0.10013279643E+02  0.10013279643E+02  0.00000000000E+00 0.  1.
          2   -1    0    0  501    0  0.00000000000E+00 -0.00000000000E+00 -0.19930850171E+03  0.19930850171E+03  0.00000000000E+00 0. -1.
         23    2    1    2    0    0  0.00000000000E+00  0.00000000000E+00 -0.18929522207E+03  0.20932178135E+03  0.89347227443E+02 0.  0.
          2    1    3    3  502    0  0.25006201501E+02 -0.36665275632E+02 -0.82683496110E+02  0.93841425179E+02  0.00000000000E+00 0. -1.
         -2    1    3    3    0  502 -0.25006201501E+02  0.36665275632E+02 -0.10661172596E+03  0.11548035617E+03  0.00000000000E+00 0.  1.
<mgrwt>
<rscale>  0 0.89347227E+02</rscale>
<asrwt>0</asrwt>
<pdfrwt beam="2">  1        2 0.30662846E-01 0.89347227E+02</pdfrwt>
<pdfrwt beam="1">  1       -2 0.15405046E-02 0.89347227E+02</pdfrwt>
<totfact> 0.16313583E+05</totfact>
</mgrwt>
</event>
<event>
 5    1  0.3854342E+001  0.5607873E+02  0.7546771E-02  0.1415065E+00
         -1   -1    0    0    0  501 -0.00000000000E+00  0.00000000000E+00  0.11829440391E+03  0.11829440391E+03  0.00000000000E+00 0.  1.
          1   -1    0    0  501    0  0.00000000000E+00 -0.00000000000E+00 -0.66461796788E+01  0.66461796788E+01  0.00000000000E+00 0. -1.
         23    2    1    2    0    0  0.00000000000E+00  0.00000000000E+00  0.11164822423E+03  0.12494058358E+03  0.56078725497E+02 0.  0.
          2    1    3    3  502    0  0.17724173496E+01 -0.27039213309E+02  0.71881640838E+02  0.76819468946E+02  0.00000000000E+00 0.  1.
         -2    1    3    3    0  502 -0.17724173496E+01  0.27039213309E+02  0.39766583389E+02  0.48121114638E+02  0.00000000000E+00 0. -1.
<mgrwt>
<rscale>  0 0.56078725E+02</rscale>
<asrwt>0</asrwt>
<pdfrwt beam="2">  1        1 0.10224893E-02 0.56078725E+02</pdfrwt>
<pdfrwt beam="1">  1       -1 0.18199138E-01 0.56078725E+02</pdfrwt>
<totfact> 0.27160492E+05</totfact>
</mgrwt>
</event>
<event>
 5    1  0.3854342E+001  0.9547774E+02  0.7546771E-02  0.1290104E+00
         -2   -1    0    0    0  501 -0.00000000000E+00  0.00000000000E+00  0.95096846782E+02  0.95096846782E+02  0.00000000000E+00 0.  1.
          2   -1    0    0  501    0  0.00000000000E+00 -0.00000000000E+00 -0.23965041397E+02  0.23965041397E+02  0.00000000000E+00 0. -1.
         23    2    1    2    0    0  0.00000000000E+00  0.00000000000E+00  0.71131805385E+02  0.11906188818E+03  0.95477743373E+02 0.  0.
          2    1    3    3  502    0 -0.50272451720E+01 -0.45766754779E+02  0.19835212145E+02  0.50132870233E+02  0.00000000000E+00 0. -1.
         -2    1    3    3    0  502  0.50272451720E+01  0.45766754779E+02  0.51296593241E+02  0.68929017947E+02  0.00000000000E+00 0.  1.
<mgrwt>
<rscale>  0 0.95477743E+02</rscale>
<asrwt>0</asrwt>
<pdfrwt beam="2">  1        2 0.36869295E-02 0.95477743E+02</pdfrwt>
<pdfrwt beam="1">  1       -2 0.14630284E-01 0.95477743E+02</pdfrwt>
<totfact> 0.72243629E+04</totfact>
</mgrwt>
</event>
<event>
 5    1  0.3854342E+001  0.9316737E+02  0.7546771E-02  0.1295358E+00
          2   -1    0    0  501    0  0.00000000000E+00  0.00000000000E+00  0.91979663477E+03  0.91979663477E+03  0.00000000000E+00 0. -1.
         -2   -1    0    0    0  501 -0.00000000000E+00 -0.00000000000E+00 -0.23592603919E+01  0.23592603919E+01  0.00000000000E+00 0.  1.
         23    2    1    2    0    0  0.00000000000E+00  0.00000000000E+00  0.91743737438E+03  0.92215589516E+03  0.93167371307E+02 0.  0.
          2    1    3    3  502    0  0.25714753200E+02  0.11945046522E+02  0.82455168773E+03  0.82503904054E+03  0.00000000000E+00 0. -1.
         -2    1    3    3    0  502 -0.25714753200E+02 -0.11945046522E+02  0.92885686646E+02  0.97116854625E+02  0.00000000000E+00 0.  1.
<mgrwt>
<rscale>  0 0.93167371E+02</rscale>
<asrwt>0</asrwt>
<pdfrwt beam="1">  1        2 0.14150689E+00 0.93167371E+02</pdfrwt>
<pdfrwt beam="2">  1       -2 0.36296387E-03 0.93167371E+02</pdfrwt>
<totfact> 0.23475740E+05</totfact>
</mgrwt>
</event>
<event>
 5    1  0.3854342E+001  0.8953445E+02  0.7546771E-02  0.1303983E+00
         -1   -1    0    0    0  501 -0.00000000000E+00  0.00000000000E+00  0.21263802333E+03  0.21263802333E+03  0.00000000000E+00 0.  1.
          1   -1    0    0  501    0  0.00000000000E+00 -0.00000000000E+00 -0.94249579810E+01  0.94249579810E+01  0.00000000000E+00 0. -1.
         23    2    1    2    0    0  0.00000000000E+00  0.00000000000E+00  0.20321306535E+03  0.22206298131E+03  0.89534450018E+02 0.  0.
          2    1    3    3  502    0 -0.16935238645E+02 -0.37471980634E+02  0.57716678114E+02  0.70867246123E+02  0.00000000000E+00 0. -1.
         -2    1    3    3    0  502  0.16935238645E+02  0.37471980634E+02  0.14549638723E+03  0.15119573518E+03  0.00000000000E+00 0.  1.
<mgrwt>
<rscale>  0 0.89534450E+02</rscale>
<asrwt>0</asrwt>
<pdfrwt beam="2">  1        1 0.14499937E-02 0.89534450E+02</pdfrwt>
<pdfrwt beam="1">  1       -1 0.32713538E-01 0.89534450E+02</pdfrwt>
<totfact> 0.71496518E+04</totfact>
</mgrwt>
</event>
<event>
 5    1  0.3854342E+001  0.8999532E+02  0.7546771E-02  0.1302863E+00
         -2   -1    0    0    0  501 -0.00000000000E+00  0.00000000000E+00  0.12633491481E+03  0.12633491481E+03  0.00000000000E+00 0.  1.
          2   -1    0    0  501    0  0.00000000000E+00 -0.00000000000E+00 -0.16027155090E+02  0.16027155090E+02  0.00000000000E+00 0. -1.
         23    2    1    2    0    0  0.00000000000E+00  0.00000000000E+00  0.11030775972E+03  0.14236206990E+03  0.89995317056E+02 0.  0.
          2    1    3    3  502    0  0.42684240345E+02  0.13681483399E+02  0.48893556573E+02  0.66330288980E+02  0.00000000000E+00 0. -1.
         -2    1    3    3    0  502 -0.42684240345E+02 -0.13681483399E+02  0.61414203150E+02  0.76031780923E+02  0.00000000000E+00 0.  1.
<mgrwt>
<rscale>  0 0.89995317E+02</rscale>
<asrwt>0</asrwt>
<pdfrwt beam="2">  1        2 0.24657163E-02 0.89995317E+02</pdfrwt>
<pdfrwt beam="1">  1       -2 0.19436140E-01 0.89995317E+02</pdfrwt>
<totfact> 0.76625690E+04</totfact>
</mgrwt>
</event>
<event>
 5    1  0.3854342E+001  0.8863723E+02  0.7546771E-02  0.1306186E+00
         -1   -1    0    0    0  501 -0.00000000000E+00  0.00000000000E+00  0.42462175131E+01  0.42462175131E+01  0.00000000000E+00 0.  1.
          1   -1    0    0  501    0  0.00000000000E+00 -0.00000000000E+00 -0.46256220768E+03  0.46256220768E+03  0.00000000000E+00 0. -1.
         23    2    1    2    0    0  0.00000000000E+00  0.00000000000E+00 -0.45831599016E+03  0.46680842519E+03  0.88637232518E+02 0.  0.
          2    1    3    3  502    0 -0.27263528179E+01 -0.26607868106E+02 -0.41526230922E+03  0.41612281493E+03  0.00000000000E+00 0. -1.
         -2    1    3    3    0  502  0.27263528179E+01  0.26607868106E+02 -0.43053680943E+02  0.50685610262E+02  0.00000000000E+00 0.  1.
<mgrwt>
<rscale>  0 0.88637233E+02</rscale>
<asrwt>0</asrwt>
<pdfrwt beam="2">  1        1 0.71163403E-01 0.88637233E+02</pdfrwt>
<pdfrwt beam="1">  1       -1 0.65326436E-03 0.88637233E+02</pdfrwt>
<totfact> 0.14859346E+05</totfact>
</mgrwt>
</event>
<event>
 5    1  0.3854342E+001  0.8598749E+02  0.7546771E-02  0.1312870E+00
         -2   -1    0    0    0  501 -0.00000000000E+00  0.00000000000E+00  0.46044573732E+01  0.46044573732E+01  0.00000000000E+00 0.  1.
          2   -1    0    0  501    0  0.00000000000E+00 -0.00000000000E+00 -0.40145062335E+03  0.40145062335E+03  0.00000000000E+00 0. -1.
         23    2    1    2    0    0  0.00000000000E+00  0.00000000000E+00 -0.39684616598E+03  0.40605508072E+03  0.85987494037E+02 0.  0.
          2    1    3    3  502    0 -0.41201996777E+02  0.29942173817E+01 -0.25467395171E+03  0.25800269680E+03  0.00000000000E+00 0. -1.
         -2    1    3    3    0  502  0.41201996777E+02 -0.29942173817E+01 -0.14217221427E+03  0.14805238393E+03  0.00000000000E+00 0.  1.
<mgrwt>
<rscale>  0 0.85987494E+02</rscale>
<asrwt>0</asrwt>
<pdfrwt beam="2">  1        2 0.61761658E-01 0.85987494E+02</pdfrwt>
<pdfrwt beam="1">  1       -2 0.70837778E-03 0.85987494E+02</pdfrwt>
<totfact> 0.23339939E+05</totfact>
</mgrwt>
</event>
<event>
 5    1  0.3854342E+001  0.9091904E+02  0.7546771E-02  0.1300641E+00
         -1   -1    0    0    0  501 -0.00000000000E+00  0.00000000000E+00  0.25429091552E+03  0.25429091552E+03  0.00000000000E+00 0.  1.
          1   -1    0    0  501    0  0.00000000000E+00 -0.00000000000E+00 -0.81267870466E+01  0.81267870466E+01  0.00000000000E+00 0. -1.
         23    2    1    2    0    0  0.00000000000E+00  0.00000000000E+00  0.24616412847E+03  0.26241770257E+03  0.90919043513E+02 0.  0.
          2    1    3    3  502    0  0.33969321140E+02  0.26925698248E+02  0.83543193799E+02  0.94118931331E+02  0.00000000000E+00 0. -1.
         -2    1    3    3    0  502 -0.33969321140E+02 -0.26925698248E+02  0.16262093467E+03  0.16829877123E+03  0.00000000000E+00 0.  1.
<mgrwt>
<rscale>  0 0.90919044E+02</rscale>
<asrwt>0</asrwt>
<pdfrwt beam="2">  1        1 0.12502751E-02 0.90919044E+02</pdfrwt>
<pdfrwt beam="1">  1       -1 0.39121673E-01 0.90919044E+02</pdfrwt>
<totfact> 0.64868010E+04</totfact>
</mgrwt>
</event>
<event>
 5    1  0.3854342E+001  0.9202531E+02  0.7546771E-02  0.1298020E+00
         -2   -1    0    0    0  501 -0.00000000000E+00  0.00000000000E+00  0.34577913731E+01  0.34577913731E+01  0.00000000000E+00 0.  1.
          2   -1    0    0  501    0  0.00000000000E+00 -0.00000000000E+00 -0.61228810487E+03  0.61228810487E+03  0.00000000000E+00 0. -1.
         23    2    1    2    0    0  0.00000000000E+00  0.00000000000E+00 -0.60883031350E+03  0.61574589624E+03  0.92025312319E+02 0.  0.
          2    1    3    3  502    0 -0.33316942466E+02  0.24114812651E+01 -0.51614543903E+03  0.51722523926E+03  0.00000000000E+00 0. -1.
         -2    1    3    3    0  502  0.33316942466E+02 -0.24114812651E+01 -0.92684874464E+02  0.98520656980E+02  0.00000000000E+00 0.  1.
<mgrwt>
<rscale>  0 0.92025312E+02</rscale>
<asrwt>0</asrwt>
<pdfrwt beam="2">  1        2 0.94198085E-01 0.92025312E+02</pdfrwt>
<pdfrwt beam="1">  1       -2 0.53196839E-03 0.92025312E+02</pdfrwt>
<totfact> 0.22360748E+05</totfact>
</mgrwt>
</event>
<event>
 5    1  0.3854342E+001  0.8601752E+02  0.7546771E-02  0.1312793E+00
         -1   -1    0    0    0  501 -0.00000000000E+00  0.00000000000E+00  0.15269090869E+01  0.15269090869E+01  0.00000000000E+00 0.  1.
          1   -1    0    0  501    0  0.00000000000E+00 -0.00000000000E+00 -0.12114365466E+04  0.12114365466E+04  0.00000000000E+00 0. -1.
         23    2    1    2    0    0  0.00000000000E+00  0.00000000000E+00 -0.12099096375E+04  0.12129634557E+04  0.86017520801E+02 0.  0.
          2    1    3    3  502    0  0.10354330022E+02  0.18482304002E+02 -0.11327573346E+04  0.11329554213E+04  0.00000000000E+00 0. -1.
         -2    1    3    3    0  502 -0.10354330022E+02 -0.18482304002E+02 -0.77152302957E+02  0.80008034365E+02  0.00000000000E+00 0.  1.
<mgrwt>
<rscale>  0 0.86017521E+02</rscale>
<asrwt>0</asrwt>
<pdfrwt beam="2">  1        1 0.18637450E+00 0.86017521E+02</pdfrwt>
<pdfrwt beam="1">  1       -1 0.23490953E-03 0.86017521E+02</pdfrwt>
<totfact> 0.14777742E+05</totfact>
</mgrwt>
</event>
<event>
 5    1  0.3854342E+001  0.9170091E+02  0.7546771E-02  0.1298784E+00
         -2   -1    0    0    0  501 -0.00000000000E+00  0.00000000000E+00  0.19559310439E+02  0.19559310439E+02  0.00000000000E+00 0. -1.
          2   -1    0    0  501    0  0.00000000000E+00 -0.00000000000E+00 -0.10748151971E+03  0.10748151971E+03  0.00000000000E+00 0.  1.
         23    2    1    2    0    0  0.00000000000E+00  0.00000000000E+00 -0.87922209268E+02  0.12704083015E+03  0.91700914072E+02 0.  0.
          2    1    3    3  502    0  0.43869677701E+02 -0.56955416021E+01 -0.27262988241E+02  0.51964010079E+02  0.00000000000E+00 0. -1.
         -2    1    3    3    0  502 -0.43869677701E+02  0.56955416021E+01 -0.60659221027E+02  0.75076820066E+02  0.00000000000E+00 0.  1.
<mgrwt>
<rscale>  0 0.91700914E+02</rscale>
<asrwt>0</asrwt>
<pdfrwt beam="2">  1        2 0.16535619E-01 0.91700914E+02</pdfrwt>
<pdfrwt beam="1">  1       -2 0.30091247E-02 0.91700914E+02</pdfrwt>
<totfact> 0.12346847E+05</totfact>
</mgrwt>
</event>
<event>
 5    1  0.3854342E+001  0.9219722E+02  0.7546771E-02  0.1297616E+00
          2   -1    0    0  501    0  0.00000000000E+00  0.00000000000E+00  0.75068613352E+02  0.75068613352E+02  0.00000000000E+00 0. -1.
         -2   -1    0    0    0  501 -0.00000000000E+00 -0.00000000000E+00 -0.28308528153E+02  0.28308528153E+02  0.00000000000E+00 0.  1.
         23    2    1    2    0    0  0.00000000000E+00  0.00000000000E+00  0.46760085199E+02  0.10337714150E+03  0.92197222398E+02 0.  0.
          2    1    3    3  502    0  0.31844381214E+02 -0.33329660110E+02  0.22944195757E+02  0.51491426246E+02  0.00000000000E+00 0. -1.
         -2    1    3    3    0  502 -0.31844381214E+02  0.33329660110E+02  0.23815889442E+02  0.51885715258E+02  0.00000000000E+00 0.  1.
<mgrwt>
<rscale>  0 0.92197222E+02</rscale>
<asrwt>0</asrwt>
<pdfrwt beam="1">  1        2 0.11549017E-01 0.92197222E+02</pdfrwt>
<pdfrwt beam="2">  1       -2 0.43551582E-02 0.92197222E+02</pdfrwt>
<totfact> 0.10934822E+05</totfact>
</mgrwt>
</event>
<event>
 5    1  0.3854342E+001  0.9224018E+02  0.7546771E-02  0.1297516E+00
         -1   -1    0    0    0  501 -0.00000000000E+00  0.00000000000E+00  0.50065854337E+02  0.50065854337E+02  0.00000000000E+00 0. -1.
          1   -1    0    0  501    0  0.00000000000E+00 -0.00000000000E+00 -0.42485298257E+02  0.42485298257E+02  0.00000000000E+00 0.  1.
         23    2    1    2    0    0  0.00000000000E+00  0.00000000000E+00  0.75805560796E+01  0.92551152594E+02  0.92240181136E+02 0.  0.
          2    1    3    3  502    0 -0.37338873883E+02 -0.74353105630E+01  0.29908544475E+02  0.48414836348E+02  0.00000000000E+00 0. -1.
         -2    1    3    3    0  502  0.37338873883E+02  0.74353105630E+01 -0.22327988395E+02  0.44136316246E+02  0.00000000000E+00 0.  1.
<mgrwt>
<rscale>  0 0.92240181E+02</rscale>
<asrwt>0</asrwt>
<pdfrwt beam="2">  1        1 0.65361998E-02 0.92240181E+02</pdfrwt>
<pdfrwt beam="1">  1       -1 0.77024391E-02 0.92240181E+02</pdfrwt>
<totfact> 0.88550125E+04</totfact>
</mgrwt>
</event>
<event>
 5    1  0.3854342E+001  0.9166658E+02  0.7546771E-02  0.1298865E+00
          1   -1    0    0  501    0  0.00000000000E+00  0.00000000000E+00  0.24166900707E+03  0.24166900707E+03  0.00000000000E+00 0. -1.
         -1   -1    0    0    0  501 -0.00000000000E+00 -0.00000000000E+00 -0.86924280538E+01  0.86924280538E+01  0.00000000000E+00 0.  1.
         23    2    1    2    0    0  0.00000000000E+00  0.00000000000E+00  0.23297657902E+03  0.25036143513E+03  0.91666579664E+02 0.  0.
          2    1    3    3  502    0 -0.15632010133E+02  0.24252215986E+02  0.21375037036E+03  0.21568901352E+03  0.00000000000E+00 0. -1.
         -2    1    3    3    0  502  0.15632010133E+02 -0.24252215986E+02  0.19226208655E+02  0.34672421610E+02  0.00000000000E+00 0.  1.
<mgrwt>
<rscale>  0 0.91666580E+02</rscale>
<asrwt>0</asrwt>
<pdfrwt beam="1">  1        1 0.37179842E-01 0.91666580E+02</pdfrwt>
<pdfrwt beam="2">  1       -1 0.13372968E-02 0.91666580E+02</pdfrwt>
<totfact> 0.12110745E+05</totfact>
</mgrwt>
</event>
<event>
 5    1  0.3854342E+001  0.9143670E+02  0.7546771E-02  0.1299409E+00
         -2   -1    0    0    0  501 -0.00000000000E+00  0.00000000000E+00  0.23536269586E+03  0.23536269586E+03  0.00000000000E+00 0.  1.
          2   -1    0    0  501    0  0.00000000000E+00 -0.00000000000E+00 -0.88806227126E+01  0.88806227126E+01  0.00000000000E+00 0. -1.
         23    2    1    2    0    0  0.00000000000E+00  0.00000000000E+00  0.22648207314E+03  0.24424331857E+03  0.91436695096E+02 0.  0.
          2    1    3    3  502    0  0.26888639305E+02  0.26611789023E+02  0.44670327686E+02  0.58537376216E+02  0.00000000000E+00 0. -1.
         -2    1    3    3    0  502 -0.26888639305E+02 -0.26611789023E+02  0.18181174546E+03  0.18570594235E+03  0.00000000000E+00 0.  1.
<mgrwt>
<rscale>  0 0.91436695E+02</rscale>
<asrwt>0</asrwt>
<pdfrwt beam="2">  1        2 0.13662498E-02 0.91436695E+02</pdfrwt>
<pdfrwt beam="1">  1       -2 0.36209641E-01 0.91436695E+02</pdfrwt>
<totfact> 0.57439808E+04</totfact>
</mgrwt>
</event>
<event>
 5    1  0.3854342E+001  0.9040199E+02  0.7546771E-02  0.1301881E+00
         -1   -1    0    0    0  501 -0.00000000000E+00  0.00000000000E+00  0.91740653974E+00  0.91740653974E+00  0.00000000000E+00 0.  1.
          1   -1    0    0  501    0  0.00000000000E+00 -0.00000000000E+00 -0.22270717311E+04  0.22270717311E+04  0.00000000000E+00 0. -1.
         23    2    1    2    0    0  0.00000000000E+00  0.00000000000E+00 -0.22261543245E+04  0.22279891376E+04  0.90401994901E+02 0.  0.
          2    1    3    3  502    0  0.32789603169E+02 -0.16783003182E+02 -0.17587209424E+04  0.17591066428E+04  0.00000000000E+00 0. -1.
         -2    1    3    3    0  502 -0.32789603169E+02  0.16783003182E+02 -0.46743338208E+03  0.46888249483E+03  0.00000000000E+00 0.  1.
<mgrwt>
<rscale>  0 0.90401995E+02</rscale>
<asrwt>0</asrwt>
<pdfrwt beam="2">  1        1 0.34261918E+00 0.90401995E+02</pdfrwt>
<pdfrwt beam="1">  1       -1 0.14114245E-03 0.90401995E+02</pdfrwt>
<totfact> 0.68107744E+04</totfact>
</mgrwt>
</event>
<event>
 5    1  0.3854342E+001  0.9322673E+02  0.7546771E-02  0.1295221E+00
          4   -1    0    0  501    0  0.00000000000E+00  0.00000000000E+00  0.25520334296E+02  0.25520334296E+02  0.00000000000E+00 0. -1.
         -4   -1    0    0    0  501 -0.00000000000E+00 -0.00000000000E+00 -0.85140185968E+02  0.85140185968E+02  0.00000000000E+00 0.  1.
         23    2    1    2    0    0  0.00000000000E+00  0.00000000000E+00 -0.59619851672E+02  0.11066052026E+03  0.93226734533E+02 0.  0.
          2    1    3    3  502    0 -0.37394348554E+02  0.22100494606E+02 -0.97345713428E+01  0.44514391435E+02  0.00000000000E+00 0. -1.
         -2    1    3    3    0  502  0.37394348554E+02 -0.22100494606E+02 -0.49885280329E+02  0.66146128830E+02  0.00000000000E+00 0.  1.
<mgrwt>
<rscale>  0 0.93226735E+02</rscale>
<asrwt>0</asrwt>
<pdfrwt beam="1">  1        4 0.39262053E-02 0.93226735E+02</pdfrwt>
<pdfrwt beam="2">  1       -4 0.13098490E-01 0.93226735E+02</pdfrwt>
<totfact> 0.24301909E+04</totfact>
</mgrwt>
</event>
<event>
 5    1  0.3854342E+001  0.9644448E+02  0.7546771E-02  0.1287956E+00
         -1   -1    0    0    0  501 -0.00000000000E+00  0.00000000000E+00  0.15676979857E+02  0.15676979857E+02  0.00000000000E+00 0.  1.
          1   -1    0    0  501    0  0.00000000000E+00 -0.00000000000E+00 -0.14833114828E+03  0.14833114828E+03  0.00000000000E+00 0. -1.
         23    2    1    2    0    0  0.00000000000E+00  0.00000000000E+00 -0.13265416842E+03  0.16400812813E+03  0.96444479858E+02 0.  0.
          2    1    3    3  502    0  0.23155600302E+01  0.21386362332E+02 -0.13971983606E+03  0.14136608823E+03  0.00000000000E+00 0. -1.
         -2    1    3    3    0  502 -0.23155600302E+01 -0.21386362332E+02  0.70656676386E+01  0.22642039909E+02  0.00000000000E+00 0.  1.
<mgrwt>
<rscale>  0 0.96444480E+02</rscale>
<asrwt>0</asrwt>
<pdfrwt beam="2">  1        1 0.22820176E-01 0.96444480E+02</pdfrwt>
<pdfrwt beam="1">  1       -1 0.24118431E-02 0.96444480E+02</pdfrwt>
<totfact> 0.96106190E+04</totfact>
</mgrwt>
</event>
<event>
 5    1  0.3854342E+001  0.8826813E+02  0.7546771E-02  0.1307101E+00
         -1   -1    0    0    0  501 -0.00000000000E+00  0.00000000000E+00  0.35701749352E+03  0.35701749352E+03  0.00000000000E+00 0.  1.
          1   -1    0    0  501    0  0.00000000000E+00 -0.00000000000E+00 -0.54557991789E+01  0.54557991789E+01  0.00000000000E+00 0. -1.
         23    2    1    2    0    0  0.00000000000E+00  0.00000000000E+00  0.35156169434E+03  0.36247329269E+03  0.88268131236E+02 0.  0.
          2    1    3    3  502    0 -0.42489456334E+02  0.13312006403E+01  0.12707250874E+03  0.13399458374E+03  0.00000000000E+00 0. -1.
         -2    1    3    3    0  502  0.42489456334E+02 -0.13312006403E+01  0.22448918560E+03  0.22847870895E+03  0.00000000000E+00 0.  1.
<mgrwt>
<rscale>  0 0.88268131E+02</rscale>
<asrwt>0</asrwt>
<pdfrwt beam="2">  1        1 0.83935400E-03 0.88268131E+02</pdfrwt>
<pdfrwt beam="1">  1       -1 0.54925750E-01 0.88268131E+02</pdfrwt>
<totfact> 0.61257196E+04</totfact>
</mgrwt>
</event>
<event>
 5    1  0.3854342E+001  0.8742663E+02  0.7546771E-02  0.1309206E+00
         -2   -1    0    0    0  501 -0.00000000000E+00  0.00000000000E+00  0.15212040533E+01  0.15212040533E+01  0.00000000000E+00 0.  1.
          2   -1    0    0  501    0  0.00000000000E+00 -0.00000000000E+00 -0.12561457785E+04  0.12561457785E+04  0.00000000000E+00 0. -1.
         23    2    1    2    0    0  0.00000000000E+00  0.00000000000E+00 -0.12546245744E+04  0.12576669825E+04  0.87426633236E+02 0.  0.
          2    1    3    3  502    0 -0.32216720413E+02 -0.17930588736E+02 -0.28950619354E+03  0.29184458053E+03  0.00000000000E+00 0. -1.
         -2    1    3    3    0  502  0.32216720413E+02  0.17930588736E+02 -0.96511838087E+03  0.96582240198E+03  0.00000000000E+00 0.  1.
<mgrwt>
<rscale>  0 0.87426633E+02</rscale>
<asrwt>0</asrwt>
<pdfrwt beam="2">  1        2 0.19325325E+00 0.87426633E+02</pdfrwt>
<pdfrwt beam="1">  1       -2 0.23403132E-03 0.87426633E+02</pdfrwt>
<totfact> 0.27602202E+05</totfact>
</mgrwt>
</event>
<event>
 5    1  0.3854342E+001  0.9240530E+02  0.7546771E-02  0.1297129E+00
          1   -1    0    0  501    0  0.00000000000E+00  0.00000000000E+00  0.66998172921E+02  0.66998172921E+02  0.00000000000E+00 0. -1.
         -1   -1    0    0    0  501 -0.00000000000E+00 -0.00000000000E+00 -0.31861837890E+02  0.31861837890E+02  0.00000000000E+00 0.  1.
         23    2    1    2    0    0  0.00000000000E+00  0.00000000000E+00  0.35136335032E+02  0.98860010811E+02  0.92405301245E+02 0.  0.
          2    1    3    3  502    0 -0.30156438631E+02 -0.24712370624E+02  0.44090423315E+02  0.58856414101E+02  0.00000000000E+00 0. -1.
         -2    1    3    3    0  502  0.30156438631E+02  0.24712370624E+02 -0.89540882831E+01  0.40003596710E+02  0.00000000000E+00 0.  1.
<mgrwt>
<rscale>  0 0.92405301E+02</rscale>
<asrwt>0</asrwt>
<pdfrwt beam="1">  1        1 0.10307411E-01 0.92405301E+02</pdfrwt>
<pdfrwt beam="2">  1       -1 0.49018212E-02 0.92405301E+02</pdfrwt>
<totfact> 0.94440264E+04</totfact>
</mgrwt>
</event>
<event>
 5    1  0.3854342E+001  0.9173346E+02  0.7546771E-02  0.1298707E+00
         -2   -1    0    0    0  501 -0.00000000000E+00  0.00000000000E+00  0.69359688588E+00  0.69359688588E+00  0.00000000000E+00 0. -1.
          2   -1    0    0  501    0  0.00000000000E+00 -0.00000000000E+00 -0.30331117598E+04  0.30331117598E+04  0.00000000000E+00 0.  1.
         23    2    1    2    0    0  0.00000000000E+00  0.00000000000E+00 -0.30324181629E+04  0.30338053567E+04  0.91733458915E+02 0.  0.
          2    1    3    3  502    0 -0.32070624825E+02  0.22700724068E+02 -0.73364722298E+03  0.73469864273E+03  0.00000000000E+00 0. -1.
         -2    1    3    3    0  502  0.32070624825E+02 -0.22700724068E+02 -0.22987709399E+04  0.22991067140E+04  0.00000000000E+00 0.  1.
<mgrwt>
<rscale>  0 0.91733459E+02</rscale>
<asrwt>0</asrwt>
<pdfrwt beam="2">  1        2 0.46663897E+00 0.91733459E+02</pdfrwt>
<pdfrwt beam="1">  1       -2 0.10670575E-03 0.91733459E+02</pdfrwt>
<totfact> 0.97454685E+04</totfact>
</mgrwt>
</event>
<event>
 5    1  0.3854342E+001  0.1258967E+03  0.7546771E-02  0.1233675E+00
          2   -1    0    0  501    0  0.00000000000E+00  0.00000000000E+00  0.16628040763E+04  0.16628040763E+04  0.00000000000E+00 0. -1.
         -2   -1    0    0    0  501 -0.00000000000E+00 -0.00000000000E+00 -0.23830188560E+01  0.23830188560E+01  0.00000000000E+00 0.  1.
         23    2    1    2    0    0  0.00000000000E+00  0.00000000000E+00  0.16604210575E+04  0.16651870952E+04  0.12589667935E+03 0.  0.
          2    1    3    3  502    0  0.15912840627E+02 -0.17956866284E+02  0.60468502154E+02  0.65054648538E+02  0.00000000000E+00 0.  1.
         -2    1    3    3    0  502 -0.15912840627E+02  0.17956866284E+02  0.15999525553E+04  0.16001324466E+04  0.00000000000E+00 0. -1.
<mgrwt>
<rscale>  0 0.12589668E+03</rscale>
<asrwt>0</asrwt>
<pdfrwt beam="1">  1        2 0.25581508E+00 0.12589668E+03</pdfrwt>
<pdfrwt beam="2">  1       -2 0.36661962E-03 0.12589668E+03</pdfrwt>
<totfact> 0.94867320E+04</totfact>
</mgrwt>
</event>
<event>
 5    1  0.3854342E+001  0.9667458E+02  0.7546771E-02  0.1287448E+00
          2   -1    0    0  501    0  0.00000000000E+00  0.00000000000E+00  0.65615434911E+02  0.65615434911E+02  0.00000000000E+00 0. -1.
         -2   -1    0    0    0  501 -0.00000000000E+00 -0.00000000000E+00 -0.35608904149E+02  0.35608904149E+02  0.00000000000E+00 0.  1.
         23    2    1    2    0    0  0.00000000000E+00  0.00000000000E+00  0.30006530762E+02  0.10122433906E+03  0.96674582645E+02 0.  0.
          2    1    3    3  502    0  0.96840360283E+00  0.45711667660E+02  0.31425779290E+02  0.55480392661E+02  0.00000000000E+00 0. -1.
         -2    1    3    3    0  502 -0.96840360283E+00 -0.45711667660E+02 -0.14192485286E+01  0.45743946399E+02  0.00000000000E+00 0.  1.
<mgrwt>
<rscale>  0 0.96674583E+02</rscale>
<asrwt>0</asrwt>
<pdfrwt beam="1">  1        2 0.10094682E-01 0.96674583E+02</pdfrwt>
<pdfrwt beam="2">  1       -2 0.54782930E-02 0.96674583E+02</pdfrwt>
<totfact> 0.92109552E+04</totfact>
</mgrwt>
</event>
<event>
 5    1  0.3854342E+001  0.9064427E+02  0.7546771E-02  0.1301299E+00
          1   -1    0    0  501    0  0.00000000000E+00  0.00000000000E+00  0.16008495267E+03  0.16008495267E+03  0.00000000000E+00 0. -1.
         -1   -1    0    0    0  501 -0.00000000000E+00 -0.00000000000E+00 -0.12831286813E+02  0.12831286813E+02  0.00000000000E+00 0.  1.
         23    2    1    2    0    0  0.00000000000E+00  0.00000000000E+00  0.14725366586E+03  0.17291623949E+03  0.90644270468E+02 0.  0.
          2    1    3    3  502    0 -0.39837967399E+02  0.15440108056E+02  0.10247160569E+03  0.11102202735E+03  0.00000000000E+00 0. -1.
         -2    1    3    3    0  502  0.39837967399E+02 -0.15440108056E+02  0.44782060168E+02  0.61894212138E+02  0.00000000000E+00 0.  1.
<mgrwt>
<rscale>  0 0.90644270E+02</rscale>
<asrwt>0</asrwt>
<pdfrwt beam="1">  1        1 0.24628453E-01 0.90644270E+02</pdfrwt>
<pdfrwt beam="2">  1       -1 0.19740442E-02 0.90644270E+02</pdfrwt>
<totfact> 0.11529504E+05</totfact>
</mgrwt>
</event>
<event>
 5    1  0.3854342E+001  0.9130765E+02  0.7546771E-02  0.1299716E+00
          2   -1    0    0  501    0  0.00000000000E+00  0.00000000000E+00  0.27619787391E+03  0.27619787391E+03  0.00000000000E+00 0. -1.
         -2   -1    0    0    0  501 -0.00000000000E+00 -0.00000000000E+00 -0.75462988599E+01  0.75462988599E+01  0.00000000000E+00 0.  1.
         23    2    1    2    0    0  0.00000000000E+00  0.00000000000E+00  0.26865157505E+03  0.28374417277E+03  0.91307649209E+02 0.  0.
          2    1    3    3  502    0  0.25275594872E+02  0.38009615472E+02  0.13175356601E+03  0.13943668356E+03  0.00000000000E+00 0. -1.
         -2    1    3    3    0  502 -0.25275594872E+02 -0.38009615472E+02  0.13689800904E+03  0.14430748921E+03  0.00000000000E+00 0.  1.
<mgrwt>
<rscale>  0 0.91307649E+02</rscale>
<asrwt>0</asrwt>
<pdfrwt beam="1">  1        2 0.42491973E-01 0.91307649E+02</pdfrwt>
<pdfrwt beam="2">  1       -2 0.11609693E-02 0.91307649E+02</pdfrwt>
<totfact> 0.17353915E+05</totfact>
</mgrwt>
</event>
<event>
 5    1  0.3854342E+001  0.7540335E+02  0.7546771E-02  0.1342627E+00
          2   -1    0    0  501    0  0.00000000000E+00  0.00000000000E+00  0.17791873390E+02  0.17791873390E+02  0.00000000000E+00 0. -1.
         -2   -1    0    0    0  501 -0.00000000000E+00 -0.00000000000E+00 -0.79891321436E+02  0.79891321436E+02  0.00000000000E+00 0.  1.
         23    2    1    2    0    0  0.00000000000E+00  0.00000000000E+00 -0.62099448046E+02  0.97683194826E+02  0.75403349421E+02 0.  0.
          2    1    3    3  502    0 -0.26912601588E+02  0.80854030834E+01 -0.63611145674E+02  0.69541640197E+02  0.00000000000E+00 0.  1.
         -2    1    3    3    0  502  0.26912601588E+02 -0.80854030834E+01  0.15116976285E+01  0.28141554630E+02  0.00000000000E+00 0. -1.
<mgrwt>
<rscale>  0 0.75403349E+02</rscale>
<asrwt>0</asrwt>
<pdfrwt beam="1">  1        2 0.27372113E-02 0.75403349E+02</pdfrwt>
<pdfrwt beam="2">  1       -2 0.12290973E-01 0.75403349E+02</pdfrwt>
<totfact> 0.13587347E+05</totfact>
</mgrwt>
</event>
<event>
 5    1  0.3854342E+001  0.9596579E+02  0.7546771E-02  0.1289016E+00
          1   -1    0    0  501    0  0.00000000000E+00  0.00000000000E+00  0.33163137462E+03  0.33163137462E+03  0.00000000000E+00 0. -1.
         -1   -1    0    0    0  501 -0.00000000000E+00 -0.00000000000E+00 -0.69425217332E+01  0.69425217332E+01  0.00000000000E+00 0.  1.
         23    2    1    2    0    0  0.00000000000E+00  0.00000000000E+00  0.32468885289E+03  0.33857389636E+03  0.95965786106E+02 0.  0.
          2    1    3    3  502    0  0.46301135527E+01 -0.33133490206E+02  0.28369624444E+03  0.28566208225E+03  0.00000000000E+00 0. -1.
         -2    1    3    3    0  502 -0.46301135527E+01  0.33133490206E+02  0.40992608450E+02  0.52911814109E+02  0.00000000000E+00 0.  1.
<mgrwt>
<rscale>  0 0.95965786E+02</rscale>
<asrwt>0</asrwt>
<pdfrwt beam="1">  1        1 0.51020199E-01 0.95965786E+02</pdfrwt>
<pdfrwt beam="2">  1       -1 0.10680805E-02 0.95965786E+02</pdfrwt>
<totfact> 0.11387688E+05</totfact>
</mgrwt>
</event>
<event>
 5    1  0.3854342E+001  0.9146104E+02  0.7546771E-02  0.1299352E+00
          1   -1    0    0  501    0  0.00000000000E+00  0.00000000000E+00  0.97916260009E+01  0.97916260009E+01  0.00000000000E+00 0. -1.
         -1   -1    0    0    0  501 -0.00000000000E+00 -0.00000000000E+00 -0.21357846189E+03  0.21357846189E+03  0.00000000000E+00 0.  1.
         23    2    1    2    0    0  0.00000000000E+00  0.00000000000E+00 -0.20378683589E+03  0.22337008789E+03  0.91461039152E+02 0.  0.
          2    1    3    3  502    0 -0.43800803910E+02 -0.10757512636E+02 -0.12033937426E+03  0.12851381054E+03  0.00000000000E+00 0. -1.
         -2    1    3    3    0  502  0.43800803910E+02  0.10757512636E+02 -0.83447461627E+02  0.94856277353E+02  0.00000000000E+00 0.  1.
<mgrwt>
<rscale>  0 0.91461039E+02</rscale>
<asrwt>0</asrwt>
<pdfrwt beam="1">  1        1 0.15064039E-02 0.91461039E+02</pdfrwt>
<pdfrwt beam="2">  1       -1 0.32858226E-01 0.91461039E+02</pdfrwt>
<totfact> 0.67550014E+04</totfact>
</mgrwt>
</event>
<event>
 5    1  0.3854342E+001  0.9225352E+02  0.7546771E-02  0.1297484E+00
         -2   -1    0    0    0  501 -0.00000000000E+00  0.00000000000E+00  0.84942784842E+01  0.84942784842E+01  0.00000000000E+00 0.  1.
          2   -1    0    0  501    0  0.00000000000E+00 -0.00000000000E+00 -0.25048366020E+03  0.25048366020E+03  0.00000000000E+00 0. -1.
         23    2    1    2    0    0  0.00000000000E+00  0.00000000000E+00 -0.24198938172E+03  0.25897793869E+03  0.92253519510E+02 0.  0.
          2    1    3    3  502    0 -0.37566589673E+02  0.13059015849E+02 -0.55405396781E+02  0.68202232713E+02  0.00000000000E+00 0. -1.
         -2    1    3    3    0  502  0.37566589673E+02 -0.13059015849E+02 -0.18658398494E+03  0.19077570597E+03  0.00000000000E+00 0.  1.
<mgrwt>
<rscale>  0 0.92253520E+02</rscale>
<asrwt>0</asrwt>
<pdfrwt beam="2">  1        2 0.38535942E-01 0.92253520E+02</pdfrwt>
<pdfrwt beam="1">  1       -2 0.13068123E-02 0.92253520E+02</pdfrwt>
<totfact> 0.16277471E+05</totfact>
</mgrwt>
</event>
<event>
 5    1  0.3854342E+001  0.9920597E+02  0.7546771E-02  0.1281975E+00
         -1   -1    0    0    0  501 -0.00000000000E+00  0.00000000000E+00  0.60428535981E+02  0.60428535981E+02  0.00000000000E+00 0.  1.
          1   -1    0    0  501    0  0.00000000000E+00 -0.00000000000E+00 -0.40716791756E+02  0.40716791756E+02  0.00000000000E+00 0. -1.
         23    2    1    2    0    0  0.00000000000E+00  0.00000000000E+00  0.19711744225E+02  0.10114532774E+03  0.99205969895E+02 0.  0.
          2    1    3    3  502    0  0.35080774213E+02 -0.26803207872E+02 -0.13199989166E+02  0.46079413903E+02  0.00000000000E+00 0. -1.
         -2    1    3    3    0  502 -0.35080774213E+02  0.26803207872E+02  0.32911733391E+02  0.55065913835E+02  0.00000000000E+00 0.  1.
<mgrwt>
<rscale>  0 0.99205970E+02</rscale>
<asrwt>0</asrwt>
<pdfrwt beam="2">  1        1 0.62641218E-02 0.99205970E+02</pdfrwt>
<pdfrwt beam="1">  1       -1 0.92966978E-02 0.99205970E+02</pdfrwt>
<totfact> 0.71502147E+04</totfact>
</mgrwt>
</event>
<event>
 5    1  0.3854342E+001  0.9455704E+02  0.7546771E-02  0.1292177E+00
         -1   -1    0    0    0  501 -0.00000000000E+00  0.00000000000E+00  0.97568379220E+03  0.97568379220E+03  0.00000000000E+00 0.  1.
          1   -1    0    0  501    0  0.00000000000E+00 -0.00000000000E+00 -0.22909662988E+01  0.22909662988E+01  0.00000000000E+00 0. -1.
         23    2    1    2    0    0  0.00000000000E+00  0.00000000000E+00  0.97339282590E+03  0.97797475849E+03  0.94557044925E+02 0.  0.
          2    1    3    3  502    0 -0.28144113437E+02 -0.28031610410E+02  0.22151235650E+03  0.22504574287E+03  0.00000000000E+00 0. -1.
         -2    1    3    3    0  502  0.28144113437E+02  0.28031610410E+02  0.75188046940E+03  0.75292901562E+03  0.00000000000E+00 0.  1.
<mgrwt>
<rscale>  0 0.94557045E+02</rscale>
<asrwt>0</asrwt>
<pdfrwt beam="2">  1        1 0.35245713E-03 0.94557045E+02</pdfrwt>
<pdfrwt beam="1">  1       -1 0.15010487E+00 0.94557045E+02</pdfrwt>
<totfact> 0.23995459E+04</totfact>
</mgrwt>
</event>
<event>
 5    1  0.3854342E+001  0.9225826E+02  0.7546771E-02  0.1297473E+00
         -3   -1    0    0    0  501 -0.00000000000E+00  0.00000000000E+00  0.68768131805E+03  0.68768131805E+03  0.00000000000E+00 0. -1.
          3   -1    0    0  501    0  0.00000000000E+00 -0.00000000000E+00 -0.30943064785E+01  0.30943064785E+01  0.00000000000E+00 0.  1.
         23    2    1    2    0    0  0.00000000000E+00  0.00000000000E+00  0.68458701157E+03  0.69077562453E+03  0.92258262667E+02 0.  0.
          2    1    3    3  502    0  0.15592760999E+02  0.38582618967E+02  0.49131822589E+03  0.49307742980E+03  0.00000000000E+00 0.  1.
         -2    1    3    3    0  502 -0.15592760999E+02 -0.38582618967E+02  0.19326878568E+03  0.19769819473E+03  0.00000000000E+00 0. -1.
<mgrwt>
<rscale>  0 0.92258263E+02</rscale>
<asrwt>0</asrwt>
<pdfrwt beam="2">  1        3 0.47604770E-03 0.92258263E+02</pdfrwt>
<pdfrwt beam="1">  1       -3 0.10579700E+00 0.92258263E+02</pdfrwt>
<totfact> 0.13607664E+04</totfact>
</mgrwt>
</event>
<event>
 5    1  0.3854342E+001  0.9081032E+02  0.7546771E-02  0.1300901E+00
          2   -1    0    0  501    0  0.00000000000E+00  0.00000000000E+00  0.10305962979E+03  0.10305962979E+03  0.00000000000E+00 0. -1.
         -2   -1    0    0    0  501 -0.00000000000E+00 -0.00000000000E+00 -0.20004229851E+02  0.20004229851E+02  0.00000000000E+00 0.  1.
         23    2    1    2    0    0  0.00000000000E+00  0.00000000000E+00  0.83055399939E+02  0.12306385964E+03  0.90810319295E+02 0.  0.
          2    1    3    3  502    0 -0.16854521680E+02  0.15275612092E+02  0.94781231121E+02  0.97472565363E+02  0.00000000000E+00 0. -1.
         -2    1    3    3    0  502  0.16854521680E+02 -0.15275612092E+02 -0.11725831182E+02  0.25591294276E+02  0.00000000000E+00 0.  1.
<mgrwt>
<rscale>  0 0.90810319E+02</rscale>
<asrwt>0</asrwt>
<pdfrwt beam="1">  1        2 0.15855327E-01 0.90810319E+02</pdfrwt>
<pdfrwt beam="2">  1       -2 0.30775739E-02 0.90810319E+02</pdfrwt>
<totfact> 0.12519026E+05</totfact>
</mgrwt>
</event>
<event>
 5    1  0.3854342E+001  0.1117313E+03  0.7546771E-02  0.1257397E+00
         -2   -1    0    0    0  501 -0.00000000000E+00  0.00000000000E+00  0.12897683294E+01  0.12897683294E+01  0.00000000000E+00 0. -1.
          2   -1    0    0  501    0  0.00000000000E+00 -0.00000000000E+00 -0.24197914682E+04  0.24197914682E+04  0.00000000000E+00 0.  1.
         23    2    1    2    0    0  0.00000000000E+00  0.00000000000E+00 -0.24185016998E+04  0.24210812365E+04  0.11173129194E+03 0.  0.
          2    1    3    3  502    0 -0.74493572805E+01 -0.50297400478E+02 -0.70774652484E+03  0.70957062005E+03  0.00000000000E+00 0. -1.
         -2    1    3    3    0  502  0.74493572805E+01  0.50297400478E+02 -0.17107551750E+04  0.17115106164E+04  0.00000000000E+00 0.  1.
<mgrwt>
<rscale>  0 0.11173129E+03</rscale>
<asrwt>0</asrwt>
<pdfrwt beam="2">  1        2 0.37227298E+00 0.11173129E+03</pdfrwt>
<pdfrwt beam="1">  1       -2 0.19842730E-03 0.11173129E+03</pdfrwt>
<totfact> 0.90749478E+04</totfact>
</mgrwt>
</event>
<event>
 5    1  0.3854342E+001  0.9147942E+02  0.7546771E-02  0.1299308E+00
          2   -1    0    0  501    0  0.00000000000E+00  0.00000000000E+00  0.17687775742E+04  0.17687775742E+04  0.00000000000E+00 0. -1.
         -2   -1    0    0    0  501 -0.00000000000E+00 -0.00000000000E+00 -0.11828061526E+01  0.11828061526E+01  0.00000000000E+00 0.  1.
         23    2    1    2    0    0  0.00000000000E+00  0.00000000000E+00  0.17675947681E+04  0.17699603804E+04  0.91479418394E+02 0.  0.
          2    1    3    3  502    0  0.19462383906E+02 -0.16617368282E+02  0.16172949996E+04  0.16174974612E+04  0.00000000000E+00 0. -1.
         -2    1    3    3    0  502 -0.19462383906E+02  0.16617368282E+02  0.15029976850E+03  0.15246291919E+03  0.00000000000E+00 0.  1.
<mgrwt>
<rscale>  0 0.91479418E+02</rscale>
<asrwt>0</asrwt>
<pdfrwt beam="1">  1        2 0.27211751E+00 0.91479418E+02</pdfrwt>
<pdfrwt beam="2">  1       -2 0.18197159E-03 0.91479418E+02</pdfrwt>
<totfact> 0.21499622E+05</totfact>
</mgrwt>
</event>
<event>
 5    1  0.3854342E+001  0.1115542E+03  0.7546771E-02  0.1257719E+00
          2   -1    0    0  501    0  0.00000000000E+00  0.00000000000E+00  0.77841622902E+01  0.77841622902E+01  0.00000000000E+00 0. -1.
         -2   -1    0    0    0  501 -0.00000000000E+00 -0.00000000000E+00 -0.39966851949E+03  0.39966851949E+03  0.00000000000E+00 0.  1.
         23    2    1    2    0    0  0.00000000000E+00  0.00000000000E+00 -0.39188435720E+03  0.40745268178E+03  0.11155419522E+03 0.  0.
          2    1    3    3  502    0  0.67443061801E+01  0.51127511345E+02 -0.11832515996E+03  0.12907498426E+03  0.00000000000E+00 0. -1.
         -2    1    3    3    0  502 -0.67443061801E+01 -0.51127511345E+02 -0.27355919723E+03  0.27837769751E+03  0.00000000000E+00 0.  1.
<mgrwt>
<rscale>  0 0.11155420E+03</rscale>
<asrwt>0</asrwt>
<pdfrwt beam="1">  1        2 0.11975634E-02 0.11155420E+03</pdfrwt>
<pdfrwt beam="2">  1       -2 0.61487466E-01 0.11155420E+03</pdfrwt>
<totfact> 0.25288673E+04</totfact>
</mgrwt>
</event>
<event>
 5    1  0.3854342E+001  0.8904773E+02  0.7546771E-02  0.1305174E+00
          2   -1    0    0  501    0  0.00000000000E+00  0.00000000000E+00  0.48594023498E+03  0.48594023498E+03  0.00000000000E+00 0. -1.
         -2   -1    0    0    0  501 -0.00000000000E+00 -0.00000000000E+00 -0.40794617982E+01  0.40794617982E+01  0.00000000000E+00 0.  1.
         23    2    1    2    0    0  0.00000000000E+00  0.00000000000E+00  0.48186077319E+03  0.49001969678E+03  0.89047731579E+02 0.  0.
          2    1    3    3  502    0  0.31003934461E+02  0.18296084432E+02  0.38510016864E+03  0.38677917543E+03  0.00000000000E+00 0. -1.
         -2    1    3    3    0  502 -0.31003934461E+02 -0.18296084432E+02  0.96760604544E+02  0.10324052135E+03  0.00000000000E+00 0.  1.
<mgrwt>
<rscale>  0 0.89047732E+02</rscale>
<asrwt>0</asrwt>
<pdfrwt beam="1">  1        2 0.74759990E-01 0.89047732E+02</pdfrwt>
<pdfrwt beam="2">  1       -2 0.62760989E-03 0.89047732E+02</pdfrwt>
<totfact> 0.22725176E+05</totfact>
</mgrwt>
</event>
<event>
 5    1  0.3854342E+001  0.8922937E+02  0.7546771E-02  0.1304729E+00
         -2   -1    0    0    0  501 -0.00000000000E+00  0.00000000000E+00  0.30040815862E+01  0.30040815862E+01  0.00000000000E+00 0.  1.
          2   -1    0    0  501    0  0.00000000000E+00 -0.00000000000E+00 -0.66258856657E+03  0.66258856657E+03  0.00000000000E+00 0. -1.
         23    2    1    2    0    0  0.00000000000E+00  0.00000000000E+00 -0.65958448499E+03  0.66559264816E+03  0.89229369875E+02 0.  0.
          2    1    3    3  502    0 -0.24803793547E+02  0.25732037632E+02 -0.13059781701E+03  0.13539998428E+03  0.00000000000E+00 0.  1.
         -2    1    3    3    0  502  0.24803793547E+02 -0.25732037632E+02 -0.52898666797E+03  0.53019266388E+03  0.00000000000E+00 0. -1.
<mgrwt>
<rscale>  0 0.89229370E+02</rscale>
<asrwt>0</asrwt>
<pdfrwt beam="2">  1        2 0.10193666E+00 0.89229370E+02</pdfrwt>
<pdfrwt beam="1">  1       -2 0.46216659E-03 0.89229370E+02</pdfrwt>
<totfact> 0.24770093E+05</totfact>
</mgrwt>
</event>
<event>
 5    1  0.3854342E+001  0.9902220E+02  0.7546771E-02  0.1282366E+00
         -1   -1    0    0    0  501 -0.00000000000E+00  0.00000000000E+00  0.73647551758E+02  0.73647551758E+02  0.00000000000E+00 0.  1.
          1   -1    0    0  501    0  0.00000000000E+00 -0.00000000000E+00 -0.33284868950E+02  0.33284868950E+02  0.00000000000E+00 0. -1.
         23    2    1    2    0    0  0.00000000000E+00  0.00000000000E+00  0.40362682807E+02  0.10693242071E+03  0.99022201728E+02 0.  0.
          2    1    3    3  502    0 -0.14532565331E+02 -0.46898002730E+02  0.13289435774E+02  0.50864793505E+02  0.00000000000E+00 0. -1.
         -2    1    3    3    0  502  0.14532565331E+02  0.46898002730E+02  0.27073247034E+02  0.56067627202E+02  0.00000000000E+00 0.  1.
<mgrwt>
<rscale>  0 0.99022202E+02</rscale>
<asrwt>0</asrwt>
<pdfrwt beam="2">  1        1 0.51207491E-02 0.99022202E+02</pdfrwt>
<pdfrwt beam="1">  1       -1 0.11330393E-01 0.99022202E+02</pdfrwt>
<totfact> 0.69496178E+04</totfact>
</mgrwt>
</event>
<event>
 5    1  0.3854342E+001  0.9334363E+02  0.7546771E-02  0.1294951E+00
          3   -1    0    0  501    0  0.00000000000E+00  0.00000000000E+00  0.52349579919E+02  0.52349579919E+02  0.00000000000E+00 0. -1.
         -3   -1    0    0    0  501 -0.00000000000E+00 -0.00000000000E+00 -0.41609857053E+02  0.41609857053E+02  0.00000000000E+00 0.  1.
         23    2    1    2    0    0  0.00000000000E+00  0.00000000000E+00  0.10739722866E+02  0.93959436972E+02  0.93343634753E+02 0.  0.
          2    1    3    3  502    0 -0.70101488735E+01 -0.44233526949E+02  0.18590872002E+02  0.48490902398E+02  0.00000000000E+00 0. -1.
         -2    1    3    3    0  502  0.70101488735E+01  0.44233526949E+02 -0.78511491356E+01  0.45468534574E+02  0.00000000000E+00 0.  1.
<mgrwt>
<rscale>  0 0.93343635E+02</rscale>
<asrwt>0</asrwt>
<pdfrwt beam="1">  1        3 0.80537815E-02 0.93343635E+02</pdfrwt>
<pdfrwt beam="2">  1       -3 0.64015165E-02 0.93343635E+02</pdfrwt>
<totfact> 0.32942864E+04</totfact>
</mgrwt>
</event>
<event>
 5    1  0.3854342E+001  0.8909187E+02  0.7546771E-02  0.1305066E+00
          1   -1    0    0  501    0  0.00000000000E+00  0.00000000000E+00  0.19958327167E+03  0.19958327167E+03  0.00000000000E+00 0. -1.
         -1   -1    0    0    0  501 -0.00000000000E+00 -0.00000000000E+00 -0.99424190168E+01  0.99424190168E+01  0.00000000000E+00 0.  1.
         23    2    1    2    0    0  0.00000000000E+00  0.00000000000E+00  0.18964085265E+03  0.20952569068E+03  0.89091874280E+02 0.  0.
          2    1    3    3  502    0 -0.35328347670E+02 -0.26961914607E+02  0.87647060110E+02  0.98270260681E+02  0.00000000000E+00 0.  1.
         -2    1    3    3    0  502  0.35328347670E+02  0.26961914607E+02  0.10199379254E+03  0.11125543000E+03  0.00000000000E+00 0. -1.
<mgrwt>
<rscale>  0 0.89091874E+02</rscale>
<asrwt>0</asrwt>
<pdfrwt beam="1">  1        1 0.30705116E-01 0.89091874E+02</pdfrwt>
<pdfrwt beam="2">  1       -1 0.15296031E-02 0.89091874E+02</pdfrwt>
<totfact> 0.12591874E+05</totfact>
</mgrwt>
</event>
<event>
 5    1  0.3854342E+001  0.9096351E+02  0.7546771E-02  0.1300535E+00
          1   -1    0    0  501    0  0.00000000000E+00  0.00000000000E+00  0.12148842329E+02  0.12148842329E+02  0.00000000000E+00 0.  1.
         -1   -1    0    0    0  501 -0.00000000000E+00 -0.00000000000E+00 -0.17027053135E+03  0.17027053135E+03  0.00000000000E+00 0. -1.
         23    2    1    2    0    0  0.00000000000E+00  0.00000000000E+00 -0.15812168902E+03  0.18241937368E+03  0.90963505618E+02 0.  0.
          2    1    3    3  502    0 -0.15926900112E+02  0.31834602093E+02 -0.13583498967E+03  0.14042169510E+03  0.00000000000E+00 0. -1.
         -2    1    3    3    0  502  0.15926900112E+02 -0.31834602093E+02 -0.22286699351E+02  0.41997678574E+02  0.00000000000E+00 0.  1.
<mgrwt>
<rscale>  0 0.90963506E+02</rscale>
<asrwt>0</asrwt>
<pdfrwt beam="1">  1        1 0.18690528E-02 0.90963506E+02</pdfrwt>
<pdfrwt beam="2">  1       -1 0.26195465E-01 0.90963506E+02</pdfrwt>
<totfact> 0.72952098E+04</totfact>
</mgrwt>
</event>
<event>
 5    1  0.3854342E+001  0.8919218E+02  0.7546771E-02  0.1304820E+00
         -1   -1    0    0    0  501 -0.00000000000E+00  0.00000000000E+00  0.29070030421E+02  0.29070030421E+02  0.00000000000E+00 0.  1.
          1   -1    0    0  501    0  0.00000000000E+00 -0.00000000000E+00 -0.68414491625E+02  0.68414491625E+02  0.00000000000E+00 0. -1.
         23    2    1    2    0    0  0.00000000000E+00  0.00000000000E+00 -0.39344461204E+02  0.97484522046E+02  0.89192182455E+02 0.  0.
          2    1    3    3  502    0 -0.36255880599E+01 -0.40493148195E+02  0.36141740661E+00  0.40656740672E+02  0.00000000000E+00 0.  1.
         -2    1    3    3    0  502  0.36255880599E+01  0.40493148195E+02 -0.39705878611E+02  0.56827781373E+02  0.00000000000E+00 0. -1.
<mgrwt>
<rscale>  0 0.89192182E+02</rscale>
<asrwt>0</asrwt>
<pdfrwt beam="2">  1        1 0.10525306E-01 0.89192182E+02</pdfrwt>
<pdfrwt beam="1">  1       -1 0.44723124E-02 0.89192182E+02</pdfrwt>
<totfact> 0.10446143E+05</totfact>
</mgrwt>
</event>
<event>
 5    1  0.3854342E+001  0.9144099E+02  0.7546771E-02  0.1299399E+00
         -2   -1    0    0    0  501 -0.00000000000E+00  0.00000000000E+00  0.55376634142E+01  0.55376634142E+01  0.00000000000E+00 0.  1.
          2   -1    0    0  501    0  0.00000000000E+00 -0.00000000000E+00 -0.37748118795E+03  0.37748118795E+03  0.00000000000E+00 0. -1.
         23    2    1    2    0    0  0.00000000000E+00  0.00000000000E+00 -0.37194352454E+03  0.38301885137E+03  0.91440992209E+02 0.  0.
          2    1    3    3  502    0  0.34403852087E+02  0.30057796592E+02 -0.19354345492E+03  0.19886217618E+03  0.00000000000E+00 0. -1.
         -2    1    3    3    0  502 -0.34403852087E+02 -0.30057796592E+02 -0.17840006962E+03  0.18415667518E+03  0.00000000000E+00 0.  1.
<mgrwt>
<rscale>  0 0.91440992E+02</rscale>
<asrwt>0</asrwt>
<pdfrwt beam="2">  1        2 0.58074040E-01 0.91440992E+02</pdfrwt>
<pdfrwt beam="1">  1       -2 0.85194806E-03 0.91440992E+02</pdfrwt>
<totfact> 0.19400263E+05</totfact>
</mgrwt>
</event>
<event>
 5    1  0.3854342E+001  0.9430973E+02  0.7546771E-02  0.1292738E+00
         -1   -1    0    0    0  501 -0.00000000000E+00  0.00000000000E+00  0.98353061324E+02  0.98353061324E+02  0.00000000000E+00 0.  1.
          1   -1    0    0  501    0  0.00000000000E+00 -0.00000000000E+00 -0.22608157270E+02  0.22608157270E+02  0.00000000000E+00 0. -1.
         23    2    1    2    0    0  0.00000000000E+00  0.00000000000E+00  0.75744904054E+02  0.12096121859E+03  0.94309733927E+02 0.  0.
          2    1    3    3  502    0 -0.18325284440E+02  0.96746279272E+01 -0.16455216337E+02  0.26461077454E+02  0.00000000000E+00 0. -1.
         -2    1    3    3    0  502  0.18325284440E+02 -0.96746279272E+01  0.92200120390E+02  0.94500141139E+02  0.00000000000E+00 0.  1.
<mgrwt>
<rscale>  0 0.94309734E+02</rscale>
<asrwt>0</asrwt>
<pdfrwt beam="2">  1        1 0.34781781E-02 0.94309734E+02</pdfrwt>
<pdfrwt beam="1">  1       -1 0.15131240E-01 0.94309734E+02</pdfrwt>
<totfact> 0.74813816E+04</totfact>
</mgrwt>
</event>
<event>
 5    1  0.3854342E+001  0.9262876E+02  0.7546771E-02  0.1296608E+00
          2   -1    0    0  501    0  0.00000000000E+00  0.00000000000E+00  0.24564943132E+03  0.24564943132E+03  0.00000000000E+00 0. -1.
         -2   -1    0    0    0  501 -0.00000000000E+00 -0.00000000000E+00 -0.87320450941E+01  0.87320450941E+01  0.00000000000E+00 0.  1.
         23    2    1    2    0    0  0.00000000000E+00  0.00000000000E+00  0.23691738622E+03  0.25438147641E+03  0.92628762522E+02 0.  0.
          2    1    3    3  502    0  0.45714942929E+02 -0.70173488831E+01  0.11177525095E+03  0.12096613541E+03  0.00000000000E+00 0. -1.
         -2    1    3    3    0  502 -0.45714942929E+02  0.70173488831E+01  0.12514213527E+03  0.13341534100E+03  0.00000000000E+00 0.  1.
<mgrwt>
<rscale>  0 0.92628763E+02</rscale>
<asrwt>0</asrwt>
<pdfrwt beam="1">  1        2 0.37792215E-01 0.92628763E+02</pdfrwt>
<pdfrwt beam="2">  1       -2 0.13433917E-02 0.92628763E+02</pdfrwt>
<totfact> 0.15985151E+05</totfact>
</mgrwt>
</event>
<event>
 5    1  0.3854342E+001  0.9310081E+02  0.7546771E-02  0.1295512E+00
          2   -1    0    0  501    0  0.00000000000E+00  0.00000000000E+00  0.10582235045E+03  0.10582235045E+03  0.00000000000E+00 0. -1.
         -2   -1    0    0    0  501 -0.00000000000E+00 -0.00000000000E+00 -0.20477148601E+02  0.20477148601E+02  0.00000000000E+00 0.  1.
         23    2    1    2    0    0  0.00000000000E+00  0.00000000000E+00  0.85345201853E+02  0.12629949906E+03  0.93100805486E+02 0.  0.
          2    1    3    3  502    0 -0.37833963061E+02 -0.32359533222E+01  0.79201376511E+02  0.87833582394E+02  0.00000000000E+00 0. -1.
         -2    1    3    3    0  502  0.37833963061E+02  0.32359533222E+01  0.61438253419E+01  0.38465916662E+02  0.00000000000E+00 0.  1.
<mgrwt>
<rscale>  0 0.93100805E+02</rscale>
<asrwt>0</asrwt>
<pdfrwt beam="1">  1        2 0.16280361E-01 0.93100805E+02</pdfrwt>
<pdfrwt beam="2">  1       -2 0.31503306E-02 0.93100805E+02</pdfrwt>
<totfact> 0.11785079E+05</totfact>
</mgrwt>
</event>
<event>
 5    1  0.3854342E+001  0.9003942E+02  0.7546771E-02  0.1302756E+00
          1   -1    0    0  501    0  0.00000000000E+00  0.00000000000E+00  0.25083193575E+01  0.25083193575E+01  0.00000000000E+00 0. -1.
         -1   -1    0    0    0  501 -0.00000000000E+00 -0.00000000000E+00 -0.80802079293E+03  0.80802079293E+03  0.00000000000E+00 0.  1.
         23    2    1    2    0    0  0.00000000000E+00  0.00000000000E+00 -0.80551247357E+03  0.81052911229E+03  0.90039417950E+02 0.  0.
          2    1    3    3  502    0  0.19929762192E+02 -0.35474743327E+01 -0.40771573455E+02  0.45520338280E+02  0.00000000000E+00 0. -1.
         -2    1    3    3    0  502 -0.19929762192E+02  0.35474743327E+01 -0.76474090012E+03  0.76500877401E+03  0.00000000000E+00 0.  1.
<mgrwt>
<rscale>  0 0.90039418E+02</rscale>
<asrwt>0</asrwt>
<pdfrwt beam="1">  1        1 0.38589474E-03 0.90039418E+02</pdfrwt>
<pdfrwt beam="2">  1       -1 0.12431107E+00 0.90039418E+02</pdfrwt>
<totfact> 0.33420709E+04</totfact>
</mgrwt>
</event>
<event>
 5    1  0.3854342E+001  0.9180428E+02  0.7546771E-02  0.1298540E+00
         -2   -1    0    0    0  501 -0.00000000000E+00  0.00000000000E+00  0.53743097094E+01  0.53743097094E+01  0.00000000000E+00 0.  1.
          2   -1    0    0  501    0  0.00000000000E+00 -0.00000000000E+00 -0.39205156549E+03  0.39205156549E+03  0.00000000000E+00 0. -1.
         23    2    1    2    0    0  0.00000000000E+00  0.00000000000E+00 -0.38667725578E+03  0.39742587520E+03  0.91804281708E+02 0.  0.
          2    1    3    3  502    0  0.34066964206E+02 -0.76726611474E+01 -0.32231098934E+03  0.32419716474E+03  0.00000000000E+00 0. -1.
         -2    1    3    3    0  502 -0.34066964206E+02  0.76726611474E+01 -0.64366266437E+02  0.73228710451E+02  0.00000000000E+00 0.  1.
<mgrwt>
<rscale>  0 0.91804282E+02</rscale>
<asrwt>0</asrwt>
<pdfrwt beam="2">  1        2 0.60315630E-01 0.91804282E+02</pdfrwt>
<pdfrwt beam="1">  1       -2 0.82681681E-03 0.91804282E+02</pdfrwt>
<totfact> 0.19461347E+05</totfact>
</mgrwt>
</event>
<event>
 5    1  0.3854342E+001  0.8915357E+02  0.7546771E-02  0.1304914E+00
         -1   -1    0    0    0  501 -0.00000000000E+00  0.00000000000E+00  0.92439654786E+02  0.92439654786E+02  0.00000000000E+00 0.  1.
          1   -1    0    0  501    0  0.00000000000E+00 -0.00000000000E+00 -0.21496074119E+02  0.21496074119E+02  0.00000000000E+00 0. -1.
         23    2    1    2    0    0  0.00000000000E+00  0.00000000000E+00  0.70943580667E+02  0.11393572891E+03  0.89153567979E+02 0.  0.
          2    1    3    3  502    0  0.13329600591E+02 -0.23223245523E+02  0.81016595199E+02  0.85326936440E+02  0.00000000000E+00 0.  1.
         -2    1    3    3    0  502 -0.13329600591E+02  0.23223245523E+02 -0.10073014533E+02  0.28608792465E+02  0.00000000000E+00 0. -1.
<mgrwt>
<rscale>  0 0.89153568E+02</rscale>
<asrwt>0</asrwt>
<pdfrwt beam="2">  1        1 0.33070884E-02 0.89153568E+02</pdfrwt>
<pdfrwt beam="1">  1       -1 0.14221485E-01 0.89153568E+02</pdfrwt>
<totfact> 0.87442097E+04</totfact>
</mgrwt>
</event>
<event>
 5    1  0.3854342E+001  0.9460515E+02  0.7546771E-02  0.1292068E+00
          1   -1    0    0  501    0  0.00000000000E+00  0.00000000000E+00  0.80191466775E+02  0.80191466775E+02  0.00000000000E+00 0. -1.
         -1   -1    0    0    0  501 -0.00000000000E+00 -0.00000000000E+00 -0.27902392575E+02  0.27902392575E+02  0.00000000000E+00 0.  1.
         23    2    1    2    0    0  0.00000000000E+00  0.00000000000E+00  0.52289074200E+02  0.10809385935E+03  0.94605153921E+02 0.  0.
          2    1    3    3  502    0 -0.26059798288E+01 -0.20958110951E+02  0.74505469105E+02  0.77440935377E+02  0.00000000000E+00 0. -1.
         -2    1    3    3    0  502  0.26059798288E+01  0.20958110951E+02 -0.22216394906E+02  0.30652923973E+02  0.00000000000E+00 0.  1.
<mgrwt>
<rscale>  0 0.94605154E+02</rscale>
<asrwt>0</asrwt>
<pdfrwt beam="1">  1        1 0.12337149E-01 0.94605154E+02</pdfrwt>
<pdfrwt beam="2">  1       -1 0.42926758E-02 0.94605154E+02</pdfrwt>
<totfact> 0.91040670E+04</totfact>
</mgrwt>
</event>
<event>
 5    1  0.3854342E+001  0.9112785E+02  0.7546771E-02  0.1300143E+00
          4   -1    0    0  501    0  0.00000000000E+00  0.00000000000E+00  0.14808284402E+03  0.14808284402E+03  0.00000000000E+00 0.  1.
         -4   -1    0    0    0  501 -0.00000000000E+00 -0.00000000000E+00 -0.14019661257E+02  0.14019661257E+02  0.00000000000E+00 0. -1.
         23    2    1    2    0    0  0.00000000000E+00  0.00000000000E+00  0.13406318277E+03  0.16210250528E+03  0.91127851092E+02 0.  0.
          2    1    3    3  502    0  0.37878993395E+02  0.15053133761E+02  0.10325445242E+03  0.11100854437E+03  0.00000000000E+00 0. -1.
         -2    1    3    3    0  502 -0.37878993395E+02 -0.15053133761E+02  0.30808730343E+02  0.51093960915E+02  0.00000000000E+00 0.  1.
<mgrwt>
<rscale>  0 0.91127851E+02</rscale>
<asrwt>0</asrwt>
<pdfrwt beam="1">  1        4 0.22781975E-01 0.91127851E+02</pdfrwt>
<pdfrwt beam="2">  1       -4 0.21568711E-02 0.91127851E+02</pdfrwt>
<totfact> 0.23113380E+04</totfact>
</mgrwt>
</event>
<event>
 5    1  0.3854342E+001  0.8726975E+02  0.7546771E-02  0.1309601E+00
          3   -1    0    0  501    0  0.00000000000E+00  0.00000000000E+00  0.29149775246E+02  0.29149775246E+02  0.00000000000E+00 0. -1.
         -3   -1    0    0    0  501 -0.00000000000E+00 -0.00000000000E+00 -0.65317905928E+02  0.65317905928E+02  0.00000000000E+00 0.  1.
         23    2    1    2    0    0  0.00000000000E+00  0.00000000000E+00 -0.36168130682E+02  0.94467681174E+02  0.87269749108E+02 0.  0.
          2    1    3    3  502    0  0.11623999701E+02 -0.22048254629E+02  0.20685606645E+02  0.32390387826E+02  0.00000000000E+00 0. -1.
         -2    1    3    3    0  502 -0.11623999701E+02  0.22048254629E+02 -0.56853737327E+02  0.62077293347E+02  0.00000000000E+00 0.  1.
<mgrwt>
<rscale>  0 0.87269749E+02</rscale>
<asrwt>0</asrwt>
<pdfrwt beam="1">  1        3 0.44845808E-02 0.87269749E+02</pdfrwt>
<pdfrwt beam="2">  1       -3 0.10048909E-01 0.87269749E+02</pdfrwt>
<totfact> 0.39513610E+04</totfact>
</mgrwt>
</event>
<event>
 5    1  0.3854342E+001  0.8116602E+02  0.7546771E-02  0.1325775E+00
         -2   -1    0    0    0  501 -0.00000000000E+00  0.00000000000E+00  0.12384273508E+02  0.12384273508E+02  0.00000000000E+00 0.  1.
          2   -1    0    0  501    0  0.00000000000E+00 -0.00000000000E+00 -0.13298968437E+03  0.13298968437E+03  0.00000000000E+00 0. -1.
         23    2    1    2    0    0  0.00000000000E+00  0.00000000000E+00 -0.12060541086E+03  0.14537395788E+03  0.81166018135E+02 0.  0.
          2    1    3    3  502    0 -0.23858317750E+02 -0.66367038405E+00 -0.11909019361E+03  0.12145836323E+03  0.00000000000E+00 0. -1.
         -2    1    3    3    0  502  0.23858317750E+02  0.66367038405E+00 -0.15152172561E+01  0.23915594652E+02  0.00000000000E+00 0.  1.
<mgrwt>
<rscale>  0 0.81166018E+02</rscale>
<asrwt>0</asrwt>
<pdfrwt beam="2">  1        2 0.20459953E-01 0.81166018E+02</pdfrwt>
<pdfrwt beam="1">  1       -2 0.19052727E-02 0.81166018E+02</pdfrwt>
<totfact> 0.18386523E+05</totfact>
</mgrwt>
</event>
<event>
 5    1  0.3854342E+001  0.9143066E+02  0.7546771E-02  0.1299424E+00
          2   -1    0    0  501    0  0.00000000000E+00  0.00000000000E+00  0.11812546228E+04  0.11812546228E+04  0.00000000000E+00 0. -1.
         -2   -1    0    0    0  501 -0.00000000000E+00 -0.00000000000E+00 -0.17692133650E+01  0.17692133650E+01  0.00000000000E+00 0.  1.
         23    2    1    2    0    0  0.00000000000E+00  0.00000000000E+00  0.11794854094E+04  0.11830238362E+04  0.91430661512E+02 0.  0.
          2    1    3    3  502    0 -0.19775214305E+02  0.38935035438E+02  0.76472858300E+03  0.76597441325E+03  0.00000000000E+00 0. -1.
         -2    1    3    3    0  502  0.19775214305E+02 -0.38935035438E+02  0.41475682644E+03  0.41704942293E+03  0.00000000000E+00 0.  1.
<mgrwt>
<rscale>  0 0.91430662E+02</rscale>
<asrwt>0</asrwt>
<pdfrwt beam="1">  1        2 0.18173085E+00 0.91430662E+02</pdfrwt>
<pdfrwt beam="2">  1       -2 0.27218762E-03 0.91430662E+02</pdfrwt>
<totfact> 0.24726908E+05</totfact>
</mgrwt>
</event>
<event>
 5    1  0.3854342E+001  0.1086226E+03  0.7546771E-02  0.1263142E+00
          4   -1    0    0  501    0  0.00000000000E+00  0.00000000000E+00  0.19534281031E+04  0.19534281031E+04  0.00000000000E+00 0.  1.
         -4   -1    0    0    0  501 -0.00000000000E+00 -0.00000000000E+00 -0.15100216546E+01  0.15100216546E+01  0.00000000000E+00 0. -1.
         23    2    1    2    0    0  0.00000000000E+00  0.00000000000E+00  0.19519180815E+04  0.19549381248E+04  0.10862262631E+03 0.  0.
          2    1    3    3  502    0 -0.44255740124E+02  0.19470202336E+01  0.41043653738E+03  0.41282019408E+03  0.00000000000E+00 0. -1.
         -2    1    3    3    0  502  0.44255740124E+02 -0.19470202336E+01  0.15414815441E+04  0.15421179307E+04  0.00000000000E+00 0.  1.
<mgrwt>
<rscale>  0 0.10862263E+03</rscale>
<asrwt>0</asrwt>
<pdfrwt beam="1">  1        4 0.30052538E+00 0.10862263E+03</pdfrwt>
<pdfrwt beam="2">  1       -4 0.23231259E-03 0.10862263E+03</pdfrwt>
<totfact> 0.15344223E+03</totfact>
</mgrwt>
</event>
<event>
 5    1  0.3854342E+001  0.1007876E+03  0.7546771E-02  0.1278648E+00
          2   -1    0    0  501    0  0.00000000000E+00  0.00000000000E+00  0.18307098587E+03  0.18307098587E+03  0.00000000000E+00 0. -1.
         -2   -1    0    0    0  501 -0.00000000000E+00 -0.00000000000E+00 -0.13871870804E+02  0.13871870804E+02  0.00000000000E+00 0.  1.
         23    2    1    2    0    0  0.00000000000E+00  0.00000000000E+00  0.16919911507E+03  0.19694285668E+03  0.10078763940E+03 0.  0.
          2    1    3    3  502    0 -0.33497726464E+02  0.24177254730E+02  0.14099309303E+03  0.14692069155E+03  0.00000000000E+00 0. -1.
         -2    1    3    3    0  502  0.33497726464E+02 -0.24177254730E+02  0.28206022044E+02  0.50022165128E+02  0.00000000000E+00 0.  1.
<mgrwt>
<rscale>  0 0.10078764E+03</rscale>
<asrwt>0</asrwt>
<pdfrwt beam="1">  1        2 0.28164765E-01 0.10078764E+03</pdfrwt>
<pdfrwt beam="2">  1       -2 0.21341341E-02 0.10078764E+03</pdfrwt>
<totfact> 0.11412917E+05</totfact>
</mgrwt>
</event>
<event>
 5    1  0.3854342E+001  0.9316644E+02  0.7546771E-02  0.1295360E+00
         -1   -1    0    0    0  501 -0.00000000000E+00  0.00000000000E+00  0.34828954175E+02  0.34828954175E+02  0.00000000000E+00 0.  1.
          1   -1    0    0  501    0  0.00000000000E+00 -0.00000000000E+00 -0.62304383188E+02  0.62304383188E+02  0.00000000000E+00 0. -1.
         23    2    1    2    0    0  0.00000000000E+00  0.00000000000E+00 -0.27475429013E+02  0.97133337363E+02  0.93166442606E+02 0.  0.
          2    1    3    3  502    0 -0.22828664130E+01  0.45687659804E+02 -0.45640437539E+01  0.45971776481E+02  0.00000000000E+00 0.  1.
         -2    1    3    3    0  502  0.22828664130E+01 -0.45687659804E+02 -0.22911385259E+02  0.51161560882E+02  0.00000000000E+00 0. -1.
<mgrwt>
<rscale>  0 0.93166443E+02</rscale>
<asrwt>0</asrwt>
<pdfrwt beam="2">  1        1 0.95852896E-02 0.93166443E+02</pdfrwt>
<pdfrwt beam="1">  1       -1 0.53583007E-02 0.93166443E+02</pdfrwt>
<totfact> 0.91284464E+04</totfact>
</mgrwt>
</event>
<event>
 5    1  0.3854342E+001  0.7308936E+02  0.7546771E-02  0.1349892E+00
          1   -1    0    0  501    0  0.00000000000E+00  0.00000000000E+00  0.14363497651E+04  0.14363497651E+04  0.00000000000E+00 0. -1.
         -1   -1    0    0    0  501 -0.00000000000E+00 -0.00000000000E+00 -0.92979701336E+00  0.92979701336E+00  0.00000000000E+00 0.  1.
         23    2    1    2    0    0  0.00000000000E+00  0.00000000000E+00  0.14354199681E+04  0.14372795621E+04  0.73089362338E+02 0.  0.
          2    1    3    3  502    0  0.49026319333E+00 -0.33582464709E+02  0.10009712271E+04  0.10015345325E+04  0.00000000000E+00 0. -1.
         -2    1    3    3    0  502 -0.49026319333E+00  0.33582464709E+02  0.43444874098E+03  0.43574502962E+03  0.00000000000E+00 0.  1.
<mgrwt>
<rscale>  0 0.73089362E+02</rscale>
<asrwt>0</asrwt>
<pdfrwt beam="1">  1        1 0.22097511E+00 0.73089362E+02</pdfrwt>
<pdfrwt beam="2">  1       -1 0.14304684E-03 0.73089362E+02</pdfrwt>
<totfact> 0.20398635E+05</totfact>
</mgrwt>
</event>
<event>
 5    1  0.3854342E+001  0.9117259E+02  0.7546771E-02  0.1300037E+00
         -2   -1    0    0    0  501 -0.00000000000E+00  0.00000000000E+00  0.13360121651E+03  0.13360121651E+03  0.00000000000E+00 0.  1.
          2   -1    0    0  501    0  0.00000000000E+00 -0.00000000000E+00 -0.15554574424E+02  0.15554574424E+02  0.00000000000E+00 0. -1.
         23    2    1    2    0    0  0.00000000000E+00  0.00000000000E+00  0.11804664209E+03  0.14915579093E+03  0.91172585031E+02 0.  0.
          2    1    3    3  502    0 -0.17513340973E+02 -0.41683711940E+02  0.49503550951E+02  0.67043646305E+02  0.00000000000E+00 0. -1.
         -2    1    3    3    0  502  0.17513340973E+02  0.41683711940E+02  0.68543091136E+02  0.82112144629E+02  0.00000000000E+00 0.  1.
<mgrwt>
<rscale>  0 0.91172585E+02</rscale>
<asrwt>0</asrwt>
<pdfrwt beam="2">  1        2 0.23930115E-02 0.91172585E+02</pdfrwt>
<pdfrwt beam="1">  1       -2 0.20554033E-01 0.91172585E+02</pdfrwt>
<totfact> 0.72777863E+04</totfact>
</mgrwt>
</event>
<event>
 5    1  0.3854342E+001  0.8502180E+02  0.7546771E-02  0.1315376E+00
          1   -1    0    0  501    0  0.00000000000E+00  0.00000000000E+00  0.35503033428E+03  0.35503033428E+03  0.00000000000E+00 0. -1.
         -1   -1    0    0    0  501 -0.00000000000E+00 -0.00000000000E+00 -0.50902035535E+01  0.50902035535E+01  0.00000000000E+00 0.  1.
         23    2    1    2    0    0  0.00000000000E+00  0.00000000000E+00  0.34994013073E+03  0.36012053783E+03  0.85021801184E+02 0.  0.
          2    1    3    3  502    0  0.27338236145E+02 -0.27477815282E+02  0.24891385216E+03  0.25191370603E+03  0.00000000000E+00 0. -1.
         -2    1    3    3    0  502 -0.27338236145E+02  0.27477815282E+02  0.10102627857E+03  0.10820683181E+03  0.00000000000E+00 0.  1.
<mgrwt>
<rscale>  0 0.85021801E+02</rscale>
<asrwt>0</asrwt>
<pdfrwt beam="1">  1        1 0.54620032E-01 0.85021801E+02</pdfrwt>
<pdfrwt beam="2">  1       -1 0.78310852E-03 0.85021801E+02</pdfrwt>
<totfact> 0.15904143E+05</totfact>
</mgrwt>
</event>
<event>
 5    1  0.3854342E+001  0.9160898E+02  0.7546771E-02  0.1299001E+00
         -2   -1    0    0    0  501 -0.00000000000E+00  0.00000000000E+00  0.69951290841E+01  0.69951290841E+01  0.00000000000E+00 0.  1.
          2   -1    0    0  501    0  0.00000000000E+00 -0.00000000000E+00 -0.29993031694E+03  0.29993031694E+03  0.00000000000E+00 0. -1.
         23    2    1    2    0    0  0.00000000000E+00  0.00000000000E+00 -0.29293518786E+03  0.30692544602E+03  0.91608979543E+02 0.  0.
          2    1    3    3  502    0 -0.42805196037E+02 -0.16138304930E+02 -0.15419645559E+03  0.16083928814E+03  0.00000000000E+00 0. -1.
         -2    1    3    3    0  502  0.42805196037E+02  0.16138304930E+02 -0.13873873227E+03  0.14608615788E+03  0.00000000000E+00 0.  1.
<mgrwt>
<rscale>  0 0.91608980E+02</rscale>
<asrwt>0</asrwt>
<pdfrwt beam="2">  1        2 0.46143125E-01 0.91608980E+02</pdfrwt>
<pdfrwt beam="1">  1       -2 0.10761737E-02 0.91608980E+02</pdfrwt>
<totfact> 0.17739036E+05</totfact>
</mgrwt>
</event>
<event>
 5    1  0.3854342E+001  0.8820277E+02  0.7546771E-02  0.1307263E+00
         -2   -1    0    0    0  501 -0.00000000000E+00  0.00000000000E+00  0.12008996223E+02  0.12008996223E+02  0.00000000000E+00 0.  1.
          2   -1    0    0  501    0  0.00000000000E+00 -0.00000000000E+00 -0.16195626001E+03  0.16195626001E+03  0.00000000000E+00 0. -1.
         23    2    1    2    0    0  0.00000000000E+00  0.00000000000E+00 -0.14994726379E+03  0.17396525623E+03  0.88202768997E+02 0.  0.
          2    1    3    3  502    0  0.36242838019E+00  0.43192593682E+02 -0.57420906085E+02  0.71853266863E+02  0.00000000000E+00 0.  1.
         -2    1    3    3    0  502 -0.36242838019E+00 -0.43192593682E+02 -0.92526357700E+02  0.10211198937E+03  0.00000000000E+00 0. -1.
<mgrwt>
<rscale>  0 0.88202769E+02</rscale>
<asrwt>0</asrwt>
<pdfrwt beam="2">  1        2 0.24916346E-01 0.88202769E+02</pdfrwt>
<pdfrwt beam="1">  1       -2 0.18475380E-02 0.88202769E+02</pdfrwt>
<totfact> 0.15698354E+05</totfact>
</mgrwt>
</event>
<event>
 5    1  0.3854342E+001  0.9369713E+02  0.7546771E-02  0.1294138E+00
         -2   -1    0    0    0  501 -0.00000000000E+00  0.00000000000E+00  0.25514239001E+01  0.25514239001E+01  0.00000000000E+00 0.  1.
          2   -1    0    0  501    0  0.00000000000E+00 -0.00000000000E+00 -0.86022084599E+03  0.86022084599E+03  0.00000000000E+00 0. -1.
         23    2    1    2    0    0  0.00000000000E+00  0.00000000000E+00 -0.85766942209E+03  0.86277226989E+03  0.93697129644E+02 0.  0.
          2    1    3    3  502    0 -0.13386811631E+02 -0.20114272656E+02 -0.79842223502E+03  0.79878774156E+03  0.00000000000E+00 0. -1.
         -2    1    3    3    0  502  0.13386811631E+02  0.20114272656E+02 -0.59247187069E+02  0.63984528331E+02  0.00000000000E+00 0.  1.
<mgrwt>
<rscale>  0 0.93697130E+02</rscale>
<asrwt>0</asrwt>
<pdfrwt beam="2">  1        2 0.13234162E+00 0.93697130E+02</pdfrwt>
<pdfrwt beam="1">  1       -2 0.39252689E-03 0.93697130E+02</pdfrwt>
<totfact> 0.22942690E+05</totfact>
</mgrwt>
</event>
<event>
 5    1  0.3854342E+001  0.8467993E+02  0.7546771E-02  0.1316272E+00
         -1   -1    0    0    0  501 -0.00000000000E+00  0.00000000000E+00  0.51533811181E+01  0.51533811181E+01  0.00000000000E+00 0.  1.
          1   -1    0    0  501    0  0.00000000000E+00 -0.00000000000E+00 -0.34786341081E+03  0.34786341081E+03  0.00000000000E+00 0. -1.
         23    2    1    2    0    0  0.00000000000E+00  0.00000000000E+00 -0.34271002970E+03  0.35301679193E+03  0.84679932286E+02 0.  0.
          2    1    3    3  502    0  0.25482177851E+02  0.32996189513E+02 -0.20215445745E+03  0.20640861072E+03  0.00000000000E+00 0.  1.
         -2    1    3    3    0  502 -0.25482177851E+02 -0.32996189513E+02 -0.14055557224E+03  0.14660818121E+03  0.00000000000E+00 0. -1.
<mgrwt>
<rscale>  0 0.84679932E+02</rscale>
<asrwt>0</asrwt>
<pdfrwt beam="2">  1        1 0.53517450E-01 0.84679932E+02</pdfrwt>
<pdfrwt beam="1">  1       -1 0.79282784E-03 0.84679932E+02</pdfrwt>
<totfact> 0.16016535E+05</totfact>
</mgrwt>
</event>
<event>
 5    1  0.3854342E+001  0.9052425E+02  0.7546771E-02  0.1301587E+00
          1   -1    0    0  501    0  0.00000000000E+00  0.00000000000E+00  0.18160867809E+03  0.18160867809E+03  0.00000000000E+00 0. -1.
         -1   -1    0    0    0  501 -0.00000000000E+00 -0.00000000000E+00 -0.11280627018E+02  0.11280627018E+02  0.00000000000E+00 0.  1.
         23    2    1    2    0    0  0.00000000000E+00  0.00000000000E+00  0.17032805107E+03  0.19288930511E+03  0.90524245609E+02 0.  0.
          2    1    3    3  502    0  0.14912985651E+02  0.22153208846E+02  0.16303307052E+03  0.16520576226E+03  0.00000000000E+00 0. -1.
         -2    1    3    3    0  502 -0.14912985651E+02 -0.22153208846E+02  0.72949805587E+01  0.27683542847E+02  0.00000000000E+00 0.  1.
<mgrwt>
<rscale>  0 0.90524246E+02</rscale>
<asrwt>0</asrwt>
<pdfrwt beam="1">  1        1 0.27939794E-01 0.90524246E+02</pdfrwt>
<pdfrwt beam="2">  1       -1 0.17354812E-02 0.90524246E+02</pdfrwt>
<totfact> 0.11848674E+05</totfact>
</mgrwt>
</event>
<event>
 5    1  0.3854342E+001  0.8937489E+02  0.7546771E-02  0.1304373E+00
         -2   -1    0    0    0  501 -0.00000000000E+00  0.00000000000E+00  0.77302370050E+00  0.77302370050E+00  0.00000000000E+00 0.  1.
          2   -1    0    0  501    0  0.00000000000E+00 -0.00000000000E+00 -0.25833199258E+04  0.25833199258E+04  0.00000000000E+00 0. -1.
         23    2    1    2    0    0  0.00000000000E+00  0.00000000000E+00 -0.25825469021E+04  0.25840929495E+04  0.89374885256E+02 0.  0.
          2    1    3    3  502    0 -0.41858006942E+02 -0.10749049639E+02 -0.16200848249E+04  0.16206611227E+04  0.00000000000E+00 0. -1.
         -2    1    3    3    0  502  0.41858006942E+02  0.10749049639E+02 -0.96246207723E+03  0.96343182681E+03  0.00000000000E+00 0.  1.
<mgrwt>
<rscale>  0 0.89374885E+02</rscale>
<asrwt>0</asrwt>
<pdfrwt beam="2">  1        2 0.39743968E+00 0.89374885E+02</pdfrwt>
<pdfrwt beam="1">  1       -2 0.11892498E-03 0.89374885E+02</pdfrwt>
<totfact> 0.14809390E+05</totfact>
</mgrwt>
</event>
<event>
 5    1  0.3854342E+001  0.9025060E+02  0.7546771E-02  0.1302246E+00
          4   -1    0    0  501    0  0.00000000000E+00  0.00000000000E+00  0.51948593471E+03  0.51948593471E+03  0.00000000000E+00 0. -1.
         -4   -1    0    0    0  501 -0.00000000000E+00 -0.00000000000E+00 -0.39198225742E+01  0.39198225742E+01  0.00000000000E+00 0.  1.
         23    2    1    2    0    0  0.00000000000E+00  0.00000000000E+00  0.51556611213E+03  0.52340575728E+03  0.90250599862E+02 0.  0.
          2    1    3    3  502    0  0.10136470357E+02  0.38033651857E+02  0.38576438969E+03  0.38776728983E+03  0.00000000000E+00 0. -1.
         -2    1    3    3    0  502 -0.10136470357E+02 -0.38033651857E+02  0.12980172244E+03  0.13563846745E+03  0.00000000000E+00 0.  1.
<mgrwt>
<rscale>  0 0.90250600E+02</rscale>
<asrwt>0</asrwt>
<pdfrwt beam="1">  1        4 0.79920859E-01 0.90250600E+02</pdfrwt>
<pdfrwt beam="2">  1       -4 0.60305004E-03 0.90250600E+02</pdfrwt>
<totfact> 0.12992702E+04</totfact>
</mgrwt>
</event>
<event>
 5    1  0.3854342E+001  0.9022422E+02  0.7546771E-02  0.1302310E+00
          1   -1    0    0  501    0  0.00000000000E+00  0.00000000000E+00  0.52821933415E+03  0.52821933415E+03  0.00000000000E+00 0. -1.
         -1   -1    0    0    0  501 -0.00000000000E+00 -0.00000000000E+00 -0.38527605636E+01  0.38527605636E+01  0.00000000000E+00 0.  1.
         23    2    1    2    0    0  0.00000000000E+00  0.00000000000E+00  0.52436657359E+03  0.53207209472E+03  0.90224223346E+02 0.  0.
          2    1    3    3  502    0  0.14528780780E+02  0.41751827806E+02  0.20917320815E+03  0.21379366596E+03  0.00000000000E+00 0.  1.
         -2    1    3    3    0  502 -0.14528780780E+02 -0.41751827806E+02  0.31519336544E+03  0.31827842876E+03  0.00000000000E+00 0. -1.
<mgrwt>
<rscale>  0 0.90224223E+02</rscale>
<asrwt>0</asrwt>
<pdfrwt beam="1">  1        1 0.81264456E-01 0.90224223E+02</pdfrwt>
<pdfrwt beam="2">  1       -1 0.59273281E-03 0.90224223E+02</pdfrwt>
<totfact> 0.14406229E+05</totfact>
</mgrwt>
</event>
<event>
 5    1  0.3854342E+001  0.9158504E+02  0.7546771E-02  0.1299058E+00
          2   -1    0    0  501    0  0.00000000000E+00  0.00000000000E+00  0.48984968586E+03  0.48984968586E+03  0.00000000000E+00 0. -1.
         -2   -1    0    0    0  501 -0.00000000000E+00 -0.00000000000E+00 -0.42808125283E+01  0.42808125283E+01  0.00000000000E+00 0.  1.
         23    2    1    2    0    0  0.00000000000E+00  0.00000000000E+00  0.48556887333E+03  0.49413049838E+03  0.91585035288E+02 0.  0.
          2    1    3    3  502    0  0.76977266677E+01 -0.44976050896E+02  0.26357884102E+03  0.26749935623E+03  0.00000000000E+00 0. -1.
         -2    1    3    3    0  502 -0.76977266677E+01  0.44976050896E+02  0.22199003231E+03  0.22663114215E+03  0.00000000000E+00 0.  1.
<mgrwt>
<rscale>  0 0.91585035E+02</rscale>
<asrwt>0</asrwt>
<pdfrwt beam="1">  1        2 0.75361446E-01 0.91585035E+02</pdfrwt>
<pdfrwt beam="2">  1       -2 0.65858693E-03 0.91585035E+02</pdfrwt>
<totfact> 0.21153893E+05</totfact>
</mgrwt>
</event>
<event>
 5    1  0.3854342E+001  0.8875191E+02  0.7546771E-02  0.1305903E+00
         -1   -1    0    0    0  501 -0.00000000000E+00  0.00000000000E+00  0.16711644978E+02  0.16711644978E+02  0.00000000000E+00 0.  1.
          1   -1    0    0  501    0  0.00000000000E+00 -0.00000000000E+00 -0.11783551397E+03  0.11783551397E+03  0.00000000000E+00 0. -1.
         23    2    1    2    0    0  0.00000000000E+00  0.00000000000E+00 -0.10112386899E+03  0.13454715895E+03  0.88751907592E+02 0.  0.
          2    1    3    3  502    0  0.39008854860E+02 -0.49483775428E+01 -0.81743053615E+02  0.90708897095E+02  0.00000000000E+00 0. -1.
         -2    1    3    3    0  502 -0.39008854860E+02  0.49483775428E+01 -0.19380815378E+02  0.43838261855E+02  0.00000000000E+00 0.  1.
<mgrwt>
<rscale>  0 0.88751908E+02</rscale>
<asrwt>0</asrwt>
<pdfrwt beam="2">  1        1 0.18128541E-01 0.88751908E+02</pdfrwt>
<pdfrwt beam="1">  1       -1 0.25710223E-02 0.88751908E+02</pdfrwt>
<totfact> 0.11552855E+05</totfact>
</mgrwt>
</event>
<event>
 5    1  0.3854342E+001  0.9113051E+02  0.7546771E-02  0.1300137E+00
         -1   -1    0    0    0  501 -0.00000000000E+00  0.00000000000E+00  0.30441404464E+01  0.30441404464E+01  0.00000000000E+00 0.  1.
          1   -1    0    0  501    0  0.00000000000E+00 -0.00000000000E+00 -0.68202911296E+03  0.68202911296E+03  0.00000000000E+00 0. -1.
         23    2    1    2    0    0  0.00000000000E+00  0.00000000000E+00 -0.67898497252E+03  0.68507325341E+03  0.91130508797E+02 0.  0.
          2    1    3    3  502    0 -0.30693752895E+02 -0.30049610938E+02 -0.22521002059E+03  0.22926979512E+03  0.00000000000E+00 0. -1.
         -2    1    3    3    0  502  0.30693752895E+02  0.30049610938E+02 -0.45377495193E+03  0.45580345828E+03  0.00000000000E+00 0.  1.
<mgrwt>
<rscale>  0 0.91130509E+02</rscale>
<asrwt>0</asrwt>
<pdfrwt beam="2">  1        1 0.10492770E+00 0.91130509E+02</pdfrwt>
<pdfrwt beam="1">  1       -1 0.46832865E-03 0.91130509E+02</pdfrwt>
<totfact> 0.14237628E+05</totfact>
</mgrwt>
</event>
<event>
 5    1  0.3854342E+001  0.9095083E+02  0.7546771E-02  0.1300565E+00
          4   -1    0    0  501    0  0.00000000000E+00  0.00000000000E+00  0.12494200195E+03  0.12494200195E+03  0.00000000000E+00 0.  1.
         -4   -1    0    0    0  501 -0.00000000000E+00 -0.00000000000E+00 -0.16551787507E+02  0.16551787507E+02  0.00000000000E+00 0. -1.
         23    2    1    2    0    0  0.00000000000E+00  0.00000000000E+00  0.10839021445E+03  0.14149378946E+03  0.90950832145E+02 0.  0.
          2    1    3    3  502    0  0.45415690382E+02  0.18861655098E+00  0.50582304783E+02  0.67979335583E+02  0.00000000000E+00 0.  1.
         -2    1    3    3    0  502 -0.45415690382E+02 -0.18861655098E+00  0.57807909663E+02  0.73514453876E+02  0.00000000000E+00 0. -1.
<mgrwt>
<rscale>  0 0.90950832E+02</rscale>
<asrwt>0</asrwt>
<pdfrwt beam="1">  1        4 0.19221846E-01 0.90950832E+02</pdfrwt>
<pdfrwt beam="2">  1       -4 0.25464289E-02 0.90950832E+02</pdfrwt>
<totfact> 0.24269202E+04</totfact>
</mgrwt>
</event>
<event>
 5    1  0.3854342E+001  0.8987891E+02  0.7546771E-02  0.1303145E+00
         -2   -1    0    0    0  501 -0.00000000000E+00  0.00000000000E+00  0.74067419406E+00  0.74067419406E+00  0.00000000000E+00 0. -1.
          2   -1    0    0  501    0  0.00000000000E+00 -0.00000000000E+00 -0.27266438229E+04  0.27266438229E+04  0.00000000000E+00 0.  1.
         23    2    1    2    0    0  0.00000000000E+00  0.00000000000E+00 -0.27259031487E+04  0.27273844971E+04  0.89878912233E+02 0.  0.
          2    1    3    3  502    0  0.43600720696E+02  0.39581728297E+01 -0.16707184130E+04  0.16712919271E+04  0.00000000000E+00 0.  1.
         -2    1    3    3    0  502 -0.43600720696E+02 -0.39581728297E+01 -0.10551847357E+04  0.10560925700E+04  0.00000000000E+00 0. -1.
<mgrwt>
<rscale>  0 0.89878912E+02</rscale>
<asrwt>0</asrwt>
<pdfrwt beam="2">  1        2 0.41949331E+00 0.89878912E+02</pdfrwt>
<pdfrwt beam="1">  1       -2 0.11394726E-03 0.89878912E+02</pdfrwt>
<totfact> 0.13166775E+05</totfact>
</mgrwt>
</event>
<event>
 5    1  0.3854342E+001  0.1257649E+03  0.7546771E-02  0.1233879E+00
         -2   -1    0    0    0  501 -0.00000000000E+00  0.00000000000E+00  0.23893844013E+02  0.23893844013E+02  0.00000000000E+00 0. -1.
          2   -1    0    0  501    0  0.00000000000E+00 -0.00000000000E+00 -0.16549044569E+03  0.16549044569E+03  0.00000000000E+00 0.  1.
         23    2    1    2    0    0  0.00000000000E+00  0.00000000000E+00 -0.14159660168E+03  0.18938428971E+03  0.12576490600E+03 0.  0.
          2    1    3    3  502    0  0.24076280677E+02 -0.56497488089E+02 -0.50451388003E+02  0.79479406157E+02  0.00000000000E+00 0.  1.
         -2    1    3    3    0  502 -0.24076280677E+02  0.56497488089E+02 -0.91145213677E+02  0.10990488355E+03  0.00000000000E+00 0. -1.
<mgrwt>
<rscale>  0 0.12576491E+03</rscale>
<asrwt>0</asrwt>
<pdfrwt beam="2">  1        2 0.25460070E-01 0.12576491E+03</pdfrwt>
<pdfrwt beam="1">  1       -2 0.36759758E-02 0.12576491E+03</pdfrwt>
<totfact> 0.59408327E+04</totfact>
</mgrwt>
</event>
<event>
 5    1  0.3854342E+001  0.7909703E+02  0.7546771E-02  0.1331634E+00
         -1   -1    0    0    0  501 -0.00000000000E+00  0.00000000000E+00  0.63579038721E+01  0.63579038721E+01  0.00000000000E+00 0.  1.
          1   -1    0    0  501    0  0.00000000000E+00 -0.00000000000E+00 -0.24600640223E+03  0.24600640223E+03  0.00000000000E+00 0. -1.
         23    2    1    2    0    0  0.00000000000E+00  0.00000000000E+00 -0.23964849835E+03  0.25236430610E+03  0.79097030469E+02 0.  0.
          2    1    3    3  502    0  0.21031693699E+01  0.29000431829E+02 -0.20535503124E+03  0.20740332019E+03  0.00000000000E+00 0. -1.
         -2    1    3    3    0  502 -0.21031693699E+01 -0.29000431829E+02 -0.34293467112E+02  0.44960985912E+02  0.00000000000E+00 0.  1.
<mgrwt>
<rscale>  0 0.79097030E+02</rscale>
<asrwt>0</asrwt>
<pdfrwt beam="2">  1        1 0.37847131E-01 0.79097030E+02</pdfrwt>
<pdfrwt beam="1">  1       -1 0.97813925E-03 0.79097030E+02</pdfrwt>
<totfact> 0.17969874E+05</totfact>
</mgrwt>
</event>
<event>
 5    1  0.3854342E+001  0.8877227E+02  0.7546771E-02  0.1305852E+00
         -1   -1    0    0    0  501 -0.00000000000E+00  0.00000000000E+00  0.30096032919E+01  0.30096032919E+01  0.00000000000E+00 0.  1.
          1   -1    0    0  501    0  0.00000000000E+00 -0.00000000000E+00 -0.65461418462E+03  0.65461418462E+03  0.00000000000E+00 0. -1.
         23    2    1    2    0    0  0.00000000000E+00  0.00000000000E+00 -0.65160458133E+03  0.65762378791E+03  0.88772270557E+02 0.  0.
          2    1    3    3  502    0  0.28889698244E+02 -0.79585382481E+01 -0.56837013511E+03  0.56915952375E+03  0.00000000000E+00 0. -1.
         -2    1    3    3    0  502 -0.28889698244E+02  0.79585382481E+01 -0.83234446219E+02  0.88464264159E+02  0.00000000000E+00 0.  1.
<mgrwt>
<rscale>  0 0.88772271E+02</rscale>
<asrwt>0</asrwt>
<pdfrwt beam="2">  1        1 0.10070981E+00 0.88772271E+02</pdfrwt>
<pdfrwt beam="1">  1       -1 0.46301619E-03 0.88772271E+02</pdfrwt>
<totfact> 0.15250283E+05</totfact>
</mgrwt>
</event>
<event>
 5    1  0.3854342E+001  0.1038523E+03  0.7546771E-02  0.1272398E+00
          2   -1    0    0  501    0  0.00000000000E+00  0.00000000000E+00  0.25299802750E+03  0.25299802750E+03  0.00000000000E+00 0. -1.
         -2   -1    0    0    0  501 -0.00000000000E+00 -0.00000000000E+00 -0.10657492496E+02  0.10657492496E+02  0.00000000000E+00 0.  1.
         23    2    1    2    0    0  0.00000000000E+00  0.00000000000E+00  0.24234053500E+03  0.26365551999E+03  0.10385229087E+03 0.  0.
          2    1    3    3  502    0 -0.82695749641E+01  0.18961878461E+02  0.24208500975E+03  0.24296726250E+03  0.00000000000E+00 0. -1.
         -2    1    3    3    0  502  0.82695749641E+01 -0.18961878461E+02  0.25552525682E+00  0.20688257491E+02  0.00000000000E+00 0.  1.
<mgrwt>
<rscale>  0 0.10385229E+03</rscale>
<asrwt>0</asrwt>
<pdfrwt beam="1">  1        2 0.38922769E-01 0.10385229E+03</pdfrwt>
<pdfrwt beam="2">  1       -2 0.16396144E-02 0.10385229E+03</pdfrwt>
<totfact> 0.11865873E+05</totfact>
</mgrwt>
</event>
<event>
 5    1  0.3854342E+001  0.8988090E+02  0.7546771E-02  0.1303140E+00
         -2   -1    0    0    0  501 -0.00000000000E+00  0.00000000000E+00  0.29487126504E+01  0.29487126504E+01  0.00000000000E+00 0.  1.
          2   -1    0    0  501    0  0.00000000000E+00 -0.00000000000E+00 -0.68492394994E+03  0.68492394994E+03  0.00000000000E+00 0. -1.
         23    2    1    2    0    0  0.00000000000E+00  0.00000000000E+00 -0.68197523729E+03  0.68787266259E+03  0.89880897098E+02 0.  0.
          2    1    3    3  502    0  0.20705784618E+02 -0.39620710412E+02 -0.30582162591E+03  0.30907183159E+03  0.00000000000E+00 0. -1.
         -2    1    3    3    0  502 -0.20705784618E+02  0.39620710412E+02 -0.37615361139E+03  0.37880083100E+03  0.00000000000E+00 0.  1.
<mgrwt>
<rscale>  0 0.89880897E+02</rscale>
<asrwt>0</asrwt>
<pdfrwt beam="2">  1        2 0.10537304E+00 0.89880897E+02</pdfrwt>
<pdfrwt beam="1">  1       -2 0.45364755E-03 0.89880897E+02</pdfrwt>
<totfact> 0.24499484E+05</totfact>
</mgrwt>
</event>
<event>
 5    1  0.3854342E+001  0.1001418E+03  0.7546771E-02  0.1279998E+00
         -3   -1    0    0    0  501 -0.00000000000E+00  0.00000000000E+00  0.21374086288E+03  0.21374086288E+03  0.00000000000E+00 0.  1.
          3   -1    0    0  501    0  0.00000000000E+00 -0.00000000000E+00 -0.11729591492E+02  0.11729591492E+02  0.00000000000E+00 0. -1.
         23    2    1    2    0    0  0.00000000000E+00  0.00000000000E+00  0.20201127138E+03  0.22547045437E+03  0.10014175965E+03 0.  0.
          2    1    3    3  502    0  0.25085657403E+02 -0.14248811750E+01  0.34921894050E+01  0.25367614798E+02  0.00000000000E+00 0. -1.
         -2    1    3    3    0  502 -0.25085657403E+02  0.14248811750E+01  0.19851908198E+03  0.20010283957E+03  0.00000000000E+00 0.  1.
<mgrwt>
<rscale>  0 0.10014176E+03</rscale>
<asrwt>0</asrwt>
<pdfrwt beam="2">  1        3 0.18045527E-02 0.10014176E+03</pdfrwt>
<pdfrwt beam="1">  1       -3 0.32883207E-01 0.10014176E+03</pdfrwt>
<totfact> 0.21116351E+04</totfact>
</mgrwt>
</event>
<event>
 5    1  0.3854342E+001  0.9241582E+02  0.7546771E-02  0.1297105E+00
          2   -1    0    0  501    0  0.00000000000E+00  0.00000000000E+00  0.11167110379E+01  0.11167110379E+01  0.00000000000E+00 0. -1.
         -2   -1    0    0    0  501 -0.00000000000E+00 -0.00000000000E+00 -0.19120176034E+04  0.19120176034E+04  0.00000000000E+00 0.  1.
         23    2    1    2    0    0  0.00000000000E+00  0.00000000000E+00 -0.19109008923E+04  0.19131343144E+04  0.92415824669E+02 0.  0.
          2    1    3    3  502    0  0.10795800151E+01 -0.44308091628E+02 -0.12259966099E+04  0.12267974812E+04  0.00000000000E+00 0. -1.
         -2    1    3    3    0  502 -0.10795800151E+01  0.44308091628E+02 -0.68490428241E+03  0.68633683315E+03  0.00000000000E+00 0.  1.
<mgrwt>
<rscale>  0 0.92415825E+02</rscale>
<asrwt>0</asrwt>
<pdfrwt beam="1">  1        2 0.17180292E-03 0.92415825E+02</pdfrwt>
<pdfrwt beam="2">  1       -2 0.29415445E+00 0.92415825E+02</pdfrwt>
<totfact> 0.62472564E+03</totfact>
</mgrwt>
</event>
<event>
 5    1  0.3854342E+001  0.8997905E+02  0.7546771E-02  0.1302902E+00
         -1   -1    0    0    0  501 -0.00000000000E+00  0.00000000000E+00  0.19380603791E+03  0.19380603791E+03  0.00000000000E+00 0.  1.
          1   -1    0    0  501    0  0.00000000000E+00 -0.00000000000E+00 -0.10443727507E+02  0.10443727507E+02  0.00000000000E+00 0. -1.
         23    2    1    2    0    0  0.00000000000E+00  0.00000000000E+00  0.18336231041E+03  0.20424976542E+03  0.89979051990E+02 0.  0.
          2    1    3    3  502    0 -0.27654637054E+02  0.32307497971E+02  0.58357863478E+02  0.72209373391E+02  0.00000000000E+00 0. -1.
         -2    1    3    3    0  502  0.27654637054E+02 -0.32307497971E+02  0.12500444693E+03  0.13204039203E+03  0.00000000000E+00 0.  1.
<mgrwt>
<rscale>  0 0.89979052E+02</rscale>
<asrwt>0</asrwt>
<pdfrwt beam="2">  1        1 0.16067275E-02 0.89979052E+02</pdfrwt>
<pdfrwt beam="1">  1       -1 0.29816311E-01 0.89979052E+02</pdfrwt>
<totfact> 0.72496960E+04</totfact>
</mgrwt>
</event>
<event>
 5    1  0.3854342E+001  0.8215180E+02  0.7546771E-02  0.1323054E+00
          2   -1    0    0  501    0  0.00000000000E+00  0.00000000000E+00  0.52443445785E+02  0.52443445785E+02  0.00000000000E+00 0. -1.
         -2   -1    0    0    0  501 -0.00000000000E+00 -0.00000000000E+00 -0.32172361806E+02  0.32172361806E+02  0.00000000000E+00 0.  1.
         23    2    1    2    0    0  0.00000000000E+00  0.00000000000E+00  0.20271083979E+02  0.84615807591E+02  0.82151798815E+02 0.  0.
          2    1    3    3  502    0  0.29470226932E+02  0.23803112733E+02  0.26490949961E+02  0.46226106055E+02  0.00000000000E+00 0. -1.
         -2    1    3    3    0  502 -0.29470226932E+02 -0.23803112733E+02 -0.62198659814E+01  0.38389701536E+02  0.00000000000E+00 0.  1.
<mgrwt>
<rscale>  0 0.82151799E+02</rscale>
<asrwt>0</asrwt>
<pdfrwt beam="1">  1        2 0.80682225E-02 0.82151799E+02</pdfrwt>
<pdfrwt beam="2">  1       -2 0.49495941E-02 0.82151799E+02</pdfrwt>
<totfact> 0.13723165E+05</totfact>
</mgrwt>
</event>
<event>
 5    1  0.3854342E+001  0.9715079E+02  0.7546771E-02  0.1286404E+00
          2   -1    0    0  501    0  0.00000000000E+00  0.00000000000E+00  0.47503351819E+03  0.47503351819E+03  0.00000000000E+00 0. -1.
         -2   -1    0    0    0  501 -0.00000000000E+00 -0.00000000000E+00 -0.49671636172E+01  0.49671636172E+01  0.00000000000E+00 0.  1.
         23    2    1    2    0    0  0.00000000000E+00  0.00000000000E+00  0.47006635457E+03  0.48000068181E+03  0.97150794305E+02 0.  0.
          2    1    3    3  502    0 -0.20946441354E+02  0.20237562809E+02  0.42710543458E+03  0.42809737748E+03  0.00000000000E+00 0. -1.
         -2    1    3    3    0  502  0.20946441354E+02 -0.20237562809E+02  0.42960919989E+02  0.51903304328E+02  0.00000000000E+00 0.  1.
<mgrwt>
<rscale>  0 0.97150794E+02</rscale>
<asrwt>0</asrwt>
<pdfrwt beam="1">  1        2 0.73082044E-01 0.97150794E+02</pdfrwt>
<pdfrwt beam="2">  1       -2 0.76417939E-03 0.97150794E+02</pdfrwt>
<totfact> 0.17899600E+05</totfact>
</mgrwt>
</event>
<event>
 5    1  0.3854342E+001  0.9074875E+02  0.7546771E-02  0.1301049E+00
         -2   -1    0    0    0  501 -0.00000000000E+00  0.00000000000E+00  0.59824707571E+01  0.59824707571E+01  0.00000000000E+00 0.  1.
          2   -1    0    0  501    0  0.00000000000E+00 -0.00000000000E+00 -0.34414445242E+03  0.34414445242E+03  0.00000000000E+00 0. -1.
         23    2    1    2    0    0  0.00000000000E+00  0.00000000000E+00 -0.33816198166E+03  0.35012692318E+03  0.90748754765E+02 0.  0.
          2    1    3    3  502    0  0.20833943919E+02 -0.22387554342E+02 -0.39754793738E+02  0.50156748636E+02  0.00000000000E+00 0.  1.
         -2    1    3    3    0  502 -0.20833943919E+02  0.22387554342E+02 -0.29840718793E+03  0.29997017454E+03  0.00000000000E+00 0. -1.
<mgrwt>
<rscale>  0 0.90748755E+02</rscale>
<asrwt>0</asrwt>
<pdfrwt beam="2">  1        2 0.52945302E-01 0.90748755E+02</pdfrwt>
<pdfrwt beam="1">  1       -2 0.92038008E-03 0.90748755E+02</pdfrwt>
<totfact> 0.19140567E+05</totfact>
</mgrwt>
</event>
<event>
 5    1  0.3854342E+001  0.9096528E+02  0.7546771E-02  0.1300531E+00
          2   -1    0    0  501    0  0.00000000000E+00  0.00000000000E+00  0.11886817710E+04  0.11886817710E+04  0.00000000000E+00 0.  1.
         -2   -1    0    0    0  501 -0.00000000000E+00 -0.00000000000E+00 -0.17403065137E+01  0.17403065137E+01  0.00000000000E+00 0. -1.
         23    2    1    2    0    0  0.00000000000E+00  0.00000000000E+00  0.11869414645E+04  0.11904220776E+04  0.90965281923E+02 0.  0.
          2    1    3    3  502    0  0.39300261049E+02 -0.63958261969E+01  0.30578864915E+03  0.30837009430E+03  0.00000000000E+00 0. -1.
         -2    1    3    3    0  502 -0.39300261049E+02  0.63958261969E+01  0.88115281538E+03  0.88205198326E+03  0.00000000000E+00 0.  1.
<mgrwt>
<rscale>  0 0.90965282E+02</rscale>
<asrwt>0</asrwt>
<pdfrwt beam="1">  1        2 0.18287347E+00 0.90965282E+02</pdfrwt>
<pdfrwt beam="2">  1       -2 0.26774041E-03 0.90965282E+02</pdfrwt>
<totfact> 0.25045976E+05</totfact>
</mgrwt>
</event>
<event>
 5    1  0.3854342E+001  0.9241053E+02  0.7546771E-02  0.1297117E+00
         -2   -1    0    0    0  501 -0.00000000000E+00  0.00000000000E+00  0.12920973859E+02  0.12920973859E+02  0.00000000000E+00 0.  1.
          2   -1    0    0  501    0  0.00000000000E+00 -0.00000000000E+00 -0.16522955147E+03  0.16522955147E+03  0.00000000000E+00 0. -1.
         23    2    1    2    0    0  0.00000000000E+00  0.00000000000E+00 -0.15230857761E+03  0.17815052533E+03  0.92410534362E+02 0.  0.
          2    1    3    3  502    0 -0.89168841407E+01  0.33198612792E+02 -0.16632889402E+02  0.38187847857E+02  0.00000000000E+00 0. -1.
         -2    1    3    3    0  502  0.89168841407E+01 -0.33198612792E+02 -0.13567568821E+03  0.13996267747E+03  0.00000000000E+00 0.  1.
<mgrwt>
<rscale>  0 0.92410534E+02</rscale>
<asrwt>0</asrwt>
<pdfrwt beam="2">  1        2 0.25419930E-01 0.92410534E+02</pdfrwt>
<pdfrwt beam="1">  1       -2 0.19878422E-02 0.92410534E+02</pdfrwt>
<totfact> 0.13936642E+05</totfact>
</mgrwt>
</event>
<event>
 5    1  0.3854342E+001  0.9829957E+02  0.7546771E-02  0.1283913E+00
          1   -1    0    0  501    0  0.00000000000E+00  0.00000000000E+00  0.40013230396E+01  0.40013230396E+01  0.00000000000E+00 0. -1.
         -1   -1    0    0    0  501 -0.00000000000E+00 -0.00000000000E+00 -0.60372568627E+03  0.60372568627E+03  0.00000000000E+00 0.  1.
         23    2    1    2    0    0  0.00000000000E+00  0.00000000000E+00 -0.59972436323E+03  0.60772700931E+03  0.98299572697E+02 0.  0.
          2    1    3    3  502    0 -0.41857801045E+02  0.16267522231E+02 -0.17636986636E+03  0.18199735588E+03  0.00000000000E+00 0. -1.
         -2    1    3    3    0  502  0.41857801045E+02 -0.16267522231E+02 -0.42335449687E+03  0.42572965343E+03  0.00000000000E+00 0.  1.
<mgrwt>
<rscale>  0 0.98299573E+02</rscale>
<asrwt>0</asrwt>
<pdfrwt beam="1">  1        1 0.61558807E-03 0.98299573E+02</pdfrwt>
<pdfrwt beam="2">  1       -1 0.92880889E-01 0.98299573E+02</pdfrwt>
<totfact> 0.33982542E+04</totfact>
</mgrwt>
</event>
<event>
 5    1  0.3854342E+001  0.9121143E+02  0.7546771E-02  0.1299944E+00
          1   -1    0    0  501    0  0.00000000000E+00  0.00000000000E+00  0.13680157261E+04  0.13680157261E+04  0.00000000000E+00 0. -1.
         -1   -1    0    0    0  501 -0.00000000000E+00 -0.00000000000E+00 -0.15203636081E+01  0.15203636081E+01  0.00000000000E+00 0.  1.
         23    2    1    2    0    0  0.00000000000E+00  0.00000000000E+00  0.13664953624E+04  0.13695360897E+04  0.91211431853E+02 0.  0.
          2    1    3    3  502    0 -0.28280470594E+02  0.23441507165E+02  0.10890940633E+04  0.10897133421E+04  0.00000000000E+00 0. -1.
         -2    1    3    3    0  502  0.28280470594E+02 -0.23441507165E+02  0.27740129916E+03  0.27982274755E+03  0.00000000000E+00 0.  1.
<mgrwt>
<rscale>  0 0.91211432E+02</rscale>
<asrwt>0</asrwt>
<pdfrwt beam="1">  1        1 0.21046297E+00 0.91211432E+02</pdfrwt>
<pdfrwt beam="2">  1       -1 0.23390319E-03 0.91211432E+02</pdfrwt>
<totfact> 0.11815277E+05</totfact>
</mgrwt>
</event>
<event>
 5    1  0.3854342E+001  0.9164061E+02  0.7546771E-02  0.1298927E+00
          2   -1    0    0  501    0  0.00000000000E+00  0.00000000000E+00  0.10592573471E+04  0.10592573471E+04  0.00000000000E+00 0. -1.
         -2   -1    0    0    0  501 -0.00000000000E+00 -0.00000000000E+00 -0.19820492601E+01  0.19820492601E+01  0.00000000000E+00 0.  1.
         23    2    1    2    0    0  0.00000000000E+00  0.00000000000E+00  0.10572752979E+04  0.10612393964E+04  0.91640607618E+02 0.  0.
          2    1    3    3  502    0  0.45038716696E+02  0.33594798513E+01  0.61813596822E+03  0.61978371011E+03  0.00000000000E+00 0. -1.
         -2    1    3    3    0  502 -0.45038716696E+02 -0.33594798513E+01  0.43913932967E+03  0.44145568630E+03  0.00000000000E+00 0.  1.
<mgrwt>
<rscale>  0 0.91640608E+02</rscale>
<asrwt>0</asrwt>
<pdfrwt beam="1">  1        2 0.16296222E+00 0.91640608E+02</pdfrwt>
<pdfrwt beam="2">  1       -2 0.30493150E-03 0.91640608E+02</pdfrwt>
<totfact> 0.24701092E+05</totfact>
</mgrwt>
</event>
<event>
 5    1  0.3854342E+001  0.9153316E+02  0.7546771E-02  0.1299181E+00
          1   -1    0    0  501    0  0.00000000000E+00  0.00000000000E+00  0.11958281775E+03  0.11958281775E+03  0.00000000000E+00 0. -1.
         -1   -1    0    0    0  501 -0.00000000000E+00 -0.00000000000E+00 -0.17515724088E+02  0.17515724088E+02  0.00000000000E+00 0.  1.
         23    2    1    2    0    0  0.00000000000E+00  0.00000000000E+00  0.10206709366E+03  0.13709854183E+03  0.91533155550E+02 0.  0.
          2    1    3    3  502    0  0.89199840255E+01  0.26023390117E+02  0.10581700711E+03  0.10933444993E+03  0.00000000000E+00 0. -1.
         -2    1    3    3    0  502 -0.89199840255E+01 -0.26023390117E+02 -0.37499134514E+01  0.27764091902E+02  0.00000000000E+00 0.  1.
<mgrwt>
<rscale>  0 0.91533156E+02</rscale>
<asrwt>0</asrwt>
<pdfrwt beam="1">  1        1 0.18397356E-01 0.91533156E+02</pdfrwt>
<pdfrwt beam="2">  1       -1 0.26947269E-02 0.91533156E+02</pdfrwt>
<totfact> 0.10653921E+05</totfact>
</mgrwt>
</event>
<event>
 5    1  0.3854342E+001  0.9192858E+02  0.7546771E-02  0.1298247E+00
         -1   -1    0    0    0  501 -0.00000000000E+00  0.00000000000E+00  0.27147598713E+03  0.27147598713E+03  0.00000000000E+00 0.  1.
          1   -1    0    0  501    0  0.00000000000E+00 -0.00000000000E+00 -0.77823306830E+01  0.77823306830E+01  0.00000000000E+00 0. -1.
         23    2    1    2    0    0  0.00000000000E+00  0.00000000000E+00  0.26369365645E+03  0.27925831781E+03  0.91928578893E+02 0.  0.
          2    1    3    3  502    0 -0.38804303010E+02  0.21536730845E+02  0.95506204428E+02  0.10531400568E+03  0.00000000000E+00 0. -1.
         -2    1    3    3    0  502  0.38804303010E+02 -0.21536730845E+02  0.16818745202E+03  0.17394431213E+03  0.00000000000E+00 0.  1.
<mgrwt>
<rscale>  0 0.91928579E+02</rscale>
<asrwt>0</asrwt>
<pdfrwt beam="2">  1        1 0.11972818E-02 0.91928579E+02</pdfrwt>
<pdfrwt beam="1">  1       -1 0.41765529E-01 0.91928579E+02</pdfrwt>
<totfact> 0.61581726E+04</totfact>
</mgrwt>
</event>
<event>
 5    1  0.3854342E+001  0.9168738E+02  0.7546771E-02  0.1298816E+00
         -2   -1    0    0    0  501 -0.00000000000E+00  0.00000000000E+00  0.17586715754E+02  0.17586715754E+02  0.00000000000E+00 0. -1.
          2   -1    0    0  501    0  0.00000000000E+00 -0.00000000000E+00 -0.11950177631E+03  0.11950177631E+03  0.00000000000E+00 0.  1.
         23    2    1    2    0    0  0.00000000000E+00  0.00000000000E+00 -0.10191506056E+03  0.13708849206E+03  0.91687376929E+02 0.  0.
          2    1    3    3  502    0 -0.40776613495E+01 -0.24424957466E+02  0.67266614203E+01  0.25660355476E+02  0.00000000000E+00 0. -1.
         -2    1    3    3    0  502  0.40776613495E+01  0.24424957466E+02 -0.10864172198E+03  0.11142813659E+03  0.00000000000E+00 0.  1.
<mgrwt>
<rscale>  0 0.91687377E+02</rscale>
<asrwt>0</asrwt>
<pdfrwt beam="2">  1        2 0.18384888E-01 0.91687377E+02</pdfrwt>
<pdfrwt beam="1">  1       -2 0.27056486E-02 0.91687377E+02</pdfrwt>
<totfact> 0.12772372E+05</totfact>
</mgrwt>
</event>
<event>
 5    1  0.3854342E+001  0.9016187E+02  0.7546771E-02  0.1302460E+00
         -3   -1    0    0    0  501 -0.00000000000E+00  0.00000000000E+00  0.74059368067E+03  0.74059368067E+03  0.00000000000E+00 0.  1.
          3   -1    0    0  501    0  0.00000000000E+00 -0.00000000000E+00 -0.27441373809E+01  0.27441373809E+01  0.00000000000E+00 0. -1.
         23    2    1    2    0    0  0.00000000000E+00  0.00000000000E+00  0.73784954329E+03  0.74333781805E+03  0.90161872279E+02 0.  0.
          2    1    3    3  502    0 -0.12002310298E+01 -0.43971982964E+02  0.28759433242E+03  0.29093895559E+03  0.00000000000E+00 0. -1.
         -2    1    3    3    0  502  0.12002310298E+01  0.43971982964E+02  0.45025521087E+03  0.45239886246E+03  0.00000000000E+00 0.  1.
<mgrwt>
<rscale>  0 0.90161872E+02</rscale>
<asrwt>0</asrwt>
<pdfrwt beam="2">  1        3 0.42217557E-03 0.90161872E+02</pdfrwt>
<pdfrwt beam="1">  1       -3 0.11393733E+00 0.90161872E+02</pdfrwt>
<totfact> 0.13599097E+04</totfact>
</mgrwt>
</event>
<event>
 5    1  0.3854342E+001  0.9154174E+02  0.7546771E-02  0.1299161E+00
         -3   -1    0    0    0  501 -0.00000000000E+00  0.00000000000E+00  0.33120939780E+03  0.33120939780E+03  0.00000000000E+00 0.  1.
          3   -1    0    0  501    0  0.00000000000E+00 -0.00000000000E+00 -0.63252205662E+01  0.63252205662E+01  0.00000000000E+00 0. -1.
         23    2    1    2    0    0  0.00000000000E+00  0.00000000000E+00  0.32488417723E+03  0.33753461836E+03  0.91541738998E+02 0.  0.
          2    1    3    3  502    0  0.19201895246E+01 -0.44274617456E+02  0.12023289089E+03  0.12814006763E+03  0.00000000000E+00 0. -1.
         -2    1    3    3    0  502 -0.19201895246E+01  0.44274617456E+02  0.20465128634E+03  0.20939455074E+03  0.00000000000E+00 0.  1.
<mgrwt>
<rscale>  0 0.91541739E+02</rscale>
<asrwt>0</asrwt>
<pdfrwt beam="2">  1        3 0.97311112E-03 0.91541739E+02</pdfrwt>
<pdfrwt beam="1">  1       -3 0.50955278E-01 0.91541739E+02</pdfrwt>
<totfact> 0.22396411E+04</totfact>
</mgrwt>
</event>
<event>
 5    1  0.3854342E+001  0.9471737E+02  0.7546771E-02  0.1291814E+00
         -1   -1    0    0    0  501 -0.00000000000E+00  0.00000000000E+00  0.74329909805E+01  0.74329909805E+01  0.00000000000E+00 0.  1.
          1   -1    0    0  501    0  0.00000000000E+00 -0.00000000000E+00 -0.30174193527E+03  0.30174193527E+03  0.00000000000E+00 0. -1.
         23    2    1    2    0    0  0.00000000000E+00  0.00000000000E+00 -0.29430894429E+03  0.30917492625E+03  0.94717370810E+02 0.  0.
          2    1    3    3  502    0 -0.99672646207E+01  0.40494283635E+02 -0.22041425990E+03  0.22432471852E+03  0.00000000000E+00 0. -1.
         -2    1    3    3    0  502  0.99672646207E+01 -0.40494283635E+02 -0.73894684389E+02  0.84850207731E+02  0.00000000000E+00 0.  1.
<mgrwt>
<rscale>  0 0.94717371E+02</rscale>
<asrwt>0</asrwt>
<pdfrwt beam="2">  1        1 0.46421829E-01 0.94717371E+02</pdfrwt>
<pdfrwt beam="1">  1       -1 0.11435372E-02 0.94717371E+02</pdfrwt>
<totfact> 0.11585351E+05</totfact>
</mgrwt>
</event>
<event>
 5    1  0.3854342E+001  0.9281000E+02  0.7546771E-02  0.1296186E+00
          3   -1    0    0  501    0  0.00000000000E+00  0.00000000000E+00  0.33563268851E+02  0.33563268851E+02  0.00000000000E+00 0. -1.
         -3   -1    0    0    0  501 -0.00000000000E+00 -0.00000000000E+00 -0.64160136095E+02  0.64160136095E+02  0.00000000000E+00 0.  1.
         23    2    1    2    0    0  0.00000000000E+00  0.00000000000E+00 -0.30596867244E+02  0.97723404946E+02  0.92809997248E+02 0.  0.
          2    1    3    3  502    0  0.25030491305E+02 -0.70609040648E+01 -0.55765363650E+02  0.61531761263E+02  0.00000000000E+00 0.  1.
         -2    1    3    3    0  502 -0.25030491305E+02  0.70609040648E+01  0.25168496406E+02  0.36191643683E+02  0.00000000000E+00 0. -1.
<mgrwt>
<rscale>  0 0.92809997E+02</rscale>
<asrwt>0</asrwt>
<pdfrwt beam="1">  1        3 0.51635799E-02 0.92809997E+02</pdfrwt>
<pdfrwt beam="2">  1       -3 0.98707900E-02 0.92809997E+02</pdfrwt>
<totfact> 0.33193624E+04</totfact>
</mgrwt>
</event>
<event>
 5    1  0.3854342E+001  0.8940571E+02  0.7546771E-02  0.1304297E+00
          2   -1    0    0  501    0  0.00000000000E+00  0.00000000000E+00  0.99547680606E+01  0.99547680606E+01  0.00000000000E+00 0.  1.
         -2   -1    0    0    0  501 -0.00000000000E+00 -0.00000000000E+00 -0.20074250216E+03  0.20074250216E+03  0.00000000000E+00 0. -1.
         23    2    1    2    0    0  0.00000000000E+00  0.00000000000E+00 -0.19078773409E+03  0.21069727022E+03  0.89405705609E+02 0.  0.
          2    1    3    3  502    0  0.10589022816E+02  0.32319780759E+02 -0.16376287640E+03  0.16725721306E+03  0.00000000000E+00 0. -1.
         -2    1    3    3    0  502 -0.10589022816E+02 -0.32319780759E+02 -0.27024857691E+02  0.43440057156E+02  0.00000000000E+00 0.  1.
<mgrwt>
<rscale>  0 0.89405706E+02</rscale>
<asrwt>0</asrwt>
<pdfrwt beam="1">  1        2 0.15315029E-02 0.89405706E+02</pdfrwt>
<pdfrwt beam="2">  1       -2 0.30883459E-01 0.89405706E+02</pdfrwt>
<totfact> 0.65412292E+04</totfact>
</mgrwt>
</event>
<event>
 5    1  0.3854342E+001  0.9232734E+02  0.7546771E-02  0.1297312E+00
          2   -1    0    0  501    0  0.00000000000E+00  0.00000000000E+00  0.13924066432E+03  0.13924066432E+03  0.00000000000E+00 0. -1.
         -2   -1    0    0    0  501 -0.00000000000E+00 -0.00000000000E+00 -0.15305042044E+02  0.15305042044E+02  0.00000000000E+00 0.  1.
         23    2    1    2    0    0  0.00000000000E+00  0.00000000000E+00  0.12393562228E+03  0.15454570636E+03  0.92327335532E+02 0.  0.
          2    1    3    3  502    0  0.24389656506E+02 -0.74567030494E+01  0.12637723198E+03  0.12892502677E+03  0.00000000000E+00 0. -1.
         -2    1    3    3    0  502 -0.24389656506E+02  0.74567030494E+01 -0.24416097038E+01  0.25620679593E+02  0.00000000000E+00 0.  1.
<mgrwt>
<rscale>  0 0.92327336E+02</rscale>
<asrwt>0</asrwt>
<pdfrwt beam="1">  1        2 0.21421640E-01 0.92327336E+02</pdfrwt>
<pdfrwt beam="2">  1       -2 0.23546219E-02 0.92327336E+02</pdfrwt>
<totfact> 0.13176510E+05</totfact>
</mgrwt>
</event>
<event>
 5    1  0.3854342E+001  0.9097885E+02  0.7546771E-02  0.1300498E+00
         -4   -1    0    0    0  501 -0.00000000000E+00  0.00000000000E+00  0.15716107796E+01  0.15716107796E+01  0.00000000000E+00 0.  1.
          4   -1    0    0  501    0  0.00000000000E+00 -0.00000000000E+00 -0.13166668196E+04  0.13166668196E+04  0.00000000000E+00 0. -1.
         23    2    1    2    0    0  0.00000000000E+00  0.00000000000E+00 -0.13150952089E+04  0.13182384304E+04  0.90978849562E+02 0.  0.
          2    1    3    3  502    0  0.43220291768E+02 -0.41707787598E+01 -0.46105648934E+03  0.46309661560E+03  0.00000000000E+00 0.  1.
         -2    1    3    3    0  502 -0.43220291768E+02  0.41707787598E+01 -0.85403871952E+03  0.85514181482E+03  0.00000000000E+00 0. -1.
<mgrwt>
<rscale>  0 0.90978850E+02</rscale>
<asrwt>0</asrwt>
<pdfrwt beam="2">  1        4 0.20256405E+00 0.90978850E+02</pdfrwt>
<pdfrwt beam="1">  1       -4 0.24178637E-03 0.90978850E+02</pdfrwt>
<totfact> 0.51038467E+03</totfact>
</mgrwt>
</event>
<event>
 5    1  0.3854342E+001  0.9094327E+02  0.7546771E-02  0.1300583E+00
          2   -1    0    0  501    0  0.00000000000E+00  0.00000000000E+00  0.21050351157E+01  0.21050351157E+01  0.00000000000E+00 0. -1.
         -2   -1    0    0    0  501 -0.00000000000E+00 -0.00000000000E+00 -0.98224938175E+03  0.98224938175E+03  0.00000000000E+00 0.  1.
         23    2    1    2    0    0  0.00000000000E+00  0.00000000000E+00 -0.98014434663E+03  0.98435441686E+03  0.90943266732E+02 0.  0.
          2    1    3    3  502    0  0.75790922852E+01  0.44373194224E+02 -0.42055787308E+03  0.42296021989E+03  0.00000000000E+00 0. -1.
         -2    1    3    3    0  502 -0.75790922852E+01 -0.44373194224E+02 -0.55958647356E+03  0.56139419697E+03  0.00000000000E+00 0.  1.
<mgrwt>
<rscale>  0 0.90943267E+02</rscale>
<asrwt>0</asrwt>
<pdfrwt beam="1">  1        2 0.32385243E-03 0.90943267E+02</pdfrwt>
<pdfrwt beam="2">  1       -2 0.15111488E+00 0.90943267E+02</pdfrwt>
<totfact> 0.19206393E+04</totfact>
</mgrwt>
</event>
<event>
 5    1  0.3854342E+001  0.9250743E+02  0.7546771E-02  0.1296891E+00
         -1   -1    0    0    0  501 -0.00000000000E+00  0.00000000000E+00  0.21489107698E+01  0.21489107698E+01  0.00000000000E+00 0.  1.
          1   -1    0    0  501    0  0.00000000000E+00 -0.00000000000E+00 -0.99557705950E+03  0.99557705950E+03  0.00000000000E+00 0. -1.
         23    2    1    2    0    0  0.00000000000E+00  0.00000000000E+00 -0.99342814873E+03  0.99772597027E+03  0.92507432465E+02 0.  0.
          2    1    3    3  502    0  0.42732885563E+02  0.27527539427E+00 -0.68759696552E+03  0.68892362587E+03  0.00000000000E+00 0. -1.
         -2    1    3    3    0  502 -0.42732885563E+02 -0.27527539427E+00 -0.30583118321E+03  0.30880234440E+03  0.00000000000E+00 0.  1.
<mgrwt>
<rscale>  0 0.92507432E+02</rscale>
<asrwt>0</asrwt>
<pdfrwt beam="2">  1        1 0.15316620E+00 0.92507432E+02</pdfrwt>
<pdfrwt beam="1">  1       -1 0.33060058E-03 0.92507432E+02</pdfrwt>
<totfact> 0.13105429E+05</totfact>
</mgrwt>
</event>
<event>
 5    1  0.3854342E+001  0.9327253E+02  0.7546771E-02  0.1295115E+00
          1   -1    0    0  501    0  0.00000000000E+00  0.00000000000E+00  0.14419795592E+04  0.14419795592E+04  0.00000000000E+00 0. -1.
         -1   -1    0    0    0  501 -0.00000000000E+00 -0.00000000000E+00 -0.15083023742E+01  0.15083023742E+01  0.00000000000E+00 0.  1.
         23    2    1    2    0    0  0.00000000000E+00  0.00000000000E+00  0.14404712568E+04  0.14434878615E+04  0.93272529559E+02 0.  0.
          2    1    3    3  502    0 -0.10520414872E+01 -0.39046837275E+02  0.11145490675E+04  0.11152333326E+04  0.00000000000E+00 0. -1.
         -2    1    3    3    0  502  0.10520414872E+01  0.39046837275E+02  0.32592218932E+03  0.32825452896E+03  0.00000000000E+00 0.  1.
<mgrwt>
<rscale>  0 0.93272530E+02</rscale>
<asrwt>0</asrwt>
<pdfrwt beam="1">  1        1 0.22184191E+00 0.93272530E+02</pdfrwt>
<pdfrwt beam="2">  1       -1 0.23204767E-03 0.93272530E+02</pdfrwt>
<totfact> 0.10731666E+05</totfact>
</mgrwt>
</event>
<event>
 5    1  0.3854342E+001  0.9499489E+02  0.7546771E-02  0.1291188E+00
         -1   -1    0    0    0  501 -0.00000000000E+00  0.00000000000E+00  0.12007069058E+02  0.12007069058E+02  0.00000000000E+00 0.  1.
          1   -1    0    0  501    0  0.00000000000E+00 -0.00000000000E+00 -0.18788990648E+03  0.18788990648E+03  0.00000000000E+00 0. -1.
         23    2    1    2    0    0  0.00000000000E+00  0.00000000000E+00 -0.17588283742E+03  0.19989697554E+03  0.94994885809E+02 0.  0.
          2    1    3    3  502    0 -0.37566612635E+01  0.29866776398E+02 -0.16525432702E+03  0.16797359744E+03  0.00000000000E+00 0. -1.
         -2    1    3    3    0  502  0.37566612635E+01 -0.29866776398E+02 -0.10628510403E+02  0.31923378105E+02  0.00000000000E+00 0.  1.
<mgrwt>
<rscale>  0 0.94994886E+02</rscale>
<asrwt>0</asrwt>
<pdfrwt beam="2">  1        1 0.28906139E-01 0.94994886E+02</pdfrwt>
<pdfrwt beam="1">  1       -1 0.18472414E-02 0.94994886E+02</pdfrwt>
<totfact> 0.10474985E+05</totfact>
</mgrwt>
</event>
<event>
 5    1  0.3854342E+001  0.9076153E+02  0.7546771E-02  0.1301018E+00
          1   -1    0    0  501    0  0.00000000000E+00  0.00000000000E+00  0.18098275002E+04  0.18098275002E+04  0.00000000000E+00 0. -1.
         -1   -1    0    0    0  501 -0.00000000000E+00 -0.00000000000E+00 -0.11379062011E+01  0.11379062011E+01  0.00000000000E+00 0.  1.
         23    2    1    2    0    0  0.00000000000E+00  0.00000000000E+00  0.18086895940E+04  0.18109654064E+04  0.90761532277E+02 0.  0.
          2    1    3    3  502    0  0.80085889934E+01  0.44637146170E+02  0.93774221605E+03  0.93883815222E+03  0.00000000000E+00 0.  1.
         -2    1    3    3    0  502 -0.80085889934E+01 -0.44637146170E+02  0.87094737792E+03  0.87212725414E+03  0.00000000000E+00 0. -1.
<mgrwt>
<rscale>  0 0.90761532E+02</rscale>
<asrwt>0</asrwt>
<pdfrwt beam="1">  1        1 0.27843270E+00 0.90761532E+02</pdfrwt>
<pdfrwt beam="2">  1       -1 0.17506394E-03 0.90761532E+02</pdfrwt>
<totfact> 0.92482208E+04</totfact>
</mgrwt>
</event>
<event>
 5    1  0.3854342E+001  0.1009431E+03  0.7546771E-02  0.1278325E+00
         -1   -1    0    0    0  501 -0.00000000000E+00  0.00000000000E+00  0.25443019215E+02  0.25443019215E+02  0.00000000000E+00 0.  1.
          1   -1    0    0  501    0  0.00000000000E+00 -0.00000000000E+00 -0.10012080156E+03  0.10012080156E+03  0.00000000000E+00 0. -1.
         23    2    1    2    0    0  0.00000000000E+00  0.00000000000E+00 -0.74677782341E+02  0.12556382077E+03  0.10094306272E+03 0.  0.
          2    1    3    3  502    0  0.19082750731E+02  0.17948180560E+02 -0.91001449414E+02  0.94697161289E+02  0.00000000000E+00 0. -1.
         -2    1    3    3    0  502 -0.19082750731E+02 -0.17948180560E+02  0.16323667072E+02  0.30866659481E+02  0.00000000000E+00 0.  1.
<mgrwt>
<rscale>  0 0.10094306E+03</rscale>
<asrwt>0</asrwt>
<pdfrwt beam="2">  1        1 0.15403200E-01 0.10094306E+03</pdfrwt>
<pdfrwt beam="1">  1       -1 0.39143107E-02 0.10094306E+03</pdfrwt>
<totfact> 0.79005200E+04</totfact>
</mgrwt>
</event>
<event>
 5    1  0.3854342E+001  0.1022870E+03  0.7546771E-02  0.1275559E+00
          4   -1    0    0  501    0  0.00000000000E+00  0.00000000000E+00  0.13394159793E+03  0.13394159793E+03  0.00000000000E+00 0. -1.
         -4   -1    0    0    0  501 -0.00000000000E+00 -0.00000000000E+00 -0.19528358641E+02  0.19528358641E+02  0.00000000000E+00 0.  1.
         23    2    1    2    0    0  0.00000000000E+00  0.00000000000E+00  0.11441323929E+03  0.15346995657E+03  0.10228703850E+03 0.  0.
          2    1    3    3  502    0  0.29034690733E+02 -0.39076024810E+02  0.33687844804E+02  0.59201519140E+02  0.00000000000E+00 0. -1.
         -2    1    3    3    0  502 -0.29034690733E+02  0.39076024810E+02  0.80725394488E+02  0.94268437433E+02  0.00000000000E+00 0.  1.
<mgrwt>
<rscale>  0 0.10228704E+03</rscale>
<asrwt>0</asrwt>
<pdfrwt beam="1">  1        4 0.20606399E-01 0.10228704E+03</pdfrwt>
<pdfrwt beam="2">  1       -4 0.30043630E-02 0.10228704E+03</pdfrwt>
<totfact> 0.17200442E+04</totfact>
</mgrwt>
</event>
<event>
 5    1  0.3854342E+001  0.8909033E+02  0.7546771E-02  0.1305070E+00
          1   -1    0    0  501    0  0.00000000000E+00  0.00000000000E+00  0.11197025649E+03  0.11197025649E+03  0.00000000000E+00 0. -1.
         -1   -1    0    0    0  501 -0.00000000000E+00 -0.00000000000E+00 -0.17721418299E+02  0.17721418299E+02  0.00000000000E+00 0.  1.
         23    2    1    2    0    0  0.00000000000E+00  0.00000000000E+00  0.94248838190E+02  0.12969167479E+03  0.89090330616E+02 0.  0.
          2    1    3    3  502    0  0.41642580889E+02  0.15683313937E+02  0.50108092697E+02  0.67014116669E+02  0.00000000000E+00 0. -1.
         -2    1    3    3    0  502 -0.41642580889E+02 -0.15683313937E+02  0.44140745493E+02  0.62677558119E+02  0.00000000000E+00 0.  1.
<mgrwt>
<rscale>  0 0.89090331E+02</rscale>
<asrwt>0</asrwt>
<pdfrwt beam="1">  1        1 0.17226193E-01 0.89090331E+02</pdfrwt>
<pdfrwt beam="2">  1       -1 0.27263721E-02 0.89090331E+02</pdfrwt>
<totfact> 0.11335682E+05</totfact>
</mgrwt>
</event>
<event>
 5    1  0.3854342E+001  0.9151201E+02  0.7546771E-02  0.1299231E+00
         -3   -1    0    0    0  501 -0.00000000000E+00  0.00000000000E+00  0.38410390999E+02  0.38410390999E+02  0.00000000000E+00 0.  1.
          3   -1    0    0  501    0  0.00000000000E+00 -0.00000000000E+00 -0.54506398691E+02  0.54506398691E+02  0.00000000000E+00 0. -1.
         23    2    1    2    0    0  0.00000000000E+00  0.00000000000E+00 -0.16096007691E+02  0.92916789690E+02  0.91512012013E+02 0.  0.
          2    1    3    3  502    0 -0.14609003033E+02  0.32322723860E+02 -0.37395516027E+02  0.51542274555E+02  0.00000000000E+00 0. -1.
         -2    1    3    3    0  502  0.14609003033E+02 -0.32322723860E+02  0.21299508336E+02  0.41374515135E+02  0.00000000000E+00 0.  1.
<mgrwt>
<rscale>  0 0.91512012E+02</rscale>
<asrwt>0</asrwt>
<pdfrwt beam="2">  1        3 0.83855998E-02 0.91512012E+02</pdfrwt>
<pdfrwt beam="1">  1       -3 0.59092909E-02 0.91512012E+02</pdfrwt>
<totfact> 0.34854655E+04</totfact>
</mgrwt>
</event>
<event>
 5    1  0.3854342E+001  0.9344944E+02  0.7546771E-02  0.1294707E+00
          2   -1    0    0  501    0  0.00000000000E+00  0.00000000000E+00  0.38115694881E+02  0.38115694881E+02  0.00000000000E+00 0. -1.
         -2   -1    0    0    0  501 -0.00000000000E+00 -0.00000000000E+00 -0.57278233560E+02  0.57278233560E+02  0.00000000000E+00 0.  1.
         23    2    1    2    0    0  0.00000000000E+00  0.00000000000E+00 -0.19162538679E+02  0.95393928441E+02  0.93449444593E+02 0.  0.
          2    1    3    3  502    0  0.41012851045E+02  0.20279412408E+02  0.97106658927E-01  0.45752791699E+02  0.00000000000E+00 0. -1.
         -2    1    3    3    0  502 -0.41012851045E+02 -0.20279412408E+02 -0.19259645338E+02  0.49641136742E+02  0.00000000000E+00 0.  1.
<mgrwt>
<rscale>  0 0.93449445E+02</rscale>
<asrwt>0</asrwt>
<pdfrwt beam="1">  1        2 0.58639531E-02 0.93449445E+02</pdfrwt>
<pdfrwt beam="2">  1       -2 0.88120359E-02 0.93449445E+02</pdfrwt>
<totfact> 0.87673506E+04</totfact>
</mgrwt>
</event>
<event>
 5    1  0.3854342E+001  0.8274685E+02  0.7546771E-02  0.1321432E+00
          3   -1    0    0  501    0  0.00000000000E+00  0.00000000000E+00  0.17069754877E+01  0.17069754877E+01  0.00000000000E+00 0. -1.
         -3   -1    0    0    0  501 -0.00000000000E+00 -0.00000000000E+00 -0.10028031836E+04  0.10028031836E+04  0.00000000000E+00 0.  1.
         23    2    1    2    0    0  0.00000000000E+00  0.00000000000E+00 -0.10010962081E+04  0.10045101591E+04  0.82746853799E+02 0.  0.
          2    1    3    3  502    0  0.27234603493E+02 -0.28012590334E+02 -0.66581184952E+03  0.66695715590E+03  0.00000000000E+00 0.  1.
         -2    1    3    3    0  502 -0.27234603493E+02  0.28012590334E+02 -0.33528435861E+03  0.33755300321E+03  0.00000000000E+00 0. -1.
<mgrwt>
<rscale>  0 0.82746854E+02</rscale>
<asrwt>0</asrwt>
<pdfrwt beam="1">  1        3 0.26261236E-03 0.82746854E+02</pdfrwt>
<pdfrwt beam="2">  1       -3 0.15427697E+00 0.82746854E+02</pdfrwt>
<totfact> 0.12835098E+04</totfact>
</mgrwt>
</event>
<event>
 5    1  0.3854342E+001  0.9077968E+02  0.7546771E-02  0.1300974E+00
         -2   -1    0    0    0  501 -0.00000000000E+00  0.00000000000E+00  0.16563610363E+01  0.16563610363E+01  0.00000000000E+00 0.  1.
          2   -1    0    0  501    0  0.00000000000E+00 -0.00000000000E+00 -0.12438337345E+04  0.12438337345E+04  0.00000000000E+00 0. -1.
         23    2    1    2    0    0  0.00000000000E+00  0.00000000000E+00 -0.12421773735E+04  0.12454900955E+04  0.90779683487E+02 0.  0.
          2    1    3    3  502    0 -0.29591267520E+02  0.10186987587E+02 -0.10721424193E+04  0.10725990793E+04  0.00000000000E+00 0. -1.
         -2    1    3    3    0  502  0.29591267520E+02 -0.10186987587E+02 -0.17003495421E+03  0.17289101620E+03  0.00000000000E+00 0.  1.
<mgrwt>
<rscale>  0 0.90779683E+02</rscale>
<asrwt>0</asrwt>
<pdfrwt beam="2">  1        2 0.19135871E+00 0.90779683E+02</pdfrwt>
<pdfrwt beam="1">  1       -2 0.25482521E-03 0.90779683E+02</pdfrwt>
<totfact> 0.25040624E+05</totfact>
</mgrwt>
</event>
<event>
 5    1  0.3854342E+001  0.9139489E+02  0.7546771E-02  0.1299509E+00
         -1   -1    0    0    0  501 -0.00000000000E+00  0.00000000000E+00  0.10750581718E+03  0.10750581718E+03  0.00000000000E+00 0.  1.
          1   -1    0    0  501    0  0.00000000000E+00 -0.00000000000E+00 -0.19424588861E+02  0.19424588861E+02  0.00000000000E+00 0. -1.
         23    2    1    2    0    0  0.00000000000E+00  0.00000000000E+00  0.88081228323E+02  0.12693040605E+03  0.91394886050E+02 0.  0.
          2    1    3    3  502    0  0.33997751455E+02 -0.12120541302E+02  0.51166260732E+01  0.36454553732E+02  0.00000000000E+00 0. -1.
         -2    1    3    3    0  502 -0.33997751455E+02  0.12120541302E+02  0.82964602250E+02  0.90475852314E+02  0.00000000000E+00 0.  1.
<mgrwt>
<rscale>  0 0.91394886E+02</rscale>
<asrwt>0</asrwt>
<pdfrwt beam="2">  1        1 0.29883983E-02 0.91394886E+02</pdfrwt>
<pdfrwt beam="1">  1       -1 0.16539356E-01 0.91394886E+02</pdfrwt>
<totfact> 0.79769932E+04</totfact>
</mgrwt>
</event>
<event>
 5    1  0.3854342E+001  0.8481152E+02  0.7546771E-02  0.1315926E+00
         -1   -1    0    0    0  501 -0.00000000000E+00  0.00000000000E+00  0.98883070796E+01  0.98883070796E+01  0.00000000000E+00 0.  1.
          1   -1    0    0  501    0  0.00000000000E+00 -0.00000000000E+00 -0.18185606217E+03  0.18185606217E+03  0.00000000000E+00 0. -1.
         23    2    1    2    0    0  0.00000000000E+00  0.00000000000E+00 -0.17196775509E+03  0.19174436925E+03  0.84811522497E+02 0.  0.
          2    1    3    3  502    0 -0.13941008992E+02 -0.34641525846E+02 -0.13141819515E+03  0.13662038304E+03  0.00000000000E+00 0. -1.
         -2    1    3    3    0  502  0.13941008992E+02  0.34641525846E+02 -0.40549559941E+02  0.55123986214E+02  0.00000000000E+00 0.  1.
<mgrwt>
<rscale>  0 0.84811522E+02</rscale>
<asrwt>0</asrwt>
<pdfrwt beam="2">  1        1 0.27977856E-01 0.84811522E+02</pdfrwt>
<pdfrwt beam="1">  1       -1 0.15212780E-02 0.84811522E+02</pdfrwt>
<totfact> 0.14107717E+05</totfact>
</mgrwt>
</event>
<event>
 5    1  0.3854342E+001  0.9633395E+02  0.7546771E-02  0.1288200E+00
         -1   -1    0    0    0  501 -0.00000000000E+00  0.00000000000E+00  0.22477668937E+02  0.22477668937E+02  0.00000000000E+00 0.  1.
          1   -1    0    0  501    0  0.00000000000E+00 -0.00000000000E+00 -0.10321610863E+03  0.10321610863E+03  0.00000000000E+00 0. -1.
         23    2    1    2    0    0  0.00000000000E+00  0.00000000000E+00 -0.80738439691E+02  0.12569377756E+03  0.96333950790E+02 0.  0.
          2    1    3    3  502    0  0.32534429287E+01  0.27746295382E+02 -0.91565755621E+02  0.95732593200E+02  0.00000000000E+00 0. -1.
         -2    1    3    3    0  502 -0.32534429287E+01 -0.27746295382E+02  0.10827315930E+02  0.29961184365E+02  0.00000000000E+00 0.  1.
<mgrwt>
<rscale>  0 0.96333951E+02</rscale>
<asrwt>0</asrwt>
<pdfrwt beam="2">  1        1 0.15879401E-01 0.96333951E+02</pdfrwt>
<pdfrwt beam="1">  1       -1 0.34581029E-02 0.96333951E+02</pdfrwt>
<totfact> 0.90333148E+04</totfact>
</mgrwt>
</event>
<event>
 5    1  0.3854342E+001  0.9470098E+02  0.7546771E-02  0.1291851E+00
          2   -1    0    0  501    0  0.00000000000E+00  0.00000000000E+00  0.92410480528E+03  0.92410480528E+03  0.00000000000E+00 0. -1.
         -2   -1    0    0    0  501 -0.00000000000E+00 -0.00000000000E+00 -0.24262064981E+01  0.24262064981E+01  0.00000000000E+00 0.  1.
         23    2    1    2    0    0  0.00000000000E+00  0.00000000000E+00  0.92167859878E+03  0.92653101177E+03  0.94700983807E+02 0.  0.
          2    1    3    3  502    0  0.27959254311E+02  0.28042922650E+02  0.71482968008E+03  0.71592569233E+03  0.00000000000E+00 0. -1.
         -2    1    3    3    0  502 -0.27959254311E+02 -0.28042922650E+02  0.20684891870E+03  0.21060531945E+03  0.00000000000E+00 0.  1.
<mgrwt>
<rscale>  0 0.94700984E+02</rscale>
<asrwt>0</asrwt>
<pdfrwt beam="1">  1        2 0.14216969E+00 0.94700984E+02</pdfrwt>
<pdfrwt beam="2">  1       -2 0.37326328E-03 0.94700984E+02</pdfrwt>
<totfact> 0.22495088E+05</totfact>
</mgrwt>
</event>
<event>
 5    1  0.3854342E+001  0.9355484E+02  0.7546771E-02  0.1294465E+00
         -1   -1    0    0    0  501 -0.00000000000E+00  0.00000000000E+00  0.43042337824E+02  0.43042337824E+02  0.00000000000E+00 0.  1.
          1   -1    0    0  501    0  0.00000000000E+00 -0.00000000000E+00 -0.50836621178E+02  0.50836621178E+02  0.00000000000E+00 0. -1.
         23    2    1    2    0    0  0.00000000000E+00  0.00000000000E+00 -0.77942833539E+01  0.93878959002E+02  0.93554840016E+02 0.  0.
          2    1    3    3  502    0 -0.21834285687E+02  0.53881785220E+01 -0.45055806805E+02  0.50356670125E+02  0.00000000000E+00 0. -1.
         -2    1    3    3    0  502  0.21834285687E+02 -0.53881785220E+01  0.37261523451E+02  0.43522288877E+02  0.00000000000E+00 0.  1.
<mgrwt>
<rscale>  0 0.93554840E+02</rscale>
<asrwt>0</asrwt>
<pdfrwt beam="2">  1        1 0.78210186E-02 0.93554840E+02</pdfrwt>
<pdfrwt beam="1">  1       -1 0.66218982E-02 0.93554840E+02</pdfrwt>
<totfact> 0.87456380E+04</totfact>
</mgrwt>
</event>
<event>
 5    1  0.3854342E+001  0.9282188E+02  0.7546771E-02  0.1296158E+00
         -2   -1    0    0    0  501 -0.00000000000E+00  0.00000000000E+00  0.63803185679E+02  0.63803185679E+02  0.00000000000E+00 0.  1.
          2   -1    0    0  501    0  0.00000000000E+00 -0.00000000000E+00 -0.33759680703E+02  0.33759680703E+02  0.00000000000E+00 0. -1.
         23    2    1    2    0    0  0.00000000000E+00  0.00000000000E+00  0.30043504976E+02  0.97562866383E+02  0.92821876223E+02 0.  0.
          2    1    3    3  502    0 -0.15696120732E+02  0.41930135386E+02  0.27872022919E+02  0.52738544928E+02  0.00000000000E+00 0. -1.
         -2    1    3    3    0  502  0.15696120732E+02 -0.41930135386E+02  0.21714820576E+01  0.44824321454E+02  0.00000000000E+00 0.  1.
<mgrwt>
<rscale>  0 0.92821876E+02</rscale>
<asrwt>0</asrwt>
<pdfrwt beam="2">  1        2 0.51937971E-02 0.92821876E+02</pdfrwt>
<pdfrwt beam="1">  1       -2 0.98158747E-02 0.92821876E+02</pdfrwt>
<totfact> 0.86588163E+04</totfact>
</mgrwt>
</event>
<event>
 5    1  0.3854342E+001  0.9197936E+02  0.7546771E-02  0.1298128E+00
          3   -1    0    0  501    0  0.00000000000E+00  0.00000000000E+00  0.43609277274E+03  0.43609277274E+03  0.00000000000E+00 0. -1.
         -3   -1    0    0    0  501 -0.00000000000E+00 -0.00000000000E+00 -0.48500012486E+01  0.48500012486E+01  0.00000000000E+00 0.  1.
         23    2    1    2    0    0  0.00000000000E+00  0.00000000000E+00  0.43124277149E+03  0.44094277399E+03  0.91979356212E+02 0.  0.
          2    1    3    3  502    0  0.33868101102E+02 -0.15559598759E+02  0.34478214629E+03  0.34679082714E+03  0.00000000000E+00 0. -1.
         -2    1    3    3    0  502 -0.33868101102E+02  0.15559598759E+02  0.86460625203E+02  0.94151946853E+02  0.00000000000E+00 0.  1.
<mgrwt>
<rscale>  0 0.91979356E+02</rscale>
<asrwt>0</asrwt>
<pdfrwt beam="1">  1        3 0.67091165E-01 0.91979356E+02</pdfrwt>
<pdfrwt beam="2">  1       -3 0.74615438E-03 0.91979356E+02</pdfrwt>
<totfact> 0.18984768E+04</totfact>
</mgrwt>
</event>
<event>
 5    1  0.3854342E+001  0.1067210E+03  0.7546771E-02  0.1266765E+00
          1   -1    0    0  501    0  0.00000000000E+00  0.00000000000E+00  0.30616329167E+03  0.30616329167E+03  0.00000000000E+00 0. -1.
         -1   -1    0    0    0  501 -0.00000000000E+00 -0.00000000000E+00 -0.93000742965E+01  0.93000742965E+01  0.00000000000E+00 0.  1.
         23    2    1    2    0    0  0.00000000000E+00  0.00000000000E+00  0.29686321737E+03  0.31546336596E+03  0.10672097000E+03 0.  0.
          2    1    3    3  502    0  0.39499681755E+02  0.34644873269E+02  0.12088410675E+03  0.13180841918E+03  0.00000000000E+00 0. -1.
         -2    1    3    3    0  502 -0.39499681755E+02 -0.34644873269E+02  0.17597911062E+03  0.18365494678E+03  0.00000000000E+00 0.  1.
<mgrwt>
<rscale>  0 0.10672097E+03</rscale>
<asrwt>0</asrwt>
<pdfrwt beam="1">  1        1 0.47102037E-01 0.10672097E+03</pdfrwt>
<pdfrwt beam="2">  1       -1 0.14307809E-02 0.10672097E+03</pdfrwt>
<totfact> 0.84266050E+04</totfact>
</mgrwt>
</event>
<event>
 5    1  0.3854342E+001  0.9074291E+02  0.7546771E-02  0.1301063E+00
         -1   -1    0    0    0  501 -0.00000000000E+00  0.00000000000E+00  0.10653261486E+01  0.10653261486E+01  0.00000000000E+00 0.  1.
          1   -1    0    0  501    0  0.00000000000E+00 -0.00000000000E+00 -0.19323367385E+04  0.19323367385E+04  0.00000000000E+00 0. -1.
         23    2    1    2    0    0  0.00000000000E+00  0.00000000000E+00 -0.19312714124E+04  0.19334020647E+04  0.90742908384E+02 0.  0.
          2    1    3    3  502    0  0.11958426369E+02 -0.38918689977E+02 -0.13922424959E+04  0.13928376918E+04  0.00000000000E+00 0. -1.
         -2    1    3    3    0  502 -0.11958426369E+02  0.38918689977E+02 -0.53902891648E+03  0.54056437285E+03  0.00000000000E+00 0.  1.
<mgrwt>
<rscale>  0 0.90742908E+02</rscale>
<asrwt>0</asrwt>
<pdfrwt beam="2">  1        1 0.29728469E+00 0.90742908E+02</pdfrwt>
<pdfrwt beam="1">  1       -1 0.16389516E-03 0.90742908E+02</pdfrwt>
<totfact> 0.84896481E+04</totfact>
</mgrwt>
</event>
<event>
 5    1  0.3854342E+001  0.9144133E+02  0.7546771E-02  0.1299398E+00
         -2   -1    0    0    0  501 -0.00000000000E+00  0.00000000000E+00  0.35007346402E+01  0.35007346402E+01  0.00000000000E+00 0.  1.
          2   -1    0    0  501    0  0.00000000000E+00 -0.00000000000E+00 -0.59712587323E+03  0.59712587323E+03  0.00000000000E+00 0. -1.
         23    2    1    2    0    0  0.00000000000E+00  0.00000000000E+00 -0.59362513859E+03  0.60062660787E+03  0.91441330458E+02 0.  0.
          2    1    3    3  502    0 -0.76457044746E+01  0.41780263618E+02 -0.40795937292E+03  0.41016447577E+03  0.00000000000E+00 0. -1.
         -2    1    3    3    0  502  0.76457044746E+01 -0.41780263618E+02 -0.18566576567E+03  0.19046213210E+03  0.00000000000E+00 0.  1.
<mgrwt>
<rscale>  0 0.91441330E+02</rscale>
<asrwt>0</asrwt>
<pdfrwt beam="2">  1        2 0.91865514E-01 0.91441330E+02</pdfrwt>
<pdfrwt beam="1">  1       -2 0.53857459E-03 0.91441330E+02</pdfrwt>
<totfact> 0.22580401E+05</totfact>
</mgrwt>
</event>
<event>
 5    1  0.3854342E+001  0.9124599E+02  0.7546771E-02  0.1299862E+00
          2   -1    0    0  501    0  0.00000000000E+00  0.00000000000E+00  0.13455156885E+04  0.13455156885E+04  0.00000000000E+00 0. -1.
         -2   -1    0    0    0  501 -0.00000000000E+00 -0.00000000000E+00 -0.15469592067E+01  0.15469592067E+01  0.00000000000E+00 0.  1.
         23    2    1    2    0    0  0.00000000000E+00  0.00000000000E+00  0.13439687293E+04  0.13470626477E+04  0.91245994589E+02 0.  0.
          2    1    3    3  502    0 -0.29936769499E+02 -0.21833165346E+02  0.27901156966E+03  0.28146110439E+03  0.00000000000E+00 0. -1.
         -2    1    3    3    0  502  0.29936769499E+02  0.21833165346E+02  0.10649571596E+04  0.10656015433E+04  0.00000000000E+00 0.  1.
<mgrwt>
<rscale>  0 0.91245995E+02</rscale>
<asrwt>0</asrwt>
<pdfrwt beam="1">  1        2 0.20700148E+00 0.91245995E+02</pdfrwt>
<pdfrwt beam="2">  1       -2 0.23799480E-03 0.91245995E+02</pdfrwt>
<totfact> 0.24340426E+05</totfact>
</mgrwt>
</event>
<event>
 5    1  0.3854342E+001  0.9188378E+02  0.7546771E-02  0.1298353E+00
          2   -1    0    0  501    0  0.00000000000E+00  0.00000000000E+00  0.13385713675E+03  0.13385713675E+03  0.00000000000E+00 0. -1.
         -2   -1    0    0    0  501 -0.00000000000E+00 -0.00000000000E+00 -0.15767984767E+02  0.15767984767E+02  0.00000000000E+00 0.  1.
         23    2    1    2    0    0  0.00000000000E+00  0.00000000000E+00  0.11808915198E+03  0.14962512152E+03  0.91883780793E+02 0.  0.
          2    1    3    3  502    0 -0.37860711853E+00 -0.31058391959E+02  0.11416812476E+03  0.11831790975E+03  0.00000000000E+00 0. -1.
         -2    1    3    3    0  502  0.37860711853E+00  0.31058391959E+02  0.39210272198E+01  0.31307211772E+02  0.00000000000E+00 0.  1.
<mgrwt>
<rscale>  0 0.91883781E+02</rscale>
<asrwt>0</asrwt>
<pdfrwt beam="1">  1        2 0.20593405E-01 0.91883781E+02</pdfrwt>
<pdfrwt beam="2">  1       -2 0.24258439E-02 0.91883781E+02</pdfrwt>
<totfact> 0.13176493E+05</totfact>
</mgrwt>
</event>
<event>
 5    1  0.3854342E+001  0.9448771E+02  0.7546771E-02  0.1292334E+00
          1   -1    0    0  501    0  0.00000000000E+00  0.00000000000E+00  0.68124773348E+02  0.68124773348E+02  0.00000000000E+00 0. -1.
         -1   -1    0    0    0  501 -0.00000000000E+00 -0.00000000000E+00 -0.32763147115E+02  0.32763147115E+02  0.00000000000E+00 0.  1.
         23    2    1    2    0    0  0.00000000000E+00  0.00000000000E+00  0.35361626233E+02  0.10088792046E+03  0.94487712882E+02 0.  0.
          2    1    3    3  502    0  0.28359491236E+02  0.16050855389E+01  0.57989007972E+02  0.64572146382E+02  0.00000000000E+00 0. -1.
         -2    1    3    3    0  502 -0.28359491236E+02 -0.16050855389E+01 -0.22627381739E+02  0.36315774081E+02  0.00000000000E+00 0.  1.
<mgrwt>
<rscale>  0 0.94487713E+02</rscale>
<asrwt>0</asrwt>
<pdfrwt beam="1">  1        1 0.10480734E-01 0.94487713E+02</pdfrwt>
<pdfrwt beam="2">  1       -1 0.50404842E-02 0.94487713E+02</pdfrwt>
<totfact> 0.89010900E+04</totfact>
</mgrwt>
</event>
<event>
 5    1  0.3854342E+001  0.9240932E+02  0.7546771E-02  0.1297120E+00
          1   -1    0    0  501    0  0.00000000000E+00  0.00000000000E+00  0.86212566476E+03  0.86212566476E+03  0.00000000000E+00 0. -1.
         -1   -1    0    0    0  501 -0.00000000000E+00 -0.00000000000E+00 -0.24762870186E+01  0.24762870186E+01  0.00000000000E+00 0.  1.
         23    2    1    2    0    0  0.00000000000E+00  0.00000000000E+00  0.85964937774E+03  0.86460195178E+03  0.92409319703E+02 0.  0.
          2    1    3    3  502    0 -0.15082659891E+02  0.43670131351E+02  0.42466950152E+03  0.42717531825E+03  0.00000000000E+00 0. -1.
         -2    1    3    3    0  502  0.15082659891E+02 -0.43670131351E+02  0.43497987622E+03  0.43742663353E+03  0.00000000000E+00 0.  1.
<mgrwt>
<rscale>  0 0.92409320E+02</rscale>
<asrwt>0</asrwt>
<pdfrwt beam="1">  1        1 0.13263448E+00 0.92409320E+02</pdfrwt>
<pdfrwt beam="2">  1       -1 0.38096792E-03 0.92409320E+02</pdfrwt>
<totfact> 0.13522312E+05</totfact>
</mgrwt>
</event>
<event>
 5    1  0.3854342E+001  0.9270314E+02  0.7546771E-02  0.1296435E+00
         -1   -1    0    0    0  501 -0.00000000000E+00  0.00000000000E+00  0.12587930750E+02  0.12587930750E+02  0.00000000000E+00 0.  1.
          1   -1    0    0  501    0  0.00000000000E+00 -0.00000000000E+00 -0.17067683745E+03  0.17067683745E+03  0.00000000000E+00 0. -1.
         23    2    1    2    0    0  0.00000000000E+00  0.00000000000E+00 -0.15808890670E+03  0.18326476820E+03  0.92703143646E+02 0.  0.
          2    1    3    3  502    0  0.22887598141E+02  0.34421669242E+02 -0.12050162451E+03  0.12739440715E+03  0.00000000000E+00 0. -1.
         -2    1    3    3    0  502 -0.22887598141E+02 -0.34421669242E+02 -0.37587282190E+02  0.55870361056E+02  0.00000000000E+00 0.  1.
<mgrwt>
<rscale>  0 0.92703144E+02</rscale>
<asrwt>0</asrwt>
<pdfrwt beam="2">  1        1 0.26257973E-01 0.92703144E+02</pdfrwt>
<pdfrwt beam="1">  1       -1 0.19366049E-02 0.92703144E+02</pdfrwt>
<totfact> 0.10983623E+05</totfact>
</mgrwt>
</event>
<event>
 5    1  0.3854342E+001  0.9170635E+02  0.7546771E-02  0.1298771E+00
         -2   -1    0    0    0  501 -0.00000000000E+00  0.00000000000E+00  0.41605220632E+01  0.41605220632E+01  0.00000000000E+00 0.  1.
          2   -1    0    0  501    0  0.00000000000E+00 -0.00000000000E+00 -0.50534848822E+03  0.50534848822E+03  0.00000000000E+00 0. -1.
         23    2    1    2    0    0  0.00000000000E+00  0.00000000000E+00 -0.50118796616E+03  0.50950901028E+03  0.91706347324E+02 0.  0.
          2    1    3    3  502    0  0.19803202847E+02 -0.28367456753E+02 -0.41779112664E+03  0.41922106930E+03  0.00000000000E+00 0. -1.
         -2    1    3    3    0  502 -0.19803202847E+02  0.28367456753E+02 -0.83396839511E+02  0.90287940978E+02  0.00000000000E+00 0.  1.
<mgrwt>
<rscale>  0 0.91706347E+02</rscale>
<asrwt>0</asrwt>
<pdfrwt beam="2">  1        2 0.77745887E-01 0.91706347E+02</pdfrwt>
<pdfrwt beam="1">  1       -2 0.64008060E-03 0.91706347E+02</pdfrwt>
<totfact> 0.21295017E+05</totfact>
</mgrwt>
</event>
<event>
 5    1  0.3854342E+001  0.9157990E+02  0.7546771E-02  0.1299070E+00
          2   -1    0    0  501    0  0.00000000000E+00  0.00000000000E+00  0.26368713610E+02  0.26368713610E+02  0.00000000000E+00 0. -1.
         -2   -1    0    0    0  501 -0.00000000000E+00 -0.00000000000E+00 -0.79515419778E+02  0.79515419778E+02  0.00000000000E+00 0.  1.
         23    2    1    2    0    0  0.00000000000E+00  0.00000000000E+00 -0.53146706169E+02  0.10588413339E+03  0.91579895866E+02 0.  0.
          2    1    3    3  502    0  0.98790341278E+01 -0.44026449202E+02 -0.17558316705E+02  0.48417125381E+02  0.00000000000E+00 0. -1.
         -2    1    3    3    0  502 -0.98790341278E+01  0.44026449202E+02 -0.35588389464E+02  0.57467008007E+02  0.00000000000E+00 0.  1.
<mgrwt>
<rscale>  0 0.91579896E+02</rscale>
<asrwt>0</asrwt>
<pdfrwt beam="1">  1        2 0.40567252E-02 0.91579896E+02</pdfrwt>
<pdfrwt beam="2">  1       -2 0.12233141E-01 0.91579896E+02</pdfrwt>
<totfact> 0.84302348E+04</totfact>
</mgrwt>
</event>
<event>
 5    1  0.3854342E+001  0.9031500E+02  0.7546771E-02  0.1302091E+00
         -2   -1    0    0    0  501 -0.00000000000E+00  0.00000000000E+00  0.96981210908E+00  0.96981210908E+00  0.00000000000E+00 0.  1.
          2   -1    0    0  501    0  0.00000000000E+00 -0.00000000000E+00 -0.21026751669E+04  0.21026751669E+04  0.00000000000E+00 0. -1.
         23    2    1    2    0    0  0.00000000000E+00  0.00000000000E+00 -0.21017053548E+04  0.21036449790E+04  0.90315000710E+02 0.  0.
          2    1    3    3  502    0 -0.46122798332E+01 -0.39555318443E+02 -0.15467675038E+04  0.15472800675E+04  0.00000000000E+00 0. -1.
         -2    1    3    3    0  502  0.46122798332E+01  0.39555318443E+02 -0.55493785098E+03  0.55636491154E+03  0.00000000000E+00 0.  1.
<mgrwt>
<rscale>  0 0.90315001E+02</rscale>
<asrwt>0</asrwt>
<pdfrwt beam="2">  1        2 0.32348692E+00 0.90315001E+02</pdfrwt>
<pdfrwt beam="1">  1       -2 0.14920259E-03 0.90315001E+02</pdfrwt>
<totfact> 0.19198052E+05</totfact>
</mgrwt>
</event>
<event>
 5    1  0.3854342E+001  0.9004000E+02  0.7546771E-02  0.1302755E+00
         -1   -1    0    0    0  501 -0.00000000000E+00  0.00000000000E+00  0.20038161447E+01  0.20038161447E+01  0.00000000000E+00 0.  1.
          1   -1    0    0  501    0  0.00000000000E+00 -0.00000000000E+00 -0.10114702603E+04  0.10114702603E+04  0.00000000000E+00 0. -1.
         23    2    1    2    0    0  0.00000000000E+00  0.00000000000E+00 -0.10094664441E+04  0.10134740764E+04  0.90040000830E+02 0.  0.
          2    1    3    3  502    0  0.22746557454E+02 -0.25127473946E+02 -0.83825604136E+03  0.83894099119E+03  0.00000000000E+00 0. -1.
         -2    1    3    3    0  502 -0.22746557454E+02  0.25127473946E+02 -0.17121040278E+03  0.17453308524E+03  0.00000000000E+00 0.  1.
<mgrwt>
<rscale>  0 0.90040001E+02</rscale>
<asrwt>0</asrwt>
<pdfrwt beam="2">  1        1 0.15561104E+00 0.90040001E+02</pdfrwt>
<pdfrwt beam="1">  1       -1 0.30827896E-03 0.90040001E+02</pdfrwt>
<totfact> 0.14016533E+05</totfact>
</mgrwt>
</event>
<event>
 5    1  0.3854342E+001  0.9163774E+02  0.7546771E-02  0.1298933E+00
         -2   -1    0    0    0  501 -0.00000000000E+00  0.00000000000E+00  0.23214666794E+02  0.23214666794E+02  0.00000000000E+00 0.  1.
          2   -1    0    0  501    0  0.00000000000E+00 -0.00000000000E+00 -0.90432856363E+02  0.90432856363E+02  0.00000000000E+00 0. -1.
         23    2    1    2    0    0  0.00000000000E+00  0.00000000000E+00 -0.67218189569E+02  0.11364752316E+03  0.91637735190E+02 0.  0.
          2    1    3    3  502    0  0.19233892609E+02  0.76316307939E+01 -0.84307907658E+02  0.86810182047E+02  0.00000000000E+00 0. -1.
         -2    1    3    3    0  502 -0.19233892609E+02 -0.76316307939E+01  0.17089718089E+02  0.26837341110E+02  0.00000000000E+00 0.  1.
<mgrwt>
<rscale>  0 0.91637735E+02</rscale>
<asrwt>0</asrwt>
<pdfrwt beam="2">  1        2 0.13912747E-01 0.91637735E+02</pdfrwt>
<pdfrwt beam="1">  1       -2 0.35714872E-02 0.91637735E+02</pdfrwt>
<totfact> 0.11737752E+05</totfact>
</mgrwt>
</event>
<event>
 5    1  0.3854342E+001  0.9276984E+02  0.7546771E-02  0.1296279E+00
          1   -1    0    0  501    0  0.00000000000E+00  0.00000000000E+00  0.10095630022E+04  0.10095630022E+04  0.00000000000E+00 0. -1.
         -1   -1    0    0    0  501 -0.00000000000E+00 -0.00000000000E+00 -0.21311803450E+01  0.21311803450E+01  0.00000000000E+00 0.  1.
         23    2    1    2    0    0  0.00000000000E+00  0.00000000000E+00  0.10074318218E+04  0.10116941825E+04  0.92769840516E+02 0.  0.
          2    1    3    3  502    0 -0.10168142181E+02 -0.18100657983E+02  0.95606561568E+03  0.95629100509E+03  0.00000000000E+00 0. -1.
         -2    1    3    3    0  502  0.10168142181E+02  0.18100657983E+02  0.51366206149E+02  0.55403177427E+02  0.00000000000E+00 0.  1.
<mgrwt>
<rscale>  0 0.92769841E+02</rscale>
<asrwt>0</asrwt>
<pdfrwt beam="1">  1        1 0.15531700E+00 0.92769841E+02</pdfrwt>
<pdfrwt beam="2">  1       -1 0.32787471E-03 0.92769841E+02</pdfrwt>
<totfact> 0.12958956E+05</totfact>
</mgrwt>
</event>
<event>
 5    1  0.3854342E+001  0.9200680E+02  0.7546771E-02  0.1298063E+00
          2   -1    0    0  501    0  0.00000000000E+00  0.00000000000E+00  0.33637143150E+02  0.33637143150E+02  0.00000000000E+00 0.  1.
         -2   -1    0    0    0  501 -0.00000000000E+00 -0.00000000000E+00 -0.62915951948E+02  0.62915951948E+02  0.00000000000E+00 0. -1.
         23    2    1    2    0    0  0.00000000000E+00  0.00000000000E+00 -0.29278808799E+02  0.96553095098E+02  0.92006801533E+02 0.  0.
          2    1    3    3  502    0  0.28499744044E+02 -0.32081711200E+02  0.27581116681E+01  0.43000916084E+02  0.00000000000E+00 0. -1.
         -2    1    3    3    0  502 -0.28499744044E+02  0.32081711200E+02 -0.32036920467E+02  0.53552179014E+02  0.00000000000E+00 0.  1.
<mgrwt>
<rscale>  0 0.92006802E+02</rscale>
<asrwt>0</asrwt>
<pdfrwt beam="1">  1        2 0.51749451E-02 0.92006802E+02</pdfrwt>
<pdfrwt beam="2">  1       -2 0.96793772E-02 0.92006802E+02</pdfrwt>
<totfact> 0.88784412E+04</totfact>
</mgrwt>
</event>
<event>
 5    1  0.3854342E+001  0.9120510E+02  0.7546771E-02  0.1299959E+00
          2   -1    0    0  501    0  0.00000000000E+00  0.00000000000E+00  0.10931969716E+03  0.10931969716E+03  0.00000000000E+00 0. -1.
         -2   -1    0    0    0  501 -0.00000000000E+00 -0.00000000000E+00 -0.19023034729E+02  0.19023034729E+02  0.00000000000E+00 0.  1.
         23    2    1    2    0    0  0.00000000000E+00  0.00000000000E+00  0.90296662430E+02  0.12834273189E+03  0.91205096253E+02 0.  0.
          2    1    3    3  502    0  0.39350387470E+01 -0.21427236593E+02  0.10152341170E+03  0.10383455168E+03  0.00000000000E+00 0. -1.
         -2    1    3    3    0  502 -0.39350387470E+01  0.21427236593E+02 -0.11226749274E+02  0.24508180210E+02  0.00000000000E+00 0.  1.
<mgrwt>
<rscale>  0 0.91205096E+02</rscale>
<asrwt>0</asrwt>
<pdfrwt beam="1">  1        2 0.16818415E-01 0.91205096E+02</pdfrwt>
<pdfrwt beam="2">  1       -2 0.29266208E-02 0.91205096E+02</pdfrwt>
<totfact> 0.12598617E+05</totfact>
</mgrwt>
</event>
<event>
 5    1  0.3854342E+001  0.8839020E+02  0.7546771E-02  0.1306798E+00
         -1   -1    0    0    0  501 -0.00000000000E+00  0.00000000000E+00  0.53165728138E+03  0.53165728138E+03  0.00000000000E+00 0.  1.
          1   -1    0    0  501    0  0.00000000000E+00 -0.00000000000E+00 -0.36738082948E+01  0.36738082948E+01  0.00000000000E+00 0. -1.
         23    2    1    2    0    0  0.00000000000E+00  0.00000000000E+00  0.52798347308E+03  0.53533108967E+03  0.88390201500E+02 0.  0.
          2    1    3    3  502    0  0.21999810319E+02  0.27399475768E+02  0.42633224201E+03  0.42777786701E+03  0.00000000000E+00 0.  1.
         -2    1    3    3    0  502 -0.21999810319E+02 -0.27399475768E+02  0.10165123107E+03  0.10755322266E+03  0.00000000000E+00 0. -1.
<mgrwt>
<rscale>  0 0.88390201E+02</rscale>
<asrwt>0</asrwt>
<pdfrwt beam="2">  1        1 0.56520170E-03 0.88390201E+02</pdfrwt>
<pdfrwt beam="1">  1       -1 0.81793367E-01 0.88390201E+02</pdfrwt>
<totfact> 0.49077819E+04</totfact>
</mgrwt>
</event>
<event>
 5    1  0.3854342E+001  0.9000952E+02  0.7546771E-02  0.1302829E+00
          1   -1    0    0  501    0  0.00000000000E+00  0.00000000000E+00  0.31623910685E+01  0.31623910685E+01  0.00000000000E+00 0.  1.
         -1   -1    0    0    0  501 -0.00000000000E+00 -0.00000000000E+00 -0.64047380254E+03  0.64047380254E+03  0.00000000000E+00 0. -1.
         23    2    1    2    0    0  0.00000000000E+00  0.00000000000E+00 -0.63731141147E+03  0.64363619361E+03  0.90009524669E+02 0.  0.
          2    1    3    3  502    0 -0.24908777083E+02  0.24648145796E+02 -0.52058708904E+03  0.52176517280E+03  0.00000000000E+00 0. -1.
         -2    1    3    3    0  502  0.24908777083E+02 -0.24648145796E+02 -0.11672432243E+03  0.12187102081E+03  0.00000000000E+00 0.  1.
<mgrwt>
<rscale>  0 0.90009525E+02</rscale>
<asrwt>0</asrwt>
<pdfrwt beam="1">  1        1 0.48652178E-03 0.90009525E+02</pdfrwt>
<pdfrwt beam="2">  1       -1 0.98534415E-01 0.90009525E+02</pdfrwt>
<totfact> 0.40978069E+04</totfact>
</mgrwt>
</event>
<event>
 5    1  0.3854342E+001  0.1024186E+03  0.7546771E-02  0.1275291E+00
          1   -1    0    0  501    0  0.00000000000E+00  0.00000000000E+00  0.32652199300E+02  0.32652199300E+02  0.00000000000E+00 0. -1.
         -1   -1    0    0    0  501 -0.00000000000E+00 -0.00000000000E+00 -0.80312836445E+02  0.80312836445E+02  0.00000000000E+00 0.  1.
         23    2    1    2    0    0  0.00000000000E+00  0.00000000000E+00 -0.47660637146E+02  0.11296503574E+03  0.10241856749E+03 0.  0.
          2    1    3    3  502    0 -0.19085163718E+02  0.12499553554E+02 -0.74397907023E+02  0.77817291668E+02  0.00000000000E+00 0.  1.
         -2    1    3    3    0  502  0.19085163718E+02 -0.12499553554E+02  0.26737269877E+02  0.35147744077E+02  0.00000000000E+00 0. -1.
<mgrwt>
<rscale>  0 0.10241857E+03</rscale>
<asrwt>0</asrwt>
<pdfrwt beam="1">  1        1 0.50234153E-02 0.10241857E+03</pdfrwt>
<pdfrwt beam="2">  1       -1 0.12355821E-01 0.10241857E+03</pdfrwt>
<totfact> 0.62786364E+04</totfact>
</mgrwt>
</event>
<event>
 5    1  0.3854342E+001  0.8947678E+02  0.7546771E-02  0.1304124E+00
         -1   -1    0    0    0  501 -0.00000000000E+00  0.00000000000E+00  0.56500828075E+02  0.56500828075E+02  0.00000000000E+00 0.  1.
          1   -1    0    0  501    0  0.00000000000E+00 -0.00000000000E+00 -0.35424674391E+02  0.35424674391E+02  0.00000000000E+00 0. -1.
         23    2    1    2    0    0  0.00000000000E+00  0.00000000000E+00  0.21076153685E+02  0.91925502466E+02  0.89476777710E+02 0.  0.
          2    1    3    3  502    0  0.32865631032E+02 -0.28406656897E+02 -0.45213871993E+00  0.43442977438E+02  0.00000000000E+00 0. -1.
         -2    1    3    3    0  502 -0.32865631032E+02  0.28406656897E+02  0.21528292405E+02  0.48482525028E+02  0.00000000000E+00 0.  1.
<mgrwt>
<rscale>  0 0.89476778E+02</rscale>
<asrwt>0</asrwt>
<pdfrwt beam="2">  1        1 0.54499499E-02 0.89476778E+02</pdfrwt>
<pdfrwt beam="1">  1       -1 0.86924351E-02 0.89476778E+02</pdfrwt>
<totfact> 0.93869577E+04</totfact>
</mgrwt>
</event>
<event>
 5    1  0.3854342E+001  0.9135652E+02  0.7546771E-02  0.1299600E+00
          2   -1    0    0  501    0  0.00000000000E+00  0.00000000000E+00  0.13586046769E+04  0.13586046769E+04  0.00000000000E+00 0. -1.
         -2   -1    0    0    0  501 -0.00000000000E+00 -0.00000000000E+00 -0.15357694953E+01  0.15357694953E+01  0.00000000000E+00 0.  1.
         23    2    1    2    0    0  0.00000000000E+00  0.00000000000E+00  0.13570689074E+04  0.13601404464E+04  0.91356523991E+02 0.  0.
          2    1    3    3  502    0  0.32689042575E+02 -0.20678346830E-01  0.11535448104E+04  0.11540078871E+04  0.00000000000E+00 0. -1.
         -2    1    3    3    0  502 -0.32689042575E+02  0.20678346830E-01  0.20352409696E+03  0.20613255924E+03  0.00000000000E+00 0.  1.
<mgrwt>
<rscale>  0 0.91356524E+02</rscale>
<asrwt>0</asrwt>
<pdfrwt beam="1">  1        2 0.20901514E+00 0.91356524E+02</pdfrwt>
<pdfrwt beam="2">  1       -2 0.23627332E-03 0.91356524E+02</pdfrwt>
<totfact> 0.24206596E+05</totfact>
</mgrwt>
</event>
<event>
 5    1  0.3854342E+001  0.9189558E+02  0.7546771E-02  0.1298325E+00
         -2   -1    0    0    0  501 -0.00000000000E+00  0.00000000000E+00  0.12234234778E+02  0.12234234778E+02  0.00000000000E+00 0.  1.
          2   -1    0    0  501    0  0.00000000000E+00 -0.00000000000E+00 -0.17256487468E+03  0.17256487468E+03  0.00000000000E+00 0. -1.
         23    2    1    2    0    0  0.00000000000E+00  0.00000000000E+00 -0.16033063990E+03  0.18479910946E+03  0.91895575330E+02 0.  0.
          2    1    3    3  502    0  0.77462384102E+01 -0.28528258145E+02 -0.15090264831E+03  0.15377085221E+03  0.00000000000E+00 0. -1.
         -2    1    3    3    0  502 -0.77462384102E+01  0.28528258145E+02 -0.94279915881E+01  0.31028257245E+02  0.00000000000E+00 0.  1.
<mgrwt>
<rscale>  0 0.91895575E+02</rscale>
<asrwt>0</asrwt>
<pdfrwt beam="2">  1        2 0.26548440E-01 0.91895575E+02</pdfrwt>
<pdfrwt beam="1">  1       -2 0.18821901E-02 0.91895575E+02</pdfrwt>
<totfact> 0.14366052E+05</totfact>
</mgrwt>
</event>
<event>
 5    1  0.3854342E+001  0.9175988E+02  0.7546771E-02  0.1298645E+00
         -2   -1    0    0    0  501 -0.00000000000E+00  0.00000000000E+00  0.10602084533E+01  0.10602084533E+01  0.00000000000E+00 0.  1.
          2   -1    0    0  501    0  0.00000000000E+00 -0.00000000000E+00 -0.19854293344E+04  0.19854293344E+04  0.00000000000E+00 0. -1.
         23    2    1    2    0    0  0.00000000000E+00  0.00000000000E+00 -0.19843691259E+04  0.19864895428E+04  0.91759881513E+02 0.  0.
          2    1    3    3  502    0 -0.30129565474E+02  0.14161163732E+02 -0.30874120321E+03  0.31053093217E+03  0.00000000000E+00 0.  1.
         -2    1    3    3    0  502  0.30129565474E+02 -0.14161163732E+02 -0.16756279227E+04  0.16759586106E+04  0.00000000000E+00 0. -1.
<mgrwt>
<rscale>  0 0.91759882E+02</rscale>
<asrwt>0</asrwt>
<pdfrwt beam="2">  1        2 0.30544920E+00 0.91759882E+02</pdfrwt>
<pdfrwt beam="1">  1       -2 0.16310978E-03 0.91759882E+02</pdfrwt>
<totfact> 0.19483221E+05</totfact>
</mgrwt>
</event>
<event>
 5    1  0.3854342E+001  0.9049676E+02  0.7546771E-02  0.1301653E+00
         -1   -1    0    0    0  501 -0.00000000000E+00  0.00000000000E+00  0.93788847366E+02  0.93788847366E+02  0.00000000000E+00 0.  1.
          1   -1    0    0  501    0  0.00000000000E+00 -0.00000000000E+00 -0.21830057074E+02  0.21830057074E+02  0.00000000000E+00 0. -1.
         23    2    1    2    0    0  0.00000000000E+00  0.00000000000E+00  0.71958790292E+02  0.11561890444E+03  0.90496759963E+02 0.  0.
          2    1    3    3  502    0  0.33515028368E+02  0.40523649524E+01 -0.25130822028E+01  0.33852538611E+02  0.00000000000E+00 0. -1.
         -2    1    3    3    0  502 -0.33515028368E+02 -0.40523649524E+01  0.74471872495E+02  0.81766365830E+02  0.00000000000E+00 0.  1.
<mgrwt>
<rscale>  0 0.90496760E+02</rscale>
<asrwt>0</asrwt>
<pdfrwt beam="2">  1        1 0.33584704E-02 0.90496760E+02</pdfrwt>
<pdfrwt beam="1">  1       -1 0.14429053E-01 0.90496760E+02</pdfrwt>
<totfact> 0.83931295E+04</totfact>
</mgrwt>
</event>
<event>
 5    1  0.3854342E+001  0.9289716E+02  0.7546771E-02  0.1295984E+00
          1   -1    0    0  501    0  0.00000000000E+00  0.00000000000E+00  0.59851267403E+01  0.59851267403E+01  0.00000000000E+00 0. -1.
         -1   -1    0    0    0  501 -0.00000000000E+00 -0.00000000000E+00 -0.36047199947E+03  0.36047199947E+03  0.00000000000E+00 0.  1.
         23    2    1    2    0    0  0.00000000000E+00  0.00000000000E+00 -0.35448687273E+03  0.36645712621E+03  0.92897160412E+02 0.  0.
          2    1    3    3  502    0 -0.40140433342E+02  0.79675903660E+01 -0.26391458449E+03  0.26706861438E+03  0.00000000000E+00 0. -1.
         -2    1    3    3    0  502  0.40140433342E+02 -0.79675903660E+01 -0.90572288245E+02  0.99388511826E+02  0.00000000000E+00 0.  1.
<mgrwt>
<rscale>  0 0.92897160E+02</rscale>
<asrwt>0</asrwt>
<pdfrwt beam="1">  1        1 0.92078871E-03 0.92897160E+02</pdfrwt>
<pdfrwt beam="2">  1       -1 0.55457232E-01 0.92897160E+02</pdfrwt>
<totfact> 0.53352808E+04</totfact>
</mgrwt>
</event>
<event>
 5    1  0.3854342E+001  0.9014603E+02  0.7546771E-02  0.1302498E+00
         -2   -1    0    0    0  501 -0.00000000000E+00  0.00000000000E+00  0.45208422536E+03  0.45208422536E+03  0.00000000000E+00 0.  1.
          2   -1    0    0  501    0  0.00000000000E+00 -0.00000000000E+00 -0.44938014606E+01  0.44938014606E+01  0.00000000000E+00 0. -1.
         23    2    1    2    0    0  0.00000000000E+00  0.00000000000E+00  0.44759042390E+03  0.45657802682E+03  0.90146031576E+02 0.  0.
          2    1    3    3  502    0  0.32781401819E+02  0.27421604404E+02  0.15127516149E+03  0.15719649862E+03  0.00000000000E+00 0. -1.
         -2    1    3    3    0  502 -0.32781401819E+02 -0.27421604404E+02  0.29631526240E+03  0.29938152820E+03  0.00000000000E+00 0.  1.
<mgrwt>
<rscale>  0 0.90146032E+02</rscale>
<asrwt>0</asrwt>
<pdfrwt beam="2">  1        2 0.69135442E-03 0.90146032E+02</pdfrwt>
<pdfrwt beam="1">  1       -2 0.69551384E-01 0.90146032E+02</pdfrwt>
<totfact> 0.40339372E+04</totfact>
</mgrwt>
</event>
<event>
 5    1  0.3854342E+001  0.8905247E+02  0.7546771E-02  0.1305163E+00
          1   -1    0    0  501    0  0.00000000000E+00  0.00000000000E+00  0.10383152856E+03  0.10383152856E+03  0.00000000000E+00 0. -1.
         -1   -1    0    0    0  501 -0.00000000000E+00 -0.00000000000E+00 -0.19094253394E+02  0.19094253394E+02  0.00000000000E+00 0.  1.
         23    2    1    2    0    0  0.00000000000E+00  0.00000000000E+00  0.84737275170E+02  0.12292578196E+03  0.89052468057E+02 0.  0.
          2    1    3    3  502    0 -0.13557551304E+02 -0.40887281883E+02  0.57925191987E+02  0.72186597675E+02  0.00000000000E+00 0. -1.
         -2    1    3    3    0  502  0.13557551304E+02  0.40887281883E+02  0.26812083183E+02  0.50739184284E+02  0.00000000000E+00 0.  1.
<mgrwt>
<rscale>  0 0.89052468E+02</rscale>
<asrwt>0</asrwt>
<pdfrwt beam="1">  1        1 0.15974081E-01 0.89052468E+02</pdfrwt>
<pdfrwt beam="2">  1       -1 0.29375775E-02 0.89052468E+02</pdfrwt>
<totfact> 0.11206242E+05</totfact>
</mgrwt>
</event>
<event>
 4    1  0.3854342E+001  0.1355488E+03  0.7546771E-02  0.1219447E+00
         -2   -1    0    0    0  501 -0.00000000000E+00  0.00000000000E+00  0.15881620444E+03  0.15881620444E+03  0.00000000000E+00 0.  1.
          2   -1    0    0  501    0  0.00000000000E+00 -0.00000000000E+00 -0.28922557769E+02  0.28922557769E+02  0.00000000000E+00 0. -1.
          2    1    1    2  502    0 -0.38298295037E+02 -0.49116324451E+02  0.27932692979E+02  0.68259856924E+02  0.00000000000E+00 0. -1.
         -2    1    1    2    0  502  0.38298295037E+02  0.49116324451E+02  0.10196095370E+03  0.11947890529E+03  0.00000000000E+00 0.  1.
<mgrwt>
<rscale>  0 0.13554882E+03</rscale>
<asrwt>0</asrwt>
<pdfrwt beam="2">  1        2 0.44496244E-02 0.13554882E+03</pdfrwt>
<pdfrwt beam="1">  1       -2 0.24433262E-01 0.13554882E+03</pdfrwt>
<totfact> 0.25040843E+04</totfact>
</mgrwt>
</event>
<event>
 5    1  0.3854342E+001  0.8975830E+02  0.7546771E-02  0.1303438E+00
         -2   -1    0    0    0  501 -0.00000000000E+00  0.00000000000E+00  0.91389692005E+02  0.91389692005E+02  0.00000000000E+00 0. -1.
          2   -1    0    0  501    0  0.00000000000E+00 -0.00000000000E+00 -0.22039006943E+02  0.22039006943E+02  0.00000000000E+00 0.  1.
         23    2    1    2    0    0  0.00000000000E+00  0.00000000000E+00  0.69350685062E+02  0.11342869895E+03  0.89758298927E+02 0.  0.
          2    1    3    3  502    0  0.41228223291E+02  0.17277540665E+02  0.29642933191E+02  0.53637517610E+02  0.00000000000E+00 0.  1.
         -2    1    3    3    0  502 -0.41228223291E+02 -0.17277540665E+02  0.39707751870E+02  0.59791181338E+02  0.00000000000E+00 0. -1.
<mgrwt>
<rscale>  0 0.89758299E+02</rscale>
<asrwt>0</asrwt>
<pdfrwt beam="2">  1        2 0.33906165E-02 0.89758299E+02</pdfrwt>
<pdfrwt beam="1">  1       -2 0.14059952E-01 0.89758299E+02</pdfrwt>
<totfact> 0.85184506E+04</totfact>
</mgrwt>
</event>
<event>
 5    1  0.3854342E+001  0.9272445E+02  0.7546771E-02  0.1296385E+00
          1   -1    0    0  501    0  0.00000000000E+00  0.00000000000E+00  0.86425302814E+00  0.86425302814E+00  0.00000000000E+00 0. -1.
         -1   -1    0    0    0  501 -0.00000000000E+00 -0.00000000000E+00 -0.24870676428E+04  0.24870676428E+04  0.00000000000E+00 0.  1.
         23    2    1    2    0    0  0.00000000000E+00  0.00000000000E+00 -0.24862033898E+04  0.24879318959E+04  0.92724446431E+02 0.  0.
          2    1    3    3  502    0 -0.35011980935E+02  0.57533601005E+01 -0.44241050775E+03  0.44383104593E+03  0.00000000000E+00 0. -1.
         -2    1    3    3    0  502  0.35011980935E+02 -0.57533601005E+01 -0.20437928821E+04  0.20441008499E+04  0.00000000000E+00 0.  1.
<mgrwt>
<rscale>  0 0.92724446E+02</rscale>
<asrwt>0</asrwt>
<pdfrwt beam="1">  1        1 0.13296332E-03 0.92724446E+02</pdfrwt>
<pdfrwt beam="2">  1       -1 0.38262200E+00 0.92724446E+02</pdfrwt>
<totfact> 0.30624084E+03</totfact>
</mgrwt>
</event>
<event>
 5    1  0.3854342E+001  0.8784301E+02  0.7546771E-02  0.1308161E+00
         -2   -1    0    0    0  501 -0.00000000000E+00  0.00000000000E+00  0.26384410238E+01  0.26384410238E+01  0.00000000000E+00 0.  1.
          2   -1    0    0  501    0  0.00000000000E+00 -0.00000000000E+00 -0.73115087288E+03  0.73115087288E+03  0.00000000000E+00 0. -1.
         23    2    1    2    0    0  0.00000000000E+00  0.00000000000E+00 -0.72851243185E+03  0.73378931390E+03  0.87843006724E+02 0.  0.
          2    1    3    3  502    0  0.18271465131E+02  0.21654221494E+02 -0.64460600774E+03  0.64522837582E+03  0.00000000000E+00 0. -1.
         -2    1    3    3    0  502 -0.18271465131E+02 -0.21654221494E+02 -0.83906424112E+02  0.88560938081E+02  0.00000000000E+00 0.  1.
<mgrwt>
<rscale>  0 0.87843007E+02</rscale>
<asrwt>0</asrwt>
<pdfrwt beam="2">  1        2 0.11248489E+00 0.87843007E+02</pdfrwt>
<pdfrwt beam="1">  1       -2 0.40591351E-03 0.87843007E+02</pdfrwt>
<totfact> 0.26413347E+05</totfact>
</mgrwt>
</event>
<event>
 5    1  0.3854342E+001  0.9266142E+02  0.7546771E-02  0.1296532E+00
          2   -1    0    0  501    0  0.00000000000E+00  0.00000000000E+00  0.62904677382E+02  0.62904677382E+02  0.00000000000E+00 0. -1.
         -2   -1    0    0    0  501 -0.00000000000E+00 -0.00000000000E+00 -0.34123607193E+02  0.34123607193E+02  0.00000000000E+00 0.  1.
         23    2    1    2    0    0  0.00000000000E+00  0.00000000000E+00  0.28781070188E+02  0.97028284575E+02  0.92661415953E+02 0.  0.
          2    1    3    3  502    0 -0.25969911067E+02 -0.17547353011E+02  0.50118731765E+02  0.59112038979E+02  0.00000000000E+00 0. -1.
         -2    1    3    3    0  502  0.25969911067E+02  0.17547353011E+02 -0.21337661577E+02  0.37916245596E+02  0.00000000000E+00 0.  1.
<mgrwt>
<rscale>  0 0.92661416E+02</rscale>
<asrwt>0</asrwt>
<pdfrwt beam="1">  1        2 0.96776427E-02 0.92661416E+02</pdfrwt>
<pdfrwt beam="2">  1       -2 0.52497857E-02 0.92661416E+02</pdfrwt>
<totfact> 0.10264614E+05</totfact>
</mgrwt>
</event>
<event>
 5    1  0.3854342E+001  0.9392247E+02  0.7546771E-02  0.1293622E+00
          3   -1    0    0  501    0  0.00000000000E+00  0.00000000000E+00  0.75053940520E+02  0.75053940520E+02  0.00000000000E+00 0. -1.
         -3   -1    0    0    0  501 -0.00000000000E+00 -0.00000000000E+00 -0.29383632378E+02  0.29383632378E+02  0.00000000000E+00 0.  1.
         23    2    1    2    0    0  0.00000000000E+00  0.00000000000E+00  0.45670308142E+02  0.10443757290E+03  0.93922465827E+02 0.  0.
          2    1    3    3  502    0  0.42016825525E+02 -0.17345038623E+01  0.46078349503E+02  0.62382981845E+02  0.00000000000E+00 0. -1.
         -2    1    3    3    0  502 -0.42016825525E+02  0.17345038623E+01 -0.40804136101E+00  0.42054591053E+02  0.00000000000E+00 0.  1.
<mgrwt>
<rscale>  0 0.93922466E+02</rscale>
<asrwt>0</asrwt>
<pdfrwt beam="1">  1        3 0.11546760E-01 0.93922466E+02</pdfrwt>
<pdfrwt beam="2">  1       -3 0.45205589E-02 0.93922466E+02</pdfrwt>
<totfact> 0.31673526E+04</totfact>
</mgrwt>
</event>
<event>
 5    1  0.3854342E+001  0.9382389E+02  0.7546771E-02  0.1293847E+00
         -4   -1    0    0    0  501 -0.00000000000E+00  0.00000000000E+00  0.58184283957E+03  0.58184283957E+03  0.00000000000E+00 0.  1.
          4   -1    0    0  501    0  0.00000000000E+00 -0.00000000000E+00 -0.37823457268E+01  0.37823457268E+01  0.00000000000E+00 0. -1.
         23    2    1    2    0    0  0.00000000000E+00  0.00000000000E+00  0.57806049384E+03  0.58562518530E+03  0.93823894140E+02 0.  0.
          2    1    3    3  502    0  0.46142134382E+02  0.45098193337E+01  0.33373430517E+03  0.33693919553E+03  0.00000000000E+00 0. -1.
         -2    1    3    3    0  502 -0.46142134382E+02 -0.45098193337E+01  0.24432618867E+03  0.24868598977E+03  0.00000000000E+00 0.  1.
<mgrwt>
<rscale>  0 0.93823894E+02</rscale>
<asrwt>0</asrwt>
<pdfrwt beam="2">  1        4 0.58189981E-03 0.93823894E+02</pdfrwt>
<pdfrwt beam="1">  1       -4 0.89514212E-01 0.93823894E+02</pdfrwt>
<totfact> 0.10779917E+04</totfact>
</mgrwt>
</event>
<event>
 5    1  0.3854342E+001  0.9159202E+02  0.7546771E-02  0.1299042E+00
         -2   -1    0    0    0  501 -0.00000000000E+00  0.00000000000E+00  0.11808232366E+02  0.11808232366E+02  0.00000000000E+00 0.  1.
          2   -1    0    0  501    0  0.00000000000E+00 -0.00000000000E+00 -0.17761120309E+03  0.17761120309E+03  0.00000000000E+00 0. -1.
         23    2    1    2    0    0  0.00000000000E+00  0.00000000000E+00 -0.16580297073E+03  0.18941943546E+03  0.91592016179E+02 0.  0.
          2    1    3    3  502    0 -0.16761556634E+01 -0.30148070984E+02 -0.15410942915E+03  0.15703958684E+03  0.00000000000E+00 0. -1.
         -2    1    3    3    0  502  0.16761556634E+01  0.30148070984E+02 -0.11693541573E+02  0.32379848616E+02  0.00000000000E+00 0.  1.
<mgrwt>
<rscale>  0 0.91592016E+02</rscale>
<asrwt>0</asrwt>
<pdfrwt beam="2">  1        2 0.27324799E-01 0.91592016E+02</pdfrwt>
<pdfrwt beam="1">  1       -2 0.18166512E-02 0.91592016E+02</pdfrwt>
<totfact> 0.14643276E+05</totfact>
</mgrwt>
</event>
<event>
 5    1  0.3854342E+001  0.9110104E+02  0.7546771E-02  0.1300207E+00
          1   -1    0    0  501    0  0.00000000000E+00  0.00000000000E+00  0.50037622583E+02  0.50037622583E+02  0.00000000000E+00 0. -1.
         -1   -1    0    0    0  501 -0.00000000000E+00 -0.00000000000E+00 -0.41465800661E+02  0.41465800661E+02  0.00000000000E+00 0.  1.
         23    2    1    2    0    0  0.00000000000E+00  0.00000000000E+00  0.85718219217E+01  0.91503423244E+02  0.91101044639E+02 0.  0.
          2    1    3    3  502    0 -0.11481931329E+02 -0.32658704309E+02  0.34021134467E+02  0.48537236269E+02  0.00000000000E+00 0. -1.
         -2    1    3    3    0  502  0.11481931329E+02  0.32658704309E+02 -0.25449312545E+02  0.42966186976E+02  0.00000000000E+00 0.  1.
<mgrwt>
<rscale>  0 0.91101045E+02</rscale>
<asrwt>0</asrwt>
<pdfrwt beam="1">  1        1 0.76980958E-02 0.91101045E+02</pdfrwt>
<pdfrwt beam="2">  1       -1 0.63793539E-02 0.91101045E+02</pdfrwt>
<totfact> 0.93992930E+04</totfact>
</mgrwt>
</event>
<event>
 5    1  0.3854342E+001  0.9239991E+02  0.7546771E-02  0.1297142E+00
         -1   -1    0    0    0  501 -0.00000000000E+00  0.00000000000E+00  0.86963526360E+02  0.86963526360E+02  0.00000000000E+00 0.  1.
          1   -1    0    0  501    0  0.00000000000E+00 -0.00000000000E+00 -0.24544034812E+02  0.24544034812E+02  0.00000000000E+00 0. -1.
         23    2    1    2    0    0  0.00000000000E+00  0.00000000000E+00  0.62419491547E+02  0.11150756117E+03  0.92399909488E+02 0.  0.
          2    1    3    3  502    0 -0.35507067875E+02  0.27399135893E+02  0.44592165792E+02  0.63244966336E+02  0.00000000000E+00 0. -1.
         -2    1    3    3    0  502  0.35507067875E+02 -0.27399135893E+02  0.17827325755E+02  0.48262594836E+02  0.00000000000E+00 0.  1.
<mgrwt>
<rscale>  0 0.92399909E+02</rscale>
<asrwt>0</asrwt>
<pdfrwt beam="2">  1        1 0.37760054E-02 0.92399909E+02</pdfrwt>
<pdfrwt beam="1">  1       -1 0.13379004E-01 0.92399909E+02</pdfrwt>
<totfact> 0.80636774E+04</totfact>
</mgrwt>
</event>
<event>
 5    1  0.3854342E+001  0.9169317E+02  0.7546771E-02  0.1298802E+00
         -3   -1    0    0    0  501 -0.00000000000E+00  0.00000000000E+00  0.73710187778E+00  0.73710187778E+00  0.00000000000E+00 0.  1.
          3   -1    0    0  501    0  0.00000000000E+00 -0.00000000000E+00 -0.28515860264E+04  0.28515860264E+04  0.00000000000E+00 0. -1.
         23    2    1    2    0    0  0.00000000000E+00  0.00000000000E+00 -0.28508489246E+04  0.28523231283E+04  0.91693171278E+02 0.  0.
          2    1    3    3  502    0  0.25457480454E+02  0.37920386055E+02 -0.15493486298E+04  0.15500216823E+04  0.00000000000E+00 0. -1.
         -2    1    3    3    0  502 -0.25457480454E+02 -0.37920386055E+02 -0.13015002947E+04  0.13023014460E+04  0.00000000000E+00 0.  1.
<mgrwt>
<rscale>  0 0.91693171E+02</rscale>
<asrwt>0</asrwt>
<pdfrwt beam="2">  1        3 0.43870845E+00 0.91693171E+02</pdfrwt>
<pdfrwt beam="1">  1       -3 0.11339954E-03 0.91693171E+02</pdfrwt>
<totfact> 0.13223116E+03</totfact>
</mgrwt>
</event>
<event>
 5    1  0.3854342E+001  0.9068501E+02  0.7546771E-02  0.1301201E+00
         -1   -1    0    0    0  501 -0.00000000000E+00  0.00000000000E+00  0.10322030486E+01  0.10322030486E+01  0.00000000000E+00 0.  1.
          1   -1    0    0  501    0  0.00000000000E+00 -0.00000000000E+00 -0.19918006978E+04  0.19918006978E+04  0.00000000000E+00 0. -1.
         23    2    1    2    0    0  0.00000000000E+00  0.00000000000E+00 -0.19907684948E+04  0.19928329009E+04  0.90685009841E+02 0.  0.
          2    1    3    3  502    0  0.18320880084E+02 -0.40793056425E+02 -0.11601474203E+04  0.11610089427E+04  0.00000000000E+00 0. -1.
         -2    1    3    3    0  502 -0.18320880084E+02  0.40793056425E+02 -0.83062107445E+03  0.83182395819E+03  0.00000000000E+00 0.  1.
<mgrwt>
<rscale>  0 0.90685010E+02</rscale>
<asrwt>0</asrwt>
<pdfrwt beam="2">  1        1 0.30642765E+00 0.90685010E+02</pdfrwt>
<pdfrwt beam="1">  1       -1 0.15880214E-03 0.90685010E+02</pdfrwt>
<totfact> 0.81391311E+04</totfact>
</mgrwt>
</event>
<event>
 5    1  0.3854342E+001  0.8922838E+02  0.7546771E-02  0.1304731E+00
          1   -1    0    0  501    0  0.00000000000E+00  0.00000000000E+00  0.17621113103E+04  0.17621113103E+04  0.00000000000E+00 0. -1.
         -1   -1    0    0    0  501 -0.00000000000E+00 -0.00000000000E+00 -0.11295687395E+01  0.11295687395E+01  0.00000000000E+00 0.  1.
         23    2    1    2    0    0  0.00000000000E+00  0.00000000000E+00  0.17609817415E+04  0.17632408790E+04  0.89228377809E+02 0.  0.
          2    1    3    3  502    0  0.25580497135E+02  0.82981743128E+01  0.15839388252E+04  0.15841671072E+04  0.00000000000E+00 0. -1.
         -2    1    3    3    0  502 -0.25580497135E+02 -0.82981743128E+01  0.17704291637E+03  0.17907377186E+03  0.00000000000E+00 0.  1.
<mgrwt>
<rscale>  0 0.89228378E+02</rscale>
<asrwt>0</asrwt>
<pdfrwt beam="1">  1        1 0.27109185E+00 0.89228378E+02</pdfrwt>
<pdfrwt beam="2">  1       -1 0.17378122E-03 0.89228378E+02</pdfrwt>
<totfact> 0.99893772E+04</totfact>
</mgrwt>
</event>
<event>
 5    1  0.3854342E+001  0.9642048E+02  0.7546771E-02  0.1288008E+00
         -1   -1    0    0    0  501 -0.00000000000E+00  0.00000000000E+00  0.33811003174E+03  0.33811003174E+03  0.00000000000E+00 0.  1.
          1   -1    0    0  501    0  0.00000000000E+00 -0.00000000000E+00 -0.68741734418E+01  0.68741734418E+01  0.00000000000E+00 0. -1.
         23    2    1    2    0    0  0.00000000000E+00  0.00000000000E+00  0.33123585830E+03  0.34498420518E+03  0.96420475016E+02 0.  0.
          2    1    3    3  502    0  0.43146971331E+02 -0.14104646500E+02  0.22371083317E+03  0.22826988208E+03  0.00000000000E+00 0. -1.
         -2    1    3    3    0  502 -0.43146971331E+02  0.14104646500E+02  0.10752502513E+03  0.11671432310E+03  0.00000000000E+00 0.  1.
<mgrwt>
<rscale>  0 0.96420475E+02</rscale>
<asrwt>0</asrwt>
<pdfrwt beam="2">  1        1 0.10575654E-02 0.96420475E+02</pdfrwt>
<pdfrwt beam="1">  1       -1 0.52016915E-01 0.96420475E+02</pdfrwt>
<totfact> 0.49791740E+04</totfact>
</mgrwt>
</event>
<event>
 5    1  0.3854342E+001  0.9072877E+02  0.7546771E-02  0.1301096E+00
         -1   -1    0    0    0  501 -0.00000000000E+00  0.00000000000E+00  0.22575645876E+01  0.22575645876E+01  0.00000000000E+00 0.  1.
          1   -1    0    0  501    0  0.00000000000E+00 -0.00000000000E+00 -0.91156964447E+03  0.91156964447E+03  0.00000000000E+00 0. -1.
         23    2    1    2    0    0  0.00000000000E+00  0.00000000000E+00 -0.90931207988E+03  0.91382720906E+03  0.90728768282E+02 0.  0.
          2    1    3    3  502    0  0.44470562558E+02  0.84193273187E+01 -0.42375701011E+03  0.42616724373E+03  0.00000000000E+00 0. -1.
         -2    1    3    3    0  502 -0.44470562558E+02 -0.84193273187E+01 -0.48555506977E+03  0.48765996533E+03  0.00000000000E+00 0.  1.
<mgrwt>
<rscale>  0 0.90728768E+02</rscale>
<asrwt>0</asrwt>
<pdfrwt beam="2">  1        1 0.14024154E+00 0.90728768E+02</pdfrwt>
<pdfrwt beam="1">  1       -1 0.34731748E-03 0.90728768E+02</pdfrwt>
<totfact> 0.14067935E+05</totfact>
</mgrwt>
</event>
<event>
 5    1  0.3854342E+001  0.9138004E+02  0.7546771E-02  0.1299544E+00
          1   -1    0    0  501    0  0.00000000000E+00  0.00000000000E+00  0.10961887192E+04  0.10961887192E+04  0.00000000000E+00 0.  1.
         -1   -1    0    0    0  501 -0.00000000000E+00 -0.00000000000E+00 -0.19043965582E+01  0.19043965582E+01  0.00000000000E+00 0. -1.
         23    2    1    2    0    0  0.00000000000E+00  0.00000000000E+00  0.10942843226E+04  0.10980931158E+04  0.91380042110E+02 0.  0.
          2    1    3    3  502    0 -0.16195718015E+02  0.36838996619E+02  0.28713379720E+03  0.28994004630E+03  0.00000000000E+00 0. -1.
         -2    1    3    3    0  502  0.16195718015E+02 -0.36838996619E+02  0.80715052544E+03  0.80815306945E+03  0.00000000000E+00 0.  1.
<mgrwt>
<rscale>  0 0.91380042E+02</rscale>
<asrwt>0</asrwt>
<pdfrwt beam="1">  1        1 0.16864391E+00 0.91380042E+02</pdfrwt>
<pdfrwt beam="2">  1       -1 0.29298496E-03 0.91380042E+02</pdfrwt>
<totfact> 0.13139191E+05</totfact>
</mgrwt>
</event>
<event>
 5    1  0.3854342E+001  0.8834356E+02  0.7546771E-02  0.1306913E+00
         -1   -1    0    0    0  501 -0.00000000000E+00  0.00000000000E+00  0.65740611491E+00  0.65740611491E+00  0.00000000000E+00 0.  1.
          1   -1    0    0  501    0  0.00000000000E+00 -0.00000000000E+00 -0.29679462050E+04  0.29679462050E+04  0.00000000000E+00 0. -1.
         23    2    1    2    0    0  0.00000000000E+00  0.00000000000E+00 -0.29672887988E+04  0.29686036111E+04  0.88343556275E+02 0.  0.
          2    1    3    3  502    0 -0.37678064170E+02  0.12448526150E+02 -0.21357005622E+04  0.21360691688E+04  0.00000000000E+00 0. -1.
         -2    1    3    3    0  502  0.37678064170E+02 -0.12448526150E+02 -0.83158823664E+03  0.83253444231E+03  0.00000000000E+00 0.  1.
<mgrwt>
<rscale>  0 0.88343556E+02</rscale>
<asrwt>0</asrwt>
<pdfrwt beam="2">  1        1 0.45661522E+00 0.88343556E+02</pdfrwt>
<pdfrwt beam="1">  1       -1 0.10113761E-03 0.88343556E+02</pdfrwt>
<totfact> 0.35442420E+04</totfact>
</mgrwt>
</event>
<event>
 5    1  0.3854342E+001  0.9568239E+02  0.7546771E-02  0.1289647E+00
         -1   -1    0    0    0  501 -0.00000000000E+00  0.00000000000E+00  0.30919505184E+03  0.30919505184E+03  0.00000000000E+00 0.  1.
          1   -1    0    0  501    0  0.00000000000E+00 -0.00000000000E+00 -0.74023826205E+01  0.74023826205E+01  0.00000000000E+00 0. -1.
         23    2    1    2    0    0  0.00000000000E+00  0.00000000000E+00  0.30179266922E+03  0.31659743446E+03  0.95682392907E+02 0.  0.
          2    1    3    3  502    0 -0.23353210920E+02 -0.39795198683E+02  0.10907523024E+03  0.11843325610E+03  0.00000000000E+00 0. -1.
         -2    1    3    3    0  502  0.23353210920E+02  0.39795198683E+02  0.19271743899E+03  0.19816417837E+03  0.00000000000E+00 0.  1.
<mgrwt>
<rscale>  0 0.95682393E+02</rscale>
<asrwt>0</asrwt>
<pdfrwt beam="2">  1        1 0.11388283E-02 0.95682393E+02</pdfrwt>
<pdfrwt beam="1">  1       -1 0.47568460E-01 0.95682393E+02</pdfrwt>
<totfact> 0.52751257E+04</totfact>
</mgrwt>
</event>
<event>
 5    1  0.3854342E+001  0.9337864E+02  0.7546771E-02  0.1294870E+00
         -2   -1    0    0    0  501 -0.00000000000E+00  0.00000000000E+00  0.99604339210E+01  0.99604339210E+01  0.00000000000E+00 0.  1.
          2   -1    0    0  501    0  0.00000000000E+00 -0.00000000000E+00 -0.21885520641E+03  0.21885520641E+03  0.00000000000E+00 0. -1.
         23    2    1    2    0    0  0.00000000000E+00  0.00000000000E+00 -0.20889477249E+03  0.22881564033E+03  0.93378644705E+02 0.  0.
          2    1    3    3  502    0  0.12748679329E+02 -0.28542479814E+02 -0.19467696229E+02  0.36826528142E+02  0.00000000000E+00 0.  1.
         -2    1    3    3    0  502 -0.12748679329E+02  0.28542479814E+02 -0.18942707626E+03  0.19198911219E+03  0.00000000000E+00 0. -1.
<mgrwt>
<rscale>  0 0.93378645E+02</rscale>
<asrwt>0</asrwt>
<pdfrwt beam="2">  1        2 0.33670030E-01 0.93378645E+02</pdfrwt>
<pdfrwt beam="1">  1       -2 0.15323745E-02 0.93378645E+02</pdfrwt>
<totfact> 0.14988984E+05</totfact>
</mgrwt>
</event>
<event>
 5    1  0.3854342E+001  0.7309949E+02  0.7546771E-02  0.1349859E+00
          2   -1    0    0  501    0  0.00000000000E+00  0.00000000000E+00  0.18630942478E+03  0.18630942478E+03  0.00000000000E+00 0. -1.
         -2   -1    0    0    0  501 -0.00000000000E+00 -0.00000000000E+00 -0.71702435983E+01  0.71702435983E+01  0.00000000000E+00 0.  1.
         23    2    1    2    0    0  0.00000000000E+00  0.00000000000E+00  0.17913918118E+03  0.19347966838E+03  0.73099492757E+02 0.  0.
          2    1    3    3  502    0  0.27057608214E+02  0.19746074132E+02  0.12827646852E+03  0.13257780350E+03  0.00000000000E+00 0. -1.
         -2    1    3    3    0  502 -0.27057608214E+02 -0.19746074132E+02  0.50862712662E+02  0.60901864875E+02  0.00000000000E+00 0.  1.
<mgrwt>
<rscale>  0 0.73099493E+02</rscale>
<asrwt>0</asrwt>
<pdfrwt beam="1">  1        2 0.28662985E-01 0.73099493E+02</pdfrwt>
<pdfrwt beam="2">  1       -2 0.11031145E-02 0.73099493E+02</pdfrwt>
<totfact> 0.27144737E+05</totfact>
</mgrwt>
</event>
<event>
 5    1  0.3854342E+001  0.7546601E+02  0.7546771E-02  0.1342434E+00
         -2   -1    0    0    0  501 -0.00000000000E+00  0.00000000000E+00  0.17106780536E+01  0.17106780536E+01  0.00000000000E+00 0.  1.
          2   -1    0    0  501    0  0.00000000000E+00 -0.00000000000E+00 -0.83228971145E+03  0.83228971145E+03  0.00000000000E+00 0. -1.
         23    2    1    2    0    0  0.00000000000E+00  0.00000000000E+00 -0.83057903340E+03  0.83400038950E+03  0.75466012048E+02 0.  0.
          2    1    3    3  502    0  0.32111437568E+02 -0.16133139436E+02 -0.54243136726E+03  0.54362046576E+03  0.00000000000E+00 0. -1.
         -2    1    3    3    0  502 -0.32111437568E+02  0.16133139436E+02 -0.28814766614E+03  0.29037992374E+03  0.00000000000E+00 0.  1.
<mgrwt>
<rscale>  0 0.75466012E+02</rscale>
<asrwt>0</asrwt>
<pdfrwt beam="2">  1        2 0.12804467E+00 0.75466012E+02</pdfrwt>
<pdfrwt beam="1">  1       -2 0.26318103E-03 0.75466012E+02</pdfrwt>
<totfact> 0.40188081E+05</totfact>
</mgrwt>
</event>
<event>
 5    1  0.3854342E+001  0.9131401E+02  0.7546771E-02  0.1299700E+00
         -3   -1    0    0    0  501 -0.00000000000E+00  0.00000000000E+00  0.63665864924E+01  0.63665864924E+01  0.00000000000E+00 0.  1.
          3   -1    0    0  501    0  0.00000000000E+00 -0.00000000000E+00 -0.32742225479E+03  0.32742225479E+03  0.00000000000E+00 0. -1.
         23    2    1    2    0    0  0.00000000000E+00  0.00000000000E+00 -0.32105566830E+03  0.33378884129E+03  0.91314009981E+02 0.  0.
          2    1    3    3  502    0 -0.35063766821E+02  0.67565858631E+01 -0.56529230002E+02  0.66863091768E+02  0.00000000000E+00 0.  1.
         -2    1    3    3    0  502  0.35063766821E+02 -0.67565858631E+01 -0.26452643830E+03  0.26692574952E+03  0.00000000000E+00 0. -1.
<mgrwt>
<rscale>  0 0.91314010E+02</rscale>
<asrwt>0</asrwt>
<pdfrwt beam="2">  1        3 0.50372644E-01 0.91314010E+02</pdfrwt>
<pdfrwt beam="1">  1       -3 0.97947505E-03 0.91314010E+02</pdfrwt>
<totfact> 0.22688521E+04</totfact>
</mgrwt>
</event>
<event>
 5    1  0.3854342E+001  0.9183124E+02  0.7546771E-02  0.1298477E+00
          3   -1    0    0  501    0  0.00000000000E+00  0.00000000000E+00  0.29742275090E+02  0.29742275090E+02  0.00000000000E+00 0. -1.
         -3   -1    0    0    0  501 -0.00000000000E+00 -0.00000000000E+00 -0.70883754171E+02  0.70883754171E+02  0.00000000000E+00 0.  1.
         23    2    1    2    0    0  0.00000000000E+00  0.00000000000E+00 -0.41141479081E+02  0.10062602926E+03  0.91831239041E+02 0.  0.
          2    1    3    3  502    0  0.10310457107E+02  0.38669379901E+02  0.40930637964E+01  0.40229089462E+02  0.00000000000E+00 0. -1.
         -2    1    3    3    0  502 -0.10310457107E+02 -0.38669379901E+02 -0.45234542878E+02  0.60396939799E+02  0.00000000000E+00 0.  1.
<mgrwt>
<rscale>  0 0.91831239E+02</rscale>
<asrwt>0</asrwt>
<pdfrwt beam="1">  1        3 0.45757348E-02 0.91831239E+02</pdfrwt>
<pdfrwt beam="2">  1       -3 0.10905193E-01 0.91831239E+02</pdfrwt>
<totfact> 0.33957135E+04</totfact>
</mgrwt>
</event>
<event>
 5    1  0.3854342E+001  0.9125918E+02  0.7546771E-02  0.1299831E+00
          2   -1    0    0  501    0  0.00000000000E+00  0.00000000000E+00  0.14656794456E+03  0.14656794456E+03  0.00000000000E+00 0. -1.
         -2   -1    0    0    0  501 -0.00000000000E+00 -0.00000000000E+00 -0.14205421073E+02  0.14205421073E+02  0.00000000000E+00 0.  1.
         23    2    1    2    0    0  0.00000000000E+00  0.00000000000E+00  0.13236252349E+03  0.16077336563E+03  0.91259177473E+02 0.  0.
          2    1    3    3  502    0  0.90310079896E+01  0.35272729655E+02  0.17731170803E+02  0.40498382445E+02  0.00000000000E+00 0.  1.
         -2    1    3    3    0  502 -0.90310079896E+01 -0.35272729655E+02  0.11463135268E+03  0.12027498319E+03  0.00000000000E+00 0. -1.
<mgrwt>
<rscale>  0 0.91259177E+02</rscale>
<asrwt>0</asrwt>
<pdfrwt beam="1">  1        2 0.22548914E-01 0.91259177E+02</pdfrwt>
<pdfrwt beam="2">  1       -2 0.21854495E-02 0.91259177E+02</pdfrwt>
<totfact> 0.13837625E+05</totfact>
</mgrwt>
</event>
<event>
 5    1  0.3854342E+001  0.9281204E+02  0.7546771E-02  0.1296181E+00
          1   -1    0    0  501    0  0.00000000000E+00  0.00000000000E+00  0.52134568707E+02  0.52134568707E+02  0.00000000000E+00 0. -1.
         -1   -1    0    0    0  501 -0.00000000000E+00 -0.00000000000E+00 -0.41306924944E+02  0.41306924944E+02  0.00000000000E+00 0.  1.
         23    2    1    2    0    0  0.00000000000E+00  0.00000000000E+00  0.10827643763E+02  0.93441493651E+02  0.92812040524E+02 0.  0.
          2    1    3    3  502    0  0.40053431362E+02 -0.12248288345E+02  0.25529840241E+02  0.49051714281E+02  0.00000000000E+00 0. -1.
         -2    1    3    3    0  502 -0.40053431362E+02  0.12248288345E+02 -0.14702196478E+02  0.44389779370E+02  0.00000000000E+00 0.  1.
<mgrwt>
<rscale>  0 0.92812041E+02</rscale>
<asrwt>0</asrwt>
<pdfrwt beam="1">  1        1 0.80207028E-02 0.92812041E+02</pdfrwt>
<pdfrwt beam="2">  1       -1 0.63549116E-02 0.92812041E+02</pdfrwt>
<totfact> 0.89778224E+04</totfact>
</mgrwt>
</event>
<event>
 5    1  0.3854342E+001  0.8939899E+02  0.7546771E-02  0.1304314E+00
         -4   -1    0    0    0  501 -0.00000000000E+00  0.00000000000E+00  0.97811861856E+03  0.97811861856E+03  0.00000000000E+00 0.  1.
          4   -1    0    0  501    0  0.00000000000E+00 -0.00000000000E+00 -0.20427427122E+01  0.20427427122E+01  0.00000000000E+00 0. -1.
         23    2    1    2    0    0  0.00000000000E+00  0.00000000000E+00  0.97607587585E+03  0.98016136128E+03  0.89398986119E+02 0.  0.
          2    1    3    3  502    0  0.22964717938E+02 -0.18817104737E+02  0.12167588286E+03  0.12524568724E+03  0.00000000000E+00 0. -1.
         -2    1    3    3    0  502 -0.22964717938E+02  0.18817104737E+02  0.85439999299E+03  0.85491567404E+03  0.00000000000E+00 0.  1.
<mgrwt>
<rscale>  0 0.89398986E+02</rscale>
<asrwt>0</asrwt>
<pdfrwt beam="2">  1        4 0.31426889E-03 0.89398986E+02</pdfrwt>
<pdfrwt beam="1">  1       -4 0.15047941E+00 0.89398986E+02</pdfrwt>
<totfact> 0.76567568E+03</totfact>
</mgrwt>
</event>
<event>
 5    1  0.3854342E+001  0.8922803E+02  0.7546771E-02  0.1304732E+00
          1   -1    0    0  501    0  0.00000000000E+00  0.00000000000E+00  0.19034288901E+03  0.19034288901E+03  0.00000000000E+00 0. -1.
         -1   -1    0    0    0  501 -0.00000000000E+00 -0.00000000000E+00 -0.10456971777E+02  0.10456971777E+02  0.00000000000E+00 0.  1.
         23    2    1    2    0    0  0.00000000000E+00  0.00000000000E+00  0.17988591723E+03  0.20079986078E+03  0.89228027399E+02 0.  0.
          2    1    3    3  502    0 -0.12646251341E+02 -0.42595325507E+02  0.80907394313E+02  0.92305448823E+02  0.00000000000E+00 0. -1.
         -2    1    3    3    0  502  0.12646251341E+02  0.42595325507E+02  0.98978522917E+02  0.10849441196E+03  0.00000000000E+00 0.  1.
<mgrwt>
<rscale>  0 0.89228027E+02</rscale>
<asrwt>0</asrwt>
<pdfrwt beam="1">  1        1 0.29283519E-01 0.89228027E+02</pdfrwt>
<pdfrwt beam="2">  1       -1 0.16087650E-02 0.89228027E+02</pdfrwt>
<totfact> 0.12426743E+05</totfact>
</mgrwt>
</event>
<event>
 5    1  0.3854342E+001  0.9400855E+02  0.7546771E-02  0.1293425E+00
         -2   -1    0    0    0  501 -0.00000000000E+00  0.00000000000E+00  0.11177322164E+01  0.11177322164E+01  0.00000000000E+00 0.  1.
          2   -1    0    0  501    0  0.00000000000E+00 -0.00000000000E+00 -0.19766824348E+04  0.19766824348E+04  0.00000000000E+00 0. -1.
         23    2    1    2    0    0  0.00000000000E+00  0.00000000000E+00 -0.19755647026E+04  0.19778001670E+04  0.94008545122E+02 0.  0.
          2    1    3    3  502    0 -0.15979501712E+02 -0.19539390372E+02 -0.18219984316E+04  0.18221732676E+04  0.00000000000E+00 0. -1.
         -2    1    3    3    0  502  0.15979501712E+02  0.19539390372E+02 -0.15356627096E+03  0.15562689943E+03  0.00000000000E+00 0.  1.
<mgrwt>
<rscale>  0 0.94008545E+02</rscale>
<asrwt>0</asrwt>
<pdfrwt beam="2">  1        2 0.30410562E+00 0.94008545E+02</pdfrwt>
<pdfrwt beam="1">  1       -2 0.17195844E-03 0.94008545E+02</pdfrwt>
<totfact> 0.18347744E+05</totfact>
</mgrwt>
</event>
<event>
 4    1  0.3854342E+001  0.1453041E+03  0.7546771E-02  0.1206365E+00
          2   -1    0    0  501    0  0.00000000000E+00  0.00000000000E+00  0.54858256021E+02  0.54858256021E+02  0.00000000000E+00 0. -1.
         -2   -1    0    0    0  501 -0.00000000000E+00 -0.00000000000E+00 -0.96217483197E+02  0.96217483197E+02  0.00000000000E+00 0.  1.
          2    1    1    2  502    0 -0.29502376431E+02 -0.22236687177E+02 -0.85722131535E+02  0.93344224817E+02  0.00000000000E+00 0.  1.
         -2    1    1    2    0  502  0.29502376431E+02  0.22236687177E+02  0.44362904359E+02  0.57731514400E+02  0.00000000000E+00 0. -1.
<mgrwt>
<rscale>  0 0.14530414E+03</rscale>
<asrwt>0</asrwt>
<pdfrwt beam="1">  1        2 0.84397317E-02 0.14530414E+03</pdfrwt>
<pdfrwt beam="2">  1       -2 0.14802690E-01 0.14530414E+03</pdfrwt>
<totfact> 0.25763106E+04</totfact>
</mgrwt>
</event>
<event>
 5    1  0.3854342E+001  0.9345905E+02  0.7546771E-02  0.1294685E+00
          1   -1    0    0  501    0  0.00000000000E+00  0.00000000000E+00  0.75396810302E+03  0.75396810302E+03  0.00000000000E+00 0. -1.
         -1   -1    0    0    0  501 -0.00000000000E+00 -0.00000000000E+00 -0.28962083216E+01  0.28962083216E+01  0.00000000000E+00 0.  1.
         23    2    1    2    0    0  0.00000000000E+00  0.00000000000E+00  0.75107189470E+03  0.75686431134E+03  0.93459054011E+02 0.  0.
          2    1    3    3  502    0 -0.15758192359E+02 -0.22636563315E+02  0.70053695564E+02  0.75287813671E+02  0.00000000000E+00 0.  1.
         -2    1    3    3    0  502  0.15758192359E+02  0.22636563315E+02  0.68101819914E+03  0.68157649767E+03  0.00000000000E+00 0. -1.
<mgrwt>
<rscale>  0 0.93459054E+02</rscale>
<asrwt>0</asrwt>
<pdfrwt beam="1">  1        1 0.11599494E+00 0.93459054E+02</pdfrwt>
<pdfrwt beam="2">  1       -1 0.44557111E-03 0.93459054E+02</pdfrwt>
<totfact> 0.13288226E+05</totfact>
</mgrwt>
</event>
<event>
 5    1  0.3854342E+001  0.8955523E+02  0.7546771E-02  0.1303932E+00
         -1   -1    0    0    0  501 -0.00000000000E+00  0.00000000000E+00  0.15417509036E+02  0.15417509036E+02  0.00000000000E+00 0.  1.
          1   -1    0    0  501    0  0.00000000000E+00 -0.00000000000E+00 -0.13004920679E+03  0.13004920679E+03  0.00000000000E+00 0. -1.
         23    2    1    2    0    0  0.00000000000E+00  0.00000000000E+00 -0.11463169775E+03  0.14546671583E+03  0.89555230350E+02 0.  0.
          2    1    3    3  502    0  0.28062107468E+02  0.12907482384E+02 -0.46579321186E+01  0.31237498438E+02  0.00000000000E+00 0.  1.
         -2    1    3    3    0  502 -0.28062107468E+02 -0.12907482384E+02 -0.10997376564E+03  0.11422921739E+03  0.00000000000E+00 0. -1.
<mgrwt>
<rscale>  0 0.89555230E+02</rscale>
<asrwt>0</asrwt>
<pdfrwt beam="2">  1        1 0.20007571E-01 0.89555230E+02</pdfrwt>
<pdfrwt beam="1">  1       -1 0.23719244E-02 0.89555230E+02</pdfrwt>
<totfact> 0.11470321E+05</totfact>
</mgrwt>
</event>
<event>
 5    1  0.3854342E+001  0.9009122E+02  0.7546771E-02  0.1302631E+00
         -1   -1    0    0    0  501 -0.00000000000E+00  0.00000000000E+00  0.26900636821E+03  0.26900636821E+03  0.00000000000E+00 0.  1.
          1   -1    0    0  501    0  0.00000000000E+00 -0.00000000000E+00 -0.75429708104E+01  0.75429708104E+01  0.00000000000E+00 0. -1.
         23    2    1    2    0    0  0.00000000000E+00  0.00000000000E+00  0.26146339740E+03  0.27654933902E+03  0.90091224506E+02 0.  0.
          2    1    3    3  502    0  0.18219777787E+02 -0.23581767179E+02  0.27040492173E+02  0.40239883981E+02  0.00000000000E+00 0. -1.
         -2    1    3    3    0  502 -0.18219777787E+02  0.23581767179E+02  0.23442290523E+03  0.23630945504E+03  0.00000000000E+00 0.  1.
<mgrwt>
<rscale>  0 0.90091225E+02</rscale>
<asrwt>0</asrwt>
<pdfrwt beam="2">  1        1 0.11604573E-02 0.90091225E+02</pdfrwt>
<pdfrwt beam="1">  1       -1 0.41385588E-01 0.90091225E+02</pdfrwt>
<totfact> 0.65132026E+04</totfact>
</mgrwt>
</event>
<event>
 5    1  0.3854342E+001  0.9147987E+02  0.7546771E-02  0.1299307E+00
         -1   -1    0    0    0  501 -0.00000000000E+00  0.00000000000E+00  0.52910521501E+02  0.52910521501E+02  0.00000000000E+00 0.  1.
          1   -1    0    0  501    0  0.00000000000E+00 -0.00000000000E+00 -0.39541128236E+02  0.39541128236E+02  0.00000000000E+00 0. -1.
         23    2    1    2    0    0  0.00000000000E+00  0.00000000000E+00  0.13369393265E+02  0.92451649736E+02  0.91479871353E+02 0.  0.
          2    1    3    3  502    0 -0.19001745629E+02 -0.26946830063E+02 -0.25352904649E+02  0.41592881140E+02  0.00000000000E+00 0. -1.
         -2    1    3    3    0  502  0.19001745629E+02  0.26946830063E+02  0.38722297914E+02  0.50858768596E+02  0.00000000000E+00 0.  1.
<mgrwt>
<rscale>  0 0.91479871E+02</rscale>
<asrwt>0</asrwt>
<pdfrwt beam="2">  1        1 0.60832505E-02 0.91479871E+02</pdfrwt>
<pdfrwt beam="1">  1       -1 0.81400803E-02 0.91479871E+02</pdfrwt>
<totfact> 0.89658861E+04</totfact>
</mgrwt>
</event>
<event>
 5    1  0.3854342E+001  0.9081833E+02  0.7546771E-02  0.1300882E+00
         -2   -1    0    0    0  501 -0.00000000000E+00  0.00000000000E+00  0.18507647157E+01  0.18507647157E+01  0.00000000000E+00 0.  1.
          2   -1    0    0  501    0  0.00000000000E+00 -0.00000000000E+00 -0.11141299289E+04  0.11141299289E+04  0.00000000000E+00 0. -1.
         23    2    1    2    0    0  0.00000000000E+00  0.00000000000E+00 -0.11122791642E+04  0.11159806936E+04  0.90818332095E+02 0.  0.
          2    1    3    3  502    0 -0.27904664723E+01 -0.36867915436E+02 -0.88007902839E+03  0.88085533778E+03  0.00000000000E+00 0. -1.
         -2    1    3    3    0  502  0.27904664723E+01  0.36867915436E+02 -0.23220013579E+03  0.23512535582E+03  0.00000000000E+00 0.  1.
<mgrwt>
<rscale>  0 0.90818332E+02</rscale>
<asrwt>0</asrwt>
<pdfrwt beam="2">  1        2 0.17140482E+00 0.90818332E+02</pdfrwt>
<pdfrwt beam="1">  1       -2 0.28473267E-03 0.90818332E+02</pdfrwt>
<totfact> 0.25268094E+05</totfact>
</mgrwt>
</event>
<event>
 5    1  0.3854342E+001  0.9248131E+02  0.7546771E-02  0.1296952E+00
         -1   -1    0    0    0  501 -0.00000000000E+00  0.00000000000E+00  0.25572250027E+03  0.25572250027E+03  0.00000000000E+00 0.  1.
          1   -1    0    0  501    0  0.00000000000E+00 -0.00000000000E+00 -0.83613994140E+01  0.83613994140E+01  0.00000000000E+00 0. -1.
         23    2    1    2    0    0  0.00000000000E+00  0.00000000000E+00  0.24736110086E+03  0.26408389968E+03  0.92481305439E+02 0.  0.
          2    1    3    3  502    0 -0.45550795987E+02  0.78093540937E+01  0.11931527631E+03  0.12795310152E+03  0.00000000000E+00 0.  1.
         -2    1    3    3    0  502  0.45550795987E+02 -0.78093540937E+01  0.12804582454E+03  0.13613079817E+03  0.00000000000E+00 0. -1.
<mgrwt>
<rscale>  0 0.92481305E+02</rscale>
<asrwt>0</asrwt>
<pdfrwt beam="2">  1        1 0.12863693E-02 0.92481305E+02</pdfrwt>
<pdfrwt beam="1">  1       -1 0.39341917E-01 0.92481305E+02</pdfrwt>
<totfact> 0.61922417E+04</totfact>
</mgrwt>
</event>
<event>
 5    1  0.3854342E+001  0.8965746E+02  0.7546771E-02  0.1303683E+00
          1   -1    0    0  501    0  0.00000000000E+00  0.00000000000E+00  0.27713902783E+03  0.27713902783E+03  0.00000000000E+00 0. -1.
         -1   -1    0    0    0  501 -0.00000000000E+00 -0.00000000000E+00 -0.72512882883E+01  0.72512882883E+01  0.00000000000E+00 0.  1.
         23    2    1    2    0    0  0.00000000000E+00  0.00000000000E+00  0.26988773954E+03  0.28439031612E+03  0.89657458958E+02 0.  0.
          2    1    3    3  502    0 -0.20819701954E+02 -0.37472212913E+02  0.17654237977E+03  0.18167233853E+03  0.00000000000E+00 0.  1.
         -2    1    3    3    0  502  0.20819701954E+02  0.37472212913E+02  0.93345359769E+02  0.10271797759E+03  0.00000000000E+00 0. -1.
<mgrwt>
<rscale>  0 0.89657459E+02</rscale>
<asrwt>0</asrwt>
<pdfrwt beam="1">  1        1 0.42636765E-01 0.89657459E+02</pdfrwt>
<pdfrwt beam="2">  1       -1 0.11155830E-02 0.89657459E+02</pdfrwt>
<totfact> 0.13195787E+05</totfact>
</mgrwt>
</event>
<event>
 5    1  0.3854342E+001  0.9017302E+02  0.7546771E-02  0.1302433E+00
          2   -1    0    0  501    0  0.00000000000E+00  0.00000000000E+00  0.37425380652E+02  0.37425380652E+02  0.00000000000E+00 0. -1.
         -2   -1    0    0    0  501 -0.00000000000E+00 -0.00000000000E+00 -0.54315899804E+02  0.54315899804E+02  0.00000000000E+00 0.  1.
         23    2    1    2    0    0  0.00000000000E+00  0.00000000000E+00 -0.16890519152E+02  0.91741280455E+02  0.90173016487E+02 0.  0.
          2    1    3    3  502    0  0.39049085895E+02  0.19852754648E+02 -0.19299940024E+02  0.47869099232E+02  0.00000000000E+00 0.  1.
         -2    1    3    3    0  502 -0.39049085895E+02 -0.19852754648E+02  0.24094208718E+01  0.43872181223E+02  0.00000000000E+00 0. -1.
<mgrwt>
<rscale>  0 0.90173016E+02</rscale>
<asrwt>0</asrwt>
<pdfrwt beam="1">  1        2 0.57577509E-02 0.90173016E+02</pdfrwt>
<pdfrwt beam="2">  1       -2 0.83562922E-02 0.90173016E+02</pdfrwt>
<totfact> 0.96823475E+04</totfact>
</mgrwt>
</event>
<event>
 5    1  0.3854342E+001  0.9144044E+02  0.7546771E-02  0.1299400E+00
          2   -1    0    0  501    0  0.00000000000E+00  0.00000000000E+00  0.77606239828E+03  0.77606239828E+03  0.00000000000E+00 0. -1.
         -2   -1    0    0    0  501 -0.00000000000E+00 -0.00000000000E+00 -0.26935184405E+01  0.26935184405E+01  0.00000000000E+00 0.  1.
         23    2    1    2    0    0  0.00000000000E+00  0.00000000000E+00  0.77336887983E+03  0.77875591672E+03  0.91440437022E+02 0.  0.
          2    1    3    3  502    0  0.14699799941E+02  0.42242059646E+02  0.46741773893E+03  0.46955278552E+03  0.00000000000E+00 0. -1.
         -2    1    3    3    0  502 -0.14699799941E+02 -0.42242059646E+02  0.30595114090E+03  0.30920313120E+03  0.00000000000E+00 0.  1.
<mgrwt>
<rscale>  0 0.91440437E+02</rscale>
<asrwt>0</asrwt>
<pdfrwt beam="1">  1        2 0.11939404E+00 0.91440437E+02</pdfrwt>
<pdfrwt beam="2">  1       -2 0.41438807E-03 0.91440437E+02</pdfrwt>
<totfact> 0.24055148E+05</totfact>
</mgrwt>
</event>
<event>
 5    1  0.3854342E+001  0.8887787E+02  0.7546771E-02  0.1305592E+00
         -2   -1    0    0    0  501 -0.00000000000E+00  0.00000000000E+00  0.66937122257E+00  0.66937122257E+00  0.00000000000E+00 0.  1.
          2   -1    0    0  501    0  0.00000000000E+00 -0.00000000000E+00 -0.29502594316E+04  0.29502594316E+04  0.00000000000E+00 0. -1.
         23    2    1    2    0    0  0.00000000000E+00  0.00000000000E+00 -0.29495900604E+04  0.29509288028E+04  0.88877865920E+02 0.  0.
          2    1    3    3  502    0  0.24073461380E+02  0.23015621739E+02 -0.24516178658E+04  0.24518440836E+04  0.00000000000E+00 0. -1.
         -2    1    3    3    0  502 -0.24073461380E+02 -0.23015621739E+02 -0.49797219462E+03  0.49908471927E+03  0.00000000000E+00 0.  1.
<mgrwt>
<rscale>  0 0.88877866E+02</rscale>
<asrwt>0</asrwt>
<pdfrwt beam="2">  1        2 0.45388233E+00 0.88877866E+02</pdfrwt>
<pdfrwt beam="1">  1       -2 0.10298104E-03 0.88877866E+02</pdfrwt>
<totfact> 0.11377140E+05</totfact>
</mgrwt>
</event>
<event>
 5    1  0.3854342E+001  0.9062287E+02  0.7546771E-02  0.1301350E+00
          2   -1    0    0  501    0  0.00000000000E+00  0.00000000000E+00  0.16807860212E+04  0.16807860212E+04  0.00000000000E+00 0. -1.
         -2   -1    0    0    0  501 -0.00000000000E+00 -0.00000000000E+00 -0.12215274997E+01  0.12215274997E+01  0.00000000000E+00 0.  1.
         23    2    1    2    0    0  0.00000000000E+00  0.00000000000E+00  0.16795644937E+04  0.16820075487E+04  0.90622874508E+02 0.  0.
          2    1    3    3  502    0 -0.38685930952E+02 -0.23465307146E+02  0.79468189395E+03  0.79596892808E+03  0.00000000000E+00 0. -1.
         -2    1    3    3    0  502  0.38685930952E+02  0.23465307146E+02  0.88488259970E+03  0.88603862057E+03  0.00000000000E+00 0.  1.
<mgrwt>
<rscale>  0 0.90622875E+02</rscale>
<asrwt>0</asrwt>
<pdfrwt beam="1">  1        2 0.25858061E+00 0.90622875E+02</pdfrwt>
<pdfrwt beam="2">  1       -2 0.18792865E-03 0.90622875E+02</pdfrwt>
<totfact> 0.22736767E+05</totfact>
</mgrwt>
</event>
<event>
 5    1  0.3854342E+001  0.9238434E+02  0.7546771E-02  0.1297178E+00
          1   -1    0    0  501    0  0.00000000000E+00  0.00000000000E+00  0.28887753356E+03  0.28887753356E+03  0.00000000000E+00 0. -1.
         -1   -1    0    0    0  501 -0.00000000000E+00 -0.00000000000E+00 -0.73862316702E+01  0.73862316702E+01  0.00000000000E+00 0.  1.
         23    2    1    2    0    0  0.00000000000E+00  0.00000000000E+00  0.28149130188E+03  0.29626376523E+03  0.92384336056E+02 0.  0.
          2    1    3    3  502    0 -0.15515935845E-01 -0.45979632168E+02  0.12655204738E+03  0.13464600815E+03  0.00000000000E+00 0. -1.
         -2    1    3    3    0  502  0.15515935845E-01  0.45979632168E+02  0.15493925451E+03  0.16161775708E+03  0.00000000000E+00 0.  1.
<mgrwt>
<rscale>  0 0.92384336E+02</rscale>
<asrwt>0</asrwt>
<pdfrwt beam="1">  1        1 0.44442689E-01 0.92384336E+02</pdfrwt>
<pdfrwt beam="2">  1       -1 0.11363436E-02 0.92384336E+02</pdfrwt>
<totfact> 0.12280810E+05</totfact>
</mgrwt>
</event>
<event>
 5    1  0.3854342E+001  0.8882812E+02  0.7546771E-02  0.1305715E+00
          1   -1    0    0  501    0  0.00000000000E+00  0.00000000000E+00  0.14911564674E+02  0.14911564674E+02  0.00000000000E+00 0. -1.
         -1   -1    0    0    0  501 -0.00000000000E+00 -0.00000000000E+00 -0.13228718517E+03  0.13228718517E+03  0.00000000000E+00 0.  1.
         23    2    1    2    0    0  0.00000000000E+00  0.00000000000E+00 -0.11737562050E+03  0.14719874985E+03  0.88828124315E+02 0.  0.
          2    1    3    3  502    0  0.37230693139E+02 -0.20878334554E+02 -0.38353163603E+02  0.57384619226E+02  0.00000000000E+00 0. -1.
         -2    1    3    3    0  502 -0.37230693139E+02  0.20878334554E+02 -0.79022456897E+02  0.89814130622E+02  0.00000000000E+00 0.  1.
<mgrwt>
<rscale>  0 0.88828124E+02</rscale>
<asrwt>0</asrwt>
<pdfrwt beam="1">  1        1 0.22940868E-02 0.88828124E+02</pdfrwt>
<pdfrwt beam="2">  1       -1 0.20351876E-01 0.88828124E+02</pdfrwt>
<totfact> 0.82307197E+04</totfact>
</mgrwt>
</event>
<event>
 5    1  0.3854342E+001  0.9057001E+02  0.7546771E-02  0.1301477E+00
          1   -1    0    0  501    0  0.00000000000E+00  0.00000000000E+00  0.11338902172E+03  0.11338902172E+03  0.00000000000E+00 0. -1.
         -1   -1    0    0    0  501 -0.00000000000E+00 -0.00000000000E+00 -0.18085802496E+02  0.18085802496E+02  0.00000000000E+00 0.  1.
         23    2    1    2    0    0  0.00000000000E+00  0.00000000000E+00  0.95303219223E+02  0.13147482422E+03  0.90570005014E+02 0.  0.
          2    1    3    3  502    0 -0.95210609139E+00  0.22480792745E+02  0.10470002339E+03  0.10709055722E+03  0.00000000000E+00 0. -1.
         -2    1    3    3    0  502  0.95210609139E+00 -0.22480792745E+02 -0.93968041633E+01  0.24384266996E+02  0.00000000000E+00 0.  1.
<mgrwt>
<rscale>  0 0.90570005E+02</rscale>
<asrwt>0</asrwt>
<pdfrwt beam="1">  1        1 0.17444464E-01 0.90570005E+02</pdfrwt>
<pdfrwt beam="2">  1       -1 0.27824312E-02 0.90570005E+02</pdfrwt>
<totfact> 0.10864171E+05</totfact>
</mgrwt>
</event>
<event>
 5    1  0.3854342E+001  0.8908606E+02  0.7546771E-02  0.1305080E+00
          2   -1    0    0  501    0  0.00000000000E+00  0.00000000000E+00  0.65633851630E+02  0.65633851630E+02  0.00000000000E+00 0. -1.
         -2   -1    0    0    0  501 -0.00000000000E+00 -0.00000000000E+00 -0.30229546350E+02  0.30229546350E+02  0.00000000000E+00 0.  1.
         23    2    1    2    0    0  0.00000000000E+00  0.00000000000E+00  0.35404305280E+02  0.95863397981E+02  0.89086060863E+02 0.  0.
          2    1    3    3  502    0 -0.36590388152E+02 -0.25265769734E+02  0.20521787656E+02  0.48973047628E+02  0.00000000000E+00 0. -1.
         -2    1    3    3    0  502  0.36590388152E+02  0.25265769734E+02  0.14882517623E+02  0.46890350352E+02  0.00000000000E+00 0.  1.
<mgrwt>
<rscale>  0 0.89086061E+02</rscale>
<asrwt>0</asrwt>
<pdfrwt beam="1">  1        2 0.10097516E-01 0.89086061E+02</pdfrwt>
<pdfrwt beam="2">  1       -2 0.46506995E-02 0.89086061E+02</pdfrwt>
<totfact> 0.11596810E+05</totfact>
</mgrwt>
</event>
<event>
 5    1  0.3854342E+001  0.9170639E+02  0.7546771E-02  0.1298771E+00
         -1   -1    0    0    0  501 -0.00000000000E+00  0.00000000000E+00  0.38751173103E+02  0.38751173103E+02  0.00000000000E+00 0.  1.
          1   -1    0    0  501    0  0.00000000000E+00 -0.00000000000E+00 -0.54256820864E+02  0.54256820864E+02  0.00000000000E+00 0. -1.
         23    2    1    2    0    0  0.00000000000E+00  0.00000000000E+00 -0.15505647761E+02  0.93007993967E+02  0.91706389250E+02 0.  0.
          2    1    3    3  502    0  0.25089894506E+01 -0.20798781594E+02 -0.49119364182E+02  0.53400339714E+02  0.00000000000E+00 0. -1.
         -2    1    3    3    0  502 -0.25089894506E+01  0.20798781594E+02  0.33613716421E+02  0.39607654254E+02  0.00000000000E+00 0.  1.
<mgrwt>
<rscale>  0 0.91706389E+02</rscale>
<asrwt>0</asrwt>
<pdfrwt beam="2">  1        1 0.83472031E-02 0.91706389E+02</pdfrwt>
<pdfrwt beam="1">  1       -1 0.59617190E-02 0.91706389E+02</pdfrwt>
<totfact> 0.93400078E+04</totfact>
</mgrwt>
</event>
<event>
 5    1  0.3854342E+001  0.9107307E+02  0.7546771E-02  0.1300274E+00
          1   -1    0    0  501    0  0.00000000000E+00  0.00000000000E+00  0.12310790630E+04  0.12310790630E+04  0.00000000000E+00 0. -1.
         -1   -1    0    0    0  501 -0.00000000000E+00 -0.00000000000E+00 -0.16843565066E+01  0.16843565066E+01  0.00000000000E+00 0.  1.
         23    2    1    2    0    0  0.00000000000E+00  0.00000000000E+00  0.12293947064E+04  0.12327634195E+04  0.91073070221E+02 0.  0.
          2    1    3    3  502    0 -0.62686713396E+01  0.43514362411E+02  0.45409188640E+03  0.45621512171E+03  0.00000000000E+00 0.  1.
         -2    1    3    3    0  502  0.62686713396E+01 -0.43514362411E+02  0.77530282004E+03  0.77654829775E+03  0.00000000000E+00 0. -1.
<mgrwt>
<rscale>  0 0.91073070E+02</rscale>
<asrwt>0</asrwt>
<pdfrwt beam="1">  1        1 0.18939606E+00 0.91073070E+02</pdfrwt>
<pdfrwt beam="2">  1       -1 0.25913276E-03 0.91073070E+02</pdfrwt>
<totfact> 0.12610516E+05</totfact>
</mgrwt>
</event>
<event>
 5    1  0.3854342E+001  0.8766329E+02  0.7546771E-02  0.1308611E+00
         -2   -1    0    0    0  501 -0.00000000000E+00  0.00000000000E+00  0.15562977858E+03  0.15562977858E+03  0.00000000000E+00 0.  1.
          2   -1    0    0  501    0  0.00000000000E+00 -0.00000000000E+00 -0.12344765665E+02  0.12344765665E+02  0.00000000000E+00 0. -1.
         23    2    1    2    0    0  0.00000000000E+00  0.00000000000E+00  0.14328501291E+03  0.16797454424E+03  0.87663290997E+02 0.  0.
          2    1    3    3  502    0  0.38340885822E+01  0.28332734209E+02  0.79827733393E+01  0.29684486406E+02  0.00000000000E+00 0. -1.
         -2    1    3    3    0  502 -0.38340885822E+01 -0.28332734209E+02  0.13530223957E+03  0.13829005784E+03  0.00000000000E+00 0.  1.
<mgrwt>
<rscale>  0 0.87663291E+02</rscale>
<asrwt>0</asrwt>
<pdfrwt beam="2">  1        2 0.18991948E-02 0.87663291E+02</pdfrwt>
<pdfrwt beam="1">  1       -2 0.23943041E-01 0.87663291E+02</pdfrwt>
<totfact> 0.76125746E+04</totfact>
</mgrwt>
</event>
<event>
 5    1  0.3854342E+001  0.9138794E+02  0.7546771E-02  0.1299525E+00
         -1   -1    0    0    0  501 -0.00000000000E+00  0.00000000000E+00  0.13826773326E+02  0.13826773326E+02  0.00000000000E+00 0.  1.
          1   -1    0    0  501    0  0.00000000000E+00 -0.00000000000E+00 -0.15100695517E+03  0.15100695517E+03  0.00000000000E+00 0. -1.
         23    2    1    2    0    0  0.00000000000E+00  0.00000000000E+00 -0.13718018184E+03  0.16483372849E+03  0.91387940994E+02 0.  0.
          2    1    3    3  502    0 -0.15806545852E+02 -0.41557079818E+02 -0.49578586002E+02  0.66594849386E+02  0.00000000000E+00 0. -1.
         -2    1    3    3    0  502  0.15806545852E+02  0.41557079818E+02 -0.87601595838E+02  0.98238879107E+02  0.00000000000E+00 0.  1.
<mgrwt>
<rscale>  0 0.91387941E+02</rscale>
<asrwt>0</asrwt>
<pdfrwt beam="2">  1        1 0.23231839E-01 0.91387941E+02</pdfrwt>
<pdfrwt beam="1">  1       -1 0.21271959E-02 0.91387941E+02</pdfrwt>
<totfact> 0.11157194E+05</totfact>
</mgrwt>
</event>
<event>
 5    1  0.3854342E+001  0.9432399E+02  0.7546771E-02  0.1292706E+00
          1   -1    0    0  501    0  0.00000000000E+00  0.00000000000E+00  0.52047269336E+02  0.52047269336E+02  0.00000000000E+00 0. -1.
         -1   -1    0    0    0  501 -0.00000000000E+00 -0.00000000000E+00 -0.42735265562E+02  0.42735265562E+02  0.00000000000E+00 0.  1.
         23    2    1    2    0    0  0.00000000000E+00  0.00000000000E+00  0.93120037742E+01  0.94782534898E+02  0.94323992216E+02 0.  0.
          2    1    3    3  502    0 -0.46256349956E+02 -0.17462921495E+01  0.13730652692E+02  0.48282815482E+02  0.00000000000E+00 0. -1.
         -2    1    3    3    0  502  0.46256349956E+02  0.17462921495E+01 -0.44186489178E+01  0.46499719416E+02  0.00000000000E+00 0.  1.
<mgrwt>
<rscale>  0 0.94323992E+02</rscale>
<asrwt>0</asrwt>
<pdfrwt beam="1">  1        1 0.80072722E-02 0.94323992E+02</pdfrwt>
<pdfrwt beam="2">  1       -1 0.65746562E-02 0.94323992E+02</pdfrwt>
<totfact> 0.85779036E+04</totfact>
</mgrwt>
</event>
<event>
 5    1  0.3854342E+001  0.9191890E+02  0.7546771E-02  0.1298270E+00
          3   -1    0    0  501    0  0.00000000000E+00  0.00000000000E+00  0.54926875837E+01  0.54926875837E+01  0.00000000000E+00 0. -1.
         -3   -1    0    0    0  501 -0.00000000000E+00 -0.00000000000E+00 -0.38456054157E+03  0.38456054157E+03  0.00000000000E+00 0.  1.
         23    2    1    2    0    0  0.00000000000E+00  0.00000000000E+00 -0.37906785399E+03  0.39005322916E+03  0.91918897118E+02 0.  0.
          2    1    3    3  502    0  0.38156180143E+01 -0.21409980176E+02 -0.17722689186E+02  0.28054231480E+02  0.00000000000E+00 0. -1.
         -2    1    3    3    0  502 -0.38156180143E+01  0.21409980176E+02 -0.36134516480E+03  0.36199899768E+03  0.00000000000E+00 0.  1.
<mgrwt>
<rscale>  0 0.91918897E+02</rscale>
<asrwt>0</asrwt>
<pdfrwt beam="1">  1        3 0.84502868E-03 0.91918897E+02</pdfrwt>
<pdfrwt beam="2">  1       -3 0.59163173E-01 0.91918897E+02</pdfrwt>
<totfact> 0.20455380E+04</totfact>
</mgrwt>
</event>
<event>
 5    1  0.3854342E+001  0.9134931E+02  0.7546771E-02  0.1299617E+00
         -1   -1    0    0    0  501 -0.00000000000E+00  0.00000000000E+00  0.16401353474E+02  0.16401353474E+02  0.00000000000E+00 0.  1.
          1   -1    0    0  501    0  0.00000000000E+00 -0.00000000000E+00 -0.12719524794E+03  0.12719524794E+03  0.00000000000E+00 0. -1.
         23    2    1    2    0    0  0.00000000000E+00  0.00000000000E+00 -0.11079389447E+03  0.14359660141E+03  0.91349312458E+02 0.  0.
          2    1    3    3  502    0  0.19053310199E+02  0.41103154947E+02 -0.46274723667E+02  0.64759926086E+02  0.00000000000E+00 0. -1.
         -2    1    3    3    0  502 -0.19053310199E+02 -0.41103154947E+02 -0.64519170798E+02  0.78836675327E+02  0.00000000000E+00 0.  1.
<mgrwt>
<rscale>  0 0.91349312E+02</rscale>
<asrwt>0</asrwt>
<pdfrwt beam="2">  1        1 0.19568500E-01 0.91349312E+02</pdfrwt>
<pdfrwt beam="1">  1       -1 0.25232851E-02 0.91349312E+02</pdfrwt>
<totfact> 0.10828900E+05</totfact>
</mgrwt>
</event>
<event>
 5    1  0.3854342E+001  0.9144362E+02  0.7546771E-02  0.1299393E+00
          1   -1    0    0  501    0  0.00000000000E+00  0.00000000000E+00  0.15482171098E+02  0.15482171098E+02  0.00000000000E+00 0. -1.
         -1   -1    0    0    0  501 -0.00000000000E+00 -0.00000000000E+00 -0.13502523750E+03  0.13502523750E+03  0.00000000000E+00 0.  1.
         23    2    1    2    0    0  0.00000000000E+00  0.00000000000E+00 -0.11954306640E+03  0.15050740860E+03  0.91443618249E+02 0.  0.
          2    1    3    3  502    0  0.23773561391E+02  0.29485604705E+02 -0.17619014347E+02  0.41773350028E+02  0.00000000000E+00 0. -1.
         -2    1    3    3    0  502 -0.23773561391E+02 -0.29485604705E+02 -0.10192405206E+03  0.10873405857E+03  0.00000000000E+00 0.  1.
<mgrwt>
<rscale>  0 0.91443618E+02</rscale>
<asrwt>0</asrwt>
<pdfrwt beam="1">  1        1 0.23818724E-02 0.91443618E+02</pdfrwt>
<pdfrwt beam="2">  1       -1 0.20773114E-01 0.91443618E+02</pdfrwt>
<totfact> 0.76013974E+04</totfact>
</mgrwt>
</event>
<event>
 5    1  0.3854342E+001  0.9168839E+02  0.7546771E-02  0.1298814E+00
          3   -1    0    0  501    0  0.00000000000E+00  0.00000000000E+00  0.74940471950E+01  0.74940471950E+01  0.00000000000E+00 0. -1.
         -3   -1    0    0    0  501 -0.00000000000E+00 -0.00000000000E+00 -0.28044793111E+03  0.28044793111E+03  0.00000000000E+00 0.  1.
         23    2    1    2    0    0  0.00000000000E+00  0.00000000000E+00 -0.27295388392E+03  0.28794197831E+03  0.91688385993E+02 0.  0.
          2    1    3    3  502    0  0.30370581523E+02 -0.16805778918E+02 -0.23052692006E+03  0.23312543255E+03  0.00000000000E+00 0.  1.
         -2    1    3    3    0  502 -0.30370581523E+02  0.16805778918E+02 -0.42426963855E+02  0.54816545760E+02  0.00000000000E+00 0. -1.
<mgrwt>
<rscale>  0 0.91688386E+02</rscale>
<asrwt>0</asrwt>
<pdfrwt beam="1">  1        3 0.11529305E-02 0.91688386E+02</pdfrwt>
<pdfrwt beam="2">  1       -3 0.43145828E-01 0.91688386E+02</pdfrwt>
<totfact> 0.24132520E+04</totfact>
</mgrwt>
</event>
<event>
 5    1  0.3854342E+001  0.8884911E+02  0.7546771E-02  0.1305663E+00
         -1   -1    0    0    0  501 -0.00000000000E+00  0.00000000000E+00  0.90904262465E+01  0.90904262465E+01  0.00000000000E+00 0.  1.
          1   -1    0    0  501    0  0.00000000000E+00 -0.00000000000E+00 -0.21710102806E+03  0.21710102806E+03  0.00000000000E+00 0. -1.
         23    2    1    2    0    0  0.00000000000E+00  0.00000000000E+00 -0.20801060182E+03  0.22619145431E+03  0.88849105423E+02 0.  0.
          2    1    3    3  502    0 -0.26034645496E+02 -0.33795730057E+01 -0.19523981892E+03  0.19699698265E+03  0.00000000000E+00 0. -1.
         -2    1    3    3    0  502  0.26034645496E+02  0.33795730057E+01 -0.12770782892E+02  0.29194471659E+02  0.00000000000E+00 0.  1.
<mgrwt>
<rscale>  0 0.88849105E+02</rscale>
<asrwt>0</asrwt>
<pdfrwt beam="2">  1        1 0.33400157E-01 0.88849105E+02</pdfrwt>
<pdfrwt beam="1">  1       -1 0.13985272E-02 0.88849105E+02</pdfrwt>
<totfact> 0.12892091E+05</totfact>
</mgrwt>
</event>
<event>
 5    1  0.3854342E+001  0.9129101E+02  0.7546771E-02  0.1299755E+00
         -2   -1    0    0    0  501 -0.00000000000E+00  0.00000000000E+00  0.52257471906E+02  0.52257471906E+02  0.00000000000E+00 0.  1.
          2   -1    0    0  501    0  0.00000000000E+00 -0.00000000000E+00 -0.39870130361E+02  0.39870130361E+02  0.00000000000E+00 0. -1.
         23    2    1    2    0    0  0.00000000000E+00  0.00000000000E+00  0.12387341545E+02  0.92127602267E+02  0.91291011984E+02 0.  0.
          2    1    3    3  502    0 -0.35388545298E+02  0.25990279068E+02 -0.63973830221E+01  0.44370826608E+02  0.00000000000E+00 0. -1.
         -2    1    3    3    0  502  0.35388545298E+02 -0.25990279068E+02  0.18784724567E+02  0.47756775659E+02  0.00000000000E+00 0.  1.
<mgrwt>
<rscale>  0 0.91291012E+02</rscale>
<asrwt>0</asrwt>
<pdfrwt beam="2">  1        2 0.61338662E-02 0.91291012E+02</pdfrwt>
<pdfrwt beam="1">  1       -2 0.80396111E-02 0.91291012E+02</pdfrwt>
<totfact> 0.94962836E+04</totfact>
</mgrwt>
</event>
<event>
 5    1  0.3854342E+001  0.9172773E+02  0.7546771E-02  0.1298721E+00
         -1   -1    0    0    0  501 -0.00000000000E+00  0.00000000000E+00  0.56623293743E+02  0.56623293743E+02  0.00000000000E+00 0.  1.
          1   -1    0    0  501    0  0.00000000000E+00 -0.00000000000E+00 -0.37148915984E+02  0.37148915984E+02  0.00000000000E+00 0. -1.
         23    2    1    2    0    0  0.00000000000E+00  0.00000000000E+00  0.19474377759E+02  0.93772209728E+02  0.91727727150E+02 0.  0.
          2    1    3    3  502    0 -0.28221196901E+02 -0.19125599848E+02 -0.21626742943E+02  0.40372522022E+02  0.00000000000E+00 0. -1.
         -2    1    3    3    0  502  0.28221196901E+02  0.19125599848E+02  0.41101120701E+02  0.53399687705E+02  0.00000000000E+00 0.  1.
<mgrwt>
<rscale>  0 0.91727727E+02</rscale>
<asrwt>0</asrwt>
<pdfrwt beam="2">  1        1 0.57152178E-02 0.91727727E+02</pdfrwt>
<pdfrwt beam="1">  1       -1 0.87112760E-02 0.91727727E+02</pdfrwt>
<totfact> 0.88124783E+04</totfact>
</mgrwt>
</event>
<event>
 5    1  0.3854342E+001  0.9289329E+02  0.7546771E-02  0.1295993E+00
          2   -1    0    0  501    0  0.00000000000E+00  0.00000000000E+00  0.10664306364E+03  0.10664306364E+03  0.00000000000E+00 0. -1.
         -2   -1    0    0    0  501 -0.00000000000E+00 -0.00000000000E+00 -0.20229075797E+02  0.20229075797E+02  0.00000000000E+00 0.  1.
         23    2    1    2    0    0  0.00000000000E+00  0.00000000000E+00  0.86413987840E+02  0.12687213943E+03  0.92893285388E+02 0.  0.
          2    1    3    3  502    0 -0.62888628962E+01  0.40143469268E+02  0.73936906559E+02  0.84366545935E+02  0.00000000000E+00 0. -1.
         -2    1    3    3    0  502  0.62888628962E+01 -0.40143469268E+02  0.12477081280E+02  0.42505593499E+02  0.00000000000E+00 0.  1.
<mgrwt>
<rscale>  0 0.92893285E+02</rscale>
<asrwt>0</asrwt>
<pdfrwt beam="1">  1        2 0.16406625E-01 0.92893285E+02</pdfrwt>
<pdfrwt beam="2">  1       -2 0.31121656E-02 0.92893285E+02</pdfrwt>
<totfact> 0.11886397E+05</totfact>
</mgrwt>
</event>
<event>
 5    1  0.3854342E+001  0.9279905E+02  0.7546771E-02  0.1296212E+00
         -2   -1    0    0    0  501 -0.00000000000E+00  0.00000000000E+00  0.91534937600E+01  0.91534937600E+01  0.00000000000E+00 0.  1.
          2   -1    0    0  501    0  0.00000000000E+00 -0.00000000000E+00 -0.23520154485E+03  0.23520154485E+03  0.00000000000E+00 0. -1.
         23    2    1    2    0    0  0.00000000000E+00  0.00000000000E+00 -0.22604805109E+03  0.24435503861E+03  0.92799048984E+02 0.  0.
          2    1    3    3  502    0  0.32795799089E+01  0.45682024546E+02 -0.93440501823E+02  0.10406118581E+03  0.00000000000E+00 0. -1.
         -2    1    3    3    0  502 -0.32795799089E+01 -0.45682024546E+02 -0.13260754926E+03  0.14029385280E+03  0.00000000000E+00 0.  1.
<mgrwt>
<rscale>  0 0.92799049E+02</rscale>
<asrwt>0</asrwt>
<pdfrwt beam="2">  1        2 0.36184857E-01 0.92799049E+02</pdfrwt>
<pdfrwt beam="1">  1       -2 0.14082297E-02 0.92799049E+02</pdfrwt>
<totfact> 0.15652590E+05</totfact>
</mgrwt>
</event>
<event>
 5    1  0.3854342E+001  0.9220038E+02  0.7546771E-02  0.1297609E+00
          3   -1    0    0  501    0  0.00000000000E+00  0.00000000000E+00  0.16787852586E+02  0.16787852586E+02  0.00000000000E+00 0. -1.
         -3   -1    0    0    0  501 -0.00000000000E+00 -0.00000000000E+00 -0.12659315882E+03  0.12659315882E+03  0.00000000000E+00 0.  1.
         23    2    1    2    0    0  0.00000000000E+00  0.00000000000E+00 -0.10980530624E+03  0.14338101141E+03  0.92200375025E+02 0.  0.
          2    1    3    3  502    0 -0.32688546756E+02 -0.78669579143E+00 -0.43662007251E+01  0.32988235601E+02  0.00000000000E+00 0. -1.
         -2    1    3    3    0  502  0.32688546756E+02  0.78669579143E+00 -0.10543910551E+03  0.11039277581E+03  0.00000000000E+00 0.  1.
<mgrwt>
<rscale>  0 0.92200375E+02</rscale>
<asrwt>0</asrwt>
<pdfrwt beam="1">  1        3 0.25827466E-02 0.92200375E+02</pdfrwt>
<pdfrwt beam="2">  1       -3 0.19475870E-01 0.92200375E+02</pdfrwt>
<totfact> 0.30771097E+04</totfact>
</mgrwt>
</event>
<event>
 5    1  0.3854342E+001  0.9202908E+02  0.7546771E-02  0.1298011E+00
          2   -1    0    0  501    0  0.00000000000E+00  0.00000000000E+00  0.13330078390E+03  0.13330078390E+03  0.00000000000E+00 0. -1.
         -2   -1    0    0    0  501 -0.00000000000E+00 -0.00000000000E+00 -0.15883911779E+02  0.15883911779E+02  0.00000000000E+00 0.  1.
         23    2    1    2    0    0  0.00000000000E+00  0.00000000000E+00  0.11741687212E+03  0.14918469568E+03  0.92029080004E+02 0.  0.
          2    1    3    3  502    0  0.94854399119E+01  0.39075812024E+02  0.94972583509E+02  0.10313430212E+03  0.00000000000E+00 0. -1.
         -2    1    3    3    0  502 -0.94854399119E+01 -0.39075812024E+02  0.22444288614E+02  0.46050393560E+02  0.00000000000E+00 0.  1.
<mgrwt>
<rscale>  0 0.92029080E+02</rscale>
<asrwt>0</asrwt>
<pdfrwt beam="1">  1        2 0.20507812E-01 0.92029080E+02</pdfrwt>
<pdfrwt beam="2">  1       -2 0.24436788E-02 0.92029080E+02</pdfrwt>
<totfact> 0.13101700E+05</totfact>
</mgrwt>
</event>
<event>
 5    1  0.3854342E+001  0.8834209E+02  0.7546771E-02  0.1306917E+00
         -2   -1    0    0    0  501 -0.00000000000E+00  0.00000000000E+00  0.32415583634E+01  0.32415583634E+01  0.00000000000E+00 0.  1.
          2   -1    0    0  501    0  0.00000000000E+00 -0.00000000000E+00 -0.60189601679E+03  0.60189601679E+03  0.00000000000E+00 0. -1.
         23    2    1    2    0    0  0.00000000000E+00  0.00000000000E+00 -0.59865445843E+03  0.60513757515E+03  0.88342086620E+02 0.  0.
          2    1    3    3  502    0  0.30254625224E+02 -0.32035803030E+02 -0.27827435250E+03  0.28174146000E+03  0.00000000000E+00 0. -1.
         -2    1    3    3    0  502 -0.30254625224E+02  0.32035803030E+02 -0.32038010592E+03  0.32339611515E+03  0.00000000000E+00 0.  1.
<mgrwt>
<rscale>  0 0.88342087E+02</rscale>
<asrwt>0</asrwt>
<pdfrwt beam="2">  1        2 0.92599337E-01 0.88342087E+02</pdfrwt>
<pdfrwt beam="1">  1       -2 0.49870156E-03 0.88342087E+02</pdfrwt>
<totfact> 0.24785451E+05</totfact>
</mgrwt>
</event>
<event>
 5    1  0.3854342E+001  0.9152708E+02  0.7546771E-02  0.1299195E+00
          1   -1    0    0  501    0  0.00000000000E+00  0.00000000000E+00  0.11320547211E+04  0.11320547211E+04  0.00000000000E+00 0. -1.
         -1   -1    0    0    0  501 -0.00000000000E+00 -0.00000000000E+00 -0.18500003914E+01  0.18500003914E+01  0.00000000000E+00 0.  1.
         23    2    1    2    0    0  0.00000000000E+00  0.00000000000E+00  0.11302047207E+04  0.11339047215E+04  0.91527081831E+02 0.  0.
          2    1    3    3  502    0  0.24175331971E+02  0.60871925339E+01  0.10405459497E+04  0.10408445484E+04  0.00000000000E+00 0. -1.
         -2    1    3    3    0  502 -0.24175331971E+02 -0.60871925339E+01  0.89658771011E+02  0.93060173050E+02  0.00000000000E+00 0.  1.
<mgrwt>
<rscale>  0 0.91527082E+02</rscale>
<asrwt>0</asrwt>
<pdfrwt beam="1">  1        1 0.17416171E+00 0.91527082E+02</pdfrwt>
<pdfrwt beam="2">  1       -1 0.28461635E-03 0.91527082E+02</pdfrwt>
<totfact> 0.12924490E+05</totfact>
</mgrwt>
</event>
<event>
 5    1  0.3854342E+001  0.9066866E+02  0.7546771E-02  0.1301240E+00
          1   -1    0    0  501    0  0.00000000000E+00  0.00000000000E+00  0.26195216746E+01  0.26195216746E+01  0.00000000000E+00 0. -1.
         -1   -1    0    0    0  501 -0.00000000000E+00 -0.00000000000E+00 -0.78457120020E+03  0.78457120020E+03  0.00000000000E+00 0.  1.
         23    2    1    2    0    0  0.00000000000E+00  0.00000000000E+00 -0.78195167852E+03  0.78719072187E+03  0.90668655315E+02 0.  0.
          2    1    3    3  502    0  0.19290362302E+02  0.39932574585E+02 -0.30931245625E+03  0.31247547773E+03  0.00000000000E+00 0. -1.
         -2    1    3    3    0  502 -0.19290362302E+02 -0.39932574585E+02 -0.47263922227E+03  0.47471524414E+03  0.00000000000E+00 0.  1.
<mgrwt>
<rscale>  0 0.90668655E+02</rscale>
<asrwt>0</asrwt>
<pdfrwt beam="1">  1        1 0.40300322E-03 0.90668655E+02</pdfrwt>
<pdfrwt beam="2">  1       -1 0.12070330E+00 0.90668655E+02</pdfrwt>
<totfact> 0.33760263E+04</totfact>
</mgrwt>
</event>
<event>
 5    1  0.3854342E+001  0.8966899E+02  0.7546771E-02  0.1303655E+00
         -1   -1    0    0    0  501 -0.00000000000E+00  0.00000000000E+00  0.14094356180E+03  0.14094356180E+03  0.00000000000E+00 0.  1.
          1   -1    0    0  501    0  0.00000000000E+00 -0.00000000000E+00 -0.14261964690E+02  0.14261964690E+02  0.00000000000E+00 0. -1.
         23    2    1    2    0    0  0.00000000000E+00  0.00000000000E+00  0.12668159711E+03  0.15520552649E+03  0.89668993564E+02 0.  0.
          2    1    3    3  502    0 -0.29755232887E+01  0.40525398493E+02  0.96134786269E+02  0.10436981744E+03  0.00000000000E+00 0.  1.
         -2    1    3    3    0  502  0.29755232887E+01 -0.40525398493E+02  0.30546810841E+02  0.50835709048E+02  0.00000000000E+00 0. -1.
<mgrwt>
<rscale>  0 0.89668994E+02</rscale>
<asrwt>0</asrwt>
<pdfrwt beam="2">  1        1 0.21941485E-02 0.89668994E+02</pdfrwt>
<pdfrwt beam="1">  1       -1 0.21683624E-01 0.89668994E+02</pdfrwt>
<totfact> 0.79213776E+04</totfact>
</mgrwt>
</event>
<event>
 5    1  0.3854342E+001  0.8868647E+02  0.7546771E-02  0.1306064E+00
         -1   -1    0    0    0  501 -0.00000000000E+00  0.00000000000E+00  0.25850885441E+01  0.25850885441E+01  0.00000000000E+00 0.  1.
          1   -1    0    0  501    0  0.00000000000E+00 -0.00000000000E+00 -0.76064034327E+03  0.76064034327E+03  0.00000000000E+00 0. -1.
         23    2    1    2    0    0  0.00000000000E+00  0.00000000000E+00 -0.75805525473E+03  0.76322543182E+03  0.88686473321E+02 0.  0.
          2    1    3    3  502    0 -0.30465852665E+02 -0.14971658386E+02 -0.13349529349E+03  0.13774364637E+03  0.00000000000E+00 0.  1.
         -2    1    3    3    0  502  0.30465852665E+02  0.14971658386E+02 -0.62455996124E+03  0.62548178544E+03  0.00000000000E+00 0. -1.
<mgrwt>
<rscale>  0 0.88686473E+02</rscale>
<asrwt>0</asrwt>
<pdfrwt beam="2">  1        1 0.11702172E+00 0.88686473E+02</pdfrwt>
<pdfrwt beam="1">  1       -1 0.39770549E-03 0.88686473E+02</pdfrwt>
<totfact> 0.15256340E+05</totfact>
</mgrwt>
</event>
<event>
 5    1  0.3854342E+001  0.9370510E+02  0.7546771E-02  0.1294119E+00
         -3   -1    0    0    0  501 -0.00000000000E+00  0.00000000000E+00  0.60332462449E+01  0.60332462449E+01  0.00000000000E+00 0.  1.
          3   -1    0    0  501    0  0.00000000000E+00 -0.00000000000E+00 -0.36384414116E+03  0.36384414116E+03  0.00000000000E+00 0. -1.
         23    2    1    2    0    0  0.00000000000E+00  0.00000000000E+00 -0.35781089491E+03  0.36987738740E+03  0.93705096945E+02 0.  0.
          2    1    3    3  502    0 -0.25392153838E+02  0.12470298317E+01 -0.33425088742E+03  0.33521630674E+03  0.00000000000E+00 0. -1.
         -2    1    3    3    0  502  0.25392153838E+02 -0.12470298317E+01 -0.23560007489E+02  0.34661080664E+02  0.00000000000E+00 0.  1.
<mgrwt>
<rscale>  0 0.93705097E+02</rscale>
<asrwt>0</asrwt>
<pdfrwt beam="2">  1        3 0.55976004E-01 0.93705097E+02</pdfrwt>
<pdfrwt beam="1">  1       -3 0.92819202E-03 0.93705097E+02</pdfrwt>
<totfact> 0.20031021E+04</totfact>
</mgrwt>
</event>
<event>
 5    1  0.3854342E+001  0.9289182E+02  0.7546771E-02  0.1295996E+00
          2   -1    0    0  501    0  0.00000000000E+00  0.00000000000E+00  0.31853054797E+03  0.31853054797E+03  0.00000000000E+00 0. -1.
         -2   -1    0    0    0  501 -0.00000000000E+00 -0.00000000000E+00 -0.67724195604E+01  0.67724195604E+01  0.00000000000E+00 0.  1.
         23    2    1    2    0    0  0.00000000000E+00  0.00000000000E+00  0.31175812841E+03  0.32530296753E+03  0.92891819094E+02 0.  0.
          2    1    3    3  502    0  0.12293034609E+02  0.30176233786E+02  0.27178788732E+03  0.27373414014E+03  0.00000000000E+00 0. -1.
         -2    1    3    3    0  502 -0.12293034609E+02 -0.30176233786E+02  0.39970241088E+02  0.51568827387E+02  0.00000000000E+00 0.  1.
<mgrwt>
<rscale>  0 0.92891819E+02</rscale>
<asrwt>0</asrwt>
<pdfrwt beam="1">  1        2 0.49004688E-01 0.92891819E+02</pdfrwt>
<pdfrwt beam="2">  1       -2 0.10419110E-02 0.92891819E+02</pdfrwt>
<totfact> 0.17479135E+05</totfact>
</mgrwt>
</event>
<event>
 5    1  0.3854342E+001  0.9199255E+02  0.7546771E-02  0.1298097E+00
          4   -1    0    0  501    0  0.00000000000E+00  0.00000000000E+00  0.20485332037E+03  0.20485332037E+03  0.00000000000E+00 0. -1.
         -4   -1    0    0    0  501 -0.00000000000E+00 -0.00000000000E+00 -0.10327669099E+02  0.10327669099E+02  0.00000000000E+00 0.  1.
         23    2    1    2    0    0  0.00000000000E+00  0.00000000000E+00  0.19452565127E+03  0.21518098947E+03  0.91992549841E+02 0.  0.
          2    1    3    3  502    0 -0.19539701521E+02 -0.41587409298E+02  0.92387158100E+02  0.10318284513E+03  0.00000000000E+00 0. -1.
         -2    1    3    3    0  502  0.19539701521E+02  0.41587409298E+02  0.10213849317E+03  0.11199814434E+03  0.00000000000E+00 0.  1.
<mgrwt>
<rscale>  0 0.91992550E+02</rscale>
<asrwt>0</asrwt>
<pdfrwt beam="1">  1        4 0.31515892E-01 0.91992550E+02</pdfrwt>
<pdfrwt beam="2">  1       -4 0.15888723E-02 0.91992550E+02</pdfrwt>
<totfact> 0.20278497E+04</totfact>
</mgrwt>
</event>
<event>
 5    1  0.3854342E+001  0.9167611E+02  0.7546771E-02  0.1298843E+00
          3   -1    0    0  501    0  0.00000000000E+00  0.00000000000E+00  0.83504696816E+02  0.83504696816E+02  0.00000000000E+00 0. -1.
         -3   -1    0    0    0  501 -0.00000000000E+00 -0.00000000000E+00 -0.25161786475E+02  0.25161786475E+02  0.00000000000E+00 0.  1.
         23    2    1    2    0    0  0.00000000000E+00  0.00000000000E+00  0.58342910341E+02  0.10866648329E+03  0.91676111413E+02 0.  0.
          2    1    3    3  502    0  0.38523485051E+02  0.50642620799E+01  0.57997699037E+02  0.69810018941E+02  0.00000000000E+00 0. -1.
         -2    1    3    3    0  502 -0.38523485051E+02 -0.50642620799E+01  0.34521130348E+00  0.38856464350E+02  0.00000000000E+00 0.  1.
<mgrwt>
<rscale>  0 0.91676111E+02</rscale>
<asrwt>0</asrwt>
<pdfrwt beam="1">  1        3 0.12846876E-01 0.91676111E+02</pdfrwt>
<pdfrwt beam="2">  1       -3 0.38710441E-02 0.91676111E+02</pdfrwt>
<totfact> 0.33537466E+04</totfact>
</mgrwt>
</event>
<event>
 5    1  0.3854342E+001  0.9081381E+02  0.7546771E-02  0.1300893E+00
         -4   -1    0    0    0  501 -0.00000000000E+00  0.00000000000E+00  0.35094388067E+02  0.35094388067E+02  0.00000000000E+00 0.  1.
          4   -1    0    0  501    0  0.00000000000E+00 -0.00000000000E+00 -0.58749760876E+02  0.58749760876E+02  0.00000000000E+00 0. -1.
         23    2    1    2    0    0  0.00000000000E+00  0.00000000000E+00 -0.23655372809E+02  0.93844148944E+02  0.90813807476E+02 0.  0.
          2    1    3    3  502    0  0.20415135920E+02 -0.28879663638E+01 -0.53633407148E+02  0.57460077329E+02  0.00000000000E+00 0. -1.
         -2    1    3    3    0  502 -0.20415135920E+02  0.28879663638E+01  0.29978034340E+02  0.36384071614E+02  0.00000000000E+00 0.  1.
<mgrwt>
<rscale>  0 0.90813807E+02</rscale>
<asrwt>0</asrwt>
<pdfrwt beam="2">  1        4 0.90384248E-02 0.90813807E+02</pdfrwt>
<pdfrwt beam="1">  1       -4 0.53991366E-02 0.90813807E+02</pdfrwt>
<totfact> 0.27137428E+04</totfact>
</mgrwt>
</event>
<event>
 5    1  0.3854342E+001  0.9136086E+02  0.7546771E-02  0.1299589E+00
          2   -1    0    0  501    0  0.00000000000E+00  0.00000000000E+00  0.20767128036E+02  0.20767128036E+02  0.00000000000E+00 0. -1.
         -2   -1    0    0    0  501 -0.00000000000E+00 -0.00000000000E+00 -0.10048099114E+03  0.10048099114E+03  0.00000000000E+00 0.  1.
         23    2    1    2    0    0  0.00000000000E+00  0.00000000000E+00 -0.79713863107E+02  0.12124811918E+03  0.91360858319E+02 0.  0.
          2    1    3    3  502    0  0.28195797753E+02 -0.32206211624E+02 -0.18686810251E+02  0.46705887803E+02  0.00000000000E+00 0. -1.
         -2    1    3    3    0  502 -0.28195797753E+02  0.32206211624E+02 -0.61027052857E+02  0.74542231376E+02  0.00000000000E+00 0.  1.
<mgrwt>
<rscale>  0 0.91360858E+02</rscale>
<asrwt>0</asrwt>
<pdfrwt beam="1">  1        2 0.31949427E-02 0.91360858E+02</pdfrwt>
<pdfrwt beam="2">  1       -2 0.15458614E-01 0.91360858E+02</pdfrwt>
<totfact> 0.79292633E+04</totfact>
</mgrwt>
</event>
<event>
 5    1  0.3854342E+001  0.9830016E+02  0.7546771E-02  0.1283912E+00
         -1   -1    0    0    0  501 -0.00000000000E+00  0.00000000000E+00  0.29071554990E+02  0.29071554990E+02  0.00000000000E+00 0.  1.
          1   -1    0    0  501    0  0.00000000000E+00 -0.00000000000E+00 -0.83096021885E+02  0.83096021885E+02  0.00000000000E+00 0. -1.
         23    2    1    2    0    0  0.00000000000E+00  0.00000000000E+00 -0.54024466895E+02  0.11216757687E+03  0.98300164184E+02 0.  0.
          2    1    3    3  502    0  0.40020093185E+02  0.17825703789E+01 -0.59506656942E+02  0.71734424346E+02  0.00000000000E+00 0. -1.
         -2    1    3    3    0  502 -0.40020093185E+02 -0.17825703789E+01  0.54821900477E+01  0.40433152529E+02  0.00000000000E+00 0.  1.
<mgrwt>
<rscale>  0 0.98300164E+02</rscale>
<asrwt>0</asrwt>
<pdfrwt beam="2">  1        1 0.12784003E-01 0.98300164E+02</pdfrwt>
<pdfrwt beam="1">  1       -1 0.44725470E-02 0.98300164E+02</pdfrwt>
<totfact> 0.82363671E+04</totfact>
</mgrwt>
</event>
<event>
 5    1  0.3854342E+001  0.9416921E+02  0.7546771E-02  0.1293058E+00
          2   -1    0    0  501    0  0.00000000000E+00  0.00000000000E+00  0.26446478861E+04  0.26446478861E+04  0.00000000000E+00 0. -1.
         -2   -1    0    0    0  501 -0.00000000000E+00 -0.00000000000E+00 -0.83828170597E+00  0.83828170597E+00  0.00000000000E+00 0.  1.
         23    2    1    2    0    0  0.00000000000E+00  0.00000000000E+00  0.26438096044E+04  0.26454861678E+04  0.94169208166E+02 0.  0.
          2    1    3    3  502    0  0.32871735209E+02 -0.11852236199E+01  0.22683496533E+04  0.22685881304E+04  0.00000000000E+00 0. -1.
         -2    1    3    3    0  502 -0.32871735209E+02  0.11852236199E+01  0.37545995108E+03  0.37689803740E+03  0.00000000000E+00 0.  1.
<mgrwt>
<rscale>  0 0.94169208E+02</rscale>
<asrwt>0</asrwt>
<pdfrwt beam="1">  1        2 0.40686223E+00 0.94169208E+02</pdfrwt>
<pdfrwt beam="2">  1       -2 0.12896853E-03 0.94169208E+02</pdfrwt>
<totfact> 0.12346856E+05</totfact>
</mgrwt>
</event>
<event>
 5    1  0.3854342E+001  0.8938768E+02  0.7546771E-02  0.1304341E+00
         -2   -1    0    0    0  501 -0.00000000000E+00  0.00000000000E+00  0.10668316127E+01  0.10668316127E+01  0.00000000000E+00 0.  1.
          2   -1    0    0  501    0  0.00000000000E+00 -0.00000000000E+00 -0.18724037607E+04  0.18724037607E+04  0.00000000000E+00 0. -1.
         23    2    1    2    0    0  0.00000000000E+00  0.00000000000E+00 -0.18713369291E+04  0.18734705923E+04  0.89387684245E+02 0.  0.
          2    1    3    3  502    0 -0.34776392165E+02  0.12719790159E+02 -0.14602069910E+04  0.14606764347E+04  0.00000000000E+00 0. -1.
         -2    1    3    3    0  502  0.34776392165E+02 -0.12719790159E+02 -0.41112993815E+03  0.41279415761E+03  0.00000000000E+00 0.  1.
<mgrwt>
<rscale>  0 0.89387684E+02</rscale>
<asrwt>0</asrwt>
<pdfrwt beam="2">  1        2 0.28806082E+00 0.89387684E+02</pdfrwt>
<pdfrwt beam="1">  1       -2 0.16412868E-03 0.89387684E+02</pdfrwt>
<totfact> 0.21938455E+05</totfact>
</mgrwt>
</event>
<event>
 5    1  0.3854342E+001  0.9177159E+02  0.7546771E-02  0.1298617E+00
          1   -1    0    0  501    0  0.00000000000E+00  0.00000000000E+00  0.47552158404E+02  0.47552158404E+02  0.00000000000E+00 0. -1.
         -1   -1    0    0    0  501 -0.00000000000E+00 -0.00000000000E+00 -0.44277827179E+02  0.44277827179E+02  0.00000000000E+00 0.  1.
         23    2    1    2    0    0  0.00000000000E+00  0.00000000000E+00  0.32743312257E+01  0.91829985583E+02  0.91771591504E+02 0.  0.
          2    1    3    3  502    0  0.41943464216E+02 -0.14550708409E+02  0.13243207214E+02  0.46328823026E+02  0.00000000000E+00 0. -1.
         -2    1    3    3    0  502 -0.41943464216E+02  0.14550708409E+02 -0.99688759880E+01  0.45501162558E+02  0.00000000000E+00 0.  1.
<mgrwt>
<rscale>  0 0.91771592E+02</rscale>
<asrwt>0</asrwt>
<pdfrwt beam="1">  1        1 0.73157167E-02 0.91771592E+02</pdfrwt>
<pdfrwt beam="2">  1       -1 0.68119734E-02 0.91771592E+02</pdfrwt>
<totfact> 0.91377801E+04</totfact>
</mgrwt>
</event>
<event>
 5    1  0.3854342E+001  0.9185727E+02  0.7546771E-02  0.1298415E+00
         -2   -1    0    0    0  501 -0.00000000000E+00  0.00000000000E+00  0.10496124240E+01  0.10496124240E+01  0.00000000000E+00 0.  1.
          2   -1    0    0  501    0  0.00000000000E+00 -0.00000000000E+00 -0.20097317734E+04  0.20097317734E+04  0.00000000000E+00 0. -1.
         23    2    1    2    0    0  0.00000000000E+00  0.00000000000E+00 -0.20086821610E+04  0.20107813858E+04  0.91857268374E+02 0.  0.
          2    1    3    3  502    0 -0.58634736206E+01  0.38841528359E+02 -0.15253089688E+04  0.15258146987E+04  0.00000000000E+00 0. -1.
         -2    1    3    3    0  502  0.58634736206E+01 -0.38841528359E+02 -0.48337319220E+03  0.48496668709E+03  0.00000000000E+00 0.  1.
<mgrwt>
<rscale>  0 0.91857268E+02</rscale>
<asrwt>0</asrwt>
<pdfrwt beam="2">  1        2 0.30919092E+00 0.91857268E+02</pdfrwt>
<pdfrwt beam="1">  1       -2 0.16147810E-03 0.91857268E+02</pdfrwt>
<totfact> 0.19209880E+05</totfact>
</mgrwt>
</event>
<event>
 5    1  0.3854342E+001  0.9077816E+02  0.7546771E-02  0.1300978E+00
         -2   -1    0    0    0  501 -0.00000000000E+00  0.00000000000E+00  0.20748771129E+01  0.20748771129E+01  0.00000000000E+00 0.  1.
          2   -1    0    0  501    0  0.00000000000E+00 -0.00000000000E+00 -0.99291114774E+03  0.99291114774E+03  0.00000000000E+00 0. -1.
         23    2    1    2    0    0  0.00000000000E+00  0.00000000000E+00 -0.99083627063E+03  0.99498602486E+03  0.90778160712E+02 0.  0.
          2    1    3    3  502    0 -0.33190952410E+02  0.27670020511E+02 -0.34318791320E+03  0.34589769170E+03  0.00000000000E+00 0.  1.
         -2    1    3    3    0  502  0.33190952410E+02 -0.27670020511E+02 -0.64764835743E+03  0.64908833315E+03  0.00000000000E+00 0. -1.
<mgrwt>
<rscale>  0 0.90778161E+02</rscale>
<asrwt>0</asrwt>
<pdfrwt beam="2">  1        2 0.15275583E+00 0.90778161E+02</pdfrwt>
<pdfrwt beam="1">  1       -2 0.31921129E-03 0.90778161E+02</pdfrwt>
<totfact> 0.25283201E+05</totfact>
</mgrwt>
</event>
<event>
 5    1  0.3854342E+001  0.9274472E+02  0.7546771E-02  0.1296338E+00
          2   -1    0    0  501    0  0.00000000000E+00  0.00000000000E+00  0.94360698370E+03  0.94360698370E+03  0.00000000000E+00 0. -1.
         -2   -1    0    0    0  501 -0.00000000000E+00 -0.00000000000E+00 -0.22789102616E+01  0.22789102616E+01  0.00000000000E+00 0.  1.
         23    2    1    2    0    0  0.00000000000E+00  0.00000000000E+00  0.94132807343E+03  0.94588589396E+03  0.92744717112E+02 0.  0.
          2    1    3    3  502    0 -0.30387172743E+02 -0.26826064766E+02  0.70039271896E+03  0.70156466473E+03  0.00000000000E+00 0. -1.
         -2    1    3    3    0  502  0.30387172743E+02  0.26826064766E+02  0.24093535447E+03  0.24432122923E+03  0.00000000000E+00 0.  1.
<mgrwt>
<rscale>  0 0.92744717E+02</rscale>
<asrwt>0</asrwt>
<pdfrwt beam="1">  1        2 0.14516999E+00 0.92744717E+02</pdfrwt>
<pdfrwt beam="2">  1       -2 0.35060233E-03 0.92744717E+02</pdfrwt>
<totfact> 0.23814642E+05</totfact>
</mgrwt>
</event>
<event>
 5    1  0.3854342E+001  0.9080267E+02  0.7546771E-02  0.1300919E+00
         -1   -1    0    0    0  501 -0.00000000000E+00  0.00000000000E+00  0.52426970209E+01  0.52426970209E+01  0.00000000000E+00 0.  1.
          1   -1    0    0  501    0  0.00000000000E+00 -0.00000000000E+00 -0.39317195024E+03  0.39317195024E+03  0.00000000000E+00 0. -1.
         23    2    1    2    0    0  0.00000000000E+00  0.00000000000E+00 -0.38792925322E+03  0.39841464726E+03  0.90802674238E+02 0.  0.
          2    1    3    3  502    0 -0.39566074663E+02  0.90522221089E+01 -0.28322643981E+03  0.28611996294E+03  0.00000000000E+00 0. -1.
         -2    1    3    3    0  502  0.39566074663E+02 -0.90522221089E+01 -0.10470281341E+03  0.11229468431E+03  0.00000000000E+00 0.  1.
<mgrwt>
<rscale>  0 0.90802674E+02</rscale>
<asrwt>0</asrwt>
<pdfrwt beam="2">  1        1 0.60488005E-01 0.90802674E+02</pdfrwt>
<pdfrwt beam="1">  1       -1 0.80656860E-03 0.90802674E+02</pdfrwt>
<totfact> 0.13598537E+05</totfact>
</mgrwt>
</event>
<event>
 5    1  0.3854342E+001  0.9106487E+02  0.7546771E-02  0.1300293E+00
         -2   -1    0    0    0  501 -0.00000000000E+00  0.00000000000E+00  0.85832309452E+01  0.85832309452E+01  0.00000000000E+00 0.  1.
          2   -1    0    0  501    0  0.00000000000E+00 -0.00000000000E+00 -0.24154106653E+03  0.24154106653E+03  0.00000000000E+00 0. -1.
         23    2    1    2    0    0  0.00000000000E+00  0.00000000000E+00 -0.23295783559E+03  0.25012429748E+03  0.91064872631E+02 0.  0.
          2    1    3    3  502    0  0.22574620553E+02  0.39232196549E+02 -0.13005309610E+03  0.13770470778E+03  0.00000000000E+00 0. -1.
         -2    1    3    3    0  502 -0.22574620553E+02 -0.39232196549E+02 -0.10290473949E+03  0.11241958970E+03  0.00000000000E+00 0.  1.
<mgrwt>
<rscale>  0 0.91064873E+02</rscale>
<asrwt>0</asrwt>
<pdfrwt beam="2">  1        2 0.37160162E-01 0.91064873E+02</pdfrwt>
<pdfrwt beam="1">  1       -2 0.13204971E-02 0.91064873E+02</pdfrwt>
<totfact> 0.16628511E+05</totfact>
</mgrwt>
</event>
<event>
 5    1  0.3854342E+001  0.8905448E+02  0.7546771E-02  0.1305158E+00
          1   -1    0    0  501    0  0.00000000000E+00  0.00000000000E+00  0.29815700966E+03  0.29815700966E+03  0.00000000000E+00 0.  1.
         -1   -1    0    0    0  501 -0.00000000000E+00 -0.00000000000E+00 -0.66497681646E+01  0.66497681646E+01  0.00000000000E+00 0. -1.
         23    2    1    2    0    0  0.00000000000E+00  0.00000000000E+00  0.29150724149E+03  0.30480677782E+03  0.89054477504E+02 0.  0.
          2    1    3    3  502    0 -0.11319808273E+02 -0.39994623630E+02  0.91101016988E+02  0.10013542468E+03  0.00000000000E+00 0. -1.
         -2    1    3    3    0  502  0.11319808273E+02  0.39994623630E+02  0.20040622451E+03  0.20467135315E+03  0.00000000000E+00 0.  1.
<mgrwt>
<rscale>  0 0.89054478E+02</rscale>
<asrwt>0</asrwt>
<pdfrwt beam="1">  1        1 0.45870299E-01 0.89054478E+02</pdfrwt>
<pdfrwt beam="2">  1       -1 0.10230415E-02 0.89054478E+02</pdfrwt>
<totfact> 0.13624555E+05</totfact>
</mgrwt>
</event>
<event>
 5    1  0.3854342E+001  0.9147496E+02  0.7546771E-02  0.1299319E+00
         -2   -1    0    0    0  501 -0.00000000000E+00  0.00000000000E+00  0.59931265963E+03  0.59931265963E+03  0.00000000000E+00 0. -1.
          2   -1    0    0  501    0  0.00000000000E+00 -0.00000000000E+00 -0.34905268801E+01  0.34905268801E+01  0.00000000000E+00 0.  1.
         23    2    1    2    0    0  0.00000000000E+00  0.00000000000E+00  0.59582213275E+03  0.60280318651E+03  0.91474957186E+02 0.  0.
          2    1    3    3  502    0  0.32875363332E+02 -0.31770551026E+02  0.28916987584E+03  0.29276163430E+03  0.00000000000E+00 0. -1.
         -2    1    3    3    0  502 -0.32875363332E+02  0.31770551026E+02  0.30665225691E+03  0.31004155220E+03  0.00000000000E+00 0.  1.
<mgrwt>
<rscale>  0 0.91474957E+02</rscale>
<asrwt>0</asrwt>
<pdfrwt beam="2">  1        2 0.53700461E-03 0.91474957E+02</pdfrwt>
<pdfrwt beam="1">  1       -2 0.92201866E-01 0.91474957E+02</pdfrwt>
<totfact> 0.31029686E+04</totfact>
</mgrwt>
</event>
<event>
 5    1  0.3854342E+001  0.9179248E+02  0.7546771E-02  0.1298568E+00
         -4   -1    0    0    0  501 -0.00000000000E+00  0.00000000000E+00  0.12591324714E+01  0.12591324714E+01  0.00000000000E+00 0.  1.
          4   -1    0    0  501    0  0.00000000000E+00 -0.00000000000E+00 -0.16729493517E+04  0.16729493517E+04  0.00000000000E+00 0. -1.
         23    2    1    2    0    0  0.00000000000E+00  0.00000000000E+00 -0.16716902192E+04  0.16742084842E+04  0.91792480122E+02 0.  0.
          2    1    3    3  502    0  0.35087492092E+02  0.23816085772E+02 -0.51568503141E+03  0.51742573347E+03  0.00000000000E+00 0.  1.
         -2    1    3    3    0  502 -0.35087492092E+02 -0.23816085772E+02 -0.11560051878E+04  0.11567827507E+04  0.00000000000E+00 0. -1.
<mgrwt>
<rscale>  0 0.91792480E+02</rscale>
<asrwt>0</asrwt>
<pdfrwt beam="2">  1        4 0.25737731E+00 0.91792480E+02</pdfrwt>
<pdfrwt beam="1">  1       -4 0.19371233E-03 0.91792480E+02</pdfrwt>
<totfact> 0.33827156E+03</totfact>
</mgrwt>
</event>
<event>
 5    1  0.3854342E+001  0.9273368E+02  0.7546771E-02  0.1296364E+00
          1   -1    0    0  501    0  0.00000000000E+00  0.00000000000E+00  0.29980508710E+03  0.29980508710E+03  0.00000000000E+00 0. -1.
         -1   -1    0    0    0  501 -0.00000000000E+00 -0.00000000000E+00 -0.71709380824E+01  0.71709380824E+01  0.00000000000E+00 0.  1.
         23    2    1    2    0    0  0.00000000000E+00  0.00000000000E+00  0.29263414902E+03  0.30697602518E+03  0.92733677085E+02 0.  0.
          2    1    3    3  502    0  0.64324389023E+01 -0.45639234226E+02  0.16305544570E+03  0.16944436947E+03  0.00000000000E+00 0. -1.
         -2    1    3    3    0  502 -0.64324389023E+01  0.45639234226E+02  0.12957870332E+03  0.13753165572E+03  0.00000000000E+00 0.  1.
<mgrwt>
<rscale>  0 0.92733677E+02</rscale>
<asrwt>0</asrwt>
<pdfrwt beam="1">  1        1 0.46123850E-01 0.92733677E+02</pdfrwt>
<pdfrwt beam="2">  1       -1 0.11032215E-02 0.92733677E+02</pdfrwt>
<totfact> 0.12244697E+05</totfact>
</mgrwt>
</event>
<event>
 5    1  0.3854342E+001  0.8991299E+02  0.7546771E-02  0.1303063E+00
          1   -1    0    0  501    0  0.00000000000E+00  0.00000000000E+00  0.11702926812E+04  0.11702926812E+04  0.00000000000E+00 0. -1.
         -1   -1    0    0    0  501 -0.00000000000E+00 -0.00000000000E+00 -0.17269924224E+01  0.17269924224E+01  0.00000000000E+00 0.  1.
         23    2    1    2    0    0  0.00000000000E+00  0.00000000000E+00  0.11685656888E+04  0.11720196737E+04  0.89912993333E+02 0.  0.
          2    1    3    3  502    0 -0.22056053236E+02  0.22021589418E+02  0.10065994488E+04  0.10070818588E+04  0.00000000000E+00 0. -1.
         -2    1    3    3    0  502  0.22056053236E+02 -0.22021589418E+02  0.16196624000E+03  0.16493781490E+03  0.00000000000E+00 0.  1.
<mgrwt>
<rscale>  0 0.89912993E+02</rscale>
<asrwt>0</asrwt>
<pdfrwt beam="1">  1        1 0.18004439E+00 0.89912993E+02</pdfrwt>
<pdfrwt beam="2">  1       -1 0.26569208E-03 0.89912993E+02</pdfrwt>
<totfact> 0.13359959E+05</totfact>
</mgrwt>
</event>
<event>
 5    1  0.3854342E+001  0.9206915E+02  0.7546771E-02  0.1297917E+00
          1   -1    0    0  501    0  0.00000000000E+00  0.00000000000E+00  0.11603804692E+03  0.11603804692E+03  0.00000000000E+00 0. -1.
         -1   -1    0    0    0  501 -0.00000000000E+00 -0.00000000000E+00 -0.18262822130E+02  0.18262822130E+02  0.00000000000E+00 0.  1.
         23    2    1    2    0    0  0.00000000000E+00  0.00000000000E+00  0.97775224785E+02  0.13430086904E+03  0.92069152513E+02 0.  0.
          2    1    3    3  502    0 -0.44232676184E+02 -0.12254724449E+02  0.54039575251E+02  0.70901224299E+02  0.00000000000E+00 0. -1.
         -2    1    3    3    0  502  0.44232676184E+02  0.12254724449E+02  0.43735649534E+02  0.63399644746E+02  0.00000000000E+00 0.  1.
<mgrwt>
<rscale>  0 0.92069153E+02</rscale>
<asrwt>0</asrwt>
<pdfrwt beam="1">  1        1 0.17852007E-01 0.92069153E+02</pdfrwt>
<pdfrwt beam="2">  1       -1 0.28096650E-02 0.92069153E+02</pdfrwt>
<totfact> 0.10431597E+05</totfact>
</mgrwt>
</event>
<event>
 5    1  0.3854342E+001  0.8890672E+02  0.7546771E-02  0.1305521E+00
          2   -1    0    0  501    0  0.00000000000E+00  0.00000000000E+00  0.39456529257E+03  0.39456529257E+03  0.00000000000E+00 0.  1.
         -2   -1    0    0    0  501 -0.00000000000E+00 -0.00000000000E+00 -0.50082998288E+01  0.50082998288E+01  0.00000000000E+00 0. -1.
         23    2    1    2    0    0  0.00000000000E+00  0.00000000000E+00  0.38955699274E+03  0.39957359240E+03  0.88906721618E+02 0.  0.
          2    1    3    3  502    0 -0.44105063661E+02 -0.52156367581E+01  0.18620181991E+03  0.19142512177E+03  0.00000000000E+00 0. -1.
         -2    1    3    3    0  502  0.44105063661E+02  0.52156367581E+01  0.20335517283E+03  0.20814847063E+03  0.00000000000E+00 0.  1.
<mgrwt>
<rscale>  0 0.88906722E+02</rscale>
<asrwt>0</asrwt>
<pdfrwt beam="1">  1        2 0.60702328E-01 0.88906722E+02</pdfrwt>
<pdfrwt beam="2">  1       -2 0.77050798E-03 0.88906722E+02</pdfrwt>
<totfact> 0.21237871E+05</totfact>
</mgrwt>
</event>
<event>
 5    1  0.3854342E+001  0.9184265E+02  0.7546771E-02  0.1298450E+00
         -2   -1    0    0    0  501 -0.00000000000E+00  0.00000000000E+00  0.91993293019E+01  0.91993293019E+01  0.00000000000E+00 0. -1.
          2   -1    0    0  501    0  0.00000000000E+00 -0.00000000000E+00 -0.22923063569E+03  0.22923063569E+03  0.00000000000E+00 0.  1.
         23    2    1    2    0    0  0.00000000000E+00  0.00000000000E+00 -0.22003130639E+03  0.23842996499E+03  0.91842650305E+02 0.  0.
          2    1    3    3  502    0  0.35368389617E+02 -0.17685574854E+02 -0.49406139556E+02  0.63282455451E+02  0.00000000000E+00 0. -1.
         -2    1    3    3    0  502 -0.35368389617E+02  0.17685574854E+02 -0.17062516683E+03  0.17514750954E+03  0.00000000000E+00 0.  1.
<mgrwt>
<rscale>  0 0.91842650E+02</rscale>
<asrwt>0</asrwt>
<pdfrwt beam="2">  1        2 0.35266252E-01 0.91842650E+02</pdfrwt>
<pdfrwt beam="1">  1       -2 0.14152814E-02 0.91842650E+02</pdfrwt>
<totfact> 0.15942693E+05</totfact>
</mgrwt>
</event>
<event>
 5    1  0.3854342E+001  0.9019466E+02  0.7546771E-02  0.1302381E+00
         -1   -1    0    0    0  501 -0.00000000000E+00  0.00000000000E+00  0.84439536538E+01  0.84439536538E+01  0.00000000000E+00 0.  1.
          1   -1    0    0  501    0  0.00000000000E+00 -0.00000000000E+00 -0.24085505956E+03  0.24085505956E+03  0.00000000000E+00 0. -1.
         23    2    1    2    0    0  0.00000000000E+00  0.00000000000E+00 -0.23241110591E+03  0.24929901322E+03  0.90194655280E+02 0.  0.
          2    1    3    3  502    0  0.31123224807E+01  0.23479430718E+02 -0.22228016663E+03  0.22353845909E+03  0.00000000000E+00 0. -1.
         -2    1    3    3    0  502 -0.31123224807E+01 -0.23479430718E+02 -0.10130939284E+02  0.25760554125E+02  0.00000000000E+00 0.  1.
<mgrwt>
<rscale>  0 0.90194655E+02</rscale>
<asrwt>0</asrwt>
<pdfrwt beam="2">  1        1 0.37054623E-01 0.90194655E+02</pdfrwt>
<pdfrwt beam="1">  1       -1 0.12990698E-02 0.90194655E+02</pdfrwt>
<totfact> 0.12637742E+05</totfact>
</mgrwt>
</event>
<event>
 5    1  0.3854342E+001  0.9216038E+02  0.7546771E-02  0.1297703E+00
          1   -1    0    0  501    0  0.00000000000E+00  0.00000000000E+00  0.84112740872E+02  0.84112740872E+02  0.00000000000E+00 0. -1.
         -1   -1    0    0    0  501 -0.00000000000E+00 -0.00000000000E+00 -0.25244495468E+02  0.25244495468E+02  0.00000000000E+00 0.  1.
         23    2    1    2    0    0  0.00000000000E+00  0.00000000000E+00  0.58868245404E+02  0.10935723634E+03  0.92160375559E+02 0.  0.
          2    1    3    3  502    0  0.24942719311E+02 -0.76351568153E+01  0.74508398432E+02  0.78942613987E+02  0.00000000000E+00 0. -1.
         -2    1    3    3    0  502 -0.24942719311E+02  0.76351568153E+01 -0.15640153028E+02  0.30414622354E+02  0.00000000000E+00 0.  1.
<mgrwt>
<rscale>  0 0.92160376E+02</rscale>
<asrwt>0</asrwt>
<pdfrwt beam="1">  1        1 0.12940422E-01 0.92160376E+02</pdfrwt>
<pdfrwt beam="2">  1       -1 0.38837686E-02 0.92160376E+02</pdfrwt>
<totfact> 0.98601559E+04</totfact>
</mgrwt>
</event>
<event>
 5    1  0.3854342E+001  0.8872539E+02  0.7546771E-02  0.1305968E+00
         -1   -1    0    0    0  501 -0.00000000000E+00  0.00000000000E+00  0.56000654402E+03  0.56000654402E+03  0.00000000000E+00 0.  1.
          1   -1    0    0  501    0  0.00000000000E+00 -0.00000000000E+00 -0.35143313519E+01  0.35143313519E+01  0.00000000000E+00 0. -1.
         23    2    1    2    0    0  0.00000000000E+00  0.00000000000E+00  0.55649221267E+03  0.56352087537E+03  0.88725386557E+02 0.  0.
          2    1    3    3  502    0  0.25170708062E+02  0.21349738232E+02  0.46651374366E+03  0.46767985726E+03  0.00000000000E+00 0.  1.
         -2    1    3    3    0  502 -0.25170708062E+02 -0.21349738232E+02  0.89978469012E+02  0.95841018111E+02  0.00000000000E+00 0. -1.
<mgrwt>
<rscale>  0 0.88725387E+02</rscale>
<asrwt>0</asrwt>
<pdfrwt beam="2">  1        1 0.54066681E-03 0.88725387E+02</pdfrwt>
<pdfrwt beam="1">  1       -1 0.86154782E-01 0.88725387E+02</pdfrwt>
<totfact> 0.46934751E+04</totfact>
</mgrwt>
</event>
<event>
 5    1  0.3854342E+001  0.9178448E+02  0.7546771E-02  0.1298587E+00
         -1   -1    0    0    0  501 -0.00000000000E+00  0.00000000000E+00  0.33033731883E+02  0.33033731883E+02  0.00000000000E+00 0.  1.
          1   -1    0    0  501    0  0.00000000000E+00 -0.00000000000E+00 -0.63755966853E+02  0.63755966853E+02  0.00000000000E+00 0. -1.
         23    2    1    2    0    0  0.00000000000E+00  0.00000000000E+00 -0.30722234970E+02  0.96789698736E+02  0.91784476137E+02 0.  0.
          2    1    3    3  502    0  0.47369496453E+01  0.21592806516E+02 -0.57771276751E+02  0.61856352969E+02  0.00000000000E+00 0. -1.
         -2    1    3    3    0  502 -0.47369496453E+01 -0.21592806516E+02  0.27049041781E+02  0.34933345767E+02  0.00000000000E+00 0.  1.
<mgrwt>
<rscale>  0 0.91784476E+02</rscale>
<asrwt>0</asrwt>
<pdfrwt beam="2">  1        1 0.98086103E-02 0.91784476E+02</pdfrwt>
<pdfrwt beam="1">  1       -1 0.50821126E-02 0.91784476E+02</pdfrwt>
<totfact> 0.95489666E+04</totfact>
</mgrwt>
</event>
<event>
 5    1  0.3854342E+001  0.8962835E+02  0.7546771E-02  0.1303754E+00
         -4   -1    0    0    0  501 -0.00000000000E+00  0.00000000000E+00  0.89555001624E+01  0.89555001624E+01  0.00000000000E+00 0.  1.
          4   -1    0    0  501    0  0.00000000000E+00 -0.00000000000E+00 -0.22425439762E+03  0.22425439762E+03  0.00000000000E+00 0. -1.
         23    2    1    2    0    0  0.00000000000E+00  0.00000000000E+00 -0.21529889746E+03  0.23320989778E+03  0.89628350299E+02 0.  0.
          2    1    3    3  502    0  0.25777955449E+02 -0.66658619963E+01 -0.20144205275E+03  0.20319408781E+03  0.00000000000E+00 0. -1.
         -2    1    3    3    0  502 -0.25777955449E+02  0.66658619963E+01 -0.13856844708E+02  0.30015809976E+02  0.00000000000E+00 0.  1.
<mgrwt>
<rscale>  0 0.89628350E+02</rscale>
<asrwt>0</asrwt>
<pdfrwt beam="2">  1        4 0.34500676E-01 0.89628350E+02</pdfrwt>
<pdfrwt beam="1">  1       -4 0.13777693E-02 0.89628350E+02</pdfrwt>
<totfact> 0.21011255E+04</totfact>
</mgrwt>
</event>
<event>
 5    1  0.3854342E+001  0.9093078E+02  0.7546771E-02  0.1300613E+00
         -1   -1    0    0    0  501 -0.00000000000E+00  0.00000000000E+00  0.50297673786E+02  0.50297673786E+02  0.00000000000E+00 0.  1.
          1   -1    0    0  501    0  0.00000000000E+00 -0.00000000000E+00 -0.41097363718E+02  0.41097363718E+02  0.00000000000E+00 0. -1.
         23    2    1    2    0    0  0.00000000000E+00  0.00000000000E+00  0.92003100680E+01  0.91395037505E+02  0.90930782330E+02 0.  0.
          2    1    3    3  502    0  0.34349574425E+02 -0.45281014337E+01 -0.24990003756E+02  0.42718816153E+02  0.00000000000E+00 0. -1.
         -2    1    3    3    0  502 -0.34349574425E+02  0.45281014337E+01  0.34190313824E+02  0.48676221352E+02  0.00000000000E+00 0.  1.
<mgrwt>
<rscale>  0 0.90930782E+02</rscale>
<asrwt>0</asrwt>
<pdfrwt beam="2">  1        1 0.63226714E-02 0.90930782E+02</pdfrwt>
<pdfrwt beam="1">  1       -1 0.77381036E-02 0.90930782E+02</pdfrwt>
<totfact> 0.91733406E+04</totfact>
</mgrwt>
</event>
<event>
 5    1  0.3854342E+001  0.9072947E+02  0.7546771E-02  0.1301095E+00
         -1   -1    0    0    0  501 -0.00000000000E+00  0.00000000000E+00  0.56429638855E+01  0.56429638855E+01  0.00000000000E+00 0. -1.
          1   -1    0    0  501    0  0.00000000000E+00 -0.00000000000E+00 -0.36469476526E+03  0.36469476526E+03  0.00000000000E+00 0.  1.
         23    2    1    2    0    0  0.00000000000E+00  0.00000000000E+00 -0.35905180138E+03  0.37033772915E+03  0.90729474585E+02 0.  0.
          2    1    3    3  502    0 -0.22009027243E+02 -0.15774018697E+02 -0.32809048387E+03  0.32920598802E+03  0.00000000000E+00 0.  1.
         -2    1    3    3    0  502  0.22009027243E+02  0.15774018697E+02 -0.30961317511E+02  0.41131741126E+02  0.00000000000E+00 0. -1.
<mgrwt>
<rscale>  0 0.90729475E+02</rscale>
<asrwt>0</asrwt>
<pdfrwt beam="2">  1        1 0.56106869E-01 0.90729475E+02</pdfrwt>
<pdfrwt beam="1">  1       -1 0.86814857E-03 0.90729475E+02</pdfrwt>
<totfact> 0.13453907E+05</totfact>
</mgrwt>
</event>
<event>
 5    1  0.3854342E+001  0.9175592E+02  0.7546771E-02  0.1298654E+00
          2   -1    0    0  501    0  0.00000000000E+00  0.00000000000E+00  0.26978855092E+03  0.26978855092E+03  0.00000000000E+00 0. -1.
         -2   -1    0    0    0  501 -0.00000000000E+00 -0.00000000000E+00 -0.78016175158E+01  0.78016175158E+01  0.00000000000E+00 0.  1.
         23    2    1    2    0    0  0.00000000000E+00  0.00000000000E+00  0.26198693340E+03  0.27759016843E+03  0.91755917180E+02 0.  0.
          2    1    3    3  502    0 -0.13450501466E+02  0.30156138136E+02  0.22735227224E+03  0.22973759890E+03  0.00000000000E+00 0. -1.
         -2    1    3    3    0  502  0.13450501466E+02 -0.30156138136E+02  0.34634661166E+02  0.47852569535E+02  0.00000000000E+00 0.  1.
<mgrwt>
<rscale>  0 0.91755917E+02</rscale>
<asrwt>0</asrwt>
<pdfrwt beam="1">  1        2 0.41505924E-01 0.91755917E+02</pdfrwt>
<pdfrwt beam="2">  1       -2 0.12002491E-02 0.91755917E+02</pdfrwt>
<totfact> 0.16978442E+05</totfact>
</mgrwt>
</event>
<event>
 5    1  0.3854342E+001  0.9029701E+02  0.7546771E-02  0.1302134E+00
          2   -1    0    0  501    0  0.00000000000E+00  0.00000000000E+00  0.11505348988E+03  0.11505348988E+03  0.00000000000E+00 0.  1.
         -2   -1    0    0    0  501 -0.00000000000E+00 -0.00000000000E+00 -0.17716867556E+02  0.17716867556E+02  0.00000000000E+00 0. -1.
         23    2    1    2    0    0  0.00000000000E+00  0.00000000000E+00  0.97336622322E+02  0.13277035743E+03  0.90297008634E+02 0.  0.
          2    1    3    3  502    0  0.24322835929E+02  0.33645809411E+02  0.22582263264E+02  0.47260971770E+02  0.00000000000E+00 0. -1.
         -2    1    3    3    0  502 -0.24322835929E+02 -0.33645809411E+02  0.74754359058E+02  0.85509385665E+02  0.00000000000E+00 0.  1.
<mgrwt>
<rscale>  0 0.90297009E+02</rscale>
<asrwt>0</asrwt>
<pdfrwt beam="1">  1        2 0.17700536E-01 0.90297009E+02</pdfrwt>
<pdfrwt beam="2">  1       -2 0.27256720E-02 0.90297009E+02</pdfrwt>
<totfact> 0.13157840E+05</totfact>
</mgrwt>
</event>
<event>
 5    1  0.3854342E+001  0.9180355E+02  0.7546771E-02  0.1298542E+00
          2   -1    0    0  501    0  0.00000000000E+00  0.00000000000E+00  0.34309676580E+03  0.34309676580E+03  0.00000000000E+00 0. -1.
         -2   -1    0    0    0  501 -0.00000000000E+00 -0.00000000000E+00 -0.61410458931E+01  0.61410458931E+01  0.00000000000E+00 0.  1.
         23    2    1    2    0    0  0.00000000000E+00  0.00000000000E+00  0.33695571990E+03  0.34923781169E+03  0.91803550792E+02 0.  0.
          2    1    3    3  502    0 -0.20026323081E+02  0.31164884823E+02  0.27158950881E+03  0.27410429577E+03  0.00000000000E+00 0. -1.
         -2    1    3    3    0  502  0.20026323081E+02 -0.31164884823E+02  0.65366211093E+02  0.75133515922E+02  0.00000000000E+00 0.  1.
<mgrwt>
<rscale>  0 0.91803551E+02</rscale>
<asrwt>0</asrwt>
<pdfrwt beam="1">  1        2 0.52784103E-01 0.91803551E+02</pdfrwt>
<pdfrwt beam="2">  1       -2 0.94477656E-03 0.91803551E+02</pdfrwt>
<totfact> 0.18539862E+05</totfact>
</mgrwt>
</event>
<event>
 5    1  0.3854342E+001  0.8681653E+02  0.7546771E-02  0.1310749E+00
         -3   -1    0    0    0  501 -0.00000000000E+00  0.00000000000E+00  0.51147774004E+02  0.51147774004E+02  0.00000000000E+00 0.  1.
          3   -1    0    0  501    0  0.00000000000E+00 -0.00000000000E+00 -0.36839870024E+02  0.36839870024E+02  0.00000000000E+00 0. -1.
         23    2    1    2    0    0  0.00000000000E+00  0.00000000000E+00  0.14307903980E+02  0.87987644027E+02  0.86816527143E+02 0.  0.
          2    1    3    3  502    0  0.40851415239E+02  0.66343038623E+01  0.20423515956E+02  0.46151620977E+02  0.00000000000E+00 0.  1.
         -2    1    3    3    0  502 -0.40851415239E+02 -0.66343038623E+01 -0.61156119762E+01  0.41836023050E+02  0.00000000000E+00 0. -1.
<mgrwt>
<rscale>  0 0.86816527E+02</rscale>
<asrwt>0</asrwt>
<pdfrwt beam="2">  1        3 0.56676723E-02 0.86816527E+02</pdfrwt>
<pdfrwt beam="1">  1       -3 0.78688883E-02 0.86816527E+02</pdfrwt>
<totfact> 0.40647815E+04</totfact>
</mgrwt>
</event>
<event>
 5    1  0.3854342E+001  0.8977089E+02  0.7546771E-02  0.1303407E+00
         -2   -1    0    0    0  501 -0.00000000000E+00  0.00000000000E+00  0.18706105371E+02  0.18706105371E+02  0.00000000000E+00 0.  1.
          2   -1    0    0  501    0  0.00000000000E+00 -0.00000000000E+00 -0.10770297603E+03  0.10770297603E+03  0.00000000000E+00 0. -1.
         23    2    1    2    0    0  0.00000000000E+00  0.00000000000E+00 -0.88996870664E+02  0.12640908141E+03  0.89770891016E+02 0.  0.
          2    1    3    3  502    0 -0.21457930904E+02  0.22998102947E+02 -0.89588236095E+02  0.94949500180E+02  0.00000000000E+00 0. -1.
         -2    1    3    3    0  502  0.21457930904E+02 -0.22998102947E+02  0.59136543105E+00  0.31459581225E+02  0.00000000000E+00 0.  1.
<mgrwt>
<rscale>  0 0.89770891E+02</rscale>
<asrwt>0</asrwt>
<pdfrwt beam="2">  1        2 0.16569689E-01 0.89770891E+02</pdfrwt>
<pdfrwt beam="1">  1       -2 0.28778624E-02 0.89770891E+02</pdfrwt>
<totfact> 0.13096883E+05</totfact>
</mgrwt>
</event>
<event>
 5    1  0.3854342E+001  0.9006745E+02  0.7546771E-02  0.1302688E+00
          2   -1    0    0  501    0  0.00000000000E+00  0.00000000000E+00  0.59066314383E+03  0.59066314383E+03  0.00000000000E+00 0. -1.
         -2   -1    0    0    0  501 -0.00000000000E+00 -0.00000000000E+00 -0.34334908535E+01  0.34334908535E+01  0.00000000000E+00 0.  1.
         23    2    1    2    0    0  0.00000000000E+00  0.00000000000E+00  0.58722965298E+03  0.59409663469E+03  0.90067452542E+02 0.  0.
          2    1    3    3  502    0  0.76191427623E+01  0.29721728982E+02  0.51104752757E+03  0.51196778019E+03  0.00000000000E+00 0. -1.
         -2    1    3    3    0  502 -0.76191427623E+01 -0.29721728982E+02  0.76182125404E+02  0.82128854498E+02  0.00000000000E+00 0.  1.
<mgrwt>
<rscale>  0 0.90067453E+02</rscale>
<asrwt>0</asrwt>
<pdfrwt beam="1">  1        2 0.90871172E-01 0.90067453E+02</pdfrwt>
<pdfrwt beam="2">  1       -2 0.52822983E-03 0.90067453E+02</pdfrwt>
<totfact> 0.23428026E+05</totfact>
</mgrwt>
</event>
<event>
 5    1  0.3854342E+001  0.9153826E+02  0.7546771E-02  0.1299169E+00
          1   -1    0    0  501    0  0.00000000000E+00  0.00000000000E+00  0.35753153482E+04  0.35753153482E+04  0.00000000000E+00 0. -1.
         -1   -1    0    0    0  501 -0.00000000000E+00 -0.00000000000E+00 -0.58591000961E+00  0.58591000961E+00  0.00000000000E+00 0.  1.
         23    2    1    2    0    0  0.00000000000E+00  0.00000000000E+00  0.35747294382E+04  0.35759012582E+04  0.91538255391E+02 0.  0.
          2    1    3    3  502    0 -0.36735983349E+02 -0.23986328586E+02  0.22966092493E+04  0.22970282803E+04  0.00000000000E+00 0. -1.
         -2    1    3    3    0  502  0.36735983349E+02  0.23986328586E+02  0.12781201889E+04  0.12788729779E+04  0.00000000000E+00 0.  1.
<mgrwt>
<rscale>  0 0.91538255E+02</rscale>
<asrwt>0</asrwt>
<pdfrwt beam="1">  1        1 0.55003104E+00 0.91538255E+02</pdfrwt>
<pdfrwt beam="2">  1       -1 0.90142865E-04 0.91538255E+02</pdfrwt>
<totfact> 0.15468899E+04</totfact>
</mgrwt>
</event>
<event>
 5    1  0.3854342E+001  0.9137186E+02  0.7546771E-02  0.1299563E+00
          1   -1    0    0  501    0  0.00000000000E+00  0.00000000000E+00  0.50220160579E+01  0.50220160579E+01  0.00000000000E+00 0. -1.
         -1   -1    0    0    0  501 -0.00000000000E+00 -0.00000000000E+00 -0.41561085332E+03  0.41561085332E+03  0.00000000000E+00 0.  1.
         23    2    1    2    0    0  0.00000000000E+00  0.00000000000E+00 -0.41058883726E+03  0.42063286938E+03  0.91371863924E+02 0.  0.
          2    1    3    3  502    0 -0.45535240965E+02  0.31943419475E+01 -0.19663001155E+03  0.20185891963E+03  0.00000000000E+00 0. -1.
         -2    1    3    3    0  502  0.45535240965E+02 -0.31943419475E+01 -0.21395882571E+03  0.21877394975E+03  0.00000000000E+00 0.  1.
<mgrwt>
<rscale>  0 0.91371864E+02</rscale>
<asrwt>0</asrwt>
<pdfrwt beam="1">  1        1 0.77261799E-03 0.91371864E+02</pdfrwt>
<pdfrwt beam="2">  1       -1 0.63940120E-01 0.91371864E+02</pdfrwt>
<totfact> 0.51959909E+04</totfact>
</mgrwt>
</event>
<event>
 5    1  0.3854342E+001  0.9001955E+02  0.7546771E-02  0.1302804E+00
         -2   -1    0    0    0  501 -0.00000000000E+00  0.00000000000E+00  0.10228061642E+04  0.10228061642E+04  0.00000000000E+00 0.  1.
          2   -1    0    0  501    0  0.00000000000E+00 -0.00000000000E+00 -0.19807074005E+01  0.19807074005E+01  0.00000000000E+00 0. -1.
         23    2    1    2    0    0  0.00000000000E+00  0.00000000000E+00  0.10208254568E+04  0.10247868716E+04  0.90019547626E+02 0.  0.
          2    1    3    3  502    0 -0.12043114121E+02 -0.35296926517E+02  0.22355049770E+03  0.22664009937E+03  0.00000000000E+00 0. -1.
         -2    1    3    3    0  502  0.12043114121E+02  0.35296926517E+02  0.79727495909E+03  0.79814677223E+03  0.00000000000E+00 0.  1.
<mgrwt>
<rscale>  0 0.90019548E+02</rscale>
<asrwt>0</asrwt>
<pdfrwt beam="2">  1        2 0.30472503E-03 0.90019548E+02</pdfrwt>
<pdfrwt beam="1">  1       -2 0.15735437E+00 0.90019548E+02</pdfrwt>
<totfact> 0.18808172E+04</totfact>
</mgrwt>
</event>
<event>
 5    1  0.3854342E+001  0.9141157E+02  0.7546771E-02  0.1299469E+00
         -2   -1    0    0    0  501 -0.00000000000E+00  0.00000000000E+00  0.16035722348E+02  0.16035722348E+02  0.00000000000E+00 0. -1.
          2   -1    0    0  501    0  0.00000000000E+00 -0.00000000000E+00 -0.13027281781E+03  0.13027281781E+03  0.00000000000E+00 0.  1.
         23    2    1    2    0    0  0.00000000000E+00  0.00000000000E+00 -0.11423709546E+03  0.14630854016E+03  0.91411568981E+02 0.  0.
          2    1    3    3  502    0 -0.22866483080E+02  0.38535510163E+02 -0.42699655650E+02  0.61896059524E+02  0.00000000000E+00 0. -1.
         -2    1    3    3    0  502  0.22866483080E+02 -0.38535510163E+02 -0.71537439808E+02  0.84412480631E+02  0.00000000000E+00 0.  1.
<mgrwt>
<rscale>  0 0.91411569E+02</rscale>
<asrwt>0</asrwt>
<pdfrwt beam="2">  1        2 0.20041972E-01 0.91411569E+02</pdfrwt>
<pdfrwt beam="1">  1       -2 0.24670342E-02 0.91411569E+02</pdfrwt>
<totfact> 0.13243971E+05</totfact>
</mgrwt>
</event>
<event>
 5    1  0.3854342E+001  0.9258435E+02  0.7546771E-02  0.1296711E+00
         -1   -1    0    0    0  501 -0.00000000000E+00  0.00000000000E+00  0.54058387275E+01  0.54058387275E+01  0.00000000000E+00 0.  1.
          1   -1    0    0  501    0  0.00000000000E+00 -0.00000000000E+00 -0.39641687001E+03  0.39641687001E+03  0.00000000000E+00 0. -1.
         23    2    1    2    0    0  0.00000000000E+00  0.00000000000E+00 -0.39101103128E+03  0.40182270873E+03  0.92584354361E+02 0.  0.
          2    1    3    3  502    0  0.35199622845E+02  0.30438114127E+01 -0.32532280687E+03  0.32723570543E+03  0.00000000000E+00 0. -1.
         -2    1    3    3    0  502 -0.35199622845E+02 -0.30438114127E+01 -0.65688224410E+02  0.74587003308E+02  0.00000000000E+00 0.  1.
<mgrwt>
<rscale>  0 0.92584354E+02</rscale>
<asrwt>0</asrwt>
<pdfrwt beam="2">  1        1 0.60987214E-01 0.92584354E+02</pdfrwt>
<pdfrwt beam="1">  1       -1 0.83166745E-03 0.92584354E+02</pdfrwt>
<totfact> 0.12931603E+05</totfact>
</mgrwt>
</event>
<event>
 5    1  0.3854342E+001  0.9016198E+02  0.7546771E-02  0.1302460E+00
          3   -1    0    0  501    0  0.00000000000E+00  0.00000000000E+00  0.28956096613E+02  0.28956096613E+02  0.00000000000E+00 0. -1.
         -3   -1    0    0    0  501 -0.00000000000E+00 -0.00000000000E+00 -0.70185415196E+02  0.70185415196E+02  0.00000000000E+00 0.  1.
         23    2    1    2    0    0  0.00000000000E+00  0.00000000000E+00 -0.41229318583E+02  0.99141511808E+02  0.90161980085E+02 0.  0.
          2    1    3    3  502    0 -0.81190298782E+01  0.43793950482E+02 -0.28269828579E+02  0.52754260045E+02  0.00000000000E+00 0. -1.
         -2    1    3    3    0  502  0.81190298782E+01 -0.43793950482E+02 -0.12959490004E+02  0.46387251763E+02  0.00000000000E+00 0.  1.
<mgrwt>
<rscale>  0 0.90161980E+02</rscale>
<asrwt>0</asrwt>
<pdfrwt beam="1">  1        3 0.44547841E-02 0.90161980E+02</pdfrwt>
<pdfrwt beam="2">  1       -3 0.10797756E-01 0.90161980E+02</pdfrwt>
<totfact> 0.35808730E+04</totfact>
</mgrwt>
</event>
<event>
 5    1  0.3854342E+001  0.9083130E+02  0.7546771E-02  0.1300851E+00
         -2   -1    0    0    0  501 -0.00000000000E+00  0.00000000000E+00  0.19620857746E+01  0.19620857746E+01  0.00000000000E+00 0.  1.
          2   -1    0    0  501    0  0.00000000000E+00 -0.00000000000E+00 -0.10512186466E+04  0.10512186466E+04  0.00000000000E+00 0. -1.
         23    2    1    2    0    0  0.00000000000E+00  0.00000000000E+00 -0.10492565608E+04  0.10531807323E+04  0.90831297523E+02 0.  0.
          2    1    3    3  502    0  0.42238552019E+02 -0.15300339808E+01 -0.71730794351E+03  0.71855210118E+03  0.00000000000E+00 0. -1.
         -2    1    3    3    0  502 -0.42238552019E+02  0.15300339808E+01 -0.33194861728E+03  0.33462863116E+03  0.00000000000E+00 0.  1.
<mgrwt>
<rscale>  0 0.90831298E+02</rscale>
<asrwt>0</asrwt>
<pdfrwt beam="2">  1        2 0.16172550E+00 0.90831298E+02</pdfrwt>
<pdfrwt beam="1">  1       -2 0.30186018E-03 0.90831298E+02</pdfrwt>
<totfact> 0.25284164E+05</totfact>
</mgrwt>
</event>
<event>
 5    1  0.3854342E+001  0.9122708E+02  0.7546771E-02  0.1299907E+00
         -3   -1    0    0    0  501 -0.00000000000E+00  0.00000000000E+00  0.70018999119E+03  0.70018999119E+03  0.00000000000E+00 0.  1.
          3   -1    0    0  501    0  0.00000000000E+00 -0.00000000000E+00 -0.29714718498E+01  0.29714718498E+01  0.00000000000E+00 0. -1.
         23    2    1    2    0    0  0.00000000000E+00  0.00000000000E+00  0.69721851934E+03  0.70316146304E+03  0.91227075987E+02 0.  0.
          2    1    3    3  502    0  0.40615820157E+02  0.70217356848E+01  0.19803136353E+03  0.20227548186E+03  0.00000000000E+00 0. -1.
         -2    1    3    3    0  502 -0.40615820157E+02 -0.70217356848E+01  0.49918715581E+03  0.50088598118E+03  0.00000000000E+00 0.  1.
<mgrwt>
<rscale>  0 0.91227076E+02</rscale>
<asrwt>0</asrwt>
<pdfrwt beam="2">  1        3 0.45715007E-03 0.91227076E+02</pdfrwt>
<pdfrwt beam="1">  1       -3 0.10772141E+00 0.91227076E+02</pdfrwt>
<totfact> 0.13815656E+04</totfact>
</mgrwt>
</event>
<event>
 5    1  0.3854342E+001  0.8324499E+02  0.7546771E-02  0.1320087E+00
         -2   -1    0    0    0  501 -0.00000000000E+00  0.00000000000E+00  0.93281004220E+01  0.93281004220E+01  0.00000000000E+00 0.  1.
          2   -1    0    0  501    0  0.00000000000E+00 -0.00000000000E+00 -0.18572185832E+03  0.18572185832E+03  0.00000000000E+00 0. -1.
         23    2    1    2    0    0  0.00000000000E+00  0.00000000000E+00 -0.17639375790E+03  0.19504995874E+03  0.83244991320E+02 0.  0.
          2    1    3    3  502    0 -0.24156999716E+02  0.10881709470E+02 -0.16341167812E+03  0.16554560938E+03  0.00000000000E+00 0. -1.
         -2    1    3    3    0  502  0.24156999716E+02 -0.10881709470E+02 -0.12982079774E+02  0.29504349366E+02  0.00000000000E+00 0.  1.
<mgrwt>
<rscale>  0 0.83244991E+02</rscale>
<asrwt>0</asrwt>
<pdfrwt beam="2">  1        2 0.28572592E-01 0.83244991E+02</pdfrwt>
<pdfrwt beam="1">  1       -2 0.14350925E-02 0.83244991E+02</pdfrwt>
<totfact> 0.19224154E+05</totfact>
</mgrwt>
</event>
<event>
 5    1  0.3854342E+001  0.9074063E+02  0.7546771E-02  0.1301068E+00
          1   -1    0    0  501    0  0.00000000000E+00  0.00000000000E+00  0.97204013608E+02  0.97204013608E+02  0.00000000000E+00 0. -1.
         -1   -1    0    0    0  501 -0.00000000000E+00 -0.00000000000E+00 -0.21176754775E+02  0.21176754775E+02  0.00000000000E+00 0.  1.
         23    2    1    2    0    0  0.00000000000E+00  0.00000000000E+00  0.76027258833E+02  0.11838076838E+03  0.90740631678E+02 0.  0.
          2    1    3    3  502    0  0.12376693809E+02 -0.42393761039E+02  0.24452500927E+02  0.50481068989E+02  0.00000000000E+00 0.  1.
         -2    1    3    3    0  502 -0.12376693809E+02  0.42393761039E+02  0.51574757906E+02  0.67899699394E+02  0.00000000000E+00 0. -1.
<mgrwt>
<rscale>  0 0.90740632E+02</rscale>
<asrwt>0</asrwt>
<pdfrwt beam="1">  1        1 0.14954463E-01 0.90740632E+02</pdfrwt>
<pdfrwt beam="2">  1       -1 0.32579623E-02 0.90740632E+02</pdfrwt>
<totfact> 0.10533039E+05</totfact>
</mgrwt>
</event>
<event>
 5    1  0.3854342E+001  0.9076370E+02  0.7546771E-02  0.1301013E+00
         -2   -1    0    0    0  501 -0.00000000000E+00  0.00000000000E+00  0.12276713661E+03  0.12276713661E+03  0.00000000000E+00 0.  1.
          2   -1    0    0  501    0  0.00000000000E+00 -0.00000000000E+00 -0.16775763086E+02  0.16775763086E+02  0.00000000000E+00 0. -1.
         23    2    1    2    0    0  0.00000000000E+00  0.00000000000E+00  0.10599137352E+03  0.13954289970E+03  0.90763701964E+02 0.  0.
          2    1    3    3  502    0 -0.37228521217E+02  0.25405845105E+02  0.44846921126E+02  0.63581963574E+02  0.00000000000E+00 0. -1.
         -2    1    3    3    0  502  0.37228521217E+02 -0.25405845105E+02  0.61144452398E+02  0.75960936122E+02  0.00000000000E+00 0.  1.
<mgrwt>
<rscale>  0 0.90763702E+02</rscale>
<asrwt>0</asrwt>
<pdfrwt beam="2">  1        2 0.25808867E-02 0.90763702E+02</pdfrwt>
<pdfrwt beam="1">  1       -2 0.18887251E-01 0.90763702E+02</pdfrwt>
<totfact> 0.75717928E+04</totfact>
</mgrwt>
</event>
<event>
 5    1  0.3854342E+001  0.8928744E+02  0.7546771E-02  0.1304586E+00
         -1   -1    0    0    0  501 -0.00000000000E+00  0.00000000000E+00  0.18692133233E+02  0.18692133233E+02  0.00000000000E+00 0.  1.
          1   -1    0    0  501    0  0.00000000000E+00 -0.00000000000E+00 -0.10662570783E+03  0.10662570783E+03  0.00000000000E+00 0. -1.
         23    2    1    2    0    0  0.00000000000E+00  0.00000000000E+00 -0.87933574601E+02  0.12531784107E+03  0.89287444513E+02 0.  0.
          2    1    3    3  502    0  0.18557274520E+02 -0.24884744999E+02 -0.88998950813E+02  0.94257287342E+02  0.00000000000E+00 0. -1.
         -2    1    3    3    0  502 -0.18557274520E+02  0.24884744999E+02  0.10653762115E+01  0.31060553726E+02  0.00000000000E+00 0.  1.
<mgrwt>
<rscale>  0 0.89287445E+02</rscale>
<asrwt>0</asrwt>
<pdfrwt beam="2">  1        1 0.16403955E-01 0.89287445E+02</pdfrwt>
<pdfrwt beam="1">  1       -1 0.28757128E-02 0.89287445E+02</pdfrwt>
<totfact> 0.11175761E+05</totfact>
</mgrwt>
</event>
<event>
 5    1  0.3854342E+001  0.9808133E+02  0.7546771E-02  0.1284383E+00
         -1   -1    0    0    0  501 -0.00000000000E+00  0.00000000000E+00  0.39712947556E+02  0.39712947556E+02  0.00000000000E+00 0.  1.
          1   -1    0    0  501    0  0.00000000000E+00 -0.00000000000E+00 -0.60559259567E+02  0.60559259567E+02  0.00000000000E+00 0. -1.
         23    2    1    2    0    0  0.00000000000E+00  0.00000000000E+00 -0.20846312010E+02  0.10027220712E+03  0.98081327463E+02 0.  0.
          2    1    3    3  502    0 -0.44380224721E+02 -0.20511282148E+02 -0.65075027385E+01  0.49322050176E+02  0.00000000000E+00 0.  1.
         -2    1    3    3    0  502  0.44380224721E+02  0.20511282148E+02 -0.14338809272E+02  0.50950156947E+02  0.00000000000E+00 0. -1.
<mgrwt>
<rscale>  0 0.98081327E+02</rscale>
<asrwt>0</asrwt>
<pdfrwt beam="2">  1        1 0.93168091E-02 0.98081327E+02</pdfrwt>
<pdfrwt beam="1">  1       -1 0.61096843E-02 0.98081327E+02</pdfrwt>
<totfact> 0.78723117E+04</totfact>
</mgrwt>
</event>
<event>
 5    1  0.3854342E+001  0.9074577E+02  0.7546771E-02  0.1301056E+00
          2   -1    0    0  501    0  0.00000000000E+00  0.00000000000E+00  0.12155857344E+03  0.12155857344E+03  0.00000000000E+00 0.  1.
         -2   -1    0    0    0  501 -0.00000000000E+00 -0.00000000000E+00 -0.16935855863E+02  0.16935855863E+02  0.00000000000E+00 0. -1.
         23    2    1    2    0    0  0.00000000000E+00  0.00000000000E+00  0.10462271758E+03  0.13849442930E+03  0.90745765270E+02 0.  0.
          2    1    3    3  502    0 -0.14192400259E+02  0.28211331366E+02  0.25898311201E+01  0.31686127371E+02  0.00000000000E+00 0. -1.
         -2    1    3    3    0  502  0.14192400259E+02 -0.28211331366E+02  0.10203288646E+03  0.10680830193E+03  0.00000000000E+00 0.  1.
<mgrwt>
<rscale>  0 0.90745765E+02</rscale>
<asrwt>0</asrwt>
<pdfrwt beam="1">  1        2 0.18701319E-01 0.90745765E+02</pdfrwt>
<pdfrwt beam="2">  1       -2 0.26055164E-02 0.90745765E+02</pdfrwt>
<totfact> 0.13210155E+05</totfact>
</mgrwt>
</event>
<event>
 5    1  0.3854342E+001  0.9095233E+02  0.7546771E-02  0.1300562E+00
          3   -1    0    0  501    0  0.00000000000E+00  0.00000000000E+00  0.20222465049E+02  0.20222465049E+02  0.00000000000E+00 0. -1.
         -3   -1    0    0    0  501 -0.00000000000E+00 -0.00000000000E+00 -0.10226654227E+03  0.10226654227E+03  0.00000000000E+00 0.  1.
         23    2    1    2    0    0  0.00000000000E+00  0.00000000000E+00 -0.82044077218E+02  0.12248900732E+03  0.90952329860E+02 0.  0.
          2    1    3    3  502    0 -0.20820647442E+01  0.35987427596E+02 -0.36842953571E+01  0.36235396657E+02  0.00000000000E+00 0. -1.
         -2    1    3    3    0  502  0.20820647442E+01 -0.35987427596E+02 -0.78359781861E+02  0.86253610660E+02  0.00000000000E+00 0.  1.
<mgrwt>
<rscale>  0 0.90952330E+02</rscale>
<asrwt>0</asrwt>
<pdfrwt beam="1">  1        3 0.31111485E-02 0.90952330E+02</pdfrwt>
<pdfrwt beam="2">  1       -3 0.15733314E-01 0.90952330E+02</pdfrwt>
<totfact> 0.33300884E+04</totfact>
</mgrwt>
</event>
<event>
 5    1  0.3854342E+001  0.9162513E+02  0.7546771E-02  0.1298963E+00
          2   -1    0    0  501    0  0.00000000000E+00  0.00000000000E+00  0.61151154212E+03  0.61151154212E+03  0.00000000000E+00 0. -1.
         -2   -1    0    0    0  501 -0.00000000000E+00 -0.00000000000E+00 -0.34321362975E+01  0.34321362975E+01  0.00000000000E+00 0.  1.
         23    2    1    2    0    0  0.00000000000E+00  0.00000000000E+00  0.60807940582E+03  0.61494367841E+03  0.91625126686E+02 0.  0.
          2    1    3    3  502    0  0.42948606739E+02 -0.17650867625E+01  0.41038975745E+03  0.41263476753E+03  0.00000000000E+00 0. -1.
         -2    1    3    3    0  502 -0.42948606739E+02  0.17650867625E+01  0.19768964837E+03  0.20230891089E+03  0.00000000000E+00 0.  1.
<mgrwt>
<rscale>  0 0.91625127E+02</rscale>
<asrwt>0</asrwt>
<pdfrwt beam="1">  1        2 0.94078612E-01 0.91625127E+02</pdfrwt>
<pdfrwt beam="2">  1       -2 0.52802146E-03 0.91625127E+02</pdfrwt>
<totfact> 0.22611880E+05</totfact>
</mgrwt>
</event>
<event>
 5    1  0.3854342E+001  0.8907815E+02  0.7546771E-02  0.1305100E+00
          2   -1    0    0  501    0  0.00000000000E+00  0.00000000000E+00  0.31201812349E+04  0.31201812349E+04  0.00000000000E+00 0. -1.
         -2   -1    0    0    0  501 -0.00000000000E+00 -0.00000000000E+00 -0.63577377562E+00  0.63577377562E+00  0.00000000000E+00 0.  1.
         23    2    1    2    0    0  0.00000000000E+00  0.00000000000E+00  0.31195454611E+04  0.31208170086E+04  0.89078154546E+02 0.  0.
          2    1    3    3  502    0 -0.26024990188E+02 -0.35981275881E+02  0.16800035570E+04  0.16805903438E+04  0.00000000000E+00 0. -1.
         -2    1    3    3    0  502  0.26024990188E+02  0.35981275881E+02  0.14395419041E+04  0.14402266648E+04  0.00000000000E+00 0.  1.
<mgrwt>
<rscale>  0 0.89078155E+02</rscale>
<asrwt>0</asrwt>
<pdfrwt beam="1">  1        2 0.48001562E+00 0.89078155E+02</pdfrwt>
<pdfrwt beam="2">  1       -2 0.97813848E-04 0.89078155E+02</pdfrwt>
<totfact> 0.97615110E+04</totfact>
</mgrwt>
</event>
<event>
 5    1  0.3854342E+001  0.9285313E+02  0.7546771E-02  0.1296086E+00
          4   -1    0    0  501    0  0.00000000000E+00  0.00000000000E+00  0.89765746280E+02  0.89765746280E+02  0.00000000000E+00 0. -1.
         -4   -1    0    0    0  501 -0.00000000000E+00 -0.00000000000E+00 -0.24011676266E+02  0.24011676266E+02  0.00000000000E+00 0.  1.
         23    2    1    2    0    0  0.00000000000E+00  0.00000000000E+00  0.65754070014E+02  0.11377742255E+03  0.92853132192E+02 0.  0.
          2    1    3    3  502    0 -0.44640293473E+01  0.19794424764E+02  0.84044373826E+02  0.86459259664E+02  0.00000000000E+00 0. -1.
         -2    1    3    3    0  502  0.44640293473E+01 -0.19794424764E+02 -0.18290303812E+02  0.27318162883E+02  0.00000000000E+00 0.  1.
<mgrwt>
<rscale>  0 0.92853132E+02</rscale>
<asrwt>0</asrwt>
<pdfrwt beam="1">  1        4 0.13810115E-01 0.92853132E+02</pdfrwt>
<pdfrwt beam="2">  1       -4 0.36941041E-02 0.92853132E+02</pdfrwt>
<totfact> 0.24394761E+04</totfact>
</mgrwt>
</event>
<event>
 5    1  0.3854342E+001  0.6591489E+02  0.7546771E-02  0.1374563E+00
          1   -1    0    0  501    0  0.00000000000E+00  0.00000000000E+00  0.86505687343E+03  0.86505687343E+03  0.00000000000E+00 0. -1.
         -1   -1    0    0    0  501 -0.00000000000E+00 -0.00000000000E+00 -0.12556322182E+01  0.12556322182E+01  0.00000000000E+00 0.  1.
         23    2    1    2    0    0  0.00000000000E+00  0.00000000000E+00  0.86380124122E+03  0.86631250565E+03  0.65914893032E+02 0.  0.
          2    1    3    3  502    0 -0.69274117149E+01  0.23414752599E+02  0.72281722672E+03  0.72322955064E+03  0.00000000000E+00 0. -1.
         -2    1    3    3    0  502  0.69274117149E+01 -0.23414752599E+02  0.14098401449E+03  0.14308295501E+03  0.00000000000E+00 0.  1.
<mgrwt>
<rscale>  0 0.65914893E+02</rscale>
<asrwt>0</asrwt>
<pdfrwt beam="1">  1        1 0.13308520E+00 0.65914893E+02</pdfrwt>
<pdfrwt beam="2">  1       -1 0.19317488E-03 0.65914893E+02</pdfrwt>
<totfact> 0.32566976E+05</totfact>
</mgrwt>
</event>
<event>
 5    1  0.3854342E+001  0.6648941E+02  0.7546771E-02  0.1372455E+00
         -1   -1    0    0    0  501 -0.00000000000E+00  0.00000000000E+00  0.91138104335E+01  0.91138104335E+01  0.00000000000E+00 0.  1.
          1   -1    0    0  501    0  0.00000000000E+00 -0.00000000000E+00 -0.12126766568E+03  0.12126766568E+03  0.00000000000E+00 0. -1.
         23    2    1    2    0    0  0.00000000000E+00  0.00000000000E+00 -0.11215385525E+03  0.13038147612E+03  0.66489413195E+02 0.  0.
          2    1    3    3  502    0  0.13409898695E+02  0.17968048193E+02 -0.10421118867E+03  0.10659572216E+03  0.00000000000E+00 0. -1.
         -2    1    3    3    0  502 -0.13409898695E+02 -0.17968048193E+02 -0.79426665795E+01  0.23785753956E+02  0.00000000000E+00 0.  1.
<mgrwt>
<rscale>  0 0.66489413E+02</rscale>
<asrwt>0</asrwt>
<pdfrwt beam="2">  1        1 0.18656563E-01 0.66489413E+02</pdfrwt>
<pdfrwt beam="1">  1       -1 0.14021248E-02 0.66489413E+02</pdfrwt>
<totfact> 0.24986833E+05</totfact>
</mgrwt>
</event>
<event>
 5    1  0.3854342E+001  0.9150134E+02  0.7546771E-02  0.1299256E+00
         -1   -1    0    0    0  501 -0.00000000000E+00  0.00000000000E+00  0.27497733077E+01  0.27497733077E+01  0.00000000000E+00 0.  1.
          1   -1    0    0  501    0  0.00000000000E+00 -0.00000000000E+00 -0.76119874775E+03  0.76119874775E+03  0.00000000000E+00 0. -1.
         23    2    1    2    0    0  0.00000000000E+00  0.00000000000E+00 -0.75844897444E+03  0.76394852106E+03  0.91501344218E+02 0.  0.
          2    1    3    3  502    0  0.24099602240E+02  0.23983796466E+02 -0.12364142846E+03  0.12823110446E+03  0.00000000000E+00 0.  1.
         -2    1    3    3    0  502 -0.24099602240E+02 -0.23983796466E+02 -0.63480754599E+03  0.63571741660E+03  0.00000000000E+00 0. -1.
<mgrwt>
<rscale>  0 0.91501344E+02</rscale>
<asrwt>0</asrwt>
<pdfrwt beam="2">  1        1 0.11710762E+00 0.91501344E+02</pdfrwt>
<pdfrwt beam="1">  1       -1 0.42304160E-03 0.91501344E+02</pdfrwt>
<totfact> 0.14047413E+05</totfact>
</mgrwt>
</event>
<event>
 5    1  0.3854342E+001  0.9352617E+02  0.7546771E-02  0.1294530E+00
          2   -1    0    0  501    0  0.00000000000E+00  0.00000000000E+00  0.74895549695E+02  0.74895549695E+02  0.00000000000E+00 0. -1.
         -2   -1    0    0    0  501 -0.00000000000E+00 -0.00000000000E+00 -0.29197810927E+02  0.29197810927E+02  0.00000000000E+00 0.  1.
         23    2    1    2    0    0  0.00000000000E+00  0.00000000000E+00  0.45697738768E+02  0.10409336062E+03  0.93526169584E+02 0.  0.
          2    1    3    3  502    0  0.44911863881E+02 -0.10365613224E+02  0.31631217305E+02  0.55902194617E+02  0.00000000000E+00 0. -1.
         -2    1    3    3    0  502 -0.44911863881E+02  0.10365613224E+02  0.14066521463E+02  0.48191166004E+02  0.00000000000E+00 0.  1.
<mgrwt>
<rscale>  0 0.93526170E+02</rscale>
<asrwt>0</asrwt>
<pdfrwt beam="1">  1        2 0.11522392E-01 0.93526170E+02</pdfrwt>
<pdfrwt beam="2">  1       -2 0.44919709E-02 0.93526170E+02</pdfrwt>
<totfact> 0.10498566E+05</totfact>
</mgrwt>
</event>
<event>
 5    1  0.3854342E+001  0.8875429E+02  0.7546771E-02  0.1305897E+00
         -1   -1    0    0    0  501 -0.00000000000E+00  0.00000000000E+00  0.16870349015E+02  0.16870349015E+02  0.00000000000E+00 0.  1.
          1   -1    0    0  501    0  0.00000000000E+00 -0.00000000000E+00 -0.11673326931E+03  0.11673326931E+03  0.00000000000E+00 0. -1.
         23    2    1    2    0    0  0.00000000000E+00  0.00000000000E+00 -0.99862920294E+02  0.13360361832E+03  0.88754289923E+02 0.  0.
          2    1    3    3  502    0 -0.24446040726E+02 -0.26190778954E+02 -0.89351456793E+02  0.96266549956E+02  0.00000000000E+00 0. -1.
         -2    1    3    3    0  502  0.24446040726E+02  0.26190778954E+02 -0.10511463500E+02  0.37337068368E+02  0.00000000000E+00 0.  1.
<mgrwt>
<rscale>  0 0.88754290E+02</rscale>
<asrwt>0</asrwt>
<pdfrwt beam="2">  1        1 0.17958965E-01 0.88754290E+02</pdfrwt>
<pdfrwt beam="1">  1       -1 0.25954382E-02 0.88754290E+02</pdfrwt>
<totfact> 0.11533479E+05</totfact>
</mgrwt>
</event>
<event>
 5    1  0.3854342E+001  0.8970892E+02  0.7546771E-02  0.1303558E+00
          4   -1    0    0  501    0  0.00000000000E+00  0.00000000000E+00  0.34880170589E+02  0.34880170589E+02  0.00000000000E+00 0.  1.
         -4   -1    0    0    0  501 -0.00000000000E+00 -0.00000000000E+00 -0.57680978479E+02  0.57680978479E+02  0.00000000000E+00 0. -1.
         23    2    1    2    0    0  0.00000000000E+00  0.00000000000E+00 -0.22800807890E+02  0.92561149068E+02  0.89708915256E+02 0.  0.
          2    1    3    3  502    0  0.36716518609E+02 -0.11194965854E+02 -0.35343643409E+02  0.52178569630E+02  0.00000000000E+00 0. -1.
         -2    1    3    3    0  502 -0.36716518609E+02  0.11194965854E+02  0.12542835519E+02  0.40382579438E+02  0.00000000000E+00 0.  1.
<mgrwt>
<rscale>  0 0.89708915E+02</rscale>
<asrwt>0</asrwt>
<pdfrwt beam="1">  1        4 0.53661801E-02 0.89708915E+02</pdfrwt>
<pdfrwt beam="2">  1       -4 0.88739966E-02 0.89708915E+02</pdfrwt>
<totfact> 0.28136643E+04</totfact>
</mgrwt>
</event>
<event>
 5    1  0.3854342E+001  0.9223318E+02  0.7546771E-02  0.1297532E+00
         -2   -1    0    0    0  501 -0.00000000000E+00  0.00000000000E+00  0.42623613752E+01  0.42623613752E+01  0.00000000000E+00 0.  1.
          2   -1    0    0  501    0  0.00000000000E+00 -0.00000000000E+00 -0.49895817815E+03  0.49895817815E+03  0.00000000000E+00 0. -1.
         23    2    1    2    0    0  0.00000000000E+00  0.00000000000E+00 -0.49469581678E+03  0.50322053953E+03  0.92233184189E+02 0.  0.
          2    1    3    3  502    0  0.45373024545E+02 -0.81675124636E+01 -0.24107841889E+03  0.24544698750E+03  0.00000000000E+00 0. -1.
         -2    1    3    3    0  502 -0.45373024545E+02  0.81675124636E+01 -0.25361739789E+03  0.25777355203E+03  0.00000000000E+00 0.  1.
<mgrwt>
<rscale>  0 0.92233184E+02</rscale>
<asrwt>0</asrwt>
<pdfrwt beam="2">  1        2 0.76762824E-01 0.92233184E+02</pdfrwt>
<pdfrwt beam="1">  1       -2 0.65574767E-03 0.92233184E+02</pdfrwt>
<totfact> 0.20887793E+05</totfact>
</mgrwt>
</event>
<event>
 5    1  0.3854342E+001  0.8304432E+02  0.7546771E-02  0.1320628E+00
         -2   -1    0    0    0  501 -0.00000000000E+00  0.00000000000E+00  0.53301840862E+01  0.53301840862E+01  0.00000000000E+00 0.  1.
          2   -1    0    0  501    0  0.00000000000E+00 -0.00000000000E+00 -0.32345781544E+03  0.32345781544E+03  0.00000000000E+00 0. -1.
         23    2    1    2    0    0  0.00000000000E+00  0.00000000000E+00 -0.31812763135E+03  0.32878799952E+03  0.83044318298E+02 0.  0.
          2    1    3    3  502    0 -0.96414604970E+00 -0.26046161248E+02 -0.28703547595E+03  0.28821640575E+03  0.00000000000E+00 0. -1.
         -2    1    3    3    0  502  0.96414604970E+00  0.26046161248E+02 -0.31092155404E+02  0.40571593770E+02  0.00000000000E+00 0.  1.
<mgrwt>
<rscale>  0 0.83044318E+02</rscale>
<asrwt>0</asrwt>
<pdfrwt beam="2">  1        2 0.49762746E-01 0.83044318E+02</pdfrwt>
<pdfrwt beam="1">  1       -2 0.82002824E-03 0.83044318E+02</pdfrwt>
<totfact> 0.23664734E+05</totfact>
</mgrwt>
</event>
<event>
 5    1  0.3854342E+001  0.9042479E+02  0.7546771E-02  0.1301826E+00
         -2   -1    0    0    0  501 -0.00000000000E+00  0.00000000000E+00  0.14488853090E+02  0.14488853090E+02  0.00000000000E+00 0.  1.
          2   -1    0    0  501    0  0.00000000000E+00 -0.00000000000E+00 -0.14108506380E+03  0.14108506380E+03  0.00000000000E+00 0. -1.
         23    2    1    2    0    0  0.00000000000E+00  0.00000000000E+00 -0.12659621071E+03  0.15557391689E+03  0.90424792232E+02 0.  0.
          2    1    3    3  502    0 -0.38333008494E+02 -0.11070114150E+01 -0.22095759780E+02  0.44259096407E+02  0.00000000000E+00 0. -1.
         -2    1    3    3    0  502  0.38333008494E+02  0.11070114150E+01 -0.10450045093E+03  0.11131482048E+03  0.00000000000E+00 0.  1.
<mgrwt>
<rscale>  0 0.90424792E+02</rscale>
<asrwt>0</asrwt>
<pdfrwt beam="2">  1        2 0.21705395E-01 0.90424792E+02</pdfrwt>
<pdfrwt beam="1">  1       -2 0.22290543E-02 0.90424792E+02</pdfrwt>
<totfact> 0.14006290E+05</totfact>
</mgrwt>
</event>
<event>
 5    1  0.3854342E+001  0.9180540E+02  0.7546771E-02  0.1298538E+00
         -2   -1    0    0    0  501 -0.00000000000E+00  0.00000000000E+00  0.32748671517E+01  0.32748671517E+01  0.00000000000E+00 0.  1.
          2   -1    0    0  501    0  0.00000000000E+00 -0.00000000000E+00 -0.64340260374E+03  0.64340260374E+03  0.00000000000E+00 0. -1.
         23    2    1    2    0    0  0.00000000000E+00  0.00000000000E+00 -0.64012773659E+03  0.64667747089E+03  0.91805404030E+02 0.  0.
          2    1    3    3  502    0 -0.89934411578E+01  0.38139639930E+02 -0.48846472438E+03  0.49003397952E+03  0.00000000000E+00 0. -1.
         -2    1    3    3    0  502  0.89934411578E+01 -0.38139639930E+02 -0.15166301221E+03  0.15664349137E+03  0.00000000000E+00 0.  1.
<mgrwt>
<rscale>  0 0.91805404E+02</rscale>
<asrwt>0</asrwt>
<pdfrwt beam="2">  1        2 0.98984861E-01 0.91805404E+02</pdfrwt>
<pdfrwt beam="1">  1       -2 0.50382651E-03 0.91805404E+02</pdfrwt>
<totfact> 0.22806036E+05</totfact>
</mgrwt>
</event>
<event>
 5    1  0.3854342E+001  0.8969434E+02  0.7546771E-02  0.1303594E+00
          3   -1    0    0  501    0  0.00000000000E+00  0.00000000000E+00  0.10012536990E+01  0.10012536990E+01  0.00000000000E+00 0. -1.
         -3   -1    0    0    0  501 -0.00000000000E+00 -0.00000000000E+00 -0.20087503798E+04  0.20087503798E+04  0.00000000000E+00 0.  1.
         23    2    1    2    0    0  0.00000000000E+00  0.00000000000E+00 -0.20077491261E+04  0.20097516335E+04  0.89694342030E+02 0.  0.
          2    1    3    3  502    0 -0.18655208341E+02  0.34205401001E+02 -0.50624338350E+03  0.50774047465E+03  0.00000000000E+00 0. -1.
         -2    1    3    3    0  502  0.18655208341E+02 -0.34205401001E+02 -0.15015057426E+04  0.15020111589E+04  0.00000000000E+00 0.  1.
<mgrwt>
<rscale>  0 0.89694342E+02</rscale>
<asrwt>0</asrwt>
<pdfrwt beam="1">  1        3 0.15404096E-03 0.89694342E+02</pdfrwt>
<pdfrwt beam="2">  1       -3 0.30903465E+00 0.89694342E+02</pdfrwt>
<totfact> 0.37257774E+03</totfact>
</mgrwt>
</event>
<event>
 5    1  0.3854342E+001  0.8887178E+02  0.7546771E-02  0.1305607E+00
          1   -1    0    0  501    0  0.00000000000E+00  0.00000000000E+00  0.42994221917E+02  0.42994221917E+02  0.00000000000E+00 0. -1.
         -1   -1    0    0    0  501 -0.00000000000E+00 -0.00000000000E+00 -0.45925903407E+02  0.45925903407E+02  0.00000000000E+00 0.  1.
         23    2    1    2    0    0  0.00000000000E+00  0.00000000000E+00 -0.29316814902E+01  0.88920125324E+02  0.88871783662E+02 0.  0.
          2    1    3    3  502    0 -0.20045377079E+02  0.18257391792E+02  0.33758407868E+02  0.43298725144E+02  0.00000000000E+00 0. -1.
         -2    1    3    3    0  502  0.20045377079E+02 -0.18257391792E+02 -0.36690089358E+02  0.45621400180E+02  0.00000000000E+00 0.  1.
<mgrwt>
<rscale>  0 0.88871784E+02</rscale>
<asrwt>0</asrwt>
<pdfrwt beam="1">  1        1 0.66144956E-02 0.88871784E+02</pdfrwt>
<pdfrwt beam="2">  1       -1 0.70655236E-02 0.88871784E+02</pdfrwt>
<totfact> 0.98488986E+04</totfact>
</mgrwt>
</event>
<event>
 5    1  0.3854342E+001  0.9142166E+02  0.7546771E-02  0.1299445E+00
         -2   -1    0    0    0  501 -0.00000000000E+00  0.00000000000E+00  0.30257839402E+03  0.30257839402E+03  0.00000000000E+00 0.  1.
          2   -1    0    0  501    0  0.00000000000E+00 -0.00000000000E+00 -0.69055823155E+01  0.69055823155E+01  0.00000000000E+00 0. -1.
         23    2    1    2    0    0  0.00000000000E+00  0.00000000000E+00  0.29567281170E+03  0.30948397633E+03  0.91421660601E+02 0.  0.
          2    1    3    3  502    0 -0.35439748782E+02 -0.35171773936E+01  0.24484182451E+03  0.24741840142E+03  0.00000000000E+00 0.  1.
         -2    1    3    3    0  502  0.35439748782E+02  0.35171773936E+01  0.50830987187E+02  0.62065574911E+02  0.00000000000E+00 0. -1.
<mgrwt>
<rscale>  0 0.91421661E+02</rscale>
<asrwt>0</asrwt>
<pdfrwt beam="2">  1        2 0.10623975E-02 0.91421661E+02</pdfrwt>
<pdfrwt beam="1">  1       -2 0.46550512E-01 0.91421661E+02</pdfrwt>
<totfact> 0.50406169E+04</totfact>
</mgrwt>
</event>
<event>
 5    1  0.3854342E+001  0.8039019E+02  0.7546771E-02  0.1327948E+00
          3   -1    0    0  501    0  0.00000000000E+00  0.00000000000E+00  0.33876205600E+02  0.33876205600E+02  0.00000000000E+00 0. -1.
         -3   -1    0    0    0  501 -0.00000000000E+00 -0.00000000000E+00 -0.47692638523E+02  0.47692638523E+02  0.00000000000E+00 0.  1.
         23    2    1    2    0    0  0.00000000000E+00  0.00000000000E+00 -0.13816432923E+02  0.81568844124E+02  0.80390189159E+02 0.  0.
          2    1    3    3  502    0  0.32521533179E+01  0.34692690861E+02  0.13422685111E+02  0.37340698654E+02  0.00000000000E+00 0. -1.
         -2    1    3    3    0  502 -0.32521533179E+01 -0.34692690861E+02 -0.27239118034E+02  0.44228145470E+02  0.00000000000E+00 0.  1.
<mgrwt>
<rscale>  0 0.80390189E+02</rscale>
<asrwt>0</asrwt>
<pdfrwt beam="1">  1        3 0.52117239E-02 0.80390189E+02</pdfrwt>
<pdfrwt beam="2">  1       -3 0.73373290E-02 0.80390189E+02</pdfrwt>
<totfact> 0.50736933E+04</totfact>
</mgrwt>
</event>
<event>
 5    1  0.3854342E+001  0.9048303E+02  0.7546771E-02  0.1301686E+00
         -1   -1    0    0    0  501 -0.00000000000E+00  0.00000000000E+00  0.14769093342E+01  0.14769093342E+01  0.00000000000E+00 0.  1.
          1   -1    0    0  501    0  0.00000000000E+00 -0.00000000000E+00 -0.13858633757E+04  0.13858633757E+04  0.00000000000E+00 0. -1.
         23    2    1    2    0    0  0.00000000000E+00  0.00000000000E+00 -0.13843864664E+04  0.13873402850E+04  0.90483027258E+02 0.  0.
          2    1    3    3  502    0  0.84837211137E+01  0.35730433353E+02 -0.10973214333E+04  0.10979357747E+04  0.00000000000E+00 0. -1.
         -2    1    3    3    0  502 -0.84837211137E+01 -0.35730433353E+02 -0.28706503311E+03  0.28940451038E+03  0.00000000000E+00 0.  1.
<mgrwt>
<rscale>  0 0.90483027E+02</rscale>
<asrwt>0</asrwt>
<pdfrwt beam="2">  1        1 0.21321163E+00 0.90483027E+02</pdfrwt>
<pdfrwt beam="1">  1       -1 0.22721482E-03 0.90483027E+02</pdfrwt>
<totfact> 0.11964245E+05</totfact>
</mgrwt>
</event>
<event>
 5    1  0.3854342E+001  0.9222803E+02  0.7546771E-02  0.1297544E+00
          1   -1    0    0  501    0  0.00000000000E+00  0.00000000000E+00  0.72731602971E+02  0.72731602971E+02  0.00000000000E+00 0. -1.
         -1   -1    0    0    0  501 -0.00000000000E+00 -0.00000000000E+00 -0.29237668976E+02  0.29237668976E+02  0.00000000000E+00 0.  1.
         23    2    1    2    0    0  0.00000000000E+00  0.00000000000E+00  0.43493933995E+02  0.10196927195E+03  0.92228033304E+02 0.  0.
          2    1    3    3  502    0  0.15248540409E+02 -0.42859182068E+02  0.13394215562E+02  0.47421856593E+02  0.00000000000E+00 0. -1.
         -2    1    3    3    0  502 -0.15248540409E+02  0.42859182068E+02  0.30099718433E+02  0.54547415355E+02  0.00000000000E+00 0.  1.
<mgrwt>
<rscale>  0 0.92228033E+02</rscale>
<asrwt>0</asrwt>
<pdfrwt beam="1">  1        1 0.11189477E-01 0.92228033E+02</pdfrwt>
<pdfrwt beam="2">  1       -1 0.44981029E-02 0.92228033E+02</pdfrwt>
<totfact> 0.96163437E+04</totfact>
</mgrwt>
</event>
<event>
 5    1  0.3854342E+001  0.9272521E+02  0.7546771E-02  0.1296383E+00
          2   -1    0    0  501    0  0.00000000000E+00  0.00000000000E+00  0.14881580806E+04  0.14881580806E+04  0.00000000000E+00 0.  1.
         -2   -1    0    0    0  501 -0.00000000000E+00 -0.00000000000E+00 -0.14443970432E+01  0.14443970432E+01  0.00000000000E+00 0. -1.
         23    2    1    2    0    0  0.00000000000E+00  0.00000000000E+00  0.14867136835E+04  0.14896024776E+04  0.92725209765E+02 0.  0.
          2    1    3    3  502    0  0.19451731245E+02  0.39908658845E+02  0.95793949543E+03  0.95896775118E+03  0.00000000000E+00 0. -1.
         -2    1    3    3    0  502 -0.19451731245E+02 -0.39908658845E+02  0.52877418812E+03  0.53063472646E+03  0.00000000000E+00 0.  1.
<mgrwt>
<rscale>  0 0.92725210E+02</rscale>
<asrwt>0</asrwt>
<pdfrwt beam="1">  1        2 0.22894617E+00 0.92725210E+02</pdfrwt>
<pdfrwt beam="2">  1       -2 0.22221612E-03 0.92725210E+02</pdfrwt>
<totfact> 0.22638673E+05</totfact>
</mgrwt>
</event>
<event>
 5    1  0.3854342E+001  0.8956539E+02  0.7546771E-02  0.1303908E+00
          2   -1    0    0  501    0  0.00000000000E+00  0.00000000000E+00  0.27420174553E+03  0.27420174553E+03  0.00000000000E+00 0. -1.
         -2   -1    0    0    0  501 -0.00000000000E+00 -0.00000000000E+00 -0.73139207445E+01  0.73139207445E+01  0.00000000000E+00 0.  1.
         23    2    1    2    0    0  0.00000000000E+00  0.00000000000E+00  0.26688782478E+03  0.28151566627E+03  0.89565391414E+02 0.  0.
          2    1    3    3  502    0 -0.34025135183E+02 -0.73929653535E+01  0.44925644690E+02  0.56839065014E+02  0.00000000000E+00 0. -1.
         -2    1    3    3    0  502  0.34025135183E+02  0.73929653535E+01  0.22196218009E+03  0.22467660126E+03  0.00000000000E+00 0.  1.
<mgrwt>
<rscale>  0 0.89565391E+02</rscale>
<asrwt>0</asrwt>
<pdfrwt beam="1">  1        2 0.42184876E-01 0.89565391E+02</pdfrwt>
<pdfrwt beam="2">  1       -2 0.11252188E-02 0.89565391E+02</pdfrwt>
<totfact> 0.18220253E+05</totfact>
</mgrwt>
</event>
<event>
 5    1  0.3854342E+001  0.8818665E+02  0.7546771E-02  0.1307303E+00
          2   -1    0    0  501    0  0.00000000000E+00  0.00000000000E+00  0.67315158476E+02  0.67315158476E+02  0.00000000000E+00 0. -1.
         -2   -1    0    0    0  501 -0.00000000000E+00 -0.00000000000E+00 -0.28882368152E+02  0.28882368152E+02  0.00000000000E+00 0.  1.
         23    2    1    2    0    0  0.00000000000E+00  0.00000000000E+00  0.38432790324E+02  0.96197526628E+02  0.88186647273E+02 0.  0.
          2    1    3    3  502    0  0.13849536039E+02 -0.14841876341E+02  0.61914531289E+02  0.65157502457E+02  0.00000000000E+00 0. -1.
         -2    1    3    3    0  502 -0.13849536039E+02  0.14841876341E+02 -0.23481740965E+02  0.31040024171E+02  0.00000000000E+00 0.  1.
<mgrwt>
<rscale>  0 0.88186647E+02</rscale>
<asrwt>0</asrwt>
<pdfrwt beam="1">  1        2 0.10356178E-01 0.88186647E+02</pdfrwt>
<pdfrwt beam="2">  1       -2 0.44434413E-02 0.88186647E+02</pdfrwt>
<totfact> 0.12011419E+05</totfact>
</mgrwt>
</event>
<event>
 5    1  0.3854342E+001  0.9047819E+02  0.7546771E-02  0.1301698E+00
         -1   -1    0    0    0  501 -0.00000000000E+00  0.00000000000E+00  0.44176115859E+01  0.44176115859E+01  0.00000000000E+00 0.  1.
          1   -1    0    0  501    0  0.00000000000E+00 -0.00000000000E+00 -0.46327647849E+03  0.46327647849E+03  0.00000000000E+00 0. -1.
         23    2    1    2    0    0  0.00000000000E+00  0.00000000000E+00 -0.45885886691E+03  0.46769409008E+03  0.90478186075E+02 0.  0.
          2    1    3    3  502    0 -0.27512252740E+02  0.47635265945E+01 -0.41342167085E+03  0.41436347952E+03  0.00000000000E+00 0. -1.
         -2    1    3    3    0  502  0.27512252740E+02 -0.47635265945E+01 -0.45437196058E+02  0.53330610554E+02  0.00000000000E+00 0.  1.
<mgrwt>
<rscale>  0 0.90478186E+02</rscale>
<asrwt>0</asrwt>
<pdfrwt beam="2">  1        1 0.71273265E-01 0.90478186E+02</pdfrwt>
<pdfrwt beam="1">  1       -1 0.67963293E-03 0.90478186E+02</pdfrwt>
<totfact> 0.14075665E+05</totfact>
</mgrwt>
</event>
<event>
 5    1  0.3854342E+001  0.9068412E+02  0.7546771E-02  0.1301203E+00
          2   -1    0    0  501    0  0.00000000000E+00  0.00000000000E+00  0.32364756568E+03  0.32364756568E+03  0.00000000000E+00 0. -1.
         -2   -1    0    0    0  501 -0.00000000000E+00 -0.00000000000E+00 -0.63522868696E+01  0.63522868696E+01  0.00000000000E+00 0.  1.
         23    2    1    2    0    0  0.00000000000E+00  0.00000000000E+00  0.31729527881E+03  0.32999985255E+03  0.90684115078E+02 0.  0.
          2    1    3    3  502    0  0.14723655297E+02 -0.35569937726E+02  0.71471224114E+02  0.81179691866E+02  0.00000000000E+00 0.  1.
         -2    1    3    3    0  502 -0.14723655297E+02  0.35569937726E+02  0.24582405470E+03  0.24882016068E+03  0.00000000000E+00 0. -1.
<mgrwt>
<rscale>  0 0.90684115E+02</rscale>
<asrwt>0</asrwt>
<pdfrwt beam="1">  1        2 0.49791920E-01 0.90684115E+02</pdfrwt>
<pdfrwt beam="2">  1       -2 0.97727516E-03 0.90684115E+02</pdfrwt>
<totfact> 0.18747979E+05</totfact>
</mgrwt>
</event>
<event>
 5    1  0.3854342E+001  0.8649786E+02  0.7546771E-02  0.1311561E+00
          2   -1    0    0  501    0  0.00000000000E+00  0.00000000000E+00  0.10398362975E+04  0.10398362975E+04  0.00000000000E+00 0. -1.
         -2   -1    0    0    0  501 -0.00000000000E+00 -0.00000000000E+00 -0.17988118523E+01  0.17988118523E+01  0.00000000000E+00 0.  1.
         23    2    1    2    0    0  0.00000000000E+00  0.00000000000E+00  0.10380374856E+04  0.10416351093E+04  0.86497857923E+02 0.  0.
          2    1    3    3  502    0 -0.68546519673E+01 -0.29414755171E+02  0.89179734992E+03  0.89230865030E+03  0.00000000000E+00 0. -1.
         -2    1    3    3    0  502  0.68546519673E+01  0.29414755171E+02  0.14624013570E+03  0.14932645902E+03  0.00000000000E+00 0.  1.
<mgrwt>
<rscale>  0 0.86497858E+02</rscale>
<asrwt>0</asrwt>
<pdfrwt beam="1">  1        2 0.15997433E+00 0.86497858E+02</pdfrwt>
<pdfrwt beam="2">  1       -2 0.27674112E-03 0.86497858E+02</pdfrwt>
<totfact> 0.28743401E+05</totfact>
</mgrwt>
</event>
<event>
 5    1  0.3854342E+001  0.8707987E+02  0.7546771E-02  0.1310081E+00
         -4   -1    0    0    0  501 -0.00000000000E+00  0.00000000000E+00  0.35900618971E+02  0.35900618971E+02  0.00000000000E+00 0.  1.
          4   -1    0    0  501    0  0.00000000000E+00 -0.00000000000E+00 -0.52804821894E+02  0.52804821894E+02  0.00000000000E+00 0. -1.
         23    2    1    2    0    0  0.00000000000E+00  0.00000000000E+00 -0.16904202923E+02  0.88705440865E+02  0.87079866574E+02 0.  0.
          2    1    3    3  502    0 -0.16289581000E+02 -0.33249343314E+02 -0.31789519095E+02  0.48800028732E+02  0.00000000000E+00 0. -1.
         -2    1    3    3    0  502  0.16289581000E+02  0.33249343314E+02  0.14885316172E+02  0.39905412133E+02  0.00000000000E+00 0.  1.
<mgrwt>
<rscale>  0 0.87079867E+02</rscale>
<asrwt>0</asrwt>
<pdfrwt beam="2">  1        4 0.81238187E-02 0.87079867E+02</pdfrwt>
<pdfrwt beam="1">  1       -4 0.55231722E-02 0.87079867E+02</pdfrwt>
<totfact> 0.30771757E+04</totfact>
</mgrwt>
</event>
<event>
 5    1  0.3854342E+001  0.1036671E+03  0.7546771E-02  0.1272768E+00
         -1   -1    0    0    0  501 -0.00000000000E+00  0.00000000000E+00  0.19055537389E+01  0.19055537389E+01  0.00000000000E+00 0.  1.
          1   -1    0    0  501    0  0.00000000000E+00 -0.00000000000E+00 -0.14099394485E+04  0.14099394485E+04  0.00000000000E+00 0. -1.
         23    2    1    2    0    0  0.00000000000E+00  0.00000000000E+00 -0.14080338948E+04  0.14118450022E+04  0.10366707072E+03 0.  0.
          2    1    3    3  502    0  0.49810499349E+02 -0.11040243244E+02 -0.57938788141E+03  0.58162985648E+03  0.00000000000E+00 0. -1.
         -2    1    3    3    0  502 -0.49810499349E+02  0.11040243244E+02 -0.82864601335E+03  0.83021514576E+03  0.00000000000E+00 0.  1.
<mgrwt>
<rscale>  0 0.10366707E+03</rscale>
<asrwt>0</asrwt>
<pdfrwt beam="2">  1        1 0.21691450E+00 0.10366707E+03</pdfrwt>
<pdfrwt beam="1">  1       -1 0.29316112E-03 0.10366707E+03</pdfrwt>
<totfact> 0.82311543E+04</totfact>
</mgrwt>
</event>
<event>
 5    1  0.3854342E+001  0.9255341E+02  0.7546771E-02  0.1296783E+00
         -1   -1    0    0    0  501 -0.00000000000E+00  0.00000000000E+00  0.21961088845E+01  0.21961088845E+01  0.00000000000E+00 0. -1.
          1   -1    0    0  501    0  0.00000000000E+00 -0.00000000000E+00 -0.97514907665E+03  0.97514907665E+03  0.00000000000E+00 0.  1.
         23    2    1    2    0    0  0.00000000000E+00  0.00000000000E+00 -0.97295296777E+03  0.97734518553E+03  0.92553412706E+02 0.  0.
          2    1    3    3  502    0  0.15049572222E+02 -0.40412028100E+02 -0.66377792034E+03  0.66517723139E+03  0.00000000000E+00 0. -1.
         -2    1    3    3    0  502 -0.15049572222E+02  0.40412028100E+02 -0.30917504743E+03  0.31216795414E+03  0.00000000000E+00 0.  1.
<mgrwt>
<rscale>  0 0.92553413E+02</rscale>
<asrwt>0</asrwt>
<pdfrwt beam="2">  1        1 0.15002330E+00 0.92553413E+02</pdfrwt>
<pdfrwt beam="1">  1       -1 0.33786208E-03 0.92553413E+02</pdfrwt>
<totfact> 0.13156694E+05</totfact>
</mgrwt>
</event>
<event>
 5    1  0.3854342E+001  0.7814500E+02  0.7546771E-02  0.1334400E+00
          1   -1    0    0  501    0  0.00000000000E+00  0.00000000000E+00  0.19911527380E+04  0.19911527380E+04  0.00000000000E+00 0. -1.
         -1   -1    0    0    0  501 -0.00000000000E+00 -0.00000000000E+00 -0.76672183227E+00  0.76672183227E+00  0.00000000000E+00 0.  1.
         23    2    1    2    0    0  0.00000000000E+00  0.00000000000E+00  0.19903860162E+04  0.19919194599E+04  0.78145000496E+02 0.  0.
          2    1    3    3  502    0  0.23973754711E+02  0.29780951873E+02  0.78966315648E+03  0.79058810181E+03  0.00000000000E+00 0. -1.
         -2    1    3    3    0  502 -0.23973754711E+02 -0.29780951873E+02  0.12007228597E+04  0.12013313581E+04  0.00000000000E+00 0.  1.
<mgrwt>
<rscale>  0 0.78145000E+02</rscale>
<asrwt>0</asrwt>
<pdfrwt beam="1">  1        1 0.30632705E+00 0.78145000E+02</pdfrwt>
<pdfrwt beam="2">  1       -1 0.11795880E-03 0.78145000E+02</pdfrwt>
<totfact> 0.12057102E+05</totfact>
</mgrwt>
</event>
<event>
 5    1  0.3854342E+001  0.9349150E+02  0.7546771E-02  0.1294610E+00
          1   -1    0    0  501    0  0.00000000000E+00  0.00000000000E+00  0.21147635260E+02  0.21147635260E+02  0.00000000000E+00 0. -1.
         -1   -1    0    0    0  501 -0.00000000000E+00 -0.00000000000E+00 -0.10332904645E+03  0.10332904645E+03  0.00000000000E+00 0.  1.
         23    2    1    2    0    0  0.00000000000E+00  0.00000000000E+00 -0.82181411191E+02  0.12447668171E+03  0.93491496641E+02 0.  0.
          2    1    3    3  502    0 -0.39565410553E+02  0.61621282662E+00 -0.79555729240E+01  0.40362018917E+02  0.00000000000E+00 0. -1.
         -2    1    3    3    0  502  0.39565410553E+02 -0.61621282662E+00 -0.74225838267E+02  0.84114662793E+02  0.00000000000E+00 0.  1.
<mgrwt>
<rscale>  0 0.93491497E+02</rscale>
<asrwt>0</asrwt>
<pdfrwt beam="1">  1        1 0.32534823E-02 0.93491497E+02</pdfrwt>
<pdfrwt beam="2">  1       -1 0.15896777E-01 0.93491497E+02</pdfrwt>
<totfact> 0.75806144E+04</totfact>
</mgrwt>
</event>
<event>
 5    1  0.3854342E+001  0.9148058E+02  0.7546771E-02  0.1299305E+00
          2   -1    0    0  501    0  0.00000000000E+00  0.00000000000E+00  0.13781402104E+02  0.13781402104E+02  0.00000000000E+00 0. -1.
         -2   -1    0    0    0  501 -0.00000000000E+00 -0.00000000000E+00 -0.15181141805E+03  0.15181141805E+03  0.00000000000E+00 0.  1.
         23    2    1    2    0    0  0.00000000000E+00  0.00000000000E+00 -0.13803001594E+03  0.16559282015E+03  0.91480581459E+02 0.  0.
          2    1    3    3  502    0 -0.15751561036E+02 -0.24733823599E+02 -0.54715424008E+01  0.29829708030E+02  0.00000000000E+00 0. -1.
         -2    1    3    3    0  502  0.15751561036E+02  0.24733823599E+02 -0.13255847354E+03  0.13576311212E+03  0.00000000000E+00 0.  1.
<mgrwt>
<rscale>  0 0.91480581E+02</rscale>
<asrwt>0</asrwt>
<pdfrwt beam="1">  1        2 0.21202157E-02 0.91480581E+02</pdfrwt>
<pdfrwt beam="2">  1       -2 0.23355603E-01 0.91480581E+02</pdfrwt>
<totfact> 0.68966980E+04</totfact>
</mgrwt>
</event>
<event>
 5    1  0.3854342E+001  0.9193129E+02  0.7546771E-02  0.1298241E+00
         -1   -1    0    0    0  501 -0.00000000000E+00  0.00000000000E+00  0.42611308056E+01  0.42611308056E+01  0.00000000000E+00 0.  1.
          1   -1    0    0  501    0  0.00000000000E+00 -0.00000000000E+00 -0.49584036304E+03  0.49584036304E+03  0.00000000000E+00 0. -1.
         23    2    1    2    0    0  0.00000000000E+00  0.00000000000E+00 -0.49157923223E+03  0.50010149385E+03  0.91931292727E+02 0.  0.
          2    1    3    3  502    0  0.31526332809E+02 -0.31574199397E+02 -0.30587603670E+03  0.30911323097E+03  0.00000000000E+00 0. -1.
         -2    1    3    3    0  502 -0.31526332809E+02  0.31574199397E+02 -0.18570319553E+03  0.19098826288E+03  0.00000000000E+00 0.  1.
<mgrwt>
<rscale>  0 0.91931293E+02</rscale>
<asrwt>0</asrwt>
<pdfrwt beam="2">  1        1 0.76283098E-01 0.91931293E+02</pdfrwt>
<pdfrwt beam="1">  1       -1 0.65555889E-03 0.91931293E+02</pdfrwt>
<totfact> 0.13611891E+05</totfact>
</mgrwt>
</event>
<event>
 5    1  0.3854342E+001  0.9145801E+02  0.7546771E-02  0.1299359E+00
         -1   -1    0    0    0  501 -0.00000000000E+00  0.00000000000E+00  0.73283583580E+03  0.73283583580E+03  0.00000000000E+00 0.  1.
          1   -1    0    0  501    0  0.00000000000E+00 -0.00000000000E+00 -0.28534929692E+01  0.28534929692E+01  0.00000000000E+00 0. -1.
         23    2    1    2    0    0  0.00000000000E+00  0.00000000000E+00  0.72998234283E+03  0.73568932877E+03  0.91458010147E+02 0.  0.
          2    1    3    3  502    0  0.18991849867E+02  0.35440532038E+02  0.54019932361E+03  0.54169366888E+03  0.00000000000E+00 0.  1.
         -2    1    3    3    0  502 -0.18991849867E+02 -0.35440532038E+02  0.18978301922E+03  0.19399565989E+03  0.00000000000E+00 0. -1.
<mgrwt>
<rscale>  0 0.91458010E+02</rscale>
<asrwt>0</asrwt>
<pdfrwt beam="2">  1        1 0.43899950E-03 0.91458010E+02</pdfrwt>
<pdfrwt beam="1">  1       -1 0.11274382E+00 0.91458010E+02</pdfrwt>
<totfact> 0.35125115E+04</totfact>
</mgrwt>
</event>
<event>
 5    1  0.3854342E+001  0.8992043E+02  0.7546771E-02  0.1303044E+00
         -2   -1    0    0    0  501 -0.00000000000E+00  0.00000000000E+00  0.10508345809E+03  0.10508345809E+03  0.00000000000E+00 0.  1.
          2   -1    0    0  501    0  0.00000000000E+00 -0.00000000000E+00 -0.19236339485E+02  0.19236339485E+02  0.00000000000E+00 0. -1.
         23    2    1    2    0    0  0.00000000000E+00  0.00000000000E+00  0.85847118602E+02  0.12431979757E+03  0.89920433139E+02 0.  0.
          2    1    3    3  502    0  0.16625676583E+02  0.37081374932E+02  0.16330347976E+02  0.43796366901E+02  0.00000000000E+00 0. -1.
         -2    1    3    3    0  502 -0.16625676583E+02 -0.37081374932E+02  0.69516770626E+02  0.80523430670E+02  0.00000000000E+00 0.  1.
<mgrwt>
<rscale>  0 0.89920433E+02</rscale>
<asrwt>0</asrwt>
<pdfrwt beam="2">  1        2 0.29594369E-02 0.89920433E+02</pdfrwt>
<pdfrwt beam="1">  1       -2 0.16166686E-01 0.89920433E+02</pdfrwt>
<totfact> 0.81389581E+04</totfact>
</mgrwt>
</event>
<event>
 5    1  0.3854342E+001  0.9200307E+02  0.7546771E-02  0.1298072E+00
          2   -1    0    0  501    0  0.00000000000E+00  0.00000000000E+00  0.13379374770E+04  0.13379374770E+04  0.00000000000E+00 0. -1.
         -2   -1    0    0    0  501 -0.00000000000E+00 -0.00000000000E+00 -0.15816443413E+01  0.15816443413E+01  0.00000000000E+00 0.  1.
         23    2    1    2    0    0  0.00000000000E+00  0.00000000000E+00  0.13363558327E+04  0.13395191213E+04  0.92003070374E+02 0.  0.
          2    1    3    3  502    0  0.10125863410E+02  0.31183662097E+02  0.11379757799E+04  0.11384479915E+04  0.00000000000E+00 0. -1.
         -2    1    3    3    0  502 -0.10125863410E+02 -0.31183662097E+02  0.19838005281E+03  0.20107112981E+03  0.00000000000E+00 0.  1.
<mgrwt>
<rscale>  0 0.92003070E+02</rscale>
<asrwt>0</asrwt>
<pdfrwt beam="1">  1        2 0.20583563E+00 0.92003070E+02</pdfrwt>
<pdfrwt beam="2">  1       -2 0.24333097E-03 0.92003070E+02</pdfrwt>
<totfact> 0.23847452E+05</totfact>
</mgrwt>
</event>
<event>
 5    1  0.3854342E+001  0.8700296E+02  0.7546771E-02  0.1310276E+00
          2   -1    0    0  501    0  0.00000000000E+00  0.00000000000E+00  0.22789223728E+04  0.22789223728E+04  0.00000000000E+00 0. -1.
         -2   -1    0    0    0  501 -0.00000000000E+00 -0.00000000000E+00 -0.83038316805E+00  0.83038316805E+00  0.00000000000E+00 0.  1.
         23    2    1    2    0    0  0.00000000000E+00  0.00000000000E+00  0.22780919896E+04  0.22797527560E+04  0.87002960402E+02 0.  0.
          2    1    3    3  502    0  0.17065252716E+02 -0.27956052733E+02  0.18892142461E+04  0.18894981427E+04  0.00000000000E+00 0. -1.
         -2    1    3    3    0  502 -0.17065252716E+02  0.27956052733E+02  0.38887774358E+03  0.39025461328E+03  0.00000000000E+00 0.  1.
<mgrwt>
<rscale>  0 0.87002960E+02</rscale>
<asrwt>0</asrwt>
<pdfrwt beam="1">  1        2 0.35059844E+00 0.87002960E+02</pdfrwt>
<pdfrwt beam="2">  1       -2 0.12775308E-03 0.87002960E+02</pdfrwt>
<totfact> 0.19267664E+05</totfact>
</mgrwt>
</event>
<event>
 5    1  0.3854342E+001  0.9532704E+02  0.7546771E-02  0.1290441E+00
          2   -1    0    0  501    0  0.00000000000E+00  0.00000000000E+00  0.32113433982E+03  0.32113433982E+03  0.00000000000E+00 0. -1.
         -2   -1    0    0    0  501 -0.00000000000E+00 -0.00000000000E+00 -0.70743324690E+01  0.70743324690E+01  0.00000000000E+00 0.  1.
         23    2    1    2    0    0  0.00000000000E+00  0.00000000000E+00  0.31406000735E+03  0.32820867229E+03  0.95327038915E+02 0.  0.
          2    1    3    3  502    0  0.30123126631E+02 -0.87824555594E+01  0.28055928676E+03  0.28230842649E+03  0.00000000000E+00 0. -1.
         -2    1    3    3    0  502 -0.30123126631E+02  0.87824555594E+01  0.33500720592E+02  0.45900245793E+02  0.00000000000E+00 0.  1.
<mgrwt>
<rscale>  0 0.95327039E+02</rscale>
<asrwt>0</asrwt>
<pdfrwt beam="1">  1        2 0.49405272E-01 0.95327039E+02</pdfrwt>
<pdfrwt beam="2">  1       -2 0.10883591E-02 0.95327039E+02</pdfrwt>
<totfact> 0.16359337E+05</totfact>
</mgrwt>
</event>
<event>
 5    1  0.3854342E+001  0.9031599E+02  0.7546771E-02  0.1302088E+00
         -1   -1    0    0    0  501 -0.00000000000E+00  0.00000000000E+00  0.32797900686E+01  0.32797900686E+01  0.00000000000E+00 0.  1.
          1   -1    0    0  501    0  0.00000000000E+00 -0.00000000000E+00 -0.62176067182E+03  0.62176067182E+03  0.00000000000E+00 0. -1.
         23    2    1    2    0    0  0.00000000000E+00  0.00000000000E+00 -0.61848088175E+03  0.62504046189E+03  0.90315989204E+02 0.  0.
          2    1    3    3  502    0  0.18653766825E+02  0.39339940545E+02 -0.39218675978E+03  0.39459605736E+03  0.00000000000E+00 0. -1.
         -2    1    3    3    0  502 -0.18653766825E+02 -0.39339940545E+02 -0.22629412197E+03  0.23044440453E+03  0.00000000000E+00 0.  1.
<mgrwt>
<rscale>  0 0.90315989E+02</rscale>
<asrwt>0</asrwt>
<pdfrwt beam="2">  1        1 0.95655474E-01 0.90315989E+02</pdfrwt>
<pdfrwt beam="1">  1       -1 0.50458316E-03 0.90315989E+02</pdfrwt>
<totfact> 0.14545747E+05</totfact>
</mgrwt>
</event>
<event>
 5    1  0.3854342E+001  0.9173464E+02  0.7546771E-02  0.1298705E+00
         -1   -1    0    0    0  501 -0.00000000000E+00  0.00000000000E+00  0.32078801758E+02  0.32078801758E+02  0.00000000000E+00 0.  1.
          1   -1    0    0  501    0  0.00000000000E+00 -0.00000000000E+00 -0.65582599870E+02  0.65582599870E+02  0.00000000000E+00 0. -1.
         23    2    1    2    0    0  0.00000000000E+00  0.00000000000E+00 -0.33503798112E+02  0.97661401628E+02  0.91734643838E+02 0.  0.
          2    1    3    3  502    0  0.33739377364E+01  0.45588163447E+02 -0.20756170930E+02  0.50204409508E+02  0.00000000000E+00 0. -1.
         -2    1    3    3    0  502 -0.33739377364E+01 -0.45588163447E+02 -0.12747627181E+02  0.47456992120E+02  0.00000000000E+00 0.  1.
<mgrwt>
<rscale>  0 0.91734644E+02</rscale>
<asrwt>0</asrwt>
<pdfrwt beam="2">  1        1 0.10089631E-01 0.91734644E+02</pdfrwt>
<pdfrwt beam="1">  1       -1 0.49352003E-02 0.91734644E+02</pdfrwt>
<totfact> 0.96048454E+04</totfact>
</mgrwt>
</event>
<event>
 5    1  0.3854342E+001  0.9254769E+02  0.7546771E-02  0.1296797E+00
         -2   -1    0    0    0  501 -0.00000000000E+00  0.00000000000E+00  0.19975313786E+01  0.19975313786E+01  0.00000000000E+00 0.  1.
          2   -1    0    0  501    0  0.00000000000E+00 -0.00000000000E+00 -0.10719575598E+04  0.10719575598E+04  0.00000000000E+00 0. -1.
         23    2    1    2    0    0  0.00000000000E+00  0.00000000000E+00 -0.10699600284E+04  0.10739550912E+04  0.92547692833E+02 0.  0.
          2    1    3    3  502    0  0.10436128047E+02  0.33433903189E+02 -0.88590925194E+03  0.88660134295E+03  0.00000000000E+00 0. -1.
         -2    1    3    3    0  502 -0.10436128047E+02 -0.33433903189E+02 -0.18405077646E+03  0.18735374820E+03  0.00000000000E+00 0.  1.
<mgrwt>
<rscale>  0 0.92547693E+02</rscale>
<asrwt>0</asrwt>
<pdfrwt beam="2">  1        2 0.16491668E+00 0.92547693E+02</pdfrwt>
<pdfrwt beam="1">  1       -2 0.30731227E-03 0.92547693E+02</pdfrwt>
<totfact> 0.24066887E+05</totfact>
</mgrwt>
</event>
<event>
 5    1  0.3854342E+001  0.9100661E+02  0.7546771E-02  0.1300432E+00
         -4   -1    0    0    0  501 -0.00000000000E+00  0.00000000000E+00  0.12715399066E+02  0.12715399066E+02  0.00000000000E+00 0.  1.
          4   -1    0    0  501    0  0.00000000000E+00 -0.00000000000E+00 -0.16283806456E+03  0.16283806456E+03  0.00000000000E+00 0. -1.
         23    2    1    2    0    0  0.00000000000E+00  0.00000000000E+00 -0.15012266550E+03  0.17555346363E+03  0.91006614575E+02 0.  0.
          2    1    3    3  502    0  0.17159245818E+02  0.36184324523E+02 -0.11673911670E+03  0.12341704269E+03  0.00000000000E+00 0. -1.
         -2    1    3    3    0  502 -0.17159245818E+02 -0.36184324523E+02 -0.33383548800E+02  0.52136420943E+02  0.00000000000E+00 0.  1.
<mgrwt>
<rscale>  0 0.91006615E+02</rscale>
<asrwt>0</asrwt>
<pdfrwt beam="2">  1        4 0.25052008E-01 0.91006615E+02</pdfrwt>
<pdfrwt beam="1">  1       -4 0.19562154E-02 0.91006615E+02</pdfrwt>
<totfact> 0.22565147E+04</totfact>
</mgrwt>
</event>
<event>
 5    1  0.3854342E+001  0.8947148E+02  0.7546771E-02  0.1304137E+00
         -1   -1    0    0    0  501 -0.00000000000E+00  0.00000000000E+00  0.14426721871E+03  0.14426721871E+03  0.00000000000E+00 0.  1.
          1   -1    0    0  501    0  0.00000000000E+00 -0.00000000000E+00 -0.13872079567E+02  0.13872079567E+02  0.00000000000E+00 0. -1.
         23    2    1    2    0    0  0.00000000000E+00  0.00000000000E+00  0.13039513915E+03  0.15813929828E+03  0.89471477842E+02 0.  0.
          2    1    3    3  502    0  0.33944387769E+02  0.27857655088E+02  0.50094542405E+02  0.66616316220E+02  0.00000000000E+00 0. -1.
         -2    1    3    3    0  502 -0.33944387769E+02 -0.27857655088E+02  0.80300596740E+02  0.91522982058E+02  0.00000000000E+00 0.  1.
<mgrwt>
<rscale>  0 0.89471478E+02</rscale>
<asrwt>0</asrwt>
<pdfrwt beam="2">  1        1 0.21341662E-02 0.89471478E+02</pdfrwt>
<pdfrwt beam="1">  1       -1 0.22194956E-01 0.89471478E+02</pdfrwt>
<totfact> 0.79248696E+04</totfact>
</mgrwt>
</event>
<event>
 5    1  0.3854342E+001  0.8965538E+02  0.7546771E-02  0.1303688E+00
         -2   -1    0    0    0  501 -0.00000000000E+00  0.00000000000E+00  0.64654786967E+01  0.64654786967E+01  0.00000000000E+00 0.  1.
          2   -1    0    0  501    0  0.00000000000E+00 -0.00000000000E+00 -0.31080791661E+03  0.31080791661E+03  0.00000000000E+00 0. -1.
         23    2    1    2    0    0  0.00000000000E+00  0.00000000000E+00 -0.30434243791E+03  0.31727339531E+03  0.89655383856E+02 0.  0.
          2    1    3    3  502    0  0.29859209621E+02  0.33126913329E+02 -0.13612624459E+03  0.14324566050E+03  0.00000000000E+00 0. -1.
         -2    1    3    3    0  502 -0.29859209621E+02 -0.33126913329E+02 -0.16821619332E+03  0.17402773480E+03  0.00000000000E+00 0.  1.
<mgrwt>
<rscale>  0 0.89655384E+02</rscale>
<asrwt>0</asrwt>
<pdfrwt beam="2">  1        2 0.47816587E-01 0.89655384E+02</pdfrwt>
<pdfrwt beam="1">  1       -2 0.99468935E-03 0.89655384E+02</pdfrwt>
<totfact> 0.19038264E+05</totfact>
</mgrwt>
</event>
<event>
 5    1  0.3854342E+001  0.1081154E+03  0.7546771E-02  0.1264100E+00
         -1   -1    0    0    0  501 -0.00000000000E+00  0.00000000000E+00  0.39336982630E+01  0.39336982630E+01  0.00000000000E+00 0.  1.
          1   -1    0    0  501    0  0.00000000000E+00 -0.00000000000E+00 -0.74287170993E+03  0.74287170993E+03  0.00000000000E+00 0. -1.
         23    2    1    2    0    0  0.00000000000E+00  0.00000000000E+00 -0.73893801166E+03  0.74680540819E+03  0.10811536718E+03 0.  0.
          2    1    3    3  502    0 -0.11358921753E+02 -0.51190204913E+02 -0.46026264333E+03  0.46323985474E+03  0.00000000000E+00 0. -1.
         -2    1    3    3    0  502  0.11358921753E+02  0.51190204913E+02 -0.27867536834E+03  0.28356555345E+03  0.00000000000E+00 0.  1.
<mgrwt>
<rscale>  0 0.10811537E+03</rscale>
<asrwt>0</asrwt>
<pdfrwt beam="2">  1        1 0.11428790E+00 0.10811537E+03</pdfrwt>
<pdfrwt beam="1">  1       -1 0.60518464E-03 0.10811537E+03</pdfrwt>
<totfact> 0.90134800E+04</totfact>
</mgrwt>
</event>
<event>
 5    1  0.3854342E+001  0.9054357E+02  0.7546771E-02  0.1301541E+00
         -1   -1    0    0    0  501 -0.00000000000E+00  0.00000000000E+00  0.10366990461E+01  0.10366990461E+01  0.00000000000E+00 0.  1.
          1   -1    0    0  501    0  0.00000000000E+00 -0.00000000000E+00 -0.19769812779E+04  0.19769812779E+04  0.00000000000E+00 0. -1.
         23    2    1    2    0    0  0.00000000000E+00  0.00000000000E+00 -0.19759445789E+04  0.19780179770E+04  0.90543571943E+02 0.  0.
          2    1    3    3  502    0  0.18547862621E+02  0.16971071219E+02 -0.18104672521E+04  0.18106417955E+04  0.00000000000E+00 0. -1.
         -2    1    3    3    0  502 -0.18547862621E+02 -0.16971071219E+02 -0.16547732675E+03  0.16737618151E+03  0.00000000000E+00 0.  1.
<mgrwt>
<rscale>  0 0.90543572E+02</rscale>
<asrwt>0</asrwt>
<pdfrwt beam="2">  1        1 0.30414879E+00 0.90543572E+02</pdfrwt>
<pdfrwt beam="1">  1       -1 0.15949330E-03 0.90543572E+02</pdfrwt>
<totfact> 0.82638294E+04</totfact>
</mgrwt>
</event>
<event>
 5    1  0.3854342E+001  0.9084246E+02  0.7546771E-02  0.1300824E+00
          2   -1    0    0  501    0  0.00000000000E+00  0.00000000000E+00  0.73856486629E+02  0.73856486629E+02  0.00000000000E+00 0.  1.
         -2   -1    0    0    0  501 -0.00000000000E+00 -0.00000000000E+00 -0.27933741722E+02  0.27933741722E+02  0.00000000000E+00 0. -1.
         23    2    1    2    0    0  0.00000000000E+00  0.00000000000E+00  0.45922744907E+02  0.10179022835E+03  0.90842457519E+02 0.  0.
          2    1    3    3  502    0  0.31772327253E+02 -0.27101874708E+02  0.29453563096E+01  0.41864872095E+02  0.00000000000E+00 0. -1.
         -2    1    3    3    0  502 -0.31772327253E+02  0.27101874708E+02  0.42977388597E+02  0.59925356256E+02  0.00000000000E+00 0.  1.
<mgrwt>
<rscale>  0 0.90842458E+02</rscale>
<asrwt>0</asrwt>
<pdfrwt beam="1">  1        2 0.11362536E-01 0.90842458E+02</pdfrwt>
<pdfrwt beam="2">  1       -2 0.42974987E-02 0.90842458E+02</pdfrwt>
<totfact> 0.11344232E+05</totfact>
</mgrwt>
</event>
<event>
 5    1  0.3854342E+001  0.9094287E+02  0.7546771E-02  0.1300584E+00
         -3   -1    0    0    0  501 -0.00000000000E+00  0.00000000000E+00  0.43857251143E+01  0.43857251143E+01  0.00000000000E+00 0.  1.
          3   -1    0    0  501    0  0.00000000000E+00 -0.00000000000E+00 -0.47145027553E+03  0.47145027553E+03  0.00000000000E+00 0. -1.
         23    2    1    2    0    0  0.00000000000E+00  0.00000000000E+00 -0.46706455042E+03  0.47583600064E+03  0.90942868078E+02 0.  0.
          2    1    3    3  502    0  0.43124606349E+02 -0.30366267058E+01 -0.30728634452E+03  0.31031250426E+03  0.00000000000E+00 0. -1.
         -2    1    3    3    0  502 -0.43124606349E+02  0.30366267058E+01 -0.15977820590E+03  0.16552349638E+03  0.00000000000E+00 0.  1.
<mgrwt>
<rscale>  0 0.90942868E+02</rscale>
<asrwt>0</asrwt>
<pdfrwt beam="2">  1        3 0.72530797E-01 0.90942868E+02</pdfrwt>
<pdfrwt beam="1">  1       -3 0.67472707E-03 0.90942868E+02</pdfrwt>
<totfact> 0.18639399E+04</totfact>
</mgrwt>
</event>
<event>
 5    1  0.3854342E+001  0.8891738E+02  0.7546771E-02  0.1305495E+00
         -1   -1    0    0    0  501 -0.00000000000E+00  0.00000000000E+00  0.35457285382E+01  0.35457285382E+01  0.00000000000E+00 0.  1.
          1   -1    0    0  501    0  0.00000000000E+00 -0.00000000000E+00 -0.55745246512E+03  0.55745246512E+03  0.00000000000E+00 0. -1.
         23    2    1    2    0    0  0.00000000000E+00  0.00000000000E+00 -0.55390673658E+03  0.56099819366E+03  0.88917379950E+02 0.  0.
          2    1    3    3  502    0 -0.31019449177E+02 -0.22980536291E+02 -0.41608016719E+03  0.41786722390E+03  0.00000000000E+00 0. -1.
         -2    1    3    3    0  502  0.31019449177E+02  0.22980536291E+02 -0.13782656939E+03  0.14313096976E+03  0.00000000000E+00 0.  1.
<mgrwt>
<rscale>  0 0.88917380E+02</rscale>
<asrwt>0</asrwt>
<pdfrwt beam="2">  1        1 0.85761812E-01 0.88917380E+02</pdfrwt>
<pdfrwt beam="1">  1       -1 0.54549737E-03 0.88917380E+02</pdfrwt>
<totfact> 0.15048761E+05</totfact>
</mgrwt>
</event>
<event>
 5    1  0.3854342E+001  0.9066461E+02  0.7546771E-02  0.1301250E+00
         -2   -1    0    0    0  501 -0.00000000000E+00  0.00000000000E+00  0.42843274833E+02  0.42843274833E+02  0.00000000000E+00 0.  1.
          2   -1    0    0  501    0  0.00000000000E+00 -0.00000000000E+00 -0.47965942684E+02  0.47965942684E+02  0.00000000000E+00 0. -1.
         23    2    1    2    0    0  0.00000000000E+00  0.00000000000E+00 -0.51226678516E+01  0.90809217517E+02  0.90664614156E+02 0.  0.
          2    1    3    3  502    0  0.42236285973E+02  0.90867335410E+01 -0.16314420767E+02  0.46180438545E+02  0.00000000000E+00 0. -1.
         -2    1    3    3    0  502 -0.42236285973E+02 -0.90867335410E+01  0.11191752915E+02  0.44628778972E+02  0.00000000000E+00 0.  1.
<mgrwt>
<rscale>  0 0.90664614E+02</rscale>
<asrwt>0</asrwt>
<pdfrwt beam="2">  1        2 0.73793758E-02 0.90664614E+02</pdfrwt>
<pdfrwt beam="1">  1       -2 0.65912731E-02 0.90664614E+02</pdfrwt>
<totfact> 0.10160999E+05</totfact>
</mgrwt>
</event>
<event>
 5    1  0.3854342E+001  0.9149878E+02  0.7546771E-02  0.1299262E+00
          1   -1    0    0  501    0  0.00000000000E+00  0.00000000000E+00  0.66826318550E+03  0.66826318550E+03  0.00000000000E+00 0. -1.
         -1   -1    0    0    0  501 -0.00000000000E+00 -0.00000000000E+00 -0.31320094915E+01  0.31320094915E+01  0.00000000000E+00 0.  1.
         23    2    1    2    0    0  0.00000000000E+00  0.00000000000E+00  0.66513117601E+03  0.67139519499E+03  0.91498779004E+02 0.  0.
          2    1    3    3  502    0  0.40648608814E+02  0.28577677138E+01  0.48517146219E+03  0.48687968119E+03  0.00000000000E+00 0. -1.
         -2    1    3    3    0  502 -0.40648608814E+02 -0.28577677138E+01  0.17995971382E+03  0.18451551380E+03  0.00000000000E+00 0.  1.
<mgrwt>
<rscale>  0 0.91498779E+02</rscale>
<asrwt>0</asrwt>
<pdfrwt beam="1">  1        1 0.10280961E+00 0.91498779E+02</pdfrwt>
<pdfrwt beam="2">  1       -1 0.48184815E-03 0.91498779E+02</pdfrwt>
<totfact> 0.14084019E+05</totfact>
</mgrwt>
</event>
<event>
 5    1  0.3854342E+001  0.8939423E+02  0.7546771E-02  0.1304325E+00
         -1   -1    0    0    0  501 -0.00000000000E+00  0.00000000000E+00  0.15004965118E+01  0.15004965118E+01  0.00000000000E+00 0.  1.
          1   -1    0    0  501    0  0.00000000000E+00 -0.00000000000E+00 -0.13314474349E+04  0.13314474349E+04  0.00000000000E+00 0. -1.
         23    2    1    2    0    0  0.00000000000E+00  0.00000000000E+00 -0.13299469384E+04  0.13329479314E+04  0.89394233186E+02 0.  0.
          2    1    3    3  502    0 -0.19038527326E+02  0.20142320355E+02 -0.11878451027E+04  0.11881684084E+04  0.00000000000E+00 0. -1.
         -2    1    3    3    0  502  0.19038527326E+02 -0.20142320355E+02 -0.14210183566E+03  0.14477952304E+03  0.00000000000E+00 0.  1.
<mgrwt>
<rscale>  0 0.89394233E+02</rscale>
<asrwt>0</asrwt>
<pdfrwt beam="2">  1        1 0.20483862E+00 0.89394233E+02</pdfrwt>
<pdfrwt beam="1">  1       -1 0.23084500E-03 0.89394233E+02</pdfrwt>
<totfact> 0.12678324E+05</totfact>
</mgrwt>
</event>
<event>
 5    1  0.3854342E+001  0.9143976E+02  0.7546771E-02  0.1299402E+00
         -2   -1    0    0    0  501 -0.00000000000E+00  0.00000000000E+00  0.21928802544E+02  0.21928802544E+02  0.00000000000E+00 0.  1.
          2   -1    0    0  501    0  0.00000000000E+00 -0.00000000000E+00 -0.95322464656E+02  0.95322464656E+02  0.00000000000E+00 0. -1.
         23    2    1    2    0    0  0.00000000000E+00  0.00000000000E+00 -0.73393662112E+02  0.11725126720E+03  0.91439761712E+02 0.  0.
          2    1    3    3  502    0  0.27526842998E+01 -0.45362402870E+02 -0.43105998661E+02  0.62637464712E+02  0.00000000000E+00 0. -1.
         -2    1    3    3    0  502 -0.27526842998E+01  0.45362402870E+02 -0.30287663451E+02  0.54613802489E+02  0.00000000000E+00 0.  1.
<mgrwt>
<rscale>  0 0.91439762E+02</rscale>
<asrwt>0</asrwt>
<pdfrwt beam="2">  1        2 0.14664995E-01 0.91439762E+02</pdfrwt>
<pdfrwt beam="1">  1       -2 0.33736619E-02 0.91439762E+02</pdfrwt>
<totfact> 0.11995378E+05</totfact>
</mgrwt>
</event>
<event>
 5    1  0.3854342E+001  0.9217391E+02  0.7546771E-02  0.1297671E+00
         -1   -1    0    0    0  501 -0.00000000000E+00  0.00000000000E+00  0.34486096986E+01  0.34486096986E+01  0.00000000000E+00 0.  1.
          1   -1    0    0  501    0  0.00000000000E+00 -0.00000000000E+00 -0.61590251724E+03  0.61590251724E+03  0.00000000000E+00 0. -1.
         23    2    1    2    0    0  0.00000000000E+00  0.00000000000E+00 -0.61245390754E+03  0.61935112694E+03  0.92173909418E+02 0.  0.
          2    1    3    3  502    0 -0.23959700626E+02  0.18004640544E+02 -0.54147929828E+03  0.54230809030E+03  0.00000000000E+00 0. -1.
         -2    1    3    3    0  502  0.23959700626E+02 -0.18004640544E+02 -0.70974609258E+02  0.77043036639E+02  0.00000000000E+00 0.  1.
<mgrwt>
<rscale>  0 0.92173909E+02</rscale>
<asrwt>0</asrwt>
<pdfrwt beam="2">  1        1 0.94754248E-01 0.92173909E+02</pdfrwt>
<pdfrwt beam="1">  1       -1 0.53055526E-03 0.92173909E+02</pdfrwt>
<totfact> 0.13776383E+05</totfact>
</mgrwt>
</event>
<event>
 5    1  0.3854342E+001  0.8574477E+02  0.7546771E-02  0.1313496E+00
          1   -1    0    0  501    0  0.00000000000E+00  0.00000000000E+00  0.21606115980E+02  0.21606115980E+02  0.00000000000E+00 0. -1.
         -1   -1    0    0    0  501 -0.00000000000E+00 -0.00000000000E+00 -0.85070430924E+02  0.85070430924E+02  0.00000000000E+00 0.  1.
         23    2    1    2    0    0  0.00000000000E+00  0.00000000000E+00 -0.63464314943E+02  0.10667654690E+03  0.85744774699E+02 0.  0.
          2    1    3    3  502    0 -0.39303873826E+02 -0.30165986124E+01 -0.10760488177E+02  0.40861748258E+02  0.00000000000E+00 0. -1.
         -2    1    3    3    0  502  0.39303873826E+02  0.30165986124E+01 -0.52703826767E+02  0.65814798646E+02  0.00000000000E+00 0.  1.
<mgrwt>
<rscale>  0 0.85744775E+02</rscale>
<asrwt>0</asrwt>
<pdfrwt beam="1">  1        1 0.33240178E-02 0.85744775E+02</pdfrwt>
<pdfrwt beam="2">  1       -1 0.13087759E-01 0.85744775E+02</pdfrwt>
<totfact> 0.98030266E+04</totfact>
</mgrwt>
</event>
<event>
 5    1  0.3854342E+001  0.9069871E+02  0.7546771E-02  0.1301168E+00
          1   -1    0    0  501    0  0.00000000000E+00  0.00000000000E+00  0.92570747185E+01  0.92570747185E+01  0.00000000000E+00 0. -1.
         -1   -1    0    0    0  501 -0.00000000000E+00 -0.00000000000E+00 -0.22216132019E+03  0.22216132019E+03  0.00000000000E+00 0.  1.
         23    2    1    2    0    0  0.00000000000E+00  0.00000000000E+00 -0.21290424548E+03  0.23141839491E+03  0.90698708714E+02 0.  0.
          2    1    3    3  502    0 -0.13689069137E+02 -0.33091755991E+02 -0.35462015078E+02  0.50398506345E+02  0.00000000000E+00 0. -1.
         -2    1    3    3    0  502  0.13689069137E+02  0.33091755991E+02 -0.17744223040E+03  0.18101988857E+03  0.00000000000E+00 0.  1.
<mgrwt>
<rscale>  0 0.90698709E+02</rscale>
<asrwt>0</asrwt>
<pdfrwt beam="1">  1        1 0.14241653E-02 0.90698709E+02</pdfrwt>
<pdfrwt beam="2">  1       -1 0.34178665E-01 0.90698709E+02</pdfrwt>
<totfact> 0.68216971E+04</totfact>
</mgrwt>
</event>
<event>
 5    1  0.3854342E+001  0.7538921E+02  0.7546771E-02  0.1342670E+00
          2   -1    0    0  501    0  0.00000000000E+00  0.00000000000E+00  0.42513382667E+03  0.42513382667E+03  0.00000000000E+00 0. -1.
         -2   -1    0    0    0  501 -0.00000000000E+00 -0.00000000000E+00 -0.33422025800E+01  0.33422025800E+01  0.00000000000E+00 0.  1.
         23    2    1    2    0    0  0.00000000000E+00  0.00000000000E+00  0.42179162409E+03  0.42847602925E+03  0.75389213348E+02 0.  0.
          2    1    3    3  502    0  0.23923181366E+02 -0.20432003571E+02  0.32890214662E+03  0.33040340106E+03  0.00000000000E+00 0. -1.
         -2    1    3    3    0  502 -0.23923181366E+02  0.20432003571E+02  0.92889477464E+02  0.98072628190E+02  0.00000000000E+00 0.  1.
<mgrwt>
<rscale>  0 0.75389213E+02</rscale>
<asrwt>0</asrwt>
<pdfrwt beam="1">  1        2 0.65405161E-01 0.75389213E+02</pdfrwt>
<pdfrwt beam="2">  1       -2 0.51418535E-03 0.75389213E+02</pdfrwt>
<totfact> 0.33604030E+05</totfact>
</mgrwt>
</event>
<event>
 5    1  0.3854342E+001  0.9227925E+02  0.7546771E-02  0.1297424E+00
         -1   -1    0    0    0  501 -0.00000000000E+00  0.00000000000E+00  0.14792862612E+02  0.14792862612E+02  0.00000000000E+00 0.  1.
          1   -1    0    0  501    0  0.00000000000E+00 -0.00000000000E+00 -0.14391164425E+03  0.14391164425E+03  0.00000000000E+00 0. -1.
         23    2    1    2    0    0  0.00000000000E+00  0.00000000000E+00 -0.12911878164E+03  0.15870450686E+03  0.92279254043E+02 0.  0.
          2    1    3    3  502    0  0.33088810206E+02  0.32021016912E+02 -0.69617645453E+02  0.83467547246E+02  0.00000000000E+00 0. -1.
         -2    1    3    3    0  502 -0.33088810206E+02 -0.32021016912E+02 -0.59501136185E+02  0.75236959616E+02  0.00000000000E+00 0.  1.
<mgrwt>
<rscale>  0 0.92279254E+02</rscale>
<asrwt>0</asrwt>
<pdfrwt beam="2">  1        1 0.22140253E-01 0.92279254E+02</pdfrwt>
<pdfrwt beam="1">  1       -1 0.22758250E-02 0.92279254E+02</pdfrwt>
<totfact> 0.10772647E+05</totfact>
</mgrwt>
</event>
<event>
 5    1  0.3854342E+001  0.8019184E+02  0.7546771E-02  0.1328508E+00
          3   -1    0    0  501    0  0.00000000000E+00  0.00000000000E+00  0.16316632684E+03  0.16316632684E+03  0.00000000000E+00 0. -1.
         -3   -1    0    0    0  501 -0.00000000000E+00 -0.00000000000E+00 -0.98530297367E+01  0.98530297367E+01  0.00000000000E+00 0.  1.
         23    2    1    2    0    0  0.00000000000E+00  0.00000000000E+00  0.15331329710E+03  0.17301935658E+03  0.80191836752E+02 0.  0.
          2    1    3    3  502    0 -0.30897333791E+02  0.11383961757E+02  0.12601937824E+03  0.13025023422E+03  0.00000000000E+00 0. -1.
         -2    1    3    3    0  502  0.30897333791E+02 -0.11383961757E+02  0.27293918860E+02  0.42769122360E+02  0.00000000000E+00 0.  1.
<mgrwt>
<rscale>  0 0.80191837E+02</rscale>
<asrwt>0</asrwt>
<pdfrwt beam="1">  1        3 0.25102510E-01 0.80191837E+02</pdfrwt>
<pdfrwt beam="2">  1       -3 0.15158508E-02 0.80191837E+02</pdfrwt>
<totfact> 0.42255489E+04</totfact>
</mgrwt>
</event>
<event>
 5    1  0.3854342E+001  0.8040423E+02  0.7546771E-02  0.1327908E+00
         -1   -1    0    0    0  501 -0.00000000000E+00  0.00000000000E+00  0.13731578640E+02  0.13731578640E+02  0.00000000000E+00 0.  1.
          1   -1    0    0  501    0  0.00000000000E+00 -0.00000000000E+00 -0.11770024539E+03  0.11770024539E+03  0.00000000000E+00 0. -1.
         23    2    1    2    0    0  0.00000000000E+00  0.00000000000E+00 -0.10396866675E+03  0.13143182403E+03  0.80404233109E+02 0.  0.
          2    1    3    3  502    0  0.25231557932E+02 -0.83921886740E+01 -0.10127212410E+03  0.10470483975E+03  0.00000000000E+00 0. -1.
         -2    1    3    3    0  502 -0.25231557932E+02  0.83921886740E+01 -0.26965426450E+01  0.26726984279E+02  0.00000000000E+00 0.  1.
<mgrwt>
<rscale>  0 0.80404233E+02</rscale>
<asrwt>0</asrwt>
<pdfrwt beam="2">  1        1 0.18107729E-01 0.80404233E+02</pdfrwt>
<pdfrwt beam="1">  1       -1 0.21125506E-02 0.80404233E+02</pdfrwt>
<totfact> 0.15061502E+05</totfact>
</mgrwt>
</event>
<event>
 5    1  0.3854342E+001  0.9192338E+02  0.7546771E-02  0.1298260E+00
          1   -1    0    0  501    0  0.00000000000E+00  0.00000000000E+00  0.47721243855E+02  0.47721243855E+02  0.00000000000E+00 0. -1.
         -1   -1    0    0    0  501 -0.00000000000E+00 -0.00000000000E+00 -0.44267017690E+02  0.44267017690E+02  0.00000000000E+00 0.  1.
         23    2    1    2    0    0  0.00000000000E+00  0.00000000000E+00  0.34542261643E+01  0.91988261545E+02  0.91923384314E+02 0.  0.
          2    1    3    3  502    0 -0.43352910397E+02  0.14907935541E+02 -0.15547997118E+01  0.45870892559E+02  0.00000000000E+00 0.  1.
         -2    1    3    3    0  502  0.43352910397E+02 -0.14907935541E+02  0.50090258761E+01  0.46117368986E+02  0.00000000000E+00 0. -1.
<mgrwt>
<rscale>  0 0.91923384E+02</rscale>
<asrwt>0</asrwt>
<pdfrwt beam="1">  1        1 0.73417299E-02 0.91923384E+02</pdfrwt>
<pdfrwt beam="2">  1       -1 0.68103104E-02 0.91923384E+02</pdfrwt>
<totfact> 0.91003620E+04</totfact>
</mgrwt>
</event>
<event>
 5    1  0.3854342E+001  0.9140529E+02  0.7546771E-02  0.1299484E+00
         -2   -1    0    0    0  501 -0.00000000000E+00  0.00000000000E+00  0.11627904829E+01  0.11627904829E+01  0.00000000000E+00 0.  1.
          2   -1    0    0  501    0  0.00000000000E+00 -0.00000000000E+00 -0.17963096769E+04  0.17963096769E+04  0.00000000000E+00 0. -1.
         23    2    1    2    0    0  0.00000000000E+00  0.00000000000E+00 -0.17951468864E+04  0.17974724674E+04  0.91405290804E+02 0.  0.
          2    1    3    3  502    0 -0.34431576291E+00  0.45565778216E+02 -0.82840147136E+03  0.82965375696E+03  0.00000000000E+00 0. -1.
         -2    1    3    3    0  502  0.34431576291E+00 -0.45565778216E+02 -0.96674541509E+03  0.96781871045E+03  0.00000000000E+00 0.  1.
<mgrwt>
<rscale>  0 0.91405291E+02</rscale>
<asrwt>0</asrwt>
<pdfrwt beam="2">  1        2 0.27635422E+00 0.91405291E+02</pdfrwt>
<pdfrwt beam="1">  1       -2 0.17889156E-03 0.91405291E+02</pdfrwt>
<totfact> 0.21322279E+05</totfact>
</mgrwt>
</event>
<event>
 5    1  0.3854342E+001  0.8347532E+02  0.7546771E-02  0.1319469E+00
          1   -1    0    0  501    0  0.00000000000E+00  0.00000000000E+00  0.33868885610E+01  0.33868885610E+01  0.00000000000E+00 0. -1.
         -1   -1    0    0    0  501 -0.00000000000E+00 -0.00000000000E+00 -0.51434592407E+03  0.51434592407E+03  0.00000000000E+00 0.  1.
         23    2    1    2    0    0  0.00000000000E+00  0.00000000000E+00 -0.51095903551E+03  0.51773281263E+03  0.83475321541E+02 0.  0.
          2    1    3    3  502    0  0.34787406045E+02  0.21120455303E+02 -0.19803100778E+03  0.20216952613E+03  0.00000000000E+00 0. -1.
         -2    1    3    3    0  502 -0.34787406045E+02 -0.21120455303E+02 -0.31292802773E+03  0.31556328650E+03  0.00000000000E+00 0.  1.
<mgrwt>
<rscale>  0 0.83475322E+02</rscale>
<asrwt>0</asrwt>
<pdfrwt beam="1">  1        1 0.52106013E-03 0.83475322E+02</pdfrwt>
<pdfrwt beam="2">  1       -1 0.79130089E-01 0.83475322E+02</pdfrwt>
<totfact> 0.58207634E+04</totfact>
</mgrwt>
</event>
<event>
 5    1  0.3854342E+001  0.9131810E+02  0.7546771E-02  0.1299691E+00
         -1   -1    0    0    0  501 -0.00000000000E+00  0.00000000000E+00  0.30487573970E+03  0.30487573970E+03  0.00000000000E+00 0.  1.
          1   -1    0    0  501    0  0.00000000000E+00 -0.00000000000E+00 -0.68380275690E+01  0.68380275690E+01  0.00000000000E+00 0. -1.
         23    2    1    2    0    0  0.00000000000E+00  0.00000000000E+00  0.29803771214E+03  0.31171376727E+03  0.91318097072E+02 0.  0.
          2    1    3    3  502    0 -0.29550941979E+02  0.47197041654E+00  0.30218097285E+02  0.42268360880E+02  0.00000000000E+00 0. -1.
         -2    1    3    3    0  502  0.29550941979E+02 -0.47197041654E+00  0.26781961485E+03  0.26944540639E+03  0.00000000000E+00 0.  1.
<mgrwt>
<rscale>  0 0.91318097E+02</rscale>
<asrwt>0</asrwt>
<pdfrwt beam="2">  1        1 0.10520045E-02 0.91318097E+02</pdfrwt>
<pdfrwt beam="1">  1       -1 0.46903949E-01 0.91318097E+02</pdfrwt>
<totfact> 0.59957042E+04</totfact>
</mgrwt>
</event>
<event>
 5    1  0.3854342E+001  0.9175787E+02  0.7546771E-02  0.1298650E+00
          1   -1    0    0  501    0  0.00000000000E+00  0.00000000000E+00  0.42574355177E+03  0.42574355177E+03  0.00000000000E+00 0. -1.
         -1   -1    0    0    0  501 -0.00000000000E+00 -0.00000000000E+00 -0.49440008122E+01  0.49440008122E+01  0.00000000000E+00 0.  1.
         23    2    1    2    0    0  0.00000000000E+00  0.00000000000E+00  0.42079955096E+03  0.43068755258E+03  0.91757865401E+02 0.  0.
          2    1    3    3  502    0  0.27205652727E+02  0.29258738967E+01  0.38325232703E+03  0.38422786787E+03  0.00000000000E+00 0. -1.
         -2    1    3    3    0  502 -0.27205652727E+02 -0.29258738967E+01  0.37547223931E+02  0.46459684709E+02  0.00000000000E+00 0.  1.
<mgrwt>
<rscale>  0 0.91757865E+02</rscale>
<asrwt>0</asrwt>
<pdfrwt beam="1">  1        1 0.65498979E-01 0.91757865E+02</pdfrwt>
<pdfrwt beam="2">  1       -1 0.76061584E-03 0.91757865E+02</pdfrwt>
<totfact> 0.13395475E+05</totfact>
</mgrwt>
</event>
<event>
 5    1  0.3854342E+001  0.9205520E+02  0.7546771E-02  0.1297950E+00
          2   -1    0    0  501    0  0.00000000000E+00  0.00000000000E+00  0.96636245422E+03  0.96636245422E+03  0.00000000000E+00 0. -1.
         -2   -1    0    0    0  501 -0.00000000000E+00 -0.00000000000E+00 -0.21922830737E+01  0.21922830737E+01  0.00000000000E+00 0.  1.
         23    2    1    2    0    0  0.00000000000E+00  0.00000000000E+00  0.96417017114E+03  0.96855473729E+03  0.92055201948E+02 0.  0.
          2    1    3    3  502    0  0.21064369394E+02 -0.29666402366E+02  0.18547388888E+03  0.18900890599E+03  0.00000000000E+00 0.  1.
         -2    1    3    3    0  502 -0.21064369394E+02  0.29666402366E+02  0.77869628227E+03  0.77954583130E+03  0.00000000000E+00 0. -1.
<mgrwt>
<rscale>  0 0.92055202E+02</rscale>
<asrwt>0</asrwt>
<pdfrwt beam="1">  1        2 0.14867081E+00 0.92055202E+02</pdfrwt>
<pdfrwt beam="2">  1       -2 0.33727509E-03 0.92055202E+02</pdfrwt>
<totfact> 0.24331537E+05</totfact>
</mgrwt>
</event>
<event>
 5    1  0.3854342E+001  0.9046212E+02  0.7546771E-02  0.1301736E+00
         -1   -1    0    0    0  501 -0.00000000000E+00  0.00000000000E+00  0.16886687659E+01  0.16886687659E+01  0.00000000000E+00 0.  1.
          1   -1    0    0  501    0  0.00000000000E+00 -0.00000000000E+00 -0.12115158543E+04  0.12115158543E+04  0.00000000000E+00 0. -1.
         23    2    1    2    0    0  0.00000000000E+00  0.00000000000E+00 -0.12098271855E+04  0.12132045231E+04  0.90462124285E+02 0.  0.
          2    1    3    3  502    0  0.24794369002E+02 -0.36605236976E+02 -0.73294996605E+03  0.73428220518E+03  0.00000000000E+00 0. -1.
         -2    1    3    3    0  502 -0.24794369002E+02  0.36605236976E+02 -0.47687721950E+03  0.47892231790E+03  0.00000000000E+00 0.  1.
<mgrwt>
<rscale>  0 0.90462124E+02</rscale>
<asrwt>0</asrwt>
<pdfrwt beam="2">  1        1 0.18638719E+00 0.90462124E+02</pdfrwt>
<pdfrwt beam="1">  1       -1 0.25979501E-03 0.90462124E+02</pdfrwt>
<totfact> 0.12938830E+05</totfact>
</mgrwt>
</event>
<event>
 5    1  0.3854342E+001  0.8995915E+02  0.7546771E-02  0.1302951E+00
          2   -1    0    0  501    0  0.00000000000E+00  0.00000000000E+00  0.10191380792E+04  0.10191380792E+04  0.00000000000E+00 0. -1.
         -2   -1    0    0    0  501 -0.00000000000E+00 -0.00000000000E+00 -0.19851697102E+01  0.19851697102E+01  0.00000000000E+00 0.  1.
         23    2    1    2    0    0  0.00000000000E+00  0.00000000000E+00  0.10171529095E+04  0.10211232489E+04  0.89959147293E+02 0.  0.
          2    1    3    3  502    0  0.25882606525E+02  0.25659384031E+02  0.80778774030E+03  0.80860951434E+03  0.00000000000E+00 0. -1.
         -2    1    3    3    0  502 -0.25882606525E+02 -0.25659384031E+02  0.20936516922E+03  0.21251373459E+03  0.00000000000E+00 0.  1.
<mgrwt>
<rscale>  0 0.89959147E+02</rscale>
<asrwt>0</asrwt>
<pdfrwt beam="1">  1        2 0.15679006E+00 0.89959147E+02</pdfrwt>
<pdfrwt beam="2">  1       -2 0.30541154E-03 0.89959147E+02</pdfrwt>
<totfact> 0.25919660E+05</totfact>
</mgrwt>
</event>
<event>
 5    1  0.3854342E+001  0.9237948E+02  0.7546771E-02  0.1297190E+00
          2   -1    0    0  501    0  0.00000000000E+00  0.00000000000E+00  0.16064096514E+03  0.16064096514E+03  0.00000000000E+00 0. -1.
         -2   -1    0    0    0  501 -0.00000000000E+00 -0.00000000000E+00 -0.13281120732E+02  0.13281120732E+02  0.00000000000E+00 0.  1.
         23    2    1    2    0    0  0.00000000000E+00  0.00000000000E+00  0.14735984440E+03  0.17392208587E+03  0.92379479376E+02 0.  0.
          2    1    3    3  502    0  0.34600652607E+02 -0.15001115787E+02  0.12389005937E+03  0.12950283953E+03  0.00000000000E+00 0. -1.
         -2    1    3    3    0  502 -0.34600652607E+02  0.15001115787E+02  0.23469785036E+02  0.44419246339E+02  0.00000000000E+00 0.  1.
<mgrwt>
<rscale>  0 0.92379479E+02</rscale>
<asrwt>0</asrwt>
<pdfrwt beam="1">  1        2 0.24713993E-01 0.92379479E+02</pdfrwt>
<pdfrwt beam="2">  1       -2 0.20432495E-02 0.92379479E+02</pdfrwt>
<totfact> 0.13813460E+05</totfact>
</mgrwt>
</event>
<event>
 5    1  0.3854342E+001  0.9036601E+02  0.7546771E-02  0.1301968E+00
         -2   -1    0    0    0  501 -0.00000000000E+00  0.00000000000E+00  0.60686637156E+03  0.60686637156E+03  0.00000000000E+00 0.  1.
          2   -1    0    0  501    0  0.00000000000E+00 -0.00000000000E+00 -0.33640090672E+01  0.33640090672E+01  0.00000000000E+00 0. -1.
         23    2    1    2    0    0  0.00000000000E+00  0.00000000000E+00  0.60350236249E+03  0.61023038062E+03  0.90366010790E+02 0.  0.
          2    1    3    3  502    0  0.34164931676E+02  0.29555836029E+02  0.30745716786E+03  0.31075826629E+03  0.00000000000E+00 0.  1.
         -2    1    3    3    0  502 -0.34164931676E+02 -0.29555836029E+02  0.29604519463E+03  0.29947211433E+03  0.00000000000E+00 0. -1.
<mgrwt>
<rscale>  0 0.90366011E+02</rscale>
<asrwt>0</asrwt>
<pdfrwt beam="2">  1        2 0.51754034E-03 0.90366011E+02</pdfrwt>
<pdfrwt beam="1">  1       -2 0.93363970E-01 0.90366011E+02</pdfrwt>
<totfact> 0.31680786E+04</totfact>
</mgrwt>
</event>
<event>
 5    1  0.3854342E+001  0.9165842E+02  0.7546771E-02  0.1298885E+00
         -1   -1    0    0    0  501 -0.00000000000E+00  0.00000000000E+00  0.98529664614E+02  0.98529664614E+02  0.00000000000E+00 0.  1.
          1   -1    0    0  501    0  0.00000000000E+00 -0.00000000000E+00 -0.21316589322E+02  0.21316589322E+02  0.00000000000E+00 0. -1.
         23    2    1    2    0    0  0.00000000000E+00  0.00000000000E+00  0.77213075292E+02  0.11984625394E+03  0.91658417978E+02 0.  0.
          2    1    3    3  502    0  0.95353824145E+01 -0.23649592504E+02 -0.11184311571E+02  0.27844489019E+02  0.00000000000E+00 0. -1.
         -2    1    3    3    0  502 -0.95353824145E+01  0.23649592504E+02  0.88397386864E+02  0.92001764916E+02  0.00000000000E+00 0.  1.
<mgrwt>
<rscale>  0 0.91658418E+02</rscale>
<asrwt>0</asrwt>
<pdfrwt beam="2">  1        1 0.32794753E-02 0.91658418E+02</pdfrwt>
<pdfrwt beam="1">  1       -1 0.15158410E-01 0.91658418E+02</pdfrwt>
<totfact> 0.80494018E+04</totfact>
</mgrwt>
</event>
<event>
 5    1  0.3854342E+001  0.9052396E+02  0.7546771E-02  0.1301588E+00
          1   -1    0    0  501    0  0.00000000000E+00  0.00000000000E+00  0.55923744667E+01  0.55923744667E+01  0.00000000000E+00 0. -1.
         -1   -1    0    0    0  501 -0.00000000000E+00 -0.00000000000E+00 -0.36632862824E+03  0.36632862824E+03  0.00000000000E+00 0.  1.
         23    2    1    2    0    0  0.00000000000E+00  0.00000000000E+00 -0.36073625377E+03  0.37192100270E+03  0.90523960739E+02 0.  0.
          2    1    3    3  502    0  0.40715657811E+02 -0.15742070289E+02 -0.13122527217E+03  0.13829551556E+03  0.00000000000E+00 0. -1.
         -2    1    3    3    0  502 -0.40715657811E+02  0.15742070289E+02 -0.22951098160E+03  0.23362548715E+03  0.00000000000E+00 0.  1.
<mgrwt>
<rscale>  0 0.90523961E+02</rscale>
<asrwt>0</asrwt>
<pdfrwt beam="1">  1        1 0.86036504E-03 0.90523961E+02</pdfrwt>
<pdfrwt beam="2">  1       -1 0.56358268E-01 0.90523961E+02</pdfrwt>
<totfact> 0.56671862E+04</totfact>
</mgrwt>
</event>
<event>
 5    1  0.3854342E+001  0.9344768E+02  0.7546771E-02  0.1294711E+00
          1   -1    0    0  501    0  0.00000000000E+00  0.00000000000E+00  0.10427537354E+02  0.10427537354E+02  0.00000000000E+00 0. -1.
         -1   -1    0    0    0  501 -0.00000000000E+00 -0.00000000000E+00 -0.20936075007E+03  0.20936075007E+03  0.00000000000E+00 0.  1.
         23    2    1    2    0    0  0.00000000000E+00  0.00000000000E+00 -0.19893321272E+03  0.21978828742E+03  0.93447676095E+02 0.  0.
          2    1    3    3  502    0 -0.78842268210E+01  0.24272557249E+02 -0.74138225802E+01  0.26575982263E+02  0.00000000000E+00 0. -1.
         -2    1    3    3    0  502  0.78842268210E+01 -0.24272557249E+02 -0.19151939014E+03  0.19321230516E+03  0.00000000000E+00 0.  1.
<mgrwt>
<rscale>  0 0.93447676E+02</rscale>
<asrwt>0</asrwt>
<pdfrwt beam="1">  1        1 0.16042365E-02 0.93447676E+02</pdfrwt>
<pdfrwt beam="2">  1       -1 0.32209346E-01 0.93447676E+02</pdfrwt>
<totfact> 0.64245322E+04</totfact>
</mgrwt>
</event>
<event>
 5    1  0.3854342E+001  0.8937804E+02  0.7546771E-02  0.1304365E+00
          3   -1    0    0  501    0  0.00000000000E+00  0.00000000000E+00  0.49916169495E+02  0.49916169495E+02  0.00000000000E+00 0. -1.
         -3   -1    0    0    0  501 -0.00000000000E+00 -0.00000000000E+00 -0.40009246935E+02  0.40009246935E+02  0.00000000000E+00 0.  1.
         23    2    1    2    0    0  0.00000000000E+00  0.00000000000E+00  0.99069225595E+01  0.89925416430E+02  0.89378036483E+02 0.  0.
          2    1    3    3  502    0  0.41491767693E+02  0.10800077410E+02  0.17636211828E+02  0.46359944197E+02  0.00000000000E+00 0. -1.
         -2    1    3    3    0  502 -0.41491767693E+02 -0.10800077410E+02 -0.77292892682E+01  0.43565472233E+02  0.00000000000E+00 0.  1.
<mgrwt>
<rscale>  0 0.89378036E+02</rscale>
<asrwt>0</asrwt>
<pdfrwt beam="1">  1        3 0.76794107E-02 0.89378036E+02</pdfrwt>
<pdfrwt beam="2">  1       -3 0.61552688E-02 0.89378036E+02</pdfrwt>
<totfact> 0.37407516E+04</totfact>
</mgrwt>
</event>
<event>
 5    1  0.3854342E+001  0.9062978E+02  0.7546771E-02  0.1301334E+00
          1   -1    0    0  501    0  0.00000000000E+00  0.00000000000E+00  0.90560599329E+02  0.90560599329E+02  0.00000000000E+00 0. -1.
         -1   -1    0    0    0  501 -0.00000000000E+00 -0.00000000000E+00 -0.22674754526E+02  0.22674754526E+02  0.00000000000E+00 0.  1.
         23    2    1    2    0    0  0.00000000000E+00  0.00000000000E+00  0.67885844803E+02  0.11323535385E+03  0.90629782291E+02 0.  0.
          2    1    3    3  502    0  0.83378545759E+01  0.18216896577E+02  0.84726649062E+02  0.87063081735E+02  0.00000000000E+00 0. -1.
         -2    1    3    3    0  502 -0.83378545759E+01 -0.18216896577E+02 -0.16840804259E+02  0.26172272120E+02  0.00000000000E+00 0.  1.
<mgrwt>
<rscale>  0 0.90629782E+02</rscale>
<asrwt>0</asrwt>
<pdfrwt beam="1">  1        1 0.13932400E-01 0.90629782E+02</pdfrwt>
<pdfrwt beam="2">  1       -1 0.34884238E-02 0.90629782E+02</pdfrwt>
<totfact> 0.10446722E+05</totfact>
</mgrwt>
</event>
<event>
 5    1  0.3854342E+001  0.9663669E+02  0.7546771E-02  0.1287532E+00
         -2   -1    0    0    0  501 -0.00000000000E+00  0.00000000000E+00  0.48159346504E+01  0.48159346504E+01  0.00000000000E+00 0.  1.
          2   -1    0    0  501    0  0.00000000000E+00 -0.00000000000E+00 -0.48477869166E+03  0.48477869166E+03  0.00000000000E+00 0. -1.
         23    2    1    2    0    0  0.00000000000E+00  0.00000000000E+00 -0.47996275701E+03  0.48959462631E+03  0.96636690732E+02 0.  0.
          2    1    3    3  502    0 -0.32765031361E+02 -0.21260769073E+02 -0.95871308367E+02  0.10352234227E+03  0.00000000000E+00 0.  1.
         -2    1    3    3    0  502  0.32765031361E+02  0.21260769073E+02 -0.38409144864E+03  0.38607228403E+03  0.00000000000E+00 0. -1.
<mgrwt>
<rscale>  0 0.96636691E+02</rscale>
<asrwt>0</asrwt>
<pdfrwt beam="2">  1        2 0.74581345E-01 0.96636691E+02</pdfrwt>
<pdfrwt beam="1">  1       -2 0.74091295E-03 0.96636691E+02</pdfrwt>
<totfact> 0.18278349E+05</totfact>
</mgrwt>
</event>
<event>
 5    1  0.3854342E+001  0.9434477E+02  0.7546771E-02  0.1292659E+00
          2   -1    0    0  501    0  0.00000000000E+00  0.00000000000E+00  0.34072891572E+03  0.34072891572E+03  0.00000000000E+00 0.  1.
         -2   -1    0    0    0  501 -0.00000000000E+00 -0.00000000000E+00 -0.65308049101E+01  0.65308049101E+01  0.00000000000E+00 0. -1.
         23    2    1    2    0    0  0.00000000000E+00  0.00000000000E+00  0.33419811081E+03  0.34725972063E+03  0.94344773587E+02 0.  0.
          2    1    3    3  502    0  0.30272230757E+02 -0.25316366537E+01  0.34264342174E+02  0.45791508861E+02  0.00000000000E+00 0. -1.
         -2    1    3    3    0  502 -0.30272230757E+02  0.25316366537E+01  0.29993376863E+03  0.30146821177E+03  0.00000000000E+00 0.  1.
<mgrwt>
<rscale>  0 0.94344774E+02</rscale>
<asrwt>0</asrwt>
<pdfrwt beam="1">  1        2 0.52419819E-01 0.94344774E+02</pdfrwt>
<pdfrwt beam="2">  1       -2 0.10047395E-02 0.94344774E+02</pdfrwt>
<totfact> 0.17192807E+05</totfact>
</mgrwt>
</event>
<event>
 5    1  0.3854342E+001  0.8628363E+02  0.7546771E-02  0.1312109E+00
          1   -1    0    0  501    0  0.00000000000E+00  0.00000000000E+00  0.26602314374E+04  0.26602314374E+04  0.00000000000E+00 0. -1.
         -1   -1    0    0    0  501 -0.00000000000E+00 -0.00000000000E+00 -0.69964445816E+00  0.69964445816E+00  0.00000000000E+00 0.  1.
         23    2    1    2    0    0  0.00000000000E+00  0.00000000000E+00  0.26595317929E+04  0.26609310818E+04  0.86283629562E+02 0.  0.
          2    1    3    3  502    0 -0.30441488064E+02  0.31511552758E+01  0.22675064196E+04  0.22677129397E+04  0.00000000000E+00 0. -1.
         -2    1    3    3    0  502  0.30441488064E+02 -0.31511552758E+01  0.39202537334E+03  0.39321814216E+03  0.00000000000E+00 0.  1.
<mgrwt>
<rscale>  0 0.86283630E+02</rscale>
<asrwt>0</asrwt>
<pdfrwt beam="1">  1        1 0.40925828E+00 0.86283630E+02</pdfrwt>
<pdfrwt beam="2">  1       -1 0.10763974E-03 0.86283630E+02</pdfrwt>
<totfact> 0.51969780E+04</totfact>
</mgrwt>
</event>
<event>
 5    1  0.3854342E+001  0.8715657E+02  0.7546771E-02  0.1309887E+00
          2   -1    0    0  501    0  0.00000000000E+00  0.00000000000E+00  0.17290789969E+04  0.17290789969E+04  0.00000000000E+00 0. -1.
         -2   -1    0    0    0  501 -0.00000000000E+00 -0.00000000000E+00 -0.10983112466E+01  0.10983112466E+01  0.00000000000E+00 0.  1.
         23    2    1    2    0    0  0.00000000000E+00  0.00000000000E+00  0.17279806857E+04  0.17301773082E+04  0.87156569658E+02 0.  0.
          2    1    3    3  502    0  0.26801719902E+02 -0.15715391902E+02  0.14705987004E+04  0.14709268654E+04  0.00000000000E+00 0. -1.
         -2    1    3    3    0  502 -0.26801719902E+02  0.15715391902E+02  0.25738198527E+03  0.25925044276E+03  0.00000000000E+00 0.  1.
<mgrwt>
<rscale>  0 0.87156570E+02</rscale>
<asrwt>0</asrwt>
<pdfrwt beam="1">  1        2 0.26600998E+00 0.87156570E+02</pdfrwt>
<pdfrwt beam="2">  1       -2 0.16897234E-03 0.87156570E+02</pdfrwt>
<totfact> 0.24779052E+05</totfact>
</mgrwt>
</event>
<event>
 5    1  0.3854342E+001  0.8971486E+02  0.7546771E-02  0.1303544E+00
          2   -1    0    0  501    0  0.00000000000E+00  0.00000000000E+00  0.18496032104E+01  0.18496032104E+01  0.00000000000E+00 0.  1.
         -2   -1    0    0    0  501 -0.00000000000E+00 -0.00000000000E+00 -0.10879030764E+04  0.10879030764E+04  0.00000000000E+00 0. -1.
         23    2    1    2    0    0  0.00000000000E+00  0.00000000000E+00 -0.10860534732E+04  0.10897526796E+04  0.89714859922E+02 0.  0.
          2    1    3    3  502    0 -0.43451455737E+02  0.10852007680E+02 -0.57374156237E+03  0.57548690295E+03  0.00000000000E+00 0. -1.
         -2    1    3    3    0  502  0.43451455737E+02 -0.10852007680E+02 -0.51231191085E+03  0.51426577669E+03  0.00000000000E+00 0.  1.
<mgrwt>
<rscale>  0 0.89714860E+02</rscale>
<asrwt>0</asrwt>
<pdfrwt beam="1">  1        2 0.28455480E-03 0.89714860E+02</pdfrwt>
<pdfrwt beam="2">  1       -2 0.16736943E+00 0.89714860E+02</pdfrwt>
<totfact> 0.17598148E+04</totfact>
</mgrwt>
</event>
<event>
 5    1  0.3854342E+001  0.8218154E+02  0.7546771E-02  0.1322972E+00
         -1   -1    0    0    0  501 -0.00000000000E+00  0.00000000000E+00  0.56123035467E+01  0.56123035467E+01  0.00000000000E+00 0.  1.
          1   -1    0    0  501    0  0.00000000000E+00 -0.00000000000E+00 -0.30084818985E+03  0.30084818985E+03  0.00000000000E+00 0. -1.
         23    2    1    2    0    0  0.00000000000E+00  0.00000000000E+00 -0.29523588630E+03  0.30646049340E+03  0.82181539604E+02 0.  0.
          2    1    3    3  502    0  0.27633964623E+01 -0.33273840500E+02 -0.23693409094E+03  0.23927504732E+03  0.00000000000E+00 0. -1.
         -2    1    3    3    0  502 -0.27633964623E+01  0.33273840500E+02 -0.58301795362E+02  0.67185446073E+02  0.00000000000E+00 0.  1.
<mgrwt>
<rscale>  0 0.82181540E+02</rscale>
<asrwt>0</asrwt>
<pdfrwt beam="2">  1        1 0.46284333E-01 0.82181540E+02</pdfrwt>
<pdfrwt beam="1">  1       -1 0.86343139E-03 0.82181540E+02</pdfrwt>
<totfact> 0.16879357E+05</totfact>
</mgrwt>
</event>
<event>
 5    1  0.3854342E+001  0.9063939E+02  0.7546771E-02  0.1301311E+00
          1   -1    0    0  501    0  0.00000000000E+00  0.00000000000E+00  0.46387830629E+02  0.46387830629E+02  0.00000000000E+00 0. -1.
         -1   -1    0    0    0  501 -0.00000000000E+00 -0.00000000000E+00 -0.44276154242E+02  0.44276154242E+02  0.00000000000E+00 0.  1.
         23    2    1    2    0    0  0.00000000000E+00  0.00000000000E+00  0.21116763868E+01  0.90663984871E+02  0.90639389757E+02 0.  0.
          2    1    3    3  502    0  0.14166165273E+02  0.37941830095E+02 -0.19287134381E+02  0.44858179434E+02  0.00000000000E+00 0.  1.
         -2    1    3    3    0  502 -0.14166165273E+02 -0.37941830095E+02  0.21398810768E+02  0.45805805437E+02  0.00000000000E+00 0. -1.
<mgrwt>
<rscale>  0 0.90639390E+02</rscale>
<asrwt>0</asrwt>
<pdfrwt beam="1">  1        1 0.71365893E-02 0.90639390E+02</pdfrwt>
<pdfrwt beam="2">  1       -1 0.68117160E-02 0.90639390E+02</pdfrwt>
<totfact> 0.94262855E+04</totfact>
</mgrwt>
</event>
<event>
 5    1  0.3854342E+001  0.9017265E+02  0.7546771E-02  0.1302434E+00
          1   -1    0    0  501    0  0.00000000000E+00  0.00000000000E+00  0.43767030347E+03  0.43767030347E+03  0.00000000000E+00 0. -1.
         -1   -1    0    0    0  501 -0.00000000000E+00 -0.00000000000E+00 -0.46445390449E+01  0.46445390449E+01  0.00000000000E+00 0.  1.
         23    2    1    2    0    0  0.00000000000E+00  0.00000000000E+00  0.43302576443E+03  0.44231484252E+03  0.90172652468E+02 0.  0.
          2    1    3    3  502    0  0.42626929821E+02  0.13254812625E+02  0.24754834275E+03  0.25154110440E+03  0.00000000000E+00 0. -1.
         -2    1    3    3    0  502 -0.42626929821E+02 -0.13254812625E+02  0.18547742168E+03  0.19077373812E+03  0.00000000000E+00 0.  1.
<mgrwt>
<rscale>  0 0.90172652E+02</rscale>
<asrwt>0</asrwt>
<pdfrwt beam="1">  1        1 0.67333861E-01 0.90172652E+02</pdfrwt>
<pdfrwt beam="2">  1       -1 0.71454481E-03 0.90172652E+02</pdfrwt>
<totfact> 0.14087849E+05</totfact>
</mgrwt>
</event>
<event>
 5    1  0.3854342E+001  0.8794542E+02  0.7546771E-02  0.1307905E+00
          2   -1    0    0  501    0  0.00000000000E+00  0.00000000000E+00  0.25434415843E+03  0.25434415843E+03  0.00000000000E+00 0. -1.
         -2   -1    0    0    0  501 -0.00000000000E+00 -0.00000000000E+00 -0.76022940300E+01  0.76022940300E+01  0.00000000000E+00 0.  1.
         23    2    1    2    0    0  0.00000000000E+00  0.00000000000E+00  0.24674186440E+03  0.26194645246E+03  0.87945416645E+02 0.  0.
          2    1    3    3  502    0 -0.36507087145E+02 -0.24123860272E+02  0.13630982529E+03  0.14316108590E+03  0.00000000000E+00 0. -1.
         -2    1    3    3    0  502  0.36507087145E+02  0.24123860272E+02  0.11043203911E+03  0.11878536656E+03  0.00000000000E+00 0.  1.
<mgrwt>
<rscale>  0 0.87945417E+02</rscale>
<asrwt>0</asrwt>
<pdfrwt beam="1">  1        2 0.39129864E-01 0.87945417E+02</pdfrwt>
<pdfrwt beam="2">  1       -2 0.11695839E-02 0.87945417E+02</pdfrwt>
<totfact> 0.18602039E+05</totfact>
</mgrwt>
</event>
<event>
 5    1  0.3854342E+001  0.9149225E+02  0.7546771E-02  0.1299278E+00
          1   -1    0    0  501    0  0.00000000000E+00  0.00000000000E+00  0.30090631015E+04  0.30090631015E+04  0.00000000000E+00 0. -1.
         -1   -1    0    0    0  501 -0.00000000000E+00 -0.00000000000E+00 -0.69546835662E+00  0.69546835662E+00  0.00000000000E+00 0.  1.
         23    2    1    2    0    0  0.00000000000E+00  0.00000000000E+00  0.30083676332E+04  0.30097585699E+04  0.91492254759E+02 0.  0.
          2    1    3    3  502    0 -0.37603489762E+02  0.13777672810E+02  0.22315284341E+04  0.22318877658E+04  0.00000000000E+00 0. -1.
         -2    1    3    3    0  502  0.37603489762E+02 -0.13777672810E+02  0.77683919907E+03  0.77787080414E+03  0.00000000000E+00 0.  1.
<mgrwt>
<rscale>  0 0.91492255E+02</rscale>
<asrwt>0</asrwt>
<pdfrwt beam="1">  1        1 0.46292236E+00 0.91492255E+02</pdfrwt>
<pdfrwt beam="2">  1       -1 0.10699754E-03 0.91492255E+02</pdfrwt>
<totfact> 0.30843133E+04</totfact>
</mgrwt>
</event>
<event>
 5    1  0.3854342E+001  0.9016485E+02  0.7546771E-02  0.1302453E+00
          1   -1    0    0  501    0  0.00000000000E+00  0.00000000000E+00  0.32121797178E+01  0.32121797178E+01  0.00000000000E+00 0. -1.
         -1   -1    0    0    0  501 -0.00000000000E+00 -0.00000000000E+00 -0.63272455482E+03  0.63272455482E+03  0.00000000000E+00 0.  1.
         23    2    1    2    0    0  0.00000000000E+00  0.00000000000E+00 -0.62951237511E+03  0.63593673454E+03  0.90164848627E+02 0.  0.
          2    1    3    3  502    0 -0.25026801349E+02 -0.36706083339E+02 -0.36881566892E+03  0.37148172900E+03  0.00000000000E+00 0. -1.
         -2    1    3    3    0  502  0.25026801349E+02  0.36706083339E+02 -0.26069670619E+03  0.26445500555E+03  0.00000000000E+00 0.  1.
<mgrwt>
<rscale>  0 0.90164849E+02</rscale>
<asrwt>0</asrwt>
<pdfrwt beam="1">  1        1 0.49418132E-03 0.90164849E+02</pdfrwt>
<pdfrwt beam="2">  1       -1 0.97342273E-01 0.90164849E+02</pdfrwt>
<totfact> 0.41179101E+04</totfact>
</mgrwt>
</event>
<event>
 5    1  0.3854342E+001  0.9212580E+02  0.7546771E-02  0.1297784E+00
          1   -1    0    0  501    0  0.00000000000E+00  0.00000000000E+00  0.84260810556E+01  0.84260810556E+01  0.00000000000E+00 0. -1.
         -1   -1    0    0    0  501 -0.00000000000E+00 -0.00000000000E+00 -0.25181231481E+03  0.25181231481E+03  0.00000000000E+00 0.  1.
         23    2    1    2    0    0  0.00000000000E+00  0.00000000000E+00 -0.24338623376E+03  0.26023839587E+03  0.92125804754E+02 0.  0.
          2    1    3    3  502    0  0.53625723898E+01  0.44669996764E+02 -0.14960383474E+03  0.15622251170E+03  0.00000000000E+00 0. -1.
         -2    1    3    3    0  502 -0.53625723898E+01 -0.44669996764E+02 -0.93782399015E+02  0.10401588416E+03  0.00000000000E+00 0.  1.
<mgrwt>
<rscale>  0 0.92125805E+02</rscale>
<asrwt>0</asrwt>
<pdfrwt beam="1">  1        1 0.12963200E-02 0.92125805E+02</pdfrwt>
<pdfrwt beam="2">  1       -1 0.38740360E-01 0.92125805E+02</pdfrwt>
<totfact> 0.62880923E+04</totfact>
</mgrwt>
</event>
<event>
 5    1  0.3854342E+001  0.9025567E+02  0.7546771E-02  0.1302234E+00
          4   -1    0    0  501    0  0.00000000000E+00  0.00000000000E+00  0.93426972615E+02  0.93426972615E+02  0.00000000000E+00 0. -1.
         -4   -1    0    0    0  501 -0.00000000000E+00 -0.00000000000E+00 -0.21798003105E+02  0.21798003105E+02  0.00000000000E+00 0.  1.
         23    2    1    2    0    0  0.00000000000E+00  0.00000000000E+00  0.71628969510E+02  0.11522497572E+03  0.90255668833E+02 0.  0.
          2    1    3    3  502    0  0.42137632773E+02 -0.16124288796E+02  0.37057928409E+02  0.58385467737E+02  0.00000000000E+00 0. -1.
         -2    1    3    3    0  502 -0.42137632773E+02  0.16124288796E+02  0.34571041101E+02  0.56839507983E+02  0.00000000000E+00 0.  1.
<mgrwt>
<rscale>  0 0.90255669E+02</rscale>
<asrwt>0</asrwt>
<pdfrwt beam="1">  1        4 0.14373380E-01 0.90255669E+02</pdfrwt>
<pdfrwt beam="2">  1       -4 0.33535390E-02 0.90255669E+02</pdfrwt>
<totfact> 0.26255834E+04</totfact>
</mgrwt>
</event>
<event>
 5    1  0.3854342E+001  0.8940048E+02  0.7546771E-02  0.1304310E+00
         -1   -1    0    0    0  501 -0.00000000000E+00  0.00000000000E+00  0.22831096980E+01  0.22831096980E+01  0.00000000000E+00 0.  1.
          1   -1    0    0  501    0  0.00000000000E+00 -0.00000000000E+00 -0.87517105544E+03  0.87517105544E+03  0.00000000000E+00 0. -1.
         23    2    1    2    0    0  0.00000000000E+00  0.00000000000E+00 -0.87288794574E+03  0.87745416513E+03  0.89400481521E+02 0.  0.
          2    1    3    3  502    0 -0.30641149676E+02  0.29858859428E+02 -0.30934993022E+03  0.31229442977E+03  0.00000000000E+00 0. -1.
         -2    1    3    3    0  502  0.30641149676E+02 -0.29858859428E+02 -0.56353801552E+03  0.56515973536E+03  0.00000000000E+00 0.  1.
<mgrwt>
<rscale>  0 0.89400482E+02</rscale>
<asrwt>0</asrwt>
<pdfrwt beam="2">  1        1 0.13464207E+00 0.89400482E+02</pdfrwt>
<pdfrwt beam="1">  1       -1 0.35124667E-03 0.89400482E+02</pdfrwt>
<totfact> 0.14726404E+05</totfact>
</mgrwt>
</event>
<event>
 5    1  0.3854342E+001  0.8698554E+02  0.7546771E-02  0.1310320E+00
          4   -1    0    0  501    0  0.00000000000E+00  0.00000000000E+00  0.55662136525E+02  0.55662136525E+02  0.00000000000E+00 0. -1.
         -4   -1    0    0    0  501 -0.00000000000E+00 -0.00000000000E+00 -0.33983982653E+02  0.33983982653E+02  0.00000000000E+00 0.  1.
         23    2    1    2    0    0  0.00000000000E+00  0.00000000000E+00  0.21678153872E+02  0.89646119177E+02  0.86985540915E+02 0.  0.
          2    1    3    3  502    0  0.29578060133E+02 -0.25480212523E+01  0.43595955806E+02  0.52744302215E+02  0.00000000000E+00 0. -1.
         -2    1    3    3    0  502 -0.29578060133E+02  0.25480212523E+01 -0.21917801934E+02  0.36901816962E+02  0.00000000000E+00 0.  1.
<mgrwt>
<rscale>  0 0.86985541E+02</rscale>
<asrwt>0</asrwt>
<pdfrwt beam="1">  1        4 0.85634056E-02 0.86985541E+02</pdfrwt>
<pdfrwt beam="2">  1       -4 0.52283050E-02 0.86985541E+02</pdfrwt>
<totfact> 0.30791556E+04</totfact>
</mgrwt>
</event>
<event>
 5    1  0.3854342E+001  0.9178737E+02  0.7546771E-02  0.1298580E+00
          2   -1    0    0  501    0  0.00000000000E+00  0.00000000000E+00  0.21921041812E+01  0.21921041812E+01  0.00000000000E+00 0. -1.
         -2   -1    0    0    0  501 -0.00000000000E+00 -0.00000000000E+00 -0.96082588356E+03  0.96082588356E+03  0.00000000000E+00 0.  1.
         23    2    1    2    0    0  0.00000000000E+00  0.00000000000E+00 -0.95863377938E+03  0.96301798774E+03  0.91787372482E+02 0.  0.
          2    1    3    3  502    0  0.16425283115E+02 -0.30207175552E+02 -0.16039839553E+03  0.16404239899E+03  0.00000000000E+00 0. -1.
         -2    1    3    3    0  502 -0.16425283115E+02  0.30207175552E+02 -0.79823538385E+03  0.79897558875E+03  0.00000000000E+00 0.  1.
<mgrwt>
<rscale>  0 0.91787372E+02</rscale>
<asrwt>0</asrwt>
<pdfrwt beam="1">  1        2 0.33724707E-03 0.91787372E+02</pdfrwt>
<pdfrwt beam="2">  1       -2 0.14781925E+00 0.91787372E+02</pdfrwt>
<totfact> 0.19231059E+04</totfact>
</mgrwt>
</event>
<event>
 5    1  0.3854342E+001  0.9112321E+02  0.7546771E-02  0.1300154E+00
         -1   -1    0    0    0  501 -0.00000000000E+00  0.00000000000E+00  0.50076410648E+01  0.50076410648E+01  0.00000000000E+00 0.  1.
          1   -1    0    0  501    0  0.00000000000E+00 -0.00000000000E+00 -0.41453845828E+03  0.41453845828E+03  0.00000000000E+00 0. -1.
         23    2    1    2    0    0  0.00000000000E+00  0.00000000000E+00 -0.40953081721E+03  0.41954609934E+03  0.91123209044E+02 0.  0.
          2    1    3    3  502    0  0.80070286637E+01  0.40450592060E+02 -0.29398369145E+03  0.29686153969E+03  0.00000000000E+00 0. -1.
         -2    1    3    3    0  502 -0.80070286637E+01 -0.40450592060E+02 -0.11554712576E+03  0.12268455965E+03  0.00000000000E+00 0.  1.
<mgrwt>
<rscale>  0 0.91123209E+02</rscale>
<asrwt>0</asrwt>
<pdfrwt beam="2">  1        1 0.63775155E-01 0.91123209E+02</pdfrwt>
<pdfrwt beam="1">  1       -1 0.77040622E-03 0.91123209E+02</pdfrwt>
<totfact> 0.13588106E+05</totfact>
</mgrwt>
</event>
<event>
 5    1  0.3854342E+001  0.9339065E+02  0.7546771E-02  0.1294842E+00
         -1   -1    0    0    0  501 -0.00000000000E+00  0.00000000000E+00  0.15295502663E+01  0.15295502663E+01  0.00000000000E+00 0.  1.
          1   -1    0    0  501    0  0.00000000000E+00 -0.00000000000E+00 -0.14255520717E+04  0.14255520717E+04  0.00000000000E+00 0. -1.
         23    2    1    2    0    0  0.00000000000E+00  0.00000000000E+00 -0.14240225214E+04  0.14270816220E+04  0.93390653727E+02 0.  0.
          2    1    3    3  502    0  0.33229539200E+02  0.25472578112E+02 -0.10279203845E+04  0.10287727501E+04  0.00000000000E+00 0. -1.
         -2    1    3    3    0  502 -0.33229539200E+02 -0.25472578112E+02 -0.39610213697E+03  0.39830887188E+03  0.00000000000E+00 0.  1.
<mgrwt>
<rscale>  0 0.93390654E+02</rscale>
<asrwt>0</asrwt>
<pdfrwt beam="2">  1        1 0.21931678E+00 0.93390654E+02</pdfrwt>
<pdfrwt beam="1">  1       -1 0.23531427E-03 0.93390654E+02</pdfrwt>
<totfact> 0.10786429E+05</totfact>
</mgrwt>
</event>
<event>
 5    1  0.3854342E+001  0.9108171E+02  0.7546771E-02  0.1300253E+00
          1   -1    0    0  501    0  0.00000000000E+00  0.00000000000E+00  0.15264955898E+03  0.15264955898E+03  0.00000000000E+00 0. -1.
         -1   -1    0    0    0  501 -0.00000000000E+00 -0.00000000000E+00 -0.13586476515E+02  0.13586476515E+02  0.00000000000E+00 0.  1.
         23    2    1    2    0    0  0.00000000000E+00  0.00000000000E+00  0.13906308246E+03  0.16623603549E+03  0.91081713819E+02 0.  0.
          2    1    3    3  502    0  0.30750938785E+02  0.20127127694E+02  0.11861528075E+03  0.12417852605E+03  0.00000000000E+00 0. -1.
         -2    1    3    3    0  502 -0.30750938785E+02 -0.20127127694E+02  0.20447801713E+02  0.42057509440E+02  0.00000000000E+00 0.  1.
<mgrwt>
<rscale>  0 0.91081714E+02</rscale>
<asrwt>0</asrwt>
<pdfrwt beam="1">  1        1 0.23484546E-01 0.91081714E+02</pdfrwt>
<pdfrwt beam="2">  1       -1 0.20902273E-02 0.91081714E+02</pdfrwt>
<totfact> 0.11281230E+05</totfact>
</mgrwt>
</event>
<event>
 5    1  0.3854342E+001  0.9190772E+02  0.7546771E-02  0.1298297E+00
         -1   -1    0    0    0  501 -0.00000000000E+00  0.00000000000E+00  0.18225721101E+01  0.18225721101E+01  0.00000000000E+00 0. -1.
          1   -1    0    0  501    0  0.00000000000E+00 -0.00000000000E+00 -0.11586686457E+04  0.11586686457E+04  0.00000000000E+00 0.  1.
         23    2    1    2    0    0  0.00000000000E+00  0.00000000000E+00 -0.11568460736E+04  0.11604912178E+04  0.91907718034E+02 0.  0.
          2    1    3    3  502    0  0.20077743639E+02 -0.39772886201E+01 -0.58911026657E+02  0.62365404482E+02  0.00000000000E+00 0. -1.
         -2    1    3    3    0  502 -0.20077743639E+02  0.39772886201E+01 -0.10979350469E+04  0.10981258133E+04  0.00000000000E+00 0.  1.
<mgrwt>
<rscale>  0 0.91907718E+02</rscale>
<asrwt>0</asrwt>
<pdfrwt beam="2">  1        1 0.17825672E+00 0.91907718E+02</pdfrwt>
<pdfrwt beam="1">  1       -1 0.28039570E-03 0.91907718E+02</pdfrwt>
<totfact> 0.12661506E+05</totfact>
</mgrwt>
</event>
<event>
 5    1  0.3854342E+001  0.9311413E+02  0.7546771E-02  0.1295481E+00
         -2   -1    0    0    0  501 -0.00000000000E+00  0.00000000000E+00  0.33703527564E+01  0.33703527564E+01  0.00000000000E+00 0.  1.
          2   -1    0    0  501    0  0.00000000000E+00 -0.00000000000E+00 -0.64312570445E+03  0.64312570445E+03  0.00000000000E+00 0. -1.
         23    2    1    2    0    0  0.00000000000E+00  0.00000000000E+00 -0.63975535169E+03  0.64649605720E+03  0.93114134066E+02 0.  0.
          2    1    3    3  502    0  0.29769443223E+02 -0.80751588811E+01 -0.77752065739E+02  0.83646946552E+02  0.00000000000E+00 0.  1.
         -2    1    3    3    0  502 -0.29769443223E+02  0.80751588811E+01 -0.56200328595E+03  0.56284911065E+03  0.00000000000E+00 0. -1.
<mgrwt>
<rscale>  0 0.93114134E+02</rscale>
<asrwt>0</asrwt>
<pdfrwt beam="2">  1        2 0.98942381E-01 0.93114134E+02</pdfrwt>
<pdfrwt beam="1">  1       -2 0.51851599E-03 0.93114134E+02</pdfrwt>
<totfact> 0.21965784E+05</totfact>
</mgrwt>
</event>
<event>
 5    1  0.3854342E+001  0.9180298E+02  0.7546771E-02  0.1298543E+00
         -2   -1    0    0    0  501 -0.00000000000E+00  0.00000000000E+00  0.64975077646E+02  0.64975077646E+02  0.00000000000E+00 0.  1.
          2   -1    0    0  501    0  0.00000000000E+00 -0.00000000000E+00 -0.32427001008E+02  0.32427001008E+02  0.00000000000E+00 0. -1.
         23    2    1    2    0    0  0.00000000000E+00  0.00000000000E+00  0.32548076638E+02  0.97402078655E+02  0.91802982704E+02 0.  0.
          2    1    3    3  502    0  0.30373320066E+02 -0.24024413190E+02  0.42419129197E+02  0.57437736053E+02  0.00000000000E+00 0.  1.
         -2    1    3    3    0  502 -0.30373320066E+02  0.24024413190E+02 -0.98710525587E+01  0.39964342602E+02  0.00000000000E+00 0. -1.
<mgrwt>
<rscale>  0 0.91802983E+02</rscale>
<asrwt>0</asrwt>
<pdfrwt beam="2">  1        2 0.49887694E-02 0.91802983E+02</pdfrwt>
<pdfrwt beam="1">  1       -2 0.99961658E-02 0.91802983E+02</pdfrwt>
<totfact> 0.88503852E+04</totfact>
</mgrwt>
</event>
<event>
 5    1  0.3854342E+001  0.9038325E+02  0.7546771E-02  0.1301926E+00
         -2   -1    0    0    0  501 -0.00000000000E+00  0.00000000000E+00  0.44848079621E+02  0.44848079621E+02  0.00000000000E+00 0.  1.
          2   -1    0    0  501    0  0.00000000000E+00 -0.00000000000E+00 -0.45537805829E+02  0.45537805829E+02  0.00000000000E+00 0. -1.
         23    2    1    2    0    0  0.00000000000E+00  0.00000000000E+00 -0.68972620793E+00  0.90385885449E+02  0.90383253793E+02 0.  0.
          2    1    3    3  502    0  0.32385782412E+02  0.20812745548E+02 -0.24015657111E+02  0.45373572332E+02  0.00000000000E+00 0. -1.
         -2    1    3    3    0  502 -0.32385782412E+02 -0.20812745548E+02  0.23325930903E+02  0.45012313118E+02  0.00000000000E+00 0.  1.
<mgrwt>
<rscale>  0 0.90383254E+02</rscale>
<asrwt>0</asrwt>
<pdfrwt beam="2">  1        2 0.70058163E-02 0.90383254E+02</pdfrwt>
<pdfrwt beam="1">  1       -2 0.68997046E-02 0.90383254E+02</pdfrwt>
<totfact> 0.10114855E+05</totfact>
</mgrwt>
</event>
<event>
 5    1  0.3854342E+001  0.9142680E+02  0.7546771E-02  0.1299433E+00
         -3   -1    0    0    0  501 -0.00000000000E+00  0.00000000000E+00  0.54024672685E+02  0.54024672685E+02  0.00000000000E+00 0.  1.
          3   -1    0    0  501    0  0.00000000000E+00 -0.00000000000E+00 -0.38680748732E+02  0.38680748732E+02  0.00000000000E+00 0. -1.
         23    2    1    2    0    0  0.00000000000E+00  0.00000000000E+00  0.15343923953E+02  0.92705421416E+02  0.91426796716E+02 0.  0.
          2    1    3    3  502    0 -0.18762983484E+02 -0.26640652468E+02 -0.24837942747E+02  0.40971908828E+02  0.00000000000E+00 0. -1.
         -2    1    3    3    0  502  0.18762983484E+02  0.26640652468E+02  0.40181866700E+02  0.51733512588E+02  0.00000000000E+00 0.  1.
<mgrwt>
<rscale>  0 0.91426797E+02</rscale>
<asrwt>0</asrwt>
<pdfrwt beam="2">  1        3 0.59508845E-02 0.91426797E+02</pdfrwt>
<pdfrwt beam="1">  1       -3 0.83114880E-02 0.91426797E+02</pdfrwt>
<totfact> 0.34960007E+04</totfact>
</mgrwt>
</event>
<event>
 5    1  0.3854342E+001  0.8924019E+02  0.7546771E-02  0.1304702E+00
         -3   -1    0    0    0  501 -0.00000000000E+00  0.00000000000E+00  0.21943806222E+03  0.21943806222E+03  0.00000000000E+00 0.  1.
          3   -1    0    0  501    0  0.00000000000E+00 -0.00000000000E+00 -0.90729595271E+01  0.90729595271E+01  0.00000000000E+00 0. -1.
         23    2    1    2    0    0  0.00000000000E+00  0.00000000000E+00  0.21036510269E+03  0.22851102175E+03  0.89240185056E+02 0.  0.
          2    1    3    3  502    0 -0.12625734098E+02 -0.20985049149E+02  0.20068994210E+03  0.20217871874E+03  0.00000000000E+00 0.  1.
         -2    1    3    3    0  502  0.12625734098E+02  0.20985049149E+02  0.96751605888E+01  0.26332303008E+02  0.00000000000E+00 0. -1.
<mgrwt>
<rscale>  0 0.89240185E+02</rscale>
<asrwt>0</asrwt>
<pdfrwt beam="2">  1        3 0.13958401E-02 0.89240185E+02</pdfrwt>
<pdfrwt beam="1">  1       -3 0.33759698E-01 0.89240185E+02</pdfrwt>
<totfact> 0.28694026E+04</totfact>
</mgrwt>
</event>
<event>
 5    1  0.3854342E+001  0.9081423E+02  0.7546771E-02  0.1300892E+00
         -2   -1    0    0    0  501 -0.00000000000E+00  0.00000000000E+00  0.16113808419E+02  0.16113808419E+02  0.00000000000E+00 0.  1.
          2   -1    0    0  501    0  0.00000000000E+00 -0.00000000000E+00 -0.12795275433E+03  0.12795275433E+03  0.00000000000E+00 0. -1.
         23    2    1    2    0    0  0.00000000000E+00  0.00000000000E+00 -0.11183894592E+03  0.14406656275E+03  0.90814231705E+02 0.  0.
          2    1    3    3  502    0  0.31969786622E+02 -0.32160021002E+02 -0.59630386543E+02  0.74914065480E+02  0.00000000000E+00 0. -1.
         -2    1    3    3    0  502 -0.31969786622E+02  0.32160021002E+02 -0.52208559373E+02  0.69152497274E+02  0.00000000000E+00 0.  1.
<mgrwt>
<rscale>  0 0.90814232E+02</rscale>
<asrwt>0</asrwt>
<pdfrwt beam="2">  1        2 0.19685037E-01 0.90814232E+02</pdfrwt>
<pdfrwt beam="1">  1       -2 0.24790477E-02 0.90814232E+02</pdfrwt>
<totfact> 0.13403828E+05</totfact>
</mgrwt>
</event>
<event>
 5    1  0.3854342E+001  0.9291132E+02  0.7546771E-02  0.1295951E+00
          2   -1    0    0  501    0  0.00000000000E+00  0.00000000000E+00  0.19484335779E+03  0.19484335779E+03  0.00000000000E+00 0. -1.
         -2   -1    0    0    0  501 -0.00000000000E+00 -0.00000000000E+00 -0.11076221434E+02  0.11076221434E+02  0.00000000000E+00 0.  1.
         23    2    1    2    0    0  0.00000000000E+00  0.00000000000E+00  0.18376713635E+03  0.20591957922E+03  0.92911316336E+02 0.  0.
          2    1    3    3  502    0 -0.27070749796E+02 -0.32185462438E+02  0.13561828024E+03  0.14198960321E+03  0.00000000000E+00 0. -1.
         -2    1    3    3    0  502  0.27070749796E+02  0.32185462438E+02  0.48148856116E+02  0.63929976006E+02  0.00000000000E+00 0.  1.
<mgrwt>
<rscale>  0 0.92911316E+02</rscale>
<asrwt>0</asrwt>
<pdfrwt beam="1">  1        2 0.29975899E-01 0.92911316E+02</pdfrwt>
<pdfrwt beam="2">  1       -2 0.17040342E-02 0.92911316E+02</pdfrwt>
<totfact> 0.14562913E+05</totfact>
</mgrwt>
</event>
<event>
 5    1  0.3854342E+001  0.9136109E+02  0.7546771E-02  0.1299589E+00
          1   -1    0    0  501    0  0.00000000000E+00  0.00000000000E+00  0.59153471731E+01  0.59153471731E+01  0.00000000000E+00 0. -1.
         -1   -1    0    0    0  501 -0.00000000000E+00 -0.00000000000E+00 -0.35276239163E+03  0.35276239163E+03  0.00000000000E+00 0.  1.
         23    2    1    2    0    0  0.00000000000E+00  0.00000000000E+00 -0.34684704445E+03  0.35867773880E+03  0.91361086160E+02 0.  0.
          2    1    3    3  502    0  0.16983839802E+02 -0.20499672284E+02 -0.27685906454E+02  0.38408290698E+02  0.00000000000E+00 0. -1.
         -2    1    3    3    0  502 -0.16983839802E+02  0.20499672284E+02 -0.31916113800E+03  0.32026944810E+03  0.00000000000E+00 0.  1.
<mgrwt>
<rscale>  0 0.91361086E+02</rscale>
<asrwt>0</asrwt>
<pdfrwt beam="1">  1        1 0.91005299E-03 0.91361086E+02</pdfrwt>
<pdfrwt beam="2">  1       -1 0.54271162E-01 0.91361086E+02</pdfrwt>
<totfact> 0.56288192E+04</totfact>
</mgrwt>
</event>
<event>
 5    1  0.3854342E+001  0.8674781E+02  0.7546771E-02  0.1310924E+00
          3   -1    0    0  501    0  0.00000000000E+00  0.00000000000E+00  0.61990978488E+01  0.61990978488E+01  0.00000000000E+00 0. -1.
         -3   -1    0    0    0  501 -0.00000000000E+00 -0.00000000000E+00 -0.30347892018E+03  0.30347892018E+03  0.00000000000E+00 0.  1.
         23    2    1    2    0    0  0.00000000000E+00  0.00000000000E+00 -0.29727982233E+03  0.30967801803E+03  0.86747807378E+02 0.  0.
          2    1    3    3  502    0 -0.32613771697E+02 -0.46618383778E+01 -0.47927637300E+02  0.58158827864E+02  0.00000000000E+00 0. -1.
         -2    1    3    3    0  502  0.32613771697E+02  0.46618383778E+01 -0.24935218503E+03  0.25151919016E+03  0.00000000000E+00 0.  1.
<mgrwt>
<rscale>  0 0.86747807E+02</rscale>
<asrwt>0</asrwt>
<pdfrwt beam="1">  1        3 0.95370718E-03 0.86747807E+02</pdfrwt>
<pdfrwt beam="2">  1       -3 0.46689074E-01 0.86747807E+02</pdfrwt>
<totfact> 0.27019482E+04</totfact>
</mgrwt>
</event>
<event>
 5    1  0.3854342E+001  0.9186184E+02  0.7546771E-02  0.1298405E+00
          4   -1    0    0  501    0  0.00000000000E+00  0.00000000000E+00  0.26733878889E+01  0.26733878889E+01  0.00000000000E+00 0. -1.
         -4   -1    0    0    0  501 -0.00000000000E+00 -0.00000000000E+00 -0.78912959144E+03  0.78912959144E+03  0.00000000000E+00 0.  1.
         23    2    1    2    0    0  0.00000000000E+00  0.00000000000E+00 -0.78645620356E+03  0.79180297933E+03  0.91861841753E+02 0.  0.
          2    1    3    3  502    0 -0.36465432896E+02 -0.19788934103E+02 -0.22337372527E+03  0.22719408190E+03  0.00000000000E+00 0. -1.
         -2    1    3    3    0  502  0.36465432896E+02  0.19788934103E+02 -0.56308247829E+03  0.56460889743E+03  0.00000000000E+00 0.  1.
<mgrwt>
<rscale>  0 0.91861842E+02</rscale>
<asrwt>0</asrwt>
<pdfrwt beam="1">  1        4 0.41128973E-03 0.91861842E+02</pdfrwt>
<pdfrwt beam="2">  1       -4 0.12140476E+00 0.91861842E+02</pdfrwt>
<totfact> 0.88193279E+03</totfact>
</mgrwt>
</event>
<event>
 5    1  0.3854342E+001  0.8687084E+02  0.7546771E-02  0.1310611E+00
          2   -1    0    0  501    0  0.00000000000E+00  0.00000000000E+00  0.12775243133E+04  0.12775243133E+04  0.00000000000E+00 0.  1.
         -2   -1    0    0    0  501 -0.00000000000E+00 -0.00000000000E+00 -0.14767905938E+01  0.14767905938E+01  0.00000000000E+00 0. -1.
         23    2    1    2    0    0  0.00000000000E+00  0.00000000000E+00  0.12760475227E+04  0.12790011039E+04  0.86870844113E+02 0.  0.
          2    1    3    3  502    0 -0.36521632856E+01 -0.29507869936E+02  0.17184005513E+03  0.17439339790E+03  0.00000000000E+00 0. -1.
         -2    1    3    3    0  502  0.36521632856E+01  0.29507869936E+02  0.11042074675E+04  0.11046077060E+04  0.00000000000E+00 0.  1.
<mgrwt>
<rscale>  0 0.86870844E+02</rscale>
<asrwt>0</asrwt>
<pdfrwt beam="1">  1        2 0.19654132E+00 0.86870844E+02</pdfrwt>
<pdfrwt beam="2">  1       -2 0.22719957E-03 0.86870844E+02</pdfrwt>
<totfact> 0.27989458E+05</totfact>
</mgrwt>
</event>
<event>
 5    1  0.3854342E+001  0.9009089E+02  0.7546771E-02  0.1302632E+00
         -4   -1    0    0    0  501 -0.00000000000E+00  0.00000000000E+00  0.85285136862E+01  0.85285136862E+01  0.00000000000E+00 0.  1.
          4   -1    0    0  501    0  0.00000000000E+00 -0.00000000000E+00 -0.23791862221E+03  0.23791862221E+03  0.00000000000E+00 0. -1.
         23    2    1    2    0    0  0.00000000000E+00  0.00000000000E+00 -0.22939010853E+03  0.24644713590E+03  0.90090892453E+02 0.  0.
          2    1    3    3  502    0 -0.20512699525E+02 -0.40074871749E+02 -0.11886712163E+03  0.12710687941E+03  0.00000000000E+00 0.  1.
         -2    1    3    3    0  502  0.20512699525E+02  0.40074871749E+02 -0.11052298690E+03  0.11934025650E+03  0.00000000000E+00 0. -1.
<mgrwt>
<rscale>  0 0.90090892E+02</rscale>
<asrwt>0</asrwt>
<pdfrwt beam="2">  1        4 0.36602863E-01 0.90090892E+02</pdfrwt>
<pdfrwt beam="1">  1       -4 0.13120791E-02 0.90090892E+02</pdfrwt>
<totfact> 0.20224918E+04</totfact>
</mgrwt>
</event>
<event>
 5    1  0.3854342E+001  0.1205578E+03  0.7546771E-02  0.1242180E+00
          1   -1    0    0  501    0  0.00000000000E+00  0.00000000000E+00  0.17041328659E+02  0.17041328659E+02  0.00000000000E+00 0. -1.
         -1   -1    0    0    0  501 -0.00000000000E+00 -0.00000000000E+00 -0.21321970552E+03  0.21321970552E+03  0.00000000000E+00 0.  1.
         23    2    1    2    0    0  0.00000000000E+00  0.00000000000E+00 -0.19617837686E+03  0.23026103418E+03  0.12055782145E+03 0.  0.
          2    1    3    3  502    0 -0.20631228580E+02 -0.30570885140E+02 -0.70233709611E+01  0.37544032157E+02  0.00000000000E+00 0. -1.
         -2    1    3    3    0  502  0.20631228580E+02  0.30570885140E+02 -0.18915500590E+03  0.19271700202E+03  0.00000000000E+00 0.  1.
<mgrwt>
<rscale>  0 0.12055782E+03</rscale>
<asrwt>0</asrwt>
<pdfrwt beam="1">  1        1 0.26217429E-02 0.12055782E+03</pdfrwt>
<pdfrwt beam="2">  1       -1 0.32803032E-01 0.12055782E+03</pdfrwt>
<totfact> 0.32702927E+04</totfact>
</mgrwt>
</event>
<event>
 5    1  0.3854342E+001  0.9147651E+02  0.7546771E-02  0.1299315E+00
         -1   -1    0    0    0  501 -0.00000000000E+00  0.00000000000E+00  0.20455254446E+01  0.20455254446E+01  0.00000000000E+00 0.  1.
          1   -1    0    0  501    0  0.00000000000E+00 -0.00000000000E+00 -0.10227141189E+04  0.10227141189E+04  0.00000000000E+00 0. -1.
         23    2    1    2    0    0  0.00000000000E+00  0.00000000000E+00 -0.10206685935E+04  0.10247596444E+04  0.91476505241E+02 0.  0.
          2    1    3    3  502    0  0.13290469822E+02  0.19243028425E+02 -0.95067081672E+03  0.95095842837E+03  0.00000000000E+00 0. -1.
         -2    1    3    3    0  502 -0.13290469822E+02 -0.19243028425E+02 -0.69997776747E+02  0.73801215983E+02  0.00000000000E+00 0.  1.
<mgrwt>
<rscale>  0 0.91476505E+02</rscale>
<asrwt>0</asrwt>
<pdfrwt beam="2">  1        1 0.15734050E+00 0.91476505E+02</pdfrwt>
<pdfrwt beam="1">  1       -1 0.31469649E-03 0.91476505E+02</pdfrwt>
<totfact> 0.13400463E+05</totfact>
</mgrwt>
</event>
<event>
 5    1  0.3854342E+001  0.9166060E+02  0.7546771E-02  0.1298879E+00
          1   -1    0    0  501    0  0.00000000000E+00  0.00000000000E+00  0.19909417220E+04  0.19909417220E+04  0.00000000000E+00 0. -1.
         -1   -1    0    0    0  501 -0.00000000000E+00 -0.00000000000E+00 -0.10549864210E+01  0.10549864210E+01  0.00000000000E+00 0.  1.
         23    2    1    2    0    0  0.00000000000E+00  0.00000000000E+00  0.19898867355E+04  0.19919967084E+04  0.91660601823E+02 0.  0.
          2    1    3    3  502    0  0.42574792468E+02  0.16830707332E+02  0.10412021560E+04  0.10422081439E+04  0.00000000000E+00 0. -1.
         -2    1    3    3    0  502 -0.42574792468E+02 -0.16830707332E+02  0.94868457957E+03  0.94978856445E+03  0.00000000000E+00 0.  1.
<mgrwt>
<rscale>  0 0.91660602E+02</rscale>
<asrwt>0</asrwt>
<pdfrwt beam="1">  1        1 0.30629572E+00 0.91660602E+02</pdfrwt>
<pdfrwt beam="2">  1       -1 0.16230720E-03 0.91660602E+02</pdfrwt>
<totfact> 0.79161633E+04</totfact>
</mgrwt>
</event>
<event>
 5    1  0.3854342E+001  0.9048525E+02  0.7546771E-02  0.1301681E+00
          4   -1    0    0  501    0  0.00000000000E+00  0.00000000000E+00  0.72779210450E+03  0.72779210450E+03  0.00000000000E+00 0. -1.
         -4   -1    0    0    0  501 -0.00000000000E+00 -0.00000000000E+00 -0.28124722305E+01  0.28124722305E+01  0.00000000000E+00 0.  1.
         23    2    1    2    0    0  0.00000000000E+00  0.00000000000E+00  0.72497963227E+03  0.73060457673E+03  0.90485249261E+02 0.  0.
          2    1    3    3  502    0 -0.31074725805E+02  0.57014994940E+01  0.62397101331E+03  0.62477033471E+03  0.00000000000E+00 0. -1.
         -2    1    3    3    0  502  0.31074725805E+02 -0.57014994940E+01  0.10100861896E+03  0.10583424203E+03  0.00000000000E+00 0.  1.
<mgrwt>
<rscale>  0 0.90485249E+02</rscale>
<asrwt>0</asrwt>
<pdfrwt beam="1">  1        4 0.11196787E+00 0.90485249E+02</pdfrwt>
<pdfrwt beam="2">  1       -4 0.43268862E-03 0.90485249E+02</pdfrwt>
<totfact> 0.98681846E+03</totfact>
</mgrwt>
</event>
<event>
 5    1  0.3854342E+001  0.8986773E+02  0.7546771E-02  0.1303172E+00
         -2   -1    0    0    0  501 -0.00000000000E+00  0.00000000000E+00  0.21401868093E+01  0.21401868093E+01  0.00000000000E+00 0.  1.
          2   -1    0    0  501    0  0.00000000000E+00 -0.00000000000E+00 -0.94339994652E+03  0.94339994652E+03  0.00000000000E+00 0. -1.
         23    2    1    2    0    0  0.00000000000E+00  0.00000000000E+00 -0.94125975971E+03  0.94554013332E+03  0.89867727720E+02 0.  0.
          2    1    3    3  502    0 -0.24530535684E+02 -0.19321043240E+02 -0.81058917427E+03  0.81119039647E+03  0.00000000000E+00 0. -1.
         -2    1    3    3    0  502  0.24530535684E+02  0.19321043240E+02 -0.13067058544E+03  0.13434973685E+03  0.00000000000E+00 0.  1.
<mgrwt>
<rscale>  0 0.89867728E+02</rscale>
<asrwt>0</asrwt>
<pdfrwt beam="2">  1        2 0.14513887E+00 0.89867728E+02</pdfrwt>
<pdfrwt beam="1">  1       -2 0.32925856E-03 0.89867728E+02</pdfrwt>
<totfact> 0.25875032E+05</totfact>
</mgrwt>
</event>
<event>
 5    1  0.3854342E+001  0.9261719E+02  0.7546771E-02  0.1296635E+00
         -1   -1    0    0    0  501 -0.00000000000E+00  0.00000000000E+00  0.36886168804E+02  0.36886168804E+02  0.00000000000E+00 0.  1.
          1   -1    0    0  501    0  0.00000000000E+00 -0.00000000000E+00 -0.58137939516E+02  0.58137939516E+02  0.00000000000E+00 0. -1.
         23    2    1    2    0    0  0.00000000000E+00  0.00000000000E+00 -0.21251770712E+02  0.95024108320E+02  0.92617187409E+02 0.  0.
          2    1    3    3  502    0  0.17372530494E+02 -0.15602438097E+02  0.30403943949E+02  0.38335893077E+02  0.00000000000E+00 0.  1.
         -2    1    3    3    0  502 -0.17372530494E+02  0.15602438097E+02 -0.51655714661E+02  0.56688215243E+02  0.00000000000E+00 0. -1.
<mgrwt>
<rscale>  0 0.92617187E+02</rscale>
<asrwt>0</asrwt>
<pdfrwt beam="2">  1        1 0.89442984E-02 0.92617187E+02</pdfrwt>
<pdfrwt beam="1">  1       -1 0.56747952E-02 0.92617187E+02</pdfrwt>
<totfact> 0.91819051E+04</totfact>
</mgrwt>
</event>
<event>
 5    1  0.3854342E+001  0.9189799E+02  0.7546771E-02  0.1298319E+00
          2   -1    0    0  501    0  0.00000000000E+00  0.00000000000E+00  0.35453772562E+03  0.35453772562E+03  0.00000000000E+00 0. -1.
         -2   -1    0    0    0  501 -0.00000000000E+00 -0.00000000000E+00 -0.59551075586E+01  0.59551075586E+01  0.00000000000E+00 0.  1.
         23    2    1    2    0    0  0.00000000000E+00  0.00000000000E+00  0.34858261806E+03  0.36049283318E+03  0.91897993224E+02 0.  0.
          2    1    3    3  502    0  0.21593272529E+02 -0.35688142993E+02  0.98693363953E+02  0.10714612945E+03  0.00000000000E+00 0. -1.
         -2    1    3    3    0  502 -0.21593272529E+02  0.35688142993E+02  0.24988925411E+03  0.25334670373E+03  0.00000000000E+00 0.  1.
<mgrwt>
<rscale>  0 0.91897993E+02</rscale>
<asrwt>0</asrwt>
<pdfrwt beam="1">  1        2 0.54544249E-01 0.91897993E+02</pdfrwt>
<pdfrwt beam="2">  1       -2 0.91617067E-03 0.91897993E+02</pdfrwt>
<totfact> 0.18712781E+05</totfact>
</mgrwt>
</event>
<event>
 5    1  0.3854342E+001  0.9182051E+02  0.7546771E-02  0.1298502E+00
         -2   -1    0    0    0  501 -0.00000000000E+00  0.00000000000E+00  0.71813277857E+02  0.71813277857E+02  0.00000000000E+00 0. -1.
          2   -1    0    0  501    0  0.00000000000E+00 -0.00000000000E+00 -0.29350441465E+02  0.29350441465E+02  0.00000000000E+00 0.  1.
         23    2    1    2    0    0  0.00000000000E+00  0.00000000000E+00  0.42462836392E+02  0.10116371932E+03  0.91820507691E+02 0.  0.
          2    1    3    3  502    0 -0.91051064399E+01 -0.36422031321E+02 -0.78825342588E+01  0.38361460806E+02  0.00000000000E+00 0.  1.
         -2    1    3    3    0  502  0.91051064399E+01  0.36422031321E+02  0.50345370650E+02  0.62802258516E+02  0.00000000000E+00 0. -1.
<mgrwt>
<rscale>  0 0.91820508E+02</rscale>
<asrwt>0</asrwt>
<pdfrwt beam="2">  1        2 0.45154526E-02 0.91820508E+02</pdfrwt>
<pdfrwt beam="1">  1       -2 0.11048197E-01 0.91820508E+02</pdfrwt>
<totfact> 0.86125346E+04</totfact>
</mgrwt>
</event>
