<event>
 4    1  0.4332500E+000  0.1894596E+03  0.7546771E-02  0.1158950E+00
         21   -1    0    0  503  502  0.00000000000E+00  0.00000000000E+00  0.27321152072E+04  0.27321152072E+04  0.00000000000E+00 0. -1.
         21   -1    0    0  501  503 -0.00000000000E+00 -0.00000000000E+00 -0.17117959762E+02  0.17117959762E+02  0.00000000000E+00 0. -1.
          6    1    1    2  501    0  0.69635337997E+02 -0.33419503823E+02  0.69469228597E+03  0.72006410528E+03  0.17300000000E+03 0. -1.
         -6    1    1    2    0  502 -0.69635337997E+02  0.33419503823E+02  0.20203049614E+04  0.20291690616E+04  0.17300000000E+03 0. -1.
<mgrwt>
<rscale>  2 0.18945961E+03</rscale>
<asrwt>0</asrwt>
<pdfrwt beam="1">  1       21 0.42032507E+00 0.18945961E+03</pdfrwt>
<pdfrwt beam="2">  1       21 0.26335344E-02 0.18945961E+03</pdfrwt>
<totfact> 0.51127327E+03</totfact>
</mgrwt>
</event>
<event>
 4    1  0.4332500E+000  0.1782172E+03  0.7546771E-02  0.1169540E+00
         21   -1    0    0  501  502  0.00000000000E+00  0.00000000000E+00  0.53446433377E+02  0.53446433377E+02  0.00000000000E+00 0. -1.
         21   -1    0    0  502  503 -0.00000000000E+00 -0.00000000000E+00 -0.68244859929E+03  0.68244859929E+03  0.00000000000E+00 0. -1.
          6    1    1    2  501    0  0.38397373626E+02 -0.18921663971E+02 -0.18223672303E+03  0.25489529397E+03  0.17300000000E+03 0. -1.
         -6    1    1    2    0  503 -0.38397373626E+02  0.18921663971E+02 -0.44676544289E+03  0.48099973870E+03  0.17300000000E+03 0. -1.
<mgrwt>
<rscale>  2 0.17821725E+03</rscale>
<asrwt>0</asrwt>
<pdfrwt beam="1">  1       21 0.82225289E-02 0.17821725E+03</pdfrwt>
<pdfrwt beam="2">  1       21 0.10499208E+00 0.17821725E+03</pdfrwt>
<totfact> 0.84130024E+04</totfact>
</mgrwt>
</event>
<event>
 4    1  0.4332500E+000  0.2559968E+03  0.7546771E-02  0.1109573E+00
         21   -1    0    0  503  502  0.00000000000E+00  0.00000000000E+00  0.12835237413E+04  0.12835237413E+04  0.00000000000E+00 0. -1.
         21   -1    0    0  501  503 -0.00000000000E+00 -0.00000000000E+00 -0.54650348264E+02  0.54650348264E+02  0.00000000000E+00 0.  1.
          6    1    1    2  501    0  0.70320555536E+02  0.17510111735E+03  0.44289697668E+03  0.51155851452E+03  0.17300000000E+03 0. -1.
         -6    1    1    2    0  502 -0.70320555536E+02 -0.17510111735E+03  0.78597641632E+03  0.82661557500E+03  0.17300000000E+03 0.  1.
<mgrwt>
<rscale>  2 0.25599684E+03</rscale>
<asrwt>0</asrwt>
<pdfrwt beam="1">  1       21 0.19746517E+00 0.25599684E+03</pdfrwt>
<pdfrwt beam="2">  1       21 0.84077468E-02 0.25599684E+03</pdfrwt>
<totfact> 0.14672174E+04</totfact>
</mgrwt>
</event>
<event>
 4    1  0.4332500E+000  0.2026718E+03  0.7546771E-02  0.1147504E+00
         21   -1    0    0  501  502  0.00000000000E+00  0.00000000000E+00  0.26296979604E+03  0.26296979604E+03  0.00000000000E+00 0. -1.
         21   -1    0    0  502  503 -0.00000000000E+00 -0.00000000000E+00 -0.20726254658E+03  0.20726254658E+03  0.00000000000E+00 0. -1.
          6    1    1    2  501    0  0.56070195846E+02 -0.89459371290E+02  0.14455444427E+03  0.24894142550E+03  0.17300000000E+03 0. -1.
         -6    1    1    2    0  503 -0.56070195846E+02  0.89459371290E+02 -0.88847194810E+02  0.22129091712E+03  0.17300000000E+03 0. -1.
<mgrwt>
<rscale>  2 0.20267177E+03</rscale>
<asrwt>0</asrwt>
<pdfrwt beam="1">  1       21 0.40456892E-01 0.20267177E+03</pdfrwt>
<pdfrwt beam="2">  1       21 0.31886546E-01 0.20267177E+03</pdfrwt>
<totfact> 0.55412593E+04</totfact>
</mgrwt>
</event>
<event>
 4    1  0.4332500E+000  0.1777489E+03  0.7546771E-02  0.1170000E+00
         21   -1    0    0  503  502  0.00000000000E+00  0.00000000000E+00  0.31943377792E+03  0.31943377792E+03  0.00000000000E+00 0.  1.
         21   -1    0    0  501  503 -0.00000000000E+00 -0.00000000000E+00 -0.10135207801E+03  0.10135207801E+03  0.00000000000E+00 0.  1.
          6    1    1    2  501    0 -0.19457288350E+02  0.35876048433E+02  0.76371632216E+02  0.19346137374E+03  0.17300000000E+03 0.  1.
         -6    1    1    2    0  502  0.19457288350E+02 -0.35876048433E+02  0.14171006770E+03  0.22732448220E+03  0.17300000000E+03 0.  1.
<mgrwt>
<rscale>  2 0.17774892E+03</rscale>
<asrwt>0</asrwt>
<pdfrwt beam="1">  1       21 0.49143658E-01 0.17774892E+03</pdfrwt>
<pdfrwt beam="2">  1       21 0.15592628E-01 0.17774892E+03</pdfrwt>
<totfact> 0.14509374E+05</totfact>
</mgrwt>
</event>
<event>
 4    1  0.4332500E+000  0.2202288E+03  0.7546771E-02  0.1133713E+00
         21   -1    0    0  503  502  0.00000000000E+00  0.00000000000E+00  0.44270563454E+03  0.44270563454E+03  0.00000000000E+00 0.  1.
         21   -1    0    0  501  503 -0.00000000000E+00 -0.00000000000E+00 -0.27991656911E+03  0.27991656911E+03  0.00000000000E+00 0.  1.
          6    1    1    2  501    0  0.65844087732E+02 -0.11931591348E+03 -0.20047782404E+03  0.29781217072E+03  0.17300000000E+03 0.  1.
         -6    1    1    2    0  502 -0.65844087732E+02  0.11931591348E+03  0.36326688946E+03  0.42481003293E+03  0.17300000000E+03 0.  1.
<mgrwt>
<rscale>  2 0.22022882E+03</rscale>
<asrwt>0</asrwt>
<pdfrwt beam="1">  1       21 0.68108559E-01 0.22022882E+03</pdfrwt>
<pdfrwt beam="2">  1       21 0.43064088E-01 0.22022882E+03</pdfrwt>
<totfact> 0.10018011E+04</totfact>
</mgrwt>
</event>
<event>
 4    1  0.4332500E+000  0.2256320E+03  0.7546771E-02  0.1129752E+00
         21   -1    0    0  503  502  0.00000000000E+00  0.00000000000E+00  0.41114122629E+03  0.41114122629E+03  0.00000000000E+00 0.  1.
         21   -1    0    0  501  503 -0.00000000000E+00 -0.00000000000E+00 -0.12879119439E+03  0.12879119439E+03  0.00000000000E+00 0. -1.
          6    1    1    2  501    0 -0.18672342924E+02  0.14363895030E+03  0.88165671382E+02  0.24224572244E+03  0.17300000000E+03 0.  1.
         -6    1    1    2    0  502  0.18672342924E+02 -0.14363895030E+03  0.19418436052E+03  0.29768669823E+03  0.17300000000E+03 0. -1.
<mgrwt>
<rscale>  2 0.22563201E+03</rscale>
<asrwt>0</asrwt>
<pdfrwt beam="1">  1       21 0.63252496E-01 0.22563201E+03</pdfrwt>
<pdfrwt beam="2">  1       21 0.19814030E-01 0.22563201E+03</pdfrwt>
<totfact> 0.53489154E+04</totfact>
</mgrwt>
</event>
<event>
 4    1  0.4332500E+000  0.1964728E+03  0.7546771E-02  0.1152749E+00
         21   -1    0    0  503  502  0.00000000000E+00  0.00000000000E+00  0.80118592745E+03  0.80118592745E+03  0.00000000000E+00 0.  1.
         21   -1    0    0  501  503 -0.00000000000E+00 -0.00000000000E+00 -0.59546897689E+02  0.59546897689E+02  0.00000000000E+00 0.  1.
          6    1    1    2  501    0  0.90981478798E+02  0.19872963984E+02  0.18279277637E+03  0.26835566563E+03  0.17300000000E+03 0.  1.
         -6    1    1    2    0  502 -0.90981478798E+02 -0.19872963984E+02  0.55884625339E+03  0.59237715951E+03  0.17300000000E+03 0.  1.
<mgrwt>
<rscale>  2 0.19647281E+03</rscale>
<asrwt>0</asrwt>
<pdfrwt beam="1">  1       21 0.12325937E+00 0.19647281E+03</pdfrwt>
<pdfrwt beam="2">  1       21 0.91610618E-02 0.19647281E+03</pdfrwt>
<totfact> 0.46683068E+04</totfact>
</mgrwt>
</event>
<event>
 4    1  0.4332500E+000  0.1734451E+03  0.7546771E-02  0.1174302E+00
         21   -1    0    0  503  502  0.00000000000E+00  0.00000000000E+00  0.11298149633E+04  0.11298149633E+04  0.00000000000E+00 0. -1.
         21   -1    0    0  501  503 -0.00000000000E+00 -0.00000000000E+00 -0.41713682863E+02  0.41713682863E+02  0.00000000000E+00 0. -1.
          6    1    1    2  501    0 -0.93235246761E+01 -0.82015693282E+01  0.19177266810E+03  0.25857291057E+03  0.17300000000E+03 0. -1.
         -6    1    1    2    0  502  0.93235246761E+01  0.82015693282E+01  0.89632861236E+03  0.91295573562E+03  0.17300000000E+03 0. -1.
<mgrwt>
<rscale>  2 0.17344507E+03</rscale>
<asrwt>0</asrwt>
<pdfrwt beam="1">  1       21 0.17381766E+00 0.17344507E+03</pdfrwt>
<pdfrwt beam="2">  1       21 0.64174905E-02 0.17344507E+03</pdfrwt>
<totfact> 0.35704279E+04</totfact>
</mgrwt>
</event>
<event>
 4    1  0.4332500E+000  0.2009251E+03  0.7546771E-02  0.1148961E+00
         21   -1    0    0  503  502  0.00000000000E+00  0.00000000000E+00  0.33312534611E+03  0.33312534611E+03  0.00000000000E+00 0.  1.
         21   -1    0    0  501  503 -0.00000000000E+00 -0.00000000000E+00 -0.15702325716E+03  0.15702325716E+03  0.00000000000E+00 0.  1.
          6    1    1    2  501    0  0.29299796424E+01 -0.10214367114E+03 -0.29025222070E+02  0.20301078260E+03  0.17300000000E+03 0.  1.
         -6    1    1    2    0  502 -0.29299796424E+01  0.10214367114E+03  0.20512731102E+03  0.28713782067E+03  0.17300000000E+03 0.  1.
<mgrwt>
<rscale>  2 0.20092515E+03</rscale>
<asrwt>0</asrwt>
<pdfrwt beam="1">  1       21 0.51250053E-01 0.20092515E+03</pdfrwt>
<pdfrwt beam="2">  1       21 0.24157424E-01 0.20092515E+03</pdfrwt>
<totfact> 0.58287303E+04</totfact>
</mgrwt>
</event>
<event>
 4    1  0.4332500E+000  0.2367281E+03  0.7546771E-02  0.1121992E+00
         21   -1    0    0  503  502  0.00000000000E+00  0.00000000000E+00  0.23470719770E+03  0.23470719770E+03  0.00000000000E+00 0.  1.
         21   -1    0    0  501  503 -0.00000000000E+00 -0.00000000000E+00 -0.30445104666E+03  0.30445104666E+03  0.00000000000E+00 0.  1.
          6    1    1    2  501    0  0.11579338493E+01 -0.16158546854E+03 -0.16008776896E+03  0.28577665794E+03  0.17300000000E+03 0.  1.
         -6    1    1    2    0  502 -0.11579338493E+01  0.16158546854E+03  0.90343920004E+02  0.25338158642E+03  0.17300000000E+03 0.  1.
<mgrwt>
<rscale>  2 0.23672812E+03</rscale>
<asrwt>0</asrwt>
<pdfrwt beam="1">  1       21 0.36108799E-01 0.23672812E+03</pdfrwt>
<pdfrwt beam="2">  1       21 0.46838623E-01 0.23672812E+03</pdfrwt>
<totfact> 0.31556872E+04</totfact>
</mgrwt>
</event>
<event>
 4    1  0.4332500E+000  0.3427185E+03  0.7546771E-02  0.1065644E+00
         21   -1    0    0  503  502  0.00000000000E+00  0.00000000000E+00  0.44443102173E+03  0.44443102173E+03  0.00000000000E+00 0.  1.
         21   -1    0    0  501  503 -0.00000000000E+00 -0.00000000000E+00 -0.37450537352E+03  0.37450537352E+03  0.00000000000E+00 0. -1.
          6    1    1    2  501    0 -0.16709972425E+03 -0.24414065762E+03 -0.18717585783E+03  0.39050067901E+03  0.17300000000E+03 0. -1.
         -6    1    1    2    0  502  0.16709972425E+03  0.24414065762E+03  0.25710150603E+03  0.42843571624E+03  0.17300000000E+03 0.  1.
<mgrwt>
<rscale>  2 0.34271851E+03</rscale>
<asrwt>0</asrwt>
<pdfrwt beam="1">  1       21 0.68374003E-01 0.34271851E+03</pdfrwt>
<pdfrwt beam="2">  1       21 0.57616211E-01 0.34271851E+03</pdfrwt>
<totfact> 0.50510833E+03</totfact>
</mgrwt>
</event>
<event>
 4    1  0.4332500E+000  0.2316555E+03  0.7546771E-02  0.1125480E+00
         21   -1    0    0  501  502  0.00000000000E+00  0.00000000000E+00  0.17242727974E+03  0.17242727974E+03  0.00000000000E+00 0.  1.
         21   -1    0    0  502  503 -0.00000000000E+00 -0.00000000000E+00 -0.32286587719E+03  0.32286587719E+03  0.00000000000E+00 0.  1.
          6    1    1    2  501    0 -0.15061785956E+03 -0.32396340945E+02 -0.28202712001E+02  0.23336592616E+03  0.17300000000E+03 0.  1.
         -6    1    1    2    0  503  0.15061785956E+03  0.32396340945E+02 -0.12223588545E+03  0.26192723077E+03  0.17300000000E+03 0.  1.
<mgrwt>
<rscale>  2 0.23165548E+03</rscale>
<asrwt>0</asrwt>
<pdfrwt beam="1">  1       21 0.26527274E-01 0.23165548E+03</pdfrwt>
<pdfrwt beam="2">  1       21 0.49671673E-01 0.23165548E+03</pdfrwt>
<totfact> 0.51303399E+04</totfact>
</mgrwt>
</event>
<event>
 4    1  0.4332500E+000  0.2854216E+03  0.7546771E-02  0.1092764E+00
         21   -1    0    0  501  502  0.00000000000E+00  0.00000000000E+00  0.52437988430E+03  0.52437988430E+03  0.00000000000E+00 0. -1.
         21   -1    0    0  502  503 -0.00000000000E+00 -0.00000000000E+00 -0.44783092331E+03  0.44783092331E+03  0.00000000000E+00 0.  1.
          6    1    1    2  501    0  0.86990214377E+01  0.22684978854E+03  0.43111639134E+03  0.51703659679E+03  0.17300000000E+03 0. -1.
         -6    1    1    2    0  503 -0.86990214377E+01 -0.22684978854E+03 -0.35456743035E+03  0.45517421083E+03  0.17300000000E+03 0.  1.
<mgrwt>
<rscale>  2 0.28542162E+03</rscale>
<asrwt>0</asrwt>
<pdfrwt beam="1">  1       21 0.80673828E-01 0.28542162E+03</pdfrwt>
<pdfrwt beam="2">  1       21 0.68897065E-01 0.28542162E+03</pdfrwt>
<totfact> 0.24196935E+03</totfact>
</mgrwt>
</event>
<event>
 4    1  0.4332500E+000  0.1892411E+03  0.7546771E-02  0.1159148E+00
         21   -1    0    0  501  502  0.00000000000E+00  0.00000000000E+00  0.11152130801E+03  0.11152130801E+03  0.00000000000E+00 0. -1.
         21   -1    0    0  502  503 -0.00000000000E+00 -0.00000000000E+00 -0.44843033156E+03  0.44843033156E+03  0.00000000000E+00 0. -1.
          6    1    1    2  501    0 -0.34569624893E+02 -0.68469999304E+02 -0.19278992400E+02  0.19022060697E+03  0.17300000000E+03 0. -1.
         -6    1    1    2    0  503  0.34569624893E+02  0.68469999304E+02 -0.31763003115E+03  0.36973103259E+03  0.17300000000E+03 0. -1.
<mgrwt>
<rscale>  2 0.18924112E+03</rscale>
<asrwt>0</asrwt>
<pdfrwt beam="1">  1       21 0.17157125E-01 0.18924112E+03</pdfrwt>
<pdfrwt beam="2">  1       21 0.68989281E-01 0.18924112E+03</pdfrwt>
<totfact> 0.58776341E+04</totfact>
</mgrwt>
</event>
<event>
 4    1  0.4332500E+000  0.1764478E+03  0.7546771E-02  0.1171286E+00
         21   -1    0    0  503  502  0.00000000000E+00  0.00000000000E+00  0.85738678357E+03  0.85738678357E+03  0.00000000000E+00 0.  1.
         21   -1    0    0  501  503 -0.00000000000E+00 -0.00000000000E+00 -0.12721500407E+03  0.12721500407E+03  0.00000000000E+00 0.  1.
          6    1    1    2  501    0 -0.33859159355E+02 -0.76420211416E+01 -0.51063651065E+02  0.18368815863E+03  0.17300000000E+03 0.  1.
         -6    1    1    2    0  502  0.33859159355E+02  0.76420211416E+01  0.78123543057E+03  0.80091362901E+03  0.17300000000E+03 0.  1.
<mgrwt>
<rscale>  2 0.17644785E+03</rscale>
<asrwt>0</asrwt>
<pdfrwt beam="1">  1       21 0.13190566E+00 0.17644785E+03</pdfrwt>
<pdfrwt beam="2">  1       21 0.19571540E-01 0.17644785E+03</pdfrwt>
<totfact> 0.10136052E+04</totfact>
</mgrwt>
</event>
<event>
 4    1  0.4332500E+000  0.1903736E+03  0.7546771E-02  0.1158125E+00
         21   -1    0    0  501  502  0.00000000000E+00  0.00000000000E+00  0.16384846902E+04  0.16384846902E+04  0.00000000000E+00 0. -1.
         21   -1    0    0  502  503 -0.00000000000E+00 -0.00000000000E+00 -0.22660750048E+02  0.22660750048E+02  0.00000000000E+00 0. -1.
          6    1    1    2  501    0 -0.47113770886E+02 -0.63979637145E+02  0.67952297314E+03  0.70568659644E+03  0.17300000000E+03 0. -1.
         -6    1    1    2    0  503  0.47113770886E+02  0.63979637145E+02  0.93630096706E+03  0.95545884385E+03  0.17300000000E+03 0. -1.
<mgrwt>
<rscale>  2 0.19037358E+03</rscale>
<asrwt>0</asrwt>
<pdfrwt beam="1">  1       21 0.25207447E+00 0.19037358E+03</pdfrwt>
<pdfrwt beam="2">  1       21 0.34862705E-02 0.19037358E+03</pdfrwt>
<totfact> 0.31937329E+04</totfact>
</mgrwt>
</event>
<event>
 4    1  0.4332500E+000  0.2150240E+03  0.7546771E-02  0.1137648E+00
         21   -1    0    0  503  502  0.00000000000E+00  0.00000000000E+00  0.41560175060E+03  0.41560175060E+03  0.00000000000E+00 0. -1.
         21   -1    0    0  501  503 -0.00000000000E+00 -0.00000000000E+00 -0.12099755396E+03  0.12099755396E+03  0.00000000000E+00 0. -1.
          6    1    1    2  501    0 -0.12582487693E+03  0.21781475754E+02  0.71146985903E+02  0.22648890910E+03  0.17300000000E+03 0. -1.
         -6    1    1    2    0  502  0.12582487693E+03 -0.21781475754E+02  0.22345721074E+03  0.31011039546E+03  0.17300000000E+03 0. -1.
<mgrwt>
<rscale>  2 0.21502403E+03</rscale>
<asrwt>0</asrwt>
<pdfrwt beam="1">  1       21 0.63938730E-01 0.21502403E+03</pdfrwt>
<pdfrwt beam="2">  1       21 0.18615008E-01 0.21502403E+03</pdfrwt>
<totfact> 0.58979358E+04</totfact>
</mgrwt>
</event>
<event>
 4    1  0.4332500E+000  0.2169693E+03  0.7546771E-02  0.1136163E+00
         21   -1    0    0  503  502  0.00000000000E+00  0.00000000000E+00  0.80069668598E+02  0.80069668598E+02  0.00000000000E+00 0. -1.
         21   -1    0    0  501  503 -0.00000000000E+00 -0.00000000000E+00 -0.59337111137E+03  0.59337111137E+03  0.00000000000E+00 0.  1.
          6    1    1    2  501    0 -0.43648958156E+02  0.12345631343E+03 -0.28888249301E+03  0.36128767989E+03  0.17300000000E+03 0.  1.
         -6    1    1    2    0  502  0.43648958156E+02 -0.12345631343E+03 -0.22441894976E+03  0.31215310008E+03  0.17300000000E+03 0. -1.
<mgrwt>
<rscale>  2 0.21696934E+03</rscale>
<asrwt>0</asrwt>
<pdfrwt beam="1">  1       21 0.12318410E-01 0.21696934E+03</pdfrwt>
<pdfrwt beam="2">  1       21 0.91287865E-01 0.21696934E+03</pdfrwt>
<totfact> 0.56257110E+04</totfact>
</mgrwt>
</event>
<event>
 4    1  0.4332500E+000  0.1809184E+03  0.7546771E-02  0.1166917E+00
         21   -1    0    0  501  502  0.00000000000E+00  0.00000000000E+00  0.60199795813E+02  0.60199795813E+02  0.00000000000E+00 0. -1.
         21   -1    0    0  502  503 -0.00000000000E+00 -0.00000000000E+00 -0.55879293570E+03  0.55879293570E+03  0.00000000000E+00 0. -1.
          6    1    1    2  501    0 -0.23744939050E+02 -0.47314222399E+02 -0.19845501835E+03  0.26854394813E+03  0.17300000000E+03 0. -1.
         -6    1    1    2    0  503  0.23744939050E+02  0.47314222399E+02 -0.30013812154E+03  0.35044878338E+03  0.17300000000E+03 0. -1.
<mgrwt>
<rscale>  2 0.18091837E+03</rscale>
<asrwt>0</asrwt>
<pdfrwt beam="1">  1       21 0.92615070E-02 0.18091837E+03</pdfrwt>
<pdfrwt beam="2">  1       21 0.85968145E-01 0.18091837E+03</pdfrwt>
<totfact> 0.10895084E+05</totfact>
</mgrwt>
</event>
<event>
 4    1  0.4332500E+000  0.2038312E+03  0.7546771E-02  0.1146546E+00
         21   -1    0    0  503  502  0.00000000000E+00  0.00000000000E+00  0.13068819806E+03  0.13068819806E+03  0.00000000000E+00 0.  1.
         21   -1    0    0  501  503 -0.00000000000E+00 -0.00000000000E+00 -0.33171192749E+03  0.33171192749E+03  0.00000000000E+00 0.  1.
          6    1    1    2  501    0 -0.15946112866E+02  0.10660153453E+03 -0.14767118826E+03  0.25170209678E+03  0.17300000000E+03 0.  1.
         -6    1    1    2    0  502  0.15946112866E+02 -0.10660153453E+03 -0.53352541164E+02  0.21069802877E+03  0.17300000000E+03 0.  1.
<mgrwt>
<rscale>  2 0.20383122E+03</rscale>
<asrwt>0</asrwt>
<pdfrwt beam="1">  1       21 0.20105877E-01 0.20383122E+03</pdfrwt>
<pdfrwt beam="2">  1       21 0.51032603E-01 0.20383122E+03</pdfrwt>
<totfact> 0.83055160E+04</totfact>
</mgrwt>
</event>
<event>
 4    1  0.4332500E+000  0.1860693E+03  0.7546771E-02  0.1162055E+00
         21   -1    0    0  501  502  0.00000000000E+00  0.00000000000E+00  0.15499378013E+03  0.15499378013E+03  0.00000000000E+00 0. -1.
         21   -1    0    0  502  503 -0.00000000000E+00 -0.00000000000E+00 -0.30134495674E+03  0.30134495674E+03  0.00000000000E+00 0.  1.
          6    1    1    2  501    0  0.10954882918E+02  0.67622238966E+02  0.42885940230E+02  0.19094758582E+03  0.17300000000E+03 0. -1.
         -6    1    1    2    0  503 -0.10954882918E+02 -0.67622238966E+02 -0.18923711684E+03  0.26539115105E+03  0.17300000000E+03 0.  1.
<mgrwt>
<rscale>  2 0.18606928E+03</rscale>
<asrwt>0</asrwt>
<pdfrwt beam="1">  1       21 0.23845197E-01 0.18606928E+03</pdfrwt>
<pdfrwt beam="2">  1       21 0.46360762E-01 0.18606928E+03</pdfrwt>
<totfact> 0.74071958E+04</totfact>
</mgrwt>
</event>
<event>
 4    1  0.4332500E+000  0.1868261E+03  0.7546771E-02  0.1161355E+00
         21   -1    0    0  501  502  0.00000000000E+00  0.00000000000E+00  0.11401500291E+04  0.11401500291E+04  0.00000000000E+00 0.  1.
         21   -1    0    0  502  503 -0.00000000000E+00 -0.00000000000E+00 -0.53241678999E+02  0.53241678999E+02  0.00000000000E+00 0.  1.
          6    1    1    2  501    0 -0.26397713860E+02  0.65407726656E+02  0.93245607611E+03  0.95098808819E+03  0.17300000000E+03 0.  1.
         -6    1    1    2    0  503  0.26397713860E+02 -0.65407726656E+02  0.15445227398E+03  0.24240361990E+03  0.17300000000E+03 0.  1.
<mgrwt>
<rscale>  2 0.18682615E+03</rscale>
<asrwt>0</asrwt>
<pdfrwt beam="1">  1       21 0.17540768E+00 0.18682615E+03</pdfrwt>
<pdfrwt beam="2">  1       21 0.81910284E-02 0.18682615E+03</pdfrwt>
<totfact> 0.22624677E+04</totfact>
</mgrwt>
</event>
<event>
 4    1  0.4332500E+000  0.1992899E+03  0.7546771E-02  0.1150340E+00
         21   -1    0    0  501  502  0.00000000000E+00  0.00000000000E+00  0.54438374545E+03  0.54438374545E+03  0.00000000000E+00 0.  1.
         21   -1    0    0  502  503 -0.00000000000E+00 -0.00000000000E+00 -0.79245225287E+02  0.79245225287E+02  0.00000000000E+00 0. -1.
          6    1    1    2  501    0  0.94448457752E+02  0.29443820682E+02  0.32040749969E+03  0.37732931983E+03  0.17300000000E+03 0. -1.
         -6    1    1    2    0  503 -0.94448457752E+02 -0.29443820682E+02  0.14473102047E+03  0.24629965090E+03  0.17300000000E+03 0. -1.
<mgrwt>
<rscale>  2 0.19928986E+03</rscale>
<asrwt>0</asrwt>
<pdfrwt beam="1">  1       21 0.83751343E-01 0.19928986E+03</pdfrwt>
<pdfrwt beam="2">  1       21 0.12191573E-01 0.19928986E+03</pdfrwt>
<totfact> 0.70484320E+04</totfact>
</mgrwt>
</event>
<event>
 4    1  0.4332500E+000  0.2215885E+03  0.7546771E-02  0.1132704E+00
         21   -1    0    0  501  502  0.00000000000E+00  0.00000000000E+00  0.91201797264E+03  0.91201797264E+03  0.00000000000E+00 0. -1.
         21   -1    0    0  502  503 -0.00000000000E+00 -0.00000000000E+00 -0.92770265366E+02  0.92770265366E+02  0.00000000000E+00 0. -1.
          6    1    1    2  501    0 -0.11931998161E+03 -0.70251118779E+02  0.73508071434E+03  0.76775330302E+03  0.17300000000E+03 0. -1.
         -6    1    1    2    0  503  0.11931998161E+03  0.70251118779E+02  0.84166992926E+02  0.23703493498E+03  0.17300000000E+03 0. -1.
<mgrwt>
<rscale>  2 0.22158853E+03</rscale>
<asrwt>0</asrwt>
<pdfrwt beam="1">  1       21 0.14031045E+00 0.22158853E+03</pdfrwt>
<pdfrwt beam="2">  1       21 0.14272349E-01 0.22158853E+03</pdfrwt>
<totfact> 0.14983167E+04</totfact>
</mgrwt>
</event>
<event>
 4    1  0.4332500E+000  0.2376242E+03  0.7546771E-02  0.1121386E+00
         21   -1    0    0  503  502  0.00000000000E+00  0.00000000000E+00  0.95434049530E+02  0.95434049530E+02  0.00000000000E+00 0.  1.
         21   -1    0    0  501  503 -0.00000000000E+00 -0.00000000000E+00 -0.59263193597E+03  0.59263193597E+03  0.00000000000E+00 0.  1.
          6    1    1    2  501    0 -0.50555571628E+02  0.15485610229E+03 -0.23472436452E+03  0.33400719384E+03  0.17300000000E+03 0.  1.
         -6    1    1    2    0  502  0.50555571628E+02 -0.15485610229E+03 -0.26247352192E+03  0.35405879166E+03  0.17300000000E+03 0.  1.
<mgrwt>
<rscale>  2 0.23762424E+03</rscale>
<asrwt>0</asrwt>
<pdfrwt beam="1">  1       21 0.14682161E-01 0.23762424E+03</pdfrwt>
<pdfrwt beam="2">  1       21 0.91174145E-01 0.23762424E+03</pdfrwt>
<totfact> 0.40663582E+04</totfact>
</mgrwt>
</event>
<event>
 4    1  0.4332500E+000  0.2948920E+03  0.7546771E-02  0.1087822E+00
         21   -1    0    0  503  502  0.00000000000E+00  0.00000000000E+00  0.73278944044E+03  0.73278944044E+03  0.00000000000E+00 0. -1.
         21   -1    0    0  501  503 -0.00000000000E+00 -0.00000000000E+00 -0.14302695020E+03  0.14302695020E+03  0.00000000000E+00 0. -1.
          6    1    1    2  501    0 -0.21363859431E+03  0.10672800164E+03  0.47558662419E+03  0.55959266652E+03  0.17300000000E+03 0. -1.
         -6    1    1    2    0  502  0.21363859431E+03 -0.10672800164E+03  0.11417586605E+03  0.31622372413E+03  0.17300000000E+03 0. -1.
<mgrwt>
<rscale>  2 0.29489204E+03</rscale>
<asrwt>0</asrwt>
<pdfrwt beam="1">  1       21 0.11273683E+00 0.29489204E+03</pdfrwt>
<pdfrwt beam="2">  1       21 0.22004147E-01 0.29489204E+03</pdfrwt>
<totfact> 0.11190757E+04</totfact>
</mgrwt>
</event>
<event>
 4    1  0.4332500E+000  0.2123865E+03  0.7546771E-02  0.1139690E+00
         21   -1    0    0  503  502  0.00000000000E+00  0.00000000000E+00  0.12589728402E+03  0.12589728402E+03  0.00000000000E+00 0.  1.
         21   -1    0    0  501  503 -0.00000000000E+00 -0.00000000000E+00 -0.56677696988E+03  0.56677696988E+03  0.00000000000E+00 0.  1.
          6    1    1    2  501    0  0.82357081032E+02 -0.91631431142E+02 -0.43049346599E+03  0.48003399070E+03  0.17300000000E+03 0.  1.
         -6    1    1    2    0  502 -0.82357081032E+02  0.91631431142E+02 -0.10386219863E+02  0.21264026320E+03  0.17300000000E+03 0.  1.
<mgrwt>
<rscale>  2 0.21238646E+03</rscale>
<asrwt>0</asrwt>
<pdfrwt beam="1">  1       21 0.19368813E-01 0.21238646E+03</pdfrwt>
<pdfrwt beam="2">  1       21 0.87196456E-01 0.21238646E+03</pdfrwt>
<totfact> 0.27387371E+04</totfact>
</mgrwt>
</event>
<event>
 4    1  0.4332500E+000  0.2049929E+03  0.7546771E-02  0.1145594E+00
         21   -1    0    0  501  502  0.00000000000E+00  0.00000000000E+00  0.50793610631E+03  0.50793610631E+03  0.00000000000E+00 0. -1.
         21   -1    0    0  502  503 -0.00000000000E+00 -0.00000000000E+00 -0.13976222107E+03  0.13976222107E+03  0.00000000000E+00 0. -1.
          6    1    1    2  501    0  0.39458066185E+02 -0.10264574248E+03  0.39096004504E+03  0.44144291166E+03  0.17300000000E+03 0. -1.
         -6    1    1    2    0  503 -0.39458066185E+02  0.10264574248E+03 -0.22786159803E+02  0.20625541572E+03  0.17300000000E+03 0. -1.
<mgrwt>
<rscale>  2 0.20499290E+03</rscale>
<asrwt>0</asrwt>
<pdfrwt beam="1">  1       21 0.78144016E-01 0.20499290E+03</pdfrwt>
<pdfrwt beam="2">  1       21 0.21501880E-01 0.20499290E+03</pdfrwt>
<totfact> 0.29023134E+04</totfact>
</mgrwt>
</event>
<event>
 4    1  0.4332500E+000  0.1749719E+03  0.7546771E-02  0.1172760E+00
         21   -1    0    0  501  502  0.00000000000E+00  0.00000000000E+00  0.53849205395E+03  0.53849205395E+03  0.00000000000E+00 0.  1.
         21   -1    0    0  502  503 -0.00000000000E+00 -0.00000000000E+00 -0.25870024464E+03  0.25870024464E+03  0.00000000000E+00 0.  1.
          6    1    1    2  501    0 -0.18109415817E+02 -0.18926612283E+02  0.49197929268E+03  0.52216739846E+03  0.17300000000E+03 0.  1.
         -6    1    1    2    0  503  0.18109415817E+02  0.18926612283E+02 -0.21218748337E+03  0.27502490013E+03  0.17300000000E+03 0.  1.
<mgrwt>
<rscale>  2 0.17497191E+03</rscale>
<asrwt>0</asrwt>
<pdfrwt beam="1">  1       21 0.82844931E-01 0.17497191E+03</pdfrwt>
<pdfrwt beam="2">  1       21 0.39800038E-01 0.17497191E+03</pdfrwt>
<totfact> 0.78333579E+03</totfact>
</mgrwt>
</event>
<event>
 4    1  0.4332500E+000  0.2136654E+03  0.7546771E-02  0.1138696E+00
         21   -1    0    0  503  502  0.00000000000E+00  0.00000000000E+00  0.72770376493E+03  0.72770376493E+03  0.00000000000E+00 0.  1.
         21   -1    0    0  501  503 -0.00000000000E+00 -0.00000000000E+00 -0.68702128479E+02  0.68702128479E+02  0.00000000000E+00 0.  1.
          6    1    1    2  501    0  0.10981964303E+03  0.60527094507E+02  0.21215092724E+03  0.30109948371E+03  0.17300000000E+03 0.  1.
         -6    1    1    2    0  502 -0.10981964303E+03 -0.60527094507E+02  0.44685070921E+03  0.49530640970E+03  0.17300000000E+03 0.  1.
<mgrwt>
<rscale>  2 0.21366535E+03</rscale>
<asrwt>0</asrwt>
<pdfrwt beam="1">  1       21 0.11195442E+00 0.21366535E+03</pdfrwt>
<pdfrwt beam="2">  1       21 0.10569559E-01 0.21366535E+03</pdfrwt>
<totfact> 0.45533758E+04</totfact>
</mgrwt>
</event>
<event>
 4    1  0.4332500E+000  0.3742553E+03  0.7546771E-02  0.1053078E+00
         21   -1    0    0  501  502  0.00000000000E+00  0.00000000000E+00  0.42233478946E+03  0.42233478946E+03  0.00000000000E+00 0.  1.
         21   -1    0    0  502  503 -0.00000000000E+00 -0.00000000000E+00 -0.40759750308E+03  0.40759750308E+03  0.00000000000E+00 0.  1.
          6    1    1    2  501    0 -0.99384519558E+02 -0.31663980017E+03 -0.17175610965E+03  0.41178538947E+03  0.17300000000E+03 0.  1.
         -6    1    1    2    0  503  0.99384519558E+02  0.31663980017E+03  0.18649339603E+03  0.41814690307E+03  0.17300000000E+03 0.  1.
<mgrwt>
<rscale>  2 0.37425532E+03</rscale>
<asrwt>0</asrwt>
<pdfrwt beam="1">  1       21 0.64974584E-01 0.37425532E+03</pdfrwt>
<pdfrwt beam="2">  1       21 0.62707308E-01 0.37425532E+03</pdfrwt>
<totfact> 0.46410256E+03</totfact>
</mgrwt>
</event>
<event>
 4    1  0.4332500E+000  0.1882378E+03  0.7546771E-02  0.1160060E+00
         21   -1    0    0  503  502  0.00000000000E+00  0.00000000000E+00  0.16369704746E+03  0.16369704746E+03  0.00000000000E+00 0. -1.
         21   -1    0    0  501  503 -0.00000000000E+00 -0.00000000000E+00 -0.26764367994E+03  0.26764367994E+03  0.00000000000E+00 0.  1.
          6    1    1    2  501    0 -0.53882561199E+02  0.51001491360E+02 -0.14628979662E+03  0.23839921795E+03  0.17300000000E+03 0.  1.
         -6    1    1    2    0  502  0.53882561199E+02 -0.51001491360E+02  0.42343164131E+02  0.19294150946E+03  0.17300000000E+03 0. -1.
<mgrwt>
<rscale>  2 0.18823783E+03</rscale>
<asrwt>0</asrwt>
<pdfrwt beam="1">  1       21 0.25184161E-01 0.18823783E+03</pdfrwt>
<pdfrwt beam="2">  1       21 0.41175950E-01 0.18823783E+03</pdfrwt>
<totfact> 0.84990559E+04</totfact>
</mgrwt>
</event>
<event>
 4    1  0.4332500E+000  0.2112874E+03  0.7546771E-02  0.1140551E+00
         21   -1    0    0  503  502  0.00000000000E+00  0.00000000000E+00  0.22667306201E+03  0.22667306201E+03  0.00000000000E+00 0.  1.
         21   -1    0    0  501  503 -0.00000000000E+00 -0.00000000000E+00 -0.37073110086E+03  0.37073110086E+03  0.00000000000E+00 0.  1.
          6    1    1    2  501    0  0.85190011589E+02  0.86348275948E+02 -0.27653921014E+03  0.34801766849E+03  0.17300000000E+03 0.  1.
         -6    1    1    2    0  502 -0.85190011589E+02 -0.86348275948E+02  0.13248117129E+03  0.24938649438E+03  0.17300000000E+03 0.  1.
<mgrwt>
<rscale>  2 0.21128739E+03</rscale>
<asrwt>0</asrwt>
<pdfrwt beam="1">  1       21 0.34872779E-01 0.21128739E+03</pdfrwt>
<pdfrwt beam="2">  1       21 0.57035553E-01 0.21128739E+03</pdfrwt>
<totfact> 0.22643829E+04</totfact>
</mgrwt>
</event>
<event>
 4    1  0.4332500E+000  0.1743560E+03  0.7546771E-02  0.1173380E+00
         21   -1    0    0  501  502  0.00000000000E+00  0.00000000000E+00  0.32510639538E+03  0.32510639538E+03  0.00000000000E+00 0. -1.
         21   -1    0    0  502  503 -0.00000000000E+00 -0.00000000000E+00 -0.15652901598E+03  0.15652901598E+03  0.00000000000E+00 0. -1.
          6    1    1    2  501    0  0.20899450913E+02 -0.58503373251E+01  0.23709245692E+03  0.29430060588E+03  0.17300000000E+03 0. -1.
         -6    1    1    2    0  503 -0.20899450913E+02  0.58503373251E+01 -0.68515077519E+02  0.18733480548E+03  0.17300000000E+03 0. -1.
<mgrwt>
<rscale>  2 0.17435600E+03</rscale>
<asrwt>0</asrwt>
<pdfrwt beam="1">  1       21 0.50016368E-01 0.17435600E+03</pdfrwt>
<pdfrwt beam="2">  1       21 0.24081387E-01 0.17435600E+03</pdfrwt>
<totfact> 0.62449270E+04</totfact>
</mgrwt>
</event>
<event>
 4    1  0.4332500E+000  0.3141091E+03  0.7546771E-02  0.1078393E+00
         21   -1    0    0  501  502  0.00000000000E+00  0.00000000000E+00  0.91092924797E+02  0.91092924797E+02  0.00000000000E+00 0.  1.
         21   -1    0    0  502  503 -0.00000000000E+00 -0.00000000000E+00 -0.26369458360E+04  0.26369458360E+04  0.00000000000E+00 0. -1.
          6    1    1    2  501    0  0.21026756796E+03 -0.15659843086E+03 -0.22586738788E+03  0.38688576556E+03  0.17300000000E+03 0.  1.
         -6    1    1    2    0  503 -0.21026756796E+03  0.15659843086E+03 -0.23199855233E+04  0.23411529952E+04  0.17300000000E+03 0. -1.
<mgrwt>
<rscale>  2 0.31410909E+03</rscale>
<asrwt>0</asrwt>
<pdfrwt beam="1">  1       21 0.14014298E-01 0.31410909E+03</pdfrwt>
<pdfrwt beam="2">  1       21 0.40568392E+00 0.31410909E+03</pdfrwt>
<totfact> 0.30475225E+02</totfact>
</mgrwt>
</event>
<event>
 4    1  0.4332500E+000  0.1737897E+03  0.7546771E-02  0.1173952E+00
         21   -1    0    0  501  502  0.00000000000E+00  0.00000000000E+00  0.70616911550E+02  0.70616911550E+02  0.00000000000E+00 0.  1.
         21   -1    0    0  502  503 -0.00000000000E+00 -0.00000000000E+00 -0.49060591500E+03  0.49060591500E+03  0.00000000000E+00 0.  1.
          6    1    1    2  501    0 -0.45710185983E+01 -0.15905216878E+02 -0.10951352481E+03  0.20541684997E+03  0.17300000000E+03 0.  1.
         -6    1    1    2    0  503  0.45710185983E+01  0.15905216878E+02 -0.31047547864E+03  0.35580597658E+03  0.17300000000E+03 0.  1.
<mgrwt>
<rscale>  2 0.17378973E+03</rscale>
<asrwt>0</asrwt>
<pdfrwt beam="1">  1       21 0.10864140E-01 0.17378973E+03</pdfrwt>
<pdfrwt beam="2">  1       21 0.75477836E-01 0.17378973E+03</pdfrwt>
<totfact> 0.11062302E+05</totfact>
</mgrwt>
</event>
<event>
 4    1  0.4332500E+000  0.2102958E+03  0.7546771E-02  0.1141332E+00
         21   -1    0    0  503  502  0.00000000000E+00  0.00000000000E+00  0.39691536030E+03  0.39691536030E+03  0.00000000000E+00 0.  1.
         21   -1    0    0  501  503 -0.00000000000E+00 -0.00000000000E+00 -0.13373327557E+03  0.13373327557E+03  0.00000000000E+00 0.  1.
          6    1    1    2  501    0  0.83663380511E+01 -0.11927004941E+03  0.23213768265E+02  0.21157320089E+03  0.17300000000E+03 0.  1.
         -6    1    1    2    0  502 -0.83663380511E+01  0.11927004941E+03  0.23996831647E+03  0.31907543498E+03  0.17300000000E+03 0.  1.
<mgrwt>
<rscale>  2 0.21029584E+03</rscale>
<asrwt>0</asrwt>
<pdfrwt beam="1">  1       21 0.61063901E-01 0.21029584E+03</pdfrwt>
<pdfrwt beam="2">  1       21 0.20574350E-01 0.21029584E+03</pdfrwt>
<totfact> 0.54165926E+04</totfact>
</mgrwt>
</event>
<event>
 4    1  0.4332500E+000  0.1947203E+03  0.7546771E-02  0.1154271E+00
         21   -1    0    0  501  502  0.00000000000E+00  0.00000000000E+00  0.29670159975E+03  0.29670159975E+03  0.00000000000E+00 0. -1.
         21   -1    0    0  502  503 -0.00000000000E+00 -0.00000000000E+00 -0.13060361662E+03  0.13060361662E+03  0.00000000000E+00 0. -1.
          6    1    1    2  501    0  0.81568686730E+02 -0.36517988030E+02  0.51699635822E+02  0.20146678746E+03  0.17300000000E+03 0. -1.
         -6    1    1    2    0  503 -0.81568686730E+02  0.36517988030E+02  0.11439834731E+03  0.22583842891E+03  0.17300000000E+03 0. -1.
<mgrwt>
<rscale>  2 0.19472035E+03</rscale>
<asrwt>0</asrwt>
<pdfrwt beam="1">  1       21 0.45646400E-01 0.19472035E+03</pdfrwt>
<pdfrwt beam="2">  1       21 0.20092864E-01 0.19472035E+03</pdfrwt>
<totfact> 0.10522594E+05</totfact>
</mgrwt>
</event>
<event>
 4    1  0.4332500E+000  0.1859816E+03  0.7546771E-02  0.1162136E+00
         21   -1    0    0  503  502  0.00000000000E+00  0.00000000000E+00  0.50358032811E+02  0.50358032811E+02  0.00000000000E+00 0. -1.
         21   -1    0    0  501  503 -0.00000000000E+00 -0.00000000000E+00 -0.92714018009E+03  0.92714018009E+03  0.00000000000E+00 0. -1.
          6    1    1    2  501    0 -0.35656724864E+02 -0.58213101327E+02 -0.68720104704E+03  0.71192306203E+03  0.17300000000E+03 0. -1.
         -6    1    1    2    0  502  0.35656724864E+02  0.58213101327E+02 -0.18958110024E+03  0.26557515088E+03  0.17300000000E+03 0. -1.
<mgrwt>
<rscale>  2 0.18598163E+03</rscale>
<asrwt>0</asrwt>
<pdfrwt beam="1">  1       21 0.77473902E-02 0.18598163E+03</pdfrwt>
<pdfrwt beam="2">  1       21 0.14263694E+00 0.18598163E+03</pdfrwt>
<totfact> 0.43424513E+04</totfact>
</mgrwt>
</event>
<event>
 4    1  0.4332500E+000  0.2228514E+03  0.7546771E-02  0.1131775E+00
         21   -1    0    0  501  502  0.00000000000E+00  0.00000000000E+00  0.67104453787E+02  0.67104453787E+02  0.00000000000E+00 0. -1.
         21   -1    0    0  502  503 -0.00000000000E+00 -0.00000000000E+00 -0.85643077814E+03  0.85643077814E+03  0.00000000000E+00 0.  1.
          6    1    1    2  501    0 -0.74064191655E+02  0.11936603296E+03 -0.22446319271E+03  0.31630124753E+03  0.17300000000E+03 0. -1.
         -6    1    1    2    0  503  0.74064191655E+02 -0.11936603296E+03 -0.56486313164E+03  0.60723398439E+03  0.17300000000E+03 0.  1.
<mgrwt>
<rscale>  2 0.22285142E+03</rscale>
<asrwt>0</asrwt>
<pdfrwt beam="1">  1       21 0.10323762E-01 0.22285142E+03</pdfrwt>
<pdfrwt beam="2">  1       21 0.13175858E+00 0.22285142E+03</pdfrwt>
<totfact> 0.31493322E+04</totfact>
</mgrwt>
</event>
<event>
 4    1  0.4332500E+000  0.2669730E+03  0.7546771E-02  0.1103025E+00
         21   -1    0    0  503  502  0.00000000000E+00  0.00000000000E+00  0.55347776331E+03  0.55347776331E+03  0.00000000000E+00 0.  1.
         21   -1    0    0  501  503 -0.00000000000E+00 -0.00000000000E+00 -0.14234487370E+03  0.14234487370E+03  0.00000000000E+00 0. -1.
          6    1    1    2  501    0 -0.55989359589E+02 -0.19547574942E+03  0.98149765191E+02  0.28444323406E+03  0.17300000000E+03 0. -1.
         -6    1    1    2    0  502  0.55989359589E+02  0.19547574942E+03  0.31298312442E+03  0.41137940295E+03  0.17300000000E+03 0.  1.
<mgrwt>
<rscale>  2 0.26697299E+03</rscale>
<asrwt>0</asrwt>
<pdfrwt beam="1">  1       21 0.85150424E-01 0.26697299E+03</pdfrwt>
<pdfrwt beam="2">  1       21 0.21899212E-01 0.26697299E+03</pdfrwt>
<totfact> 0.22348920E+04</totfact>
</mgrwt>
</event>
<event>
 4    1  0.4332500E+000  0.1915514E+03  0.7546771E-02  0.1157069E+00
         21   -1    0    0  501  502  0.00000000000E+00  0.00000000000E+00  0.25425231311E+03  0.25425231311E+03  0.00000000000E+00 0. -1.
         21   -1    0    0  502  503 -0.00000000000E+00 -0.00000000000E+00 -0.14450402003E+03  0.14450402003E+03  0.00000000000E+00 0. -1.
          6    1    1    2  501    0  0.56882514324E+02 -0.59391385315E+02  0.47628374910E+02  0.19738393851E+03  0.17300000000E+03 0.  1.
         -6    1    1    2    0  503 -0.56882514324E+02  0.59391385315E+02  0.62119918170E+02  0.20137239463E+03  0.17300000000E+03 0.  1.
<mgrwt>
<rscale>  2 0.19155145E+03</rscale>
<asrwt>0</asrwt>
<pdfrwt beam="1">  1       21 0.39115740E-01 0.19155145E+03</pdfrwt>
<pdfrwt beam="2">  1       21 0.22231388E-01 0.19155145E+03</pdfrwt>
<totfact> 0.11931103E+05</totfact>
</mgrwt>
</event>
<event>
 4    1  0.4332500E+000  0.2880181E+03  0.7546771E-02  0.1091388E+00
         21   -1    0    0  503  502  0.00000000000E+00  0.00000000000E+00  0.69908466482E+03  0.69908466482E+03  0.00000000000E+00 0. -1.
         21   -1    0    0  501  503 -0.00000000000E+00 -0.00000000000E+00 -0.27273890556E+03  0.27273890556E+03  0.00000000000E+00 0. -1.
          6    1    1    2  501    0  0.51781773934E+02 -0.22437485153E+03 -0.15204613639E+03  0.32568766280E+03  0.17300000000E+03 0. -1.
         -6    1    1    2    0  502 -0.51781773934E+02  0.22437485153E+03  0.57839189565E+03  0.64613590758E+03  0.17300000000E+03 0. -1.
<mgrwt>
<rscale>  2 0.28801810E+03</rscale>
<asrwt>0</asrwt>
<pdfrwt beam="1">  1       21 0.10755149E+00 0.28801810E+03</pdfrwt>
<pdfrwt beam="2">  1       21 0.41959832E-01 0.28801810E+03</pdfrwt>
<totfact> 0.35269725E+03</totfact>
</mgrwt>
</event>
<event>
 4    1  0.4332500E+000  0.2083165E+03  0.7546771E-02  0.1142906E+00
         21   -1    0    0  503  502  0.00000000000E+00  0.00000000000E+00  0.37547431859E+02  0.37547431859E+02  0.00000000000E+00 0.  1.
         21   -1    0    0  501  503 -0.00000000000E+00 -0.00000000000E+00 -0.11751566568E+04  0.11751566568E+04  0.00000000000E+00 0.  1.
          6    1    1    2  501    0 -0.11604388411E+03 -0.75428406229E+00 -0.49090045473E+03  0.53327198355E+03  0.17300000000E+03 0.  1.
         -6    1    1    2    0  502  0.11604388411E+03  0.75428406229E+00 -0.64670877018E+03  0.67943210508E+03  0.17300000000E+03 0.  1.
<mgrwt>
<rscale>  2 0.20831647E+03</rscale>
<asrwt>0</asrwt>
<pdfrwt beam="1">  1       21 0.57765282E-02 0.20831647E+03</pdfrwt>
<pdfrwt beam="2">  1       21 0.18079333E+00 0.20831647E+03</pdfrwt>
<totfact> 0.37432039E+04</totfact>
</mgrwt>
</event>
<event>
 4    1  0.4332500E+000  0.1850356E+03  0.7546771E-02  0.1163017E+00
         21   -1    0    0  503  502  0.00000000000E+00  0.00000000000E+00  0.32155135001E+03  0.32155135001E+03  0.00000000000E+00 0. -1.
         21   -1    0    0  501  503 -0.00000000000E+00 -0.00000000000E+00 -0.11104162644E+03  0.11104162644E+03  0.00000000000E+00 0. -1.
          6    1    1    2  501    0 -0.35897348097E+02 -0.54959628483E+02  0.61406202407E+02  0.19495871885E+03  0.17300000000E+03 0. -1.
         -6    1    1    2    0  502  0.35897348097E+02  0.54959628483E+02  0.14910352116E+03  0.23763425760E+03  0.17300000000E+03 0. -1.
<mgrwt>
<rscale>  2 0.18503562E+03</rscale>
<asrwt>0</asrwt>
<pdfrwt beam="1">  1       21 0.49469438E-01 0.18503562E+03</pdfrwt>
<pdfrwt beam="2">  1       21 0.17083327E-01 0.18503562E+03</pdfrwt>
<totfact> 0.12078056E+05</totfact>
</mgrwt>
</event>
<event>
 4    1  0.4332500E+000  0.1736809E+03  0.7546771E-02  0.1174063E+00
         21   -1    0    0  501  502  0.00000000000E+00  0.00000000000E+00  0.28919959974E+03  0.28919959974E+03  0.00000000000E+00 0.  1.
         21   -1    0    0  502  503 -0.00000000000E+00 -0.00000000000E+00 -0.14986278302E+03  0.14986278302E+03  0.00000000000E+00 0.  1.
          6    1    1    2  501    0  0.91835023293E+01 -0.12317176641E+02  0.19070849408E+03  0.25794336446E+03  0.17300000000E+03 0.  1.
         -6    1    1    2    0  503 -0.91835023293E+01  0.12317176641E+02 -0.51371677359E+02  0.18111901830E+03  0.17300000000E+03 0.  1.
<mgrwt>
<rscale>  2 0.17368088E+03</rscale>
<asrwt>0</asrwt>
<pdfrwt beam="1">  1       21 0.44492246E-01 0.17368088E+03</pdfrwt>
<pdfrwt beam="2">  1       21 0.23055813E-01 0.17368088E+03</pdfrwt>
<totfact> 0.86347196E+04</totfact>
</mgrwt>
</event>
<event>
 4    1  0.4332500E+000  0.2923127E+03  0.7546771E-02  0.1089148E+00
         21   -1    0    0  501  502  0.00000000000E+00  0.00000000000E+00  0.69988963710E+02  0.69988963710E+02  0.00000000000E+00 0. -1.
         21   -1    0    0  502  503 -0.00000000000E+00 -0.00000000000E+00 -0.12851761150E+04  0.12851761150E+04  0.00000000000E+00 0. -1.
          6    1    1    2  501    0  0.22807070448E+03  0.59173254224E+02 -0.75917328617E+03  0.81350525425E+03  0.17300000000E+03 0. -1.
         -6    1    1    2    0  503 -0.22807070448E+03 -0.59173254224E+02 -0.45601386514E+03  0.54165982448E+03  0.17300000000E+03 0. -1.
<mgrwt>
<rscale>  2 0.29231271E+03</rscale>
<asrwt>0</asrwt>
<pdfrwt beam="1">  1       21 0.10767535E-01 0.29231271E+03</pdfrwt>
<pdfrwt beam="2">  1       21 0.19771937E+00 0.29231271E+03</pdfrwt>
<totfact> 0.92226032E+03</totfact>
</mgrwt>
</event>
<event>
 4    1  0.4332500E+000  0.1800083E+03  0.7546771E-02  0.1167795E+00
         21   -1    0    0  501  502  0.00000000000E+00  0.00000000000E+00  0.97686241427E+02  0.97686241427E+02  0.00000000000E+00 0. -1.
         21   -1    0    0  502  503 -0.00000000000E+00 -0.00000000000E+00 -0.40495397534E+03  0.40495397534E+03  0.00000000000E+00 0. -1.
          6    1    1    2  501    0  0.39169509560E+02 -0.30655376628E+02 -0.46746704091E+02  0.18597918415E+03  0.17300000000E+03 0. -1.
         -6    1    1    2    0  503 -0.39169509560E+02  0.30655376628E+02 -0.26052102982E+03  0.31666103261E+03  0.17300000000E+03 0. -1.
<mgrwt>
<rscale>  2 0.18000834E+03</rscale>
<asrwt>0</asrwt>
<pdfrwt beam="1">  1       21 0.15028652E-01 0.18000834E+03</pdfrwt>
<pdfrwt beam="2">  1       21 0.62300612E-01 0.18000834E+03</pdfrwt>
<totfact> 0.93874239E+04</totfact>
</mgrwt>
</event>
<event>
 4    1  0.4332500E+000  0.2620662E+03  0.7546771E-02  0.1105908E+00
         21   -1    0    0  503  502  0.00000000000E+00  0.00000000000E+00  0.11050749643E+04  0.11050749643E+04  0.00000000000E+00 0.  1.
         21   -1    0    0  501  503 -0.00000000000E+00 -0.00000000000E+00 -0.23496897142E+03  0.23496897142E+03  0.00000000000E+00 0. -1.
          6    1    1    2  501    0  0.19673156629E+03  0.68093451235E+01 -0.13956796209E+03  0.29691394780E+03  0.17300000000E+03 0. -1.
         -6    1    1    2    0  502 -0.19673156629E+03 -0.68093451235E+01  0.10096739550E+04  0.10431299880E+04  0.17300000000E+03 0.  1.
<mgrwt>
<rscale>  2 0.26206617E+03</rscale>
<asrwt>0</asrwt>
<pdfrwt beam="1">  1       21 0.17001153E+00 0.26206617E+03</pdfrwt>
<pdfrwt beam="2">  1       21 0.36149073E-01 0.26206617E+03</pdfrwt>
<totfact> 0.14801018E+03</totfact>
</mgrwt>
</event>
<event>
 4    1  0.4332500E+000  0.1818175E+03  0.7546771E-02  0.1166056E+00
         21   -1    0    0  501  502  0.00000000000E+00  0.00000000000E+00  0.21045168816E+03  0.21045168816E+03  0.00000000000E+00 0.  1.
         21   -1    0    0  502  503 -0.00000000000E+00 -0.00000000000E+00 -0.16080768335E+03  0.16080768335E+03  0.00000000000E+00 0.  1.
          6    1    1    2  501    0 -0.14818898312E+02 -0.53935157273E+02  0.53087401392E+02  0.18940927412E+03  0.17300000000E+03 0. -1.
         -6    1    1    2    0  503  0.14818898312E+02  0.53935157273E+02 -0.34433965796E+01  0.18185009738E+03  0.17300000000E+03 0. -1.
<mgrwt>
<rscale>  2 0.18181749E+03</rscale>
<asrwt>0</asrwt>
<pdfrwt beam="1">  1       21 0.32377183E-01 0.18181749E+03</pdfrwt>
<pdfrwt beam="2">  1       21 0.24739643E-01 0.18181749E+03</pdfrwt>
<totfact> 0.14233275E+05</totfact>
</mgrwt>
</event>
<event>
 4    1  0.4332500E+000  0.2020320E+03  0.7546771E-02  0.1148036E+00
         21   -1    0    0  501  502  0.00000000000E+00  0.00000000000E+00  0.91191052722E+03  0.91191052722E+03  0.00000000000E+00 0. -1.
         21   -1    0    0  502  503 -0.00000000000E+00 -0.00000000000E+00 -0.53900602595E+02  0.53900602595E+02  0.00000000000E+00 0. -1.
          6    1    1    2  501    0 -0.89567380582E+02 -0.53531281942E+02  0.62786982744E+03  0.65957367596E+03  0.17300000000E+03 0. -1.
         -6    1    1    2    0  503  0.89567380582E+02  0.53531281942E+02  0.23014009718E+03  0.30623745385E+03  0.17300000000E+03 0. -1.
<mgrwt>
<rscale>  2 0.20203196E+03</rscale>
<asrwt>0</asrwt>
<pdfrwt beam="1">  1       21 0.14029392E+00 0.20203196E+03</pdfrwt>
<pdfrwt beam="2">  1       21 0.82924011E-02 0.20203196E+03</pdfrwt>
<totfact> 0.39900043E+04</totfact>
</mgrwt>
</event>
<event>
 4    1  0.4332500E+000  0.3672719E+03  0.7546771E-02  0.1055741E+00
         21   -1    0    0  503  502  0.00000000000E+00  0.00000000000E+00  0.58623936673E+03  0.58623936673E+03  0.00000000000E+00 0. -1.
         21   -1    0    0  501  503 -0.00000000000E+00 -0.00000000000E+00 -0.23652678520E+03  0.23652678520E+03  0.00000000000E+00 0.  1.
          6    1    1    2  501    0  0.31660295567E+03  0.68718354168E+02  0.24271305102E+03  0.44022524788E+03  0.17300000000E+03 0. -1.
         -6    1    1    2    0  502 -0.31660295567E+03 -0.68718354168E+02  0.10699953052E+03  0.38254090405E+03  0.17300000000E+03 0. -1.
<mgrwt>
<rscale>  2 0.36727189E+03</rscale>
<asrwt>0</asrwt>
<pdfrwt beam="1">  1       21 0.90190671E-01 0.36727189E+03</pdfrwt>
<pdfrwt beam="2">  1       21 0.36388736E-01 0.36727189E+03</pdfrwt>
<totfact> 0.69305956E+03</totfact>
</mgrwt>
</event>
<event>
 4    1  0.4332500E+000  0.1918406E+03  0.7546771E-02  0.1156812E+00
         21   -1    0    0  501  502  0.00000000000E+00  0.00000000000E+00  0.89469582530E+02  0.89469582530E+02  0.00000000000E+00 0. -1.
         21   -1    0    0  502  503 -0.00000000000E+00 -0.00000000000E+00 -0.41173636416E+03  0.41173636416E+03  0.00000000000E+00 0. -1.
          6    1    1    2  501    0 -0.41964376932E+02 -0.71503920855E+02 -0.16886466286E+03  0.25557404796E+03  0.17300000000E+03 0. -1.
         -6    1    1    2    0  503  0.41964376932E+02  0.71503920855E+02 -0.15340211876E+03  0.24563189872E+03  0.17300000000E+03 0. -1.
<mgrwt>
<rscale>  2 0.19184061E+03</rscale>
<asrwt>0</asrwt>
<pdfrwt beam="1">  1       21 0.13764551E-01 0.19184061E+03</pdfrwt>
<pdfrwt beam="2">  1       21 0.63344057E-01 0.19184061E+03</pdfrwt>
<totfact> 0.10572759E+05</totfact>
</mgrwt>
</event>
<event>
 4    1  0.4332500E+000  0.2167065E+03  0.7546771E-02  0.1136363E+00
         21   -1    0    0  503  502  0.00000000000E+00  0.00000000000E+00  0.15617342827E+03  0.15617342827E+03  0.00000000000E+00 0. -1.
         21   -1    0    0  501  503 -0.00000000000E+00 -0.00000000000E+00 -0.41651086936E+03  0.41651086936E+03  0.00000000000E+00 0. -1.
          6    1    1    2  501    0  0.68762965249E+02 -0.11092494228E+03 -0.28115681666E+03  0.35498006108E+03  0.17300000000E+03 0. -1.
         -6    1    1    2    0  502 -0.68762965249E+02  0.11092494228E+03  0.20819375573E+02  0.21770423654E+03  0.17300000000E+03 0. -1.
<mgrwt>
<rscale>  2 0.21670646E+03</rscale>
<asrwt>0</asrwt>
<pdfrwt beam="1">  1       21 0.24026681E-01 0.21670646E+03</pdfrwt>
<pdfrwt beam="2">  1       21 0.64078595E-01 0.21670646E+03</pdfrwt>
<totfact> 0.36273638E+04</totfact>
</mgrwt>
</event>
<event>
 4    1  0.4332500E+000  0.2136924E+03  0.7546771E-02  0.1138675E+00
         21   -1    0    0  501  502  0.00000000000E+00  0.00000000000E+00  0.34878113822E+03  0.34878113822E+03  0.00000000000E+00 0. -1.
         21   -1    0    0  502  503 -0.00000000000E+00 -0.00000000000E+00 -0.13128332402E+03  0.13128332402E+03  0.00000000000E+00 0.  1.
          6    1    1    2  501    0  0.11153938859E+03  0.57396928169E+02  0.96222412967E+02  0.23435698267E+03  0.17300000000E+03 0.  1.
         -6    1    1    2    0  503 -0.11153938859E+03 -0.57396928169E+02  0.12127540123E+03  0.24570747957E+03  0.17300000000E+03 0. -1.
<mgrwt>
<rscale>  2 0.21369240E+03</rscale>
<asrwt>0</asrwt>
<pdfrwt beam="1">  1       21 0.53658636E-01 0.21369240E+03</pdfrwt>
<pdfrwt beam="2">  1       21 0.20197435E-01 0.21369240E+03</pdfrwt>
<totfact> 0.73794165E+04</totfact>
</mgrwt>
</event>
<event>
 4    1  0.4332500E+000  0.2204233E+03  0.7546771E-02  0.1133568E+00
         21   -1    0    0  503  502  0.00000000000E+00  0.00000000000E+00  0.14338450179E+03  0.14338450179E+03  0.00000000000E+00 0. -1.
         21   -1    0    0  501  503 -0.00000000000E+00 -0.00000000000E+00 -0.73275902760E+03  0.73275902760E+03  0.00000000000E+00 0.  1.
          6    1    1    2  501    0 -0.30461979758E+02  0.13315216562E+03 -0.61587603907E+03  0.65413280526E+03  0.17300000000E+03 0.  1.
         -6    1    1    2    0  502  0.30461979758E+02 -0.13315216562E+03  0.26501513258E+02  0.22201072412E+03  0.17300000000E+03 0. -1.
<mgrwt>
<rscale>  2 0.22042330E+03</rscale>
<asrwt>0</asrwt>
<pdfrwt beam="1">  1       21 0.22059153E-01 0.22042330E+03</pdfrwt>
<pdfrwt beam="2">  1       21 0.11273216E+00 0.22042330E+03</pdfrwt>
<totfact> 0.11599587E+04</totfact>
</mgrwt>
</event>
<event>
 4    1  0.4332500E+000  0.1755035E+03  0.7546771E-02  0.1172227E+00
         21   -1    0    0  501  502  0.00000000000E+00  0.00000000000E+00  0.19362574317E+03  0.19362574317E+03  0.00000000000E+00 0.  1.
         21   -1    0    0  502  503 -0.00000000000E+00 -0.00000000000E+00 -0.20655984568E+03  0.20655984568E+03  0.00000000000E+00 0.  1.
          6    1    1    2  501    0  0.13770276139E+02  0.26131486392E+02  0.89467522561E+02  0.19699216400E+03  0.17300000000E+03 0.  1.
         -6    1    1    2    0  503 -0.13770276139E+02 -0.26131486392E+02 -0.10240162507E+03  0.20319342485E+03  0.17300000000E+03 0.  1.
<mgrwt>
<rscale>  2 0.17550349E+03</rscale>
<asrwt>0</asrwt>
<pdfrwt beam="1">  1       21 0.29788576E-01 0.17550349E+03</pdfrwt>
<pdfrwt beam="2">  1       21 0.31778437E-01 0.17550349E+03</pdfrwt>
<totfact> 0.10352962E+05</totfact>
</mgrwt>
</event>
<event>
 4    1  0.4332500E+000  0.2263182E+03  0.7546771E-02  0.1129258E+00
         21   -1    0    0  503  502  0.00000000000E+00  0.00000000000E+00  0.48180749670E+02  0.48180749670E+02  0.00000000000E+00 0. -1.
         21   -1    0    0  501  503 -0.00000000000E+00 -0.00000000000E+00 -0.11156117553E+04  0.11156117553E+04  0.00000000000E+00 0. -1.
          6    1    1    2  501    0  0.14512309055E+03  0.15172746079E+02 -0.65998713264E+03  0.69771264779E+03  0.17300000000E+03 0. -1.
         -6    1    1    2    0  502 -0.14512309055E+03 -0.15172746079E+02 -0.40744387300E+03  0.46607985720E+03  0.17300000000E+03 0. -1.
<mgrwt>
<rscale>  2 0.22631819E+03</rscale>
<asrwt>0</asrwt>
<pdfrwt beam="1">  1       21 0.74124231E-02 0.22631819E+03</pdfrwt>
<pdfrwt beam="2">  1       21 0.17163258E+00 0.22631819E+03</pdfrwt>
<totfact> 0.27866402E+04</totfact>
</mgrwt>
</event>
<event>
 4    1  0.4332500E+000  0.2041885E+03  0.7546771E-02  0.1146253E+00
         21   -1    0    0  503  502  0.00000000000E+00  0.00000000000E+00  0.17876908745E+03  0.17876908745E+03  0.00000000000E+00 0.  1.
         21   -1    0    0  501  503 -0.00000000000E+00 -0.00000000000E+00 -0.36375761376E+03  0.36375761376E+03  0.00000000000E+00 0. -1.
          6    1    1    2  501    0  0.10568568314E+03  0.24381689048E+02 -0.25499268699E+03  0.32667139575E+03  0.17300000000E+03 0. -1.
         -6    1    1    2    0  502 -0.10568568314E+03 -0.24381689048E+02  0.70004160686E+02  0.21585530546E+03  0.17300000000E+03 0.  1.
<mgrwt>
<rscale>  2 0.20418847E+03</rscale>
<asrwt>0</asrwt>
<pdfrwt beam="1">  1       21 0.27502937E-01 0.20418847E+03</pdfrwt>
<pdfrwt beam="2">  1       21 0.55962709E-01 0.20418847E+03</pdfrwt>
<totfact> 0.37692373E+04</totfact>
</mgrwt>
</event>
<event>
 4    1  0.4332500E+000  0.1867185E+03  0.7546771E-02  0.1161455E+00
         21   -1    0    0  503  502  0.00000000000E+00  0.00000000000E+00  0.46654762662E+03  0.46654762662E+03  0.00000000000E+00 0.  1.
         21   -1    0    0  501  503 -0.00000000000E+00 -0.00000000000E+00 -0.68398607983E+03  0.68398607983E+03  0.00000000000E+00 0. -1.
          6    1    1    2  501    0  0.62687362323E+02 -0.31703194615E+02 -0.65165274363E+03  0.67787542825E+03  0.17300000000E+03 0. -1.
         -6    1    1    2    0  502 -0.62687362323E+02  0.31703194615E+02  0.43421429043E+03  0.47265827820E+03  0.17300000000E+03 0.  1.
<mgrwt>
<rscale>  2 0.18671850E+03</rscale>
<asrwt>0</asrwt>
<pdfrwt beam="1">  1       21 0.71776558E-01 0.18671850E+03</pdfrwt>
<pdfrwt beam="2">  1       21 0.10522863E+00 0.18671850E+03</pdfrwt>
<totfact> 0.12816631E+03</totfact>
</mgrwt>
</event>
<event>
 4    1  0.4332500E+000  0.1731329E+03  0.7546771E-02  0.1174620E+00
         21   -1    0    0  503  502  0.00000000000E+00  0.00000000000E+00  0.59002358863E+02  0.59002358863E+02  0.00000000000E+00 0. -1.
         21   -1    0    0  501  503 -0.00000000000E+00 -0.00000000000E+00 -0.87317853897E+03  0.87317853897E+03  0.00000000000E+00 0. -1.
          6    1    1    2  501    0 -0.56378263350E+01  0.37683001600E+01 -0.70849506019E+03  0.72934233079E+03  0.17300000000E+03 0. -1.
         -6    1    1    2    0  502  0.56378263350E+01 -0.37683001600E+01 -0.10568111992E+03  0.20283856704E+03  0.17300000000E+03 0. -1.
<mgrwt>
<rscale>  2 0.17313285E+03</rscale>
<asrwt>0</asrwt>
<pdfrwt beam="1">  1       21 0.90772864E-02 0.17313285E+03</pdfrwt>
<pdfrwt beam="2">  1       21 0.13433515E+00 0.17313285E+03</pdfrwt>
<totfact> 0.38714396E+04</totfact>
</mgrwt>
</event>
<event>
 4    1  0.4332500E+000  0.2275390E+03  0.7546771E-02  0.1128384E+00
         21   -1    0    0  503  502  0.00000000000E+00  0.00000000000E+00  0.14602079149E+03  0.14602079149E+03  0.00000000000E+00 0. -1.
         21   -1    0    0  501  503 -0.00000000000E+00 -0.00000000000E+00 -0.36389226470E+03  0.36389226470E+03  0.00000000000E+00 0.  1.
          6    1    1    2  501    0  0.85097851809E+02  0.12084432646E+03 -0.68119255532E+02  0.23751679645E+03  0.17300000000E+03 0. -1.
         -6    1    1    2    0  502 -0.85097851809E+02 -0.12084432646E+03 -0.14975221768E+03  0.27239625974E+03  0.17300000000E+03 0.  1.
<mgrwt>
<rscale>  2 0.22753900E+03</rscale>
<asrwt>0</asrwt>
<pdfrwt beam="1">  1       21 0.22464737E-01 0.22753900E+03</pdfrwt>
<pdfrwt beam="2">  1       21 0.55983426E-01 0.22753900E+03</pdfrwt>
<totfact> 0.54864984E+04</totfact>
</mgrwt>
</event>
<event>
 4    1  0.4332500E+000  0.2097054E+03  0.7546771E-02  0.1141800E+00
         21   -1    0    0  501  502  0.00000000000E+00  0.00000000000E+00  0.20895944406E+03  0.20895944406E+03  0.00000000000E+00 0. -1.
         21   -1    0    0  502  503 -0.00000000000E+00 -0.00000000000E+00 -0.24138491827E+03  0.24138491827E+03  0.00000000000E+00 0. -1.
          6    1    1    2  501    0  0.11666847941E+03  0.20876117425E+02  0.64391194485E+02  0.21936857636E+03  0.17300000000E+03 0. -1.
         -6    1    1    2    0  503 -0.11666847941E+03 -0.20876117425E+02 -0.96816668696E+02  0.23097578597E+03  0.17300000000E+03 0. -1.
<mgrwt>
<rscale>  2 0.20970538E+03</rscale>
<asrwt>0</asrwt>
<pdfrwt beam="1">  1       21 0.32147607E-01 0.20970538E+03</pdfrwt>
<pdfrwt beam="2">  1       21 0.37136141E-01 0.20970538E+03</pdfrwt>
<totfact> 0.64592682E+04</totfact>
</mgrwt>
</event>
<event>
 4    1  0.4332500E+000  0.1828191E+03  0.7546771E-02  0.1165102E+00
         21   -1    0    0  501  502  0.00000000000E+00  0.00000000000E+00  0.83299512498E+03  0.83299512498E+03  0.00000000000E+00 0. -1.
         21   -1    0    0  502  503 -0.00000000000E+00 -0.00000000000E+00 -0.27584992423E+03  0.27584992423E+03  0.00000000000E+00 0. -1.
          6    1    1    2  501    0  0.52986540969E+02 -0.26196303038E+02  0.79108976052E+03  0.81193954764E+03  0.17300000000E+03 0. -1.
         -6    1    1    2    0  503 -0.52986540969E+02  0.26196303038E+02 -0.23394455978E+03  0.29690550158E+03  0.17300000000E+03 0. -1.
<mgrwt>
<rscale>  2 0.18281909E+03</rscale>
<asrwt>0</asrwt>
<pdfrwt beam="1">  1       21 0.12815310E+00 0.18281909E+03</pdfrwt>
<pdfrwt beam="2">  1       21 0.42438450E-01 0.18281909E+03</pdfrwt>
<totfact> 0.24157866E+03</totfact>
</mgrwt>
</event>
<event>
 4    1  0.4332500E+000  0.1926753E+03  0.7546771E-02  0.1156070E+00
         21   -1    0    0  503  502  0.00000000000E+00  0.00000000000E+00  0.64280700148E+02  0.64280700148E+02  0.00000000000E+00 0. -1.
         21   -1    0    0  501  503 -0.00000000000E+00 -0.00000000000E+00 -0.71748056217E+03  0.71748056217E+03  0.00000000000E+00 0.  1.
          6    1    1    2  501    0  0.82083063426E+02  0.21380839970E+02 -0.49923648410E+03  0.53512693510E+03  0.17300000000E+03 0.  1.
         -6    1    1    2    0  502 -0.82083063426E+02 -0.21380839970E+02 -0.15396337793E+03  0.24663432722E+03  0.17300000000E+03 0. -1.
<mgrwt>
<rscale>  2 0.19267530E+03</rscale>
<asrwt>0</asrwt>
<pdfrwt beam="1">  1       21 0.98893385E-02 0.19267530E+03</pdfrwt>
<pdfrwt beam="2">  1       21 0.11038162E+00 0.19267530E+03</pdfrwt>
<totfact> 0.53598978E+04</totfact>
</mgrwt>
</event>
<event>
 4    1  0.4332500E+000  0.2024006E+03  0.7546771E-02  0.1147729E+00
         21   -1    0    0  503  502  0.00000000000E+00  0.00000000000E+00  0.19748367242E+04  0.19748367242E+04  0.00000000000E+00 0.  1.
         21   -1    0    0  501  503 -0.00000000000E+00 -0.00000000000E+00 -0.21464160451E+02  0.21464160451E+02  0.00000000000E+00 0.  1.
          6    1    1    2  501    0 -0.10463043617E+03 -0.94594516496E+01  0.79385342934E+03  0.81924921524E+03  0.17300000000E+03 0.  1.
         -6    1    1    2    0  502  0.10463043617E+03  0.94594516496E+01  0.11595191344E+04  0.11770516694E+04  0.17300000000E+03 0.  1.
<mgrwt>
<rscale>  2 0.20240062E+03</rscale>
<asrwt>0</asrwt>
<pdfrwt beam="1">  1       21 0.30382089E+00 0.20240062E+03</pdfrwt>
<pdfrwt beam="2">  1       21 0.33021801E-02 0.20240062E+03</pdfrwt>
<totfact> 0.17340385E+04</totfact>
</mgrwt>
</event>
<event>
 4    1  0.4332500E+000  0.2393931E+03  0.7546771E-02  0.1120198E+00
         21   -1    0    0  503  502  0.00000000000E+00  0.00000000000E+00  0.13510817126E+03  0.13510817126E+03  0.00000000000E+00 0.  1.
         21   -1    0    0  501  503 -0.00000000000E+00 -0.00000000000E+00 -0.43953523109E+03  0.43953523109E+03  0.00000000000E+00 0. -1.
          6    1    1    2  501    0 -0.95776044082E+02  0.13493339928E+03 -0.20593106061E+03  0.31577947145E+03  0.17300000000E+03 0.  1.
         -6    1    1    2    0  502  0.95776044082E+02 -0.13493339928E+03 -0.98495999211E+02  0.25886393090E+03  0.17300000000E+03 0.  1.
<mgrwt>
<rscale>  2 0.23939313E+03</rscale>
<asrwt>0</asrwt>
<pdfrwt beam="1">  1       21 0.20785872E-01 0.23939313E+03</pdfrwt>
<pdfrwt beam="2">  1       21 0.67620806E-01 0.23939313E+03</pdfrwt>
<totfact> 0.41986024E+04</totfact>
</mgrwt>
</event>
<event>
 4    1  0.4332500E+000  0.2567197E+03  0.7546771E-02  0.1109130E+00
         21   -1    0    0  503  502  0.00000000000E+00  0.00000000000E+00  0.20438241330E+04  0.20438241330E+04  0.00000000000E+00 0.  1.
         21   -1    0    0  501  503 -0.00000000000E+00 -0.00000000000E+00 -0.40317458197E+02  0.40317458197E+02  0.00000000000E+00 0.  1.
          6    1    1    2  501    0 -0.14767007087E+01 -0.18966764226E+03  0.53549272359E+03  0.59384968821E+03  0.17300000000E+03 0.  1.
         -6    1    1    2    0  502  0.14767007087E+01  0.18966764226E+03  0.14680139512E+04  0.14902919030E+04  0.17300000000E+03 0.  1.
<mgrwt>
<rscale>  2 0.25671968E+03</rscale>
<asrwt>0</asrwt>
<pdfrwt beam="1">  1       21 0.31443440E+00 0.25671968E+03</pdfrwt>
<pdfrwt beam="2">  1       21 0.62026875E-02 0.25671968E+03</pdfrwt>
<totfact> 0.49127094E+03</totfact>
</mgrwt>
</event>
<event>
 4    1  0.4332500E+000  0.1736938E+03  0.7546771E-02  0.1174050E+00
         21   -1    0    0  501  502  0.00000000000E+00  0.00000000000E+00  0.28556181495E+03  0.28556181495E+03  0.00000000000E+00 0.  1.
         21   -1    0    0  502  503 -0.00000000000E+00 -0.00000000000E+00 -0.14805678401E+03  0.14805678401E+03  0.00000000000E+00 0.  1.
          6    1    1    2  501    0  0.15426726117E+02 -0.16014229255E+01  0.18478576295E+03  0.25360466601E+03  0.17300000000E+03 0.  1.
         -6    1    1    2    0  503 -0.15426726117E+02  0.16014229255E+01 -0.47280732013E+02  0.18001393294E+03  0.17300000000E+03 0.  1.
<mgrwt>
<rscale>  2 0.17369384E+03</rscale>
<asrwt>0</asrwt>
<pdfrwt beam="1">  1       21 0.43932587E-01 0.17369384E+03</pdfrwt>
<pdfrwt beam="2">  1       21 0.22777967E-01 0.17369384E+03</pdfrwt>
<totfact> 0.90660203E+04</totfact>
</mgrwt>
</event>
<event>
 4    1  0.4332500E+000  0.2650507E+03  0.7546771E-02  0.1104146E+00
         21   -1    0    0  501  502  0.00000000000E+00  0.00000000000E+00  0.23389625706E+03  0.23389625706E+03  0.00000000000E+00 0. -1.
         21   -1    0    0  502  503 -0.00000000000E+00 -0.00000000000E+00 -0.34385299294E+03  0.34385299294E+03  0.00000000000E+00 0. -1.
          6    1    1    2  501    0 -0.15024601359E+03 -0.13322535123E+03 -0.15772289519E+03  0.30842887426E+03  0.17300000000E+03 0. -1.
         -6    1    1    2    0  503  0.15024601359E+03  0.13322535123E+03  0.47766159313E+02  0.26932037573E+03  0.17300000000E+03 0. -1.
<mgrwt>
<rscale>  2 0.26505067E+03</rscale>
<asrwt>0</asrwt>
<pdfrwt beam="1">  1       21 0.35984039E-01 0.26505067E+03</pdfrwt>
<pdfrwt beam="2">  1       21 0.52900461E-01 0.26505067E+03</pdfrwt>
<totfact> 0.24307281E+04</totfact>
</mgrwt>
</event>
<event>
 4    1  0.4332500E+000  0.1978719E+03  0.7546771E-02  0.1151547E+00
         21   -1    0    0  501  502  0.00000000000E+00  0.00000000000E+00  0.34467425566E+03  0.34467425566E+03  0.00000000000E+00 0. -1.
         21   -1    0    0  502  503 -0.00000000000E+00 -0.00000000000E+00 -0.19610955226E+03  0.19610955226E+03  0.00000000000E+00 0. -1.
          6    1    1    2  501    0  0.77162655526E+02  0.57185671097E+02  0.24967425889E+03  0.31857575542E+03  0.17300000000E+03 0. -1.
         -6    1    1    2    0  503 -0.77162655526E+02 -0.57185671097E+02 -0.10110955549E+03  0.22220805250E+03  0.17300000000E+03 0. -1.
<mgrwt>
<rscale>  2 0.19787187E+03</rscale>
<asrwt>0</asrwt>
<pdfrwt beam="1">  1       21 0.53026809E-01 0.19787187E+03</pdfrwt>
<pdfrwt beam="2">  1       21 0.30170700E-01 0.19787187E+03</pdfrwt>
<totfact> 0.35408822E+04</totfact>
</mgrwt>
</event>
<event>
 4    1  0.4332500E+000  0.2325795E+03  0.7546771E-02  0.1124837E+00
         21   -1    0    0  501  502  0.00000000000E+00  0.00000000000E+00  0.24765424506E+03  0.24765424506E+03  0.00000000000E+00 0.  1.
         21   -1    0    0  502  503 -0.00000000000E+00 -0.00000000000E+00 -0.30574196753E+03  0.30574196753E+03  0.00000000000E+00 0.  1.
          6    1    1    2  501    0 -0.14309140608E+03  0.60737629801E+02  0.11882771150E+03  0.26117663599E+03  0.17300000000E+03 0.  1.
         -6    1    1    2    0  503  0.14309140608E+03 -0.60737629801E+02 -0.17691543397E+03  0.29221957659E+03  0.17300000000E+03 0.  1.
<mgrwt>
<rscale>  2 0.23257947E+03</rscale>
<asrwt>0</asrwt>
<pdfrwt beam="1">  1       21 0.38100653E-01 0.23257947E+03</pdfrwt>
<pdfrwt beam="2">  1       21 0.47037226E-01 0.23257947E+03</pdfrwt>
<totfact> 0.28137067E+04</totfact>
</mgrwt>
</event>
<event>
 4    1  0.4332500E+000  0.1748459E+03  0.7546771E-02  0.1172887E+00
         21   -1    0    0  501  502  0.00000000000E+00  0.00000000000E+00  0.31194707999E+03  0.31194707999E+03  0.00000000000E+00 0.  1.
         21   -1    0    0  502  503 -0.00000000000E+00 -0.00000000000E+00 -0.19194931269E+03  0.19194931269E+03  0.00000000000E+00 0.  1.
          6    1    1    2  501    0 -0.19688827495E+02 -0.15950891826E+02  0.23626254944E+03  0.29392358386E+03  0.17300000000E+03 0.  1.
         -6    1    1    2    0  503  0.19688827495E+02  0.15950891826E+02 -0.11626478215E+03  0.20997280883E+03  0.17300000000E+03 0.  1.
<mgrwt>
<rscale>  2 0.17484588E+03</rscale>
<asrwt>0</asrwt>
<pdfrwt beam="1">  1       21 0.47991859E-01 0.17484588E+03</pdfrwt>
<pdfrwt beam="2">  1       21 0.29530663E-01 0.17484588E+03</pdfrwt>
<totfact> 0.45992767E+04</totfact>
</mgrwt>
</event>
<event>
 4    1  0.4332500E+000  0.1753728E+03  0.7546771E-02  0.1172358E+00
         21   -1    0    0  503  502  0.00000000000E+00  0.00000000000E+00  0.29443612901E+04  0.29443612901E+04  0.00000000000E+00 0. -1.
         21   -1    0    0  501  503 -0.00000000000E+00 -0.00000000000E+00 -0.14492210546E+03  0.14492210546E+03  0.00000000000E+00 0. -1.
          6    1    1    2  501    0 -0.34815732213E+01 -0.28539163095E+02 -0.88214356407E+02  0.19630939320E+03  0.17300000000E+03 0. -1.
         -6    1    1    2    0  502  0.34815732213E+01  0.28539163095E+02  0.28876535411E+04  0.28929740024E+04  0.17300000000E+03 0. -1.
<mgrwt>
<rscale>  2 0.17537276E+03</rscale>
<asrwt>0</asrwt>
<pdfrwt beam="1">  1       21 0.45297862E+00 0.17537276E+03</pdfrwt>
<pdfrwt beam="2">  1       21 0.22295711E-01 0.17537276E+03</pdfrwt>
<totfact> 0.77500614E+01</totfact>
</mgrwt>
</event>
<event>
 4    1  0.4332500E+000  0.1751278E+03  0.7546771E-02  0.1172603E+00
         21   -1    0    0  503  502  0.00000000000E+00  0.00000000000E+00  0.12203181759E+04  0.12203181759E+04  0.00000000000E+00 0.  1.
         21   -1    0    0  501  503 -0.00000000000E+00 -0.00000000000E+00 -0.37392607633E+02  0.37392607633E+02  0.00000000000E+00 0.  1.
          6    1    1    2  501    0  0.11482512159E+02 -0.24675513421E+02  0.95154681108E+03  0.96752832657E+03  0.17300000000E+03 0.  1.
         -6    1    1    2    0  502 -0.11482512159E+02  0.24675513421E+02  0.23137875718E+03  0.29018245695E+03  0.17300000000E+03 0.  1.
<mgrwt>
<rscale>  2 0.17512775E+03</rscale>
<asrwt>0</asrwt>
<pdfrwt beam="1">  1       21 0.18774123E+00 0.17512775E+03</pdfrwt>
<pdfrwt beam="2">  1       21 0.57527098E-02 0.17512775E+03</pdfrwt>
<totfact> 0.34617397E+04</totfact>
</mgrwt>
</event>
<event>
 4    1  0.4332500E+000  0.2053831E+03  0.7546771E-02  0.1145275E+00
         21   -1    0    0  501  502  0.00000000000E+00  0.00000000000E+00  0.32945637416E+03  0.32945637416E+03  0.00000000000E+00 0. -1.
         21   -1    0    0  502  503 -0.00000000000E+00 -0.00000000000E+00 -0.13555294227E+03  0.13555294227E+03  0.00000000000E+00 0. -1.
          6    1    1    2  501    0  0.10035106607E+03 -0.46721487358E+02  0.15170390861E+03  0.25533568049E+03  0.17300000000E+03 0.  1.
         -6    1    1    2    0  503 -0.10035106607E+03  0.46721487358E+02  0.42199523279E+02  0.20967363594E+03  0.17300000000E+03 0.  1.
<mgrwt>
<rscale>  2 0.20538314E+03</rscale>
<asrwt>0</asrwt>
<pdfrwt beam="1">  1       21 0.50685596E-01 0.20538314E+03</pdfrwt>
<pdfrwt beam="2">  1       21 0.20854299E-01 0.20538314E+03</pdfrwt>
<totfact> 0.78618864E+04</totfact>
</mgrwt>
</event>
<event>
 4    1  0.4332500E+000  0.2014020E+03  0.7546771E-02  0.1148561E+00
         21   -1    0    0  503  502  0.00000000000E+00  0.00000000000E+00  0.17608273879E+03  0.17608273879E+03  0.00000000000E+00 0. -1.
         21   -1    0    0  501  503 -0.00000000000E+00 -0.00000000000E+00 -0.25090721857E+03  0.25090721857E+03  0.00000000000E+00 0. -1.
          6    1    1    2  501    0 -0.39868397567E+02  0.95101483320E+02 -0.98504459852E+02  0.22420060184E+03  0.17300000000E+03 0. -1.
         -6    1    1    2    0  502  0.39868397567E+02 -0.95101483320E+02  0.23679980077E+02  0.20278935552E+03  0.17300000000E+03 0. -1.
<mgrwt>
<rscale>  2 0.20140204E+03</rscale>
<asrwt>0</asrwt>
<pdfrwt beam="1">  1       21 0.27089652E-01 0.20140204E+03</pdfrwt>
<pdfrwt beam="2">  1       21 0.38601111E-01 0.20140204E+03</pdfrwt>
<totfact> 0.83727558E+04</totfact>
</mgrwt>
</event>
<event>
 4    1  0.4332500E+000  0.1840216E+03  0.7546771E-02  0.1163967E+00
         21   -1    0    0  501  502  0.00000000000E+00  0.00000000000E+00  0.14488435437E+03  0.14488435437E+03  0.00000000000E+00 0. -1.
         21   -1    0    0  502  503 -0.00000000000E+00 -0.00000000000E+00 -0.28239709203E+03  0.28239709203E+03  0.00000000000E+00 0. -1.
          6    1    1    2  501    0  0.26515865803E+02  0.56849524091E+02  0.19932136396E+02  0.18509794594E+03  0.17300000000E+03 0. -1.
         -6    1    1    2    0  503 -0.26515865803E+02 -0.56849524091E+02 -0.15744487405E+03  0.24218350046E+03  0.17300000000E+03 0. -1.
<mgrwt>
<rscale>  2 0.18402163E+03</rscale>
<asrwt>0</asrwt>
<pdfrwt beam="1">  1       21 0.22289901E-01 0.18402163E+03</pdfrwt>
<pdfrwt beam="2">  1       21 0.43445706E-01 0.18402163E+03</pdfrwt>
<totfact> 0.96218303E+04</totfact>
</mgrwt>
</event>
<event>
 4    1  0.4332500E+000  0.1950710E+03  0.7546771E-02  0.1153965E+00
         21   -1    0    0  501  502  0.00000000000E+00  0.00000000000E+00  0.30307377300E+03  0.30307377300E+03  0.00000000000E+00 0. -1.
         21   -1    0    0  502  503 -0.00000000000E+00 -0.00000000000E+00 -0.12584145347E+03  0.12584145347E+03  0.00000000000E+00 0.  1.
          6    1    1    2  501    0  0.53999827681E+02  0.72164619206E+02  0.98831195829E+02  0.21867857445E+03  0.17300000000E+03 0. -1.
         -6    1    1    2    0  503 -0.53999827681E+02 -0.72164619206E+02  0.78401123699E+02  0.21023665202E+03  0.17300000000E+03 0. -1.
<mgrwt>
<rscale>  2 0.19507105E+03</rscale>
<asrwt>0</asrwt>
<pdfrwt beam="1">  1       21 0.46626734E-01 0.19507105E+03</pdfrwt>
<pdfrwt beam="2">  1       21 0.19360224E-01 0.19507105E+03</pdfrwt>
<totfact> 0.10792871E+05</totfact>
</mgrwt>
</event>
<event>
 4    1  0.4332500E+000  0.2074698E+03  0.7546771E-02  0.1143585E+00
         21   -1    0    0  501  502  0.00000000000E+00  0.00000000000E+00  0.60725622295E+02  0.60725622295E+02  0.00000000000E+00 0.  1.
         21   -1    0    0  502  503 -0.00000000000E+00 -0.00000000000E+00 -0.88850934198E+03  0.88850934198E+03  0.00000000000E+00 0. -1.
          6    1    1    2  501    0 -0.43403864435E+02 -0.10597558026E+03 -0.20045459840E+03  0.28848876075E+03  0.17300000000E+03 0. -1.
         -6    1    1    2    0  503  0.43403864435E+02  0.10597558026E+03 -0.62732912128E+03  0.66074620352E+03  0.17300000000E+03 0. -1.
<mgrwt>
<rscale>  2 0.20746980E+03</rscale>
<asrwt>0</asrwt>
<pdfrwt beam="1">  1       21 0.93424032E-02 0.20746980E+03</pdfrwt>
<pdfrwt beam="2">  1       21 0.13669375E+00 0.20746980E+03</pdfrwt>
<totfact> 0.34510887E+04</totfact>
</mgrwt>
</event>
<event>
 4    1  0.4332500E+000  0.2068995E+03  0.7546771E-02  0.1144045E+00
         21   -1    0    0  501  502  0.00000000000E+00  0.00000000000E+00  0.27214354765E+04  0.27214354765E+04  0.00000000000E+00 0.  1.
         21   -1    0    0  502  503 -0.00000000000E+00 -0.00000000000E+00 -0.15881922122E+02  0.15881922122E+02  0.00000000000E+00 0. -1.
          6    1    1    2  501    0  0.90680965307E+02 -0.68230189793E+02  0.14867646213E+04  0.15010917478E+04  0.17300000000E+03 0. -1.
         -6    1    1    2    0  503 -0.90680965307E+02  0.68230189793E+02  0.12187889331E+04  0.12362256508E+04  0.17300000000E+03 0. -1.
<mgrwt>
<rscale>  2 0.20689948E+03</rscale>
<asrwt>0</asrwt>
<pdfrwt beam="1">  1       21 0.41868201E+00 0.20689948E+03</pdfrwt>
<pdfrwt beam="2">  1       21 0.24433748E-02 0.20689948E+03</pdfrwt>
<totfact> 0.57879265E+03</totfact>
</mgrwt>
</event>
<event>
 4    1  0.4332500E+000  0.2032349E+03  0.7546771E-02  0.1147038E+00
         21   -1    0    0  503  502  0.00000000000E+00  0.00000000000E+00  0.19083876567E+03  0.19083876567E+03  0.00000000000E+00 0. -1.
         21   -1    0    0  501  503 -0.00000000000E+00 -0.00000000000E+00 -0.32315952761E+03  0.32315952761E+03  0.00000000000E+00 0.  1.
          6    1    1    2  501    0 -0.31442646169E+02 -0.10191550810E+03 -0.21385101228E+03  0.29501977263E+03  0.17300000000E+03 0.  1.
         -6    1    1    2    0  502  0.31442646169E+02  0.10191550810E+03  0.81530250333E+02  0.21897852066E+03  0.17300000000E+03 0. -1.
<mgrwt>
<rscale>  2 0.20323487E+03</rscale>
<asrwt>0</asrwt>
<pdfrwt beam="1">  1       21 0.29359810E-01 0.20323487E+03</pdfrwt>
<pdfrwt beam="2">  1       21 0.49716850E-01 0.20323487E+03</pdfrwt>
<totfact> 0.42620333E+04</totfact>
</mgrwt>
</event>
<event>
 4    1  0.4332500E+000  0.2572373E+03  0.7546771E-02  0.1108815E+00
         21   -1    0    0  501  502  0.00000000000E+00  0.00000000000E+00  0.30589309230E+03  0.30589309230E+03  0.00000000000E+00 0. -1.
         21   -1    0    0  502  503 -0.00000000000E+00 -0.00000000000E+00 -0.23227279044E+03  0.23227279044E+03  0.00000000000E+00 0. -1.
          6    1    1    2  501    0 -0.45598102401E+02  0.18483197015E+03  0.10732720885E+03  0.27872957126E+03  0.17300000000E+03 0. -1.
         -6    1    1    2    0  503  0.45598102401E+02 -0.18483197015E+03 -0.33706906990E+02  0.25943631148E+03  0.17300000000E+03 0. -1.
<mgrwt>
<rscale>  2 0.25723733E+03</rscale>
<asrwt>0</asrwt>
<pdfrwt beam="1">  1       21 0.47060476E-01 0.25723733E+03</pdfrwt>
<pdfrwt beam="2">  1       21 0.35734275E-01 0.25723733E+03</pdfrwt>
<totfact> 0.31620197E+04</totfact>
</mgrwt>
</event>
<event>
 4    1  0.4332500E+000  0.1866531E+03  0.7546771E-02  0.1161515E+00
         21   -1    0    0  503  502  0.00000000000E+00  0.00000000000E+00  0.72687806533E+02  0.72687806533E+02  0.00000000000E+00 0.  1.
         21   -1    0    0  501  503 -0.00000000000E+00 -0.00000000000E+00 -0.47939041019E+03  0.47939041019E+03  0.00000000000E+00 0.  1.
          6    1    1    2  501    0 -0.69624508889E+02  0.79248286576E+01 -0.20711042701E+03  0.27880836451E+03  0.17300000000E+03 0.  1.
         -6    1    1    2    0  502  0.69624508889E+02 -0.79248286576E+01 -0.19959217665E+03  0.27326985221E+03  0.17300000000E+03 0.  1.
<mgrwt>
<rscale>  2 0.18665309E+03</rscale>
<asrwt>0</asrwt>
<pdfrwt beam="1">  1       21 0.11182739E-01 0.18665309E+03</pdfrwt>
<pdfrwt beam="2">  1       21 0.73752372E-01 0.18665309E+03</pdfrwt>
<totfact> 0.11009543E+05</totfact>
</mgrwt>
</event>
<event>
 4    1  0.4332500E+000  0.1820135E+03  0.7546771E-02  0.1165869E+00
         21   -1    0    0  503  502  0.00000000000E+00  0.00000000000E+00  0.27662195497E+03  0.27662195497E+03  0.00000000000E+00 0.  1.
         21   -1    0    0  501  503 -0.00000000000E+00 -0.00000000000E+00 -0.12404681748E+03  0.12404681748E+03  0.00000000000E+00 0.  1.
          6    1    1    2  501    0  0.19666186671E+01  0.56533490951E+02  0.39056141661E+02  0.18615661522E+03  0.17300000000E+03 0.  1.
         -6    1    1    2    0  502 -0.19666186671E+01 -0.56533490951E+02  0.11351899582E+03  0.21451215723E+03  0.17300000000E+03 0.  1.
<mgrwt>
<rscale>  2 0.18201347E+03</rscale>
<asrwt>0</asrwt>
<pdfrwt beam="1">  1       21 0.42557224E-01 0.18201347E+03</pdfrwt>
<pdfrwt beam="2">  1       21 0.19084126E-01 0.18201347E+03</pdfrwt>
<totfact> 0.13428646E+05</totfact>
</mgrwt>
</event>
<event>
 4    1  0.4332500E+000  0.2010781E+03  0.7546771E-02  0.1148833E+00
         21   -1    0    0  501  502  0.00000000000E+00  0.00000000000E+00  0.83811844137E+03  0.83811844137E+03  0.00000000000E+00 0.  1.
         21   -1    0    0  502  503 -0.00000000000E+00 -0.00000000000E+00 -0.12084369398E+03  0.12084369398E+03  0.00000000000E+00 0. -1.
          6    1    1    2  501    0 -0.64752964580E+02 -0.79438426598E+02  0.73028657230E+03  0.75746345637E+03  0.17300000000E+03 0.  1.
         -6    1    1    2    0  503  0.64752964580E+02  0.79438426598E+02 -0.13011824910E+02  0.20149867898E+03  0.17300000000E+03 0. -1.
<mgrwt>
<rscale>  2 0.20107812E+03</rscale>
<asrwt>0</asrwt>
<pdfrwt beam="1">  1       21 0.12894129E+00 0.20107812E+03</pdfrwt>
<pdfrwt beam="2">  1       21 0.18591338E-01 0.20107812E+03</pdfrwt>
<totfact> 0.11598913E+04</totfact>
</mgrwt>
</event>
<event>
 4    1  0.4332500E+000  0.1800429E+03  0.7546771E-02  0.1167761E+00
         21   -1    0    0  503  502  0.00000000000E+00  0.00000000000E+00  0.53285977831E+03  0.53285977831E+03  0.00000000000E+00 0. -1.
         21   -1    0    0  501  503 -0.00000000000E+00 -0.00000000000E+00 -0.16062459010E+03  0.16062459010E+03  0.00000000000E+00 0. -1.
          6    1    1    2  501    0 -0.44132900643E+02 -0.23210995821E+02 -0.87187431709E+02  0.20004277416E+03  0.17300000000E+03 0. -1.
         -6    1    1    2    0  502  0.44132900643E+02  0.23210995821E+02  0.45942261992E+03  0.49344159425E+03  0.17300000000E+03 0. -1.
<mgrwt>
<rscale>  2 0.18004295E+03</rscale>
<asrwt>0</asrwt>
<pdfrwt beam="1">  1       21 0.81978427E-01 0.18004295E+03</pdfrwt>
<pdfrwt beam="2">  1       21 0.24711476E-01 0.18004295E+03</pdfrwt>
<totfact> 0.20306140E+04</totfact>
</mgrwt>
</event>
<event>
 4    1  0.4332500E+000  0.2497583E+03  0.7546771E-02  0.1113458E+00
         21   -1    0    0  503  502  0.00000000000E+00  0.00000000000E+00  0.14617105416E+04  0.14617105416E+04  0.00000000000E+00 0. -1.
         21   -1    0    0  501  503 -0.00000000000E+00 -0.00000000000E+00 -0.43180507187E+02  0.43180507187E+02  0.00000000000E+00 0.  1.
          6    1    1    2  501    0 -0.16370085013E+03  0.75181320662E+02  0.79063954414E+03  0.82915022045E+03  0.17300000000E+03 0. -1.
         -6    1    1    2    0  502  0.16370085013E+03 -0.75181320662E+02  0.62789049028E+03  0.67574082835E+03  0.17300000000E+03 0.  1.
<mgrwt>
<rscale>  2 0.24975828E+03</rscale>
<asrwt>0</asrwt>
<pdfrwt beam="1">  1       21 0.22487851E+00 0.24975828E+03</pdfrwt>
<pdfrwt beam="2">  1       21 0.66431561E-02 0.24975828E+03</pdfrwt>
<totfact> 0.14887801E+04</totfact>
</mgrwt>
</event>
<event>
 4    1  0.4332500E+000  0.1780364E+03  0.7546771E-02  0.1169717E+00
         21   -1    0    0  503  502  0.00000000000E+00  0.00000000000E+00  0.18373447250E+04  0.18373447250E+04  0.00000000000E+00 0. -1.
         21   -1    0    0  501  503 -0.00000000000E+00 -0.00000000000E+00 -0.22958136339E+02  0.22958136339E+02  0.00000000000E+00 0.  1.
          6    1    1    2  501    0  0.41976342404E+02 -0.24356457410E+01  0.44345219912E+03  0.47785646234E+03  0.17300000000E+03 0.  1.
         -6    1    1    2    0  502 -0.41976342404E+02  0.24356457410E+01  0.13709343895E+04  0.13824463990E+04  0.17300000000E+03 0. -1.
<mgrwt>
<rscale>  2 0.17803636E+03</rscale>
<asrwt>0</asrwt>
<pdfrwt beam="1">  1       21 0.28266830E+00 0.17803636E+03</pdfrwt>
<pdfrwt beam="2">  1       21 0.35320224E-02 0.17803636E+03</pdfrwt>
<totfact> 0.21022143E+04</totfact>
</mgrwt>
</event>
<event>
 4    1  0.4332500E+000  0.2082059E+03  0.7546771E-02  0.1142995E+00
         21   -1    0    0  503  502  0.00000000000E+00  0.00000000000E+00  0.46754687607E+03  0.46754687607E+03  0.00000000000E+00 0. -1.
         21   -1    0    0  501  503 -0.00000000000E+00 -0.00000000000E+00 -0.10437747442E+03  0.10437747442E+03  0.00000000000E+00 0. -1.
          6    1    1    2  501    0 -0.11535401574E+03  0.10683794862E+02  0.27716257944E+03  0.34665370020E+03  0.17300000000E+03 0. -1.
         -6    1    1    2    0  502  0.11535401574E+03 -0.10683794862E+02  0.86006822205E+02  0.22527065030E+03  0.17300000000E+03 0. -1.
<mgrwt>
<rscale>  2 0.20820589E+03</rscale>
<asrwt>0</asrwt>
<pdfrwt beam="1">  1       21 0.71930288E-01 0.20820589E+03</pdfrwt>
<pdfrwt beam="2">  1       21 0.16058073E-01 0.20820589E+03</pdfrwt>
<totfact> 0.59994175E+04</totfact>
</mgrwt>
</event>
<event>
 4    1  0.4332500E+000  0.2494570E+03  0.7546771E-02  0.1113648E+00
         21   -1    0    0  503  502  0.00000000000E+00  0.00000000000E+00  0.90437642681E+03  0.90437642681E+03  0.00000000000E+00 0. -1.
         21   -1    0    0  501  503 -0.00000000000E+00 -0.00000000000E+00 -0.60429618397E+03  0.60429618397E+03  0.00000000000E+00 0. -1.
          6    1    1    2  501    0 -0.23221159374E+02  0.17821502120E+03 -0.56005219610E+03  0.61309646743E+03  0.17300000000E+03 0. -1.
         -6    1    1    2    0  502  0.23221159374E+02 -0.17821502120E+03  0.86013243894E+03  0.89557614335E+03  0.17300000000E+03 0. -1.
<mgrwt>
<rscale>  2 0.24945704E+03</rscale>
<asrwt>0</asrwt>
<pdfrwt beam="1">  1       21 0.13913483E+00 0.24945704E+03</pdfrwt>
<pdfrwt beam="2">  1       21 0.92968644E-01 0.24945704E+03</pdfrwt>
<totfact> 0.33364766E+02</totfact>
</mgrwt>
</event>
<event>
 4    1  0.4332500E+000  0.2122017E+03  0.7546771E-02  0.1139834E+00
         21   -1    0    0  501  502  0.00000000000E+00  0.00000000000E+00  0.14744962513E+03  0.14744962513E+03  0.00000000000E+00 0. -1.
         21   -1    0    0  502  503 -0.00000000000E+00 -0.00000000000E+00 -0.32513208795E+03  0.32513208795E+03  0.00000000000E+00 0.  1.
          6    1    1    2  501    0  0.12203919227E+03 -0.14387956929E+02 -0.30615056517E+02  0.21439883265E+03  0.17300000000E+03 0. -1.
         -6    1    1    2    0  503 -0.12203919227E+03  0.14387956929E+02 -0.14706740630E+03  0.25818288043E+03  0.17300000000E+03 0.  1.
<mgrwt>
<rscale>  2 0.21220174E+03</rscale>
<asrwt>0</asrwt>
<pdfrwt beam="1">  1       21 0.22684558E-01 0.21220174E+03</pdfrwt>
<pdfrwt beam="2">  1       21 0.50020321E-01 0.21220174E+03</pdfrwt>
<totfact> 0.68760493E+04</totfact>
</mgrwt>
</event>
<event>
 4    1  0.4332500E+000  0.1797152E+03  0.7546771E-02  0.1168079E+00
         21   -1    0    0  503  502  0.00000000000E+00  0.00000000000E+00  0.26969642285E+02  0.26969642285E+02  0.00000000000E+00 0. -1.
         21   -1    0    0  501  503 -0.00000000000E+00 -0.00000000000E+00 -0.12149952759E+04  0.12149952759E+04  0.00000000000E+00 0.  1.
          6    1    1    2  501    0  0.31911905223E+02  0.36744626798E+02 -0.66841942248E+03  0.69215754105E+03  0.17300000000E+03 0.  1.
         -6    1    1    2    0  502 -0.31911905223E+02 -0.36744626798E+02 -0.51960621112E+03  0.54980737712E+03  0.17300000000E+03 0.  1.
<mgrwt>
<rscale>  2 0.17971516E+03</rscale>
<asrwt>0</asrwt>
<pdfrwt beam="1">  1       21 0.41491766E-02 0.17971516E+03</pdfrwt>
<pdfrwt beam="2">  1       21 0.18692231E+00 0.17971516E+03</pdfrwt>
<totfact> 0.60711243E+04</totfact>
</mgrwt>
</event>
<event>
 4    1  0.4332500E+000  0.2077023E+03  0.7546771E-02  0.1143399E+00
         21   -1    0    0  503  502  0.00000000000E+00  0.00000000000E+00  0.82516842584E+03  0.82516842584E+03  0.00000000000E+00 0.  1.
         21   -1    0    0  501  503 -0.00000000000E+00 -0.00000000000E+00 -0.84712728420E+02  0.84712728420E+02  0.00000000000E+00 0.  1.
          6    1    1    2  501    0 -0.61936888856E+02 -0.96824903878E+02  0.88734230538E+02  0.22586279880E+03  0.17300000000E+03 0.  1.
         -6    1    1    2    0  502  0.61936888856E+02  0.96824903878E+02  0.65172146688E+03  0.68401835546E+03  0.17300000000E+03 0.  1.
<mgrwt>
<rscale>  2 0.20770229E+03</rscale>
<asrwt>0</asrwt>
<pdfrwt beam="1">  1       21 0.12694898E+00 0.20770229E+03</pdfrwt>
<pdfrwt beam="2">  1       21 0.13032728E-01 0.20770229E+03</pdfrwt>
<totfact> 0.23002663E+04</totfact>
</mgrwt>
</event>
<event>
 4    1  0.4332500E+000  0.2212751E+03  0.7546771E-02  0.1132936E+00
         21   -1    0    0  503  502  0.00000000000E+00  0.00000000000E+00  0.20315617243E+02  0.20315617243E+02  0.00000000000E+00 0. -1.
         21   -1    0    0  501  503 -0.00000000000E+00 -0.00000000000E+00 -0.24227162904E+04  0.24227162904E+04  0.00000000000E+00 0. -1.
          6    1    1    2  501    0  0.37053844906E+00 -0.13796205555E+03 -0.11130515611E+04  0.11348332228E+04  0.17300000000E+03 0. -1.
         -6    1    1    2    0  502 -0.37053844906E+00  0.13796205555E+03 -0.12893491121E+04  0.13081986848E+04  0.17300000000E+03 0. -1.
<mgrwt>
<rscale>  2 0.22127509E+03</rscale>
<asrwt>0</asrwt>
<pdfrwt beam="1">  1       21 0.31254796E-02 0.22127509E+03</pdfrwt>
<pdfrwt beam="2">  1       21 0.37272558E+00 0.22127509E+03</pdfrwt>
<totfact> 0.73121382E+03</totfact>
</mgrwt>
</event>
<event>
 4    1  0.4332500E+000  0.2360068E+03  0.7546771E-02  0.1122482E+00
         21   -1    0    0  503  502  0.00000000000E+00  0.00000000000E+00  0.23965488411E+03  0.23965488411E+03  0.00000000000E+00 0. -1.
         21   -1    0    0  501  503 -0.00000000000E+00 -0.00000000000E+00 -0.51548362195E+03  0.51548362195E+03  0.00000000000E+00 0. -1.
          6    1    1    2  501    0  0.13341716495E+03  0.89275163441E+02 -0.41770661531E+03  0.47976870592E+03  0.17300000000E+03 0. -1.
         -6    1    1    2    0  502 -0.13341716495E+03 -0.89275163441E+02  0.14187787747E+03  0.27536980014E+03  0.17300000000E+03 0. -1.
<mgrwt>
<rscale>  2 0.23600677E+03</rscale>
<asrwt>0</asrwt>
<pdfrwt beam="1">  1       21 0.36869982E-01 0.23600677E+03</pdfrwt>
<pdfrwt beam="2">  1       21 0.79305172E-01 0.23600677E+03</pdfrwt>
<totfact> 0.96743443E+03</totfact>
</mgrwt>
</event>
<event>
 4    1  0.4332500E+000  0.1978961E+03  0.7546771E-02  0.1151526E+00
         21   -1    0    0  503  502  0.00000000000E+00  0.00000000000E+00  0.87859670333E+02  0.87859670333E+02  0.00000000000E+00 0.  1.
         21   -1    0    0  501  503 -0.00000000000E+00 -0.00000000000E+00 -0.57338695508E+03  0.57338695508E+03  0.00000000000E+00 0.  1.
          6    1    1    2  501    0 -0.94990091980E+02  0.14516573630E+02 -0.39875818171E+03  0.44516394279E+03  0.17300000000E+03 0.  1.
         -6    1    1    2    0  502  0.94990091980E+02 -0.14516573630E+02 -0.86769103034E+02  0.21608268261E+03  0.17300000000E+03 0.  1.
<mgrwt>
<rscale>  2 0.19789605E+03</rscale>
<asrwt>0</asrwt>
<pdfrwt beam="1">  1       21 0.13516872E-01 0.19789605E+03</pdfrwt>
<pdfrwt beam="2">  1       21 0.88213379E-01 0.19789605E+03</pdfrwt>
<totfact> 0.51999698E+04</totfact>
</mgrwt>
</event>
<event>
 4    1  0.4332500E+000  0.1881860E+03  0.7546771E-02  0.1160108E+00
         21   -1    0    0  501  502  0.00000000000E+00  0.00000000000E+00  0.23519632673E+03  0.23519632673E+03  0.00000000000E+00 0.  1.
         21   -1    0    0  502  503 -0.00000000000E+00 -0.00000000000E+00 -0.15064851741E+03  0.15064851741E+03  0.00000000000E+00 0.  1.
          6    1    1    2  501    0  0.66912150235E+02  0.31744547696E+02  0.46625333057E+02  0.19387592383E+03  0.17300000000E+03 0.  1.
         -6    1    1    2    0  503 -0.66912150235E+02 -0.31744547696E+02  0.37922476266E+02  0.19196892031E+03  0.17300000000E+03 0.  1.
<mgrwt>
<rscale>  2 0.18818595E+03</rscale>
<asrwt>0</asrwt>
<pdfrwt beam="1">  1       21 0.36184050E-01 0.18818595E+03</pdfrwt>
<pdfrwt beam="2">  1       21 0.23176695E-01 0.18818595E+03</pdfrwt>
<totfact> 0.12904301E+05</totfact>
</mgrwt>
</event>
<event>
 4    1  0.4332500E+000  0.2343335E+03  0.7546771E-02  0.1123626E+00
         21   -1    0    0  503  502  0.00000000000E+00  0.00000000000E+00  0.92320541362E+03  0.92320541362E+03  0.00000000000E+00 0. -1.
         21   -1    0    0  501  503 -0.00000000000E+00 -0.00000000000E+00 -0.59730156820E+02  0.59730156820E+02  0.00000000000E+00 0.  1.
          6    1    1    2  501    0 -0.16021774710E+02 -0.15724662080E+03  0.39992777000E+03  0.46352391333E+03  0.17300000000E+03 0.  1.
         -6    1    1    2    0  502  0.16021774710E+02  0.15724662080E+03  0.46354748680E+03  0.51941165711E+03  0.17300000000E+03 0.  1.
<mgrwt>
<rscale>  2 0.23433352E+03</rscale>
<asrwt>0</asrwt>
<pdfrwt beam="1">  1       21 0.14203159E+00 0.23433352E+03</pdfrwt>
<pdfrwt beam="2">  1       21 0.91892556E-02 0.23433352E+03</pdfrwt>
<totfact> 0.31697190E+04</totfact>
</mgrwt>
</event>
<event>
 4    1  0.4332500E+000  0.2315372E+03  0.7546771E-02  0.1125562E+00
         21   -1    0    0  501  502  0.00000000000E+00  0.00000000000E+00  0.34592529404E+03  0.34592529404E+03  0.00000000000E+00 0. -1.
         21   -1    0    0  502  503 -0.00000000000E+00 -0.00000000000E+00 -0.16615847438E+03  0.16615847438E+03  0.00000000000E+00 0. -1.
          6    1    1    2  501    0 -0.13703865041E+03  0.70006209567E+02  0.15631208881E+03  0.27936164767E+03  0.17300000000E+03 0. -1.
         -6    1    1    2    0  503  0.13703865041E+03 -0.70006209567E+02  0.23454730856E+02  0.23272212074E+03  0.17300000000E+03 0. -1.
<mgrwt>
<rscale>  2 0.23153717E+03</rscale>
<asrwt>0</asrwt>
<pdfrwt beam="1">  1       21 0.53219276E-01 0.23153717E+03</pdfrwt>
<pdfrwt beam="2">  1       21 0.25562842E-01 0.23153717E+03</pdfrwt>
<totfact> 0.47655978E+04</totfact>
</mgrwt>
</event>
<event>
 4    1  0.4332500E+000  0.4262072E+03  0.7546771E-02  0.1035065E+00
         21   -1    0    0  501  502  0.00000000000E+00  0.00000000000E+00  0.61586345503E+03  0.61586345503E+03  0.00000000000E+00 0. -1.
         21   -1    0    0  502  503 -0.00000000000E+00 -0.00000000000E+00 -0.31088619885E+03  0.31088619885E+03  0.00000000000E+00 0.  1.
          6    1    1    2  501    0  0.35797866995E+03  0.15354104812E+03  0.47596428822E+02  0.42885662130E+03  0.17300000000E+03 0.  1.
         -6    1    1    2    0  503 -0.35797866995E+03 -0.15354104812E+03  0.25738082736E+03  0.49789303258E+03  0.17300000000E+03 0. -1.
<mgrwt>
<rscale>  2 0.42620721E+03</rscale>
<asrwt>0</asrwt>
<pdfrwt beam="1">  1       21 0.94748223E-01 0.42620721E+03</pdfrwt>
<pdfrwt beam="2">  1       21 0.47828646E-01 0.42620721E+03</pdfrwt>
<totfact> 0.34258441E+03</totfact>
</mgrwt>
</event>
<event>
 4    1  0.4332500E+000  0.3341039E+03  0.7546771E-02  0.1069335E+00
         21   -1    0    0  503  502  0.00000000000E+00  0.00000000000E+00  0.18823313902E+03  0.18823313902E+03  0.00000000000E+00 0. -1.
         21   -1    0    0  501  503 -0.00000000000E+00 -0.00000000000E+00 -0.93653161618E+03  0.93653161618E+03  0.00000000000E+00 0.  1.
          6    1    1    2  501    0  0.35191109456E+02  0.28365119964E+03 -0.71474811180E+03  0.78898053244E+03  0.17300000000E+03 0.  1.
         -6    1    1    2    0  502 -0.35191109456E+02 -0.28365119964E+03 -0.33550365356E+02  0.33578422276E+03  0.17300000000E+03 0. -1.
<mgrwt>
<rscale>  2 0.33410390E+03</rscale>
<asrwt>0</asrwt>
<pdfrwt beam="1">  1       21 0.28958945E-01 0.33410390E+03</pdfrwt>
<pdfrwt beam="2">  1       21 0.14408179E+00 0.33410390E+03</pdfrwt>
<totfact> 0.34484582E+03</totfact>
</mgrwt>
</event>
<event>
 4    1  0.4332500E+000  0.2250694E+03  0.7546771E-02  0.1130159E+00
         21   -1    0    0  503  502  0.00000000000E+00  0.00000000000E+00  0.29050854527E+02  0.29050854527E+02  0.00000000000E+00 0. -1.
         21   -1    0    0  501  503 -0.00000000000E+00 -0.00000000000E+00 -0.24656429002E+04  0.24656429002E+04  0.00000000000E+00 0. -1.
          6    1    1    2  501    0  0.15222372064E+01  0.14396155335E+03 -0.18932447369E+04  0.19065759570E+04  0.17300000000E+03 0. -1.
         -6    1    1    2    0  502 -0.15222372064E+01 -0.14396155335E+03 -0.54334730886E+03  0.58811779780E+03  0.17300000000E+03 0. -1.
<mgrwt>
<rscale>  2 0.22506942E+03</rscale>
<asrwt>0</asrwt>
<pdfrwt beam="1">  1       21 0.44693613E-02 0.22506942E+03</pdfrwt>
<pdfrwt beam="2">  1       21 0.37932976E+00 0.22506942E+03</pdfrwt>
<totfact> 0.36425046E+03</totfact>
</mgrwt>
</event>
<event>
 4    1  0.4332500E+000  0.2220581E+03  0.7546771E-02  0.1132358E+00
         21   -1    0    0  503  502  0.00000000000E+00  0.00000000000E+00  0.21904401428E+03  0.21904401428E+03  0.00000000000E+00 0.  1.
         21   -1    0    0  501  503 -0.00000000000E+00 -0.00000000000E+00 -0.22528140910E+03  0.22528140910E+03  0.00000000000E+00 0.  1.
          6    1    1    2  501    0 -0.84370556932E+02 -0.11073572072E+03 -0.91817588860E+01  0.22224782433E+03  0.17300000000E+03 0.  1.
         -6    1    1    2    0  502  0.84370556932E+02  0.11073572072E+03  0.29443640680E+01  0.22207759905E+03  0.17300000000E+03 0.  1.
<mgrwt>
<rscale>  2 0.22205808E+03</rscale>
<asrwt>0</asrwt>
<pdfrwt beam="1">  1       21 0.33699079E-01 0.22205808E+03</pdfrwt>
<pdfrwt beam="2">  1       21 0.34658678E-01 0.22205808E+03</pdfrwt>
<totfact> 0.67193735E+04</totfact>
</mgrwt>
</event>
<event>
 4    1  0.4332500E+000  0.1818073E+03  0.7546771E-02  0.1166065E+00
         21   -1    0    0  501  502  0.00000000000E+00  0.00000000000E+00  0.21687849300E+04  0.21687849300E+04  0.00000000000E+00 0.  1.
         21   -1    0    0  502  503 -0.00000000000E+00 -0.00000000000E+00 -0.16807297147E+02  0.16807297147E+02  0.00000000000E+00 0.  1.
          6    1    1    2  501    0 -0.55791765104E+02 -0.34904805644E+01  0.14096166074E+04  0.14212926807E+04  0.17300000000E+03 0. -1.
         -6    1    1    2    0  503  0.55791765104E+02  0.34904805644E+01  0.74236102552E+03  0.76429954646E+03  0.17300000000E+03 0. -1.
<mgrwt>
<rscale>  2 0.18180733E+03</rscale>
<asrwt>0</asrwt>
<pdfrwt beam="1">  1       21 0.33365900E+00 0.18180733E+03</pdfrwt>
<pdfrwt beam="2">  1       21 0.25857397E-02 0.18180733E+03</pdfrwt>
<totfact> 0.17845582E+04</totfact>
</mgrwt>
</event>
<event>
 4    1  0.4332500E+000  0.1745378E+03  0.7546771E-02  0.1173197E+00
         21   -1    0    0  503  502  0.00000000000E+00  0.00000000000E+00  0.12338019741E+04  0.12338019741E+04  0.00000000000E+00 0.  1.
         21   -1    0    0  501  503 -0.00000000000E+00 -0.00000000000E+00 -0.81948997684E+02  0.81948997684E+02  0.00000000000E+00 0.  1.
          6    1    1    2  501    0 -0.10513114182E+02  0.20589183109E+02  0.26017169208E+02  0.17646623792E+03  0.17300000000E+03 0.  1.
         -6    1    1    2    0  502  0.10513114182E+02 -0.20589183109E+02  0.11258358073E+04  0.11392847339E+04  0.17300000000E+03 0.  1.
<mgrwt>
<rscale>  2 0.17453779E+03</rscale>
<asrwt>0</asrwt>
<pdfrwt beam="1">  1       21 0.18981567E+00 0.17453779E+03</pdfrwt>
<pdfrwt beam="2">  1       21 0.12607539E-01 0.17453779E+03</pdfrwt>
<totfact> 0.85341495E+03</totfact>
</mgrwt>
</event>
<event>
 4    1  0.4332500E+000  0.2147428E+03  0.7546771E-02  0.1137864E+00
         21   -1    0    0  503  502  0.00000000000E+00  0.00000000000E+00  0.15789561747E+03  0.15789561747E+03  0.00000000000E+00 0. -1.
         21   -1    0    0  501  503 -0.00000000000E+00 -0.00000000000E+00 -0.39207348005E+03  0.39207348005E+03  0.00000000000E+00 0. -1.
          6    1    1    2  501    0 -0.44809186081E+01  0.12714323237E+03 -0.25597570628E+03  0.33412279535E+03  0.17300000000E+03 0. -1.
         -6    1    1    2    0  502  0.44809186081E+01 -0.12714323237E+03  0.21797843693E+02  0.21584630217E+03  0.17300000000E+03 0. -1.
<mgrwt>
<rscale>  2 0.21474282E+03</rscale>
<asrwt>0</asrwt>
<pdfrwt beam="1">  1       21 0.24291634E-01 0.21474282E+03</pdfrwt>
<pdfrwt beam="2">  1       21 0.60318997E-01 0.21474282E+03</pdfrwt>
<totfact> 0.40533053E+04</totfact>
</mgrwt>
</event>
<event>
 4    1  0.4332500E+000  0.1746714E+03  0.7546771E-02  0.1173062E+00
         21   -1    0    0  503  502  0.00000000000E+00  0.00000000000E+00  0.30957858927E+03  0.30957858927E+03  0.00000000000E+00 0. -1.
         21   -1    0    0  501  503 -0.00000000000E+00 -0.00000000000E+00 -0.14805963760E+03  0.14805963760E+03  0.00000000000E+00 0. -1.
          6    1    1    2  501    0  0.11173889419E+02 -0.21360203199E+02  0.21307250779E+03  0.27551770844E+03  0.17300000000E+03 0.  1.
         -6    1    1    2    0  502 -0.11173889419E+02  0.21360203199E+02 -0.51553556127E+02  0.18212051843E+03  0.17300000000E+03 0.  1.
<mgrwt>
<rscale>  2 0.17467145E+03</rscale>
<asrwt>0</asrwt>
<pdfrwt beam="1">  1       21 0.47627475E-01 0.17467145E+03</pdfrwt>
<pdfrwt beam="2">  1       21 0.22778406E-01 0.17467145E+03</pdfrwt>
<totfact> 0.76774747E+04</totfact>
</mgrwt>
</event>
<event>
 4    1  0.4332500E+000  0.1743232E+03  0.7546771E-02  0.1173413E+00
         21   -1    0    0  503  502  0.00000000000E+00  0.00000000000E+00  0.13840948150E+04  0.13840948150E+04  0.00000000000E+00 0.  1.
         21   -1    0    0  501  503 -0.00000000000E+00 -0.00000000000E+00 -0.21979427704E+02  0.21979427704E+02  0.00000000000E+00 0.  1.
          6    1    1    2  501    0 -0.32877700972E+01  0.21184146290E+02  0.65789065152E+03  0.68059436292E+03  0.17300000000E+03 0.  1.
         -6    1    1    2    0  502  0.32877700972E+01 -0.21184146290E+02  0.70422473575E+03  0.72547987976E+03  0.17300000000E+03 0.  1.
<mgrwt>
<rscale>  2 0.17432320E+03</rscale>
<asrwt>0</asrwt>
<pdfrwt beam="1">  1       21 0.21293760E+00 0.17432320E+03</pdfrwt>
<pdfrwt beam="2">  1       21 0.33814515E-02 0.17432320E+03</pdfrwt>
<totfact> 0.58428082E+04</totfact>
</mgrwt>
</event>
<event>
 4    1  0.4332500E+000  0.1863527E+03  0.7546771E-02  0.1161793E+00
         21   -1    0    0  501  502  0.00000000000E+00  0.00000000000E+00  0.70966714703E+02  0.70966714703E+02  0.00000000000E+00 0. -1.
         21   -1    0    0  502  503 -0.00000000000E+00 -0.00000000000E+00 -0.97514230955E+03  0.97514230955E+03  0.00000000000E+00 0. -1.
          6    1    1    2  501    0  0.18895777409E+02 -0.66642996295E+02 -0.82906516896E+02  0.20396281500E+03  0.17300000000E+03 0. -1.
         -6    1    1    2    0  503 -0.18895777409E+02  0.66642996295E+02 -0.82126907795E+03  0.84214620925E+03  0.17300000000E+03 0. -1.
<mgrwt>
<rscale>  2 0.18635273E+03</rscale>
<asrwt>0</asrwt>
<pdfrwt beam="1">  1       21 0.10917956E-01 0.18635273E+03</pdfrwt>
<pdfrwt beam="2">  1       21 0.15002189E+00 0.18635273E+03</pdfrwt>
<totfact> 0.20838456E+04</totfact>
</mgrwt>
</event>
<event>
 4    1  0.4332500E+000  0.1808341E+03  0.7546771E-02  0.1166998E+00
         21   -1    0    0  501  502  0.00000000000E+00  0.00000000000E+00  0.27813028580E+03  0.27813028580E+03  0.00000000000E+00 0. -1.
         21   -1    0    0  502  503 -0.00000000000E+00 -0.00000000000E+00 -0.36348907292E+03  0.36348907292E+03  0.00000000000E+00 0. -1.
          6    1    1    2  501    0 -0.46157663421E+02 -0.25326519916E+02  0.22119310434E+03  0.28570500855E+03  0.17300000000E+03 0. -1.
         -6    1    1    2    0  503  0.46157663421E+02  0.25326519916E+02 -0.30655189146E+03  0.35591435018E+03  0.17300000000E+03 0. -1.
<mgrwt>
<rscale>  2 0.18083407E+03</rscale>
<asrwt>0</asrwt>
<pdfrwt beam="1">  1       21 0.42789274E-01 0.18083407E+03</pdfrwt>
<pdfrwt beam="2">  1       21 0.55921396E-01 0.18083407E+03</pdfrwt>
<totfact> 0.15936756E+04</totfact>
</mgrwt>
</event>
<event>
 4    1  0.4332500E+000  0.2220474E+03  0.7546771E-02  0.1132366E+00
         21   -1    0    0  503  502  0.00000000000E+00  0.00000000000E+00  0.98016085880E+03  0.98016085880E+03  0.00000000000E+00 0. -1.
         21   -1    0    0  501  503 -0.00000000000E+00 -0.00000000000E+00 -0.60283618514E+02  0.60283618514E+02  0.00000000000E+00 0. -1.
          6    1    1    2  501    0  0.43847658789E+02 -0.13211150186E+03  0.24826476424E+03  0.33307725721E+03  0.17300000000E+03 0. -1.
         -6    1    1    2    0  502 -0.43847658789E+02  0.13211150186E+03  0.67161247604E+03  0.70736722011E+03  0.17300000000E+03 0. -1.
<mgrwt>
<rscale>  2 0.22204744E+03</rscale>
<asrwt>0</asrwt>
<pdfrwt beam="1">  1       21 0.15079397E+00 0.22204744E+03</pdfrwt>
<pdfrwt beam="2">  1       21 0.92744036E-02 0.22204744E+03</pdfrwt>
<totfact> 0.26822443E+04</totfact>
</mgrwt>
</event>
<event>
 4    1  0.4332500E+000  0.2648201E+03  0.7546771E-02  0.1104281E+00
         21   -1    0    0  503  502  0.00000000000E+00  0.00000000000E+00  0.12214458914E+03  0.12214458914E+03  0.00000000000E+00 0. -1.
         21   -1    0    0  501  503 -0.00000000000E+00 -0.00000000000E+00 -0.87285920947E+03  0.87285920947E+03  0.00000000000E+00 0.  1.
          6    1    1    2  501    0 -0.13836963691E+03 -0.14510185079E+03 -0.66639192302E+03  0.71708290915E+03  0.17300000000E+03 0.  1.
         -6    1    1    2    0  502  0.13836963691E+03  0.14510185079E+03 -0.84322697308E+02  0.27792088947E+03  0.17300000000E+03 0. -1.
<mgrwt>
<rscale>  2 0.26482013E+03</rscale>
<asrwt>0</asrwt>
<pdfrwt beam="1">  1       21 0.18791476E-01 0.26482013E+03</pdfrwt>
<pdfrwt beam="2">  1       21 0.13428603E+00 0.26482013E+03</pdfrwt>
<totfact> 0.98517489E+03</totfact>
</mgrwt>
</event>
<event>
 4    1  0.4332500E+000  0.2395692E+03  0.7546771E-02  0.1120080E+00
         21   -1    0    0  503  502  0.00000000000E+00  0.00000000000E+00  0.21597066448E+04  0.21597066448E+04  0.00000000000E+00 0. -1.
         21   -1    0    0  501  503 -0.00000000000E+00 -0.00000000000E+00 -0.27806132957E+02  0.27806132957E+02  0.00000000000E+00 0.  1.
          6    1    1    2  501    0 -0.10144159219E+03  0.13104967664E+03  0.12961300881E+04  0.13180844509E+04  0.17300000000E+03 0. -1.
         -6    1    1    2    0  502  0.10144159219E+03 -0.13104967664E+03  0.83577042376E+03  0.86942832689E+03  0.17300000000E+03 0. -1.
<mgrwt>
<rscale>  2 0.23956923E+03</rscale>
<asrwt>0</asrwt>
<pdfrwt beam="1">  1       21 0.33226243E+00 0.23956923E+03</pdfrwt>
<pdfrwt beam="2">  1       21 0.42778683E-02 0.23956923E+03</pdfrwt>
<totfact> 0.73944464E+03</totfact>
</mgrwt>
</event>
<event>
 4    1  0.4332500E+000  0.1873407E+03  0.7546771E-02  0.1160882E+00
         21   -1    0    0  503  502  0.00000000000E+00  0.00000000000E+00  0.10336074353E+04  0.10336074353E+04  0.00000000000E+00 0.  1.
         21   -1    0    0  501  503 -0.00000000000E+00 -0.00000000000E+00 -0.11082374353E+03  0.11082374353E+03  0.00000000000E+00 0.  1.
          6    1    1    2  501    0  0.51777931341E+02  0.49865564990E+02 -0.15167627740E+02  0.18795367960E+03  0.17300000000E+03 0.  1.
         -6    1    1    2    0  502 -0.51777931341E+02 -0.49865564990E+02  0.93795131947E+03  0.95647749918E+03  0.17300000000E+03 0.  1.
<mgrwt>
<rscale>  2 0.18734068E+03</rscale>
<asrwt>0</asrwt>
<pdfrwt beam="1">  1       21 0.15901652E+00 0.18734068E+03</pdfrwt>
<pdfrwt beam="2">  1       21 0.17049807E-01 0.18734068E+03</pdfrwt>
<totfact> 0.79747408E+03</totfact>
</mgrwt>
</event>
<event>
 4    1  0.4332500E+000  0.1819005E+03  0.7546771E-02  0.1165976E+00
         21   -1    0    0  501  502  0.00000000000E+00  0.00000000000E+00  0.47685657116E+03  0.47685657116E+03  0.00000000000E+00 0. -1.
         21   -1    0    0  502  503 -0.00000000000E+00 -0.00000000000E+00 -0.69771978248E+02  0.69771978248E+02  0.00000000000E+00 0. -1.
          6    1    1    2  501    0 -0.16026614019E+02  0.53869815471E+02  0.22383536050E+03  0.28842690233E+03  0.17300000000E+03 0. -1.
         -6    1    1    2    0  503  0.16026614019E+02 -0.53869815471E+02  0.18324923241E+03  0.25820164708E+03  0.17300000000E+03 0. -1.
<mgrwt>
<rscale>  2 0.18190055E+03</rscale>
<asrwt>0</asrwt>
<pdfrwt beam="1">  1       21 0.73362547E-01 0.18190055E+03</pdfrwt>
<pdfrwt beam="2">  1       21 0.10734151E-01 0.18190055E+03</pdfrwt>
<totfact> 0.12001120E+05</totfact>
</mgrwt>
</event>
<event>
 4    1  0.4332500E+000  0.2180432E+03  0.7546771E-02  0.1135350E+00
         21   -1    0    0  503  502  0.00000000000E+00  0.00000000000E+00  0.52590941592E+03  0.52590941592E+03  0.00000000000E+00 0.  1.
         21   -1    0    0  501  503 -0.00000000000E+00 -0.00000000000E+00 -0.10920737457E+03  0.10920737457E+03  0.00000000000E+00 0. -1.
          6    1    1    2  501    0  0.12093364329E+03  0.54670782547E+02  0.76571511621E+02  0.23109746199E+03  0.17300000000E+03 0. -1.
         -6    1    1    2    0  502 -0.12093364329E+03 -0.54670782547E+02  0.34013052973E+03  0.40401932850E+03  0.17300000000E+03 0.  1.
<mgrwt>
<rscale>  2 0.21804321E+03</rscale>
<asrwt>0</asrwt>
<pdfrwt beam="1">  1       21 0.80909139E-01 0.21804321E+03</pdfrwt>
<pdfrwt beam="2">  1       21 0.16801135E-01 0.21804321E+03</pdfrwt>
<totfact> 0.42191907E+04</totfact>
</mgrwt>
</event>
<event>
 4    1  0.4332500E+000  0.2558992E+03  0.7546771E-02  0.1109632E+00
         21   -1    0    0  501  502  0.00000000000E+00  0.00000000000E+00  0.31369490687E+03  0.31369490687E+03  0.00000000000E+00 0.  1.
         21   -1    0    0  502  503 -0.00000000000E+00 -0.00000000000E+00 -0.22992111827E+03  0.22992111827E+03  0.00000000000E+00 0.  1.
          6    1    1    2  501    0 -0.18697336791E+03  0.24420676996E+02  0.12436243480E+03  0.28451788162E+03  0.17300000000E+03 0.  1.
         -6    1    1    2    0  503  0.18697336791E+03 -0.24420676996E+02 -0.40588646201E+02  0.25909814351E+03  0.17300000000E+03 0.  1.
<mgrwt>
<rscale>  2 0.25589922E+03</rscale>
<asrwt>0</asrwt>
<pdfrwt beam="1">  1       21 0.48260755E-01 0.25589922E+03</pdfrwt>
<pdfrwt beam="2">  1       21 0.35372480E-01 0.25589922E+03</pdfrwt>
<totfact> 0.30637627E+04</totfact>
</mgrwt>
</event>
<event>
 4    1  0.4332500E+000  0.1774617E+03  0.7546771E-02  0.1170282E+00
         21   -1    0    0  503  502  0.00000000000E+00  0.00000000000E+00  0.18499692745E+03  0.18499692745E+03  0.00000000000E+00 0. -1.
         21   -1    0    0  501  503 -0.00000000000E+00 -0.00000000000E+00 -0.17282530096E+03  0.17282530096E+03  0.00000000000E+00 0.  1.
          6    1    1    2  501    0 -0.21707494087E+02  0.33052130111E+02 -0.15824150448E+02  0.17816582821E+03  0.17300000000E+03 0.  1.
         -6    1    1    2    0  502  0.21707494087E+02 -0.33052130111E+02  0.27995776942E+02  0.17965640019E+03  0.17300000000E+03 0. -1.
<mgrwt>
<rscale>  2 0.17746171E+03</rscale>
<asrwt>0</asrwt>
<pdfrwt beam="1">  1       21 0.28461066E-01 0.17746171E+03</pdfrwt>
<pdfrwt beam="2">  1       21 0.26588508E-01 0.17746171E+03</pdfrwt>
<totfact> 0.15965715E+05</totfact>
</mgrwt>
</event>
<event>
 4    1  0.4332500E+000  0.1775834E+03  0.7546771E-02  0.1170162E+00
         21   -1    0    0  501  502  0.00000000000E+00  0.00000000000E+00  0.23100076190E+03  0.23100076190E+03  0.00000000000E+00 0. -1.
         21   -1    0    0  502  503 -0.00000000000E+00 -0.00000000000E+00 -0.46799047912E+03  0.46799047912E+03  0.00000000000E+00 0. -1.
          6    1    1    2  501    0  0.34695505438E+02  0.20077429493E+02  0.17564008962E+03  0.24977053940E+03  0.17300000000E+03 0. -1.
         -6    1    1    2    0  503 -0.34695505438E+02 -0.20077429493E+02 -0.41262980684E+03  0.44922070162E+03  0.17300000000E+03 0. -1.
<mgrwt>
<rscale>  2 0.17758345E+03</rscale>
<asrwt>0</asrwt>
<pdfrwt beam="1">  1       21 0.35538579E-01 0.17758345E+03</pdfrwt>
<pdfrwt beam="2">  1       21 0.71998535E-01 0.17758345E+03</pdfrwt>
<totfact> 0.13424900E+04</totfact>
</mgrwt>
</event>
<event>
 4    1  0.4332500E+000  0.1863300E+03  0.7546771E-02  0.1161814E+00
         21   -1    0    0  501  502  0.00000000000E+00  0.00000000000E+00  0.10755855126E+03  0.10755855126E+03  0.00000000000E+00 0. -1.
         21   -1    0    0  502  503 -0.00000000000E+00 -0.00000000000E+00 -0.13292614483E+04  0.13292614483E+04  0.00000000000E+00 0.  1.
          6    1    1    2  501    0  0.86301421871E+01 -0.68668673633E+02  0.14274909241E+02  0.18687599933E+03  0.17300000000E+03 0. -1.
         -6    1    1    2    0  503 -0.86301421871E+01  0.68668673633E+02 -0.12359778063E+04  0.12499440003E+04  0.17300000000E+03 0.  1.
<mgrwt>
<rscale>  2 0.18632999E+03</rscale>
<asrwt>0</asrwt>
<pdfrwt beam="1">  1       21 0.16547470E-01 0.18632999E+03</pdfrwt>
<pdfrwt beam="2">  1       21 0.20450175E+00 0.18632999E+03</pdfrwt>
<totfact> 0.41453867E+03</totfact>
</mgrwt>
</event>
<event>
 4    1  0.4332500E+000  0.1891975E+03  0.7546771E-02  0.1159187E+00
         21   -1    0    0  503  502  0.00000000000E+00  0.00000000000E+00  0.26684944609E+03  0.26684944609E+03  0.00000000000E+00 0.  1.
         21   -1    0    0  501  503 -0.00000000000E+00 -0.00000000000E+00 -0.19149739599E+03  0.19149739599E+03  0.00000000000E+00 0.  1.
          6    1    1    2  501    0  0.34156160533E+02  0.68556782639E+02 -0.87745061203E+02  0.20855424118E+03  0.17300000000E+03 0.  1.
         -6    1    1    2    0  502 -0.34156160533E+02 -0.68556782639E+02  0.16309711130E+03  0.24979260090E+03  0.17300000000E+03 0.  1.
<mgrwt>
<rscale>  2 0.18919745E+03</rscale>
<asrwt>0</asrwt>
<pdfrwt beam="1">  1       21 0.41053761E-01 0.18919745E+03</pdfrwt>
<pdfrwt beam="2">  1       21 0.29461138E-01 0.18919745E+03</pdfrwt>
<totfact> 0.63180306E+04</totfact>
</mgrwt>
</event>
<event>
 4    1  0.4332500E+000  0.3302854E+03  0.7546771E-02  0.1071011E+00
         21   -1    0    0  503  502  0.00000000000E+00  0.00000000000E+00  0.23313212633E+04  0.23313212633E+04  0.00000000000E+00 0.  1.
         21   -1    0    0  501  503 -0.00000000000E+00 -0.00000000000E+00 -0.64685381889E+02  0.64685381889E+02  0.00000000000E+00 0. -1.
          6    1    1    2  501    0 -0.74372377936E+02 -0.27134511548E+03  0.50323935206E+03  0.60194540264E+03  0.17300000000E+03 0. -1.
         -6    1    1    2    0  502  0.74372377936E+02  0.27134511548E+03  0.17633965293E+04  0.17940612425E+04  0.17300000000E+03 0.  1.
<mgrwt>
<rscale>  2 0.33028536E+03</rscale>
<asrwt>0</asrwt>
<pdfrwt beam="1">  1       21 0.35866474E+00 0.33028536E+03</pdfrwt>
<pdfrwt beam="2">  1       21 0.99515990E-02 0.33028536E+03</pdfrwt>
<totfact> 0.10947767E+03</totfact>
</mgrwt>
</event>
<event>
 4    1  0.4332500E+000  0.2074598E+03  0.7546771E-02  0.1143593E+00
         21   -1    0    0  501  502  0.00000000000E+00  0.00000000000E+00  0.51346324434E+03  0.51346324434E+03  0.00000000000E+00 0.  1.
         21   -1    0    0  502  503 -0.00000000000E+00 -0.00000000000E+00 -0.16699258589E+03  0.16699258589E+03  0.00000000000E+00 0.  1.
          6    1    1    2  501    0  0.10590278086E+03 -0.43533767608E+02  0.41334290559E+03  0.46248453544E+03  0.17300000000E+03 0.  1.
         -6    1    1    2    0  503 -0.10590278086E+03  0.43533767608E+02 -0.66872247137E+02  0.21797129479E+03  0.17300000000E+03 0.  1.
<mgrwt>
<rscale>  2 0.20745985E+03</rscale>
<asrwt>0</asrwt>
<pdfrwt beam="1">  1       21 0.78994345E-01 0.20745985E+03</pdfrwt>
<pdfrwt beam="2">  1       21 0.25691167E-01 0.20745985E+03</pdfrwt>
<totfact> 0.20165547E+04</totfact>
</mgrwt>
</event>
<event>
 4    1  0.4332500E+000  0.2439263E+03  0.7546771E-02  0.1117205E+00
         21   -1    0    0  503  502  0.00000000000E+00  0.00000000000E+00  0.45042496693E+03  0.45042496693E+03  0.00000000000E+00 0. -1.
         21   -1    0    0  501  503 -0.00000000000E+00 -0.00000000000E+00 -0.13467269856E+03  0.13467269856E+03  0.00000000000E+00 0.  1.
          6    1    1    2  501    0  0.17128537452E+03  0.15244083465E+02  0.11742276708E+03  0.27071787498E+03  0.17300000000E+03 0.  1.
         -6    1    1    2    0  502 -0.17128537452E+03 -0.15244083465E+02  0.19832950128E+03  0.31437979051E+03  0.17300000000E+03 0. -1.
<mgrwt>
<rscale>  2 0.24392634E+03</rscale>
<asrwt>0</asrwt>
<pdfrwt beam="1">  1       21 0.69296148E-01 0.24392634E+03</pdfrwt>
<pdfrwt beam="2">  1       21 0.20718877E-01 0.24392634E+03</pdfrwt>
<totfact> 0.39940998E+04</totfact>
</mgrwt>
</event>
<event>
 4    1  0.4332500E+000  0.2300183E+03  0.7546771E-02  0.1126627E+00
         21   -1    0    0  503  502  0.00000000000E+00  0.00000000000E+00  0.49864386478E+02  0.49864386478E+02  0.00000000000E+00 0. -1.
         21   -1    0    0  501  503 -0.00000000000E+00 -0.00000000000E+00 -0.11486634707E+04  0.11486634707E+04  0.00000000000E+00 0. -1.
          6    1    1    2  501    0 -0.15153777648E+03 -0.39645394139E+01 -0.71490667576E+03  0.75099931446E+03  0.17300000000E+03 0. -1.
         -6    1    1    2    0  502  0.15153777648E+03  0.39645394139E+01 -0.38389240847E+03  0.44752854273E+03  0.17300000000E+03 0. -1.
<mgrwt>
<rscale>  2 0.23001829E+03</rscale>
<asrwt>0</asrwt>
<pdfrwt beam="1">  1       21 0.76714440E-02 0.23001829E+03</pdfrwt>
<pdfrwt beam="2">  1       21 0.17671746E+00 0.23001829E+03</pdfrwt>
<totfact> 0.24132122E+04</totfact>
</mgrwt>
</event>
<event>
 4    1  0.4332500E+000  0.2702402E+03  0.7546771E-02  0.1101142E+00
         21   -1    0    0  503  502  0.00000000000E+00  0.00000000000E+00  0.67839482340E+03  0.67839482340E+03  0.00000000000E+00 0.  1.
         21   -1    0    0  501  503 -0.00000000000E+00 -0.00000000000E+00 -0.11559068337E+03  0.11559068337E+03  0.00000000000E+00 0.  1.
          6    1    1    2  501    0  0.14759793630E+03 -0.14599867238E+03  0.17735556122E+03  0.32324102189E+03  0.17300000000E+03 0.  1.
         -6    1    1    2    0  502 -0.14759793630E+03  0.14599867238E+03  0.38544857882E+03  0.47074448488E+03  0.17300000000E+03 0.  1.
<mgrwt>
<rscale>  2 0.27024020E+03</rscale>
<asrwt>0</asrwt>
<pdfrwt beam="1">  1       21 0.10436843E+00 0.27024020E+03</pdfrwt>
<pdfrwt beam="2">  1       21 0.17783183E-01 0.27024020E+03</pdfrwt>
<totfact> 0.20407068E+04</totfact>
</mgrwt>
</event>
<event>
 4    1  0.4332500E+000  0.1885181E+03  0.7546771E-02  0.1159805E+00
         21   -1    0    0  501  502  0.00000000000E+00  0.00000000000E+00  0.54522109720E+03  0.54522109720E+03  0.00000000000E+00 0. -1.
         21   -1    0    0  502  503 -0.00000000000E+00 -0.00000000000E+00 -0.11517669588E+03  0.11517669588E+03  0.00000000000E+00 0. -1.
          6    1    1    2  501    0  0.74798443186E+02  0.39085161545E+01  0.43256836733E+03  0.47186277244E+03  0.17300000000E+03 0. -1.
         -6    1    1    2    0  503 -0.74798443186E+02 -0.39085161545E+01 -0.25239660031E+01  0.18853502064E+03  0.17300000000E+03 0. -1.
<mgrwt>
<rscale>  2 0.18851813E+03</rscale>
<asrwt>0</asrwt>
<pdfrwt beam="1">  1       21 0.83880168E-01 0.18851813E+03</pdfrwt>
<pdfrwt beam="2">  1       21 0.17719492E-01 0.18851813E+03</pdfrwt>
<totfact> 0.35775933E+04</totfact>
</mgrwt>
</event>
<event>
 4    1  0.4332500E+000  0.2569690E+03  0.7546771E-02  0.1108978E+00
         21   -1    0    0  501  502  0.00000000000E+00  0.00000000000E+00  0.19143532508E+03  0.19143532508E+03  0.00000000000E+00 0.  1.
         21   -1    0    0  502  503 -0.00000000000E+00 -0.00000000000E+00 -0.34731447099E+03  0.34731447099E+03  0.00000000000E+00 0. -1.
          6    1    1    2  501    0  0.61997480908E+02  0.17961172850E+03 -0.10022827707E+03  0.27582379915E+03  0.17300000000E+03 0.  1.
         -6    1    1    2    0  503 -0.61997480908E+02 -0.17961172850E+03 -0.55650868845E+02  0.26292599692E+03  0.17300000000E+03 0. -1.
<mgrwt>
<rscale>  2 0.25696899E+03</rscale>
<asrwt>0</asrwt>
<pdfrwt beam="1">  1       21 0.29451589E-01 0.25696899E+03</pdfrwt>
<pdfrwt beam="2">  1       21 0.53432995E-01 0.25696899E+03</pdfrwt>
<totfact> 0.35518828E+04</totfact>
</mgrwt>
</event>
<event>
 4    1  0.4332500E+000  0.2199846E+03  0.7546771E-02  0.1133895E+00
         21   -1    0    0  503  502  0.00000000000E+00  0.00000000000E+00  0.35431542997E+03  0.35431542997E+03  0.00000000000E+00 0.  1.
         21   -1    0    0  501  503 -0.00000000000E+00 -0.00000000000E+00 -0.14210499041E+03  0.14210499041E+03  0.00000000000E+00 0.  1.
          6    1    1    2  501    0  0.96343177107E+02 -0.95823827549E+02  0.57173484138E+02  0.22729280893E+03  0.17300000000E+03 0.  1.
         -6    1    1    2    0  502 -0.96343177107E+02  0.95823827549E+02  0.15503695542E+03  0.26912761145E+03  0.17300000000E+03 0.  1.
<mgrwt>
<rscale>  2 0.21998458E+03</rscale>
<asrwt>0</asrwt>
<pdfrwt beam="1">  1       21 0.54510066E-01 0.21998458E+03</pdfrwt>
<pdfrwt beam="2">  1       21 0.21862306E-01 0.21998458E+03</pdfrwt>
<totfact> 0.61327824E+04</totfact>
</mgrwt>
</event>
<event>
 4    1  0.4332500E+000  0.2198222E+03  0.7546771E-02  0.1134016E+00
         21   -1    0    0  501  502  0.00000000000E+00  0.00000000000E+00  0.10559526712E+04  0.10559526712E+04  0.00000000000E+00 0. -1.
         21   -1    0    0  502  503 -0.00000000000E+00 -0.00000000000E+00 -0.51785030260E+02  0.51785030260E+02  0.00000000000E+00 0.  1.
          6    1    1    2  501    0 -0.13400958643E+03  0.20838323773E+02  0.69098570224E+03  0.72510898884E+03  0.17300000000E+03 0. -1.
         -6    1    1    2    0  503  0.13400958643E+03 -0.20838323773E+02  0.31318193869E+03  0.38262871261E+03  0.17300000000E+03 0.  1.
<mgrwt>
<rscale>  2 0.21982221E+03</rscale>
<asrwt>0</asrwt>
<pdfrwt beam="1">  1       21 0.16245424E+00 0.21982221E+03</pdfrwt>
<pdfrwt beam="2">  1       21 0.79669285E-02 0.21982221E+03</pdfrwt>
<totfact> 0.28699511E+04</totfact>
</mgrwt>
</event>
<event>
 4    1  0.4332500E+000  0.2726443E+03  0.7546771E-02  0.1099776E+00
         21   -1    0    0  503  502  0.00000000000E+00  0.00000000000E+00  0.83635975398E+03  0.83635975398E+03  0.00000000000E+00 0. -1.
         21   -1    0    0  501  503 -0.00000000000E+00 -0.00000000000E+00 -0.89308384400E+02  0.89308384400E+02  0.00000000000E+00 0.  1.
          6    1    1    2  501    0 -0.21040211826E+03  0.11699066063E+02  0.34143778528E+03  0.43693784539E+03  0.17300000000E+03 0.  1.
         -6    1    1    2    0  502  0.21040211826E+03 -0.11699066063E+02  0.40561358430E+03  0.48873029299E+03  0.17300000000E+03 0. -1.
<mgrwt>
<rscale>  2 0.27264431E+03</rscale>
<asrwt>0</asrwt>
<pdfrwt beam="1">  1       21 0.12867073E+00 0.27264431E+03</pdfrwt>
<pdfrwt beam="2">  1       21 0.13739752E-01 0.27264431E+03</pdfrwt>
<totfact> 0.19506619E+04</totfact>
</mgrwt>
</event>
<event>
 4    1  0.4332500E+000  0.2011848E+03  0.7546771E-02  0.1148743E+00
         21   -1    0    0  503  502  0.00000000000E+00  0.00000000000E+00  0.52050992956E+03  0.52050992956E+03  0.00000000000E+00 0. -1.
         21   -1    0    0  501  503 -0.00000000000E+00 -0.00000000000E+00 -0.88506226284E+02  0.88506226284E+02  0.00000000000E+00 0. -1.
          6    1    1    2  501    0 -0.10084174774E+03  0.19423475114E+02  0.10990039050E+03  0.22924533867E+03  0.17300000000E+03 0. -1.
         -6    1    1    2    0  502  0.10084174774E+03 -0.19423475114E+02  0.32210331278E+03  0.37977081717E+03  0.17300000000E+03 0. -1.
<mgrwt>
<rscale>  2 0.20118481E+03</rscale>
<asrwt>0</asrwt>
<pdfrwt beam="1">  1       21 0.80078449E-01 0.20118481E+03</pdfrwt>
<pdfrwt beam="2">  1       21 0.13616343E-01 0.20118481E+03</pdfrwt>
<totfact> 0.63906691E+04</totfact>
</mgrwt>
</event>
<event>
 4    1  0.4332500E+000  0.1860771E+03  0.7546771E-02  0.1162048E+00
         21   -1    0    0  501  502  0.00000000000E+00  0.00000000000E+00  0.11290087568E+03  0.11290087568E+03  0.00000000000E+00 0.  1.
         21   -1    0    0  502  503 -0.00000000000E+00 -0.00000000000E+00 -0.36197694936E+03  0.36197694936E+03  0.00000000000E+00 0. -1.
          6    1    1    2  501    0 -0.64633264298E+02  0.22764791867E+02 -0.31736923491E+02  0.18876420984E+03  0.17300000000E+03 0.  1.
         -6    1    1    2    0  503  0.64633264298E+02 -0.22764791867E+02 -0.21733915019E+03  0.28611361521E+03  0.17300000000E+03 0. -1.
<mgrwt>
<rscale>  2 0.18607712E+03</rscale>
<asrwt>0</asrwt>
<pdfrwt beam="1">  1       21 0.17369366E-01 0.18607712E+03</pdfrwt>
<pdfrwt beam="2">  1       21 0.55688761E-01 0.18607712E+03</pdfrwt>
<totfact> 0.91334415E+04</totfact>
</mgrwt>
</event>
<event>
 4    1  0.4332500E+000  0.1982498E+03  0.7546771E-02  0.1151224E+00
         21   -1    0    0  501  502  0.00000000000E+00  0.00000000000E+00  0.35523553442E+03  0.35523553442E+03  0.00000000000E+00 0. -1.
         21   -1    0    0  502  503 -0.00000000000E+00 -0.00000000000E+00 -0.11068134744E+03  0.11068134744E+03  0.00000000000E+00 0.  1.
          6    1    1    2  501    0  0.62550380997E+02 -0.73901429421E+02  0.12682365916E+03  0.23534487875E+03  0.17300000000E+03 0.  1.
         -6    1    1    2    0  503 -0.62550380997E+02  0.73901429421E+02  0.11773052783E+03  0.23057200310E+03  0.17300000000E+03 0.  1.
<mgrwt>
<rscale>  2 0.19824977E+03</rscale>
<asrwt>0</asrwt>
<pdfrwt beam="1">  1       21 0.54651620E-01 0.19824977E+03</pdfrwt>
<pdfrwt beam="2">  1       21 0.17027900E-01 0.19824977E+03</pdfrwt>
<totfact> 0.98104610E+04</totfact>
</mgrwt>
</event>
<event>
 4    1  0.4332500E+000  0.3353554E+03  0.7546771E-02  0.1068792E+00
         21   -1    0    0  501  502  0.00000000000E+00  0.00000000000E+00  0.72553237314E+03  0.72553237314E+03  0.00000000000E+00 0.  1.
         21   -1    0    0  502  503 -0.00000000000E+00 -0.00000000000E+00 -0.31461548275E+03  0.31461548275E+03  0.00000000000E+00 0.  1.
          6    1    1    2  501    0 -0.56280825370E+01  0.28723262594E+03  0.57588471953E+03  0.66641313531E+03  0.17300000000E+03 0.  1.
         -6    1    1    2    0  503  0.56280825370E+01 -0.28723262594E+03 -0.16496782914E+03  0.37373472058E+03  0.17300000000E+03 0.  1.
<mgrwt>
<rscale>  2 0.33535542E+03</rscale>
<asrwt>0</asrwt>
<pdfrwt beam="1">  1       21 0.11162036E+00 0.33535542E+03</pdfrwt>
<pdfrwt beam="2">  1       21 0.48402382E-01 0.33535542E+03</pdfrwt>
<totfact> 0.23323134E+03</totfact>
</mgrwt>
</event>
<event>
 4    1  0.4332500E+000  0.2128644E+03  0.7546771E-02  0.1139318E+00
         21   -1    0    0  501  502  0.00000000000E+00  0.00000000000E+00  0.28352938873E+03  0.28352938873E+03  0.00000000000E+00 0. -1.
         21   -1    0    0  502  503 -0.00000000000E+00 -0.00000000000E+00 -0.18634794259E+03  0.18634794259E+03  0.00000000000E+00 0. -1.
          6    1    1    2  501    0 -0.11162661855E+03 -0.54053027119E+02  0.13724797692E+03  0.25327502616E+03  0.17300000000E+03 0. -1.
         -6    1    1    2    0  503  0.11162661855E+03  0.54053027119E+02 -0.40066530781E+02  0.21660230515E+03  0.17300000000E+03 0. -1.
<mgrwt>
<rscale>  2 0.21286435E+03</rscale>
<asrwt>0</asrwt>
<pdfrwt beam="1">  1       21 0.43619906E-01 0.21286435E+03</pdfrwt>
<pdfrwt beam="2">  1       21 0.28668914E-01 0.21286435E+03</pdfrwt>
<totfact> 0.58242033E+04</totfact>
</mgrwt>
</event>
<event>
 4    1  0.4332500E+000  0.1897880E+03  0.7546771E-02  0.1158653E+00
         21   -1    0    0  503  502  0.00000000000E+00  0.00000000000E+00  0.25751238219E+03  0.25751238219E+03  0.00000000000E+00 0. -1.
         21   -1    0    0  501  503 -0.00000000000E+00 -0.00000000000E+00 -0.19528805702E+03  0.19528805702E+03  0.00000000000E+00 0. -1.
          6    1    1    2  501    0  0.50862694871E+02  0.59190201405E+02 -0.89487426861E+02  0.20982729383E+03  0.17300000000E+03 0. -1.
         -6    1    1    2    0  502 -0.50862694871E+02 -0.59190201405E+02  0.15171175203E+03  0.24297314538E+03  0.17300000000E+03 0. -1.
<mgrwt>
<rscale>  2 0.18978802E+03</rscale>
<asrwt>0</asrwt>
<pdfrwt beam="1">  1       21 0.39617290E-01 0.18978802E+03</pdfrwt>
<pdfrwt beam="2">  1       21 0.30044316E-01 0.18978802E+03</pdfrwt>
<totfact> 0.65340411E+04</totfact>
</mgrwt>
</event>
<event>
 4    1  0.4332500E+000  0.2427815E+03  0.7546771E-02  0.1117954E+00
         21   -1    0    0  503  502  0.00000000000E+00  0.00000000000E+00  0.29276409444E+03  0.29276409444E+03  0.00000000000E+00 0. -1.
         21   -1    0    0  501  503 -0.00000000000E+00 -0.00000000000E+00 -0.20140482841E+03  0.20140482841E+03  0.00000000000E+00 0. -1.
          6    1    1    2  501    0 -0.85545164163E+02  0.14729520591E+03  0.40989069307E+02  0.24621729549E+03  0.17300000000E+03 0. -1.
         -6    1    1    2    0  502  0.85545164163E+02 -0.14729520591E+03  0.50370196723E+02  0.24795162737E+03  0.17300000000E+03 0. -1.
<mgrwt>
<rscale>  2 0.24278149E+03</rscale>
<asrwt>0</asrwt>
<pdfrwt beam="1">  1       21 0.45040630E-01 0.24278149E+03</pdfrwt>
<pdfrwt beam="2">  1       21 0.30985358E-01 0.24278149E+03</pdfrwt>
<totfact> 0.46242253E+04</totfact>
</mgrwt>
</event>
<event>
 4    1  0.4332500E+000  0.2236483E+03  0.7546771E-02  0.1131192E+00
         21   -1    0    0  501  502  0.00000000000E+00  0.00000000000E+00  0.17083749155E+03  0.17083749155E+03  0.00000000000E+00 0.  1.
         21   -1    0    0  502  503 -0.00000000000E+00 -0.00000000000E+00 -0.29991480034E+03  0.29991480034E+03  0.00000000000E+00 0. -1.
          6    1    1    2  501    0 -0.54477967611E+02  0.13085000891E+03 -0.28246173724E+02  0.22542497669E+03  0.17300000000E+03 0. -1.
         -6    1    1    2    0  503  0.54477967611E+02 -0.13085000891E+03 -0.10083113506E+03  0.24532731520E+03  0.17300000000E+03 0. -1.
<mgrwt>
<rscale>  2 0.22364833E+03</rscale>
<asrwt>0</asrwt>
<pdfrwt beam="1">  1       21 0.26282691E-01 0.22364833E+03</pdfrwt>
<pdfrwt beam="2">  1       21 0.46140738E-01 0.22364833E+03</pdfrwt>
<totfact> 0.61093789E+04</totfact>
</mgrwt>
</event>
<event>
 4    1  0.4332500E+000  0.2978701E+03  0.7546771E-02  0.1086310E+00
         21   -1    0    0  503  502  0.00000000000E+00  0.00000000000E+00  0.14133206951E+04  0.14133206951E+04  0.00000000000E+00 0. -1.
         21   -1    0    0  501  503 -0.00000000000E+00 -0.00000000000E+00 -0.64094516432E+02  0.64094516432E+02  0.00000000000E+00 0.  1.
          6    1    1    2  501    0 -0.91828158250E+02  0.22442184118E+03  0.56877457699E+03  0.64205225089E+03  0.17300000000E+03 0.  1.
         -6    1    1    2    0  502  0.91828158250E+02 -0.22442184118E+03  0.78045160164E+03  0.83536296060E+03  0.17300000000E+03 0. -1.
<mgrwt>
<rscale>  2 0.29787006E+03</rscale>
<asrwt>0</asrwt>
<pdfrwt beam="1">  1       21 0.21743393E+00 0.29787006E+03</pdfrwt>
<pdfrwt beam="2">  1       21 0.98606959E-02 0.29787006E+03</pdfrwt>
<totfact> 0.80328898E+03</totfact>
</mgrwt>
</event>
<event>
 4    1  0.4332500E+000  0.1916491E+03  0.7546771E-02  0.1156982E+00
         21   -1    0    0  503  502  0.00000000000E+00  0.00000000000E+00  0.10846546297E+03  0.10846546297E+03  0.00000000000E+00 0.  1.
         21   -1    0    0  501  503 -0.00000000000E+00 -0.00000000000E+00 -0.53757352540E+03  0.53757352540E+03  0.00000000000E+00 0.  1.
          6    1    1    2  501    0  0.86158605379E+01 -0.82013109174E+02 -0.41106078657E+03  0.45354200841E+03  0.17300000000E+03 0.  1.
         -6    1    1    2    0  502 -0.86158605379E+01  0.82013109174E+02 -0.18047275848E+02  0.19249697996E+03  0.17300000000E+03 0.  1.
<mgrwt>
<rscale>  2 0.19164911E+03</rscale>
<asrwt>0</asrwt>
<pdfrwt beam="1">  1       21 0.16686995E-01 0.19164911E+03</pdfrwt>
<pdfrwt beam="2">  1       21 0.82703618E-01 0.19164911E+03</pdfrwt>
<totfact> 0.41197888E+04</totfact>
</mgrwt>
</event>
<event>
 4    1  0.4332500E+000  0.2591101E+03  0.7546771E-02  0.1107679E+00
         21   -1    0    0  501  502  0.00000000000E+00  0.00000000000E+00  0.84775626189E+02  0.84775626189E+02  0.00000000000E+00 0.  1.
         21   -1    0    0  502  503 -0.00000000000E+00 -0.00000000000E+00 -0.26945708733E+04  0.26945708733E+04  0.00000000000E+00 0. -1.
          6    1    1    2  501    0 -0.13700265435E+03 -0.13579141590E+03 -0.13716329042E+03  0.29317538124E+03  0.17300000000E+03 0.  1.
         -6    1    1    2    0  503  0.13700265435E+03  0.13579141590E+03 -0.24726319567E+04  0.24861711183E+04  0.17300000000E+03 0. -1.
<mgrwt>
<rscale>  2 0.25911008E+03</rscale>
<asrwt>0</asrwt>
<pdfrwt beam="1">  1       21 0.13042402E-01 0.25911008E+03</pdfrwt>
<pdfrwt beam="2">  1       21 0.41454942E+00 0.25911008E+03</pdfrwt>
<totfact> 0.32403242E+02</totfact>
</mgrwt>
</event>
<event>
 4    1  0.4332500E+000  0.2193660E+03  0.7546771E-02  0.1134357E+00
         21   -1    0    0  503  502  0.00000000000E+00  0.00000000000E+00  0.12843411143E+04  0.12843411143E+04  0.00000000000E+00 0.  1.
         21   -1    0    0  501  503 -0.00000000000E+00 -0.00000000000E+00 -0.41553539268E+02  0.41553539268E+02  0.00000000000E+00 0. -1.
          6    1    1    2  501    0  0.80103168595E+02 -0.10851689088E+03  0.41351486702E+03  0.46809825729E+03  0.17300000000E+03 0.  1.
         -6    1    1    2    0  502 -0.80103168595E+02  0.10851689088E+03  0.82927270804E+03  0.85779639631E+03  0.17300000000E+03 0. -1.
<mgrwt>
<rscale>  2 0.21936598E+03</rscale>
<asrwt>0</asrwt>
<pdfrwt beam="1">  1       21 0.19759091E+00 0.21936598E+03</pdfrwt>
<pdfrwt beam="2">  1       21 0.63928532E-02 0.21936598E+03</pdfrwt>
<totfact> 0.24148268E+04</totfact>
</mgrwt>
</event>
<event>
 4    1  0.4332500E+000  0.3560588E+03  0.7546771E-02  0.1060155E+00
         21   -1    0    0  501  502  0.00000000000E+00  0.00000000000E+00  0.12903219393E+03  0.12903219393E+03  0.00000000000E+00 0.  1.
         21   -1    0    0  502  503 -0.00000000000E+00 -0.00000000000E+00 -0.12551593896E+04  0.12551593896E+04  0.00000000000E+00 0. -1.
          6    1    1    2  501    0 -0.30957750494E+03 -0.31790940755E+02 -0.24050861223E+03  0.42967695777E+03  0.17300000000E+03 0.  1.
         -6    1    1    2    0  503  0.30957750494E+03  0.31790940755E+02 -0.88561858344E+03  0.95451462577E+03  0.17300000000E+03 0. -1.
<mgrwt>
<rscale>  2 0.35605884E+03</rscale>
<asrwt>0</asrwt>
<pdfrwt beam="1">  1       21 0.19851106E-01 0.35605884E+03</pdfrwt>
<pdfrwt beam="2">  1       21 0.19310145E+00 0.35605884E+03</pdfrwt>
<totfact> 0.31038603E+03</totfact>
</mgrwt>
</event>
<event>
 4    1  0.4332500E+000  0.1802721E+03  0.7546771E-02  0.1167540E+00
         21   -1    0    0  503  502  0.00000000000E+00  0.00000000000E+00  0.70871103914E+02  0.70871103914E+02  0.00000000000E+00 0. -1.
         21   -1    0    0  501  503 -0.00000000000E+00 -0.00000000000E+00 -0.64981398229E+03  0.64981398229E+03  0.00000000000E+00 0. -1.
          6    1    1    2  501    0  0.48306153501E+02 -0.15347640184E+02 -0.48496667188E+03  0.51738835255E+03  0.17300000000E+03 0. -1.
         -6    1    1    2    0  502 -0.48306153501E+02  0.15347640184E+02 -0.93976206496E+02  0.20329673365E+03  0.17300000000E+03 0. -1.
<mgrwt>
<rscale>  2 0.18027211E+03</rscale>
<asrwt>0</asrwt>
<pdfrwt beam="1">  1       21 0.10903246E-01 0.18027211E+03</pdfrwt>
<pdfrwt beam="2">  1       21 0.99971386E-01 0.18027211E+03</pdfrwt>
<totfact> 0.57534972E+04</totfact>
</mgrwt>
</event>
<event>
 4    1  0.4332500E+000  0.1941037E+03  0.7546771E-02  0.1154811E+00
         21   -1    0    0  501  502  0.00000000000E+00  0.00000000000E+00  0.14336450668E+03  0.14336450668E+03  0.00000000000E+00 0. -1.
         21   -1    0    0  502  503 -0.00000000000E+00 -0.00000000000E+00 -0.67311982114E+03  0.67311982114E+03  0.00000000000E+00 0.  1.
          6    1    1    2  501    0  0.52309101457E+02 -0.70788546615E+02  0.53859477895E+02  0.20143759278E+03  0.17300000000E+03 0. -1.
         -6    1    1    2    0  503 -0.52309101457E+02  0.70788546615E+02 -0.58361479235E+03  0.61504673504E+03  0.17300000000E+03 0.  1.
<mgrwt>
<rscale>  2 0.19410374E+03</rscale>
<asrwt>0</asrwt>
<pdfrwt beam="1">  1       21 0.22056077E-01 0.19410374E+03</pdfrwt>
<pdfrwt beam="2">  1       21 0.10355690E+00 0.19410374E+03</pdfrwt>
<totfact> 0.14495926E+04</totfact>
</mgrwt>
</event>
<event>
 4    1  0.4332500E+000  0.2234455E+03  0.7546771E-02  0.1131340E+00
         21   -1    0    0  501  502  0.00000000000E+00  0.00000000000E+00  0.63274240585E+03  0.63274240585E+03  0.00000000000E+00 0. -1.
         21   -1    0    0  502  503 -0.00000000000E+00 -0.00000000000E+00 -0.78971800147E+02  0.78971800147E+02  0.00000000000E+00 0. -1.
          6    1    1    2  501    0  0.14127317469E+03 -0.63862313174E+01  0.28706785683E+03  0.36377994483E+03  0.17300000000E+03 0. -1.
         -6    1    1    2    0  503 -0.14127317469E+03  0.63862313174E+01  0.26670274887E+03  0.34793426116E+03  0.17300000000E+03 0. -1.
<mgrwt>
<rscale>  2 0.22344551E+03</rscale>
<asrwt>0</asrwt>
<pdfrwt beam="1">  1       21 0.97344982E-01 0.22344551E+03</pdfrwt>
<pdfrwt beam="2">  1       21 0.12149508E-01 0.22344551E+03</pdfrwt>
<totfact> 0.49452072E+04</totfact>
</mgrwt>
</event>
<event>
 4    1  0.4332500E+000  0.1846858E+03  0.7546771E-02  0.1163344E+00
         21   -1    0    0  501  502  0.00000000000E+00  0.00000000000E+00  0.80883240989E+02  0.80883240989E+02  0.00000000000E+00 0.  1.
         21   -1    0    0  502  503 -0.00000000000E+00 -0.00000000000E+00 -0.10760940994E+04  0.10760940994E+04  0.00000000000E+00 0.  1.
          6    1    1    2  501    0 -0.51808189550E+02  0.38675044947E+02 -0.46489834087E+02  0.19044724277E+03  0.17300000000E+03 0.  1.
         -6    1    1    2    0  503  0.51808189550E+02 -0.38675044947E+02 -0.94872102436E+03  0.96653009766E+03  0.17300000000E+03 0.  1.
<mgrwt>
<rscale>  2 0.18468581E+03</rscale>
<asrwt>0</asrwt>
<pdfrwt beam="1">  1       21 0.12443576E-01 0.18468581E+03</pdfrwt>
<pdfrwt beam="2">  1       21 0.16555294E+00 0.18468581E+03</pdfrwt>
<totfact> 0.12693129E+04</totfact>
</mgrwt>
</event>
<event>
 4    1  0.4332500E+000  0.1820090E+03  0.7546771E-02  0.1165873E+00
         21   -1    0    0  503  502  0.00000000000E+00  0.00000000000E+00  0.19738521938E+03  0.19738521938E+03  0.00000000000E+00 0.  1.
         21   -1    0    0  501  503 -0.00000000000E+00 -0.00000000000E+00 -0.18538449517E+03  0.18538449517E+03  0.00000000000E+00 0.  1.
          6    1    1    2  501    0 -0.56511187566E+02 -0.21860841587E+01 -0.52891701621E+02  0.18953845358E+03  0.17300000000E+03 0. -1.
         -6    1    1    2    0  502  0.56511187566E+02  0.21860841587E+01  0.64892425832E+02  0.19323126097E+03  0.17300000000E+03 0. -1.
<mgrwt>
<rscale>  2 0.18200905E+03</rscale>
<asrwt>0</asrwt>
<pdfrwt beam="1">  1       21 0.30366957E-01 0.18200905E+03</pdfrwt>
<pdfrwt beam="2">  1       21 0.28520691E-01 0.18200905E+03</pdfrwt>
<totfact> 0.12279708E+05</totfact>
</mgrwt>
</event>
<event>
 4    1  0.4332500E+000  0.1964066E+03  0.7546771E-02  0.1152807E+00
         21   -1    0    0  503  502  0.00000000000E+00  0.00000000000E+00  0.78178538993E+03  0.78178538993E+03  0.00000000000E+00 0. -1.
         21   -1    0    0  501  503 -0.00000000000E+00 -0.00000000000E+00 -0.56718784266E+02  0.56718784266E+02  0.00000000000E+00 0. -1.
          6    1    1    2  501    0 -0.88844255286E+02  0.27445384646E+02  0.21134468209E+03  0.28851711472E+03  0.17300000000E+03 0. -1.
         -6    1    1    2    0  502  0.88844255286E+02 -0.27445384646E+02  0.51372192358E+03  0.54998705948E+03  0.17300000000E+03 0. -1.
<mgrwt>
<rscale>  2 0.19640660E+03</rscale>
<asrwt>0</asrwt>
<pdfrwt beam="1">  1       21 0.12027467E+00 0.19640660E+03</pdfrwt>
<pdfrwt beam="2">  1       21 0.87259674E-02 0.19640660E+03</pdfrwt>
<totfact> 0.54044715E+04</totfact>
</mgrwt>
</event>
<event>
 4    1  0.4332500E+000  0.2320550E+03  0.7546771E-02  0.1125202E+00
         21   -1    0    0  503  502  0.00000000000E+00  0.00000000000E+00  0.14006570451E+03  0.14006570451E+03  0.00000000000E+00 0. -1.
         21   -1    0    0  501  503 -0.00000000000E+00 -0.00000000000E+00 -0.39195926399E+03  0.39195926399E+03  0.00000000000E+00 0. -1.
          6    1    1    2  501    0 -0.56717778221E+02  0.14388751818E+03 -0.16274434549E+03  0.28343473013E+03  0.17300000000E+03 0. -1.
         -6    1    1    2    0  502  0.56717778221E+02 -0.14388751818E+03 -0.89149213989E+02  0.24859023836E+03  0.17300000000E+03 0. -1.
<mgrwt>
<rscale>  2 0.23205500E+03</rscale>
<asrwt>0</asrwt>
<pdfrwt beam="1">  1       21 0.21548570E-01 0.23205500E+03</pdfrwt>
<pdfrwt beam="2">  1       21 0.60301425E-01 0.23205500E+03</pdfrwt>
<totfact> 0.50520374E+04</totfact>
</mgrwt>
</event>
<event>
 4    1  0.4332500E+000  0.1853553E+03  0.7546771E-02  0.1162719E+00
         21   -1    0    0  501  502  0.00000000000E+00  0.00000000000E+00  0.75634961257E+03  0.75634961257E+03  0.00000000000E+00 0. -1.
         21   -1    0    0  502  503 -0.00000000000E+00 -0.00000000000E+00 -0.69026284746E+02  0.69026284746E+02  0.00000000000E+00 0. -1.
          6    1    1    2  501    0  0.61742923166E+02 -0.24807077920E+02  0.58497964112E+03  0.61364302343E+03  0.17300000000E+03 0. -1.
         -6    1    1    2    0  503 -0.61742923166E+02  0.24807077920E+02  0.10234368670E+03  0.21173287388E+03  0.17300000000E+03 0. -1.
<mgrwt>
<rscale>  2 0.18535528E+03</rscale>
<asrwt>0</asrwt>
<pdfrwt beam="1">  1       21 0.11636147E+00 0.18535528E+03</pdfrwt>
<pdfrwt beam="2">  1       21 0.10619429E-01 0.18535528E+03</pdfrwt>
<totfact> 0.41722370E+04</totfact>
</mgrwt>
</event>
<event>
 4    1  0.4332500E+000  0.1783473E+03  0.7546771E-02  0.1169412E+00
         21   -1    0    0  501  502  0.00000000000E+00  0.00000000000E+00  0.29510665648E+03  0.29510665648E+03  0.00000000000E+00 0.  1.
         21   -1    0    0  502  503 -0.00000000000E+00 -0.00000000000E+00 -0.10856280710E+03  0.10856280710E+03  0.00000000000E+00 0.  1.
          6    1    1    2  501    0 -0.41456240691E+02 -0.12654074402E+02  0.76175747392E+02  0.19393424139E+03  0.17300000000E+03 0. -1.
         -6    1    1    2    0  503  0.41456240691E+02  0.12654074402E+02  0.11036810199E+03  0.20973522219E+03  0.17300000000E+03 0. -1.
<mgrwt>
<rscale>  2 0.17834726E+03</rscale>
<asrwt>0</asrwt>
<pdfrwt beam="1">  1       21 0.45401024E-01 0.17834726E+03</pdfrwt>
<pdfrwt beam="2">  1       21 0.16701970E-01 0.17834726E+03</pdfrwt>
<totfact> 0.15065560E+05</totfact>
</mgrwt>
</event>
<event>
 4    1  0.4332500E+000  0.2782944E+03  0.7546771E-02  0.1096624E+00
         21   -1    0    0  501  502  0.00000000000E+00  0.00000000000E+00  0.67286183042E+02  0.67286183042E+02  0.00000000000E+00 0. -1.
         21   -1    0    0  502  503 -0.00000000000E+00 -0.00000000000E+00 -0.12417945936E+04  0.12417945936E+04  0.00000000000E+00 0.  1.
          6    1    1    2  501    0  0.13209256317E+03 -0.17340802638E+03 -0.41028729336E+03  0.49576552114E+03  0.17300000000E+03 0.  1.
         -6    1    1    2    0  503 -0.13209256317E+03  0.17340802638E+03 -0.76422111716E+03  0.81331525547E+03  0.17300000000E+03 0. -1.
<mgrwt>
<rscale>  2 0.27829443E+03</rscale>
<asrwt>0</asrwt>
<pdfrwt beam="1">  1       21 0.10351720E-01 0.27829443E+03</pdfrwt>
<pdfrwt beam="2">  1       21 0.19104533E+00 0.27829443E+03</pdfrwt>
<totfact> 0.11045815E+04</totfact>
</mgrwt>
</event>
<event>
 4    1  0.4332500E+000  0.1956241E+03  0.7546771E-02  0.1153484E+00
         21   -1    0    0  501  502  0.00000000000E+00  0.00000000000E+00  0.12712894137E+04  0.12712894137E+04  0.00000000000E+00 0. -1.
         21   -1    0    0  502  503 -0.00000000000E+00 -0.00000000000E+00 -0.36634458850E+02  0.36634458850E+02  0.00000000000E+00 0.  1.
          6    1    1    2  501    0  0.65934364221E+02 -0.63185703948E+02  0.89347105642E+03  0.91463615839E+03  0.17300000000E+03 0. -1.
         -6    1    1    2    0  503 -0.65934364221E+02  0.63185703948E+02  0.34118389847E+03  0.39328771421E+03  0.17300000000E+03 0.  1.
<mgrwt>
<rscale>  2 0.19562406E+03</rscale>
<asrwt>0</asrwt>
<pdfrwt beam="1">  1       21 0.19558295E+00 0.19562406E+03</pdfrwt>
<pdfrwt beam="2">  1       21 0.56360716E-02 0.19562406E+03</pdfrwt>
<totfact> 0.31397461E+04</totfact>
</mgrwt>
</event>
<event>
 4    1  0.4332500E+000  0.1823539E+03  0.7546771E-02  0.1165544E+00
         21   -1    0    0  501  502  0.00000000000E+00  0.00000000000E+00  0.60949930327E+03  0.60949930327E+03  0.00000000000E+00 0.  1.
         21   -1    0    0  502  503 -0.00000000000E+00 -0.00000000000E+00 -0.10062637973E+03  0.10062637973E+03  0.00000000000E+00 0.  1.
          6    1    1    2  501    0  0.40639594973E+02  0.40894650710E+02  0.49467996366E+03  0.52722027235E+03  0.17300000000E+03 0.  1.
         -6    1    1    2    0  503 -0.40639594973E+02 -0.40894650710E+02  0.14192959883E+02  0.18290541065E+03  0.17300000000E+03 0.  1.
<mgrwt>
<rscale>  2 0.18235391E+03</rscale>
<asrwt>0</asrwt>
<pdfrwt beam="1">  1       21 0.93769121E-01 0.18235391E+03</pdfrwt>
<pdfrwt beam="2">  1       21 0.15480982E-01 0.18235391E+03</pdfrwt>
<totfact> 0.35564944E+04</totfact>
</mgrwt>
</event>
<event>
 4    1  0.4332500E+000  0.2002018E+03  0.7546771E-02  0.1149569E+00
         21   -1    0    0  501  502  0.00000000000E+00  0.00000000000E+00  0.31353583881E+03  0.31353583881E+03  0.00000000000E+00 0.  1.
         21   -1    0    0  502  503 -0.00000000000E+00 -0.00000000000E+00 -0.24385570491E+03  0.24385570491E+03  0.00000000000E+00 0.  1.
          6    1    1    2  501    0  0.70988218153E+02  0.71501149583E+02  0.22707501340E+03  0.30272727532E+03  0.17300000000E+03 0.  1.
         -6    1    1    2    0  503 -0.70988218153E+02 -0.71501149583E+02 -0.15739487951E+03  0.25466426841E+03  0.17300000000E+03 0.  1.
<mgrwt>
<rscale>  2 0.20020175E+03</rscale>
<asrwt>0</asrwt>
<pdfrwt beam="1">  1       21 0.48236283E-01 0.20020175E+03</pdfrwt>
<pdfrwt beam="2">  1       21 0.37516262E-01 0.20020175E+03</pdfrwt>
<totfact> 0.28015994E+04</totfact>
</mgrwt>
</event>
<event>
 4    1  0.4332500E+000  0.2924609E+03  0.7546771E-02  0.1089071E+00
         21   -1    0    0  503  502  0.00000000000E+00  0.00000000000E+00  0.70173668049E+03  0.70173668049E+03  0.00000000000E+00 0. -1.
         21   -1    0    0  501  503 -0.00000000000E+00 -0.00000000000E+00 -0.12190228523E+03  0.12190228523E+03  0.00000000000E+00 0. -1.
          6    1    1    2  501    0  0.94693546343E+02  0.21595717160E+03  0.28547857687E+03  0.40869473392E+03  0.17300000000E+03 0. -1.
         -6    1    1    2    0  502 -0.94693546343E+02 -0.21595717160E+03  0.29435581839E+03  0.41494423180E+03  0.17300000000E+03 0. -1.
<mgrwt>
<rscale>  2 0.29246088E+03</rscale>
<asrwt>0</asrwt>
<pdfrwt beam="1">  1       21 0.10795949E+00 0.29246088E+03</pdfrwt>
<pdfrwt beam="2">  1       21 0.18754198E-01 0.29246088E+03</pdfrwt>
<totfact> 0.16848982E+04</totfact>
</mgrwt>
</event>
<event>
 4    1  0.4332500E+000  0.1819506E+03  0.7546771E-02  0.1165928E+00
         21   -1    0    0  503  502  0.00000000000E+00  0.00000000000E+00  0.16766393103E+04  0.16766393103E+04  0.00000000000E+00 0. -1.
         21   -1    0    0  501  503 -0.00000000000E+00 -0.00000000000E+00 -0.21286094319E+02  0.21286094319E+02  0.00000000000E+00 0. -1.
          6    1    1    2  501    0 -0.56052653685E+02  0.59265538956E+01  0.59928002759E+03  0.62629272349E+03  0.17300000000E+03 0. -1.
         -6    1    1    2    0  502  0.56052653685E+02 -0.59265538956E+01  0.10560731884E+04  0.10716326811E+04  0.17300000000E+03 0. -1.
<mgrwt>
<rscale>  2 0.18195061E+03</rscale>
<asrwt>0</asrwt>
<pdfrwt beam="1">  1       21 0.25794441E+00 0.18195061E+03</pdfrwt>
<pdfrwt beam="2">  1       21 0.32747851E-02 0.18195061E+03</pdfrwt>
<totfact> 0.32983960E+04</totfact>
</mgrwt>
</event>
<event>
 4    1  0.4332500E+000  0.1964825E+03  0.7546771E-02  0.1152741E+00
         21   -1    0    0  503  502  0.00000000000E+00  0.00000000000E+00  0.24354592261E+02  0.24354592261E+02  0.00000000000E+00 0.  1.
         21   -1    0    0  501  503 -0.00000000000E+00 -0.00000000000E+00 -0.18663917480E+04  0.18663917480E+04  0.00000000000E+00 0.  1.
          6    1    1    2  501    0  0.38538602277E+01 -0.93067231602E+02 -0.12880066183E+04  0.13029069079E+04  0.17300000000E+03 0.  1.
         -6    1    1    2    0  502 -0.38538602277E+01  0.93067231602E+02 -0.55403053740E+03  0.58783943234E+03  0.17300000000E+03 0.  1.
<mgrwt>
<rscale>  2 0.19648247E+03</rscale>
<asrwt>0</asrwt>
<pdfrwt beam="1">  1       21 0.37468591E-02 0.19648247E+03</pdfrwt>
<pdfrwt beam="2">  1       21 0.28713729E+00 0.19648247E+03</pdfrwt>
<totfact> 0.17630643E+04</totfact>
</mgrwt>
</event>
<event>
 4    1  0.4332500E+000  0.2821053E+03  0.7546771E-02  0.1094545E+00
         21   -1    0    0  503  502  0.00000000000E+00  0.00000000000E+00  0.44639741633E+03  0.44639741633E+03  0.00000000000E+00 0.  1.
         21   -1    0    0  501  503 -0.00000000000E+00 -0.00000000000E+00 -0.73234105380E+03  0.73234105380E+03  0.00000000000E+00 0. -1.
          6    1    1    2  501    0  0.17436616883E+03 -0.13874741149E+03 -0.65560872614E+03  0.71372698339E+03  0.17300000000E+03 0. -1.
         -6    1    1    2    0  502 -0.17436616883E+03  0.13874741149E+03  0.36966508866E+03  0.46501148674E+03  0.17300000000E+03 0.  1.
<mgrwt>
<rscale>  2 0.28210531E+03</rscale>
<asrwt>0</asrwt>
<pdfrwt beam="1">  1       21 0.68676526E-01 0.28210531E+03</pdfrwt>
<pdfrwt beam="2">  1       21 0.11266785E+00 0.28210531E+03</pdfrwt>
<totfact> 0.11053283E+03</totfact>
</mgrwt>
</event>
<event>
 4    1  0.4332500E+000  0.3133223E+03  0.7546771E-02  0.1078764E+00
         21   -1    0    0  501  502  0.00000000000E+00  0.00000000000E+00  0.16707352714E+03  0.16707352714E+03  0.00000000000E+00 0. -1.
         21   -1    0    0  502  503 -0.00000000000E+00 -0.00000000000E+00 -0.60459202080E+03  0.60459202080E+03  0.00000000000E+00 0.  1.
          6    1    1    2  501    0 -0.98428544203E+01 -0.26104597562E+03 -0.15405887694E+03  0.34914899503E+03  0.17300000000E+03 0. -1.
         -6    1    1    2    0  503  0.98428544203E+01  0.26104597562E+03 -0.28345961672E+03  0.42251655291E+03  0.17300000000E+03 0.  1.
<mgrwt>
<rscale>  2 0.31332233E+03</rscale>
<asrwt>0</asrwt>
<pdfrwt beam="1">  1       21 0.25703620E-01 0.31332233E+03</pdfrwt>
<pdfrwt beam="2">  1       21 0.93014157E-01 0.31332233E+03</pdfrwt>
<totfact> 0.13108590E+04</totfact>
</mgrwt>
</event>
<event>
 4    1  0.4332500E+000  0.2204673E+03  0.7546771E-02  0.1133535E+00
         21   -1    0    0  501  502  0.00000000000E+00  0.00000000000E+00  0.33468260664E+03  0.33468260664E+03  0.00000000000E+00 0. -1.
         21   -1    0    0  502  503 -0.00000000000E+00 -0.00000000000E+00 -0.27022924104E+03  0.27022924104E+03  0.00000000000E+00 0. -1.
          6    1    1    2  501    0  0.90113926783E+02  0.10274380362E+03  0.23793429827E+03  0.32437407307E+03  0.17300000000E+03 0. -1.
         -6    1    1    2    0  503 -0.90113926783E+02 -0.10274380362E+03 -0.17348093268E+03  0.28053777461E+03  0.17300000000E+03 0. -1.
<mgrwt>
<rscale>  2 0.22046725E+03</rscale>
<asrwt>0</asrwt>
<pdfrwt beam="1">  1       21 0.51489632E-01 0.22046725E+03</pdfrwt>
<pdfrwt beam="2">  1       21 0.41573729E-01 0.22046725E+03</pdfrwt>
<totfact> 0.19641445E+04</totfact>
</mgrwt>
</event>
<event>
 4    1  0.4332500E+000  0.2065750E+03  0.7546771E-02  0.1144307E+00
         21   -1    0    0  503  502  0.00000000000E+00  0.00000000000E+00  0.98787461956E+02  0.98787461956E+02  0.00000000000E+00 0.  1.
         21   -1    0    0  501  503 -0.00000000000E+00 -0.00000000000E+00 -0.43334381329E+03  0.43334381329E+03  0.00000000000E+00 0. -1.
          6    1    1    2  501    0  0.30993701622E+02  0.10855234051E+03 -0.18225900919E+03  0.27548424021E+03  0.17300000000E+03 0. -1.
         -6    1    1    2    0  502 -0.30993701622E+02 -0.10855234051E+03 -0.15229734214E+03  0.25664703504E+03  0.17300000000E+03 0. -1.
<mgrwt>
<rscale>  2 0.20657497E+03</rscale>
<asrwt>0</asrwt>
<pdfrwt beam="1">  1       21 0.15198071E-01 0.20657497E+03</pdfrwt>
<pdfrwt beam="2">  1       21 0.66668280E-01 0.20657497E+03</pdfrwt>
<totfact> 0.78508796E+04</totfact>
</mgrwt>
</event>
<event>
 4    1  0.4332500E+000  0.2528069E+03  0.7546771E-02  0.1111544E+00
         21   -1    0    0  501  502  0.00000000000E+00  0.00000000000E+00  0.35860311924E+03  0.35860311924E+03  0.00000000000E+00 0.  1.
         21   -1    0    0  502  503 -0.00000000000E+00 -0.00000000000E+00 -0.23700481828E+03  0.23700481828E+03  0.00000000000E+00 0. -1.
          6    1    1    2  501    0  0.15652339646E+03 -0.97379337950E+02  0.20911021500E+03  0.32808290281E+03  0.17300000000E+03 0.  1.
         -6    1    1    2    0  503 -0.15652339646E+03  0.97379337950E+02 -0.87511914036E+02  0.26752503471E+03  0.17300000000E+03 0.  1.
<mgrwt>
<rscale>  2 0.25280686E+03</rscale>
<asrwt>0</asrwt>
<pdfrwt beam="1">  1       21 0.55169710E-01 0.25280686E+03</pdfrwt>
<pdfrwt beam="2">  1       21 0.36462280E-01 0.25280686E+03</pdfrwt>
<totfact> 0.21769973E+04</totfact>
</mgrwt>
</event>
<event>
 4    1  0.4332500E+000  0.1751141E+03  0.7546771E-02  0.1172617E+00
         21   -1    0    0  503  502  0.00000000000E+00  0.00000000000E+00  0.24892138471E+03  0.24892138471E+03  0.00000000000E+00 0.  1.
         21   -1    0    0  501  503 -0.00000000000E+00 -0.00000000000E+00 -0.25888578240E+03  0.25888578240E+03  0.00000000000E+00 0.  1.
          6    1    1    2  501    0 -0.23219813868E+02  0.14027938934E+02 -0.18880351201E+03  0.25751059973E+03  0.17300000000E+03 0.  1.
         -6    1    1    2    0  502  0.23219813868E+02 -0.14027938934E+02  0.17883911433E+03  0.25029656738E+03  0.17300000000E+03 0.  1.
<mgrwt>
<rscale>  2 0.17511409E+03</rscale>
<asrwt>0</asrwt>
<pdfrwt beam="1">  1       21 0.38295598E-01 0.17511409E+03</pdfrwt>
<pdfrwt beam="2">  1       21 0.39828582E-01 0.17511409E+03</pdfrwt>
<totfact> 0.40308170E+04</totfact>
</mgrwt>
</event>
<event>
 4    1  0.4332500E+000  0.1841067E+03  0.7546771E-02  0.1163887E+00
         21   -1    0    0  503  502  0.00000000000E+00  0.00000000000E+00  0.55004936339E+03  0.55004936339E+03  0.00000000000E+00 0.  1.
         21   -1    0    0  501  503 -0.00000000000E+00 -0.00000000000E+00 -0.68269042109E+02  0.68269042109E+02  0.00000000000E+00 0.  1.
          6    1    1    2  501    0  0.25438270707E+01 -0.62927024081E+02  0.14442373186E+03  0.23399464895E+03  0.17300000000E+03 0. -1.
         -6    1    1    2    0  502 -0.25438270707E+01  0.62927024081E+02  0.33735658942E+03  0.38432375654E+03  0.17300000000E+03 0. -1.
<mgrwt>
<rscale>  2 0.18410671E+03</rscale>
<asrwt>0</asrwt>
<pdfrwt beam="1">  1       21 0.84622976E-01 0.18410671E+03</pdfrwt>
<pdfrwt beam="2">  1       21 0.10502930E-01 0.18410671E+03</pdfrwt>
<totfact> 0.90371735E+04</totfact>
</mgrwt>
</event>
<event>
 4    1  0.4332500E+000  0.1983281E+03  0.7546771E-02  0.1151157E+00
         21   -1    0    0  501  502  0.00000000000E+00  0.00000000000E+00  0.27950630907E+03  0.27950630907E+03  0.00000000000E+00 0. -1.
         21   -1    0    0  502  503 -0.00000000000E+00 -0.00000000000E+00 -0.25465628364E+03  0.25465628364E+03  0.00000000000E+00 0. -1.
          6    1    1    2  501    0 -0.34907182596E+02 -0.90479311465E+02  0.19106736076E+03  0.27539199979E+03  0.17300000000E+03 0. -1.
         -6    1    1    2    0  503  0.34907182596E+02  0.90479311465E+02 -0.16621733533E+03  0.25877059293E+03  0.17300000000E+03 0. -1.
<mgrwt>
<rscale>  2 0.19832805E+03</rscale>
<asrwt>0</asrwt>
<pdfrwt beam="1">  1       21 0.43000970E-01 0.19832805E+03</pdfrwt>
<pdfrwt beam="2">  1       21 0.39177890E-01 0.19832805E+03</pdfrwt>
<totfact> 0.32566268E+04</totfact>
</mgrwt>
</event>
<event>
 4    1  0.4332500E+000  0.2725039E+03  0.7546771E-02  0.1099855E+00
         21   -1    0    0  501  502  0.00000000000E+00  0.00000000000E+00  0.11096998523E+03  0.11096998523E+03  0.00000000000E+00 0.  1.
         21   -1    0    0  502  503 -0.00000000000E+00 -0.00000000000E+00 -0.67243616068E+03  0.67243616068E+03  0.00000000000E+00 0.  1.
          6    1    1    2  501    0 -0.18998823646E+03 -0.90740487053E+02 -0.25345575649E+03  0.37215344481E+03  0.17300000000E+03 0.  1.
         -6    1    1    2    0  503  0.18998823646E+03  0.90740487053E+02 -0.30801041896E+03  0.41125270111E+03  0.17300000000E+03 0.  1.
<mgrwt>
<rscale>  2 0.27250388E+03</rscale>
<asrwt>0</asrwt>
<pdfrwt beam="1">  1       21 0.17072305E-01 0.27250388E+03</pdfrwt>
<pdfrwt beam="2">  1       21 0.10345172E+00 0.27250388E+03</pdfrwt>
<totfact> 0.22466416E+04</totfact>
</mgrwt>
</event>
<event>
 4    1  0.4332500E+000  0.1898043E+03  0.7546771E-02  0.1158638E+00
         21   -1    0    0  503  502  0.00000000000E+00  0.00000000000E+00  0.39186566661E+03  0.39186566661E+03  0.00000000000E+00 0.  1.
         21   -1    0    0  501  503 -0.00000000000E+00 -0.00000000000E+00 -0.20214833806E+03  0.20214833806E+03  0.00000000000E+00 0.  1.
          6    1    1    2  501    0  0.29190624370E+02 -0.72419560433E+02 -0.12444764005E+03  0.22696453555E+03  0.17300000000E+03 0.  1.
         -6    1    1    2    0  502 -0.29190624370E+02  0.72419560433E+02  0.31416496860E+03  0.36704946912E+03  0.17300000000E+03 0.  1.
<mgrwt>
<rscale>  2 0.18980433E+03</rscale>
<asrwt>0</asrwt>
<pdfrwt beam="1">  1       21 0.60287026E-01 0.18980433E+03</pdfrwt>
<pdfrwt beam="2">  1       21 0.31099744E-01 0.18980433E+03</pdfrwt>
<totfact> 0.25516282E+04</totfact>
</mgrwt>
</event>
<event>
 4    1  0.4332500E+000  0.2427538E+03  0.7546771E-02  0.1117972E+00
         21   -1    0    0  501  502  0.00000000000E+00  0.00000000000E+00  0.29158988347E+03  0.29158988347E+03  0.00000000000E+00 0.  1.
         21   -1    0    0  502  503 -0.00000000000E+00 -0.00000000000E+00 -0.20222798396E+03  0.20222798396E+03  0.00000000000E+00 0. -1.
          6    1    1    2  501    0 -0.68892003524E+02 -0.15573795362E+03  0.50966628378E+02  0.24804639799E+03  0.17300000000E+03 0.  1.
         -6    1    1    2    0  503  0.68892003524E+02  0.15573795362E+03  0.38395271124E+02  0.24577146944E+03  0.17300000000E+03 0. -1.
<mgrwt>
<rscale>  2 0.24275382E+03</rscale>
<asrwt>0</asrwt>
<pdfrwt beam="1">  1       21 0.44859982E-01 0.24275382E+03</pdfrwt>
<pdfrwt beam="2">  1       21 0.31111998E-01 0.24275382E+03</pdfrwt>
<totfact> 0.46255437E+04</totfact>
</mgrwt>
</event>
<event>
 4    1  0.4332500E+000  0.1828268E+03  0.7546771E-02  0.1165095E+00
         21   -1    0    0  501  502  0.00000000000E+00  0.00000000000E+00  0.60625696036E+03  0.60625696036E+03  0.00000000000E+00 0.  1.
         21   -1    0    0  502  503 -0.00000000000E+00 -0.00000000000E+00 -0.86224627677E+02  0.86224627677E+02  0.00000000000E+00 0.  1.
          6    1    1    2  501    0  0.29605041667E+02 -0.51187796892E+02  0.46792556192E+03  0.50237434304E+03  0.17300000000E+03 0.  1.
         -6    1    1    2    0  503 -0.29605041667E+02  0.51187796892E+02  0.52106770763E+02  0.19010724500E+03  0.17300000000E+03 0.  1.
<mgrwt>
<rscale>  2 0.18282683E+03</rscale>
<asrwt>0</asrwt>
<pdfrwt beam="1">  1       21 0.93270299E-01 0.18282683E+03</pdfrwt>
<pdfrwt beam="2">  1       21 0.13265328E-01 0.18282683E+03</pdfrwt>
<totfact> 0.47627726E+04</totfact>
</mgrwt>
</event>
<event>
 4    1  0.4332500E+000  0.2312078E+03  0.7546771E-02  0.1125793E+00
         21   -1    0    0  501  502  0.00000000000E+00  0.00000000000E+00  0.54777433404E+03  0.54777433404E+03  0.00000000000E+00 0. -1.
         21   -1    0    0  502  503 -0.00000000000E+00 -0.00000000000E+00 -0.10242938185E+03  0.10242938185E+03  0.00000000000E+00 0.  1.
          6    1    1    2  501    0 -0.47876010661E+02 -0.14572546608E+03  0.15200419702E+03  0.27669893345E+03  0.17300000000E+03 0.  1.
         -6    1    1    2    0  503  0.47876010661E+02  0.14572546608E+03  0.29334075517E+03  0.37350478244E+03  0.17300000000E+03 0.  1.
<mgrwt>
<rscale>  2 0.23120775E+03</rscale>
<asrwt>0</asrwt>
<pdfrwt beam="1">  1       21 0.84272973E-01 0.23120775E+03</pdfrwt>
<pdfrwt beam="2">  1       21 0.15758367E-01 0.23120775E+03</pdfrwt>
<totfact> 0.42986585E+04</totfact>
</mgrwt>
</event>
<event>
 4    1  0.4332500E+000  0.2629250E+03  0.7546771E-02  0.1105398E+00
         21   -1    0    0  501  502  0.00000000000E+00  0.00000000000E+00  0.47288552663E+03  0.47288552663E+03  0.00000000000E+00 0.  1.
         21   -1    0    0  502  503 -0.00000000000E+00 -0.00000000000E+00 -0.16497809008E+03  0.16497809008E+03  0.00000000000E+00 0. -1.
          6    1    1    2  501    0  0.18780325207E+03  0.62693469102E+02  0.26159160964E+03  0.37089041884E+03  0.17300000000E+03 0.  1.
         -6    1    1    2    0  503 -0.18780325207E+03 -0.62693469102E+02  0.46315826914E+02  0.26697319786E+03  0.17300000000E+03 0. -1.
<mgrwt>
<rscale>  2 0.26292496E+03</rscale>
<asrwt>0</asrwt>
<pdfrwt beam="1">  1       21 0.72751619E-01 0.26292496E+03</pdfrwt>
<pdfrwt beam="2">  1       21 0.25381245E-01 0.26292496E+03</pdfrwt>
<totfact> 0.24145787E+04</totfact>
</mgrwt>
</event>
<event>
 4    1  0.4332500E+000  0.1944964E+03  0.7546771E-02  0.1154467E+00
         21   -1    0    0  501  502  0.00000000000E+00  0.00000000000E+00  0.26444237438E+03  0.26444237438E+03  0.00000000000E+00 0. -1.
         21   -1    0    0  502  503 -0.00000000000E+00 -0.00000000000E+00 -0.18555645362E+03  0.18555645362E+03  0.00000000000E+00 0. -1.
          6    1    1    2  501    0 -0.72072875479E+01  0.88588301426E+02  0.14713014442E+03  0.24387724687E+03  0.17300000000E+03 0. -1.
         -6    1    1    2    0  503  0.72072875479E+01 -0.88588301426E+02 -0.68244223662E+02  0.20612158113E+03  0.17300000000E+03 0. -1.
<mgrwt>
<rscale>  2 0.19449636E+03</rscale>
<asrwt>0</asrwt>
<pdfrwt beam="1">  1       21 0.40683442E-01 0.19449636E+03</pdfrwt>
<pdfrwt beam="2">  1       21 0.28547147E-01 0.19449636E+03</pdfrwt>
<totfact> 0.68254673E+04</totfact>
</mgrwt>
</event>
<event>
 4    1  0.4332500E+000  0.1946625E+03  0.7546771E-02  0.1154322E+00
         21   -1    0    0  501  502  0.00000000000E+00  0.00000000000E+00  0.79309389307E+02  0.79309389307E+02  0.00000000000E+00 0. -1.
         21   -1    0    0  502  503 -0.00000000000E+00 -0.00000000000E+00 -0.49756304278E+03  0.49756304278E+03  0.00000000000E+00 0. -1.
          6    1    1    2  501    0  0.30806328964E+02 -0.83758223525E+02 -0.26662177578E+03  0.33012216108E+03  0.17300000000E+03 0.  1.
         -6    1    1    2    0  503 -0.30806328964E+02  0.83758223525E+02 -0.15163187769E+03  0.24675027101E+03  0.17300000000E+03 0.  1.
<mgrwt>
<rscale>  2 0.19466245E+03</rscale>
<asrwt>0</asrwt>
<pdfrwt beam="1">  1       21 0.12201445E-01 0.19466245E+03</pdfrwt>
<pdfrwt beam="2">  1       21 0.76548160E-01 0.19466245E+03</pdfrwt>
<totfact> 0.86443364E+04</totfact>
</mgrwt>
</event>
<event>
 4    1  0.4332500E+000  0.2053567E+03  0.7546771E-02  0.1145297E+00
         21   -1    0    0  501  502  0.00000000000E+00  0.00000000000E+00  0.11421068922E+03  0.11421068922E+03  0.00000000000E+00 0. -1.
         21   -1    0    0  502  503 -0.00000000000E+00 -0.00000000000E+00 -0.42871157254E+03  0.42871157254E+03  0.00000000000E+00 0.  1.
          6    1    1    2  501    0 -0.50870170758E+02  0.98257793345E+02 -0.56145370037E+02  0.21289356684E+03  0.17300000000E+03 0.  1.
         -6    1    1    2    0  503  0.50870170758E+02 -0.98257793345E+02 -0.25835551328E+03  0.33002869492E+03  0.17300000000E+03 0. -1.
<mgrwt>
<rscale>  2 0.20535669E+03</rscale>
<asrwt>0</asrwt>
<pdfrwt beam="1">  1       21 0.17570875E-01 0.20535669E+03</pdfrwt>
<pdfrwt beam="2">  1       21 0.65955627E-01 0.20535669E+03</pdfrwt>
<totfact> 0.61609659E+04</totfact>
</mgrwt>
</event>
<event>
 4    1  0.4332500E+000  0.3023077E+03  0.7546771E-02  0.1084093E+00
         21   -1    0    0  501  502  0.00000000000E+00  0.00000000000E+00  0.10305335780E+04  0.10305335780E+04  0.00000000000E+00 0. -1.
         21   -1    0    0  502  503 -0.00000000000E+00 -0.00000000000E+00 -0.10348482934E+03  0.10348482934E+03  0.00000000000E+00 0. -1.
          6    1    1    2  501    0  0.20787200624E+03  0.13509325880E+03  0.67797215552E+03  0.74231812803E+03  0.17300000000E+03 0. -1.
         -6    1    1    2    0  503 -0.20787200624E+03 -0.13509325880E+03  0.24907659313E+03  0.39170027929E+03  0.17300000000E+03 0. -1.
<mgrwt>
<rscale>  2 0.30230772E+03</rscale>
<asrwt>0</asrwt>
<pdfrwt beam="1">  1       21 0.15854362E+00 0.30230772E+03</pdfrwt>
<pdfrwt beam="2">  1       21 0.15920744E-01 0.30230772E+03</pdfrwt>
<totfact> 0.84622431E+03</totfact>
</mgrwt>
</event>
<event>
 4    1  0.4332500E+000  0.1846693E+03  0.7546771E-02  0.1163359E+00
         21   -1    0    0  501  502  0.00000000000E+00  0.00000000000E+00  0.37000892633E+03  0.37000892633E+03  0.00000000000E+00 0.  1.
         21   -1    0    0  502  503 -0.00000000000E+00 -0.00000000000E+00 -0.17872856767E+03  0.17872856767E+03  0.00000000000E+00 0.  1.
          6    1    1    2  501    0 -0.59032014685E+02  0.26248272707E+02  0.28658121519E+03  0.34092747539E+03  0.17300000000E+03 0.  1.
         -6    1    1    2    0  503  0.59032014685E+02 -0.26248272707E+02 -0.95300856531E+02  0.20781001861E+03  0.17300000000E+03 0.  1.
<mgrwt>
<rscale>  2 0.18466930E+03</rscale>
<asrwt>0</asrwt>
<pdfrwt beam="1">  1       21 0.56924450E-01 0.18466930E+03</pdfrwt>
<pdfrwt beam="2">  1       21 0.27496703E-01 0.18466930E+03</pdfrwt>
<totfact> 0.36738298E+04</totfact>
</mgrwt>
</event>
<event>
 4    1  0.4332500E+000  0.2222325E+03  0.7546771E-02  0.1132229E+00
         21   -1    0    0  503  502  0.00000000000E+00  0.00000000000E+00  0.63858936879E+03  0.63858936879E+03  0.00000000000E+00 0.  1.
         21   -1    0    0  501  503 -0.00000000000E+00 -0.00000000000E+00 -0.10122388301E+03  0.10122388301E+03  0.00000000000E+00 0.  1.
          6    1    1    2  501    0  0.70749266745E+02 -0.12021998941E+03  0.88994308089E+02  0.23938941386E+03  0.17300000000E+03 0.  1.
         -6    1    1    2    0  502 -0.70749266745E+02  0.12021998941E+03  0.44837117769E+03  0.50042383794E+03  0.17300000000E+03 0.  1.
<mgrwt>
<rscale>  2 0.22223255E+03</rscale>
<asrwt>0</asrwt>
<pdfrwt beam="1">  1       21 0.98244516E-01 0.22223255E+03</pdfrwt>
<pdfrwt beam="2">  1       21 0.15572905E-01 0.22223255E+03</pdfrwt>
<totfact> 0.30857675E+04</totfact>
</mgrwt>
</event>
<event>
 4    1  0.4332500E+000  0.1754223E+03  0.7546771E-02  0.1172308E+00
         21   -1    0    0  503  502  0.00000000000E+00  0.00000000000E+00  0.39041121941E+02  0.39041121941E+02  0.00000000000E+00 0. -1.
         21   -1    0    0  501  503 -0.00000000000E+00 -0.00000000000E+00 -0.85374869664E+03  0.85374869664E+03  0.00000000000E+00 0. -1.
          6    1    1    2  501    0 -0.22411996149E+02 -0.18484634838E+02 -0.28368185515E+03  0.33353916448E+03  0.17300000000E+03 0. -1.
         -6    1    1    2    0  502  0.22411996149E+02  0.18484634838E+02 -0.53102571955E+03  0.55925065411E+03  0.17300000000E+03 0. -1.
<mgrwt>
<rscale>  2 0.17542229E+03</rscale>
<asrwt>0</asrwt>
<pdfrwt beam="1">  1       21 0.60063275E-02 0.17542229E+03</pdfrwt>
<pdfrwt beam="2">  1       21 0.13134593E+00 0.17542229E+03</pdfrwt>
<totfact> 0.83572633E+04</totfact>
</mgrwt>
</event>
<event>
 4    1  0.4332500E+000  0.1801229E+03  0.7546771E-02  0.1167684E+00
         21   -1    0    0  503  502  0.00000000000E+00  0.00000000000E+00  0.67435529129E+02  0.67435529129E+02  0.00000000000E+00 0. -1.
         21   -1    0    0  501  503 -0.00000000000E+00 -0.00000000000E+00 -0.48589030932E+03  0.48589030932E+03  0.00000000000E+00 0. -1.
          6    1    1    2  501    0  0.40917480281E+02  0.29000433528E+02 -0.18180100282E+03  0.25592160902E+03  0.17300000000E+03 0. -1.
         -6    1    1    2    0  502 -0.40917480281E+02 -0.29000433528E+02 -0.23665377738E+03  0.29740422943E+03  0.17300000000E+03 0. -1.
<mgrwt>
<rscale>  2 0.18012292E+03</rscale>
<asrwt>0</asrwt>
<pdfrwt beam="1">  1       21 0.10374697E-01 0.18012292E+03</pdfrwt>
<pdfrwt beam="2">  1       21 0.74752354E-01 0.18012292E+03</pdfrwt>
<totfact> 0.12234108E+05</totfact>
</mgrwt>
</event>
<event>
 4    1  0.4332500E+000  0.2106118E+03  0.7546771E-02  0.1141082E+00
         21   -1    0    0  503  502  0.00000000000E+00  0.00000000000E+00  0.92322465542E+02  0.92322465542E+02  0.00000000000E+00 0. -1.
         21   -1    0    0  501  503 -0.00000000000E+00 -0.00000000000E+00 -0.48764968637E+03  0.48764968637E+03  0.00000000000E+00 0. -1.
          6    1    1    2  501    0  0.32505047980E+02  0.11563625377E+03 -0.23287274859E+03  0.31398572955E+03  0.17300000000E+03 0. -1.
         -6    1    1    2    0  502 -0.32505047980E+02 -0.11563625377E+03 -0.16245447225E+03  0.26598642236E+03  0.17300000000E+03 0. -1.
<mgrwt>
<rscale>  2 0.21061178E+03</rscale>
<asrwt>0</asrwt>
<pdfrwt beam="1">  1       21 0.14203456E-01 0.21061178E+03</pdfrwt>
<pdfrwt beam="2">  1       21 0.75023030E-01 0.21061178E+03</pdfrwt>
<totfact> 0.68262174E+04</totfact>
</mgrwt>
</event>
<event>
 4    1  0.4332500E+000  0.2688840E+03  0.7546771E-02  0.1101920E+00
         21   -1    0    0  501  502  0.00000000000E+00  0.00000000000E+00  0.28304569048E+02  0.28304569048E+02  0.00000000000E+00 0. -1.
         21   -1    0    0  502  503 -0.00000000000E+00 -0.00000000000E+00 -0.25983458435E+04  0.25983458435E+04  0.00000000000E+00 0. -1.
          6    1    1    2  501    0  0.11268611712E+03 -0.17225396199E+03 -0.11140440655E+04  0.11460334936E+04  0.17300000000E+03 0. -1.
         -6    1    1    2    0  503 -0.11268611712E+03  0.17225396199E+03 -0.14559972089E+04  0.14806169190E+04  0.17300000000E+03 0. -1.
<mgrwt>
<rscale>  2 0.26888397E+03</rscale>
<asrwt>0</asrwt>
<pdfrwt beam="1">  1       21 0.43545488E-02 0.26888397E+03</pdfrwt>
<pdfrwt beam="2">  1       21 0.39974554E+00 0.26888397E+03</pdfrwt>
<totfact> 0.27112269E+03</totfact>
</mgrwt>
</event>
<event>
 4    1  0.4332500E+000  0.1741623E+03  0.7546771E-02  0.1173575E+00
         21   -1    0    0  501  502  0.00000000000E+00  0.00000000000E+00  0.22451230635E+03  0.22451230635E+03  0.00000000000E+00 0.  1.
         21   -1    0    0  502  503 -0.00000000000E+00 -0.00000000000E+00 -0.15867854829E+03  0.15867854829E+03  0.00000000000E+00 0.  1.
          6    1    1    2  501    0 -0.12668557692E+02  0.15589098012E+02  0.10676639464E+03  0.20428307653E+03  0.17300000000E+03 0.  1.
         -6    1    1    2    0  503  0.12668557692E+02 -0.15589098012E+02 -0.40932636585E+02  0.17890777811E+03  0.17300000000E+03 0.  1.
<mgrwt>
<rscale>  2 0.17416232E+03</rscale>
<asrwt>0</asrwt>
<pdfrwt beam="1">  1       21 0.34540355E-01 0.17416232E+03</pdfrwt>
<pdfrwt beam="2">  1       21 0.24412084E-01 0.17416232E+03</pdfrwt>
<totfact> 0.12886274E+05</totfact>
</mgrwt>
</event>
<event>
 4    1  0.4332500E+000  0.1971188E+03  0.7546771E-02  0.1152193E+00
         21   -1    0    0  501  502  0.00000000000E+00  0.00000000000E+00  0.10010030599E+03  0.10010030599E+03  0.00000000000E+00 0.  1.
         21   -1    0    0  502  503 -0.00000000000E+00 -0.00000000000E+00 -0.82922234973E+03  0.82922234973E+03  0.00000000000E+00 0.  1.
          6    1    1    2  501    0  0.16632082839E+02  0.93006388864E+02 -0.25680430731E+02  0.19878455441E+03  0.17300000000E+03 0.  1.
         -6    1    1    2    0  503 -0.16632082839E+02 -0.93006388864E+02 -0.70344161301E+03  0.73053810131E+03  0.17300000000E+03 0.  1.
<mgrwt>
<rscale>  2 0.19711878E+03</rscale>
<asrwt>0</asrwt>
<pdfrwt beam="1">  1       21 0.15400048E-01 0.19711878E+03</pdfrwt>
<pdfrwt beam="2">  1       21 0.12757267E+00 0.19711878E+03</pdfrwt>
<totfact> 0.16897491E+04</totfact>
</mgrwt>
</event>
<event>
 4    1  0.4332500E+000  0.2081066E+03  0.7546771E-02  0.1143074E+00
         21   -1    0    0  503  502  0.00000000000E+00  0.00000000000E+00  0.52892162533E+03  0.52892162533E+03  0.00000000000E+00 0. -1.
         21   -1    0    0  501  503 -0.00000000000E+00 -0.00000000000E+00 -0.81901342136E+02  0.81901342136E+02  0.00000000000E+00 0.  1.
          6    1    1    2  501    0  0.76225511678E+02 -0.87000133889E+02  0.21863473903E+03  0.30184350422E+03  0.17300000000E+03 0. -1.
         -6    1    1    2    0  502 -0.76225511678E+02  0.87000133889E+02  0.22838554417E+03  0.30897946325E+03  0.17300000000E+03 0.  1.
<mgrwt>
<rscale>  2 0.20810659E+03</rscale>
<asrwt>0</asrwt>
<pdfrwt beam="1">  1       21 0.81372556E-01 0.20810659E+03</pdfrwt>
<pdfrwt beam="2">  1       21 0.12600207E-01 0.20810659E+03</pdfrwt>
<totfact> 0.70654239E+04</totfact>
</mgrwt>
</event>
<event>
 4    1  0.4332500E+000  0.1877071E+03  0.7546771E-02  0.1160546E+00
         21   -1    0    0  503  502  0.00000000000E+00  0.00000000000E+00  0.72758964483E+02  0.72758964483E+02  0.00000000000E+00 0.  1.
         21   -1    0    0  501  503 -0.00000000000E+00 -0.00000000000E+00 -0.51841175322E+03  0.51841175322E+03  0.00000000000E+00 0.  1.
          6    1    1    2  501    0 -0.68805956793E+02 -0.23889483636E+02 -0.29869764738E+03  0.35278074164E+03  0.17300000000E+03 0.  1.
         -6    1    1    2    0  502  0.68805956793E+02  0.23889483636E+02 -0.14695514136E+03  0.23838997607E+03  0.17300000000E+03 0.  1.
<mgrwt>
<rscale>  2 0.18770713E+03</rscale>
<asrwt>0</asrwt>
<pdfrwt beam="1">  1       21 0.11193687E-01 0.18770713E+03</pdfrwt>
<pdfrwt beam="2">  1       21 0.79755655E-01 0.18770713E+03</pdfrwt>
<totfact> 0.92193145E+04</totfact>
</mgrwt>
</event>
<event>
 4    1  0.4332500E+000  0.2977227E+03  0.7546771E-02  0.1086385E+00
         21   -1    0    0  503  502  0.00000000000E+00  0.00000000000E+00  0.32706790110E+03  0.32706790110E+03  0.00000000000E+00 0.  1.
         21   -1    0    0  501  503 -0.00000000000E+00 -0.00000000000E+00 -0.89160675219E+03  0.89160675219E+03  0.00000000000E+00 0. -1.
          6    1    1    2  501    0 -0.57219266483E+02  0.23544801179E+03 -0.79063450353E+03  0.84483236733E+03  0.17300000000E+03 0. -1.
         -6    1    1    2    0  502  0.57219266483E+02 -0.23544801179E+03  0.22609565244E+03  0.37384228595E+03  0.17300000000E+03 0.  1.
<mgrwt>
<rscale>  2 0.29772271E+03</rscale>
<asrwt>0</asrwt>
<pdfrwt beam="1">  1       21 0.50318139E-01 0.29772271E+03</pdfrwt>
<pdfrwt beam="2">  1       21 0.13717027E+00 0.29772271E+03</pdfrwt>
<totfact> 0.13032454E+03</totfact>
</mgrwt>
</event>
<event>
 4    1  0.4332500E+000  0.2541021E+03  0.7546771E-02  0.1110739E+00
         21   -1    0    0  501  502  0.00000000000E+00  0.00000000000E+00  0.43340271816E+03  0.43340271816E+03  0.00000000000E+00 0. -1.
         21   -1    0    0  502  503 -0.00000000000E+00 -0.00000000000E+00 -0.15188313667E+03  0.15188313667E+03  0.00000000000E+00 0.  1.
          6    1    1    2  501    0  0.16934770686E+03 -0.77202519624E+02  0.18122639194E+03  0.31210716106E+03  0.17300000000E+03 0. -1.
         -6    1    1    2    0  503 -0.16934770686E+03  0.77202519624E+02  0.10029318956E+03  0.27317869376E+03  0.17300000000E+03 0.  1.
<mgrwt>
<rscale>  2 0.25410210E+03</rscale>
<asrwt>0</asrwt>
<pdfrwt beam="1">  1       21 0.66677341E-01 0.25410210E+03</pdfrwt>
<pdfrwt beam="2">  1       21 0.23366637E-01 0.25410210E+03</pdfrwt>
<totfact> 0.34468661E+04</totfact>
</mgrwt>
</event>
<event>
 4    1  0.4332500E+000  0.1907745E+03  0.7546771E-02  0.1157765E+00
         21   -1    0    0  503  502  0.00000000000E+00  0.00000000000E+00  0.14739832226E+04  0.14739832226E+04  0.00000000000E+00 0.  1.
         21   -1    0    0  501  503 -0.00000000000E+00 -0.00000000000E+00 -0.26282364704E+02  0.26282364704E+02  0.00000000000E+00 0. -1.
          6    1    1    2  501    0  0.78127470955E+02 -0.19026259552E+02  0.90840233104E+03  0.92821856010E+03  0.17300000000E+03 0.  1.
         -6    1    1    2    0  502 -0.78127470955E+02  0.19026259552E+02  0.53929852690E+03  0.57204702725E+03  0.17300000000E+03 0.  1.
<mgrwt>
<rscale>  2 0.19077447E+03</rscale>
<asrwt>0</asrwt>
<pdfrwt beam="1">  1       21 0.22676659E+00 0.19077447E+03</pdfrwt>
<pdfrwt beam="2">  1       21 0.40434419E-02 0.19077447E+03</pdfrwt>
<totfact> 0.35253749E+04</totfact>
</mgrwt>
</event>
<event>
 4    1  0.4332500E+000  0.1945337E+03  0.7546771E-02  0.1154435E+00
         21   -1    0    0  501  502  0.00000000000E+00  0.00000000000E+00  0.73608587563E+03  0.73608587563E+03  0.00000000000E+00 0.  1.
         21   -1    0    0  502  503 -0.00000000000E+00 -0.00000000000E+00 -0.60987028749E+02  0.60987028749E+02  0.00000000000E+00 0. -1.
          6    1    1    2  501    0  0.76020775765E+02 -0.46208277105E+02  0.49546613805E+03  0.53228756999E+03  0.17300000000E+03 0.  1.
         -6    1    1    2    0  503 -0.76020775765E+02  0.46208277105E+02  0.17963270883E+03  0.26478533438E+03  0.17300000000E+03 0. -1.
<mgrwt>
<rscale>  2 0.19453371E+03</rscale>
<asrwt>0</asrwt>
<pdfrwt beam="1">  1       21 0.11324397E+00 0.19453371E+03</pdfrwt>
<pdfrwt beam="2">  1       21 0.93826203E-02 0.19453371E+03</pdfrwt>
<totfact> 0.55209269E+04</totfact>
</mgrwt>
</event>
<event>
 4    1  0.4332500E+000  0.1767042E+03  0.7546771E-02  0.1171031E+00
         21   -1    0    0  501  502  0.00000000000E+00  0.00000000000E+00  0.19137724338E+03  0.19137724338E+03  0.00000000000E+00 0.  1.
         21   -1    0    0  502  503 -0.00000000000E+00 -0.00000000000E+00 -0.65262798446E+03  0.65262798446E+03  0.00000000000E+00 0.  1.
          6    1    1    2  501    0  0.20447750849E+02  0.29618863415E+02  0.13483990340E+03  0.22227502589E+03  0.17300000000E+03 0.  1.
         -6    1    1    2    0  503 -0.20447750849E+02 -0.29618863415E+02 -0.59609064448E+03  0.62173020195E+03  0.17300000000E+03 0.  1.
<mgrwt>
<rscale>  2 0.17670424E+03</rscale>
<asrwt>0</asrwt>
<pdfrwt beam="1">  1       21 0.29442653E-01 0.17670424E+03</pdfrwt>
<pdfrwt beam="2">  1       21 0.10040431E+00 0.17670424E+03</pdfrwt>
<totfact> 0.90923658E+03</totfact>
</mgrwt>
</event>
<event>
 4    1  0.4332500E+000  0.1804900E+03  0.7546771E-02  0.1167330E+00
         21   -1    0    0  503  502  0.00000000000E+00  0.00000000000E+00  0.77884136928E+02  0.77884136928E+02  0.00000000000E+00 0.  1.
         21   -1    0    0  501  503 -0.00000000000E+00 -0.00000000000E+00 -0.72418654102E+03  0.72418654102E+03  0.00000000000E+00 0.  1.
          6    1    1    2  501    0 -0.51271495822E+02  0.43444461083E+01 -0.58380167168E+03  0.61106548941E+03  0.17300000000E+03 0.  1.
         -6    1    1    2    0  502  0.51271495822E+02 -0.43444461083E+01 -0.62500732414E+02  0.19100518854E+03  0.17300000000E+03 0.  1.
<mgrwt>
<rscale>  2 0.18049000E+03</rscale>
<asrwt>0</asrwt>
<pdfrwt beam="1">  1       21 0.11982174E-01 0.18049000E+03</pdfrwt>
<pdfrwt beam="2">  1       21 0.11141332E+00 0.18049000E+03</pdfrwt>
<totfact> 0.37505992E+04</totfact>
</mgrwt>
</event>
<event>
 4    1  0.4332500E+000  0.2916007E+03  0.7546771E-02  0.1089516E+00
         21   -1    0    0  501  502  0.00000000000E+00  0.00000000000E+00  0.89127030813E+03  0.89127030813E+03  0.00000000000E+00 0.  1.
         21   -1    0    0  502  503 -0.00000000000E+00 -0.00000000000E+00 -0.11844788920E+03  0.11844788920E+03  0.00000000000E+00 0. -1.
          6    1    1    2  501    0  0.17805214674E+03 -0.15296871422E+03  0.60909153891E+03  0.67529511864E+03  0.17300000000E+03 0. -1.
         -6    1    1    2    0  503 -0.17805214674E+03  0.15296871422E+03  0.16373088002E+03  0.33442307869E+03  0.17300000000E+03 0. -1.
<mgrwt>
<rscale>  2 0.29160075E+03</rscale>
<asrwt>0</asrwt>
<pdfrwt beam="1">  1       21 0.13711850E+00 0.29160075E+03</pdfrwt>
<pdfrwt beam="2">  1       21 0.18222753E-01 0.29160075E+03</pdfrwt>
<totfact> 0.97480001E+03</totfact>
</mgrwt>
</event>
<event>
 4    1  0.4332500E+000  0.1780485E+03  0.7546771E-02  0.1169705E+00
         21   -1    0    0  503  502  0.00000000000E+00  0.00000000000E+00  0.25625487815E+03  0.25625487815E+03  0.00000000000E+00 0. -1.
         21   -1    0    0  501  503 -0.00000000000E+00 -0.00000000000E+00 -0.12390673217E+03  0.12390673217E+03  0.00000000000E+00 0. -1.
          6    1    1    2  501    0  0.31356046413E+02  0.28090215716E+02  0.73750315147E+02  0.19271837185E+03  0.17300000000E+03 0. -1.
         -6    1    1    2    0  502 -0.31356046413E+02 -0.28090215716E+02  0.58597830832E+02  0.18744323846E+03  0.17300000000E+03 0. -1.
<mgrwt>
<rscale>  2 0.17804848E+03</rscale>
<asrwt>0</asrwt>
<pdfrwt beam="1">  1       21 0.39423827E-01 0.17804848E+03</pdfrwt>
<pdfrwt beam="2">  1       21 0.19062574E-01 0.17804848E+03</pdfrwt>
<totfact> 0.15730016E+05</totfact>
</mgrwt>
</event>
<event>
 4    1  0.4332500E+000  0.2839081E+03  0.7546771E-02  0.1093573E+00
         21   -1    0    0  501  502  0.00000000000E+00  0.00000000000E+00  0.52852552655E+03  0.52852552655E+03  0.00000000000E+00 0. -1.
         21   -1    0    0  502  503 -0.00000000000E+00 -0.00000000000E+00 -0.18847431639E+03  0.18847431639E+03  0.00000000000E+00 0.  1.
          6    1    1    2  501    0  0.15169870896E+03 -0.16631987326E+03  0.32663488619E+03  0.43277493852E+03  0.17300000000E+03 0.  1.
         -6    1    1    2    0  503 -0.15169870896E+03  0.16631987326E+03  0.13416323971E+02  0.28422490441E+03  0.17300000000E+03 0. -1.
<mgrwt>
<rscale>  2 0.28390808E+03</rscale>
<asrwt>0</asrwt>
<pdfrwt beam="1">  1       21 0.81311618E-01 0.28390808E+03</pdfrwt>
<pdfrwt beam="2">  1       21 0.28996049E-01 0.28390808E+03</pdfrwt>
<totfact> 0.14355331E+04</totfact>
</mgrwt>
</event>
<event>
 4    1  0.4332500E+000  0.1989571E+03  0.7546771E-02  0.1150622E+00
         21   -1    0    0  501  502  0.00000000000E+00  0.00000000000E+00  0.25650820215E+03  0.25650820215E+03  0.00000000000E+00 0.  1.
         21   -1    0    0  502  503 -0.00000000000E+00 -0.00000000000E+00 -0.15437130158E+03  0.15437130158E+03  0.00000000000E+00 0.  1.
          6    1    1    2  501    0 -0.40740194011E+02 -0.89415631653E+02  0.54873877341E+02  0.20638570931E+03  0.17300000000E+03 0. -1.
         -6    1    1    2    0  503  0.40740194011E+02  0.89415631653E+02  0.47263023229E+02  0.20449379442E+03  0.17300000000E+03 0. -1.
<mgrwt>
<rscale>  2 0.19895708E+03</rscale>
<asrwt>0</asrwt>
<pdfrwt beam="1">  1       21 0.39462800E-01 0.19895708E+03</pdfrwt>
<pdfrwt beam="2">  1       21 0.23749431E-01 0.19895708E+03</pdfrwt>
<totfact> 0.10312699E+05</totfact>
</mgrwt>
</event>
<event>
 4    1  0.4332500E+000  0.2010074E+03  0.7546771E-02  0.1148892E+00
         21   -1    0    0  503  502  0.00000000000E+00  0.00000000000E+00  0.22968660147E+03  0.22968660147E+03  0.00000000000E+00 0.  1.
         21   -1    0    0  501  503 -0.00000000000E+00 -0.00000000000E+00 -0.18294318460E+03  0.18294318460E+03  0.00000000000E+00 0.  1.
          6    1    1    2  501    0 -0.96932105073E+02  0.32850412600E+02 -0.17083427720E+02  0.20173206514E+03  0.17300000000E+03 0.  1.
         -6    1    1    2    0  502  0.96932105073E+02 -0.32850412600E+02  0.63826844589E+02  0.21089772093E+03  0.17300000000E+03 0.  1.
<mgrwt>
<rscale>  2 0.20100742E+03</rscale>
<asrwt>0</asrwt>
<pdfrwt beam="1">  1       21 0.35336400E-01 0.20100742E+03</pdfrwt>
<pdfrwt beam="2">  1       21 0.28145105E-01 0.20100742E+03</pdfrwt>
<totfact> 0.92816868E+04</totfact>
</mgrwt>
</event>
<event>
 4    1  0.4332500E+000  0.2143275E+03  0.7546771E-02  0.1138184E+00
         21   -1    0    0  503  502  0.00000000000E+00  0.00000000000E+00  0.35923645936E+03  0.35923645936E+03  0.00000000000E+00 0. -1.
         21   -1    0    0  501  503 -0.00000000000E+00 -0.00000000000E+00 -0.14192613989E+03  0.14192613989E+03  0.00000000000E+00 0.  1.
          6    1    1    2  501    0  0.12238140158E+03  0.32095020853E+02  0.29802013457E+02  0.21638959731E+03  0.17300000000E+03 0.  1.
         -6    1    1    2    0  502 -0.12238140158E+03 -0.32095020853E+02  0.18750830600E+03  0.28477300195E+03  0.17300000000E+03 0. -1.
<mgrwt>
<rscale>  2 0.21432755E+03</rscale>
<asrwt>0</asrwt>
<pdfrwt beam="1">  1       21 0.55267147E-01 0.21432755E+03</pdfrwt>
<pdfrwt beam="2">  1       21 0.21834791E-01 0.21432755E+03</pdfrwt>
<totfact> 0.59848248E+04</totfact>
</mgrwt>
</event>
<event>
 4    1  0.4332500E+000  0.1738429E+03  0.7546771E-02  0.1173899E+00
         21   -1    0    0  501  502  0.00000000000E+00  0.00000000000E+00  0.50515236525E+02  0.50515236525E+02  0.00000000000E+00 0.  1.
         21   -1    0    0  502  503 -0.00000000000E+00 -0.00000000000E+00 -0.85978723962E+03  0.85978723962E+03  0.00000000000E+00 0.  1.
          6    1    1    2  501    0  0.12373821849E+01 -0.17053834101E+02 -0.15361113767E+03  0.23198652114E+03  0.17300000000E+03 0.  1.
         -6    1    1    2    0  503 -0.12373821849E+01  0.17053834101E+02 -0.65566086542E+03  0.67831595500E+03  0.17300000000E+03 0.  1.
<mgrwt>
<rscale>  2 0.17384293E+03</rscale>
<asrwt>0</asrwt>
<pdfrwt beam="1">  1       21 0.77715753E-02 0.17384293E+03</pdfrwt>
<pdfrwt beam="2">  1       21 0.13227495E+00 0.17384293E+03</pdfrwt>
<totfact> 0.52739730E+04</totfact>
</mgrwt>
</event>
<event>
 4    1  0.4332500E+000  0.1890405E+03  0.7546771E-02  0.1159330E+00
         21   -1    0    0  503  502  0.00000000000E+00  0.00000000000E+00  0.95110989686E+02  0.95110989686E+02  0.00000000000E+00 0. -1.
         21   -1    0    0  501  503 -0.00000000000E+00 -0.00000000000E+00 -0.38520082242E+03  0.38520082242E+03  0.00000000000E+00 0. -1.
          6    1    1    2  501    0  0.62538967705E+01 -0.75948556868E+02 -0.18269665911E+03  0.26289610831E+03  0.17300000000E+03 0. -1.
         -6    1    1    2    0  502 -0.62538967705E+01  0.75948556868E+02 -0.10739317362E+03  0.21741570379E+03  0.17300000000E+03 0. -1.
<mgrwt>
<rscale>  2 0.18904046E+03</rscale>
<asrwt>0</asrwt>
<pdfrwt beam="1">  1       21 0.14632459E-01 0.18904046E+03</pdfrwt>
<pdfrwt beam="2">  1       21 0.59261667E-01 0.18904046E+03</pdfrwt>
<totfact> 0.10935064E+05</totfact>
</mgrwt>
</event>
<event>
 4    1  0.4332500E+000  0.2963857E+03  0.7546771E-02  0.1087061E+00
         21   -1    0    0  501  502  0.00000000000E+00  0.00000000000E+00  0.27211014328E+03  0.27211014328E+03  0.00000000000E+00 0.  1.
         21   -1    0    0  502  503 -0.00000000000E+00 -0.00000000000E+00 -0.35724497618E+03  0.35724497618E+03  0.00000000000E+00 0.  1.
          6    1    1    2  501    0 -0.23900293756E+03  0.28162048447E+02  0.55105753492E+02  0.30146500494E+03  0.17300000000E+03 0. -1.
         -6    1    1    2    0  503  0.23900293756E+03 -0.28162048447E+02 -0.14024058639E+03  0.32789011453E+03  0.17300000000E+03 0. -1.
<mgrwt>
<rscale>  2 0.29638574E+03</rscale>
<asrwt>0</asrwt>
<pdfrwt beam="1">  1       21 0.41863099E-01 0.29638574E+03</pdfrwt>
<pdfrwt beam="2">  1       21 0.54960765E-01 0.29638574E+03</pdfrwt>
<totfact> 0.16262361E+04</totfact>
</mgrwt>
</event>
<event>
 4    1  0.4332500E+000  0.2511146E+03  0.7546771E-02  0.1112602E+00
         21   -1    0    0  503  502  0.00000000000E+00  0.00000000000E+00  0.86114450410E+02  0.86114450410E+02  0.00000000000E+00 0. -1.
         21   -1    0    0  501  503 -0.00000000000E+00 -0.00000000000E+00 -0.12009174489E+04  0.12009174489E+04  0.00000000000E+00 0. -1.
          6    1    1    2  501    0 -0.16011729266E+03  0.86556302939E+02 -0.95940375514E+03  0.99172279714E+03  0.17300000000E+03 0. -1.
         -6    1    1    2    0  502  0.16011729266E+03 -0.86556302939E+02 -0.15539924333E+03  0.29530910215E+03  0.17300000000E+03 0. -1.
<mgrwt>
<rscale>  2 0.25111460E+03</rscale>
<asrwt>0</asrwt>
<pdfrwt beam="1">  1       21 0.13248376E-01 0.25111460E+03</pdfrwt>
<pdfrwt beam="2">  1       21 0.18475654E+00 0.25111460E+03</pdfrwt>
<totfact> 0.79441375E+03</totfact>
</mgrwt>
</event>
<event>
 4    1  0.4332500E+000  0.2239584E+03  0.7546771E-02  0.1130966E+00
         21   -1    0    0  503  502  0.00000000000E+00  0.00000000000E+00  0.10558852731E+04  0.10558852731E+04  0.00000000000E+00 0. -1.
         21   -1    0    0  501  503 -0.00000000000E+00 -0.00000000000E+00 -0.75652406233E+02  0.75652406233E+02  0.00000000000E+00 0.  1.
          6    1    1    2  501    0  0.10889542346E+02  0.14180897041E+03  0.14500063400E+03  0.26680058111E+03  0.17300000000E+03 0.  1.
         -6    1    1    2    0  502 -0.10889542346E+02 -0.14180897041E+03  0.83523223291E+03  0.86473709827E+03  0.17300000000E+03 0. -1.
<mgrwt>
<rscale>  2 0.22395840E+03</rscale>
<asrwt>0</asrwt>
<pdfrwt beam="1">  1       21 0.16244388E+00 0.22395840E+03</pdfrwt>
<pdfrwt beam="2">  1       21 0.11638832E-01 0.22395840E+03</pdfrwt>
<totfact> 0.14648178E+04</totfact>
</mgrwt>
</event>
<event>
 4    1  0.4332500E+000  0.1802552E+03  0.7546771E-02  0.1167556E+00
         21   -1    0    0  503  502  0.00000000000E+00  0.00000000000E+00  0.19584874561E+03  0.19584874561E+03  0.00000000000E+00 0. -1.
         21   -1    0    0  501  503 -0.00000000000E+00 -0.00000000000E+00 -0.23783476641E+03  0.23783476641E+03  0.00000000000E+00 0. -1.
          6    1    1    2  501    0  0.49907053073E+02  0.84979559911E+01  0.98258825192E+02  0.20529667784E+03  0.17300000000E+03 0. -1.
         -6    1    1    2    0  502 -0.49907053073E+02 -0.84979559911E+01 -0.14024484598E+03  0.22838683418E+03  0.17300000000E+03 0. -1.
<mgrwt>
<rscale>  2 0.18025518E+03</rscale>
<asrwt>0</asrwt>
<pdfrwt beam="1">  1       21 0.30130576E-01 0.18025518E+03</pdfrwt>
<pdfrwt beam="2">  1       21 0.36589964E-01 0.18025518E+03</pdfrwt>
<totfact> 0.76503377E+04</totfact>
</mgrwt>
</event>
<event>
 4    1  0.4332500E+000  0.2528147E+03  0.7546771E-02  0.1111539E+00
         21   -1    0    0  503  502  0.00000000000E+00  0.00000000000E+00  0.12556300931E+03  0.12556300931E+03  0.00000000000E+00 0. -1.
         21   -1    0    0  501  503 -0.00000000000E+00 -0.00000000000E+00 -0.64263315644E+03  0.64263315644E+03  0.00000000000E+00 0.  1.
          6    1    1    2  501    0  0.17050280534E+03 -0.70107510059E+02 -0.43366881587E+03  0.50197999109E+03  0.17300000000E+03 0.  1.
         -6    1    1    2    0  502 -0.17050280534E+03  0.70107510059E+02 -0.83401331253E+02  0.26621617466E+03  0.17300000000E+03 0. -1.
<mgrwt>
<rscale>  2 0.25281469E+03</rscale>
<asrwt>0</asrwt>
<pdfrwt beam="1">  1       21 0.19317387E-01 0.25281469E+03</pdfrwt>
<pdfrwt beam="2">  1       21 0.98866637E-01 0.25281469E+03</pdfrwt>
<totfact> 0.20083729E+04</totfact>
</mgrwt>
</event>
<event>
 4    1  0.4332500E+000  0.2511883E+03  0.7546771E-02  0.1112556E+00
         21   -1    0    0  501  502  0.00000000000E+00  0.00000000000E+00  0.10936423857E+04  0.10936423857E+04  0.00000000000E+00 0.  1.
         21   -1    0    0  502  503 -0.00000000000E+00 -0.00000000000E+00 -0.13777082205E+03  0.13777082205E+03  0.00000000000E+00 0.  1.
          6    1    1    2  501    0 -0.11902825434E+03  0.13783620466E+03  0.94734458257E+03  0.98008025323E+03  0.17300000000E+03 0.  1.
         -6    1    1    2    0  503  0.11902825434E+03 -0.13783620466E+03  0.85269811239E+01  0.25133295457E+03  0.17300000000E+03 0.  1.
<mgrwt>
<rscale>  2 0.25118827E+03</rscale>
<asrwt>0</asrwt>
<pdfrwt beam="1">  1       21 0.16825267E+00 0.25118827E+03</pdfrwt>
<pdfrwt beam="2">  1       21 0.21195512E-01 0.25118827E+03</pdfrwt>
<totfact> 0.43389163E+03</totfact>
</mgrwt>
</event>
<event>
 4    1  0.4332500E+000  0.2430113E+03  0.7546771E-02  0.1117803E+00
         21   -1    0    0  503  502  0.00000000000E+00  0.00000000000E+00  0.10882459142E+04  0.10882459142E+04  0.00000000000E+00 0.  1.
         21   -1    0    0  501  503 -0.00000000000E+00 -0.00000000000E+00 -0.68188454953E+02  0.68188454953E+02  0.00000000000E+00 0.  1.
          6    1    1    2  501    0 -0.94472205030E+02  0.14212849176E+03  0.24875423182E+03  0.34775447307E+03  0.17300000000E+03 0.  1.
         -6    1    1    2    0  502  0.94472205030E+02 -0.14212849176E+03  0.77130322746E+03  0.80867989612E+03  0.17300000000E+03 0.  1.
<mgrwt>
<rscale>  2 0.24301133E+03</rscale>
<asrwt>0</asrwt>
<pdfrwt beam="1">  1       21 0.16742244E+00 0.24301133E+03</pdfrwt>
<pdfrwt beam="2">  1       21 0.10490532E-01 0.24301133E+03</pdfrwt>
<totfact> 0.16040556E+04</totfact>
</mgrwt>
</event>
<event>
 4    1  0.4332500E+000  0.1872978E+03  0.7546771E-02  0.1160921E+00
         21   -1    0    0  501  502  0.00000000000E+00  0.00000000000E+00  0.22078398391E+03  0.22078398391E+03  0.00000000000E+00 0. -1.
         21   -1    0    0  502  503 -0.00000000000E+00 -0.00000000000E+00 -0.16990380969E+03  0.16990380969E+03  0.00000000000E+00 0.  1.
          6    1    1    2  501    0 -0.71517492686E+02  0.60597605328E+01  0.75174577585E+02  0.20182093443E+03  0.17300000000E+03 0. -1.
         -6    1    1    2    0  503  0.71517492686E+02 -0.60597605328E+01 -0.24294403366E+02  0.18886685917E+03  0.17300000000E+03 0.  1.
<mgrwt>
<rscale>  2 0.18729782E+03</rscale>
<asrwt>0</asrwt>
<pdfrwt beam="1">  1       21 0.33966767E-01 0.18729782E+03</pdfrwt>
<pdfrwt beam="2">  1       21 0.26139048E-01 0.18729782E+03</pdfrwt>
<totfact> 0.11637047E+05</totfact>
</mgrwt>
</event>
<event>
 4    1  0.4332500E+000  0.2310828E+03  0.7546771E-02  0.1125880E+00
         21   -1    0    0  503  502  0.00000000000E+00  0.00000000000E+00  0.14501676443E+04  0.14501676443E+04  0.00000000000E+00 0. -1.
         21   -1    0    0  501  503 -0.00000000000E+00 -0.00000000000E+00 -0.69849623027E+02  0.69849623027E+02  0.00000000000E+00 0.  1.
          6    1    1    2  501    0  0.67708165493E+02 -0.13742577496E+03  0.16755845845E+03  0.28543839317E+03  0.17300000000E+03 0.  1.
         -6    1    1    2    0  502 -0.67708165493E+02  0.13742577496E+03  0.12127595628E+04  0.12345788741E+04  0.17300000000E+03 0. -1.
<mgrwt>
<rscale>  2 0.23108275E+03</rscale>
<asrwt>0</asrwt>
<pdfrwt beam="1">  1       21 0.22310269E+00 0.23108275E+03</pdfrwt>
<pdfrwt beam="2">  1       21 0.10746097E-01 0.23108275E+03</pdfrwt>
<totfact> 0.66501040E+03</totfact>
</mgrwt>
</event>
<event>
 4    1  0.4332500E+000  0.2389940E+03  0.7546771E-02  0.1120465E+00
         21   -1    0    0  503  502  0.00000000000E+00  0.00000000000E+00  0.15225431649E+03  0.15225431649E+03  0.00000000000E+00 0. -1.
         21   -1    0    0  501  503 -0.00000000000E+00 -0.00000000000E+00 -0.42166738100E+03  0.42166738100E+03  0.00000000000E+00 0.  1.
          6    1    1    2  501    0  0.12311012841E+03  0.10969516257E+03 -0.23001852603E+03  0.33170266011E+03  0.17300000000E+03 0.  1.
         -6    1    1    2    0  502 -0.12311012841E+03 -0.10969516257E+03 -0.39394538476E+02  0.24221903738E+03  0.17300000000E+03 0. -1.
<mgrwt>
<rscale>  2 0.23899400E+03</rscale>
<asrwt>0</asrwt>
<pdfrwt beam="1">  1       21 0.23423741E-01 0.23899400E+03</pdfrwt>
<pdfrwt beam="2">  1       21 0.64871904E-01 0.23899400E+03</pdfrwt>
<totfact> 0.36679202E+04</totfact>
</mgrwt>
</event>
<event>
 4    1  0.4332500E+000  0.1862778E+03  0.7546771E-02  0.1161862E+00
         21   -1    0    0  501  502  0.00000000000E+00  0.00000000000E+00  0.72868526359E+02  0.72868526359E+02  0.00000000000E+00 0. -1.
         21   -1    0    0  502  503 -0.00000000000E+00 -0.00000000000E+00 -0.68202705778E+03  0.68202705778E+03  0.00000000000E+00 0.  1.
          6    1    1    2  501    0 -0.45735382437E+02 -0.51756125286E+02 -0.97223755747E+02  0.21012348844E+03  0.17300000000E+03 0. -1.
         -6    1    1    2    0  503  0.45735382437E+02  0.51756125286E+02 -0.51193477567E+03  0.54477209570E+03  0.17300000000E+03 0.  1.
<mgrwt>
<rscale>  2 0.18627781E+03</rscale>
<asrwt>0</asrwt>
<pdfrwt beam="1">  1       21 0.11210542E-01 0.18627781E+03</pdfrwt>
<pdfrwt beam="2">  1       21 0.10492724E+00 0.18627781E+03</pdfrwt>
<totfact> 0.48647110E+04</totfact>
</mgrwt>
</event>
<event>
 4    1  0.4332500E+000  0.2002942E+03  0.7546771E-02  0.1149491E+00
         21   -1    0    0  503  502  0.00000000000E+00  0.00000000000E+00  0.39923508535E+03  0.39923508535E+03  0.00000000000E+00 0. -1.
         21   -1    0    0  501  503 -0.00000000000E+00 -0.00000000000E+00 -0.10640334987E+03  0.10640334987E+03  0.00000000000E+00 0.  1.
          6    1    1    2  501    0  0.62706422007E+01  0.10074438225E+03  0.86798016487E+02  0.21829257242E+03  0.17300000000E+03 0.  1.
         -6    1    1    2    0  502 -0.62706422007E+01 -0.10074438225E+03  0.20603371899E+03  0.28734586280E+03  0.17300000000E+03 0. -1.
<mgrwt>
<rscale>  2 0.20029416E+03</rscale>
<asrwt>0</asrwt>
<pdfrwt beam="1">  1       21 0.61420782E-01 0.20029416E+03</pdfrwt>
<pdfrwt beam="2">  1       21 0.16369746E-01 0.20029416E+03</pdfrwt>
<totfact> 0.82119824E+04</totfact>
</mgrwt>
</event>
<event>
 4    1  0.4332500E+000  0.2297659E+03  0.7546771E-02  0.1126805E+00
         21   -1    0    0  501  502  0.00000000000E+00  0.00000000000E+00  0.69493244267E+03  0.69493244267E+03  0.00000000000E+00 0.  1.
         21   -1    0    0  502  503 -0.00000000000E+00 -0.00000000000E+00 -0.27078448774E+03  0.27078448774E+03  0.00000000000E+00 0.  1.
          6    1    1    2  501    0  0.87857731680E+02  0.12306262405E+03  0.62163742892E+03  0.66274088714E+03  0.17300000000E+03 0.  1.
         -6    1    1    2    0  503 -0.87857731680E+02 -0.12306262405E+03 -0.19748947399E+03  0.30297604327E+03  0.17300000000E+03 0.  1.
<mgrwt>
<rscale>  2 0.22976595E+03</rscale>
<asrwt>0</asrwt>
<pdfrwt beam="1">  1       21 0.10691268E+00 0.22976595E+03</pdfrwt>
<pdfrwt beam="2">  1       21 0.41659152E-01 0.22976595E+03</pdfrwt>
<totfact> 0.37692424E+03</totfact>
</mgrwt>
</event>
<event>
 4    1  0.4332500E+000  0.1881525E+03  0.7546771E-02  0.1160138E+00
         21   -1    0    0  503  502  0.00000000000E+00  0.00000000000E+00  0.34099851417E+03  0.34099851417E+03  0.00000000000E+00 0. -1.
         21   -1    0    0  501  503 -0.00000000000E+00 -0.00000000000E+00 -0.27207149899E+04  0.27207149899E+04  0.00000000000E+00 0. -1.
          6    1    1    2  501    0 -0.65574176035E+02 -0.34240256888E+02 -0.26912237809E+04  0.26977929510E+04  0.17300000000E+03 0. -1.
         -6    1    1    2    0  502  0.65574176035E+02  0.34240256888E+02  0.31150730516E+03  0.36392055304E+03  0.17300000000E+03 0. -1.
<mgrwt>
<rscale>  2 0.18815251E+03</rscale>
<asrwt>0</asrwt>
<pdfrwt beam="1">  1       21 0.52461309E-01 0.18815251E+03</pdfrwt>
<pdfrwt beam="2">  1       21 0.41857154E+00 0.18815251E+03</pdfrwt>
<totfact> 0.23156788E+01</totfact>
</mgrwt>
</event>
<event>
 4    1  0.4332500E+000  0.1881080E+03  0.7546771E-02  0.1160179E+00
         21   -1    0    0  503  502  0.00000000000E+00  0.00000000000E+00  0.54772483959E+02  0.54772483959E+02  0.00000000000E+00 0. -1.
         21   -1    0    0  501  503 -0.00000000000E+00 -0.00000000000E+00 -0.20742334879E+04  0.20742334879E+04  0.00000000000E+00 0.  1.
          6    1    1    2  501    0  0.65661029258E+02 -0.33826582562E+02 -0.18930407573E+04  0.19023637710E+04  0.17300000000E+03 0.  1.
         -6    1    1    2    0  502 -0.65661029258E+02  0.33826582562E+02 -0.12642024667E+03  0.22664220088E+03  0.17300000000E+03 0. -1.
<mgrwt>
<rscale>  2 0.18810797E+03</rscale>
<asrwt>0</asrwt>
<pdfrwt beam="1">  1       21 0.84265352E-02 0.18810797E+03</pdfrwt>
<pdfrwt beam="2">  1       21 0.31911288E+00 0.18810797E+03</pdfrwt>
<totfact> 0.29199965E+03</totfact>
</mgrwt>
</event>
<event>
 4    1  0.4332500E+000  0.1935327E+03  0.7546771E-02  0.1155313E+00
         21   -1    0    0  503  502  0.00000000000E+00  0.00000000000E+00  0.66929332221E+03  0.66929332221E+03  0.00000000000E+00 0.  1.
         21   -1    0    0  501  503 -0.00000000000E+00 -0.00000000000E+00 -0.67651458852E+02  0.67651458852E+02  0.00000000000E+00 0.  1.
          6    1    1    2  501    0  0.28193948950E+02 -0.82042770622E+02  0.14765374517E+03  0.24342666952E+03  0.17300000000E+03 0.  1.
         -6    1    1    2    0  502 -0.28193948950E+02  0.82042770622E+02  0.45398811818E+03  0.49351811154E+03  0.17300000000E+03 0.  1.
<mgrwt>
<rscale>  2 0.19353272E+03</rscale>
<asrwt>0</asrwt>
<pdfrwt beam="1">  1       21 0.10296820E+00 0.19353272E+03</pdfrwt>
<pdfrwt beam="2">  1       21 0.10407917E-01 0.19353272E+03</pdfrwt>
<totfact> 0.57863902E+04</totfact>
</mgrwt>
</event>
<event>
 4    1  0.4332500E+000  0.1950940E+03  0.7546771E-02  0.1153946E+00
         21   -1    0    0  503  502  0.00000000000E+00  0.00000000000E+00  0.61625159286E+02  0.61625159286E+02  0.00000000000E+00 0. -1.
         21   -1    0    0  501  503 -0.00000000000E+00 -0.00000000000E+00 -0.62936213865E+03  0.62936213865E+03  0.00000000000E+00 0. -1.
          6    1    1    2  501    0  0.83510752172E+02 -0.34038282656E+02 -0.33103647560E+03  0.38424835535E+03  0.17300000000E+03 0. -1.
         -6    1    1    2    0  502 -0.83510752172E+02  0.34038282656E+02 -0.23670050377E+03  0.30673894258E+03  0.17300000000E+03 0. -1.
<mgrwt>
<rscale>  2 0.19509395E+03</rscale>
<asrwt>0</asrwt>
<pdfrwt beam="1">  1       21 0.94807945E-02 0.19509395E+03</pdfrwt>
<pdfrwt beam="2">  1       21 0.96824937E-01 0.19509395E+03</pdfrwt>
<totfact> 0.78888742E+04</totfact>
</mgrwt>
</event>
<event>
 4    1  0.4332500E+000  0.2149982E+03  0.7546771E-02  0.1137668E+00
         21   -1    0    0  503  502  0.00000000000E+00  0.00000000000E+00  0.54485404348E+03  0.54485404348E+03  0.00000000000E+00 0. -1.
         21   -1    0    0  501  503 -0.00000000000E+00 -0.00000000000E+00 -0.89922231577E+02  0.89922231577E+02  0.00000000000E+00 0.  1.
          6    1    1    2  501    0 -0.49958282331E+02 -0.11747084212E+03  0.15199535073E+03  0.26329985827E+03  0.17300000000E+03 0.  1.
         -6    1    1    2    0  502  0.49958282331E+02  0.11747084212E+03  0.30293646118E+03  0.37147641679E+03  0.17300000000E+03 0. -1.
<mgrwt>
<rscale>  2 0.21499821E+03</rscale>
<asrwt>0</asrwt>
<pdfrwt beam="1">  1       21 0.83823697E-01 0.21499821E+03</pdfrwt>
<pdfrwt beam="2">  1       21 0.13834190E-01 0.21499821E+03</pdfrwt>
<totfact> 0.55602154E+04</totfact>
</mgrwt>
</event>
<event>
 4    1  0.4332500E+000  0.2423908E+03  0.7546771E-02  0.1118210E+00
         21   -1    0    0  503  502  0.00000000000E+00  0.00000000000E+00  0.38825863159E+03  0.38825863159E+03  0.00000000000E+00 0.  1.
         21   -1    0    0  501  503 -0.00000000000E+00 -0.00000000000E+00 -0.97500578053E+03  0.97500578053E+03  0.00000000000E+00 0. -1.
          6    1    1    2  501    0 -0.87305116044E+02  0.14560938553E+03 -0.91988060143E+03  0.95127997842E+03  0.17300000000E+03 0. -1.
         -6    1    1    2    0  502  0.87305116044E+02 -0.14560938553E+03  0.33313345250E+03  0.41198443370E+03  0.17300000000E+03 0.  1.
<mgrwt>
<rscale>  2 0.24239075E+03</rscale>
<asrwt>0</asrwt>
<pdfrwt beam="1">  1       21 0.59732098E-01 0.24239075E+03</pdfrwt>
<pdfrwt beam="2">  1       21 0.15000089E+00 0.24239075E+03</pdfrwt>
<totfact> 0.74460891E+02</totfact>
</mgrwt>
</event>
<event>
 4    1  0.4332500E+000  0.1774633E+03  0.7546771E-02  0.1170281E+00
         21   -1    0    0  503  502  0.00000000000E+00  0.00000000000E+00  0.12992685929E+03  0.12992685929E+03  0.00000000000E+00 0. -1.
         21   -1    0    0  501  503 -0.00000000000E+00 -0.00000000000E+00 -0.74323935650E+03  0.74323935650E+03  0.00000000000E+00 0. -1.
          6    1    1    2  501    0  0.56781990522E+01 -0.39140676748E+02 -0.66504573508E+03  0.68831610781E+03  0.17300000000E+03 0. -1.
         -6    1    1    2    0  502 -0.56781990522E+01  0.39140676748E+02  0.51733237865E+02  0.18485010798E+03  0.17300000000E+03 0. -1.
<mgrwt>
<rscale>  2 0.17746333E+03</rscale>
<asrwt>0</asrwt>
<pdfrwt beam="1">  1       21 0.19988748E-01 0.17746333E+03</pdfrwt>
<pdfrwt beam="2">  1       21 0.11434451E+00 0.17746333E+03</pdfrwt>
<totfact> 0.13880474E+04</totfact>
</mgrwt>
</event>
<event>
 4    1  0.4332500E+000  0.2141189E+03  0.7546771E-02  0.1138345E+00
         21   -1    0    0  501  502  0.00000000000E+00  0.00000000000E+00  0.22493326359E+03  0.22493326359E+03  0.00000000000E+00 0. -1.
         21   -1    0    0  502  503 -0.00000000000E+00 -0.00000000000E+00 -0.20842424437E+03  0.20842424437E+03  0.00000000000E+00 0. -1.
          6    1    1    2  501    0 -0.97722630318E+02  0.79801055252E+02 -0.23934437390E+02  0.21545249636E+03  0.17300000000E+03 0. -1.
         -6    1    1    2    0  503  0.97722630318E+02 -0.79801055252E+02  0.40443456604E+02  0.21790501159E+03  0.17300000000E+03 0. -1.
<mgrwt>
<rscale>  2 0.21411894E+03</rscale>
<asrwt>0</asrwt>
<pdfrwt beam="1">  1       21 0.34605118E-01 0.21411894E+03</pdfrwt>
<pdfrwt beam="2">  1       21 0.32065268E-01 0.21411894E+03</pdfrwt>
<totfact> 0.74598592E+04</totfact>
</mgrwt>
</event>
<event>
 4    1  0.4332500E+000  0.1963367E+03  0.7546771E-02  0.1152867E+00
         21   -1    0    0  503  502  0.00000000000E+00  0.00000000000E+00  0.76718285671E+02  0.76718285671E+02  0.00000000000E+00 0.  1.
         21   -1    0    0  501  503 -0.00000000000E+00 -0.00000000000E+00 -0.13400727104E+04  0.13400727104E+04  0.00000000000E+00 0. -1.
          6    1    1    2  501    0  0.41205512033E+02 -0.83193755599E+02 -0.11917345335E+04  0.12077993598E+04  0.17300000000E+03 0. -1.
         -6    1    1    2    0  502 -0.41205512033E+02  0.83193755599E+02 -0.71619891156E+02  0.20899163620E+03  0.17300000000E+03 0.  1.
<mgrwt>
<rscale>  2 0.19633669E+03</rscale>
<asrwt>0</asrwt>
<pdfrwt beam="1">  1       21 0.11802813E-01 0.19633669E+03</pdfrwt>
<pdfrwt beam="2">  1       21 0.20616504E+00 0.19633669E+03</pdfrwt>
<totfact> 0.73904358E+03</totfact>
</mgrwt>
</event>
<event>
 4    1  0.4332500E+000  0.1758473E+03  0.7546771E-02  0.1171884E+00
         21   -1    0    0  501  502  0.00000000000E+00  0.00000000000E+00  0.53552627439E+02  0.53552627439E+02  0.00000000000E+00 0.  1.
         21   -1    0    0  502  503 -0.00000000000E+00 -0.00000000000E+00 -0.63246778933E+03  0.63246778933E+03  0.00000000000E+00 0.  1.
          6    1    1    2  501    0  0.30544603261E+02  0.77649239856E+01 -0.18826131078E+03  0.25761325271E+03  0.17300000000E+03 0.  1.
         -6    1    1    2    0  503 -0.30544603261E+02 -0.77649239856E+01 -0.39065385111E+03  0.42840716406E+03  0.17300000000E+03 0.  1.
<mgrwt>
<rscale>  2 0.17584728E+03</rscale>
<asrwt>0</asrwt>
<pdfrwt beam="1">  1       21 0.82388663E-02 0.17584728E+03</pdfrwt>
<pdfrwt beam="2">  1       21 0.97302731E-01 0.17584728E+03</pdfrwt>
<totfact> 0.10052794E+05</totfact>
</mgrwt>
</event>
<event>
 4    1  0.4332500E+000  0.1866202E+03  0.7546771E-02  0.1161546E+00
         21   -1    0    0  503  502  0.00000000000E+00  0.00000000000E+00  0.13449053846E+03  0.13449053846E+03  0.00000000000E+00 0.  1.
         21   -1    0    0  501  503 -0.00000000000E+00 -0.00000000000E+00 -0.26302911739E+03  0.26302911739E+03  0.00000000000E+00 0. -1.
          6    1    1    2  501    0  0.25936170060E+02 -0.65003048546E+02 -0.89004193766E+02  0.20675789645E+03  0.17300000000E+03 0. -1.
         -6    1    1    2    0  502 -0.25936170060E+02  0.65003048546E+02 -0.39534385159E+02  0.19076175940E+03  0.17300000000E+03 0. -1.
<mgrwt>
<rscale>  2 0.18662015E+03</rscale>
<asrwt>0</asrwt>
<pdfrwt beam="1">  1       21 0.20690852E-01 0.18662015E+03</pdfrwt>
<pdfrwt beam="2">  1       21 0.40466018E-01 0.18662015E+03</pdfrwt>
<totfact> 0.12772564E+05</totfact>
</mgrwt>
</event>
<event>
 4    1  0.4332500E+000  0.2136349E+03  0.7546771E-02  0.1138719E+00
         21   -1    0    0  503  502  0.00000000000E+00  0.00000000000E+00  0.14656424141E+03  0.14656424141E+03  0.00000000000E+00 0. -1.
         21   -1    0    0  501  503 -0.00000000000E+00 -0.00000000000E+00 -0.31204889137E+03  0.31204889137E+03  0.00000000000E+00 0. -1.
          6    1    1    2  501    0 -0.58846254651E+02  0.11067058593E+03 -0.93212373871E+02  0.23308454886E+03  0.17300000000E+03 0. -1.
         -6    1    1    2    0  502  0.58846254651E+02 -0.11067058593E+03 -0.72272276089E+02  0.22552858392E+03  0.17300000000E+03 0. -1.
<mgrwt>
<rscale>  2 0.21363488E+03</rscale>
<asrwt>0</asrwt>
<pdfrwt beam="1">  1       21 0.22548345E-01 0.21363488E+03</pdfrwt>
<pdfrwt beam="2">  1       21 0.48007522E-01 0.21363488E+03</pdfrwt>
<totfact> 0.75719343E+04</totfact>
</mgrwt>
</event>
<event>
 4    1  0.4332500E+000  0.1743512E+03  0.7546771E-02  0.1173385E+00
         21   -1    0    0  501  502  0.00000000000E+00  0.00000000000E+00  0.48325632301E+03  0.48325632301E+03  0.00000000000E+00 0.  1.
         21   -1    0    0  502  503 -0.00000000000E+00 -0.00000000000E+00 -0.63010879287E+02  0.63010879287E+02  0.00000000000E+00 0.  1.
          6    1    1    2  501    0  0.21274943917E+02  0.40886153542E+01  0.19882853563E+03  0.26444494057E+03  0.17300000000E+03 0.  1.
         -6    1    1    2    0  503 -0.21274943917E+02 -0.40886153542E+01  0.22141690810E+03  0.28182226173E+03  0.17300000000E+03 0.  1.
<mgrwt>
<rscale>  2 0.17435120E+03</rscale>
<asrwt>0</asrwt>
<pdfrwt beam="1">  1       21 0.74347124E-01 0.17435120E+03</pdfrwt>
<pdfrwt beam="2">  1       21 0.96939817E-02 0.17435120E+03</pdfrwt>
<totfact> 0.13986889E+05</totfact>
</mgrwt>
</event>
<event>
 4    1  0.4332500E+000  0.1941179E+03  0.7546771E-02  0.1154799E+00
         21   -1    0    0  503  502  0.00000000000E+00  0.00000000000E+00  0.19171880216E+03  0.19171880216E+03  0.00000000000E+00 0.  1.
         21   -1    0    0  501  503 -0.00000000000E+00 -0.00000000000E+00 -0.22659127363E+03  0.22659127363E+03  0.00000000000E+00 0.  1.
          6    1    1    2  501    0  0.76216632026E+00  0.88046470034E+02 -0.93596309074E+02  0.21550413188E+03  0.17300000000E+03 0.  1.
         -6    1    1    2    0  502 -0.76216632026E+00 -0.88046470034E+02  0.58723837599E+02  0.20280594391E+03  0.17300000000E+03 0.  1.
<mgrwt>
<rscale>  2 0.19411791E+03</rscale>
<asrwt>0</asrwt>
<pdfrwt beam="1">  1       21 0.29495200E-01 0.19411791E+03</pdfrwt>
<pdfrwt beam="2">  1       21 0.34860196E-01 0.19411791E+03</pdfrwt>
<totfact> 0.87318031E+04</totfact>
</mgrwt>
</event>
<event>
 4    1  0.4332500E+000  0.2132794E+03  0.7546771E-02  0.1138995E+00
         21   -1    0    0  501  502  0.00000000000E+00  0.00000000000E+00  0.11874036422E+04  0.11874036422E+04  0.00000000000E+00 0.  1.
         21   -1    0    0  502  503 -0.00000000000E+00 -0.00000000000E+00 -0.48125569778E+02  0.48125569778E+02  0.00000000000E+00 0.  1.
          6    1    1    2  501    0 -0.57743417583E+02 -0.11056576165E+03  0.84864781562E+03  0.87503783054E+03  0.17300000000E+03 0.  1.
         -6    1    1    2    0  503  0.57743417583E+02  0.11056576165E+03  0.29063025682E+03  0.36049138145E+03  0.17300000000E+03 0.  1.
<mgrwt>
<rscale>  2 0.21327937E+03</rscale>
<asrwt>0</asrwt>
<pdfrwt beam="1">  1       21 0.18267746E+00 0.21327937E+03</pdfrwt>
<pdfrwt beam="2">  1       21 0.74039347E-02 0.21327937E+03</pdfrwt>
<totfact> 0.23616769E+04</totfact>
</mgrwt>
</event>
<event>
 4    1  0.4332500E+000  0.2173546E+03  0.7546771E-02  0.1135871E+00
         21   -1    0    0  503  502  0.00000000000E+00  0.00000000000E+00  0.15067745028E+03  0.15067745028E+03  0.00000000000E+00 0. -1.
         21   -1    0    0  501  503 -0.00000000000E+00 -0.00000000000E+00 -0.47289904191E+03  0.47289904191E+03  0.00000000000E+00 0. -1.
          6    1    1    2  501    0  0.13008471769E+03 -0.19798469796E+02 -0.34210615739E+03  0.40531424365E+03  0.17300000000E+03 0. -1.
         -6    1    1    2    0  502 -0.13008471769E+03  0.19798469796E+02  0.19884565764E+02  0.21826224854E+03  0.17300000000E+03 0. -1.
<mgrwt>
<rscale>  2 0.21735458E+03</rscale>
<asrwt>0</asrwt>
<pdfrwt beam="1">  1       21 0.23181146E-01 0.21735458E+03</pdfrwt>
<pdfrwt beam="2">  1       21 0.72753698E-01 0.21735458E+03</pdfrwt>
<totfact> 0.29351497E+04</totfact>
</mgrwt>
</event>
<event>
 4    1  0.4332500E+000  0.3213192E+03  0.7546771E-02  0.1075044E+00
         21   -1    0    0  503  502  0.00000000000E+00  0.00000000000E+00  0.16651179708E+03  0.16651179708E+03  0.00000000000E+00 0. -1.
         21   -1    0    0  501  503 -0.00000000000E+00 -0.00000000000E+00 -0.14175643205E+04  0.14175643205E+04  0.00000000000E+00 0.  1.
          6    1    1    2  501    0  0.20440670127E+03 -0.17758074956E+03 -0.12196040071E+04  0.12612216127E+04  0.17300000000E+03 0.  1.
         -6    1    1    2    0  502 -0.20440670127E+03  0.17758074956E+03 -0.31448516290E+02  0.32285450487E+03  0.17300000000E+03 0. -1.
<mgrwt>
<rscale>  2 0.32131919E+03</rscale>
<asrwt>0</asrwt>
<pdfrwt beam="1">  1       21 0.25617199E-01 0.32131919E+03</pdfrwt>
<pdfrwt beam="2">  1       21 0.21808682E+00 0.32131919E+03</pdfrwt>
<totfact> 0.13370673E+03</totfact>
</mgrwt>
</event>
<event>
 4    1  0.4332500E+000  0.3068018E+03  0.7546771E-02  0.1081889E+00
         21   -1    0    0  503  502  0.00000000000E+00  0.00000000000E+00  0.10067997092E+03  0.10067997092E+03  0.00000000000E+00 0. -1.
         21   -1    0    0  501  503 -0.00000000000E+00 -0.00000000000E+00 -0.11516963558E+04  0.11516963558E+04  0.00000000000E+00 0.  1.
          6    1    1    2  501    0 -0.39796131928E+02 -0.25022914291E+03 -0.79718052919E+03  0.85418039792E+03  0.17300000000E+03 0.  1.
         -6    1    1    2    0  502  0.39796131928E+02  0.25022914291E+03 -0.25383585570E+03  0.39819592881E+03  0.17300000000E+03 0. -1.
<mgrwt>
<rscale>  2 0.30680182E+03</rscale>
<asrwt>0</asrwt>
<pdfrwt beam="1">  1       21 0.15489226E-01 0.30680182E+03</pdfrwt>
<pdfrwt beam="2">  1       21 0.17718406E+00 0.30680182E+03</pdfrwt>
<totfact> 0.65110132E+03</totfact>
</mgrwt>
</event>
<event>
 4    1  0.4332500E+000  0.3345470E+03  0.7546771E-02  0.1069142E+00
         21   -1    0    0  501  502  0.00000000000E+00  0.00000000000E+00  0.48647323209E+03  0.48647323209E+03  0.00000000000E+00 0.  1.
         21   -1    0    0  502  503 -0.00000000000E+00 -0.00000000000E+00 -0.35095434664E+03  0.35095434664E+03  0.00000000000E+00 0.  1.
          6    1    1    2  501    0 -0.22664376127E+03  0.17500088756E+03  0.31350257163E+03  0.45848180726E+03  0.17300000000E+03 0.  1.
         -6    1    1    2    0  503  0.22664376127E+03 -0.17500088756E+03 -0.17798368618E+03  0.37894577147E+03  0.17300000000E+03 0.  1.
<mgrwt>
<rscale>  2 0.33454701E+03</rscale>
<asrwt>0</asrwt>
<pdfrwt beam="1">  1       21 0.74842036E-01 0.33454701E+03</pdfrwt>
<pdfrwt beam="2">  1       21 0.53992976E-01 0.33454701E+03</pdfrwt>
<totfact> 0.47583709E+03</totfact>
</mgrwt>
</event>
<event>
 4    1  0.4332500E+000  0.1951055E+03  0.7546771E-02  0.1153935E+00
         21   -1    0    0  503  502  0.00000000000E+00  0.00000000000E+00  0.56510864987E+03  0.56510864987E+03  0.00000000000E+00 0.  1.
         21   -1    0    0  501  503 -0.00000000000E+00 -0.00000000000E+00 -0.72691048767E+02  0.72691048767E+02  0.00000000000E+00 0.  1.
          6    1    1    2  501    0  0.24824098190E+02 -0.86723350560E+02  0.15985384772E+03  0.25222891986E+03  0.17300000000E+03 0.  1.
         -6    1    1    2    0  502 -0.24824098190E+02  0.86723350560E+02  0.33256375339E+03  0.38557077878E+03  0.17300000000E+03 0.  1.
<mgrwt>
<rscale>  2 0.19510555E+03</rscale>
<asrwt>0</asrwt>
<pdfrwt beam="1">  1       21 0.86939790E-01 0.19510555E+03</pdfrwt>
<pdfrwt beam="2">  1       21 0.11183239E-01 0.19510555E+03</pdfrwt>
<totfact> 0.75639526E+04</totfact>
</mgrwt>
</event>
<event>
 4    1  0.4332500E+000  0.2059294E+03  0.7546771E-02  0.1144831E+00
         21   -1    0    0  501  502  0.00000000000E+00  0.00000000000E+00  0.41068038839E+03  0.41068038839E+03  0.00000000000E+00 0. -1.
         21   -1    0    0  502  503 -0.00000000000E+00 -0.00000000000E+00 -0.13189070081E+03  0.13189070081E+03  0.00000000000E+00 0. -1.
          6    1    1    2  501    0  0.23968717325E+01  0.11167883949E+03  0.26579121550E+03  0.33623188192E+03  0.17300000000E+03 0. -1.
         -6    1    1    2    0  503 -0.23968717325E+01 -0.11167883949E+03  0.12998472080E+02  0.20633920728E+03  0.17300000000E+03 0. -1.
<mgrwt>
<rscale>  2 0.20592938E+03</rscale>
<asrwt>0</asrwt>
<pdfrwt beam="1">  1       21 0.63181598E-01 0.20592938E+03</pdfrwt>
<pdfrwt beam="2">  1       21 0.20290877E-01 0.20592938E+03</pdfrwt>
<totfact> 0.51745940E+04</totfact>
</mgrwt>
</event>
<event>
 4    1  0.4332500E+000  0.1837860E+03  0.7546771E-02  0.1164188E+00
         21   -1    0    0  503  502  0.00000000000E+00  0.00000000000E+00  0.67666461681E+03  0.67666461681E+03  0.00000000000E+00 0.  1.
         21   -1    0    0  501  503 -0.00000000000E+00 -0.00000000000E+00 -0.51070048591E+02  0.51070048591E+02  0.00000000000E+00 0. -1.
          6    1    1    2  501    0  0.40879175464E+02  0.46660284950E+02  0.25813068191E+03  0.31687337869E+03  0.17300000000E+03 0.  1.
         -6    1    1    2    0  502 -0.40879175464E+02 -0.46660284950E+02  0.36746388630E+03  0.41086128671E+03  0.17300000000E+03 0.  1.
<mgrwt>
<rscale>  2 0.18378599E+03</rscale>
<asrwt>0</asrwt>
<pdfrwt beam="1">  1       21 0.10410224E+00 0.18378599E+03</pdfrwt>
<pdfrwt beam="2">  1       21 0.78569311E-02 0.18378599E+03</pdfrwt>
<totfact> 0.92701526E+04</totfact>
</mgrwt>
</event>
<event>
 4    1  0.4332500E+000  0.1733396E+03  0.7546771E-02  0.1174409E+00
         21   -1    0    0  501  502  0.00000000000E+00  0.00000000000E+00  0.61407205396E+03  0.61407205396E+03  0.00000000000E+00 0.  1.
         21   -1    0    0  502  503 -0.00000000000E+00 -0.00000000000E+00 -0.82093307635E+02  0.82093307635E+02  0.00000000000E+00 0.  1.
          6    1    1    2  501    0  0.15105018940E+01  0.10739642722E+02  0.48722580630E+03  0.51714176767E+03  0.17300000000E+03 0.  1.
         -6    1    1    2    0  503 -0.15105018940E+01 -0.10739642722E+02  0.44752940024E+02  0.17902359393E+03  0.17300000000E+03 0.  1.
<mgrwt>
<rscale>  2 0.17333961E+03</rscale>
<asrwt>0</asrwt>
<pdfrwt beam="1">  1       21 0.94472621E-01 0.17333961E+03</pdfrwt>
<pdfrwt beam="2">  1       21 0.12629740E-01 0.17333961E+03</pdfrwt>
<totfact> 0.50735651E+04</totfact>
</mgrwt>
</event>
<event>
 4    1  0.4332500E+000  0.2115760E+03  0.7546771E-02  0.1140324E+00
         21   -1    0    0  503  502  0.00000000000E+00  0.00000000000E+00  0.85427609043E+02  0.85427609043E+02  0.00000000000E+00 0.  1.
         21   -1    0    0  501  503 -0.00000000000E+00 -0.00000000000E+00 -0.53301693638E+03  0.53301693638E+03  0.00000000000E+00 0.  1.
          6    1    1    2  501    0  0.57801822512E+02  0.10721173550E+03 -0.18358467398E+03  0.28012093716E+03  0.17300000000E+03 0.  1.
         -6    1    1    2    0  502 -0.57801822512E+02 -0.10721173550E+03 -0.26400465336E+03  0.33832360826E+03  0.17300000000E+03 0.  1.
<mgrwt>
<rscale>  2 0.21157601E+03</rscale>
<asrwt>0</asrwt>
<pdfrwt beam="1">  1       21 0.13142709E-01 0.21157601E+03</pdfrwt>
<pdfrwt beam="2">  1       21 0.82002605E-01 0.21157601E+03</pdfrwt>
<totfact> 0.64246389E+04</totfact>
</mgrwt>
</event>
<event>
 4    1  0.4332500E+000  0.2319532E+03  0.7546771E-02  0.1125273E+00
         21   -1    0    0  501  502  0.00000000000E+00  0.00000000000E+00  0.35166039187E+03  0.35166039187E+03  0.00000000000E+00 0.  1.
         21   -1    0    0  502  503 -0.00000000000E+00 -0.00000000000E+00 -0.19155088190E+03  0.19155088190E+03  0.00000000000E+00 0. -1.
          6    1    1    2  501    0  0.90766748958E+02 -0.12503870003E+03  0.20190939211E+03  0.30752183962E+03  0.17300000000E+03 0.  1.
         -6    1    1    2    0  503 -0.90766748958E+02  0.12503870003E+03 -0.41799882139E+02  0.23568943415E+03  0.17300000000E+03 0. -1.
<mgrwt>
<rscale>  2 0.23195318E+03</rscale>
<asrwt>0</asrwt>
<pdfrwt beam="1">  1       21 0.54101599E-01 0.23195318E+03</pdfrwt>
<pdfrwt beam="2">  1       21 0.29469367E-01 0.23195318E+03</pdfrwt>
<totfact> 0.34933261E+04</totfact>
</mgrwt>
</event>
<event>
 4    1  0.4332500E+000  0.2664956E+03  0.7546771E-02  0.1103302E+00
         21   -1    0    0  501  502  0.00000000000E+00  0.00000000000E+00  0.12681358650E+04  0.12681358650E+04  0.00000000000E+00 0.  1.
         21   -1    0    0  502  503 -0.00000000000E+00 -0.00000000000E+00 -0.10245515312E+03  0.10245515312E+03  0.00000000000E+00 0. -1.
          6    1    1    2  501    0 -0.95382476312E+02  0.17886609241E+03  0.10442770493E+04  0.10777450772E+04  0.17300000000E+03 0.  1.
         -6    1    1    2    0  503  0.95382476312E+02 -0.17886609241E+03  0.12140366257E+03  0.29284594087E+03  0.17300000000E+03 0. -1.
<mgrwt>
<rscale>  2 0.26649558E+03</rscale>
<asrwt>0</asrwt>
<pdfrwt beam="1">  1       21 0.19509781E+00 0.26649558E+03</pdfrwt>
<pdfrwt beam="2">  1       21 0.15762332E-01 0.26649558E+03</pdfrwt>
<totfact> 0.48809278E+03</totfact>
</mgrwt>
</event>
<event>
 4    1  0.4332500E+000  0.2132636E+03  0.7546771E-02  0.1139007E+00
         21   -1    0    0  501  502  0.00000000000E+00  0.00000000000E+00  0.19255640467E+03  0.19255640467E+03  0.00000000000E+00 0. -1.
         21   -1    0    0  502  503 -0.00000000000E+00 -0.00000000000E+00 -0.43172991708E+03  0.43172991708E+03  0.00000000000E+00 0.  1.
          6    1    1    2  501    0 -0.10468441810E+03  0.67775736739E+02  0.90479804767E+02  0.23166349077E+03  0.17300000000E+03 0.  1.
         -6    1    1    2    0  503  0.10468441810E+03 -0.67775736739E+02 -0.32965331717E+03  0.39262283098E+03  0.17300000000E+03 0.  1.
<mgrwt>
<rscale>  2 0.21326363E+03</rscale>
<asrwt>0</asrwt>
<pdfrwt beam="1">  1       21 0.29624062E-01 0.21326363E+03</pdfrwt>
<pdfrwt beam="2">  1       21 0.66419987E-01 0.21326363E+03</pdfrwt>
<totfact> 0.22437174E+04</totfact>
</mgrwt>
</event>
<event>
 4    1  0.4332500E+000  0.1998853E+03  0.7546771E-02  0.1149836E+00
         21   -1    0    0  503  502  0.00000000000E+00  0.00000000000E+00  0.16315091235E+04  0.16315091235E+04  0.00000000000E+00 0.  1.
         21   -1    0    0  501  503 -0.00000000000E+00 -0.00000000000E+00 -0.29971849392E+02  0.29971849392E+02  0.00000000000E+00 0.  1.
          6    1    1    2  501    0 -0.40047257764E+02 -0.91767871878E+02  0.44545704290E+03  0.48824799255E+03  0.17300000000E+03 0.  1.
         -6    1    1    2    0  502  0.40047257764E+02  0.91767871878E+02  0.11560802312E+04  0.11732329804E+04  0.17300000000E+03 0.  1.
<mgrwt>
<rscale>  2 0.19988528E+03</rscale>
<asrwt>0</asrwt>
<pdfrwt beam="1">  1       21 0.25100133E+00 0.19988528E+03</pdfrwt>
<pdfrwt beam="2">  1       21 0.46110550E-02 0.19988528E+03</pdfrwt>
<totfact> 0.20109502E+04</totfact>
</mgrwt>
</event>
<event>
 4    1  0.4332500E+000  0.2067743E+03  0.7546771E-02  0.1144146E+00
         21   -1    0    0  501  502  0.00000000000E+00  0.00000000000E+00  0.14766088426E+03  0.14766088426E+03  0.00000000000E+00 0.  1.
         21   -1    0    0  502  503 -0.00000000000E+00 -0.00000000000E+00 -0.30540767158E+03  0.30540767158E+03  0.00000000000E+00 0.  1.
          6    1    1    2  501    0 -0.48671584795E+02 -0.10226285606E+03 -0.27258382719E+02  0.20856326217E+03  0.17300000000E+03 0.  1.
         -6    1    1    2    0  503  0.48671584795E+02  0.10226285606E+03 -0.13048840460E+03  0.24450529367E+03  0.17300000000E+03 0.  1.
<mgrwt>
<rscale>  2 0.20677431E+03</rscale>
<asrwt>0</asrwt>
<pdfrwt beam="1">  1       21 0.22717059E-01 0.20677431E+03</pdfrwt>
<pdfrwt beam="2">  1       21 0.46985795E-01 0.20677431E+03</pdfrwt>
<totfact> 0.78289246E+04</totfact>
</mgrwt>
</event>
<event>
 4    1  0.4332500E+000  0.1968258E+03  0.7546771E-02  0.1152445E+00
         21   -1    0    0  501  502  0.00000000000E+00  0.00000000000E+00  0.13467467548E+04  0.13467467548E+04  0.00000000000E+00 0.  1.
         21   -1    0    0  502  503 -0.00000000000E+00 -0.00000000000E+00 -0.43848864479E+02  0.43848864479E+02  0.00000000000E+00 0.  1.
          6    1    1    2  501    0 -0.61494697935E+02  0.70920998258E+02  0.10592374727E+04  0.10773692076E+04  0.17300000000E+03 0.  1.
         -6    1    1    2    0  503  0.61494697935E+02 -0.70920998258E+02  0.24366041759E+03  0.31322641167E+03  0.17300000000E+03 0.  1.
<mgrwt>
<rscale>  2 0.19682578E+03</rscale>
<asrwt>0</asrwt>
<pdfrwt beam="1">  1       21 0.20719178E+00 0.19682578E+03</pdfrwt>
<pdfrwt beam="2">  1       21 0.67459802E-02 0.19682578E+03</pdfrwt>
<totfact> 0.19421009E+04</totfact>
</mgrwt>
</event>
<event>
 4    1  0.4332500E+000  0.1860429E+03  0.7546771E-02  0.1162080E+00
         21   -1    0    0  503  502  0.00000000000E+00  0.00000000000E+00  0.26394496521E+04  0.26394496521E+04  0.00000000000E+00 0. -1.
         21   -1    0    0  501  503 -0.00000000000E+00 -0.00000000000E+00 -0.13599348987E+02  0.13599348987E+02  0.00000000000E+00 0.  1.
          6    1    1    2  501    0  0.31687313089E+02  0.60653725987E+02  0.10621495924E+04  0.10783198584E+04  0.17300000000E+03 0.  1.
         -6    1    1    2    0  502 -0.31687313089E+02 -0.60653725987E+02  0.15637007106E+04  0.15747291427E+04  0.17300000000E+03 0.  1.
<mgrwt>
<rscale>  2 0.18604290E+03</rscale>
<asrwt>0</asrwt>
<pdfrwt beam="1">  1       21 0.40606877E+00 0.18604290E+03</pdfrwt>
<pdfrwt beam="2">  1       21 0.20922096E-02 0.18604290E+03</pdfrwt>
<totfact> 0.92131382E+03</totfact>
</mgrwt>
</event>
<event>
 4    1  0.4332500E+000  0.2086005E+03  0.7546771E-02  0.1142679E+00
         21   -1    0    0  503  502  0.00000000000E+00  0.00000000000E+00  0.13713219976E+03  0.13713219976E+03  0.00000000000E+00 0.  1.
         21   -1    0    0  501  503 -0.00000000000E+00 -0.00000000000E+00 -0.35367887183E+03  0.35367887183E+03  0.00000000000E+00 0.  1.
          6    1    1    2  501    0  0.28126943164E+01 -0.11652150045E+03 -0.29584717073E+02  0.21068798447E+03  0.17300000000E+03 0.  1.
         -6    1    1    2    0  502 -0.28126943164E+01  0.11652150045E+03 -0.18696195500E+03  0.28012308711E+03  0.17300000000E+03 0.  1.
<mgrwt>
<rscale>  2 0.20860051E+03</rscale>
<asrwt>0</asrwt>
<pdfrwt beam="1">  1       21 0.21097262E-01 0.20860051E+03</pdfrwt>
<pdfrwt beam="2">  1       21 0.54412133E-01 0.20860051E+03</pdfrwt>
<totfact> 0.66164621E+04</totfact>
</mgrwt>
</event>
<event>
 4    1  0.4332500E+000  0.1947590E+03  0.7546771E-02  0.1154238E+00
         21   -1    0    0  503  502  0.00000000000E+00  0.00000000000E+00  0.18765951396E+03  0.18765951396E+03  0.00000000000E+00 0.  1.
         21   -1    0    0  501  503 -0.00000000000E+00 -0.00000000000E+00 -0.25338254719E+03  0.25338254719E+03  0.00000000000E+00 0.  1.
          6    1    1    2  501    0 -0.22035705284E+02  0.86697829839E+02 -0.13204318105E+03  0.23530084502E+03  0.17300000000E+03 0.  1.
         -6    1    1    2    0  502  0.22035705284E+02 -0.86697829839E+02  0.66320147817E+02  0.20574121613E+03  0.17300000000E+03 0.  1.
<mgrwt>
<rscale>  2 0.19475905E+03</rscale>
<asrwt>0</asrwt>
<pdfrwt beam="1">  1       21 0.28870695E-01 0.19475905E+03</pdfrwt>
<pdfrwt beam="2">  1       21 0.38981930E-01 0.19475905E+03</pdfrwt>
<totfact> 0.72787512E+04</totfact>
</mgrwt>
</event>
<event>
 4    1  0.4332500E+000  0.2687888E+03  0.7546771E-02  0.1101975E+00
         21   -1    0    0  501  502  0.00000000000E+00  0.00000000000E+00  0.38928859937E+02  0.38928859937E+02  0.00000000000E+00 0. -1.
         21   -1    0    0  502  503 -0.00000000000E+00 -0.00000000000E+00 -0.19663248604E+04  0.19663248604E+04  0.00000000000E+00 0.  1.
          6    1    1    2  501    0  0.12819268875E+03 -0.16088840923E+03 -0.72608142986E+03  0.77423619682E+03  0.17300000000E+03 0. -1.
         -6    1    1    2    0  503 -0.12819268875E+03  0.16088840923E+03 -0.12013145706E+04  0.12310175235E+04  0.17300000000E+03 0. -1.
<mgrwt>
<rscale>  2 0.26878885E+03</rscale>
<asrwt>0</asrwt>
<pdfrwt beam="1">  1       21 0.59890554E-02 0.26878885E+03</pdfrwt>
<pdfrwt beam="2">  1       21 0.30251151E+00 0.26878885E+03</pdfrwt>
<totfact> 0.60669876E+03</totfact>
</mgrwt>
</event>
<event>
 4    1  0.4332500E+000  0.1750469E+03  0.7546771E-02  0.1172685E+00
         21   -1    0    0  503  502  0.00000000000E+00  0.00000000000E+00  0.41397255493E+03  0.41397255493E+03  0.00000000000E+00 0. -1.
         21   -1    0    0  501  503 -0.00000000000E+00 -0.00000000000E+00 -0.11674961291E+03  0.11674961291E+03  0.00000000000E+00 0. -1.
          6    1    1    2  501    0 -0.24260899102E+02 -0.11127548342E+02 -0.11928890543E+02  0.17545287683E+03  0.17300000000E+03 0. -1.
         -6    1    1    2    0  502  0.24260899102E+02  0.11127548342E+02  0.30915183256E+03  0.35526929101E+03  0.17300000000E+03 0. -1.
<mgrwt>
<rscale>  2 0.17504689E+03</rscale>
<asrwt>0</asrwt>
<pdfrwt beam="1">  1       21 0.63688085E-01 0.17504689E+03</pdfrwt>
<pdfrwt beam="2">  1       21 0.17961479E-01 0.17504689E+03</pdfrwt>
<totfact> 0.64722639E+04</totfact>
</mgrwt>
</event>
<event>
 4    1  0.4332500E+000  0.2505284E+03  0.7546771E-02  0.1112971E+00
         21   -1    0    0  501  502  0.00000000000E+00  0.00000000000E+00  0.11178894203E+03  0.11178894203E+03  0.00000000000E+00 0. -1.
         21   -1    0    0  502  503 -0.00000000000E+00 -0.00000000000E+00 -0.56558838212E+03  0.56558838212E+03  0.00000000000E+00 0.  1.
          6    1    1    2  501    0 -0.53807745370E+02  0.17303232369E+03 -0.19794601740E+03  0.31929153498E+03  0.17300000000E+03 0. -1.
         -6    1    1    2    0  503  0.53807745370E+02 -0.17303232369E+03 -0.25585342269E+03  0.35808578917E+03  0.17300000000E+03 0.  1.
<mgrwt>
<rscale>  2 0.25052836E+03</rscale>
<asrwt>0</asrwt>
<pdfrwt beam="1">  1       21 0.17198299E-01 0.25052836E+03</pdfrwt>
<pdfrwt beam="2">  1       21 0.87013597E-01 0.25052836E+03</pdfrwt>
<totfact> 0.33690470E+04</totfact>
</mgrwt>
</event>
<event>
 4    1  0.4332500E+000  0.3070667E+03  0.7546771E-02  0.1081760E+00
         21   -1    0    0  501  502  0.00000000000E+00  0.00000000000E+00  0.35229880803E+03  0.35229880803E+03  0.00000000000E+00 0.  1.
         21   -1    0    0  502  503 -0.00000000000E+00 -0.00000000000E+00 -0.26770996222E+03  0.26770996222E+03  0.00000000000E+00 0. -1.
          6    1    1    2  501    0  0.20484331344E+03  0.14966681296E+03  0.37353055019E+02  0.30933022594E+03  0.17300000000E+03 0.  1.
         -6    1    1    2    0  503 -0.20484331344E+03 -0.14966681296E+03  0.47235790792E+02  0.31067854431E+03  0.17300000000E+03 0. -1.
<mgrwt>
<rscale>  2 0.30706667E+03</rscale>
<asrwt>0</asrwt>
<pdfrwt beam="1">  1       21 0.54199817E-01 0.30706667E+03</pdfrwt>
<pdfrwt beam="2">  1       21 0.41186148E-01 0.30706667E+03</pdfrwt>
<totfact> 0.17248967E+04</totfact>
</mgrwt>
</event>
<event>
 4    1  0.4332500E+000  0.3409337E+03  0.7546771E-02  0.1066399E+00
         21   -1    0    0  503  502  0.00000000000E+00  0.00000000000E+00  0.21845269653E+04  0.21845269653E+04  0.00000000000E+00 0.  1.
         21   -1    0    0  501  503 -0.00000000000E+00 -0.00000000000E+00 -0.24277602016E+03  0.24277602016E+03  0.00000000000E+00 0. -1.
          6    1    1    2  501    0  0.10770992682E+02 -0.29358261270E+03 -0.10156420962E+03  0.35574014876E+03  0.17300000000E+03 0. -1.
         -6    1    1    2    0  502 -0.10770992682E+02  0.29358261270E+03  0.20433151548E+04  0.20715628367E+04  0.17300000000E+03 0.  1.
<mgrwt>
<rscale>  2 0.34093367E+03</rscale>
<asrwt>0</asrwt>
<pdfrwt beam="1">  1       21 0.33608106E+00 0.34093367E+03</pdfrwt>
<pdfrwt beam="2">  1       21 0.37350158E-01 0.34093367E+03</pdfrwt>
<totfact> 0.12159414E+02</totfact>
</mgrwt>
</event>
<event>
 4    1  0.4332500E+000  0.2136655E+03  0.7546771E-02  0.1138696E+00
         21   -1    0    0  501  502  0.00000000000E+00  0.00000000000E+00  0.16036646085E+04  0.16036646085E+04  0.00000000000E+00 0. -1.
         21   -1    0    0  502  503 -0.00000000000E+00 -0.00000000000E+00 -0.32723033626E+02  0.32723033626E+02  0.00000000000E+00 0.  1.
          6    1    1    2  501    0  0.30425596393E+02 -0.12164794864E+03  0.49042680480E+03  0.53494989596E+03  0.17300000000E+03 0.  1.
         -6    1    1    2    0  503 -0.30425596393E+02  0.12164794864E+03  0.10805147701E+04  0.11014377462E+04  0.17300000000E+03 0. -1.
<mgrwt>
<rscale>  2 0.21366549E+03</rscale>
<asrwt>0</asrwt>
<pdfrwt beam="1">  1       21 0.24671757E+00 0.21366549E+03</pdfrwt>
<pdfrwt beam="2">  1       21 0.50343141E-02 0.21366549E+03</pdfrwt>
<totfact> 0.18158033E+04</totfact>
</mgrwt>
</event>
<event>
 4    1  0.4332500E+000  0.2391197E+03  0.7546771E-02  0.1120381E+00
         21   -1    0    0  503  502  0.00000000000E+00  0.00000000000E+00  0.21868095771E+03  0.21868095771E+03  0.00000000000E+00 0.  1.
         21   -1    0    0  501  503 -0.00000000000E+00 -0.00000000000E+00 -0.32767549786E+03  0.32767549786E+03  0.00000000000E+00 0. -1.
          6    1    1    2  501    0  0.26104905416E+02 -0.16299616141E+03  0.68296280184E+02  0.24868171748E+03  0.17300000000E+03 0.  1.
         -6    1    1    2    0  502 -0.26104905416E+02  0.16299616141E+03 -0.17729082033E+03  0.29767473809E+03  0.17300000000E+03 0. -1.
<mgrwt>
<rscale>  2 0.23911967E+03</rscale>
<asrwt>0</asrwt>
<pdfrwt beam="1">  1       21 0.33643224E-01 0.23911967E+03</pdfrwt>
<pdfrwt beam="2">  1       21 0.50411615E-01 0.23911967E+03</pdfrwt>
<totfact> 0.31133213E+04</totfact>
</mgrwt>
</event>
<event>
 4    1  0.4332500E+000  0.1743466E+03  0.7546771E-02  0.1173389E+00
         21   -1    0    0  501  502  0.00000000000E+00  0.00000000000E+00  0.10088943304E+04  0.10088943304E+04  0.00000000000E+00 0. -1.
         21   -1    0    0  502  503 -0.00000000000E+00 -0.00000000000E+00 -0.30151827645E+02  0.30151827645E+02  0.00000000000E+00 0. -1.
          6    1    1    2  501    0 -0.12322229152E+02  0.17773077614E+02  0.47499669437E+03  0.50598278556E+03  0.17300000000E+03 0. -1.
         -6    1    1    2    0  503  0.12322229152E+02 -0.17773077614E+02  0.50374580834E+03  0.53306337244E+03  0.17300000000E+03 0. -1.
<mgrwt>
<rscale>  2 0.17434655E+03</rscale>
<asrwt>0</asrwt>
<pdfrwt beam="1">  1       21 0.15521449E+00 0.17434655E+03</pdfrwt>
<pdfrwt beam="2">  1       21 0.46387435E-02 0.17434655E+03</pdfrwt>
<totfact> 0.84177498E+04</totfact>
</mgrwt>
</event>
<event>
 4    1  0.4332500E+000  0.2437692E+03  0.7546771E-02  0.1117307E+00
         21   -1    0    0  501  502  0.00000000000E+00  0.00000000000E+00  0.25789068819E+03  0.25789068819E+03  0.00000000000E+00 0. -1.
         21   -1    0    0  502  503 -0.00000000000E+00 -0.00000000000E+00 -0.25444323684E+03  0.25444323684E+03  0.00000000000E+00 0. -1.
          6    1    1    2  501    0 -0.11526009736E+03 -0.12731674666E+03  0.80434448878E+02  0.25669660027E+03  0.17300000000E+03 0. -1.
         -6    1    1    2    0  503  0.11526009736E+03  0.12731674666E+03 -0.76986997532E+02  0.25563732477E+03  0.17300000000E+03 0. -1.
<mgrwt>
<rscale>  2 0.24376924E+03</rscale>
<asrwt>0</asrwt>
<pdfrwt beam="1">  1       21 0.39675491E-01 0.24376924E+03</pdfrwt>
<pdfrwt beam="2">  1       21 0.39145113E-01 0.24376924E+03</pdfrwt>
<totfact> 0.37591587E+04</totfact>
</mgrwt>
</event>
<event>
 4    1  0.4332500E+000  0.1732836E+03  0.7546771E-02  0.1174466E+00
         21   -1    0    0  501  502  0.00000000000E+00  0.00000000000E+00  0.11324747326E+04  0.11324747326E+04  0.00000000000E+00 0. -1.
         21   -1    0    0  502  503 -0.00000000000E+00 -0.00000000000E+00 -0.29498998091E+02  0.29498998091E+02  0.00000000000E+00 0. -1.
          6    1    1    2  501    0  0.92603663301E+01 -0.35299980272E+01  0.36669526281E+03  0.40557691137E+03  0.17300000000E+03 0. -1.
         -6    1    1    2    0  503 -0.92603663301E+01  0.35299980272E+01  0.73628047170E+03  0.75639681932E+03  0.17300000000E+03 0. -1.
<mgrwt>
<rscale>  2 0.17328363E+03</rscale>
<asrwt>0</asrwt>
<pdfrwt beam="1">  1       21 0.17422685E+00 0.17328363E+03</pdfrwt>
<pdfrwt beam="2">  1       21 0.45383083E-02 0.17328363E+03</pdfrwt>
<totfact> 0.63895031E+04</totfact>
</mgrwt>
</event>
<event>
 4    1  0.4332500E+000  0.2725776E+03  0.7546771E-02  0.1099813E+00
         21   -1    0    0  501  502  0.00000000000E+00  0.00000000000E+00  0.64561324800E+02  0.64561324800E+02  0.00000000000E+00 0. -1.
         21   -1    0    0  502  503 -0.00000000000E+00 -0.00000000000E+00 -0.11730384573E+04  0.11730384573E+04  0.00000000000E+00 0.  1.
          6    1    1    2  501    0 -0.27161162264E+02 -0.20888232315E+03 -0.46907821347E+03  0.54252458378E+03  0.17300000000E+03 0. -1.
         -6    1    1    2    0  503  0.27161162264E+02  0.20888232315E+03 -0.63939891907E+03  0.69507519835E+03  0.17300000000E+03 0.  1.
<mgrwt>
<rscale>  2 0.27257761E+03</rscale>
<asrwt>0</asrwt>
<pdfrwt beam="1">  1       21 0.99325125E-02 0.27257761E+03</pdfrwt>
<pdfrwt beam="2">  1       21 0.18046744E+00 0.27257761E+03</pdfrwt>
<totfact> 0.14073377E+04</totfact>
</mgrwt>
</event>
<event>
 4    1  0.4332500E+000  0.2063271E+03  0.7546771E-02  0.1144508E+00
         21   -1    0    0  503  502  0.00000000000E+00  0.00000000000E+00  0.42247770159E+03  0.42247770159E+03  0.00000000000E+00 0. -1.
         21   -1    0    0  501  503 -0.00000000000E+00 -0.00000000000E+00 -0.10107231899E+03  0.10107231899E+03  0.00000000000E+00 0. -1.
          6    1    1    2  501    0  0.44280484240E+01  0.11234882188E+03  0.14626245487E+03  0.25291020362E+03  0.17300000000E+03 0. -1.
         -6    1    1    2    0  502 -0.44280484240E+01 -0.11234882188E+03  0.17514292772E+03  0.27063981696E+03  0.17300000000E+03 0. -1.
<mgrwt>
<rscale>  2 0.20632708E+03</rscale>
<asrwt>0</asrwt>
<pdfrwt beam="1">  1       21 0.64996568E-01 0.20632708E+03</pdfrwt>
<pdfrwt beam="2">  1       21 0.15549588E-01 0.20632708E+03</pdfrwt>
<totfact> 0.79600590E+04</totfact>
</mgrwt>
</event>
<event>
 4    1  0.4332500E+000  0.2271822E+03  0.7546771E-02  0.1128639E+00
         21   -1    0    0  503  502  0.00000000000E+00  0.00000000000E+00  0.30858066823E+03  0.30858066823E+03  0.00000000000E+00 0. -1.
         21   -1    0    0  501  503 -0.00000000000E+00 -0.00000000000E+00 -0.40586020637E+03  0.40586020637E+03  0.00000000000E+00 0. -1.
          6    1    1    2  501    0 -0.42524223229E+02  0.14097671143E+03 -0.32253708398E+03  0.39451478206E+03  0.17300000000E+03 0. -1.
         -6    1    1    2    0  502  0.42524223229E+02 -0.14097671143E+03  0.22525754584E+03  0.31992609253E+03  0.17300000000E+03 0. -1.
<mgrwt>
<rscale>  2 0.22718218E+03</rscale>
<asrwt>0</asrwt>
<pdfrwt beam="1">  1       21 0.47473950E-01 0.22718218E+03</pdfrwt>
<pdfrwt beam="2">  1       21 0.62440031E-01 0.22718218E+03</pdfrwt>
<totfact> 0.98644515E+03</totfact>
</mgrwt>
</event>
<event>
 4    1  0.4332500E+000  0.1802090E+03  0.7546771E-02  0.1167601E+00
         21   -1    0    0  503  502  0.00000000000E+00  0.00000000000E+00  0.41536453813E+03  0.41536453813E+03  0.00000000000E+00 0.  1.
         21   -1    0    0  501  503 -0.00000000000E+00 -0.00000000000E+00 -0.12685998460E+03  0.12685998460E+03  0.00000000000E+00 0.  1.
          6    1    1    2  501    0  0.50089347944E+02  0.61092683954E+01 -0.23682196422E+02  0.18175839008E+03  0.17300000000E+03 0.  1.
         -6    1    1    2    0  502 -0.50089347944E+02 -0.61092683954E+01  0.31218674995E+03  0.36046613264E+03  0.17300000000E+03 0.  1.
<mgrwt>
<rscale>  2 0.18020895E+03</rscale>
<asrwt>0</asrwt>
<pdfrwt beam="1">  1       21 0.63902236E-01 0.18020895E+03</pdfrwt>
<pdfrwt beam="2">  1       21 0.19516921E-01 0.18020895E+03</pdfrwt>
<totfact> 0.54959163E+04</totfact>
</mgrwt>
</event>
<event>
 4    1  0.4332500E+000  0.1921568E+03  0.7546771E-02  0.1156530E+00
         21   -1    0    0  503  502  0.00000000000E+00  0.00000000000E+00  0.14909880452E+03  0.14909880452E+03  0.00000000000E+00 0. -1.
         21   -1    0    0  501  503 -0.00000000000E+00 -0.00000000000E+00 -0.34852217132E+03  0.34852217132E+03  0.00000000000E+00 0. -1.
          6    1    1    2  501    0 -0.25126454415E+02 -0.79774062273E+02 -0.23356844249E+03  0.30245405775E+03  0.17300000000E+03 0.  1.
         -6    1    1    2    0  502  0.25126454415E+02  0.79774062273E+02  0.34145075686E+02  0.19516691809E+03  0.17300000000E+03 0.  1.
<mgrwt>
<rscale>  2 0.19215681E+03</rscale>
<asrwt>0</asrwt>
<pdfrwt beam="1">  1       21 0.22938278E-01 0.19215681E+03</pdfrwt>
<pdfrwt beam="2">  1       21 0.53618795E-01 0.19215681E+03</pdfrwt>
<totfact> 0.58729047E+04</totfact>
</mgrwt>
</event>
<event>
 4    1  0.4332500E+000  0.2859640E+03  0.7546771E-02  0.1092475E+00
         21   -1    0    0  501  502  0.00000000000E+00  0.00000000000E+00  0.32187172257E+03  0.32187172257E+03  0.00000000000E+00 0. -1.
         21   -1    0    0  502  503 -0.00000000000E+00 -0.00000000000E+00 -0.26949784952E+03  0.26949784952E+03  0.00000000000E+00 0. -1.
          6    1    1    2  501    0 -0.23780483383E+02 -0.22645283525E+03  0.96951450578E+02  0.30195195272E+03  0.17300000000E+03 0. -1.
         -6    1    1    2    0  503  0.23780483383E+02  0.22645283525E+03 -0.44577577533E+02  0.28941761937E+03  0.17300000000E+03 0. -1.
<mgrwt>
<rscale>  2 0.28596398E+03</rscale>
<asrwt>0</asrwt>
<pdfrwt beam="1">  1       21 0.49518727E-01 0.28596398E+03</pdfrwt>
<pdfrwt beam="2">  1       21 0.41461208E-01 0.28596398E+03</pdfrwt>
<totfact> 0.20780502E+04</totfact>
</mgrwt>
</event>
<event>
 4    1  0.4332500E+000  0.2291085E+03  0.7546771E-02  0.1127269E+00
         21   -1    0    0  501  502  0.00000000000E+00  0.00000000000E+00  0.52049725243E+03  0.52049725243E+03  0.00000000000E+00 0.  1.
         21   -1    0    0  502  503 -0.00000000000E+00 -0.00000000000E+00 -0.16308452788E+03  0.16308452788E+03  0.00000000000E+00 0. -1.
          6    1    1    2  501    0 -0.94258588246E+02 -0.11694873269E+03  0.38985077415E+03  0.45218836079E+03  0.17300000000E+03 0.  1.
         -6    1    1    2    0  503  0.94258588246E+02  0.11694873269E+03 -0.32438049591E+02  0.23139341952E+03  0.17300000000E+03 0.  1.
<mgrwt>
<rscale>  2 0.22910846E+03</rscale>
<asrwt>0</asrwt>
<pdfrwt beam="1">  1       21 0.80076500E-01 0.22910846E+03</pdfrwt>
<pdfrwt beam="2">  1       21 0.25089928E-01 0.22910846E+03</pdfrwt>
<totfact> 0.20214595E+04</totfact>
</mgrwt>
</event>
<event>
 4    1  0.4332500E+000  0.1833271E+03  0.7546771E-02  0.1164621E+00
         21   -1    0    0  501  502  0.00000000000E+00  0.00000000000E+00  0.44009809298E+02  0.44009809298E+02  0.00000000000E+00 0. -1.
         21   -1    0    0  502  503 -0.00000000000E+00 -0.00000000000E+00 -0.80205256553E+03  0.80205256553E+03  0.00000000000E+00 0. -1.
          6    1    1    2  501    0  0.52671242552E+02  0.30092378516E+02 -0.28647518878E+03  0.34011298832E+03  0.17300000000E+03 0. -1.
         -6    1    1    2    0  503 -0.52671242552E+02 -0.30092378516E+02 -0.47156756745E+03  0.50594938651E+03  0.17300000000E+03 0. -1.
<mgrwt>
<rscale>  2 0.18332706E+03</rscale>
<asrwt>0</asrwt>
<pdfrwt beam="1">  1       21 0.67707405E-02 0.18332706E+03</pdfrwt>
<pdfrwt beam="2">  1       21 0.12339269E+00 0.18332706E+03</pdfrwt>
<totfact> 0.79279858E+04</totfact>
</mgrwt>
</event>
<event>
 4    1  0.4332500E+000  0.2973163E+03  0.7546771E-02  0.1086590E+00
         21   -1    0    0  503  502  0.00000000000E+00  0.00000000000E+00  0.28978260965E+03  0.28978260965E+03  0.00000000000E+00 0. -1.
         21   -1    0    0  501  503 -0.00000000000E+00 -0.00000000000E+00 -0.75153349584E+03  0.75153349584E+03  0.00000000000E+00 0. -1.
          6    1    1    2  501    0  0.22376539435E+03 -0.91635294958E+02 -0.63218836885E+03  0.69861227638E+03  0.17300000000E+03 0. -1.
         -6    1    1    2    0  502 -0.22376539435E+03  0.91635294958E+02  0.17043748266E+03  0.34270382911E+03  0.17300000000E+03 0. -1.
<mgrwt>
<rscale>  2 0.29731629E+03</rscale>
<asrwt>0</asrwt>
<pdfrwt beam="1">  1       21 0.44581941E-01 0.29731629E+03</pdfrwt>
<pdfrwt beam="2">  1       21 0.11562053E+00 0.29731629E+03</pdfrwt>
<totfact> 0.25917705E+03</totfact>
</mgrwt>
</event>
<event>
 4    1  0.4332500E+000  0.2060908E+03  0.7546771E-02  0.1144700E+00
         21   -1    0    0  501  502  0.00000000000E+00  0.00000000000E+00  0.64635815469E+02  0.64635815469E+02  0.00000000000E+00 0.  1.
         21   -1    0    0  502  503 -0.00000000000E+00 -0.00000000000E+00 -0.66226487500E+03  0.66226487500E+03  0.00000000000E+00 0.  1.
          6    1    1    2  501    0  0.10361835160E+03  0.42516728293E+02 -0.33085144178E+03  0.38978982991E+03  0.17300000000E+03 0.  1.
         -6    1    1    2    0  503 -0.10361835160E+03 -0.42516728293E+02 -0.26677761776E+03  0.33711086056E+03  0.17300000000E+03 0.  1.
<mgrwt>
<rscale>  2 0.20609084E+03</rscale>
<asrwt>0</asrwt>
<pdfrwt beam="1">  1       21 0.99439711E-02 0.20609084E+03</pdfrwt>
<pdfrwt beam="2">  1       21 0.10188691E+00 0.20609084E+03</pdfrwt>
<totfact> 0.63933177E+04</totfact>
</mgrwt>
</event>
<event>
 4    1  0.4332500E+000  0.2053314E+03  0.7546771E-02  0.1145317E+00
         21   -1    0    0  503  502  0.00000000000E+00  0.00000000000E+00  0.12034990500E+03  0.12034990500E+03  0.00000000000E+00 0. -1.
         21   -1    0    0  501  503 -0.00000000000E+00 -0.00000000000E+00 -0.45564345751E+03  0.45564345751E+03  0.00000000000E+00 0. -1.
          6    1    1    2  501    0  0.77033390529E+02  0.79358952780E+02 -0.30611092239E+03  0.36859853967E+03  0.17300000000E+03 0. -1.
         -6    1    1    2    0  502 -0.77033390529E+02 -0.79358952780E+02 -0.29182630121E+02  0.20739482285E+03  0.17300000000E+03 0. -1.
<mgrwt>
<rscale>  2 0.20533141E+03</rscale>
<asrwt>0</asrwt>
<pdfrwt beam="1">  1       21 0.18515370E-01 0.20533141E+03</pdfrwt>
<pdfrwt beam="2">  1       21 0.70098993E-01 0.20533141E+03</pdfrwt>
<totfact> 0.48910576E+04</totfact>
</mgrwt>
</event>
<event>
 4    1  0.4332500E+000  0.1962290E+03  0.7546771E-02  0.1152960E+00
         21   -1    0    0  501  502  0.00000000000E+00  0.00000000000E+00  0.29734297898E+03  0.29734297898E+03  0.00000000000E+00 0. -1.
         21   -1    0    0  502  503 -0.00000000000E+00 -0.00000000000E+00 -0.17543184608E+03  0.17543184608E+03  0.00000000000E+00 0. -1.
          6    1    1    2  501    0 -0.83021247330E+02 -0.41040080509E+02 -0.60000783133E+02  0.20519724582E+03  0.17300000000E+03 0. -1.
         -6    1    1    2    0  503  0.83021247330E+02  0.41040080509E+02  0.18191191603E+03  0.26757757924E+03  0.17300000000E+03 0. -1.
<mgrwt>
<rscale>  2 0.19622899E+03</rscale>
<asrwt>0</asrwt>
<pdfrwt beam="1">  1       21 0.45745074E-01 0.19622899E+03</pdfrwt>
<pdfrwt beam="2">  1       21 0.26989515E-01 0.19622899E+03</pdfrwt>
<totfact> 0.59821403E+04</totfact>
</mgrwt>
</event>
<event>
 4    1  0.4332500E+000  0.2141406E+03  0.7546771E-02  0.1138328E+00
         21   -1    0    0  501  502  0.00000000000E+00  0.00000000000E+00  0.33424217987E+03  0.33424217987E+03  0.00000000000E+00 0. -1.
         21   -1    0    0  502  503 -0.00000000000E+00 -0.00000000000E+00 -0.13864158450E+03  0.13864158450E+03  0.00000000000E+00 0. -1.
          6    1    1    2  501    0 -0.75126693244E+02 -0.10140597910E+03  0.12195617703E+03  0.24643356458E+03  0.17300000000E+03 0. -1.
         -6    1    1    2    0  503  0.75126693244E+02  0.10140597910E+03  0.73644418336E+02  0.22645019980E+03  0.17300000000E+03 0. -1.
<mgrwt>
<rscale>  2 0.21414059E+03</rscale>
<asrwt>0</asrwt>
<pdfrwt beam="1">  1       21 0.51421873E-01 0.21414059E+03</pdfrwt>
<pdfrwt beam="2">  1       21 0.21329475E-01 0.21414059E+03</pdfrwt>
<totfact> 0.72842184E+04</totfact>
</mgrwt>
</event>
<event>
 4    1  0.4332500E+000  0.2097481E+03  0.7546771E-02  0.1141766E+00
         21   -1    0    0  501  502  0.00000000000E+00  0.00000000000E+00  0.75439693810E+03  0.75439693810E+03  0.00000000000E+00 0.  1.
         21   -1    0    0  502  503 -0.00000000000E+00 -0.00000000000E+00 -0.68417403346E+02  0.68417403346E+02  0.00000000000E+00 0.  1.
          6    1    1    2  501    0  0.61086829618E+02 -0.10165469492E+03  0.50106169306E+03  0.54319158499E+03  0.17300000000E+03 0.  1.
         -6    1    1    2    0  503 -0.61086829618E+02  0.10165469492E+03  0.18491784169E+03  0.27962275645E+03  0.17300000000E+03 0.  1.
<mgrwt>
<rscale>  2 0.20974813E+03</rscale>
<asrwt>0</asrwt>
<pdfrwt beam="1">  1       21 0.11606106E+00 0.20974813E+03</pdfrwt>
<pdfrwt beam="2">  1       21 0.10525755E-01 0.20974813E+03</pdfrwt>
<totfact> 0.42093530E+04</totfact>
</mgrwt>
</event>
<event>
 4    1  0.4332500E+000  0.1911964E+03  0.7546771E-02  0.1157387E+00
         21   -1    0    0  503  502  0.00000000000E+00  0.00000000000E+00  0.22545918730E+03  0.22545918730E+03  0.00000000000E+00 0.  1.
         21   -1    0    0  501  503 -0.00000000000E+00 -0.00000000000E+00 -0.16537435234E+03  0.16537435234E+03  0.00000000000E+00 0.  1.
          6    1    1    2  501    0 -0.70918537555E+02 -0.39970350514E+02  0.27157236475E+01  0.19121569769E+03  0.17300000000E+03 0.  1.
         -6    1    1    2    0  502  0.70918537555E+02  0.39970350514E+02  0.57369111315E+02  0.19961784194E+03  0.17300000000E+03 0.  1.
<mgrwt>
<rscale>  2 0.19119641E+03</rscale>
<asrwt>0</asrwt>
<pdfrwt beam="1">  1       21 0.34686029E-01 0.19119641E+03</pdfrwt>
<pdfrwt beam="2">  1       21 0.25442208E-01 0.19119641E+03</pdfrwt>
<totfact> 0.11741277E+05</totfact>
</mgrwt>
</event>
<event>
 4    1  0.4332500E+000  0.1988922E+03  0.7546771E-02  0.1150677E+00
         21   -1    0    0  501  502  0.00000000000E+00  0.00000000000E+00  0.65794175943E+03  0.65794175943E+03  0.00000000000E+00 0.  1.
         21   -1    0    0  502  503 -0.00000000000E+00 -0.00000000000E+00 -0.94450519144E+02  0.94450519144E+02  0.00000000000E+00 0.  1.
          6    1    1    2  501    0  0.60563949398E+02 -0.77208152087E+02  0.50853725893E+03  0.54604783164E+03  0.17300000000E+03 0.  1.
         -6    1    1    2    0  503 -0.60563949398E+02  0.77208152087E+02  0.54953981357E+02  0.20634444694E+03  0.17300000000E+03 0.  1.
<mgrwt>
<rscale>  2 0.19889216E+03</rscale>
<asrwt>0</asrwt>
<pdfrwt beam="1">  1       21 0.10122181E+00 0.19889216E+03</pdfrwt>
<pdfrwt beam="2">  1       21 0.14530850E-01 0.19889216E+03</pdfrwt>
<totfact> 0.33032282E+04</totfact>
</mgrwt>
</event>
<event>
 4    1  0.4332500E+000  0.1827691E+03  0.7546771E-02  0.1165150E+00
         21   -1    0    0  501  502  0.00000000000E+00  0.00000000000E+00  0.43166061532E+03  0.43166061532E+03  0.00000000000E+00 0.  1.
         21   -1    0    0  502  503 -0.00000000000E+00 -0.00000000000E+00 -0.81304186184E+02  0.81304186184E+02  0.00000000000E+00 0.  1.
          6    1    1    2  501    0 -0.41821025610E+02  0.41551855911E+02  0.11887475142E+03  0.21802697411E+03  0.17300000000E+03 0.  1.
         -6    1    1    2    0  503  0.41821025610E+02 -0.41551855911E+02  0.23148167771E+03  0.29493782740E+03  0.17300000000E+03 0.  1.
<mgrwt>
<rscale>  2 0.18276913E+03</rscale>
<asrwt>0</asrwt>
<pdfrwt beam="1">  1       21 0.66409324E-01 0.18276913E+03</pdfrwt>
<pdfrwt beam="2">  1       21 0.12508337E-01 0.18276913E+03</pdfrwt>
<totfact> 0.11372164E+05</totfact>
</mgrwt>
</event>
<event>
 4    1  0.4332500E+000  0.1849385E+03  0.7546771E-02  0.1163107E+00
         21   -1    0    0  503  502  0.00000000000E+00  0.00000000000E+00  0.16286281952E+04  0.16286281952E+04  0.00000000000E+00 0. -1.
         21   -1    0    0  501  503 -0.00000000000E+00 -0.00000000000E+00 -0.39923862064E+02  0.39923862064E+02  0.00000000000E+00 0. -1.
          6    1    1    2  501    0  0.55681321843E+02 -0.34246801281E+02  0.21998328307E+03  0.28739328077E+03  0.17300000000E+03 0. -1.
         -6    1    1    2    0  502 -0.55681321843E+02  0.34246801281E+02  0.13687210501E+04  0.13811587765E+04  0.17300000000E+03 0. -1.
<mgrwt>
<rscale>  2 0.18493851E+03</rscale>
<asrwt>0</asrwt>
<pdfrwt beam="1">  1       21 0.25055813E+00 0.18493851E+03</pdfrwt>
<pdfrwt beam="2">  1       21 0.61421339E-02 0.18493851E+03</pdfrwt>
<totfact> 0.12592254E+04</totfact>
</mgrwt>
</event>
<event>
 4    1  0.4332500E+000  0.1774031E+03  0.7546771E-02  0.1170340E+00
         21   -1    0    0  503  502  0.00000000000E+00  0.00000000000E+00  0.43709798583E+03  0.43709798583E+03  0.00000000000E+00 0. -1.
         21   -1    0    0  501  503 -0.00000000000E+00 -0.00000000000E+00 -0.20891033686E+03  0.20891033686E+03  0.00000000000E+00 0. -1.
          6    1    1    2  501    0  0.33607465386E+01 -0.39135186221E+02 -0.14738911626E+03  0.23064129945E+03  0.17300000000E+03 0. -1.
         -6    1    1    2    0  502 -0.33607465386E+01  0.39135186221E+02  0.37557676523E+03  0.41536702325E+03  0.17300000000E+03 0. -1.
<mgrwt>
<rscale>  2 0.17740309E+03</rscale>
<asrwt>0</asrwt>
<pdfrwt beam="1">  1       21 0.67245844E-01 0.17740309E+03</pdfrwt>
<pdfrwt beam="2">  1       21 0.32140052E-01 0.17740309E+03</pdfrwt>
<totfact> 0.19021372E+04</totfact>
</mgrwt>
</event>
<event>
 4    1  0.4332500E+000  0.2784890E+03  0.7546771E-02  0.1096517E+00
         21   -1    0    0  501  502  0.00000000000E+00  0.00000000000E+00  0.27472052874E+03  0.27472052874E+03  0.00000000000E+00 0. -1.
         21   -1    0    0  502  503 -0.00000000000E+00 -0.00000000000E+00 -0.28540312730E+03  0.28540312730E+03  0.00000000000E+00 0.  1.
          6    1    1    2  501    0  0.93993446413E+02 -0.19695769949E+03  0.23818672690E+02  0.27950569319E+03  0.17300000000E+03 0.  1.
         -6    1    1    2    0  503 -0.93993446413E+02  0.19695769949E+03 -0.34501271248E+02  0.28061796285E+03  0.17300000000E+03 0. -1.
<mgrwt>
<rscale>  2 0.27848896E+03</rscale>
<asrwt>0</asrwt>
<pdfrwt beam="1">  1       21 0.42264697E-01 0.27848896E+03</pdfrwt>
<pdfrwt beam="2">  1       21 0.43908173E-01 0.27848896E+03</pdfrwt>
<totfact> 0.25744945E+04</totfact>
</mgrwt>
</event>
<event>
 4    1  0.4332500E+000  0.2292514E+03  0.7546771E-02  0.1127168E+00
         21   -1    0    0  501  502  0.00000000000E+00  0.00000000000E+00  0.20356614825E+04  0.20356614825E+04  0.00000000000E+00 0.  1.
         21   -1    0    0  502  503 -0.00000000000E+00 -0.00000000000E+00 -0.35585975500E+02  0.35585975500E+02  0.00000000000E+00 0. -1.
          6    1    1    2  501    0 -0.10554115197E+03  0.10718329629E+03  0.15426260892E+04  0.15595677109E+04  0.17300000000E+03 0.  1.
         -6    1    1    2    0  503  0.10554115197E+03 -0.10718329629E+03  0.45744941784E+03  0.51167974715E+03  0.17300000000E+03 0. -1.
<mgrwt>
<rscale>  2 0.22925138E+03</rscale>
<asrwt>0</asrwt>
<pdfrwt beam="1">  1       21 0.31317860E+00 0.22925138E+03</pdfrwt>
<pdfrwt beam="2">  1       21 0.54747671E-02 0.22925138E+03</pdfrwt>
<totfact> 0.63515151E+03</totfact>
</mgrwt>
</event>
<event>
 4    1  0.4332500E+000  0.1939521E+03  0.7546771E-02  0.1154944E+00
         21   -1    0    0  501  502  0.00000000000E+00  0.00000000000E+00  0.20612404552E+03  0.20612404552E+03  0.00000000000E+00 0. -1.
         21   -1    0    0  502  503 -0.00000000000E+00 -0.00000000000E+00 -0.45132180227E+03  0.45132180227E+03  0.00000000000E+00 0.  1.
          6    1    1    2  501    0 -0.87112236156E+02  0.99942697173E+01  0.13110079388E+03  0.23410434697E+03  0.17300000000E+03 0. -1.
         -6    1    1    2    0  503  0.87112236156E+02 -0.99942697173E+01 -0.37629855063E+03  0.42334150082E+03  0.17300000000E+03 0.  1.
<mgrwt>
<rscale>  2 0.19395213E+03</rscale>
<asrwt>0</asrwt>
<pdfrwt beam="1">  1       21 0.31711392E-01 0.19395213E+03</pdfrwt>
<pdfrwt beam="2">  1       21 0.69434123E-01 0.19395213E+03</pdfrwt>
<totfact> 0.18021469E+04</totfact>
</mgrwt>
</event>
<event>
 4    1  0.4332500E+000  0.1969134E+03  0.7546771E-02  0.1152370E+00
         21   -1    0    0  501  502  0.00000000000E+00  0.00000000000E+00  0.13540684768E+03  0.13540684768E+03  0.00000000000E+00 0. -1.
         21   -1    0    0  502  503 -0.00000000000E+00 -0.00000000000E+00 -0.28920565398E+03  0.28920565398E+03  0.00000000000E+00 0.  1.
          6    1    1    2  501    0 -0.92154122366E+02  0.18801765913E+02 -0.55833879538E+02  0.20467611188E+03  0.17300000000E+03 0.  1.
         -6    1    1    2    0  503  0.92154122366E+02 -0.18801765913E+02 -0.97964926763E+02  0.21993638977E+03  0.17300000000E+03 0.  1.
<mgrwt>
<rscale>  2 0.19691340E+03</rscale>
<asrwt>0</asrwt>
<pdfrwt beam="1">  1       21 0.20831823E-01 0.19691340E+03</pdfrwt>
<pdfrwt beam="2">  1       21 0.44493178E-01 0.19691340E+03</pdfrwt>
<totfact> 0.10356045E+05</totfact>
</mgrwt>
</event>
<event>
 4    1  0.4332500E+000  0.1857578E+03  0.7546771E-02  0.1162344E+00
         21   -1    0    0  503  502  0.00000000000E+00  0.00000000000E+00  0.38014458548E+03  0.38014458548E+03  0.00000000000E+00 0.  1.
         21   -1    0    0  501  503 -0.00000000000E+00 -0.00000000000E+00 -0.10645761821E+03  0.10645761821E+03  0.00000000000E+00 0. -1.
          6    1    1    2  501    0  0.65058944667E+02 -0.18555653083E+02  0.43448200955E+02  0.19077139384E+03  0.17300000000E+03 0. -1.
         -6    1    1    2    0  502 -0.65058944667E+02  0.18555653083E+02  0.23023876632E+03  0.29583080985E+03  0.17300000000E+03 0.  1.
<mgrwt>
<rscale>  2 0.18575785E+03</rscale>
<asrwt>0</asrwt>
<pdfrwt beam="1">  1       21 0.58483782E-01 0.18575785E+03</pdfrwt>
<pdfrwt beam="2">  1       21 0.16378095E-01 0.18575785E+03</pdfrwt>
<totfact> 0.91692930E+04</totfact>
</mgrwt>
</event>
<event>
 4    1  0.4332500E+000  0.1736174E+03  0.7546771E-02  0.1174127E+00
         21   -1    0    0  501  502  0.00000000000E+00  0.00000000000E+00  0.14887667826E+03  0.14887667826E+03  0.00000000000E+00 0.  1.
         21   -1    0    0  502  503 -0.00000000000E+00 -0.00000000000E+00 -0.23807368321E+03  0.23807368321E+03  0.00000000000E+00 0.  1.
          6    1    1    2  501    0 -0.67014454081E+01  0.13003550172E+02  0.30221800322E+02  0.17622814447E+03  0.17300000000E+03 0.  1.
         -6    1    1    2    0  503  0.67014454081E+01 -0.13003550172E+02 -0.11941880527E+03  0.21072221701E+03  0.17300000000E+03 0.  1.
<mgrwt>
<rscale>  2 0.17361740E+03</rscale>
<asrwt>0</asrwt>
<pdfrwt beam="1">  1       21 0.22904104E-01 0.17361740E+03</pdfrwt>
<pdfrwt beam="2">  1       21 0.36626720E-01 0.17361740E+03</pdfrwt>
<totfact> 0.12945542E+05</totfact>
</mgrwt>
</event>
<event>
 4    1  0.4332500E+000  0.2064595E+03  0.7546771E-02  0.1144401E+00
         21   -1    0    0  501  502  0.00000000000E+00  0.00000000000E+00  0.53907457965E+03  0.53907457965E+03  0.00000000000E+00 0. -1.
         21   -1    0    0  502  503 -0.00000000000E+00 -0.00000000000E+00 -0.12038498849E+03  0.12038498849E+03  0.00000000000E+00 0.  1.
          6    1    1    2  501    0 -0.11155888618E+03 -0.15847235580E+02  0.40250476241E+03  0.45236666956E+03  0.17300000000E+03 0. -1.
         -6    1    1    2    0  503  0.11155888618E+03  0.15847235580E+02  0.16184828743E+02  0.20709289858E+03  0.17300000000E+03 0.  1.
<mgrwt>
<rscale>  2 0.20645949E+03</rscale>
<asrwt>0</asrwt>
<pdfrwt beam="1">  1       21 0.82934549E-01 0.20645949E+03</pdfrwt>
<pdfrwt beam="2">  1       21 0.18520768E-01 0.20645949E+03</pdfrwt>
<totfact> 0.33500687E+04</totfact>
</mgrwt>
</event>
<event>
 4    1  0.4332500E+000  0.1876794E+03  0.7546771E-02  0.1160571E+00
         21   -1    0    0  503  502  0.00000000000E+00  0.00000000000E+00  0.71386359670E+02  0.71386359670E+02  0.00000000000E+00 0. -1.
         21   -1    0    0  501  503 -0.00000000000E+00 -0.00000000000E+00 -0.64415244151E+03  0.64415244151E+03  0.00000000000E+00 0. -1.
          6    1    1    2  501    0 -0.72758441161E+02 -0.86680377055E+00 -0.45944855068E+03  0.49630284387E+03  0.17300000000E+03 0. -1.
         -6    1    1    2    0  502  0.72758441161E+02  0.86680377055E+00 -0.11331753115E+03  0.21923595730E+03  0.17300000000E+03 0. -1.
<mgrwt>
<rscale>  2 0.18767936E+03</rscale>
<asrwt>0</asrwt>
<pdfrwt beam="1">  1       21 0.10982517E-01 0.18767936E+03</pdfrwt>
<pdfrwt beam="2">  1       21 0.99100375E-01 0.18767936E+03</pdfrwt>
<totfact> 0.57779477E+04</totfact>
</mgrwt>
</event>
<event>
 4    1  0.4332500E+000  0.2232710E+03  0.7546771E-02  0.1131468E+00
         21   -1    0    0  501  502  0.00000000000E+00  0.00000000000E+00  0.24212842516E+03  0.24212842516E+03  0.00000000000E+00 0.  1.
         21   -1    0    0  502  503 -0.00000000000E+00 -0.00000000000E+00 -0.21463054190E+03  0.21463054190E+03  0.00000000000E+00 0.  1.
          6    1    1    2  501    0  0.41576362498E+02 -0.13487894338E+03 -0.32358941136E+02  0.22560368870E+03  0.17300000000E+03 0.  1.
         -6    1    1    2    0  503 -0.41576362498E+02  0.13487894338E+03  0.59856824393E+02  0.23115527835E+03  0.17300000000E+03 0.  1.
<mgrwt>
<rscale>  2 0.22327096E+03</rscale>
<asrwt>0</asrwt>
<pdfrwt beam="1">  1       21 0.37250527E-01 0.22327096E+03</pdfrwt>
<pdfrwt beam="2">  1       21 0.33020083E-01 0.22327096E+03</pdfrwt>
<totfact> 0.60537548E+04</totfact>
</mgrwt>
</event>
<event>
 4    1  0.4332500E+000  0.5440442E+03  0.7546771E-02  0.1002882E+00
         21   -1    0    0  501  502  0.00000000000E+00  0.00000000000E+00  0.51520048478E+03  0.51520048478E+03  0.00000000000E+00 0. -1.
         21   -1    0    0  502  503 -0.00000000000E+00 -0.00000000000E+00 -0.59660810053E+03  0.59660810053E+03  0.00000000000E+00 0.  1.
          6    1    1    2  501    0 -0.50103785334E+03  0.12254058720E+03  0.66301069253E+02  0.54806930016E+03  0.17300000000E+03 0.  1.
         -6    1    1    2    0  503  0.50103785334E+03 -0.12254058720E+03 -0.14770868501E+03  0.56373928515E+03  0.17300000000E+03 0. -1.
<mgrwt>
<rscale>  2 0.54404423E+03</rscale>
<asrwt>0</asrwt>
<pdfrwt beam="1">  1       21 0.79261613E-01 0.54404423E+03</pdfrwt>
<pdfrwt beam="2">  1       21 0.91785861E-01 0.54404423E+03</pdfrwt>
<totfact> 0.11633466E+03</totfact>
</mgrwt>
</event>
<event>
 4    1  0.4332500E+000  0.1860543E+03  0.7546771E-02  0.1162069E+00
         21   -1    0    0  503  502  0.00000000000E+00  0.00000000000E+00  0.64321415631E+03  0.64321415631E+03  0.00000000000E+00 0.  1.
         21   -1    0    0  501  503 -0.00000000000E+00 -0.00000000000E+00 -0.18411111694E+03  0.18411111694E+03  0.00000000000E+00 0. -1.
          6    1    1    2  501    0 -0.66885457411E+02  0.14613437973E+02 -0.11843927685E+03  0.22055402804E+03  0.17300000000E+03 0. -1.
         -6    1    1    2    0  502  0.66885457411E+02 -0.14613437973E+02  0.57754231622E+03  0.60677124521E+03  0.17300000000E+03 0.  1.
<mgrwt>
<rscale>  2 0.18605434E+03</rscale>
<asrwt>0</asrwt>
<pdfrwt beam="1">  1       21 0.98956023E-01 0.18605434E+03</pdfrwt>
<pdfrwt beam="2">  1       21 0.28324788E-01 0.18605434E+03</pdfrwt>
<totfact> 0.10074036E+04</totfact>
</mgrwt>
</event>
<event>
 4    1  0.4332500E+000  0.2158444E+03  0.7546771E-02  0.1137020E+00
         21   -1    0    0  501  502  0.00000000000E+00  0.00000000000E+00  0.22248417425E+03  0.22248417425E+03  0.00000000000E+00 0.  1.
         21   -1    0    0  502  503 -0.00000000000E+00 -0.00000000000E+00 -0.21927481132E+03  0.21927481132E+03  0.00000000000E+00 0. -1.
          6    1    1    2  501    0  0.58551726273E+02  0.11502822862E+03  0.48471441878E+02  0.22121997809E+03  0.17300000000E+03 0.  1.
         -6    1    1    2    0  503 -0.58551726273E+02 -0.11502822862E+03 -0.45262078950E+02  0.22053900748E+03  0.17300000000E+03 0. -1.
<mgrwt>
<rscale>  2 0.21584438E+03</rscale>
<asrwt>0</asrwt>
<pdfrwt beam="1">  1       21 0.34228334E-01 0.21584438E+03</pdfrwt>
<pdfrwt beam="2">  1       21 0.33734586E-01 0.21584438E+03</pdfrwt>
<totfact> 0.68916876E+04</totfact>
</mgrwt>
</event>
<event>
 4    1  0.4332500E+000  0.1788617E+03  0.7546771E-02  0.1168909E+00
         21   -1    0    0  501  502  0.00000000000E+00  0.00000000000E+00  0.82208428291E+03  0.82208428291E+03  0.00000000000E+00 0. -1.
         21   -1    0    0  502  503 -0.00000000000E+00 -0.00000000000E+00 -0.39649228903E+02  0.39649228903E+02  0.00000000000E+00 0. -1.
          6    1    1    2  501    0  0.12723146965E+02 -0.43596110440E+02  0.44984607949E+03  0.48410019061E+03  0.17300000000E+03 0. -1.
         -6    1    1    2    0  503 -0.12723146965E+02  0.43596110440E+02  0.33258897451E+03  0.37763332120E+03  0.17300000000E+03 0. -1.
<mgrwt>
<rscale>  2 0.17886168E+03</rscale>
<asrwt>0</asrwt>
<pdfrwt beam="1">  1       21 0.12647449E+00 0.17886168E+03</pdfrwt>
<pdfrwt beam="2">  1       21 0.60998820E-02 0.17886168E+03</pdfrwt>
<totfact> 0.89349976E+04</totfact>
</mgrwt>
</event>
<event>
 4    1  0.4332500E+000  0.1955029E+03  0.7546771E-02  0.1153590E+00
         21   -1    0    0  501  502  0.00000000000E+00  0.00000000000E+00  0.92290823921E+02  0.92290823921E+02  0.00000000000E+00 0.  1.
         21   -1    0    0  502  503 -0.00000000000E+00 -0.00000000000E+00 -0.42713288321E+03  0.42713288321E+03  0.00000000000E+00 0. -1.
          6    1    1    2  501    0  0.29851400008E+02 -0.86030637404E+02 -0.12212573332E+03  0.23051262741E+03  0.17300000000E+03 0. -1.
         -6    1    1    2    0  503 -0.29851400008E+02  0.86030637404E+02 -0.21271632597E+03  0.28891107973E+03  0.17300000000E+03 0. -1.
<mgrwt>
<rscale>  2 0.19550288E+03</rscale>
<asrwt>0</asrwt>
<pdfrwt beam="1">  1       21 0.14198588E-01 0.19550288E+03</pdfrwt>
<pdfrwt beam="2">  1       21 0.65712752E-01 0.19550288E+03</pdfrwt>
<totfact> 0.92142465E+04</totfact>
</mgrwt>
</event>
<event>
 4    1  0.4332500E+000  0.2166233E+03  0.7546771E-02  0.1136426E+00
         21   -1    0    0  501  502  0.00000000000E+00  0.00000000000E+00  0.73073576431E+03  0.73073576431E+03  0.00000000000E+00 0. -1.
         21   -1    0    0  502  503 -0.00000000000E+00 -0.00000000000E+00 -0.64765893695E+02  0.64765893695E+02  0.00000000000E+00 0. -1.
          6    1    1    2  501    0  0.35083638643E+02 -0.12556183754E+03  0.36960287047E+03  0.42840625416E+03  0.17300000000E+03 0. -1.
         -6    1    1    2    0  503 -0.35083638643E+02  0.12556183754E+03  0.29636700015E+03  0.36709540384E+03  0.17300000000E+03 0. -1.
<mgrwt>
<rscale>  2 0.21662326E+03</rscale>
<asrwt>0</asrwt>
<pdfrwt beam="1">  1       21 0.11242088E+00 0.21662326E+03</pdfrwt>
<pdfrwt beam="2">  1       21 0.99639842E-02 0.21662326E+03</pdfrwt>
<totfact> 0.49975324E+04</totfact>
</mgrwt>
</event>
<event>
 4    1  0.4332500E+000  0.1968126E+03  0.7546771E-02  0.1152456E+00
         21   -1    0    0  503  502  0.00000000000E+00  0.00000000000E+00  0.27837539732E+03  0.27837539732E+03  0.00000000000E+00 0.  1.
         21   -1    0    0  501  503 -0.00000000000E+00 -0.00000000000E+00 -0.14379791364E+03  0.14379791364E+03  0.00000000000E+00 0.  1.
          6    1    1    2  501    0 -0.27732965575E+02  0.89649851369E+02  0.29327984437E+02  0.19898578819E+03  0.17300000000E+03 0.  1.
         -6    1    1    2    0  502  0.27732965575E+02 -0.89649851369E+02  0.10524949924E+03  0.22318752277E+03  0.17300000000E+03 0.  1.
<mgrwt>
<rscale>  2 0.19681263E+03</rscale>
<asrwt>0</asrwt>
<pdfrwt beam="1">  1       21 0.42826984E-01 0.19681263E+03</pdfrwt>
<pdfrwt beam="2">  1       21 0.22122756E-01 0.19681263E+03</pdfrwt>
<totfact> 0.99999764E+04</totfact>
</mgrwt>
</event>
<event>
 4    1  0.4332500E+000  0.2036014E+03  0.7546771E-02  0.1146736E+00
         21   -1    0    0  501  502  0.00000000000E+00  0.00000000000E+00  0.11490351428E+03  0.11490351428E+03  0.00000000000E+00 0. -1.
         21   -1    0    0  502  503 -0.00000000000E+00 -0.00000000000E+00 -0.39340187533E+03  0.39340187533E+03  0.00000000000E+00 0. -1.
          6    1    1    2  501    0  0.56634956261E+02  0.91197593393E+02 -0.21244905765E+03  0.29425859615E+03  0.17300000000E+03 0. -1.
         -6    1    1    2    0  503 -0.56634956261E+02 -0.91197593393E+02 -0.66049303390E+02  0.21404679346E+03  0.17300000000E+03 0. -1.
<mgrwt>
<rscale>  2 0.20360137E+03</rscale>
<asrwt>0</asrwt>
<pdfrwt beam="1">  1       21 0.17677463E-01 0.20360137E+03</pdfrwt>
<pdfrwt beam="2">  1       21 0.60523366E-01 0.20360137E+03</pdfrwt>
<totfact> 0.73471041E+04</totfact>
</mgrwt>
</event>
<event>
 4    1  0.4332500E+000  0.2595349E+03  0.7546771E-02  0.1107423E+00
         21   -1    0    0  501  502  0.00000000000E+00  0.00000000000E+00  0.75061501137E+03  0.75061501137E+03  0.00000000000E+00 0. -1.
         21   -1    0    0  502  503 -0.00000000000E+00 -0.00000000000E+00 -0.14050039831E+03  0.14050039831E+03  0.00000000000E+00 0.  1.
          6    1    1    2  501    0 -0.19324073737E+03  0.93471748948E+01  0.57287432497E+03  0.62892236760E+03  0.17300000000E+03 0. -1.
         -6    1    1    2    0  503  0.19324073737E+03 -0.93471748948E+01  0.37240288083E+02  0.26219304208E+03  0.17300000000E+03 0.  1.
<mgrwt>
<rscale>  2 0.25953488E+03</rscale>
<asrwt>0</asrwt>
<pdfrwt beam="1">  1       21 0.11547923E+00 0.25953488E+03</pdfrwt>
<pdfrwt beam="2">  1       21 0.21615446E-01 0.25953488E+03</pdfrwt>
<totfact> 0.11106896E+04</totfact>
</mgrwt>
</event>
<event>
 4    1  0.4332500E+000  0.2036700E+03  0.7546771E-02  0.1146679E+00
         21   -1    0    0  503  502  0.00000000000E+00  0.00000000000E+00  0.13421506119E+03  0.13421506119E+03  0.00000000000E+00 0. -1.
         21   -1    0    0  501  503 -0.00000000000E+00 -0.00000000000E+00 -0.93248586066E+03  0.93248586066E+03  0.00000000000E+00 0.  1.
          6    1    1    2  501    0  0.51734041249E+02 -0.94212733222E+02 -0.83523079981E+03  0.85970456500E+03  0.17300000000E+03 0.  1.
         -6    1    1    2    0  502 -0.51734041249E+02  0.94212733222E+02  0.36960000347E+02  0.20699635685E+03  0.17300000000E+03 0. -1.
<mgrwt>
<rscale>  2 0.20366995E+03</rscale>
<asrwt>0</asrwt>
<pdfrwt beam="1">  1       21 0.20648471E-01 0.20366995E+03</pdfrwt>
<pdfrwt beam="2">  1       21 0.14345936E+00 0.20366995E+03</pdfrwt>
<totfact> 0.72411359E+03</totfact>
</mgrwt>
</event>
<event>
 4    1  0.4332500E+000  0.1986652E+03  0.7546771E-02  0.1150870E+00
         21   -1    0    0  501  502  0.00000000000E+00  0.00000000000E+00  0.53149739645E+03  0.53149739645E+03  0.00000000000E+00 0.  1.
         21   -1    0    0  502  503 -0.00000000000E+00 -0.00000000000E+00 -0.82841516114E+02  0.82841516114E+02  0.00000000000E+00 0.  1.
          6    1    1    2  501    0 -0.96634707060E+02 -0.14162951209E+02  0.32320381283E+03  0.37937917764E+03  0.17300000000E+03 0.  1.
         -6    1    1    2    0  503  0.96634707060E+02  0.14162951209E+02  0.12545206750E+03  0.23495973493E+03  0.17300000000E+03 0.  1.
<mgrwt>
<rscale>  2 0.19866519E+03</rscale>
<asrwt>0</asrwt>
<pdfrwt beam="1">  1       21 0.81768828E-01 0.19866519E+03</pdfrwt>
<pdfrwt beam="2">  1       21 0.12744849E-01 0.19866519E+03</pdfrwt>
<totfact> 0.68755486E+04</totfact>
</mgrwt>
</event>
<event>
 4    1  0.4332500E+000  0.2218055E+03  0.7546771E-02  0.1132544E+00
         21   -1    0    0  503  502  0.00000000000E+00  0.00000000000E+00  0.50490796608E+03  0.50490796608E+03  0.00000000000E+00 0. -1.
         21   -1    0    0  501  503 -0.00000000000E+00 -0.00000000000E+00 -0.97500371015E+02  0.97500371015E+02  0.00000000000E+00 0.  1.
          6    1    1    2  501    0 -0.59647249298E+02 -0.12534298759E+03  0.19613863201E+03  0.29608786172E+03  0.17300000000E+03 0. -1.
         -6    1    1    2    0  502  0.59647249298E+02  0.12534298759E+03  0.21126896306E+03  0.30632047538E+03  0.17300000000E+03 0. -1.
<mgrwt>
<rscale>  2 0.22180545E+03</rscale>
<asrwt>0</asrwt>
<pdfrwt beam="1">  1       21 0.77678147E-01 0.22180545E+03</pdfrwt>
<pdfrwt beam="2">  1       21 0.15000057E-01 0.22180545E+03</pdfrwt>
<totfact> 0.56874393E+04</totfact>
</mgrwt>
</event>
<event>
 4    1  0.4332500E+000  0.1899134E+03  0.7546771E-02  0.1158539E+00
         21   -1    0    0  501  502  0.00000000000E+00  0.00000000000E+00  0.13470507273E+03  0.13470507273E+03  0.00000000000E+00 0. -1.
         21   -1    0    0  502  503 -0.00000000000E+00 -0.00000000000E+00 -0.33319386449E+03  0.33319386449E+03  0.00000000000E+00 0.  1.
          6    1    1    2  501    0 -0.62207547300E+02  0.47626856557E+02  0.44398170561E+01  0.18996528204E+03  0.17300000000E+03 0. -1.
         -6    1    1    2    0  503  0.62207547300E+02 -0.47626856557E+02 -0.20292860881E+03  0.27793365518E+03  0.17300000000E+03 0.  1.
<mgrwt>
<rscale>  2 0.18991339E+03</rscale>
<asrwt>0</asrwt>
<pdfrwt beam="1">  1       21 0.20723857E-01 0.18991339E+03</pdfrwt>
<pdfrwt beam="2">  1       21 0.51260594E-01 0.18991339E+03</pdfrwt>
<totfact> 0.78214404E+04</totfact>
</mgrwt>
</event>
<event>
 4    1  0.4332500E+000  0.2469875E+03  0.7546771E-02  0.1115224E+00
         21   -1    0    0  501  502  0.00000000000E+00  0.00000000000E+00  0.27018949094E+03  0.27018949094E+03  0.00000000000E+00 0.  1.
         21   -1    0    0  502  503 -0.00000000000E+00 -0.00000000000E+00 -0.22635756191E+03  0.22635756191E+03  0.00000000000E+00 0. -1.
          6    1    1    2  501    0  0.57602511035E+01 -0.17618362065E+03  0.34478427425E+02  0.24938245856E+03  0.17300000000E+03 0.  1.
         -6    1    1    2    0  503 -0.57602511035E+01  0.17618362065E+03  0.93535016046E+01  0.24716459429E+03  0.17300000000E+03 0. -1.
<mgrwt>
<rscale>  2 0.24698755E+03</rscale>
<asrwt>0</asrwt>
<pdfrwt beam="1">  1       21 0.41567614E-01 0.24698755E+03</pdfrwt>
<pdfrwt beam="2">  1       21 0.34824240E-01 0.24698755E+03</pdfrwt>
<totfact> 0.43190648E+04</totfact>
</mgrwt>
</event>
<event>
 4    1  0.4332500E+000  0.2015523E+03  0.7546771E-02  0.1148436E+00
         21   -1    0    0  501  502  0.00000000000E+00  0.00000000000E+00  0.37650720143E+03  0.37650720143E+03  0.00000000000E+00 0.  1.
         21   -1    0    0  502  503 -0.00000000000E+00 -0.00000000000E+00 -0.20724644343E+03  0.20724644343E+03  0.00000000000E+00 0. -1.
          6    1    1    2  501    0 -0.72897319848E+02 -0.73350617057E+02  0.28671936627E+03  0.35047300503E+03  0.17300000000E+03 0.  1.
         -6    1    1    2    0  503  0.72897319848E+02  0.73350617057E+02 -0.11745860827E+03  0.23328063983E+03  0.17300000000E+03 0. -1.
<mgrwt>
<rscale>  2 0.20155231E+03</rscale>
<asrwt>0</asrwt>
<pdfrwt beam="1">  1       21 0.57924185E-01 0.20155231E+03</pdfrwt>
<pdfrwt beam="2">  1       21 0.31884068E-01 0.20155231E+03</pdfrwt>
<totfact> 0.26296963E+04</totfact>
</mgrwt>
</event>
<event>
 4    1  0.4332500E+000  0.2272351E+03  0.7546771E-02  0.1128601E+00
         21   -1    0    0  501  502  0.00000000000E+00  0.00000000000E+00  0.10870442487E+04  0.10870442487E+04  0.00000000000E+00 0. -1.
         21   -1    0    0  502  503 -0.00000000000E+00 -0.00000000000E+00 -0.54530550672E+02  0.54530550672E+02  0.00000000000E+00 0.  1.
          6    1    1    2  501    0  0.28206481318E+02  0.14460696921E+03  0.72119159429E+03  0.75614356891E+03  0.17300000000E+03 0.  1.
         -6    1    1    2    0  503 -0.28206481318E+02 -0.14460696921E+03  0.31132210369E+03  0.38543123041E+03  0.17300000000E+03 0.  1.
<mgrwt>
<rscale>  2 0.22723508E+03</rscale>
<asrwt>0</asrwt>
<pdfrwt beam="1">  1       21 0.16723756E+00 0.22723508E+03</pdfrwt>
<pdfrwt beam="2">  1       21 0.83893163E-02 0.22723508E+03</pdfrwt>
<totfact> 0.24107835E+04</totfact>
</mgrwt>
</event>
<event>
 4    1  0.4332500E+000  0.1770900E+03  0.7546771E-02  0.1170649E+00
         21   -1    0    0  503  502  0.00000000000E+00  0.00000000000E+00  0.16211115898E+03  0.16211115898E+03  0.00000000000E+00 0. -1.
         21   -1    0    0  501  503 -0.00000000000E+00 -0.00000000000E+00 -0.27817109709E+03  0.27817109709E+03  0.00000000000E+00 0. -1.
          6    1    1    2  501    0  0.26472879241E+02  0.27038024392E+02 -0.17951803797E+03  0.25216580667E+03  0.17300000000E+03 0. -1.
         -6    1    1    2    0  502 -0.26472879241E+02 -0.27038024392E+02  0.63458099863E+02  0.18811644940E+03  0.17300000000E+03 0. -1.
<mgrwt>
<rscale>  2 0.17709000E+03</rscale>
<asrwt>0</asrwt>
<pdfrwt beam="1">  1       21 0.24940179E-01 0.17709000E+03</pdfrwt>
<pdfrwt beam="2">  1       21 0.42795553E-01 0.17709000E+03</pdfrwt>
<totfact> 0.80419252E+04</totfact>
</mgrwt>
</event>
<event>
 4    1  0.4332500E+000  0.1793947E+03  0.7546771E-02  0.1168390E+00
         21   -1    0    0  503  502  0.00000000000E+00  0.00000000000E+00  0.28845131556E+03  0.28845131556E+03  0.00000000000E+00 0. -1.
         21   -1    0    0  501  503 -0.00000000000E+00 -0.00000000000E+00 -0.52139175203E+03  0.52139175203E+03  0.00000000000E+00 0. -1.
          6    1    1    2  501    0  0.13379613109E+02  0.45546207022E+02 -0.47546354471E+03  0.50818112260E+03  0.17300000000E+03 0. -1.
         -6    1    1    2    0  502 -0.13379613109E+02 -0.45546207022E+02  0.24252310824E+03  0.30166194499E+03  0.17300000000E+03 0. -1.
<mgrwt>
<rscale>  2 0.17939474E+03</rscale>
<asrwt>0</asrwt>
<pdfrwt beam="1">  1       21 0.44377125E-01 0.17939474E+03</pdfrwt>
<pdfrwt beam="2">  1       21 0.80214116E-01 0.17939474E+03</pdfrwt>
<totfact> 0.67330422E+03</totfact>
</mgrwt>
</event>
<event>
 4    1  0.4332500E+000  0.2154394E+03  0.7546771E-02  0.1137330E+00
         21   -1    0    0  503  502  0.00000000000E+00  0.00000000000E+00  0.19799416216E+03  0.19799416216E+03  0.00000000000E+00 0.  1.
         21   -1    0    0  501  503 -0.00000000000E+00 -0.00000000000E+00 -0.30946683744E+03  0.30946683744E+03  0.00000000000E+00 0. -1.
          6    1    1    2  501    0 -0.11453094367E+03 -0.58032731400E+02 -0.18068361427E+03  0.28117735228E+03  0.17300000000E+03 0. -1.
         -6    1    1    2    0  502  0.11453094367E+03  0.58032731400E+02  0.69210938989E+02  0.22628364732E+03  0.17300000000E+03 0.  1.
<mgrwt>
<rscale>  2 0.21543940E+03</rscale>
<asrwt>0</asrwt>
<pdfrwt beam="1">  1       21 0.30460640E-01 0.21543940E+03</pdfrwt>
<pdfrwt beam="2">  1       21 0.47610283E-01 0.21543940E+03</pdfrwt>
<totfact> 0.43146816E+04</totfact>
</mgrwt>
</event>
<event>
 4    1  0.4332500E+000  0.1965479E+03  0.7546771E-02  0.1152685E+00
         21   -1    0    0  503  502  0.00000000000E+00  0.00000000000E+00  0.11800365997E+04  0.11800365997E+04  0.00000000000E+00 0. -1.
         21   -1    0    0  501  503 -0.00000000000E+00 -0.00000000000E+00 -0.39455804804E+02  0.39455804804E+02  0.00000000000E+00 0.  1.
          6    1    1    2  501    0  0.92241520037E+02  0.13913744561E+02  0.31867726484E+03  0.37441459564E+03  0.17300000000E+03 0. -1.
         -6    1    1    2    0  502 -0.92241520037E+02 -0.13913744561E+02  0.82190353003E+03  0.84507780884E+03  0.17300000000E+03 0. -1.
<mgrwt>
<rscale>  2 0.19654793E+03</rscale>
<asrwt>0</asrwt>
<pdfrwt beam="1">  1       21 0.18154407E+00 0.19654793E+03</pdfrwt>
<pdfrwt beam="2">  1       21 0.60701247E-02 0.19654793E+03</pdfrwt>
<totfact> 0.34244780E+04</totfact>
</mgrwt>
</event>
<event>
 4    1  0.4332500E+000  0.1807137E+03  0.7546771E-02  0.1167114E+00
         21   -1    0    0  501  502  0.00000000000E+00  0.00000000000E+00  0.97820833211E+03  0.97820833211E+03  0.00000000000E+00 0. -1.
         21   -1    0    0  502  503 -0.00000000000E+00 -0.00000000000E+00 -0.56143494112E+02  0.56143494112E+02  0.00000000000E+00 0. -1.
          6    1    1    2  501    0  0.48963665849E+02 -0.18193577411E+02  0.79030889570E+03  0.81070685051E+03  0.17300000000E+03 0. -1.
         -6    1    1    2    0  503 -0.48963665849E+02  0.18193577411E+02  0.13175594230E+03  0.22364497572E+03  0.17300000000E+03 0. -1.
<mgrwt>
<rscale>  2 0.18071372E+03</rscale>
<asrwt>0</asrwt>
<pdfrwt beam="1">  1       21 0.15049358E+00 0.18071372E+03</pdfrwt>
<pdfrwt beam="2">  1       21 0.86374614E-02 0.18071372E+03</pdfrwt>
<totfact> 0.31338775E+04</totfact>
</mgrwt>
</event>
<event>
 4    1  0.4332500E+000  0.1863696E+03  0.7546771E-02  0.1161777E+00
         21   -1    0    0  501  502  0.00000000000E+00  0.00000000000E+00  0.80200708916E+03  0.80200708916E+03  0.00000000000E+00 0.  1.
         21   -1    0    0  502  503 -0.00000000000E+00 -0.00000000000E+00 -0.70635062971E+02  0.70635062971E+02  0.00000000000E+00 0.  1.
          6    1    1    2  501    0 -0.14541931172E+02  0.67772812621E+02  0.63707332593E+03  0.66377409147E+03  0.17300000000E+03 0.  1.
         -6    1    1    2    0  503  0.14541931172E+02 -0.67772812621E+02  0.94298700250E+02  0.20886806065E+03  0.17300000000E+03 0.  1.
<mgrwt>
<rscale>  2 0.18636958E+03</rscale>
<asrwt>0</asrwt>
<pdfrwt beam="1">  1       21 0.12338570E+00 0.18636958E+03</pdfrwt>
<pdfrwt beam="2">  1       21 0.10866933E-01 0.18636958E+03</pdfrwt>
<totfact> 0.34633031E+04</totfact>
</mgrwt>
</event>
<event>
 4    1  0.4332500E+000  0.1817625E+03  0.7546771E-02  0.1166108E+00
         21   -1    0    0  501  502  0.00000000000E+00  0.00000000000E+00  0.10235237900E+04  0.10235237900E+04  0.00000000000E+00 0. -1.
         21   -1    0    0  502  503 -0.00000000000E+00 -0.00000000000E+00 -0.34433813194E+02  0.34433813194E+02  0.00000000000E+00 0. -1.
          6    1    1    2  501    0  0.79700196688E+01  0.55182236808E+02  0.62689433078E+03  0.65271287902E+03  0.17300000000E+03 0. -1.
         -6    1    1    2    0  503 -0.79700196688E+01 -0.55182236808E+02  0.36219564603E+03  0.40524472418E+03  0.17300000000E+03 0. -1.
<mgrwt>
<rscale>  2 0.18176248E+03</rscale>
<asrwt>0</asrwt>
<pdfrwt beam="1">  1       21 0.15746518E+00 0.18176248E+03</pdfrwt>
<pdfrwt beam="2">  1       21 0.52975105E-02 0.18176248E+03</pdfrwt>
<totfact> 0.64448310E+04</totfact>
</mgrwt>
</event>
<event>
 4    1  0.4332500E+000  0.1957639E+03  0.7546771E-02  0.1153363E+00
         21   -1    0    0  501  502  0.00000000000E+00  0.00000000000E+00  0.12671738776E+03  0.12671738776E+03  0.00000000000E+00 0.  1.
         21   -1    0    0  502  503 -0.00000000000E+00 -0.00000000000E+00 -0.34067657322E+03  0.34067657322E+03  0.00000000000E+00 0.  1.
          6    1    1    2  501    0 -0.79002957900E+02 -0.46400636634E+02 -0.28679425534E+02  0.19785347075E+03  0.17300000000E+03 0. -1.
         -6    1    1    2    0  503  0.79002957900E+02  0.46400636634E+02 -0.18527975993E+03  0.26954049023E+03  0.17300000000E+03 0. -1.
<mgrwt>
<rscale>  2 0.19576385E+03</rscale>
<asrwt>0</asrwt>
<pdfrwt beam="1">  1       21 0.19494983E-01 0.19576385E+03</pdfrwt>
<pdfrwt beam="2">  1       21 0.52411781E-01 0.19576385E+03</pdfrwt>
<totfact> 0.83486767E+04</totfact>
</mgrwt>
</event>
<event>
 4    1  0.4332500E+000  0.1883949E+03  0.7546771E-02  0.1159917E+00
         21   -1    0    0  503  502  0.00000000000E+00  0.00000000000E+00  0.50332075598E+03  0.50332075598E+03  0.00000000000E+00 0. -1.
         21   -1    0    0  501  503 -0.00000000000E+00 -0.00000000000E+00 -0.90427096334E+02  0.90427096334E+02  0.00000000000E+00 0. -1.
          6    1    1    2  501    0 -0.51766304148E+02  0.53701895821E+02  0.67143978809E+02  0.20000239436E+03  0.17300000000E+03 0. -1.
         -6    1    1    2    0  502  0.51766304148E+02 -0.53701895821E+02  0.34574968084E+03  0.39374545795E+03  0.17300000000E+03 0. -1.
<mgrwt>
<rscale>  2 0.18839491E+03</rscale>
<asrwt>0</asrwt>
<pdfrwt beam="1">  1       21 0.77433961E-01 0.18839491E+03</pdfrwt>
<pdfrwt beam="2">  1       21 0.13911861E-01 0.18839491E+03</pdfrwt>
<totfact> 0.66698089E+04</totfact>
</mgrwt>
</event>
<event>
 4    1  0.4332500E+000  0.2167776E+03  0.7546771E-02  0.1136309E+00
         21   -1    0    0  503  502  0.00000000000E+00  0.00000000000E+00  0.28783060170E+03  0.28783060170E+03  0.00000000000E+00 0. -1.
         21   -1    0    0  501  503 -0.00000000000E+00 -0.00000000000E+00 -0.24212965095E+03  0.24212965095E+03  0.00000000000E+00 0. -1.
          6    1    1    2  501    0 -0.12601669210E+03  0.34399186761E+02 -0.12837744011E+03  0.25193903601E+03  0.17300000000E+03 0. -1.
         -6    1    1    2    0  502  0.12601669210E+03 -0.34399186761E+02  0.17407839087E+03  0.27802121664E+03  0.17300000000E+03 0. -1.
<mgrwt>
<rscale>  2 0.21677756E+03</rscale>
<asrwt>0</asrwt>
<pdfrwt beam="1">  1       21 0.44281631E-01 0.21677756E+03</pdfrwt>
<pdfrwt beam="2">  1       21 0.37250716E-01 0.21677756E+03</pdfrwt>
<totfact> 0.33613438E+04</totfact>
</mgrwt>
</event>
<event>
 4    1  0.4332500E+000  0.1788918E+03  0.7546771E-02  0.1168880E+00
         21   -1    0    0  501  502  0.00000000000E+00  0.00000000000E+00  0.26391353574E+03  0.26391353574E+03  0.00000000000E+00 0.  1.
         21   -1    0    0  502  503 -0.00000000000E+00 -0.00000000000E+00 -0.15693912578E+03  0.15693912578E+03  0.00000000000E+00 0.  1.
          6    1    1    2  501    0 -0.43037786582E+02  0.14866804263E+02  0.15381906376E+03  0.23592917861E+03  0.17300000000E+03 0.  1.
         -6    1    1    2    0  503  0.43037786582E+02 -0.14866804263E+02 -0.46844653796E+02  0.18492348291E+03  0.17300000000E+03 0.  1.
<mgrwt>
<rscale>  2 0.17889179E+03</rscale>
<asrwt>0</asrwt>
<pdfrwt beam="1">  1       21 0.40602082E-01 0.17889179E+03</pdfrwt>
<pdfrwt beam="2">  1       21 0.24144481E-01 0.17889179E+03</pdfrwt>
<totfact> 0.95095117E+04</totfact>
</mgrwt>
</event>
<event>
 4    1  0.4332500E+000  0.2444594E+03  0.7546771E-02  0.1116857E+00
         21   -1    0    0  501  502  0.00000000000E+00  0.00000000000E+00  0.86569406550E+03  0.86569406550E+03  0.00000000000E+00 0. -1.
         21   -1    0    0  502  503 -0.00000000000E+00 -0.00000000000E+00 -0.71080230903E+02  0.71080230903E+02  0.00000000000E+00 0.  1.
          6    1    1    2  501    0 -0.16821479241E+03  0.39181258817E+02  0.47682120137E+03  0.53583471846E+03  0.17300000000E+03 0. -1.
         -6    1    1    2    0  503  0.16821479241E+03 -0.39181258817E+02  0.31779263323E+03  0.40093957794E+03  0.17300000000E+03 0.  1.
<mgrwt>
<rscale>  2 0.24445938E+03</rscale>
<asrwt>0</asrwt>
<pdfrwt beam="1">  1       21 0.13318369E+00 0.24445938E+03</pdfrwt>
<pdfrwt beam="2">  1       21 0.10935421E-01 0.24445938E+03</pdfrwt>
<totfact> 0.27343876E+04</totfact>
</mgrwt>
</event>
<event>
 4    1  0.4332500E+000  0.1839332E+03  0.7546771E-02  0.1164050E+00
         21   -1    0    0  503  502  0.00000000000E+00  0.00000000000E+00  0.87469862335E+03  0.87469862335E+03  0.00000000000E+00 0. -1.
         21   -1    0    0  501  503 -0.00000000000E+00 -0.00000000000E+00 -0.56035489778E+02  0.56035489778E+02  0.00000000000E+00 0. -1.
          6    1    1    2  501    0  0.39935985549E+02 -0.48036746778E+02  0.66833773282E+03  0.69318593255E+03  0.17300000000E+03 0. -1.
         -6    1    1    2    0  502 -0.39935985549E+02  0.48036746778E+02  0.15032540076E+03  0.23754818058E+03  0.17300000000E+03 0. -1.
<mgrwt>
<rscale>  2 0.18393317E+03</rscale>
<asrwt>0</asrwt>
<pdfrwt beam="1">  1       21 0.13456901E+00 0.18393317E+03</pdfrwt>
<pdfrwt beam="2">  1       21 0.86208452E-02 0.18393317E+03</pdfrwt>
<totfact> 0.41918840E+04</totfact>
</mgrwt>
</event>
<event>
 4    1  0.4332500E+000  0.2738221E+03  0.7546771E-02  0.1099112E+00
         21   -1    0    0  503  502  0.00000000000E+00  0.00000000000E+00  0.26395158461E+03  0.26395158461E+03  0.00000000000E+00 0.  1.
         21   -1    0    0  501  503 -0.00000000000E+00 -0.00000000000E+00 -0.50237339905E+03  0.50237339905E+03  0.00000000000E+00 0.  1.
          6    1    1    2  501    0  0.19523806813E+03 -0.83256584333E+02 -0.37179621040E+03  0.46174774948E+03  0.17300000000E+03 0.  1.
         -6    1    1    2    0  502 -0.19523806813E+03  0.83256584333E+02  0.13337439596E+03  0.30457723418E+03  0.17300000000E+03 0.  1.
<mgrwt>
<rscale>  2 0.27382214E+03</rscale>
<asrwt>0</asrwt>
<pdfrwt beam="1">  1       21 0.40607937E-01 0.27382214E+03</pdfrwt>
<pdfrwt beam="2">  1       21 0.77288214E-01 0.27382214E+03</pdfrwt>
<totfact> 0.82610880E+03</totfact>
</mgrwt>
</event>
<event>
 4    1  0.4332500E+000  0.2385154E+03  0.7546771E-02  0.1120786E+00
         21   -1    0    0  501  502  0.00000000000E+00  0.00000000000E+00  0.80756907805E+02  0.80756907805E+02  0.00000000000E+00 0. -1.
         21   -1    0    0  502  503 -0.00000000000E+00 -0.00000000000E+00 -0.90116946076E+03  0.90116946076E+03  0.00000000000E+00 0. -1.
          6    1    1    2  501    0  0.15652092253E+03  0.49616596347E+02 -0.18082188637E+03  0.29930947264E+03  0.17300000000E+03 0. -1.
         -6    1    1    2    0  503 -0.15652092253E+03 -0.49616596347E+02 -0.63959066658E+03  0.68261689592E+03  0.17300000000E+03 0. -1.
<mgrwt>
<rscale>  2 0.23851542E+03</rscale>
<asrwt>0</asrwt>
<pdfrwt beam="1">  1       21 0.12424139E-01 0.23851542E+03</pdfrwt>
<pdfrwt beam="2">  1       21 0.13864146E+00 0.23851542E+03</pdfrwt>
<totfact> 0.19671240E+04</totfact>
</mgrwt>
</event>
<event>
 4    1  0.4332500E+000  0.2244409E+03  0.7546771E-02  0.1130615E+00
         21   -1    0    0  501  502  0.00000000000E+00  0.00000000000E+00  0.24668856576E+03  0.24668856576E+03  0.00000000000E+00 0. -1.
         21   -1    0    0  502  503 -0.00000000000E+00 -0.00000000000E+00 -0.21433231696E+03  0.21433231696E+03  0.00000000000E+00 0. -1.
          6    1    1    2  501    0  0.49168079374E+02 -0.13426539912E+03  0.66298060944E+02  0.23402805455E+03  0.17300000000E+03 0. -1.
         -6    1    1    2    0  503 -0.49168079374E+02  0.13426539912E+03 -0.33941812147E+02  0.22699282817E+03  0.17300000000E+03 0. -1.
<mgrwt>
<rscale>  2 0.22444086E+03</rscale>
<asrwt>0</asrwt>
<pdfrwt beam="1">  1       21 0.37952087E-01 0.22444086E+03</pdfrwt>
<pdfrwt beam="2">  1       21 0.32974203E-01 0.22444086E+03</pdfrwt>
<totfact> 0.58440900E+04</totfact>
</mgrwt>
</event>
<event>
 4    1  0.4332500E+000  0.2090839E+03  0.7546771E-02  0.1142293E+00
         21   -1    0    0  501  502  0.00000000000E+00  0.00000000000E+00  0.56307309661E+02  0.56307309661E+02  0.00000000000E+00 0. -1.
         21   -1    0    0  502  503 -0.00000000000E+00 -0.00000000000E+00 -0.16724684899E+04  0.16724684899E+04  0.00000000000E+00 0.  1.
          6    1    1    2  501    0  0.10243926471E+03 -0.57387150667E+02 -0.17537129627E+03  0.27289408123E+03  0.17300000000E+03 0. -1.
         -6    1    1    2    0  503 -0.10243926471E+03  0.57387150667E+02 -0.14407898839E+04  0.14558817183E+04  0.17300000000E+03 0.  1.
<mgrwt>
<rscale>  2 0.20908393E+03</rscale>
<asrwt>0</asrwt>
<pdfrwt beam="1">  1       21 0.86626629E-02 0.20908393E+03</pdfrwt>
<pdfrwt beam="2">  1       21 0.25730285E+00 0.20908393E+03</pdfrwt>
<totfact> 0.61903746E+03</totfact>
</mgrwt>
</event>
<event>
 4    1  0.4332500E+000  0.1889721E+03  0.7546771E-02  0.1159392E+00
         21   -1    0    0  501  502  0.00000000000E+00  0.00000000000E+00  0.24901551133E+03  0.24901551133E+03  0.00000000000E+00 0.  1.
         21   -1    0    0  502  503 -0.00000000000E+00 -0.00000000000E+00 -0.14371756794E+03  0.14371756794E+03  0.00000000000E+00 0.  1.
          6    1    1    2  501    0  0.63675667754E+02  0.41555539867E+02  0.61784010122E+02  0.19881578776E+03  0.17300000000E+03 0. -1.
         -6    1    1    2    0  503 -0.63675667754E+02 -0.41555539867E+02  0.43513933266E+02  0.19391729151E+03  0.17300000000E+03 0. -1.
<mgrwt>
<rscale>  2 0.18897210E+03</rscale>
<asrwt>0</asrwt>
<pdfrwt beam="1">  1       21 0.38310079E-01 0.18897210E+03</pdfrwt>
<pdfrwt beam="2">  1       21 0.22110395E-01 0.18897210E+03</pdfrwt>
<totfact> 0.12580301E+05</totfact>
</mgrwt>
</event>
<event>
 4    1  0.4332500E+000  0.1888546E+03  0.7546771E-02  0.1159498E+00
         21   -1    0    0  501  502  0.00000000000E+00  0.00000000000E+00  0.73537426249E+03  0.73537426249E+03  0.00000000000E+00 0. -1.
         21   -1    0    0  502  503 -0.00000000000E+00 -0.00000000000E+00 -0.22771924133E+03  0.22771924133E+03  0.00000000000E+00 0. -1.
          6    1    1    2  501    0 -0.71034236347E+02  0.26290593851E+02  0.68102652444E+03  0.70672709375E+03  0.17300000000E+03 0. -1.
         -6    1    1    2    0  503  0.71034236347E+02 -0.26290593851E+02 -0.17337150328E+03  0.25636641006E+03  0.17300000000E+03 0. -1.
<mgrwt>
<rscale>  2 0.18885460E+03</rscale>
<asrwt>0</asrwt>
<pdfrwt beam="1">  1       21 0.11313450E+00 0.18885460E+03</pdfrwt>
<pdfrwt beam="2">  1       21 0.35033730E-01 0.18885460E+03</pdfrwt>
<totfact> 0.48065983E+03</totfact>
</mgrwt>
</event>
<event>
 4    1  0.4332500E+000  0.1789537E+03  0.7546771E-02  0.1168819E+00
         21   -1    0    0  501  502  0.00000000000E+00  0.00000000000E+00  0.72681837270E+02  0.72681837270E+02  0.00000000000E+00 0. -1.
         21   -1    0    0  502  503 -0.00000000000E+00 -0.00000000000E+00 -0.20738040365E+04  0.20738040365E+04  0.00000000000E+00 0. -1.
          6    1    1    2  501    0  0.44550024362E+02  0.10522952611E+02 -0.48131455787E+02  0.18531344862E+03  0.17300000000E+03 0. -1.
         -6    1    1    2    0  503 -0.44550024362E+02 -0.10522952611E+02 -0.19529907434E+04  0.19611724251E+04  0.17300000000E+03 0. -1.
<mgrwt>
<rscale>  2 0.17895373E+03</rscale>
<asrwt>0</asrwt>
<pdfrwt beam="1">  1       21 0.11181823E-01 0.17895373E+03</pdfrwt>
<pdfrwt beam="2">  1       21 0.31904672E+00 0.17895373E+03</pdfrwt>
<totfact> 0.17980813E+03</totfact>
</mgrwt>
</event>
<event>
 4    1  0.4332500E+000  0.2044687E+03  0.7546771E-02  0.1146023E+00
         21   -1    0    0  501  502  0.00000000000E+00  0.00000000000E+00  0.52487191065E+02  0.52487191065E+02  0.00000000000E+00 0. -1.
         21   -1    0    0  502  503 -0.00000000000E+00 -0.00000000000E+00 -0.10245944296E+04  0.10245944296E+04  0.00000000000E+00 0.  1.
          6    1    1    2  501    0  0.34210533966E+01  0.10893463391E+03 -0.23197133744E+03  0.30922186124E+03  0.17300000000E+03 0. -1.
         -6    1    1    2    0  503 -0.34210533966E+01 -0.10893463391E+03 -0.74013590111E+03  0.76785975945E+03  0.17300000000E+03 0.  1.
<mgrwt>
<rscale>  2 0.20446872E+03</rscale>
<asrwt>0</asrwt>
<pdfrwt beam="1">  1       21 0.80749530E-02 0.20446872E+03</pdfrwt>
<pdfrwt beam="2">  1       21 0.15762990E+00 0.20446872E+03</pdfrwt>
<totfact> 0.30704271E+04</totfact>
</mgrwt>
</event>
<event>
 4    1  0.4332500E+000  0.1935811E+03  0.7546771E-02  0.1155271E+00
         21   -1    0    0  503  502  0.00000000000E+00  0.00000000000E+00  0.50899871577E+03  0.50899871577E+03  0.00000000000E+00 0. -1.
         21   -1    0    0  501  503 -0.00000000000E+00 -0.00000000000E+00 -0.12994474802E+03  0.12994474802E+03  0.00000000000E+00 0. -1.
          6    1    1    2  501    0 -0.79375300128E+02  0.35273029687E+02 -0.20799551856E+02  0.19469526510E+03  0.17300000000E+03 0. -1.
         -6    1    1    2    0  502  0.79375300128E+02 -0.35273029687E+02  0.39985351961E+03  0.44424819868E+03  0.17300000000E+03 0. -1.
<mgrwt>
<rscale>  2 0.19358106E+03</rscale>
<asrwt>0</asrwt>
<pdfrwt beam="1">  1       21 0.78307494E-01 0.19358106E+03</pdfrwt>
<pdfrwt beam="2">  1       21 0.19991500E-01 0.19358106E+03</pdfrwt>
<totfact> 0.33327846E+04</totfact>
</mgrwt>
</event>
<event>
 4    1  0.4332500E+000  0.2946391E+03  0.7546771E-02  0.1087952E+00
         21   -1    0    0  501  502  0.00000000000E+00  0.00000000000E+00  0.13245302448E+03  0.13245302448E+03  0.00000000000E+00 0.  1.
         21   -1    0    0  502  503 -0.00000000000E+00 -0.00000000000E+00 -0.65543008337E+03  0.65543008337E+03  0.00000000000E+00 0. -1.
          6    1    1    2  501    0 -0.41482187227E+02  0.23486676787E+03 -0.25983669122E+03  0.39284510511E+03  0.17300000000E+03 0.  1.
         -6    1    1    2    0  503  0.41482187227E+02 -0.23486676787E+03 -0.26314036767E+03  0.39503800274E+03  0.17300000000E+03 0. -1.
<mgrwt>
<rscale>  2 0.29463905E+03</rscale>
<asrwt>0</asrwt>
<pdfrwt beam="1">  1       21 0.20377389E-01 0.29463905E+03</pdfrwt>
<pdfrwt beam="2">  1       21 0.10083540E+00 0.29463905E+03</pdfrwt>
<totfact> 0.16994540E+04</totfact>
</mgrwt>
</event>
<event>
 4    1  0.4332500E+000  0.1820077E+03  0.7546771E-02  0.1165874E+00
         21   -1    0    0  503  502  0.00000000000E+00  0.00000000000E+00  0.11447042120E+04  0.11447042120E+04  0.00000000000E+00 0. -1.
         21   -1    0    0  501  503 -0.00000000000E+00 -0.00000000000E+00 -0.48119107003E+02  0.48119107003E+02  0.00000000000E+00 0. -1.
          6    1    1    2  501    0 -0.11423354532E+02 -0.55383219563E+02  0.17175274892E+03  0.25025147512E+03  0.17300000000E+03 0. -1.
         -6    1    1    2    0  502  0.11423354532E+02  0.55383219563E+02  0.92483235609E+03  0.94257184390E+03  0.17300000000E+03 0. -1.
<mgrwt>
<rscale>  2 0.18200768E+03</rscale>
<asrwt>0</asrwt>
<pdfrwt beam="1">  1       21 0.17610832E+00 0.18200768E+03</pdfrwt>
<pdfrwt beam="2">  1       21 0.74029404E-02 0.18200768E+03</pdfrwt>
<totfact> 0.26760508E+04</totfact>
</mgrwt>
</event>
<event>
 4    1  0.4332500E+000  0.2278796E+03  0.7546771E-02  0.1128141E+00
         21   -1    0    0  501  502  0.00000000000E+00  0.00000000000E+00  0.56646309052E+03  0.56646309052E+03  0.00000000000E+00 0. -1.
         21   -1    0    0  502  503 -0.00000000000E+00 -0.00000000000E+00 -0.28805900201E+03  0.28805900201E+03  0.00000000000E+00 0. -1.
          6    1    1    2  501    0  0.11301557510E+03 -0.96060267669E+02  0.49198563501E+03  0.54219826660E+03  0.17300000000E+03 0. -1.
         -6    1    1    2    0  503 -0.11301557510E+03  0.96060267669E+02 -0.21358154650E+03  0.31232382593E+03  0.17300000000E+03 0. -1.
<mgrwt>
<rscale>  2 0.22787956E+03</rscale>
<asrwt>0</asrwt>
<pdfrwt beam="1">  1       21 0.87148167E-01 0.22787956E+03</pdfrwt>
<pdfrwt beam="2">  1       21 0.44316770E-01 0.22787956E+03</pdfrwt>
<totfact> 0.53916205E+03</totfact>
</mgrwt>
</event>
<event>
 4    1  0.4332500E+000  0.1969107E+03  0.7546771E-02  0.1152372E+00
         21   -1    0    0  503  502  0.00000000000E+00  0.00000000000E+00  0.33985934470E+03  0.33985934470E+03  0.00000000000E+00 0.  1.
         21   -1    0    0  501  503 -0.00000000000E+00 -0.00000000000E+00 -0.17725762203E+03  0.17725762203E+03  0.00000000000E+00 0.  1.
          6    1    1    2  501    0  0.70824713684E+02  0.61876376476E+02 -0.73050671109E+02  0.21002434760E+03  0.17300000000E+03 0.  1.
         -6    1    1    2    0  502 -0.70824713684E+02 -0.61876376476E+02  0.23565239378E+03  0.30709261914E+03  0.17300000000E+03 0.  1.
<mgrwt>
<rscale>  2 0.19691071E+03</rscale>
<asrwt>0</asrwt>
<pdfrwt beam="1">  1       21 0.52286053E-01 0.19691071E+03</pdfrwt>
<pdfrwt beam="2">  1       21 0.27270403E-01 0.19691071E+03</pdfrwt>
<totfact> 0.44396139E+04</totfact>
</mgrwt>
</event>
<event>
 4    1  0.4332500E+000  0.2083898E+03  0.7546771E-02  0.1142847E+00
         21   -1    0    0  501  502  0.00000000000E+00  0.00000000000E+00  0.90500791420E+02  0.90500791420E+02  0.00000000000E+00 0.  1.
         21   -1    0    0  502  503 -0.00000000000E+00 -0.00000000000E+00 -0.67088831834E+03  0.67088831834E+03  0.00000000000E+00 0.  1.
          6    1    1    2  501    0 -0.54860693018E+02 -0.10240897737E+03 -0.87043118825E+02  0.22583799242E+03  0.17300000000E+03 0.  1.
         -6    1    1    2    0  503  0.54860693018E+02  0.10240897737E+03 -0.49334440809E+03  0.53555111734E+03  0.17300000000E+03 0.  1.
<mgrwt>
<rscale>  2 0.20838977E+03</rscale>
<asrwt>0</asrwt>
<pdfrwt beam="1">  1       21 0.13923199E-01 0.20838977E+03</pdfrwt>
<pdfrwt beam="2">  1       21 0.10321358E+00 0.20838977E+03</pdfrwt>
<totfact> 0.33890640E+04</totfact>
</mgrwt>
</event>
<event>
 4    1  0.4332500E+000  0.2809628E+03  0.7546771E-02  0.1095164E+00
         21   -1    0    0  501  502  0.00000000000E+00  0.00000000000E+00  0.10616897326E+04  0.10616897326E+04  0.00000000000E+00 0.  1.
         21   -1    0    0  502  503 -0.00000000000E+00 -0.00000000000E+00 -0.84621823551E+02  0.84621823551E+02  0.00000000000E+00 0.  1.
          6    1    1    2  501    0  0.19704606013E+03 -0.10091563150E+03  0.68819157878E+03  0.74333556594E+03  0.17300000000E+03 0.  1.
         -6    1    1    2    0  503 -0.19704606013E+03  0.10091563150E+03  0.28887633028E+03  0.40297599022E+03  0.17300000000E+03 0.  1.
<mgrwt>
<rscale>  2 0.28096283E+03</rscale>
<asrwt>0</asrwt>
<pdfrwt beam="1">  1       21 0.16333687E+00 0.28096283E+03</pdfrwt>
<pdfrwt beam="2">  1       21 0.13018743E-01 0.28096283E+03</pdfrwt>
<totfact> 0.11399265E+04</totfact>
</mgrwt>
</event>
<event>
 4    1  0.4332500E+000  0.1784901E+03  0.7546771E-02  0.1169272E+00
         21   -1    0    0  501  502  0.00000000000E+00  0.00000000000E+00  0.70815699964E+03  0.70815699964E+03  0.00000000000E+00 0. -1.
         21   -1    0    0  502  503 -0.00000000000E+00 -0.00000000000E+00 -0.20529037849E+03  0.20529037849E+03  0.00000000000E+00 0. -1.
          6    1    1    2  501    0  0.44944530627E+01 -0.43697822076E+02  0.65502198414E+03  0.67890536857E+03  0.17300000000E+03 0. -1.
         -6    1    1    2    0  503 -0.44944530627E+01  0.43697822076E+02 -0.15215536299E+03  0.23454200956E+03  0.17300000000E+03 0. -1.
<mgrwt>
<rscale>  2 0.17849006E+03</rscale>
<asrwt>0</asrwt>
<pdfrwt beam="1">  1       21 0.10894723E+00 0.17849006E+03</pdfrwt>
<pdfrwt beam="2">  1       21 0.31583136E-01 0.17849006E+03</pdfrwt>
<totfact> 0.65136362E+03</totfact>
</mgrwt>
</event>
<event>
 4    1  0.4332500E+000  0.2061367E+03  0.7546771E-02  0.1144662E+00
         21   -1    0    0  503  502  0.00000000000E+00  0.00000000000E+00  0.25800979538E+03  0.25800979538E+03  0.00000000000E+00 0.  1.
         21   -1    0    0  501  503 -0.00000000000E+00 -0.00000000000E+00 -0.16973706059E+03  0.16973706059E+03  0.00000000000E+00 0. -1.
          6    1    1    2  501    0  0.67858918918E+02 -0.89210393705E+02  0.72664649362E+01  0.20626470550E+03  0.17300000000E+03 0. -1.
         -6    1    1    2    0  502 -0.67858918918E+02  0.89210393705E+02  0.81006269855E+02  0.22148215047E+03  0.17300000000E+03 0.  1.
<mgrwt>
<rscale>  2 0.20613667E+03</rscale>
<asrwt>0</asrwt>
<pdfrwt beam="1">  1       21 0.39693815E-01 0.20613667E+03</pdfrwt>
<pdfrwt beam="2">  1       21 0.26113394E-01 0.20613667E+03</pdfrwt>
<totfact> 0.84767821E+04</totfact>
</mgrwt>
</event>
<event>
 4    1  0.4332500E+000  0.2476302E+03  0.7546771E-02  0.1114812E+00
         21   -1    0    0  501  502  0.00000000000E+00  0.00000000000E+00  0.77161864258E+02  0.77161864258E+02  0.00000000000E+00 0. -1.
         21   -1    0    0  502  503 -0.00000000000E+00 -0.00000000000E+00 -0.80315094559E+03  0.80315094559E+03  0.00000000000E+00 0. -1.
          6    1    1    2  501    0  0.57697278247E+02 -0.16751931524E+03 -0.31784984994E+03  0.40292582941E+03  0.17300000000E+03 0. -1.
         -6    1    1    2    0  503 -0.57697278247E+02  0.16751931524E+03 -0.40813923138E+03  0.47738698043E+03  0.17300000000E+03 0. -1.
<mgrwt>
<rscale>  2 0.24763016E+03</rscale>
<asrwt>0</asrwt>
<pdfrwt beam="1">  1       21 0.11871056E-01 0.24763016E+03</pdfrwt>
<pdfrwt beam="2">  1       21 0.12356169E+00 0.24763016E+03</pdfrwt>
<totfact> 0.28504145E+04</totfact>
</mgrwt>
</event>
<event>
 4    1  0.4332500E+000  0.2110253E+03  0.7546771E-02  0.1140757E+00
         21   -1    0    0  503  502  0.00000000000E+00  0.00000000000E+00  0.81797746239E+02  0.81797746239E+02  0.00000000000E+00 0.  1.
         21   -1    0    0  501  503 -0.00000000000E+00 -0.00000000000E+00 -0.65637098642E+03  0.65637098642E+03  0.00000000000E+00 0.  1.
          6    1    1    2  501    0  0.91984921094E+02 -0.78367416664E+02 -0.43972010130E+03  0.48773501534E+03  0.17300000000E+03 0.  1.
         -6    1    1    2    0  502 -0.91984921094E+02  0.78367416664E+02 -0.13485313888E+03  0.25043371732E+03  0.17300000000E+03 0.  1.
<mgrwt>
<rscale>  2 0.21102530E+03</rscale>
<asrwt>0</asrwt>
<pdfrwt beam="1">  1       21 0.12584269E-01 0.21102530E+03</pdfrwt>
<pdfrwt beam="2">  1       21 0.10098015E+00 0.21102530E+03</pdfrwt>
<totfact> 0.42810599E+04</totfact>
</mgrwt>
</event>
<event>
 4    1  0.4332500E+000  0.1785028E+03  0.7546771E-02  0.1169260E+00
         21   -1    0    0  503  502  0.00000000000E+00  0.00000000000E+00  0.67915679213E+02  0.67915679213E+02  0.00000000000E+00 0. -1.
         21   -1    0    0  501  503 -0.00000000000E+00 -0.00000000000E+00 -0.55974842451E+03  0.55974842451E+03  0.00000000000E+00 0.  1.
          6    1    1    2  501    0 -0.43898931371E+02 -0.26716431828E+01 -0.37216874467E+03  0.41276243575E+03  0.17300000000E+03 0.  1.
         -6    1    1    2    0  502  0.43898931371E+02  0.26716431828E+01 -0.11966400062E+03  0.21490166797E+03  0.17300000000E+03 0. -1.
<mgrwt>
<rscale>  2 0.17850281E+03</rscale>
<asrwt>0</asrwt>
<pdfrwt beam="1">  1       21 0.10448566E-01 0.17850281E+03</pdfrwt>
<pdfrwt beam="2">  1       21 0.86115143E-01 0.17850281E+03</pdfrwt>
<totfact> 0.87839257E+04</totfact>
</mgrwt>
</event>
<event>
 4    1  0.4332500E+000  0.2886821E+03  0.7546771E-02  0.1091039E+00
         21   -1    0    0  503  502  0.00000000000E+00  0.00000000000E+00  0.12655868487E+04  0.12655868487E+04  0.00000000000E+00 0.  1.
         21   -1    0    0  501  503 -0.00000000000E+00 -0.00000000000E+00 -0.12795821268E+03  0.12795821268E+03  0.00000000000E+00 0. -1.
          6    1    1    2  501    0  0.21313299989E+03  0.89345962872E+02  0.83374221426E+02  0.30048067745E+03  0.17300000000E+03 0. -1.
         -6    1    1    2    0  502 -0.21313299989E+03 -0.89345962872E+02  0.10542544145E+04  0.10930643839E+04  0.17300000000E+03 0.  1.
<mgrwt>
<rscale>  2 0.28868214E+03</rscale>
<asrwt>0</asrwt>
<pdfrwt beam="1">  1       21 0.19470566E+00 0.28868214E+03</pdfrwt>
<pdfrwt beam="2">  1       21 0.19685880E-01 0.28868214E+03</pdfrwt>
<totfact> 0.31988095E+03</totfact>
</mgrwt>
</event>
<event>
 4    1  0.4332500E+000  0.2773767E+03  0.7546771E-02  0.1097130E+00
         21   -1    0    0  501  502  0.00000000000E+00  0.00000000000E+00  0.19540531251E+04  0.19540531251E+04  0.00000000000E+00 0.  1.
         21   -1    0    0  502  503 -0.00000000000E+00 -0.00000000000E+00 -0.44013813621E+02  0.44013813621E+02  0.00000000000E+00 0.  1.
          6    1    1    2  501    0 -0.17152883717E+03  0.13261492325E+03  0.12794044015E+04  0.13091269925E+04  0.17300000000E+03 0.  1.
         -6    1    1    2    0  503  0.17152883717E+03 -0.13261492325E+03  0.63063490998E+03  0.68893994625E+03  0.17300000000E+03 0.  1.
<mgrwt>
<rscale>  2 0.27737675E+03</rscale>
<asrwt>0</asrwt>
<pdfrwt beam="1">  1       21 0.30062349E+00 0.27737675E+03</pdfrwt>
<pdfrwt beam="2">  1       21 0.67713574E-02 0.27737675E+03</pdfrwt>
<totfact> 0.49966304E+03</totfact>
</mgrwt>
</event>
<event>
 4    1  0.4332500E+000  0.1770298E+03  0.7546771E-02  0.1170709E+00
         21   -1    0    0  503  502  0.00000000000E+00  0.00000000000E+00  0.11488662845E+04  0.11488662845E+04  0.00000000000E+00 0. -1.
         21   -1    0    0  501  503 -0.00000000000E+00 -0.00000000000E+00 -0.57840799583E+02  0.57840799583E+02  0.00000000000E+00 0. -1.
          6    1    1    2  501    0 -0.24735742459E+02 -0.28260915712E+02  0.10693500968E+03  0.20682029061E+03  0.17300000000E+03 0. -1.
         -6    1    1    2    0  502  0.24735742459E+02  0.28260915712E+02  0.98409047519E+03  0.99988679343E+03  0.17300000000E+03 0. -1.
<mgrwt>
<rscale>  2 0.17702976E+03</rscale>
<asrwt>0</asrwt>
<pdfrwt beam="1">  1       21 0.17674864E+00 0.17702976E+03</pdfrwt>
<pdfrwt beam="2">  1       21 0.88985854E-02 0.17702976E+03</pdfrwt>
<totfact> 0.19304252E+04</totfact>
</mgrwt>
</event>
<event>
 4    1  0.4332500E+000  0.1761433E+03  0.7546771E-02  0.1171589E+00
         21   -1    0    0  503  502  0.00000000000E+00  0.00000000000E+00  0.15294268358E+03  0.15294268358E+03  0.00000000000E+00 0. -1.
         21   -1    0    0  501  503 -0.00000000000E+00 -0.00000000000E+00 -0.50524576862E+03  0.50524576862E+03  0.00000000000E+00 0. -1.
          6    1    1    2  501    0 -0.26754921210E+02 -0.19535221033E+02 -0.43074501021E+03  0.46536836430E+03  0.17300000000E+03 0. -1.
         -6    1    1    2    0  502  0.26754921210E+02  0.19535221033E+02  0.78441925173E+02  0.19282008789E+03  0.17300000000E+03 0. -1.
<mgrwt>
<rscale>  2 0.17614327E+03</rscale>
<asrwt>0</asrwt>
<pdfrwt beam="1">  1       21 0.23529644E-01 0.17614327E+03</pdfrwt>
<pdfrwt beam="2">  1       21 0.77730118E-01 0.17614327E+03</pdfrwt>
<totfact> 0.25185944E+04</totfact>
</mgrwt>
</event>
<event>
 4    1  0.4332500E+000  0.2531878E+03  0.7546771E-02  0.1111307E+00
         21   -1    0    0  503  502  0.00000000000E+00  0.00000000000E+00  0.33003332243E+03  0.33003332243E+03  0.00000000000E+00 0.  1.
         21   -1    0    0  501  503 -0.00000000000E+00 -0.00000000000E+00 -0.19830540011E+03  0.19830540011E+03  0.00000000000E+00 0.  1.
          6    1    1    2  501    0 -0.16236407672E+03 -0.88390945387E+02  0.10371073251E+03  0.27360549825E+03  0.17300000000E+03 0.  1.
         -6    1    1    2    0  502  0.16236407672E+03  0.88390945387E+02  0.28017189812E+02  0.25473322429E+03  0.17300000000E+03 0.  1.
<mgrwt>
<rscale>  2 0.25318778E+03</rscale>
<asrwt>0</asrwt>
<pdfrwt beam="1">  1       21 0.50774357E-01 0.25318778E+03</pdfrwt>
<pdfrwt beam="2">  1       21 0.30508523E-01 0.25318778E+03</pdfrwt>
<totfact> 0.36976526E+04</totfact>
</mgrwt>
</event>
<event>
 4    1  0.4332500E+000  0.2462850E+03  0.7546771E-02  0.1115675E+00
         21   -1    0    0  501  502  0.00000000000E+00  0.00000000000E+00  0.22443299298E+03  0.22443299298E+03  0.00000000000E+00 0.  1.
         21   -1    0    0  502  503 -0.00000000000E+00 -0.00000000000E+00 -0.27820872437E+03  0.27820872437E+03  0.00000000000E+00 0.  1.
          6    1    1    2  501    0 -0.50372145418E+02 -0.16789860822E+03  0.15580530768E+02  0.24677732598E+03  0.17300000000E+03 0.  1.
         -6    1    1    2    0  503  0.50372145418E+02  0.16789860822E+03 -0.69356262160E+02  0.25586439138E+03  0.17300000000E+03 0.  1.
<mgrwt>
<rscale>  2 0.24628499E+03</rscale>
<asrwt>0</asrwt>
<pdfrwt beam="1">  1       21 0.34528153E-01 0.24628499E+03</pdfrwt>
<pdfrwt beam="2">  1       21 0.42801342E-01 0.24628499E+03</pdfrwt>
<totfact> 0.41390677E+04</totfact>
</mgrwt>
</event>
<event>
 4    1  0.4332500E+000  0.2160810E+03  0.7546771E-02  0.1136839E+00
         21   -1    0    0  503  502  0.00000000000E+00  0.00000000000E+00  0.31304375223E+03  0.31304375223E+03  0.00000000000E+00 0. -1.
         21   -1    0    0  501  503 -0.00000000000E+00 -0.00000000000E+00 -0.14955849695E+03  0.14955849695E+03  0.00000000000E+00 0.  1.
          6    1    1    2  501    0 -0.12517827412E+03  0.33051222071E+02  0.69678321364E+02  0.22703755649E+03  0.17300000000E+03 0. -1.
         -6    1    1    2    0  502  0.12517827412E+03 -0.33051222071E+02  0.93806933910E+02  0.23556469269E+03  0.17300000000E+03 0. -1.
<mgrwt>
<rscale>  2 0.21608097E+03</rscale>
<asrwt>0</asrwt>
<pdfrwt beam="1">  1       21 0.48160577E-01 0.21608097E+03</pdfrwt>
<pdfrwt beam="2">  1       21 0.23009000E-01 0.21608097E+03</pdfrwt>
<totfact> 0.72316474E+04</totfact>
</mgrwt>
</event>
<event>
 4    1  0.4332500E+000  0.1860429E+03  0.7546771E-02  0.1162080E+00
         21   -1    0    0  503  502  0.00000000000E+00  0.00000000000E+00  0.66354636955E+03  0.66354636955E+03  0.00000000000E+00 0.  1.
         21   -1    0    0  501  503 -0.00000000000E+00 -0.00000000000E+00 -0.12628992319E+03  0.12628992319E+03  0.00000000000E+00 0.  1.
          6    1    1    2  501    0 -0.17732655559E+02  0.66094650871E+02 -0.33933135364E+02  0.18911215620E+03  0.17300000000E+03 0.  1.
         -6    1    1    2    0  502  0.17732655559E+02 -0.66094650871E+02  0.57118958173E+03  0.60072413654E+03  0.17300000000E+03 0.  1.
<mgrwt>
<rscale>  2 0.18604287E+03</rscale>
<asrwt>0</asrwt>
<pdfrwt beam="1">  1       21 0.10208406E+00 0.18604287E+03</pdfrwt>
<pdfrwt beam="2">  1       21 0.19429219E-01 0.18604287E+03</pdfrwt>
<totfact> 0.19121115E+04</totfact>
</mgrwt>
</event>
<event>
 4    1  0.4332500E+000  0.2894625E+03  0.7546771E-02  0.1090630E+00
         21   -1    0    0  501  502  0.00000000000E+00  0.00000000000E+00  0.46999750084E+03  0.46999750084E+03  0.00000000000E+00 0.  1.
         21   -1    0    0  502  503 -0.00000000000E+00 -0.00000000000E+00 -0.24767284051E+03  0.24767284051E+03  0.00000000000E+00 0. -1.
          6    1    1    2  501    0 -0.18559649164E+03 -0.13933232955E+03  0.30110845799E+03  0.41767793722E+03  0.17300000000E+03 0.  1.
         -6    1    1    2    0  503  0.18559649164E+03  0.13933232955E+03 -0.78783797660E+02  0.29999240414E+03  0.17300000000E+03 0. -1.
<mgrwt>
<rscale>  2 0.28946253E+03</rscale>
<asrwt>0</asrwt>
<pdfrwt beam="1">  1       21 0.72307308E-01 0.28946253E+03</pdfrwt>
<pdfrwt beam="2">  1       21 0.38103514E-01 0.28946253E+03</pdfrwt>
<totfact> 0.10842773E+04</totfact>
</mgrwt>
</event>
<event>
 4    1  0.4332500E+000  0.1815300E+03  0.7546771E-02  0.1166330E+00
         21   -1    0    0  501  502  0.00000000000E+00  0.00000000000E+00  0.53204928715E+02  0.53204928715E+02  0.00000000000E+00 0.  1.
         21   -1    0    0  502  503 -0.00000000000E+00 -0.00000000000E+00 -0.62021854084E+03  0.62021854084E+03  0.00000000000E+00 0. -1.
          6    1    1    2  501    0  0.48328524487E+02 -0.26239423211E+02 -0.27099969315E+03  0.32618091191E+03  0.17300000000E+03 0.  1.
         -6    1    1    2    0  503 -0.48328524487E+02  0.26239423211E+02 -0.29601391898E+03  0.34724255764E+03  0.17300000000E+03 0. -1.
<mgrwt>
<rscale>  2 0.18153004E+03</rscale>
<asrwt>0</asrwt>
<pdfrwt beam="1">  1       21 0.81853736E-02 0.18153004E+03</pdfrwt>
<pdfrwt beam="2">  1       21 0.95418237E-01 0.18153004E+03</pdfrwt>
<totfact> 0.10619132E+05</totfact>
</mgrwt>
</event>
<event>
 4    1  0.4332500E+000  0.1754879E+03  0.7546771E-02  0.1172243E+00
         21   -1    0    0  503  502  0.00000000000E+00  0.00000000000E+00  0.18468468890E+03  0.18468468890E+03  0.00000000000E+00 0.  1.
         21   -1    0    0  501  503 -0.00000000000E+00 -0.00000000000E+00 -0.16689170504E+03  0.16689170504E+03  0.00000000000E+00 0.  1.
          6    1    1    2  501    0 -0.29402850780E+02 -0.15684501009E+01  0.14036786829E+02  0.17604834295E+03  0.17300000000E+03 0. -1.
         -6    1    1    2    0  502  0.29402850780E+02  0.15684501009E+01  0.37561970326E+01  0.17552805099E+03  0.17300000000E+03 0. -1.
<mgrwt>
<rscale>  2 0.17548786E+03</rscale>
<asrwt>0</asrwt>
<pdfrwt beam="1">  1       21 0.28413029E-01 0.17548786E+03</pdfrwt>
<pdfrwt beam="2">  1       21 0.25675647E-01 0.17548786E+03</pdfrwt>
<totfact> 0.17136277E+05</totfact>
</mgrwt>
</event>
<event>
 4    1  0.4332500E+000  0.2158844E+03  0.7546771E-02  0.1136989E+00
         21   -1    0    0  501  502  0.00000000000E+00  0.00000000000E+00  0.32763791253E+04  0.32763791253E+04  0.00000000000E+00 0.  1.
         21   -1    0    0  502  503 -0.00000000000E+00 -0.00000000000E+00 -0.19171737700E+02  0.19171737700E+02  0.00000000000E+00 0. -1.
          6    1    1    2  501    0  0.33833669759E+02  0.12462884721E+03  0.24656171435E+04  0.24750502955E+04  0.17300000000E+03 0.  1.
         -6    1    1    2    0  503 -0.33833669759E+02 -0.12462884721E+03  0.79159024404E+03  0.82050056748E+03  0.17300000000E+03 0. -1.
<mgrwt>
<rscale>  2 0.21588438E+03</rscale>
<asrwt>0</asrwt>
<pdfrwt beam="1">  1       21 0.50405788E+00 0.21588438E+03</pdfrwt>
<pdfrwt beam="2">  1       21 0.29495007E-02 0.21588438E+03</pdfrwt>
<totfact> 0.11140784E+03</totfact>
</mgrwt>
</event>
<event>
 4    1  0.4332500E+000  0.2134545E+03  0.7546771E-02  0.1138859E+00
         21   -1    0    0  503  502  0.00000000000E+00  0.00000000000E+00  0.27743749618E+03  0.27743749618E+03  0.00000000000E+00 0.  1.
         21   -1    0    0  501  503 -0.00000000000E+00 -0.00000000000E+00 -0.17608166142E+03  0.17608166142E+03  0.00000000000E+00 0. -1.
          6    1    1    2  501    0 -0.10723115718E+03  0.64306420957E+02 -0.81584631163E+01  0.21361038684E+03  0.17300000000E+03 0.  1.
         -6    1    1    2    0  502  0.10723115718E+03 -0.64306420957E+02  0.10951429788E+03  0.23990877076E+03  0.17300000000E+03 0.  1.
<mgrwt>
<rscale>  2 0.21345453E+03</rscale>
<asrwt>0</asrwt>
<pdfrwt beam="1">  1       21 0.42682692E-01 0.21345453E+03</pdfrwt>
<pdfrwt beam="2">  1       21 0.27089486E-01 0.21345453E+03</pdfrwt>
<totfact> 0.67938285E+04</totfact>
</mgrwt>
</event>
<event>
 4    1  0.4332500E+000  0.1915752E+03  0.7546771E-02  0.1157048E+00
         21   -1    0    0  503  502  0.00000000000E+00  0.00000000000E+00  0.90446694602E+03  0.90446694602E+03  0.00000000000E+00 0.  1.
         21   -1    0    0  501  503 -0.00000000000E+00 -0.00000000000E+00 -0.11981298954E+03  0.11981298954E+03  0.00000000000E+00 0.  1.
          6    1    1    2  501    0 -0.69433408844E+02  0.44170861743E+02 -0.24155199039E+02  0.19309204264E+03  0.17300000000E+03 0.  1.
         -6    1    1    2    0  502  0.69433408844E+02 -0.44170861743E+02  0.80880915551E+03  0.83118789292E+03  0.17300000000E+03 0.  1.
<mgrwt>
<rscale>  2 0.19157522E+03</rscale>
<asrwt>0</asrwt>
<pdfrwt beam="1">  1       21 0.13914876E+00 0.19157522E+03</pdfrwt>
<pdfrwt beam="2">  1       21 0.18432768E-01 0.19157522E+03</pdfrwt>
<totfact> 0.97749463E+03</totfact>
</mgrwt>
</event>
<event>
 4    1  0.4332500E+000  0.2440928E+03  0.7546771E-02  0.1117096E+00
         21   -1    0    0  501  502  0.00000000000E+00  0.00000000000E+00  0.19384247413E+03  0.19384247413E+03  0.00000000000E+00 0. -1.
         21   -1    0    0  502  503 -0.00000000000E+00 -0.00000000000E+00 -0.30806454386E+03  0.30806454386E+03  0.00000000000E+00 0.  1.
          6    1    1    2  501    0  0.81900931302E+02 -0.15147453468E+03 -0.45192426045E+02  0.24824111782E+03  0.17300000000E+03 0.  1.
         -6    1    1    2    0  503 -0.81900931302E+02  0.15147453468E+03 -0.69029643681E+02  0.25366590017E+03  0.17300000000E+03 0. -1.
<mgrwt>
<rscale>  2 0.24409280E+03</rscale>
<asrwt>0</asrwt>
<pdfrwt beam="1">  1       21 0.29821919E-01 0.24409280E+03</pdfrwt>
<pdfrwt beam="2">  1       21 0.47394545E-01 0.24409280E+03</pdfrwt>
<totfact> 0.44829187E+04</totfact>
</mgrwt>
</event>
<event>
 4    1  0.4332500E+000  0.2022951E+03  0.7546771E-02  0.1147817E+00
         21   -1    0    0  503  502  0.00000000000E+00  0.00000000000E+00  0.47944041333E+03  0.47944041333E+03  0.00000000000E+00 0. -1.
         21   -1    0    0  501  503 -0.00000000000E+00 -0.00000000000E+00 -0.86077009732E+02  0.86077009732E+02  0.00000000000E+00 0. -1.
          6    1    1    2  501    0 -0.10111605225E+03  0.27746363398E+02  0.22255291573E+03  0.30075424686E+03  0.17300000000E+03 0. -1.
         -6    1    1    2    0  502  0.10111605225E+03 -0.27746363398E+02  0.17081048787E+03  0.26476317620E+03  0.17300000000E+03 0. -1.
<mgrwt>
<rscale>  2 0.20229512E+03</rscale>
<asrwt>0</asrwt>
<pdfrwt beam="1">  1       21 0.73760062E-01 0.20229512E+03</pdfrwt>
<pdfrwt beam="2">  1       21 0.13242617E-01 0.20229512E+03</pdfrwt>
<totfact> 0.80784957E+04</totfact>
</mgrwt>
</event>
<event>
 4    1  0.4332500E+000  0.2167346E+03  0.7546771E-02  0.1136341E+00
         21   -1    0    0  501  502  0.00000000000E+00  0.00000000000E+00  0.72881386157E+02  0.72881386157E+02  0.00000000000E+00 0.  1.
         21   -1    0    0  502  503 -0.00000000000E+00 -0.00000000000E+00 -0.10437603394E+04  0.10437603394E+04  0.00000000000E+00 0.  1.
          6    1    1    2  501    0  0.16142389185E+02  0.12955424909E+03 -0.14013841462E+03  0.25809427626E+03  0.17300000000E+03 0.  1.
         -6    1    1    2    0  503 -0.16142389185E+02 -0.12955424909E+03 -0.83074053858E+03  0.85854744926E+03  0.17300000000E+03 0.  1.
<mgrwt>
<rscale>  2 0.21673458E+03</rscale>
<asrwt>0</asrwt>
<pdfrwt beam="1">  1       21 0.11212521E-01 0.21673458E+03</pdfrwt>
<pdfrwt beam="2">  1       21 0.16057851E+00 0.21673458E+03</pdfrwt>
<totfact> 0.16236245E+04</totfact>
</mgrwt>
</event>
<event>
 4    1  0.4332500E+000  0.1884554E+03  0.7546771E-02  0.1159862E+00
         21   -1    0    0  503  502  0.00000000000E+00  0.00000000000E+00  0.65538294232E+03  0.65538294232E+03  0.00000000000E+00 0.  1.
         21   -1    0    0  501  503 -0.00000000000E+00 -0.00000000000E+00 -0.64698411284E+02  0.64698411284E+02  0.00000000000E+00 0.  1.
          6    1    1    2  501    0  0.56654600765E+02  0.48751488508E+02  0.15024293229E+03  0.24101533172E+03  0.17300000000E+03 0.  1.
         -6    1    1    2    0  502 -0.56654600765E+02 -0.48751488508E+02  0.44044159874E+03  0.47906602188E+03  0.17300000000E+03 0.  1.
<mgrwt>
<rscale>  2 0.18845544E+03</rscale>
<asrwt>0</asrwt>
<pdfrwt beam="1">  1       21 0.10082814E+00 0.18845544E+03</pdfrwt>
<pdfrwt beam="2">  1       21 0.99536022E-02 0.18845544E+03</pdfrwt>
<totfact> 0.65989963E+04</totfact>
</mgrwt>
</event>
<event>
 4    1  0.4332500E+000  0.2262133E+03  0.7546771E-02  0.1129334E+00
         21   -1    0    0  503  502  0.00000000000E+00  0.00000000000E+00  0.72440342350E+03  0.72440342350E+03  0.00000000000E+00 0. -1.
         21   -1    0    0  501  503 -0.00000000000E+00 -0.00000000000E+00 -0.72766128298E+02  0.72766128298E+02  0.00000000000E+00 0.  1.
          6    1    1    2  501    0  0.51665810232E+02 -0.13628689554E+03  0.25770032588E+03  0.34290221901E+03  0.17300000000E+03 0.  1.
         -6    1    1    2    0  502 -0.51665810232E+02  0.13628689554E+03  0.39393696932E+03  0.45426733279E+03  0.17300000000E+03 0. -1.
<mgrwt>
<rscale>  2 0.22621334E+03</rscale>
<asrwt>0</asrwt>
<pdfrwt beam="1">  1       21 0.11144668E+00 0.22621334E+03</pdfrwt>
<pdfrwt beam="2">  1       21 0.11194789E-01 0.22621334E+03</pdfrwt>
<totfact> 0.41299998E+04</totfact>
</mgrwt>
</event>
<event>
 4    1  0.4332500E+000  0.1773735E+03  0.7546771E-02  0.1170369E+00
         21   -1    0    0  501  502  0.00000000000E+00  0.00000000000E+00  0.16330556607E+03  0.16330556607E+03  0.00000000000E+00 0.  1.
         21   -1    0    0  502  503 -0.00000000000E+00 -0.00000000000E+00 -0.39207046530E+03  0.39207046530E+03  0.00000000000E+00 0. -1.
          6    1    1    2  501    0 -0.22874217200E+01  0.39078542308E+02  0.83659086035E+02  0.19611274166E+03  0.17300000000E+03 0.  1.
         -6    1    1    2    0  503  0.22874217200E+01 -0.39078542308E+02 -0.31242398526E+03  0.35926328971E+03  0.17300000000E+03 0. -1.
<mgrwt>
<rscale>  2 0.17737352E+03</rscale>
<asrwt>0</asrwt>
<pdfrwt beam="1">  1       21 0.25123934E-01 0.17737352E+03</pdfrwt>
<pdfrwt beam="2">  1       21 0.60318532E-01 0.17737352E+03</pdfrwt>
<totfact> 0.38741133E+04</totfact>
</mgrwt>
</event>
<event>
 4    1  0.4332500E+000  0.1872536E+03  0.7546771E-02  0.1160962E+00
         21   -1    0    0  503  502  0.00000000000E+00  0.00000000000E+00  0.31690674178E+03  0.31690674178E+03  0.00000000000E+00 0. -1.
         21   -1    0    0  501  503 -0.00000000000E+00 -0.00000000000E+00 -0.20472369457E+03  0.20472369457E+03  0.00000000000E+00 0. -1.
          6    1    1    2  501    0  0.70770365479E+02 -0.11245297428E+02 -0.12071419160E+03  0.22279097244E+03  0.17300000000E+03 0. -1.
         -6    1    1    2    0  502 -0.70770365479E+02  0.11245297428E+02  0.23289723882E+03  0.29883946391E+03  0.17300000000E+03 0. -1.
<mgrwt>
<rscale>  2 0.18725357E+03</rscale>
<asrwt>0</asrwt>
<pdfrwt beam="1">  1       21 0.48754883E-01 0.18725357E+03</pdfrwt>
<pdfrwt beam="2">  1       21 0.31495953E-01 0.18725357E+03</pdfrwt>
<totfact> 0.39015893E+04</totfact>
</mgrwt>
</event>
<event>
 4    1  0.4332500E+000  0.2115577E+03  0.7546771E-02  0.1140338E+00
         21   -1    0    0  501  502  0.00000000000E+00  0.00000000000E+00  0.12503807492E+03  0.12503807492E+03  0.00000000000E+00 0. -1.
         21   -1    0    0  502  503 -0.00000000000E+00 -0.00000000000E+00 -0.94510493826E+03  0.94510493826E+03  0.00000000000E+00 0. -1.
          6    1    1    2  501    0  0.67056095128E+01  0.12158414352E+03  0.11711883192E+02  0.21188165886E+03  0.17300000000E+03 0. -1.
         -6    1    1    2    0  503 -0.67056095128E+01 -0.12158414352E+03 -0.83177874653E+03  0.85826135433E+03  0.17300000000E+03 0. -1.
<mgrwt>
<rscale>  2 0.21155772E+03</rscale>
<asrwt>0</asrwt>
<pdfrwt beam="1">  1       21 0.19236626E-01 0.21155772E+03</pdfrwt>
<pdfrwt beam="2">  1       21 0.14540076E+00 0.21155772E+03</pdfrwt>
<totfact> 0.79342653E+03</totfact>
</mgrwt>
</event>
<event>
 4    1  0.4332500E+000  0.1871454E+03  0.7546771E-02  0.1161061E+00
         21   -1    0    0  503  502  0.00000000000E+00  0.00000000000E+00  0.63232077761E+03  0.63232077761E+03  0.00000000000E+00 0. -1.
         21   -1    0    0  501  503 -0.00000000000E+00 -0.00000000000E+00 -0.74694951460E+02  0.74694951460E+02  0.00000000000E+00 0. -1.
          6    1    1    2  501    0  0.32466633543E+02  0.63563563008E+02  0.99090294647E+02  0.21175999464E+03  0.17300000000E+03 0. -1.
         -6    1    1    2    0  502 -0.32466633543E+02 -0.63563563008E+02  0.45853553150E+03  0.49525573443E+03  0.17300000000E+03 0. -1.
<mgrwt>
<rscale>  2 0.18714542E+03</rscale>
<asrwt>0</asrwt>
<pdfrwt beam="1">  1       21 0.97280116E-01 0.18714542E+03</pdfrwt>
<pdfrwt beam="2">  1       21 0.11491531E-01 0.18714542E+03</pdfrwt>
<totfact> 0.55697903E+04</totfact>
</mgrwt>
</event>
<event>
 4    1  0.4332500E+000  0.2427614E+03  0.7546771E-02  0.1117967E+00
         21   -1    0    0  503  502  0.00000000000E+00  0.00000000000E+00  0.83909408371E+03  0.83909408371E+03  0.00000000000E+00 0. -1.
         21   -1    0    0  501  503 -0.00000000000E+00 -0.00000000000E+00 -0.14504441469E+03  0.14504441469E+03  0.00000000000E+00 0. -1.
          6    1    1    2  501    0  0.10761684769E+03 -0.13199503368E+03 -0.63667995955E+01  0.24284482897E+03  0.17300000000E+03 0. -1.
         -6    1    1    2    0  502 -0.10761684769E+03  0.13199503368E+03  0.70041646861E+03  0.74129366942E+03  0.17300000000E+03 0. -1.
<mgrwt>
<rscale>  2 0.24276135E+03</rscale>
<asrwt>0</asrwt>
<pdfrwt beam="1">  1       21 0.12909139E+00 0.24276135E+03</pdfrwt>
<pdfrwt beam="2">  1       21 0.22314526E-01 0.24276135E+03</pdfrwt>
<totfact> 0.79848346E+03</totfact>
</mgrwt>
</event>
<event>
 4    1  0.4332500E+000  0.1797748E+03  0.7546771E-02  0.1168021E+00
         21   -1    0    0  503  502  0.00000000000E+00  0.00000000000E+00  0.27054910254E+04  0.27054910254E+04  0.00000000000E+00 0. -1.
         21   -1    0    0  501  503 -0.00000000000E+00 -0.00000000000E+00 -0.27023936018E+02  0.27023936018E+02  0.00000000000E+00 0. -1.
          6    1    1    2  501    0  0.44289105875E+02 -0.20698742332E+02  0.31868508211E+03  0.36589499094E+03  0.17300000000E+03 0. -1.
         -6    1    1    2    0  502 -0.44289105875E+02  0.20698742332E+02  0.23597820073E+04  0.23666199705E+04  0.17300000000E+03 0. -1.
<mgrwt>
<rscale>  2 0.17977476E+03</rscale>
<asrwt>0</asrwt>
<pdfrwt beam="1">  1       21 0.41622918E+00 0.17977476E+03</pdfrwt>
<pdfrwt beam="2">  1       21 0.41575307E-02 0.17977476E+03</pdfrwt>
<totfact> 0.25804180E+03</totfact>
</mgrwt>
</event>
<event>
 4    1  0.4332500E+000  0.1990043E+03  0.7546771E-02  0.1150582E+00
         21   -1    0    0  501  502  0.00000000000E+00  0.00000000000E+00  0.75103356272E+03  0.75103356272E+03  0.00000000000E+00 0. -1.
         21   -1    0    0  502  503 -0.00000000000E+00 -0.00000000000E+00 -0.79964713198E+02  0.79964713198E+02  0.00000000000E+00 0. -1.
          6    1    1    2  501    0 -0.77934580592E+02  0.59999399657E+02  0.57801369679E+03  0.61131216288E+03  0.17300000000E+03 0. -1.
         -6    1    1    2    0  503  0.77934580592E+02 -0.59999399657E+02  0.93055152736E+02  0.21968611304E+03  0.17300000000E+03 0. -1.
<mgrwt>
<rscale>  2 0.19900434E+03</rscale>
<asrwt>0</asrwt>
<pdfrwt beam="1">  1       21 0.11554362E+00 0.19900434E+03</pdfrwt>
<pdfrwt beam="2">  1       21 0.12302264E-01 0.19900434E+03</pdfrwt>
<totfact> 0.32408447E+04</totfact>
</mgrwt>
</event>
<event>
 4    1  0.4332500E+000  0.2034990E+03  0.7546771E-02  0.1146820E+00
         21   -1    0    0  501  502  0.00000000000E+00  0.00000000000E+00  0.17102896027E+02  0.17102896027E+02  0.00000000000E+00 0. -1.
         21   -1    0    0  502  503 -0.00000000000E+00 -0.00000000000E+00 -0.24852504917E+04  0.24852504917E+04  0.00000000000E+00 0. -1.
          6    1    1    2  501    0 -0.21990835182E+02 -0.10487719474E+03 -0.10334233224E+04  0.10532689999E+04  0.17300000000E+03 0. -1.
         -6    1    1    2    0  503  0.21990835182E+02  0.10487719474E+03 -0.14347242732E+04  0.14490843878E+04  0.17300000000E+03 0. -1.
<mgrwt>
<rscale>  2 0.20349895E+03</rscale>
<asrwt>0</asrwt>
<pdfrwt beam="1">  1       21 0.26312161E-02 0.20349895E+03</pdfrwt>
<pdfrwt beam="2">  1       21 0.38234604E+00 0.20349895E+03</pdfrwt>
<totfact> 0.86745232E+03</totfact>
</mgrwt>
</event>
<event>
 4    1  0.4332500E+000  0.1977136E+03  0.7546771E-02  0.1151682E+00
         21   -1    0    0  501  502  0.00000000000E+00  0.00000000000E+00  0.16466396120E+04  0.16466396120E+04  0.00000000000E+00 0. -1.
         21   -1    0    0  502  503 -0.00000000000E+00 -0.00000000000E+00 -0.31008146292E+02  0.31008146292E+02  0.00000000000E+00 0. -1.
          6    1    1    2  501    0  0.88875307968E+02 -0.35536714569E+02  0.40169550758E+03  0.44771638261E+03  0.17300000000E+03 0. -1.
         -6    1    1    2    0  503 -0.88875307968E+02  0.35536714569E+02  0.12139359581E+04  0.12299313757E+04  0.17300000000E+03 0. -1.
<mgrwt>
<rscale>  2 0.19771363E+03</rscale>
<asrwt>0</asrwt>
<pdfrwt beam="1">  1       21 0.25332910E+00 0.19771363E+03</pdfrwt>
<pdfrwt beam="2">  1       21 0.47704854E-02 0.19771363E+03</pdfrwt>
<totfact> 0.18431840E+04</totfact>
</mgrwt>
</event>
<event>
 4    1  0.4332500E+000  0.2165889E+03  0.7546771E-02  0.1136452E+00
         21   -1    0    0  503  502  0.00000000000E+00  0.00000000000E+00  0.22328458202E+03  0.22328458202E+03  0.00000000000E+00 0.  1.
         21   -1    0    0  501  503 -0.00000000000E+00 -0.00000000000E+00 -0.21087357114E+03  0.21087357114E+03  0.00000000000E+00 0. -1.
          6    1    1    2  501    0 -0.36421200943E+02  0.12512086950E+03  0.19404887987E+02  0.21745639917E+03  0.17300000000E+03 0. -1.
         -6    1    1    2    0  502  0.36421200943E+02 -0.12512086950E+03 -0.69938771076E+01  0.21670175399E+03  0.17300000000E+03 0.  1.
<mgrwt>
<rscale>  2 0.21658886E+03</rscale>
<asrwt>0</asrwt>
<pdfrwt beam="1">  1       21 0.34351474E-01 0.21658886E+03</pdfrwt>
<pdfrwt beam="2">  1       21 0.32442088E-01 0.21658886E+03</pdfrwt>
<totfact> 0.73898581E+04</totfact>
</mgrwt>
</event>
<event>
 4    1  0.4332500E+000  0.2789403E+03  0.7546771E-02  0.1096269E+00
         21   -1    0    0  501  502  0.00000000000E+00  0.00000000000E+00  0.89006633713E+02  0.89006633713E+02  0.00000000000E+00 0.  1.
         21   -1    0    0  502  503 -0.00000000000E+00 -0.00000000000E+00 -0.10206655254E+04  0.10206655254E+04  0.00000000000E+00 0.  1.
          6    1    1    2  501    0 -0.17210400987E+03  0.13512540756E+03 -0.25563420566E+03  0.37836029534E+03  0.17300000000E+03 0.  1.
         -6    1    1    2    0  503  0.17210400987E+03 -0.13512540756E+03 -0.67602468599E+03  0.73131186375E+03  0.17300000000E+03 0.  1.
<mgrwt>
<rscale>  2 0.27894026E+03</rscale>
<asrwt>0</asrwt>
<pdfrwt beam="1">  1       21 0.13693328E-01 0.27894026E+03</pdfrwt>
<pdfrwt beam="2">  1       21 0.15702547E+00 0.27894026E+03</pdfrwt>
<totfact> 0.11595795E+04</totfact>
</mgrwt>
</event>
<event>
 4    1  0.4332500E+000  0.3023266E+03  0.7546771E-02  0.1084083E+00
         21   -1    0    0  503  502  0.00000000000E+00  0.00000000000E+00  0.32423424466E+03  0.32423424466E+03  0.00000000000E+00 0.  1.
         21   -1    0    0  501  503 -0.00000000000E+00 -0.00000000000E+00 -0.28215495254E+03  0.28215495254E+03  0.00000000000E+00 0. -1.
          6    1    1    2  501    0  0.12345936816E+03  0.21501194384E+03  0.11910150523E+02  0.30256107361E+03  0.17300000000E+03 0.  1.
         -6    1    1    2    0  502 -0.12345936816E+03 -0.21501194384E+03  0.30169141593E+02  0.30382812359E+03  0.17300000000E+03 0. -1.
<mgrwt>
<rscale>  2 0.30232656E+03</rscale>
<asrwt>0</asrwt>
<pdfrwt beam="1">  1       21 0.49882191E-01 0.30232656E+03</pdfrwt>
<pdfrwt beam="2">  1       21 0.43408454E-01 0.30232656E+03</pdfrwt>
<totfact> 0.18495751E+04</totfact>
</mgrwt>
</event>
<event>
 4    1  0.4332500E+000  0.2190874E+03  0.7546771E-02  0.1134565E+00
         21   -1    0    0  501  502  0.00000000000E+00  0.00000000000E+00  0.40355926783E+02  0.40355926783E+02  0.00000000000E+00 0. -1.
         21   -1    0    0  502  503 -0.00000000000E+00 -0.00000000000E+00 -0.19705225974E+04  0.19705225974E+04  0.00000000000E+00 0. -1.
          6    1    1    2  501    0 -0.11287984677E+03 -0.72996118215E+02 -0.33205223088E+03  0.39781651187E+03  0.17300000000E+03 0. -1.
         -6    1    1    2    0  503  0.11287984677E+03  0.72996118215E+02 -0.15981144397E+04  0.16130620123E+04  0.17300000000E+03 0. -1.
<mgrwt>
<rscale>  2 0.21908741E+03</rscale>
<asrwt>0</asrwt>
<pdfrwt beam="1">  1       21 0.62086046E-02 0.21908741E+03</pdfrwt>
<pdfrwt beam="2">  1       21 0.30315730E+00 0.21908741E+03</pdfrwt>
<totfact> 0.59155434E+03</totfact>
</mgrwt>
</event>
<event>
 4    1  0.4332500E+000  0.2019628E+03  0.7546771E-02  0.1148094E+00
         21   -1    0    0  501  502  0.00000000000E+00  0.00000000000E+00  0.51646101051E+02  0.51646101051E+02  0.00000000000E+00 0. -1.
         21   -1    0    0  502  503 -0.00000000000E+00 -0.00000000000E+00 -0.97020322685E+03  0.97020322685E+03  0.00000000000E+00 0.  1.
          6    1    1    2  501    0 -0.85669647041E+01 -0.10385837763E+03 -0.23894831903E+03  0.31286619290E+03  0.17300000000E+03 0. -1.
         -6    1    1    2    0  503  0.85669647041E+01  0.10385837763E+03 -0.67960880676E+03  0.70898313500E+03  0.17300000000E+03 0.  1.
<mgrwt>
<rscale>  2 0.20196276E+03</rscale>
<asrwt>0</asrwt>
<pdfrwt beam="1">  1       21 0.79455534E-02 0.20196276E+03</pdfrwt>
<pdfrwt beam="2">  1       21 0.14926205E+00 0.20196276E+03</pdfrwt>
<totfact> 0.36565490E+04</totfact>
</mgrwt>
</event>
<event>
 4    1  0.4332500E+000  0.1872841E+03  0.7546771E-02  0.1160934E+00
         21   -1    0    0  501  502  0.00000000000E+00  0.00000000000E+00  0.10462788510E+03  0.10462788510E+03  0.00000000000E+00 0.  1.
         21   -1    0    0  502  503 -0.00000000000E+00 -0.00000000000E+00 -0.10149327243E+04  0.10149327243E+04  0.00000000000E+00 0.  1.
          6    1    1    2  501    0  0.51753188194E+02  0.49678359935E+02  0.29426991558E+01  0.18730721132E+03  0.17300000000E+03 0.  1.
         -6    1    1    2    0  503 -0.51753188194E+02 -0.49678359935E+02 -0.91324753833E+03  0.93225339806E+03  0.17300000000E+03 0.  1.
<mgrwt>
<rscale>  2 0.18728409E+03</rscale>
<asrwt>0</asrwt>
<pdfrwt beam="1">  1       21 0.16096599E-01 0.18728409E+03</pdfrwt>
<pdfrwt beam="2">  1       21 0.15614349E+00 0.18728409E+03</pdfrwt>
<totfact> 0.93067893E+03</totfact>
</mgrwt>
</event>
<event>
 4    1  0.4332500E+000  0.1938997E+03  0.7546771E-02  0.1154990E+00
         21   -1    0    0  503  502  0.00000000000E+00  0.00000000000E+00  0.14142952317E+03  0.14142952317E+03  0.00000000000E+00 0.  1.
         21   -1    0    0  501  503 -0.00000000000E+00 -0.00000000000E+00 -0.52751369605E+03  0.52751369605E+03  0.00000000000E+00 0.  1.
          6    1    1    2  501    0  0.17284796819E+01  0.87550578164E+02 -0.42861510793E+03  0.47043384458E+03  0.17300000000E+03 0.  1.
         -6    1    1    2    0  502 -0.17284796819E+01 -0.87550578164E+02  0.42530935054E+02  0.19850937463E+03  0.17300000000E+03 0.  1.
<mgrwt>
<rscale>  2 0.19389969E+03</rscale>
<asrwt>0</asrwt>
<pdfrwt beam="1">  1       21 0.21758388E-01 0.19389969E+03</pdfrwt>
<pdfrwt beam="2">  1       21 0.81155953E-01 0.19389969E+03</pdfrwt>
<totfact> 0.26223378E+04</totfact>
</mgrwt>
</event>
<event>
 4    1  0.4332500E+000  0.2129376E+03  0.7546771E-02  0.1139261E+00
         21   -1    0    0  501  502  0.00000000000E+00  0.00000000000E+00  0.47801223586E+03  0.47801223586E+03  0.00000000000E+00 0.  1.
         21   -1    0    0  502  503 -0.00000000000E+00 -0.00000000000E+00 -0.10184177244E+03  0.10184177244E+03  0.00000000000E+00 0.  1.
          6    1    1    2  501    0 -0.41091564254E+02  0.11715339739E+03  0.11215303169E+03  0.24066727590E+03  0.17300000000E+03 0.  1.
         -6    1    1    2    0  503  0.41091564254E+02 -0.11715339739E+03  0.26401743173E+03  0.33918673239E+03  0.17300000000E+03 0.  1.
<mgrwt>
<rscale>  2 0.21293763E+03</rscale>
<asrwt>0</asrwt>
<pdfrwt beam="1">  1       21 0.73540343E-01 0.21293763E+03</pdfrwt>
<pdfrwt beam="2">  1       21 0.15667965E-01 0.21293763E+03</pdfrwt>
<totfact> 0.59615024E+04</totfact>
</mgrwt>
</event>
<event>
 4    1  0.4332500E+000  0.2137860E+03  0.7546771E-02  0.1138603E+00
         21   -1    0    0  503  502  0.00000000000E+00  0.00000000000E+00  0.52244139505E+03  0.52244139505E+03  0.00000000000E+00 0.  1.
         21   -1    0    0  501  503 -0.00000000000E+00 -0.00000000000E+00 -0.89824226106E+02  0.89824226106E+02  0.00000000000E+00 0.  1.
          6    1    1    2  501    0 -0.12479388742E+03  0.14210002363E+02  0.16687883221E+03  0.27120653227E+03  0.17300000000E+03 0. -1.
         -6    1    1    2    0  502  0.12479388742E+03 -0.14210002363E+02  0.26573833673E+03  0.34105908889E+03  0.17300000000E+03 0. -1.
<mgrwt>
<rscale>  2 0.21378596E+03</rscale>
<asrwt>0</asrwt>
<pdfrwt beam="1">  1       21 0.80375598E-01 0.21378596E+03</pdfrwt>
<pdfrwt beam="2">  1       21 0.13819112E-01 0.21378596E+03</pdfrwt>
<totfact> 0.61341181E+04</totfact>
</mgrwt>
</event>
<event>
 4    1  0.4332500E+000  0.2573693E+03  0.7546771E-02  0.1108734E+00
         21   -1    0    0  503  502  0.00000000000E+00  0.00000000000E+00  0.77773950437E+02  0.77773950437E+02  0.00000000000E+00 0. -1.
         21   -1    0    0  501  503 -0.00000000000E+00 -0.00000000000E+00 -0.10845646553E+04  0.10845646553E+04  0.00000000000E+00 0.  1.
          6    1    1    2  501    0 -0.16449863405E+03  0.96177620828E+02 -0.77269784806E+03  0.81443287001E+03  0.17300000000E+03 0.  1.
         -6    1    1    2    0  502  0.16449863405E+03 -0.96177620828E+02 -0.23409285682E+03  0.34790573575E+03  0.17300000000E+03 0. -1.
<mgrwt>
<rscale>  2 0.25736926E+03</rscale>
<asrwt>0</asrwt>
<pdfrwt beam="1">  1       21 0.11965224E-01 0.25736926E+03</pdfrwt>
<pdfrwt beam="2">  1       21 0.16685609E+00 0.25736926E+03</pdfrwt>
<totfact> 0.12685962E+04</totfact>
</mgrwt>
</event>
<event>
 4    1  0.4332500E+000  0.5408600E+03  0.7546771E-02  0.1003632E+00
         21   -1    0    0  501  502  0.00000000000E+00  0.00000000000E+00  0.29723462572E+03  0.29723462572E+03  0.00000000000E+00 0. -1.
         21   -1    0    0  502  503 -0.00000000000E+00 -0.00000000000E+00 -0.13972945036E+04  0.13972945036E+04  0.00000000000E+00 0.  1.
          6    1    1    2  501    0  0.40234183166E+02  0.51086374766E+03 -0.89333061726E+02  0.54818788211E+03  0.17300000000E+03 0.  1.
         -6    1    1    2    0  503 -0.40234183166E+02 -0.51086374766E+03 -0.10107268162E+04  0.11463412472E+04  0.17300000000E+03 0. -1.
<mgrwt>
<rscale>  2 0.54086002E+03</rscale>
<asrwt>0</asrwt>
<pdfrwt beam="1">  1       21 0.45728402E-01 0.54086002E+03</pdfrwt>
<pdfrwt beam="2">  1       21 0.21496839E+00 0.54086002E+03</pdfrwt>
<totfact> 0.38773218E+02</totfact>
</mgrwt>
</event>
<event>
 4    1  0.4332500E+000  0.2713587E+03  0.7546771E-02  0.1100504E+00
         21   -1    0    0  501  502  0.00000000000E+00  0.00000000000E+00  0.85760851295E+02  0.85760851295E+02  0.00000000000E+00 0. -1.
         21   -1    0    0  502  503 -0.00000000000E+00 -0.00000000000E+00 -0.85880337852E+03  0.85880337852E+03  0.00000000000E+00 0. -1.
          6    1    1    2  501    0 -0.13278531813E+03 -0.16147635602E+03 -0.37952674477E+03  0.46655771804E+03  0.17300000000E+03 0. -1.
         -6    1    1    2    0  503  0.13278531813E+03  0.16147635602E+03 -0.39351578245E+03  0.47800651178E+03  0.17300000000E+03 0. -1.
<mgrwt>
<rscale>  2 0.27135872E+03</rscale>
<asrwt>0</asrwt>
<pdfrwt beam="1">  1       21 0.13193977E-01 0.27135872E+03</pdfrwt>
<pdfrwt beam="2">  1       21 0.13212360E+00 0.27135872E+03</pdfrwt>
<totfact> 0.19638308E+04</totfact>
</mgrwt>
</event>
<event>
 4    1  0.4332500E+000  0.2155750E+03  0.7546771E-02  0.1137226E+00
         21   -1    0    0  501  502  0.00000000000E+00  0.00000000000E+00  0.88676426686E+02  0.88676426686E+02  0.00000000000E+00 0. -1.
         21   -1    0    0  502  503 -0.00000000000E+00 -0.00000000000E+00 -0.15811519008E+04  0.15811519008E+04  0.00000000000E+00 0. -1.
          6    1    1    2  501    0 -0.12472009921E+03  0.31439732977E+02 -0.63569699224E+02  0.22475245631E+03  0.17300000000E+03 0. -1.
         -6    1    1    2    0  503  0.12472009921E+03 -0.31439732977E+02 -0.14289057749E+04  0.14450758712E+04  0.17300000000E+03 0. -1.
<mgrwt>
<rscale>  2 0.21557495E+03</rscale>
<asrwt>0</asrwt>
<pdfrwt beam="1">  1       21 0.13642528E-01 0.21557495E+03</pdfrwt>
<pdfrwt beam="2">  1       21 0.24325413E+00 0.21557495E+03</pdfrwt>
<totfact> 0.33165075E+03</totfact>
</mgrwt>
</event>
<event>
 4    1  0.4332500E+000  0.1930968E+03  0.7546771E-02  0.1155697E+00
         21   -1    0    0  503  502  0.00000000000E+00  0.00000000000E+00  0.89698293569E+02  0.89698293569E+02  0.00000000000E+00 0.  1.
         21   -1    0    0  501  503 -0.00000000000E+00 -0.00000000000E+00 -0.12126749903E+04  0.12126749903E+04  0.00000000000E+00 0.  1.
          6    1    1    2  501    0  0.83718700339E+02  0.18669741006E+02 -0.10893975916E+04  0.11063785485E+04  0.17300000000E+03 0.  1.
         -6    1    1    2    0  502 -0.83718700339E+02 -0.18669741006E+02 -0.33579105218E+02  0.19599473545E+03  0.17300000000E+03 0.  1.
<mgrwt>
<rscale>  2 0.19309682E+03</rscale>
<asrwt>0</asrwt>
<pdfrwt beam="1">  1       21 0.13799739E-01 0.19309682E+03</pdfrwt>
<pdfrwt beam="2">  1       21 0.18656537E+00 0.19309682E+03</pdfrwt>
<totfact> 0.74985084E+03</totfact>
</mgrwt>
</event>
<event>
 4    1  0.4332500E+000  0.2475249E+03  0.7546771E-02  0.1114879E+00
         21   -1    0    0  501  502  0.00000000000E+00  0.00000000000E+00  0.16165587559E+03  0.16165587559E+03  0.00000000000E+00 0. -1.
         21   -1    0    0  502  503 -0.00000000000E+00 -0.00000000000E+00 -0.10101064355E+04  0.10101064355E+04  0.00000000000E+00 0. -1.
          6    1    1    2  501    0 -0.12822250610E+03 -0.12205968761E+03  0.38875095453E+02  0.25055907778E+03  0.17300000000E+03 0. -1.
         -6    1    1    2    0  503  0.12822250610E+03  0.12205968761E+03 -0.88732565537E+03  0.92120323332E+03  0.17300000000E+03 0. -1.
<mgrwt>
<rscale>  2 0.24752490E+03</rscale>
<asrwt>0</asrwt>
<pdfrwt beam="1">  1       21 0.24870135E-01 0.24752490E+03</pdfrwt>
<pdfrwt beam="2">  1       21 0.15540099E+00 0.24752490E+03</pdfrwt>
<totfact> 0.39869094E+03</totfact>
</mgrwt>
</event>
<event>
 4    1  0.4332500E+000  0.2221996E+03  0.7546771E-02  0.1132254E+00
         21   -1    0    0  501  502  0.00000000000E+00  0.00000000000E+00  0.43250627328E+02  0.43250627328E+02  0.00000000000E+00 0. -1.
         21   -1    0    0  502  503 -0.00000000000E+00 -0.00000000000E+00 -0.13362088338E+04  0.13362088338E+04  0.00000000000E+00 0.  1.
          6    1    1    2  501    0 -0.61395390108E+02  0.12519692061E+03 -0.38322134609E+03  0.44297998031E+03  0.17300000000E+03 0. -1.
         -6    1    1    2    0  503  0.61395390108E+02 -0.12519692061E+03 -0.90973686041E+03  0.93647948085E+03  0.17300000000E+03 0.  1.
<mgrwt>
<rscale>  2 0.22219960E+03</rscale>
<asrwt>0</asrwt>
<pdfrwt beam="1">  1       21 0.66539433E-02 0.22219960E+03</pdfrwt>
<pdfrwt beam="2">  1       21 0.20557057E+00 0.22219960E+03</pdfrwt>
<totfact> 0.19984440E+04</totfact>
</mgrwt>
</event>
<event>
 4    1  0.4332500E+000  0.2110229E+03  0.7546771E-02  0.1140758E+00
         21   -1    0    0  503  502  0.00000000000E+00  0.00000000000E+00  0.19810403217E+04  0.19810403217E+04  0.00000000000E+00 0. -1.
         21   -1    0    0  501  503 -0.00000000000E+00 -0.00000000000E+00 -0.26200419151E+02  0.26200419151E+02  0.00000000000E+00 0. -1.
          6    1    1    2  501    0  0.26124905449E+02 -0.11797950668E+03  0.59914904136E+03  0.63522456536E+03  0.17300000000E+03 0. -1.
         -6    1    1    2    0  502 -0.26124905449E+02  0.11797950668E+03  0.13556908611E+04  0.13720161754E+04  0.17300000000E+03 0. -1.
<mgrwt>
<rscale>  2 0.21102292E+03</rscale>
<asrwt>0</asrwt>
<pdfrwt beam="1">  1       21 0.30477532E+00 0.21102292E+03</pdfrwt>
<pdfrwt beam="2">  1       21 0.40308353E-02 0.21102292E+03</pdfrwt>
<totfact> 0.12163207E+04</totfact>
</mgrwt>
</event>
<event>
 4    1  0.4332500E+000  0.2341248E+03  0.7546771E-02  0.1123770E+00
         21   -1    0    0  501  502  0.00000000000E+00  0.00000000000E+00  0.78102268545E+03  0.78102268545E+03  0.00000000000E+00 0. -1.
         21   -1    0    0  502  503 -0.00000000000E+00 -0.00000000000E+00 -0.82142784883E+02  0.82142784883E+02  0.00000000000E+00 0. -1.
          6    1    1    2  501    0  0.10040076651E+03  0.12167620802E+03  0.51412091338E+03  0.56492010682E+03  0.17300000000E+03 0. -1.
         -6    1    1    2    0  503 -0.10040076651E+03 -0.12167620802E+03  0.18475898719E+03  0.29824536352E+03  0.17300000000E+03 0. -1.
<mgrwt>
<rscale>  2 0.23412478E+03</rscale>
<asrwt>0</asrwt>
<pdfrwt beam="1">  1       21 0.12015733E+00 0.23412478E+03</pdfrwt>
<pdfrwt beam="2">  1       21 0.12637352E-01 0.23412478E+03</pdfrwt>
<totfact> 0.27499524E+04</totfact>
</mgrwt>
</event>
<event>
 4    1  0.4332500E+000  0.1831567E+03  0.7546771E-02  0.1164783E+00
         21   -1    0    0  503  502  0.00000000000E+00  0.00000000000E+00  0.47376075642E+03  0.47376075642E+03  0.00000000000E+00 0.  1.
         21   -1    0    0  501  503 -0.00000000000E+00 -0.00000000000E+00 -0.74375957607E+02  0.74375957607E+02  0.00000000000E+00 0.  1.
          6    1    1    2  501    0  0.22926485041E+02  0.55603383198E+02  0.25971472876E+03  0.31780198280E+03  0.17300000000E+03 0.  1.
         -6    1    1    2    0  502 -0.22926485041E+02 -0.55603383198E+02  0.13967007006E+03  0.23033473123E+03  0.17300000000E+03 0.  1.
<mgrwt>
<rscale>  2 0.18315665E+03</rscale>
<asrwt>0</asrwt>
<pdfrwt beam="1">  1       21 0.72886269E-01 0.18315665E+03</pdfrwt>
<pdfrwt beam="2">  1       21 0.11442455E-01 0.18315665E+03</pdfrwt>
<totfact> 0.10863941E+05</totfact>
</mgrwt>
</event>
<event>
 4    1  0.4332500E+000  0.3084026E+03  0.7546771E-02  0.1081114E+00
         21   -1    0    0  501  502  0.00000000000E+00  0.00000000000E+00  0.36433342319E+03  0.36433342319E+03  0.00000000000E+00 0.  1.
         21   -1    0    0  502  503 -0.00000000000E+00 -0.00000000000E+00 -0.27231408466E+03  0.27231408466E+03  0.00000000000E+00 0.  1.
          6    1    1    2  501    0 -0.22347069959E+03  0.12346653679E+03  0.11072817660E+03  0.32767799495E+03  0.17300000000E+03 0.  1.
         -6    1    1    2    0  503  0.22347069959E+03 -0.12346653679E+03 -0.18708838068E+02  0.30896951290E+03  0.17300000000E+03 0.  1.
<mgrwt>
<rscale>  2 0.30840256E+03</rscale>
<asrwt>0</asrwt>
<pdfrwt beam="1">  1       21 0.56051296E-01 0.30840256E+03</pdfrwt>
<pdfrwt beam="2">  1       21 0.41894474E-01 0.30840256E+03</pdfrwt>
<totfact> 0.15491352E+04</totfact>
</mgrwt>
</event>
<event>
 4    1  0.4332500E+000  0.2940306E+03  0.7546771E-02  0.1088263E+00
         21   -1    0    0  501  502  0.00000000000E+00  0.00000000000E+00  0.27550516306E+03  0.27550516306E+03  0.00000000000E+00 0.  1.
         21   -1    0    0  502  503 -0.00000000000E+00 -0.00000000000E+00 -0.12221482606E+04  0.12221482606E+04  0.00000000000E+00 0.  1.
          6    1    1    2  501    0 -0.14584385419E+03 -0.18776193660E+03  0.17225118755E+03  0.34077037174E+03  0.17300000000E+03 0.  1.
         -6    1    1    2    0  503  0.14584385419E+03  0.18776193660E+03 -0.11188942851E+04  0.11568830519E+04  0.17300000000E+03 0.  1.
<mgrwt>
<rscale>  2 0.29403057E+03</rscale>
<asrwt>0</asrwt>
<pdfrwt beam="1">  1       21 0.42385409E-01 0.29403057E+03</pdfrwt>
<pdfrwt beam="2">  1       21 0.18802281E+00 0.29403057E+03</pdfrwt>
<totfact> 0.78427417E+02</totfact>
</mgrwt>
</event>
<event>
 4    1  0.4332500E+000  0.1775036E+03  0.7546771E-02  0.1170241E+00
         21   -1    0    0  503  502  0.00000000000E+00  0.00000000000E+00  0.11130623377E+04  0.11130623377E+04  0.00000000000E+00 0.  1.
         21   -1    0    0  501  503 -0.00000000000E+00 -0.00000000000E+00 -0.38698525528E+02  0.38698525528E+02  0.00000000000E+00 0.  1.
          6    1    1    2  501    0  0.31831777655E+02 -0.23775534193E+02  0.23876514115E+03  0.29751694191E+03  0.17300000000E+03 0.  1.
         -6    1    1    2    0  502 -0.31831777655E+02  0.23775534193E+02  0.83559867102E+03  0.85424392132E+03  0.17300000000E+03 0.  1.
<mgrwt>
<rscale>  2 0.17750363E+03</rscale>
<asrwt>0</asrwt>
<pdfrwt beam="1">  1       21 0.17124034E+00 0.17750363E+03</pdfrwt>
<pdfrwt beam="2">  1       21 0.59536202E-02 0.17750363E+03</pdfrwt>
<totfact> 0.42187892E+04</totfact>
</mgrwt>
</event>
<event>
 4    1  0.4332500E+000  0.2083549E+03  0.7546771E-02  0.1142875E+00
         21   -1    0    0  501  502  0.00000000000E+00  0.00000000000E+00  0.48466105424E+03  0.48466105424E+03  0.00000000000E+00 0.  1.
         21   -1    0    0  502  503 -0.00000000000E+00 -0.00000000000E+00 -0.89623764517E+02  0.89623764517E+02  0.00000000000E+00 0.  1.
          6    1    1    2  501    0 -0.11185129089E+03  0.31178008645E+02  0.20445794692E+03  0.29191579531E+03  0.17300000000E+03 0.  1.
         -6    1    1    2    0  503  0.11185129089E+03 -0.31178008645E+02  0.19057934281E+03  0.28236902344E+03  0.17300000000E+03 0.  1.
<mgrwt>
<rscale>  2 0.20835494E+03</rscale>
<asrwt>0</asrwt>
<pdfrwt beam="1">  1       21 0.74563238E-01 0.20835494E+03</pdfrwt>
<pdfrwt beam="2">  1       21 0.13788272E-01 0.20835494E+03</pdfrwt>
<totfact> 0.73107317E+04</totfact>
</mgrwt>
</event>
<event>
 4    1  0.4332500E+000  0.1907592E+03  0.7546771E-02  0.1157778E+00
         21   -1    0    0  501  502  0.00000000000E+00  0.00000000000E+00  0.97014780426E+03  0.97014780426E+03  0.00000000000E+00 0. -1.
         21   -1    0    0  502  503 -0.00000000000E+00 -0.00000000000E+00 -0.39697681589E+02  0.39697681589E+02  0.00000000000E+00 0. -1.
          6    1    1    2  501    0 -0.70685511839E+02  0.38257308480E+02  0.58378970630E+03  0.61416568157E+03  0.17300000000E+03 0.  1.
         -6    1    1    2    0  503  0.70685511839E+02 -0.38257308480E+02  0.34666041638E+03  0.39567980429E+03  0.17300000000E+03 0.  1.
<mgrwt>
<rscale>  2 0.19075918E+03</rscale>
<asrwt>0</asrwt>
<pdfrwt beam="1">  1       21 0.14925349E+00 0.19075918E+03</pdfrwt>
<pdfrwt beam="2">  1       21 0.61073363E-02 0.19075918E+03</pdfrwt>
<totfact> 0.57989911E+04</totfact>
</mgrwt>
</event>
<event>
 4    1  0.4332500E+000  0.1912649E+03  0.7546771E-02  0.1157325E+00
         21   -1    0    0  503  502  0.00000000000E+00  0.00000000000E+00  0.20424334291E+03  0.20424334291E+03  0.00000000000E+00 0. -1.
         21   -1    0    0  501  503 -0.00000000000E+00 -0.00000000000E+00 -0.38885277114E+03  0.38885277114E+03  0.00000000000E+00 0. -1.
          6    1    1    2  501    0 -0.79302447075E+02 -0.19088388560E+02 -0.31009819282E+03  0.36433931147E+03  0.17300000000E+03 0. -1.
         -6    1    1    2    0  502  0.79302447075E+02  0.19088388560E+02  0.12548876459E+03  0.22875680258E+03  0.17300000000E+03 0. -1.
<mgrwt>
<rscale>  2 0.19126485E+03</rscale>
<asrwt>0</asrwt>
<pdfrwt beam="1">  1       21 0.31422053E-01 0.19126485E+03</pdfrwt>
<pdfrwt beam="2">  1       21 0.59823503E-01 0.19126485E+03</pdfrwt>
<totfact> 0.25403921E+04</totfact>
</mgrwt>
</event>
<event>
 4    1  0.4332500E+000  0.2174696E+03  0.7546771E-02  0.1135784E+00
         21   -1    0    0  503  502  0.00000000000E+00  0.00000000000E+00  0.41720561173E+03  0.41720561173E+03  0.00000000000E+00 0. -1.
         21   -1    0    0  501  503 -0.00000000000E+00 -0.00000000000E+00 -0.11849249313E+03  0.11849249313E+03  0.00000000000E+00 0. -1.
          6    1    1    2  501    0 -0.46518542528E+02  0.12328846513E+03  0.93592858065E+02  0.23675439492E+03  0.17300000000E+03 0. -1.
         -6    1    1    2    0  502  0.46518542528E+02 -0.12328846513E+03  0.20512026053E+03  0.29894370994E+03  0.17300000000E+03 0. -1.
<mgrwt>
<rscale>  2 0.21746959E+03</rscale>
<asrwt>0</asrwt>
<pdfrwt beam="1">  1       21 0.64185478E-01 0.21746959E+03</pdfrwt>
<pdfrwt beam="2">  1       21 0.18229614E-01 0.21746959E+03</pdfrwt>
<totfact> 0.60739075E+04</totfact>
</mgrwt>
</event>
<event>
 4    1  0.4332500E+000  0.1909741E+03  0.7546771E-02  0.1157586E+00
         21   -1    0    0  501  502  0.00000000000E+00  0.00000000000E+00  0.34738606070E+03  0.34738606070E+03  0.00000000000E+00 0. -1.
         21   -1    0    0  502  503 -0.00000000000E+00 -0.00000000000E+00 -0.10801992457E+03  0.10801992457E+03  0.00000000000E+00 0. -1.
          6    1    1    2  501    0 -0.72492500393E+02  0.35873757299E+02  0.81529650592E+02  0.20764915844E+03  0.17300000000E+03 0. -1.
         -6    1    1    2    0  503  0.72492500393E+02 -0.35873757299E+02  0.15783648554E+03  0.24775682683E+03  0.17300000000E+03 0. -1.
<mgrwt>
<rscale>  2 0.19097405E+03</rscale>
<asrwt>0</asrwt>
<pdfrwt beam="1">  1       21 0.53444009E-01 0.19097405E+03</pdfrwt>
<pdfrwt beam="2">  1       21 0.16618450E-01 0.19097405E+03</pdfrwt>
<totfact> 0.10786199E+05</totfact>
</mgrwt>
</event>
<event>
 4    1  0.4332500E+000  0.2077677E+03  0.7546771E-02  0.1143346E+00
         21   -1    0    0  503  502  0.00000000000E+00  0.00000000000E+00  0.17887006601E+03  0.17887006601E+03  0.00000000000E+00 0. -1.
         21   -1    0    0  501  503 -0.00000000000E+00 -0.00000000000E+00 -0.51526910600E+03  0.51526910600E+03  0.00000000000E+00 0. -1.
          6    1    1    2  501    0  0.11505558687E+03  0.79380670007E+00 -0.42125945818E+03  0.46970943072E+03  0.17300000000E+03 0. -1.
         -6    1    1    2    0  502 -0.11505558687E+03 -0.79380670007E+00  0.84860418191E+02  0.22442974129E+03  0.17300000000E+03 0. -1.
<mgrwt>
<rscale>  2 0.20776770E+03</rscale>
<asrwt>0</asrwt>
<pdfrwt beam="1">  1       21 0.27518472E-01 0.20776770E+03</pdfrwt>
<pdfrwt beam="2">  1       21 0.79272170E-01 0.20776770E+03</pdfrwt>
<totfact> 0.17524009E+04</totfact>
</mgrwt>
</event>
<event>
 4    1  0.4332500E+000  0.1925773E+03  0.7546771E-02  0.1156157E+00
         21   -1    0    0  501  502  0.00000000000E+00  0.00000000000E+00  0.10948071304E+03  0.10948071304E+03  0.00000000000E+00 0.  1.
         21   -1    0    0  502  503 -0.00000000000E+00 -0.00000000000E+00 -0.39040356027E+03  0.39040356027E+03  0.00000000000E+00 0.  1.
          6    1    1    2  501    0  0.75258095588E+02  0.38642222782E+02 -0.49542277669E+02  0.19884778000E+03  0.17300000000E+03 0. -1.
         -6    1    1    2    0  503 -0.75258095588E+02 -0.38642222782E+02 -0.23138056957E+03  0.30103649331E+03  0.17300000000E+03 0. -1.
<mgrwt>
<rscale>  2 0.19257726E+03</rscale>
<asrwt>0</asrwt>
<pdfrwt beam="1">  1       21 0.16843187E-01 0.19257726E+03</pdfrwt>
<pdfrwt beam="2">  1       21 0.60062086E-01 0.19257726E+03</pdfrwt>
<totfact> 0.82052332E+04</totfact>
</mgrwt>
</event>
<event>
 4    1  0.4332500E+000  0.2167232E+03  0.7546771E-02  0.1136350E+00
         21   -1    0    0  501  502  0.00000000000E+00  0.00000000000E+00  0.73826712711E+03  0.73826712711E+03  0.00000000000E+00 0.  1.
         21   -1    0    0  502  503 -0.00000000000E+00 -0.00000000000E+00 -0.10050092483E+03  0.10050092483E+03  0.00000000000E+00 0. -1.
          6    1    1    2  501    0  0.12951334968E+03  0.16316538965E+02  0.57293632236E+03  0.61255609267E+03  0.17300000000E+03 0.  1.
         -6    1    1    2    0  503 -0.12951334968E+03 -0.16316538965E+02  0.64829879920E+02  0.22621195928E+03  0.17300000000E+03 0. -1.
<mgrwt>
<rscale>  2 0.21672318E+03</rscale>
<asrwt>0</asrwt>
<pdfrwt beam="1">  1       21 0.11357955E+00 0.21672318E+03</pdfrwt>
<pdfrwt beam="2">  1       21 0.15461681E-01 0.21672318E+03</pdfrwt>
<totfact> 0.22105603E+04</totfact>
</mgrwt>
</event>
<event>
 4    1  0.4332500E+000  0.1779113E+03  0.7546771E-02  0.1169840E+00
         21   -1    0    0  501  502  0.00000000000E+00  0.00000000000E+00  0.26055630911E+03  0.26055630911E+03  0.00000000000E+00 0. -1.
         21   -1    0    0  502  503 -0.00000000000E+00 -0.00000000000E+00 -0.29641942335E+03  0.29641942335E+03  0.00000000000E+00 0. -1.
          6    1    1    2  501    0 -0.96791863872E+01  0.40370242727E+02  0.19601066146E+03  0.26471233926E+03  0.17300000000E+03 0. -1.
         -6    1    1    2    0  503  0.96791863872E+01 -0.40370242727E+02 -0.23187377571E+03  0.29226339320E+03  0.17300000000E+03 0. -1.
<mgrwt>
<rscale>  2 0.17791134E+03</rscale>
<asrwt>0</asrwt>
<pdfrwt beam="1">  1       21 0.40085586E-01 0.17791134E+03</pdfrwt>
<pdfrwt beam="2">  1       21 0.45602988E-01 0.17791134E+03</pdfrwt>
<totfact> 0.27879395E+04</totfact>
</mgrwt>
</event>
<event>
 4    1  0.4332500E+000  0.3137973E+03  0.7546771E-02  0.1078540E+00
         21   -1    0    0  501  502  0.00000000000E+00  0.00000000000E+00  0.45807534877E+03  0.45807534877E+03  0.00000000000E+00 0.  1.
         21   -1    0    0  502  503 -0.00000000000E+00 -0.00000000000E+00 -0.23121376402E+03  0.23121376402E+03  0.00000000000E+00 0. -1.
          6    1    1    2  501    0  0.16916624259E+03  0.19980618598E+03  0.20480354082E+03  0.37471752017E+03  0.17300000000E+03 0.  1.
         -6    1    1    2    0  503 -0.16916624259E+03 -0.19980618598E+03  0.22058043925E+02  0.31457159263E+03  0.17300000000E+03 0.  1.
<mgrwt>
<rscale>  2 0.31379727E+03</rscale>
<asrwt>0</asrwt>
<pdfrwt beam="1">  1       21 0.70473130E-01 0.31379727E+03</pdfrwt>
<pdfrwt beam="2">  1       21 0.35571348E-01 0.31379727E+03</pdfrwt>
<totfact> 0.13055494E+04</totfact>
</mgrwt>
</event>
<event>
 4    1  0.4332500E+000  0.2085875E+03  0.7546771E-02  0.1142689E+00
         21   -1    0    0  501  502  0.00000000000E+00  0.00000000000E+00  0.94870096152E+03  0.94870096152E+03  0.00000000000E+00 0. -1.
         21   -1    0    0  502  503 -0.00000000000E+00 -0.00000000000E+00 -0.96061043758E+02  0.96061043758E+02  0.00000000000E+00 0. -1.
          6    1    1    2  501    0 -0.68051087204E+01 -0.11633331875E+03  0.80394784594E+03  0.83056660753E+03  0.17300000000E+03 0. -1.
         -6    1    1    2    0  503  0.68051087204E+01  0.11633331875E+03  0.48692071819E+02  0.21419539774E+03  0.17300000000E+03 0. -1.
<mgrwt>
<rscale>  2 0.20858751E+03</rscale>
<asrwt>0</asrwt>
<pdfrwt beam="1">  1       21 0.14595399E+00 0.20858751E+03</pdfrwt>
<pdfrwt beam="2">  1       21 0.14778623E-01 0.20858751E+03</pdfrwt>
<totfact> 0.12796198E+04</totfact>
</mgrwt>
</event>
<event>
 4    1  0.4332500E+000  0.1830689E+03  0.7546771E-02  0.1164866E+00
         21   -1    0    0  503  502  0.00000000000E+00  0.00000000000E+00  0.17220478575E+03  0.17220478575E+03  0.00000000000E+00 0.  1.
         21   -1    0    0  501  503 -0.00000000000E+00 -0.00000000000E+00 -0.44449642374E+03  0.44449642374E+03  0.00000000000E+00 0.  1.
          6    1    1    2  501    0 -0.59519508828E+02  0.65293174683E+01 -0.36733887235E+03  0.41042910600E+03  0.17300000000E+03 0.  1.
         -6    1    1    2    0  502  0.59519508828E+02 -0.65293174683E+01  0.95047234363E+02  0.20627210349E+03  0.17300000000E+03 0.  1.
<mgrwt>
<rscale>  2 0.18306885E+03</rscale>
<asrwt>0</asrwt>
<pdfrwt beam="1">  1       21 0.26493045E-01 0.18306885E+03</pdfrwt>
<pdfrwt beam="2">  1       21 0.68384064E-01 0.18306885E+03</pdfrwt>
<totfact> 0.26581431E+04</totfact>
</mgrwt>
</event>
<event>
 4    1  0.4332500E+000  0.2011028E+03  0.7546771E-02  0.1148812E+00
         21   -1    0    0  501  502  0.00000000000E+00  0.00000000000E+00  0.40343661945E+02  0.40343661945E+02  0.00000000000E+00 0.  1.
         21   -1    0    0  502  503 -0.00000000000E+00 -0.00000000000E+00 -0.10351515674E+04  0.10351515674E+04  0.00000000000E+00 0.  1.
          6    1    1    2  501    0 -0.83936751505E+02 -0.58889396682E+02 -0.40181935887E+03  0.44933410338E+03  0.17300000000E+03 0.  1.
         -6    1    1    2    0  503  0.83936751505E+02  0.58889396682E+02 -0.59298854661E+03  0.62616112599E+03  0.17300000000E+03 0.  1.
<mgrwt>
<rscale>  2 0.20110281E+03</rscale>
<asrwt>0</asrwt>
<pdfrwt beam="1">  1       21 0.62067176E-02 0.20110281E+03</pdfrwt>
<pdfrwt beam="2">  1       21 0.15925408E+00 0.20110281E+03</pdfrwt>
<totfact> 0.47188260E+04</totfact>
</mgrwt>
</event>
<event>
 4    1  0.4332500E+000  0.1938565E+03  0.7546771E-02  0.1155028E+00
         21   -1    0    0  501  502  0.00000000000E+00  0.00000000000E+00  0.20628241964E+03  0.20628241964E+03  0.00000000000E+00 0. -1.
         21   -1    0    0  502  503 -0.00000000000E+00 -0.00000000000E+00 -0.64090370369E+03  0.64090370369E+03  0.00000000000E+00 0. -1.
          6    1    1    2  501    0 -0.46447841716E+02  0.74121158611E+02  0.14105672702E+03  0.23974433964E+03  0.17300000000E+03 0. -1.
         -6    1    1    2    0  503  0.46447841716E+02 -0.74121158611E+02 -0.57567801106E+03  0.60744178369E+03  0.17300000000E+03 0. -1.
<mgrwt>
<rscale>  2 0.19385651E+03</rscale>
<asrwt>0</asrwt>
<pdfrwt beam="1">  1       21 0.31735757E-01 0.19385651E+03</pdfrwt>
<pdfrwt beam="2">  1       21 0.98600568E-01 0.19385651E+03</pdfrwt>
<totfact> 0.80961175E+03</totfact>
</mgrwt>
</event>
<event>
 4    1  0.4332500E+000  0.2650362E+03  0.7546771E-02  0.1104155E+00
         21   -1    0    0  503  502  0.00000000000E+00  0.00000000000E+00  0.77720057505E+02  0.77720057505E+02  0.00000000000E+00 0.  1.
         21   -1    0    0  501  503 -0.00000000000E+00 -0.00000000000E+00 -0.90699174836E+03  0.90699174836E+03  0.00000000000E+00 0.  1.
          6    1    1    2  501    0 -0.59385887899E+02  0.19180325039E+03 -0.38547462593E+03  0.46779788133E+03  0.17300000000E+03 0.  1.
         -6    1    1    2    0  502  0.59385887899E+02 -0.19180325039E+03 -0.44379706493E+03  0.51691392454E+03  0.17300000000E+03 0.  1.
<mgrwt>
<rscale>  2 0.26503617E+03</rscale>
<asrwt>0</asrwt>
<pdfrwt beam="1">  1       21 0.11956931E-01 0.26503617E+03</pdfrwt>
<pdfrwt beam="2">  1       21 0.13953720E+00 0.26503617E+03</pdfrwt>
<totfact> 0.20441847E+04</totfact>
</mgrwt>
</event>
<event>
 4    1  0.4332500E+000  0.2023614E+03  0.7546771E-02  0.1147762E+00
         21   -1    0    0  503  502  0.00000000000E+00  0.00000000000E+00  0.13974511863E+03  0.13974511863E+03  0.00000000000E+00 0.  1.
         21   -1    0    0  501  503 -0.00000000000E+00 -0.00000000000E+00 -0.32298875065E+03  0.32298875065E+03  0.00000000000E+00 0.  1.
          6    1    1    2  501    0 -0.53068962449E+02 -0.90580424517E+02 -0.16208098109E+03  0.25926891929E+03  0.17300000000E+03 0.  1.
         -6    1    1    2    0  502  0.53068962449E+02  0.90580424517E+02 -0.21162650930E+02  0.20346494999E+03  0.17300000000E+03 0.  1.
<mgrwt>
<rscale>  2 0.20236138E+03</rscale>
<asrwt>0</asrwt>
<pdfrwt beam="1">  1       21 0.21499249E-01 0.20236138E+03</pdfrwt>
<pdfrwt beam="2">  1       21 0.49690576E-01 0.20236138E+03</pdfrwt>
<totfact> 0.77483191E+04</totfact>
</mgrwt>
</event>
<event>
 4    1  0.4332500E+000  0.1975979E+03  0.7546771E-02  0.1151782E+00
         21   -1    0    0  503  502  0.00000000000E+00  0.00000000000E+00  0.17006727511E+03  0.17006727511E+03  0.00000000000E+00 0.  1.
         21   -1    0    0  501  503 -0.00000000000E+00 -0.00000000000E+00 -0.67685683034E+03  0.67685683034E+03  0.00000000000E+00 0. -1.
          6    1    1    2  501    0  0.37993465063E+02 -0.87592379392E+02 -0.59762719741E+03  0.62944673754E+03  0.17300000000E+03 0. -1.
         -6    1    1    2    0  502 -0.37993465063E+02  0.87592379392E+02  0.90837642184E+02  0.21747736791E+03  0.17300000000E+03 0.  1.
<mgrwt>
<rscale>  2 0.19759790E+03</rscale>
<asrwt>0</asrwt>
<pdfrwt beam="1">  1       21 0.26164197E-01 0.19759790E+03</pdfrwt>
<pdfrwt beam="2">  1       21 0.10413182E+00 0.19759790E+03</pdfrwt>
<totfact> 0.10311342E+04</totfact>
</mgrwt>
</event>
<event>
 4    1  0.4332500E+000  0.1880759E+03  0.7546771E-02  0.1160208E+00
         21   -1    0    0  503  502  0.00000000000E+00  0.00000000000E+00  0.13506290540E+03  0.13506290540E+03  0.00000000000E+00 0.  1.
         21   -1    0    0  501  503 -0.00000000000E+00 -0.00000000000E+00 -0.26193850125E+03  0.26193850125E+03  0.00000000000E+00 0.  1.
          6    1    1    2  501    0  0.70085272952E+02  0.23056546573E+02 -0.65940810318E+02  0.19930062792E+03  0.17300000000E+03 0.  1.
         -6    1    1    2    0  502 -0.70085272952E+02 -0.23056546573E+02 -0.60934785534E+02  0.19770077874E+03  0.17300000000E+03 0.  1.
<mgrwt>
<rscale>  2 0.18807592E+03</rscale>
<asrwt>0</asrwt>
<pdfrwt beam="1">  1       21 0.20778909E-01 0.18807592E+03</pdfrwt>
<pdfrwt beam="2">  1       21 0.40298231E-01 0.18807592E+03</pdfrwt>
<totfact> 0.12772015E+05</totfact>
</mgrwt>
</event>
<event>
 4    1  0.4332500E+000  0.2540671E+03  0.7546771E-02  0.1110761E+00
         21   -1    0    0  501  502  0.00000000000E+00  0.00000000000E+00  0.17888190454E+04  0.17888190454E+04  0.00000000000E+00 0.  1.
         21   -1    0    0  502  503 -0.00000000000E+00 -0.00000000000E+00 -0.37261459684E+02  0.37261459684E+02  0.00000000000E+00 0.  1.
          6    1    1    2  501    0  0.96158650313E+02 -0.15929403296E+03  0.10379944687E+04  0.10686358557E+04  0.17300000000E+03 0.  1.
         -6    1    1    2    0  503 -0.96158650313E+02  0.15929403296E+03  0.71356311705E+03  0.75744464945E+03  0.17300000000E+03 0.  1.
<mgrwt>
<rscale>  2 0.25406707E+03</rscale>
<asrwt>0</asrwt>
<pdfrwt beam="1">  1       21 0.27520286E+00 0.25406707E+03</pdfrwt>
<pdfrwt beam="2">  1       21 0.57325336E-02 0.25406707E+03</pdfrwt>
<totfact> 0.95677663E+03</totfact>
</mgrwt>
</event>
<event>
 4    1  0.4332500E+000  0.1986923E+03  0.7546771E-02  0.1150847E+00
         21   -1    0    0  503  502  0.00000000000E+00  0.00000000000E+00  0.50085220318E+03  0.50085220318E+03  0.00000000000E+00 0. -1.
         21   -1    0    0  501  503 -0.00000000000E+00 -0.00000000000E+00 -0.98619741643E+02  0.98619741643E+02  0.00000000000E+00 0. -1.
          6    1    1    2  501    0 -0.80954654141E+01 -0.97386400663E+02  0.66822927705E+02  0.20962812612E+03  0.17300000000E+03 0. -1.
         -6    1    1    2    0  502  0.80954654141E+01  0.97386400663E+02  0.33540953383E+03  0.38984381870E+03  0.17300000000E+03 0. -1.
<mgrwt>
<rscale>  2 0.19869234E+03</rscale>
<asrwt>0</asrwt>
<pdfrwt beam="1">  1       21 0.77054184E-01 0.19869234E+03</pdfrwt>
<pdfrwt beam="2">  1       21 0.15172268E-01 0.19869234E+03</pdfrwt>
<totfact> 0.57333893E+04</totfact>
</mgrwt>
</event>
<event>
 4    1  0.4332500E+000  0.1998944E+03  0.7546771E-02  0.1149828E+00
         21   -1    0    0  501  502  0.00000000000E+00  0.00000000000E+00  0.38857136473E+02  0.38857136473E+02  0.00000000000E+00 0.  1.
         21   -1    0    0  502  503 -0.00000000000E+00 -0.00000000000E+00 -0.10965810094E+04  0.10965810094E+04  0.00000000000E+00 0.  1.
          6    1    1    2  501    0 -0.99724856214E+02  0.91490932617E+01 -0.38722238112E+03  0.43577393829E+03  0.17300000000E+03 0.  1.
         -6    1    1    2    0  503  0.99724856214E+02 -0.91490932617E+01 -0.67050149183E+03  0.69966420760E+03  0.17300000000E+03 0.  1.
<mgrwt>
<rscale>  2 0.19989435E+03</rscale>
<asrwt>0</asrwt>
<pdfrwt beam="1">  1       21 0.59780216E-02 0.19989435E+03</pdfrwt>
<pdfrwt beam="2">  1       21 0.16870475E+00 0.19989435E+03</pdfrwt>
<totfact> 0.43045920E+04</totfact>
</mgrwt>
</event>
<event>
 4    1  0.4332500E+000  0.2200941E+03  0.7546771E-02  0.1133813E+00
         21   -1    0    0  503  502  0.00000000000E+00  0.00000000000E+00  0.58558688681E+03  0.58558688681E+03  0.00000000000E+00 0. -1.
         21   -1    0    0  501  503 -0.00000000000E+00 -0.00000000000E+00 -0.12593281979E+03  0.12593281979E+03  0.00000000000E+00 0. -1.
          6    1    1    2  501    0 -0.91521648683E+02  0.10067869735E+03  0.21435779323E+02  0.22113548994E+03  0.17300000000E+03 0. -1.
         -6    1    1    2    0  502  0.91521648683E+02 -0.10067869735E+03  0.43821828769E+03  0.49038421665E+03  0.17300000000E+03 0. -1.
<mgrwt>
<rscale>  2 0.22009410E+03</rscale>
<asrwt>0</asrwt>
<pdfrwt beam="1">  1       21 0.90090289E-01 0.22009410E+03</pdfrwt>
<pdfrwt beam="2">  1       21 0.19374280E-01 0.22009410E+03</pdfrwt>
<totfact> 0.25274644E+04</totfact>
</mgrwt>
</event>
<event>
 4    1  0.4332500E+000  0.1810426E+03  0.7546771E-02  0.1166798E+00
         21   -1    0    0  501  502  0.00000000000E+00  0.00000000000E+00  0.70547151113E+03  0.70547151113E+03  0.00000000000E+00 0.  1.
         21   -1    0    0  502  503 -0.00000000000E+00 -0.00000000000E+00 -0.46537753918E+02  0.46537753918E+02  0.00000000000E+00 0.  1.
          6    1    1    2  501    0  0.50512346226E+02 -0.17203014855E+02  0.31413054371E+03  0.36256646196E+03  0.17300000000E+03 0.  1.
         -6    1    1    2    0  503 -0.50512346226E+02  0.17203014855E+02  0.34480321349E+03  0.38944280309E+03  0.17300000000E+03 0.  1.
<mgrwt>
<rscale>  2 0.18104265E+03</rscale>
<asrwt>0</asrwt>
<pdfrwt beam="1">  1       21 0.10853407E+00 0.18104265E+03</pdfrwt>
<pdfrwt beam="2">  1       21 0.71596550E-02 0.18104265E+03</pdfrwt>
<totfact> 0.98629435E+04</totfact>
</mgrwt>
</event>
<event>
 4    1  0.4332500E+000  0.1787545E+03  0.7546771E-02  0.1169014E+00
         21   -1    0    0  503  502  0.00000000000E+00  0.00000000000E+00  0.19913334048E+03  0.19913334048E+03  0.00000000000E+00 0.  1.
         21   -1    0    0  501  503 -0.00000000000E+00 -0.00000000000E+00 -0.20944036878E+03  0.20944036878E+03  0.00000000000E+00 0. -1.
          6    1    1    2  501    0 -0.37399048013E+02 -0.25009491444E+02 -0.10394424129E+03  0.20677903364E+03  0.17300000000E+03 0. -1.
         -6    1    1    2    0  502  0.37399048013E+02  0.25009491444E+02  0.93637212990E+02  0.20179467563E+03  0.17300000000E+03 0.  1.
<mgrwt>
<rscale>  2 0.17875448E+03</rscale>
<asrwt>0</asrwt>
<pdfrwt beam="1">  1       21 0.30635898E-01 0.17875448E+03</pdfrwt>
<pdfrwt beam="2">  1       21 0.32221595E-01 0.17875448E+03</pdfrwt>
<totfact> 0.95284084E+04</totfact>
</mgrwt>
</event>
<event>
 4    1  0.4332500E+000  0.1833537E+03  0.7546771E-02  0.1164596E+00
         21   -1    0    0  501  502  0.00000000000E+00  0.00000000000E+00  0.53883089744E+02  0.53883089744E+02  0.00000000000E+00 0. -1.
         21   -1    0    0  502  503 -0.00000000000E+00 -0.00000000000E+00 -0.68766201651E+03  0.68766201651E+03  0.00000000000E+00 0.  1.
          6    1    1    2  501    0  0.58439107449E+02 -0.16566767120E+02 -0.20400284572E+03  0.27429135625E+03  0.17300000000E+03 0. -1.
         -6    1    1    2    0  503 -0.58439107449E+02  0.16566767120E+02 -0.42977608104E+03  0.46725375000E+03  0.17300000000E+03 0.  1.
<mgrwt>
<rscale>  2 0.18335372E+03</rscale>
<asrwt>0</asrwt>
<pdfrwt beam="1">  1       21 0.82897060E-02 0.18335372E+03</pdfrwt>
<pdfrwt beam="2">  1       21 0.10579416E+00 0.18335372E+03</pdfrwt>
<totfact> 0.81259354E+04</totfact>
</mgrwt>
</event>
<event>
 4    1  0.4332500E+000  0.2081971E+03  0.7546771E-02  0.1143002E+00
         21   -1    0    0  501  502  0.00000000000E+00  0.00000000000E+00  0.84373809825E+03  0.84373809825E+03  0.00000000000E+00 0.  1.
         21   -1    0    0  502  503 -0.00000000000E+00 -0.00000000000E+00 -0.64421399174E+02  0.64421399174E+02  0.00000000000E+00 0.  1.
          6    1    1    2  501    0 -0.19826924407E+02 -0.11412247008E+03  0.59401186244E+03  0.62944113135E+03  0.17300000000E+03 0.  1.
         -6    1    1    2    0  503  0.19826924407E+02  0.11412247008E+03  0.18530483663E+03  0.27871836607E+03  0.17300000000E+03 0.  1.
<mgrwt>
<rscale>  2 0.20819713E+03</rscale>
<asrwt>0</asrwt>
<pdfrwt beam="1">  1       21 0.12980585E+00 0.20819713E+03</pdfrwt>
<pdfrwt beam="2">  1       21 0.99109851E-02 0.20819713E+03</pdfrwt>
<totfact> 0.35448445E+04</totfact>
</mgrwt>
</event>
<event>
 4    1  0.4332500E+000  0.3204548E+03  0.7546771E-02  0.1075440E+00
         21   -1    0    0  501  502  0.00000000000E+00  0.00000000000E+00  0.86901335440E+02  0.86901335440E+02  0.00000000000E+00 0.  1.
         21   -1    0    0  502  503 -0.00000000000E+00 -0.00000000000E+00 -0.15190027872E+04  0.15190027872E+04  0.00000000000E+00 0.  1.
          6    1    1    2  501    0 -0.26131507973E+03  0.66908147562E+02 -0.33767734904E+03  0.46552901430E+03  0.17300000000E+03 0.  1.
         -6    1    1    2    0  503  0.26131507973E+03 -0.66908147562E+02 -0.10944241027E+04  0.11403751083E+04  0.17300000000E+03 0.  1.
<mgrwt>
<rscale>  2 0.32045479E+03</rscale>
<asrwt>0</asrwt>
<pdfrwt beam="1">  1       21 0.13369438E-01 0.32045479E+03</pdfrwt>
<pdfrwt beam="2">  1       21 0.23369271E+00 0.32045479E+03</pdfrwt>
<totfact> 0.36254977E+03</totfact>
</mgrwt>
</event>
<event>
 4    1  0.4332500E+000  0.1932637E+03  0.7546771E-02  0.1155550E+00
         21   -1    0    0  503  502  0.00000000000E+00  0.00000000000E+00  0.30853998750E+02  0.30853998750E+02  0.00000000000E+00 0. -1.
         21   -1    0    0  501  503 -0.00000000000E+00 -0.00000000000E+00 -0.12998532496E+04  0.12998532496E+04  0.00000000000E+00 0. -1.
          6    1    1    2  501    0  0.34076623714E+02 -0.79124099711E+02 -0.46011944429E+03  0.49905985859E+03  0.17300000000E+03 0. -1.
         -6    1    1    2    0  502 -0.34076623714E+02  0.79124099711E+02 -0.80887980652E+03  0.83164738973E+03  0.17300000000E+03 0. -1.
<mgrwt>
<rscale>  2 0.19326365E+03</rscale>
<asrwt>0</asrwt>
<pdfrwt beam="1">  1       21 0.47467706E-02 0.19326365E+03</pdfrwt>
<pdfrwt beam="2">  1       21 0.19997736E+00 0.19326365E+03</pdfrwt>
<totfact> 0.39437256E+04</totfact>
</mgrwt>
</event>
<event>
 4    1  0.4332500E+000  0.1962178E+03  0.7546771E-02  0.1152970E+00
         21   -1    0    0  503  502  0.00000000000E+00  0.00000000000E+00  0.10474309506E+03  0.10474309506E+03  0.00000000000E+00 0.  1.
         21   -1    0    0  501  503 -0.00000000000E+00 -0.00000000000E+00 -0.37138666716E+03  0.37138666716E+03  0.00000000000E+00 0.  1.
          6    1    1    2  501    0 -0.92207537876E+02 -0.83782678048E+01 -0.15742512540E+03  0.25156330320E+03  0.17300000000E+03 0.  1.
         -6    1    1    2    0  502  0.92207537876E+02  0.83782678048E+01 -0.10921844671E+03  0.22456645901E+03  0.17300000000E+03 0.  1.
<mgrwt>
<rscale>  2 0.19621780E+03</rscale>
<asrwt>0</asrwt>
<pdfrwt beam="1">  1       21 0.16114322E-01 0.19621780E+03</pdfrwt>
<pdfrwt beam="2">  1       21 0.57136411E-01 0.19621780E+03</pdfrwt>
<totfact> 0.98871097E+04</totfact>
</mgrwt>
</event>
<event>
 4    1  0.4332500E+000  0.4283325E+03  0.7546771E-02  0.1034388E+00
         21   -1    0    0  503  502  0.00000000000E+00  0.00000000000E+00  0.65128003887E+03  0.65128003887E+03  0.00000000000E+00 0. -1.
         21   -1    0    0  501  503 -0.00000000000E+00 -0.00000000000E+00 -0.28709059607E+03  0.28709059607E+03  0.00000000000E+00 0.  1.
          6    1    1    2  501    0 -0.31721866718E+03  0.23002617821E+03  0.11783199955E+03  0.44424442100E+03  0.17300000000E+03 0.  1.
         -6    1    1    2    0  502  0.31721866718E+03 -0.23002617821E+03  0.24635744325E+03  0.49412621395E+03  0.17300000000E+03 0. -1.
<mgrwt>
<rscale>  2 0.42833249E+03</rscale>
<asrwt>0</asrwt>
<pdfrwt beam="1">  1       21 0.10019693E+00 0.42833249E+03</pdfrwt>
<pdfrwt beam="2">  1       21 0.44167784E-01 0.42833249E+03</pdfrwt>
<totfact> 0.35362152E+03</totfact>
</mgrwt>
</event>
<event>
 4    1  0.4332500E+000  0.1817500E+03  0.7546771E-02  0.1166120E+00
         21   -1    0    0  501  502  0.00000000000E+00  0.00000000000E+00  0.53527933539E+03  0.53527933539E+03  0.00000000000E+00 0. -1.
         21   -1    0    0  502  503 -0.00000000000E+00 -0.00000000000E+00 -0.63470663904E+02  0.63470663904E+02  0.00000000000E+00 0. -1.
          6    1    1    2  501    0 -0.41103887100E+02  0.37610052384E+02  0.18606796066E+03  0.26010446278E+03  0.17300000000E+03 0. -1.
         -6    1    1    2    0  503  0.41103887100E+02 -0.37610052384E+02  0.28574071083E+03  0.33864553651E+03  0.17300000000E+03 0. -1.
<mgrwt>
<rscale>  2 0.18174995E+03</rscale>
<asrwt>0</asrwt>
<pdfrwt beam="1">  1       21 0.82350664E-01 0.18174995E+03</pdfrwt>
<pdfrwt beam="2">  1       21 0.97647179E-02 0.18174995E+03</pdfrwt>
<totfact> 0.10945569E+05</totfact>
</mgrwt>
</event>
<event>
 4    1  0.4332500E+000  0.2442719E+03  0.7546771E-02  0.1116979E+00
         21   -1    0    0  501  502  0.00000000000E+00  0.00000000000E+00  0.43928282043E+03  0.43928282043E+03  0.00000000000E+00 0. -1.
         21   -1    0    0  502  503 -0.00000000000E+00 -0.00000000000E+00 -0.13591639751E+03  0.13591639751E+03  0.00000000000E+00 0. -1.
          6    1    1    2  501    0 -0.89915544852E+02 -0.14715615596E+03  0.14452383441E+03  0.28382367441E+03  0.17300000000E+03 0. -1.
         -6    1    1    2    0  503  0.89915544852E+02  0.14715615596E+03  0.15884258852E+03  0.29137554353E+03  0.17300000000E+03 0. -1.
<mgrwt>
<rscale>  2 0.24427186E+03</rscale>
<asrwt>0</asrwt>
<pdfrwt beam="1">  1       21 0.67581971E-01 0.24427186E+03</pdfrwt>
<pdfrwt beam="2">  1       21 0.20910215E-01 0.24427186E+03</pdfrwt>
<totfact> 0.41482442E+04</totfact>
</mgrwt>
</event>
<event>
 4    1  0.4332500E+000  0.2314180E+03  0.7546771E-02  0.1125646E+00
         21   -1    0    0  501  502  0.00000000000E+00  0.00000000000E+00  0.17931678126E+03  0.17931678126E+03  0.00000000000E+00 0.  1.
         21   -1    0    0  502  503 -0.00000000000E+00 -0.00000000000E+00 -0.45881235034E+03  0.45881235034E+03  0.00000000000E+00 0.  1.
          6    1    1    2  501    0 -0.13659936935E+03  0.70469119351E+02  0.48760830679E+02  0.23649926659E+03  0.17300000000E+03 0.  1.
         -6    1    1    2    0  503  0.13659936935E+03 -0.70469119351E+02 -0.32825639975E+03  0.40162986501E+03  0.17300000000E+03 0.  1.
<mgrwt>
<rscale>  2 0.23141799E+03</rscale>
<asrwt>0</asrwt>
<pdfrwt beam="1">  1       21 0.27587198E-01 0.23141799E+03</pdfrwt>
<pdfrwt beam="2">  1       21 0.70586513E-01 0.23141799E+03</pdfrwt>
<totfact> 0.22318343E+04</totfact>
</mgrwt>
</event>
<event>
 4    1  0.4332500E+000  0.1835176E+03  0.7546771E-02  0.1164441E+00
         21   -1    0    0  501  502  0.00000000000E+00  0.00000000000E+00  0.35427607626E+02  0.35427607626E+02  0.00000000000E+00 0.  1.
         21   -1    0    0  502  503 -0.00000000000E+00 -0.00000000000E+00 -0.10819504410E+04  0.10819504410E+04  0.00000000000E+00 0.  1.
          6    1    1    2  501    0  0.22472771308E+02 -0.56962252530E+02 -0.32862488420E+03  0.37639479032E+03  0.17300000000E+03 0.  1.
         -6    1    1    2    0  503 -0.22472771308E+02  0.56962252530E+02 -0.71789794917E+03  0.74098325830E+03  0.17300000000E+03 0.  1.
<mgrwt>
<rscale>  2 0.18351764E+03</rscale>
<asrwt>0</asrwt>
<pdfrwt beam="1">  1       21 0.54504019E-02 0.18351764E+03</pdfrwt>
<pdfrwt beam="2">  1       21 0.16645389E+00 0.18351764E+03</pdfrwt>
<totfact> 0.52801685E+04</totfact>
</mgrwt>
</event>
<event>
 4    1  0.4332500E+000  0.2901064E+03  0.7546771E-02  0.1090294E+00
         21   -1    0    0  501  502  0.00000000000E+00  0.00000000000E+00  0.14789845636E+03  0.14789845636E+03  0.00000000000E+00 0.  1.
         21   -1    0    0  502  503 -0.00000000000E+00 -0.00000000000E+00 -0.64084552611E+03  0.64084552611E+03  0.00000000000E+00 0. -1.
          6    1    1    2  501    0  0.61735566797E+02  0.22454713897E+03 -0.11447278002E+03  0.31187451835E+03  0.17300000000E+03 0.  1.
         -6    1    1    2    0  503 -0.61735566797E+02 -0.22454713897E+03 -0.37847428973E+03  0.47686946413E+03  0.17300000000E+03 0. -1.
<mgrwt>
<rscale>  2 0.29010636E+03</rscale>
<asrwt>0</asrwt>
<pdfrwt beam="1">  1       21 0.22753608E-01 0.29010636E+03</pdfrwt>
<pdfrwt beam="2">  1       21 0.98591622E-01 0.29010636E+03</pdfrwt>
<totfact> 0.14575920E+04</totfact>
</mgrwt>
</event>
<event>
 4    1  0.4332500E+000  0.2023383E+03  0.7546771E-02  0.1147781E+00
         21   -1    0    0  501  502  0.00000000000E+00  0.00000000000E+00  0.17697989768E+03  0.17697989768E+03  0.00000000000E+00 0.  1.
         21   -1    0    0  502  503 -0.00000000000E+00 -0.00000000000E+00 -0.23217410401E+03  0.23217410401E+03  0.00000000000E+00 0. -1.
          6    1    1    2  501    0 -0.98311860378E+02  0.36695511296E+02 -0.15262792402E+02  0.20291312247E+03  0.17300000000E+03 0.  1.
         -6    1    1    2    0  503  0.98311860378E+02 -0.36695511296E+02 -0.39931413932E+02  0.20624087921E+03  0.17300000000E+03 0.  1.
<mgrwt>
<rscale>  2 0.20233829E+03</rscale>
<asrwt>0</asrwt>
<pdfrwt beam="1">  1       21 0.27227677E-01 0.20233829E+03</pdfrwt>
<pdfrwt beam="2">  1       21 0.35719093E-01 0.20233829E+03</pdfrwt>
<totfact> 0.96806695E+04</totfact>
</mgrwt>
</event>
<event>
 4    1  0.4332500E+000  0.2097322E+03  0.7546771E-02  0.1141778E+00
         21   -1    0    0  501  502  0.00000000000E+00  0.00000000000E+00  0.63573612616E+03  0.63573612616E+03  0.00000000000E+00 0.  1.
         21   -1    0    0  502  503 -0.00000000000E+00 -0.00000000000E+00 -0.26546081526E+03  0.26546081526E+03  0.00000000000E+00 0.  1.
          6    1    1    2  501    0  0.27885498998E+02 -0.11524318270E+03  0.57258760408E+03  0.60979025621E+03  0.17300000000E+03 0.  1.
         -6    1    1    2    0  503 -0.27885498998E+02  0.11524318270E+03 -0.20231229319E+03  0.29140668522E+03  0.17300000000E+03 0.  1.
<mgrwt>
<rscale>  2 0.20973219E+03</rscale>
<asrwt>0</asrwt>
<pdfrwt beam="1">  1       21 0.97805557E-01 0.20973219E+03</pdfrwt>
<pdfrwt beam="2">  1       21 0.40840126E-01 0.20973219E+03</pdfrwt>
<totfact> 0.49304019E+03</totfact>
</mgrwt>
</event>
<event>
 4    1  0.4332500E+000  0.2083822E+03  0.7546771E-02  0.1142854E+00
         21   -1    0    0  503  502  0.00000000000E+00  0.00000000000E+00  0.17697171410E+03  0.17697171410E+03  0.00000000000E+00 0.  1.
         21   -1    0    0  501  503 -0.00000000000E+00 -0.00000000000E+00 -0.27285455981E+03  0.27285455981E+03  0.00000000000E+00 0.  1.
          6    1    1    2  501    0 -0.14254542876E+02 -0.11528637701E+03 -0.11932722703E+03  0.24012939809E+03  0.17300000000E+03 0.  1.
         -6    1    1    2    0  502  0.14254542876E+02  0.11528637701E+03  0.23444381320E+02  0.20969687583E+03  0.17300000000E+03 0.  1.
<mgrwt>
<rscale>  2 0.20838220E+03</rscale>
<asrwt>0</asrwt>
<pdfrwt beam="1">  1       21 0.27226418E-01 0.20838220E+03</pdfrwt>
<pdfrwt beam="2">  1       21 0.41977624E-01 0.20838220E+03</pdfrwt>
<totfact> 0.69758513E+04</totfact>
</mgrwt>
</event>
<event>
 4    1  0.4332500E+000  0.1886658E+03  0.7546771E-02  0.1159670E+00
         21   -1    0    0  501  502  0.00000000000E+00  0.00000000000E+00  0.40371893556E+02  0.40371893556E+02  0.00000000000E+00 0.  1.
         21   -1    0    0  502  503 -0.00000000000E+00 -0.00000000000E+00 -0.88178647971E+03  0.88178647971E+03  0.00000000000E+00 0.  1.
          6    1    1    2  501    0  0.62676875556E+02 -0.41681868144E+02 -0.42596049350E+03  0.46587241910E+03  0.17300000000E+03 0.  1.
         -6    1    1    2    0  503 -0.62676875556E+02  0.41681868144E+02 -0.41545409266E+03  0.45628595417E+03  0.17300000000E+03 0.  1.
<mgrwt>
<rscale>  2 0.18866576E+03</rscale>
<asrwt>0</asrwt>
<pdfrwt beam="1">  1       21 0.62110605E-02 0.18866576E+03</pdfrwt>
<pdfrwt beam="2">  1       21 0.13565946E+00 0.18866576E+03</pdfrwt>
<totfact> 0.72245464E+04</totfact>
</mgrwt>
</event>
<event>
 4    1  0.4332500E+000  0.1815356E+03  0.7546771E-02  0.1166325E+00
         21   -1    0    0  503  502  0.00000000000E+00  0.00000000000E+00  0.88215098667E+03  0.88215098667E+03  0.00000000000E+00 0.  1.
         21   -1    0    0  501  503 -0.00000000000E+00 -0.00000000000E+00 -0.45501402594E+02  0.45501402594E+02  0.00000000000E+00 0.  1.
          6    1    1    2  501    0 -0.96232755109E+01 -0.54162291746E+02  0.22210042147E+03  0.28685145720E+03  0.17300000000E+03 0.  1.
         -6    1    1    2    0  502  0.96232755109E+01  0.54162291746E+02  0.61454916260E+03  0.64080093206E+03  0.17300000000E+03 0.  1.
<mgrwt>
<rscale>  2 0.18153556E+03</rscale>
<asrwt>0</asrwt>
<pdfrwt beam="1">  1       21 0.13571552E+00 0.18153556E+03</pdfrwt>
<pdfrwt beam="2">  1       21 0.70002164E-02 0.18153556E+03</pdfrwt>
<totfact> 0.58964078E+04</totfact>
</mgrwt>
</event>
<event>
 4    1  0.4332500E+000  0.2021972E+03  0.7546771E-02  0.1147898E+00
         21   -1    0    0  503  502  0.00000000000E+00  0.00000000000E+00  0.59885839891E+03  0.59885839891E+03  0.00000000000E+00 0.  1.
         21   -1    0    0  501  503 -0.00000000000E+00 -0.00000000000E+00 -0.74162132130E+02  0.74162132130E+02  0.00000000000E+00 0.  1.
          6    1    1    2  501    0 -0.24114771405E+02 -0.10184875832E+03  0.16749180945E+03  0.26255894196E+03  0.17300000000E+03 0.  1.
         -6    1    1    2    0  502  0.24114771405E+02  0.10184875832E+03  0.35720445734E+03  0.41046158908E+03  0.17300000000E+03 0.  1.
<mgrwt>
<rscale>  2 0.20219716E+03</rscale>
<asrwt>0</asrwt>
<pdfrwt beam="1">  1       21 0.92132058E-01 0.20219716E+03</pdfrwt>
<pdfrwt beam="2">  1       21 0.11409559E-01 0.20219716E+03</pdfrwt>
<totfact> 0.63604371E+04</totfact>
</mgrwt>
</event>
<event>
 4    1  0.4332500E+000  0.1890242E+03  0.7546771E-02  0.1159344E+00
         21   -1    0    0  503  502  0.00000000000E+00  0.00000000000E+00  0.29657941041E+03  0.29657941041E+03  0.00000000000E+00 0.  1.
         21   -1    0    0  501  503 -0.00000000000E+00 -0.00000000000E+00 -0.12057028179E+03  0.12057028179E+03  0.00000000000E+00 0. -1.
          6    1    1    2  501    0  0.17302072016E+02 -0.74173988362E+02  0.82114060346E+02  0.20608944940E+03  0.17300000000E+03 0.  1.
         -6    1    1    2    0  502 -0.17302072016E+02  0.74173988362E+02  0.93895068273E+02  0.21106024280E+03  0.17300000000E+03 0. -1.
<mgrwt>
<rscale>  2 0.18902418E+03</rscale>
<asrwt>0</asrwt>
<pdfrwt beam="1">  1       21 0.45627602E-01 0.18902418E+03</pdfrwt>
<pdfrwt beam="2">  1       21 0.18549274E-01 0.18902418E+03</pdfrwt>
<totfact> 0.12246484E+05</totfact>
</mgrwt>
</event>
<event>
 4    1  0.4332500E+000  0.2698170E+03  0.7546771E-02  0.1101384E+00
         21   -1    0    0  501  502  0.00000000000E+00  0.00000000000E+00  0.34923627395E+03  0.34923627395E+03  0.00000000000E+00 0. -1.
         21   -1    0    0  502  503 -0.00000000000E+00 -0.00000000000E+00 -0.57731640502E+03  0.57731640502E+03  0.00000000000E+00 0. -1.
          6    1    1    2  501    0 -0.16531920545E+03  0.12466671436E+03  0.25626767225E+03  0.37212141728E+03  0.17300000000E+03 0. -1.
         -6    1    1    2    0  503  0.16531920545E+03 -0.12466671436E+03 -0.48434780332E+03  0.55443126169E+03  0.17300000000E+03 0. -1.
<mgrwt>
<rscale>  2 0.26981703E+03</rscale>
<asrwt>0</asrwt>
<pdfrwt beam="1">  1       21 0.53728658E-01 0.26981703E+03</pdfrwt>
<pdfrwt beam="2">  1       21 0.88817908E-01 0.26981703E+03</pdfrwt>
<totfact> 0.33576283E+03</totfact>
</mgrwt>
</event>
<event>
 4    1  0.4332500E+000  0.2088011E+03  0.7546771E-02  0.1142519E+00
         21   -1    0    0  501  502  0.00000000000E+00  0.00000000000E+00  0.14756335649E+04  0.14756335649E+04  0.00000000000E+00 0. -1.
         21   -1    0    0  502  503 -0.00000000000E+00 -0.00000000000E+00 -0.29574096163E+02  0.29574096163E+02  0.00000000000E+00 0. -1.
          6    1    1    2  501    0  0.10299081057E+03 -0.55333437672E+02  0.74655270347E+03  0.77520244804E+03  0.17300000000E+03 0. -1.
         -6    1    1    2    0  503 -0.10299081057E+03  0.55333437672E+02  0.69950676524E+03  0.73000521299E+03  0.17300000000E+03 0. -1.
<mgrwt>
<rscale>  2 0.20880109E+03</rscale>
<asrwt>0</asrwt>
<pdfrwt beam="1">  1       21 0.22702049E+00 0.20880109E+03</pdfrwt>
<pdfrwt beam="2">  1       21 0.45498621E-02 0.20880109E+03</pdfrwt>
<totfact> 0.28409770E+04</totfact>
</mgrwt>
</event>
<event>
 4    1  0.4332500E+000  0.1994883E+03  0.7546771E-02  0.1150171E+00
         21   -1    0    0  503  502  0.00000000000E+00  0.00000000000E+00  0.22381456784E+03  0.22381456784E+03  0.00000000000E+00 0.  1.
         21   -1    0    0  501  503 -0.00000000000E+00 -0.00000000000E+00 -0.24502387679E+03  0.24502387679E+03  0.00000000000E+00 0. -1.
          6    1    1    2  501    0 -0.31258521209E+02 -0.94284156742E+02 -0.13338562489E+03  0.23997358665E+03  0.17300000000E+03 0. -1.
         -6    1    1    2    0  502  0.31258521209E+02  0.94284156742E+02  0.11217631594E+03  0.22886485798E+03  0.17300000000E+03 0.  1.
<mgrwt>
<rscale>  2 0.19948834E+03</rscale>
<asrwt>0</asrwt>
<pdfrwt beam="1">  1       21 0.34433011E-01 0.19948834E+03</pdfrwt>
<pdfrwt beam="2">  1       21 0.37695981E-01 0.19948834E+03</pdfrwt>
<totfact> 0.54988556E+04</totfact>
</mgrwt>
</event>
<event>
 4    1  0.4332500E+000  0.2095492E+03  0.7546771E-02  0.1141923E+00
         21   -1    0    0  503  502  0.00000000000E+00  0.00000000000E+00  0.24597008214E+03  0.24597008214E+03  0.00000000000E+00 0. -1.
         21   -1    0    0  501  503 -0.00000000000E+00 -0.00000000000E+00 -0.17857962581E+03  0.17857962581E+03  0.00000000000E+00 0.  1.
          6    1    1    2  501    0 -0.40342214198E+02  0.11115027577E+03  0.29856147793E+02  0.21166546155E+03  0.17300000000E+03 0. -1.
         -6    1    1    2    0  502  0.40342214198E+02 -0.11115027577E+03  0.37534308539E+02  0.21288424641E+03  0.17300000000E+03 0. -1.
<mgrwt>
<rscale>  2 0.20954923E+03</rscale>
<asrwt>0</asrwt>
<pdfrwt beam="1">  1       21 0.37841551E-01 0.20954923E+03</pdfrwt>
<pdfrwt beam="2">  1       21 0.27473788E-01 0.20954923E+03</pdfrwt>
<totfact> 0.84514988E+04</totfact>
</mgrwt>
</event>
<event>
 4    1  0.4332500E+000  0.3364907E+03  0.7546771E-02  0.1068300E+00
         21   -1    0    0  501  502  0.00000000000E+00  0.00000000000E+00  0.88501182776E+02  0.88501182776E+02  0.00000000000E+00 0. -1.
         21   -1    0    0  502  503 -0.00000000000E+00 -0.00000000000E+00 -0.14321051976E+04  0.14321051976E+04  0.00000000000E+00 0. -1.
          6    1    1    2  501    0  0.28694126335E+03 -0.31011352558E+02 -0.92009539424E+03  0.97969460910E+03  0.17300000000E+03 0. -1.
         -6    1    1    2    0  503 -0.28694126335E+03  0.31011352558E+02 -0.42350862060E+03  0.54091177129E+03  0.17300000000E+03 0. -1.
<mgrwt>
<rscale>  2 0.33649070E+03</rscale>
<asrwt>0</asrwt>
<pdfrwt beam="1">  1       21 0.13615567E-01 0.33649070E+03</pdfrwt>
<pdfrwt beam="2">  1       21 0.22032387E+00 0.33649070E+03</pdfrwt>
<totfact> 0.42073845E+03</totfact>
</mgrwt>
</event>
<event>
 4    1  0.4332500E+000  0.2053170E+03  0.7546771E-02  0.1145329E+00
         21   -1    0    0  501  502  0.00000000000E+00  0.00000000000E+00  0.66561312862E+02  0.66561312862E+02  0.00000000000E+00 0. -1.
         21   -1    0    0  502  503 -0.00000000000E+00 -0.00000000000E+00 -0.82624258708E+03  0.82624258708E+03  0.00000000000E+00 0. -1.
          6    1    1    2  501    0 -0.10394415067E+03  0.37704961676E+02 -0.16413753343E+03  0.26286152338E+03  0.17300000000E+03 0. -1.
         -6    1    1    2    0  503  0.10394415067E+03 -0.37704961676E+02 -0.59554374079E+03  0.62994237656E+03  0.17300000000E+03 0. -1.
<mgrwt>
<rscale>  2 0.20531695E+03</rscale>
<asrwt>0</asrwt>
<pdfrwt beam="1">  1       21 0.10240202E-01 0.20531695E+03</pdfrwt>
<pdfrwt beam="2">  1       21 0.12711424E+00 0.20531695E+03</pdfrwt>
<totfact> 0.35329637E+04</totfact>
</mgrwt>
</event>
<event>
 4    1  0.4332500E+000  0.2992656E+03  0.7546771E-02  0.1085608E+00
         21   -1    0    0  501  502  0.00000000000E+00  0.00000000000E+00  0.37421759818E+03  0.37421759818E+03  0.00000000000E+00 0.  1.
         21   -1    0    0  502  503 -0.00000000000E+00 -0.00000000000E+00 -0.41846916500E+03  0.41846916500E+03  0.00000000000E+00 0. -1.
          6    1    1    2  501    0  0.23355250829E+03 -0.71302873256E+02  0.23719684340E+03  0.38186675213E+03  0.17300000000E+03 0.  1.
         -6    1    1    2    0  503 -0.23355250829E+03  0.71302873256E+02 -0.28144841022E+03  0.41082001105E+03  0.17300000000E+03 0. -1.
<mgrwt>
<rscale>  2 0.29926556E+03</rscale>
<asrwt>0</asrwt>
<pdfrwt beam="1">  1       21 0.57571938E-01 0.29926556E+03</pdfrwt>
<pdfrwt beam="2">  1       21 0.64379871E-01 0.29926556E+03</pdfrwt>
<totfact> 0.58986634E+03</totfact>
</mgrwt>
</event>
<event>
 4    1  0.4332500E+000  0.2564749E+03  0.7546771E-02  0.1109280E+00
         21   -1    0    0  501  502  0.00000000000E+00  0.00000000000E+00  0.58721662866E+02  0.58721662866E+02  0.00000000000E+00 0.  1.
         21   -1    0    0  502  503 -0.00000000000E+00 -0.00000000000E+00 -0.11201905893E+04  0.11201905893E+04  0.00000000000E+00 0. -1.
          6    1    1    2  501    0 -0.18799898353E+03  0.22511463792E+02 -0.53012499727E+03  0.58890737518E+03  0.17300000000E+03 0.  1.
         -6    1    1    2    0  503  0.18799898353E+03 -0.22511463792E+02 -0.53134392917E+03  0.59000487700E+03  0.17300000000E+03 0. -1.
<mgrwt>
<rscale>  2 0.25647492E+03</rscale>
<asrwt>0</asrwt>
<pdfrwt beam="1">  1       21 0.90341019E-02 0.25647492E+03</pdfrwt>
<pdfrwt beam="2">  1       21 0.17233702E+00 0.25647492E+03</pdfrwt>
<totfact> 0.19145891E+04</totfact>
</mgrwt>
</event>
<event>
 4    1  0.4332500E+000  0.2115326E+03  0.7546771E-02  0.1140358E+00
         21   -1    0    0  501  502  0.00000000000E+00  0.00000000000E+00  0.36027302307E+03  0.36027302307E+03  0.00000000000E+00 0. -1.
         21   -1    0    0  502  503 -0.00000000000E+00 -0.00000000000E+00 -0.23269339359E+03  0.23269339359E+03  0.00000000000E+00 0. -1.
          6    1    1    2  501    0  0.81740385755E+02 -0.90197308227E+02  0.26623570669E+03  0.34004043376E+03  0.17300000000E+03 0. -1.
         -6    1    1    2    0  503 -0.81740385755E+02  0.90197308227E+02 -0.13865607722E+03  0.25292598290E+03  0.17300000000E+03 0. -1.
<mgrwt>
<rscale>  2 0.21153261E+03</rscale>
<asrwt>0</asrwt>
<pdfrwt beam="1">  1       21 0.55426619E-01 0.21153261E+03</pdfrwt>
<pdfrwt beam="2">  1       21 0.35798984E-01 0.21153261E+03</pdfrwt>
<totfact> 0.22838177E+04</totfact>
</mgrwt>
</event>
<event>
 4    1  0.4332500E+000  0.2104128E+03  0.7546771E-02  0.1141240E+00
         21   -1    0    0  501  502  0.00000000000E+00  0.00000000000E+00  0.77638528449E+02  0.77638528449E+02  0.00000000000E+00 0. -1.
         21   -1    0    0  502  503 -0.00000000000E+00 -0.00000000000E+00 -0.13790571992E+04  0.13790571992E+04  0.00000000000E+00 0.  1.
          6    1    1    2  501    0  0.11955503883E+03 -0.71510538882E+01 -0.92920762017E+02  0.23001698393E+03  0.17300000000E+03 0. -1.
         -6    1    1    2    0  503 -0.11955503883E+03  0.71510538882E+01 -0.12084979087E+04  0.12266787437E+04  0.17300000000E+03 0.  1.
<mgrwt>
<rscale>  2 0.21041280E+03</rscale>
<asrwt>0</asrwt>
<pdfrwt beam="1">  1       21 0.11944390E-01 0.21041280E+03</pdfrwt>
<pdfrwt beam="2">  1       21 0.21216263E+00 0.21041280E+03</pdfrwt>
<totfact> 0.65506745E+03</totfact>
</mgrwt>
</event>
<event>
 4    1  0.4332500E+000  0.1875039E+03  0.7546771E-02  0.1160732E+00
         21   -1    0    0  503  502  0.00000000000E+00  0.00000000000E+00  0.12920927774E+03  0.12920927774E+03  0.00000000000E+00 0.  1.
         21   -1    0    0  501  503 -0.00000000000E+00 -0.00000000000E+00 -0.28567357497E+03  0.28567357497E+03  0.00000000000E+00 0. -1.
          6    1    1    2  501    0  0.17043712999E+02 -0.70272549280E+02 -0.12345136907E+03  0.22449489941E+03  0.17300000000E+03 0. -1.
         -6    1    1    2    0  502 -0.17043712999E+02  0.70272549280E+02 -0.33012928167E+02  0.19038795330E+03  0.17300000000E+03 0.  1.
<mgrwt>
<rscale>  2 0.18750392E+03</rscale>
<asrwt>0</asrwt>
<pdfrwt beam="1">  1       21 0.19878351E-01 0.18750392E+03</pdfrwt>
<pdfrwt beam="2">  1       21 0.43949780E-01 0.18750392E+03</pdfrwt>
<totfact> 0.11633805E+05</totfact>
</mgrwt>
</event>
<event>
 4    1  0.4332500E+000  0.1910905E+03  0.7546771E-02  0.1157481E+00
         21   -1    0    0  503  502  0.00000000000E+00  0.00000000000E+00  0.25717515500E+03  0.25717515500E+03  0.00000000000E+00 0.  1.
         21   -1    0    0  501  503 -0.00000000000E+00 -0.00000000000E+00 -0.18057292755E+03  0.18057292755E+03  0.00000000000E+00 0.  1.
          6    1    1    2  501    0 -0.78525417538E+02 -0.20502127966E+02 -0.62875775281E+02  0.20116893788E+03  0.17300000000E+03 0.  1.
         -6    1    1    2    0  502  0.78525417538E+02  0.20502127966E+02  0.13947800273E+03  0.23657914467E+03  0.17300000000E+03 0.  1.
<mgrwt>
<rscale>  2 0.19109050E+03</rscale>
<asrwt>0</asrwt>
<pdfrwt beam="1">  1       21 0.39565409E-01 0.19109050E+03</pdfrwt>
<pdfrwt beam="2">  1       21 0.27780450E-01 0.19109050E+03</pdfrwt>
<totfact> 0.76226876E+04</totfact>
</mgrwt>
</event>
<event>
 4    1  0.4332500E+000  0.1733871E+03  0.7546771E-02  0.1174361E+00
         21   -1    0    0  503  502  0.00000000000E+00  0.00000000000E+00  0.10516085030E+03  0.10516085030E+03  0.00000000000E+00 0.  1.
         21   -1    0    0  501  503 -0.00000000000E+00 -0.00000000000E+00 -0.43299714936E+03  0.43299714936E+03  0.00000000000E+00 0.  1.
          6    1    1    2  501    0 -0.75106223434E+01  0.88132961656E+01 -0.32076404242E+03  0.36462673317E+03  0.17300000000E+03 0.  1.
         -6    1    1    2    0  502  0.75106223434E+01 -0.88132961656E+01 -0.70722566426E+01  0.17353126649E+03  0.17300000000E+03 0.  1.
<mgrwt>
<rscale>  2 0.17338709E+03</rscale>
<asrwt>0</asrwt>
<pdfrwt beam="1">  1       21 0.16178592E-01 0.17338709E+03</pdfrwt>
<pdfrwt beam="2">  1       21 0.66614946E-01 0.17338709E+03</pdfrwt>
<totfact> 0.71180730E+04</totfact>
</mgrwt>
</event>
<event>
 4    1  0.4332500E+000  0.1860813E+03  0.7546771E-02  0.1162044E+00
         21   -1    0    0  501  502  0.00000000000E+00  0.00000000000E+00  0.17904542027E+03  0.17904542027E+03  0.00000000000E+00 0.  1.
         21   -1    0    0  502  503 -0.00000000000E+00 -0.00000000000E+00 -0.22462924979E+03  0.22462924979E+03  0.00000000000E+00 0.  1.
          6    1    1    2  501    0  0.21935321699E+02  0.64931541102E+02 -0.98056843116E+02  0.21033641589E+03  0.17300000000E+03 0.  1.
         -6    1    1    2    0  503 -0.21935321699E+02 -0.64931541102E+02  0.52473013597E+02  0.19333825417E+03  0.17300000000E+03 0.  1.
<mgrwt>
<rscale>  2 0.18608134E+03</rscale>
<asrwt>0</asrwt>
<pdfrwt beam="1">  1       21 0.27545449E-01 0.18608134E+03</pdfrwt>
<pdfrwt beam="2">  1       21 0.34558346E-01 0.18608134E+03</pdfrwt>
<totfact> 0.10172946E+05</totfact>
</mgrwt>
</event>
<event>
 4    1  0.4332500E+000  0.2096470E+03  0.7546771E-02  0.1141846E+00
         21   -1    0    0  501  502  0.00000000000E+00  0.00000000000E+00  0.11148655702E+03  0.11148655702E+03  0.00000000000E+00 0. -1.
         21   -1    0    0  502  503 -0.00000000000E+00 -0.00000000000E+00 -0.41210433944E+03  0.41210433944E+03  0.00000000000E+00 0. -1.
          6    1    1    2  501    0 -0.10623091958E+03  0.52324378984E+02 -0.95793564249E+02  0.23049567428E+03  0.17300000000E+03 0. -1.
         -6    1    1    2    0  503  0.10623091958E+03 -0.52324378984E+02 -0.20482421817E+03  0.29309522217E+03  0.17300000000E+03 0. -1.
<mgrwt>
<rscale>  2 0.20964696E+03</rscale>
<asrwt>0</asrwt>
<pdfrwt beam="1">  1       21 0.17151778E-01 0.20964696E+03</pdfrwt>
<pdfrwt beam="2">  1       21 0.63400668E-01 0.20964696E+03</pdfrwt>
<totfact> 0.70073323E+04</totfact>
</mgrwt>
</event>
<event>
 4    1  0.4332500E+000  0.1938026E+03  0.7546771E-02  0.1155076E+00
         21   -1    0    0  501  502  0.00000000000E+00  0.00000000000E+00  0.15162008417E+03  0.15162008417E+03  0.00000000000E+00 0.  1.
         21   -1    0    0  502  503 -0.00000000000E+00 -0.00000000000E+00 -0.26948746154E+03  0.26948746154E+03  0.00000000000E+00 0. -1.
          6    1    1    2  501    0 -0.24619578469E+02 -0.83811276964E+02  0.90599830817E+00  0.19380473323E+03  0.17300000000E+03 0.  1.
         -6    1    1    2    0  503  0.24619578469E+02  0.83811276964E+02 -0.11877337568E+03  0.22730281248E+03  0.17300000000E+03 0. -1.
<mgrwt>
<rscale>  2 0.19380262E+03</rscale>
<asrwt>0</asrwt>
<pdfrwt beam="1">  1       21 0.23326167E-01 0.19380262E+03</pdfrwt>
<pdfrwt beam="2">  1       21 0.41459609E-01 0.19380262E+03</pdfrwt>
<totfact> 0.96766385E+04</totfact>
</mgrwt>
</event>
<event>
 4    1  0.4332500E+000  0.1784043E+03  0.7546771E-02  0.1169356E+00
         21   -1    0    0  501  502  0.00000000000E+00  0.00000000000E+00  0.10493254173E+04  0.10493254173E+04  0.00000000000E+00 0.  1.
         21   -1    0    0  502  503 -0.00000000000E+00 -0.00000000000E+00 -0.45958696424E+02  0.45958696424E+02  0.00000000000E+00 0.  1.
          6    1    1    2  501    0  0.25654000573E+02 -0.35227191990E+02  0.82101890974E+03  0.84017863157E+03  0.17300000000E+03 0.  1.
         -6    1    1    2    0  503 -0.25654000573E+02  0.35227191990E+02  0.18234781116E+03  0.25510548217E+03  0.17300000000E+03 0.  1.
<mgrwt>
<rscale>  2 0.17840427E+03</rscale>
<asrwt>0</asrwt>
<pdfrwt beam="1">  1       21 0.16143466E+00 0.17840427E+03</pdfrwt>
<pdfrwt beam="2">  1       21 0.70705694E-02 0.17840427E+03</pdfrwt>
<totfact> 0.36852286E+04</totfact>
</mgrwt>
</event>
<event>
 4    1  0.4332500E+000  0.1818931E+03  0.7546771E-02  0.1165983E+00
         21   -1    0    0  503  502  0.00000000000E+00  0.00000000000E+00  0.52168607069E+02  0.52168607069E+02  0.00000000000E+00 0. -1.
         21   -1    0    0  501  503 -0.00000000000E+00 -0.00000000000E+00 -0.10919870553E+04  0.10919870553E+04  0.00000000000E+00 0. -1.
          6    1    1    2  501    0  0.50982484949E+01 -0.55947513556E+02 -0.89031698290E+03  0.90870756927E+03  0.17300000000E+03 0. -1.
         -6    1    1    2    0  502 -0.50982484949E+01  0.55947513556E+02 -0.14950146535E+03  0.23544809312E+03  0.17300000000E+03 0. -1.
<mgrwt>
<rscale>  2 0.18189315E+03</rscale>
<asrwt>0</asrwt>
<pdfrwt beam="1">  1       21 0.80259397E-02 0.18189315E+03</pdfrwt>
<pdfrwt beam="2">  1       21 0.16799800E+00 0.18189315E+03</pdfrwt>
<totfact> 0.26494519E+04</totfact>
</mgrwt>
</event>
<event>
 4    1  0.4332500E+000  0.2257666E+03  0.7546771E-02  0.1129655E+00
         21   -1    0    0  501  502  0.00000000000E+00  0.00000000000E+00  0.22417489485E+03  0.22417489485E+03  0.00000000000E+00 0.  1.
         21   -1    0    0  502  503 -0.00000000000E+00 -0.00000000000E+00 -0.25002463521E+03  0.25002463521E+03  0.00000000000E+00 0. -1.
          6    1    1    2  501    0  0.22408069568E+02  0.14331579837E+03  0.58446297125E+02  0.23320915353E+03  0.17300000000E+03 0.  1.
         -6    1    1    2    0  503 -0.22408069568E+02 -0.14331579837E+03 -0.84296037482E+02  0.24099037653E+03  0.17300000000E+03 0. -1.
<mgrwt>
<rscale>  2 0.22576656E+03</rscale>
<asrwt>0</asrwt>
<pdfrwt beam="1">  1       21 0.34488446E-01 0.22576656E+03</pdfrwt>
<pdfrwt beam="2">  1       21 0.38465328E-01 0.22576656E+03</pdfrwt>
<totfact> 0.52004821E+04</totfact>
</mgrwt>
</event>
<event>
 4    1  0.4332500E+000  0.2342877E+03  0.7546771E-02  0.1123658E+00
         21   -1    0    0  501  502  0.00000000000E+00  0.00000000000E+00  0.26324072840E+03  0.26324072840E+03  0.00000000000E+00 0.  1.
         21   -1    0    0  502  503 -0.00000000000E+00 -0.00000000000E+00 -0.25067234969E+03  0.25067234969E+03  0.00000000000E+00 0.  1.
          6    1    1    2  501    0 -0.67930915071E+02 -0.14264335729E+03  0.11165532465E+03  0.25953352023E+03  0.17300000000E+03 0.  1.
         -6    1    1    2    0  503  0.67930915071E+02  0.14264335729E+03 -0.99086945938E+02  0.25437955786E+03  0.17300000000E+03 0.  1.
<mgrwt>
<rscale>  2 0.23428772E+03</rscale>
<asrwt>0</asrwt>
<pdfrwt beam="1">  1       21 0.40498573E-01 0.23428772E+03</pdfrwt>
<pdfrwt beam="2">  1       21 0.38564977E-01 0.23428772E+03</pdfrwt>
<totfact> 0.37315301E+04</totfact>
</mgrwt>
</event>
<event>
 4    1  0.4332500E+000  0.2729885E+03  0.7546771E-02  0.1099581E+00
         21   -1    0    0  501  502  0.00000000000E+00  0.00000000000E+00  0.11796276176E+03  0.11796276176E+03  0.00000000000E+00 0.  1.
         21   -1    0    0  502  503 -0.00000000000E+00 -0.00000000000E+00 -0.63193306978E+03  0.63193306978E+03  0.00000000000E+00 0.  1.
          6    1    1    2  501    0  0.74115751062E+02  0.19773863571E+03 -0.26340557744E+03  0.37934840297E+03  0.17300000000E+03 0.  1.
         -6    1    1    2    0  503 -0.74115751062E+02 -0.19773863571E+03 -0.25056473059E+03  0.37054742857E+03  0.17300000000E+03 0.  1.
<mgrwt>
<rscale>  2 0.27298848E+03</rscale>
<asrwt>0</asrwt>
<pdfrwt beam="1">  1       21 0.18148117E-01 0.27298848E+03</pdfrwt>
<pdfrwt beam="2">  1       21 0.97220473E-01 0.27298848E+03</pdfrwt>
<totfact> 0.23270339E+04</totfact>
</mgrwt>
</event>
<event>
 4    1  0.4332500E+000  0.2114035E+03  0.7546771E-02  0.1140459E+00
         21   -1    0    0  501  502  0.00000000000E+00  0.00000000000E+00  0.37782289151E+03  0.37782289151E+03  0.00000000000E+00 0. -1.
         21   -1    0    0  502  503 -0.00000000000E+00 -0.00000000000E+00 -0.11856352030E+03  0.11856352030E+03  0.00000000000E+00 0. -1.
          6    1    1    2  501    0 -0.78035141403E+02  0.93128727993E+02  0.11763824752E+03  0.24193015635E+03  0.17300000000E+03 0. -1.
         -6    1    1    2    0  503  0.78035141403E+02 -0.93128727993E+02  0.14162112369E+03  0.25445625547E+03  0.17300000000E+03 0. -1.
<mgrwt>
<rscale>  2 0.21140351E+03</rscale>
<asrwt>0</asrwt>
<pdfrwt beam="1">  1       21 0.58126598E-01 0.21140351E+03</pdfrwt>
<pdfrwt beam="2">  1       21 0.18240542E-01 0.21140351E+03</pdfrwt>
<totfact> 0.75355655E+04</totfact>
</mgrwt>
</event>
<event>
 4    1  0.4332500E+000  0.1885611E+03  0.7546771E-02  0.1159766E+00
         21   -1    0    0  501  502  0.00000000000E+00  0.00000000000E+00  0.15384909473E+03  0.15384909473E+03  0.00000000000E+00 0.  1.
         21   -1    0    0  502  503 -0.00000000000E+00 -0.00000000000E+00 -0.26986469807E+03  0.26986469807E+03  0.00000000000E+00 0.  1.
          6    1    1    2  501    0  0.35943443571E+02 -0.65835978222E+02  0.22281802815E+02  0.18987307840E+03  0.17300000000E+03 0.  1.
         -6    1    1    2    0  503 -0.35943443571E+02  0.65835978222E+02 -0.13829740615E+03  0.23384071440E+03  0.17300000000E+03 0.  1.
<mgrwt>
<rscale>  2 0.18856115E+03</rscale>
<asrwt>0</asrwt>
<pdfrwt beam="1">  1       21 0.23669092E-01 0.18856115E+03</pdfrwt>
<pdfrwt beam="2">  1       21 0.41517646E-01 0.18856115E+03</pdfrwt>
<totfact> 0.94043027E+04</totfact>
</mgrwt>
</event>
<event>
 4    1  0.4332500E+000  0.1778006E+03  0.7546771E-02  0.1169949E+00
         21   -1    0    0  503  502  0.00000000000E+00  0.00000000000E+00  0.74278630714E+03  0.74278630714E+03  0.00000000000E+00 0.  1.
         21   -1    0    0  501  503 -0.00000000000E+00 -0.00000000000E+00 -0.42789782541E+02  0.42789782541E+02  0.00000000000E+00 0.  1.
          6    1    1    2  501    0  0.40829179345E+02 -0.41253874058E+01  0.37877729183E+03  0.41843192698E+03  0.17300000000E+03 0. -1.
         -6    1    1    2    0  502 -0.40829179345E+02  0.41253874058E+01  0.32121923276E+03  0.36714416270E+03  0.17300000000E+03 0. -1.
<mgrwt>
<rscale>  2 0.17780056E+03</rscale>
<asrwt>0</asrwt>
<pdfrwt beam="1">  1       21 0.11427481E+00 0.17780056E+03</pdfrwt>
<pdfrwt beam="2">  1       21 0.65830440E-02 0.17780056E+03</pdfrwt>
<totfact> 0.10075503E+05</totfact>
</mgrwt>
</event>
<event>
 4    1  0.4332500E+000  0.1805788E+03  0.7546771E-02  0.1167244E+00
         21   -1    0    0  501  502  0.00000000000E+00  0.00000000000E+00  0.47611812418E+03  0.47611812418E+03  0.00000000000E+00 0. -1.
         21   -1    0    0  502  503 -0.00000000000E+00 -0.00000000000E+00 -0.13873948004E+03  0.13873948004E+03  0.00000000000E+00 0. -1.
          6    1    1    2  501    0 -0.26841574978E+02  0.44263020867E+02  0.38745050703E+03  0.42746529749E+03  0.17300000000E+03 0. -1.
         -6    1    1    2    0  503  0.26841574978E+02 -0.44263020867E+02 -0.50071862890E+02  0.18739230672E+03  0.17300000000E+03 0. -1.
<mgrwt>
<rscale>  2 0.18057875E+03</rscale>
<asrwt>0</asrwt>
<pdfrwt beam="1">  1       21 0.73248942E-01 0.18057875E+03</pdfrwt>
<pdfrwt beam="2">  1       21 0.21344536E-01 0.18057875E+03</pdfrwt>
<totfact> 0.34463420E+04</totfact>
</mgrwt>
</event>
<event>
 4    1  0.4332500E+000  0.1946366E+03  0.7546771E-02  0.1154345E+00
         21   -1    0    0  501  502  0.00000000000E+00  0.00000000000E+00  0.66047646132E+03  0.66047646132E+03  0.00000000000E+00 0. -1.
         21   -1    0    0  502  503 -0.00000000000E+00 -0.00000000000E+00 -0.18082362319E+03  0.18082362319E+03  0.00000000000E+00 0. -1.
          6    1    1    2  501    0  0.68340676312E+02 -0.57305865743E+02  0.58741612700E+03  0.61882236268E+03  0.17300000000E+03 0. -1.
         -6    1    1    2    0  503 -0.68340676312E+02  0.57305865743E+02 -0.10776328887E+03  0.22247772184E+03  0.17300000000E+03 0. -1.
<mgrwt>
<rscale>  2 0.19463661E+03</rscale>
<asrwt>0</asrwt>
<pdfrwt beam="1">  1       21 0.10161176E+00 0.19463661E+03</pdfrwt>
<pdfrwt beam="2">  1       21 0.27819019E-01 0.19463661E+03</pdfrwt>
<totfact> 0.97366037E+03</totfact>
</mgrwt>
</event>
<event>
 4    1  0.4332500E+000  0.2035675E+03  0.7546771E-02  0.1146764E+00
         21   -1    0    0  503  502  0.00000000000E+00  0.00000000000E+00  0.71113898396E+02  0.71113898396E+02  0.00000000000E+00 0. -1.
         21   -1    0    0  501  503 -0.00000000000E+00 -0.00000000000E+00 -0.67767682728E+03  0.67767682728E+03  0.00000000000E+00 0. -1.
          6    1    1    2  501    0 -0.71658356038E+02  0.79848748459E+02 -0.44342534713E+03  0.48791985110E+03  0.17300000000E+03 0. -1.
         -6    1    1    2    0  502  0.71658356038E+02 -0.79848748459E+02 -0.16313758175E+03  0.26087087457E+03  0.17300000000E+03 0. -1.
<mgrwt>
<rscale>  2 0.20356754E+03</rscale>
<asrwt>0</asrwt>
<pdfrwt beam="1">  1       21 0.10940599E-01 0.20356754E+03</pdfrwt>
<pdfrwt beam="2">  1       21 0.10425798E+00 0.20356754E+03</pdfrwt>
<totfact> 0.51135472E+04</totfact>
</mgrwt>
</event>
<event>
 4    1  0.4332500E+000  0.1948857E+03  0.7546771E-02  0.1154127E+00
         21   -1    0    0  503  502  0.00000000000E+00  0.00000000000E+00  0.61925872503E+02  0.61925872503E+02  0.00000000000E+00 0. -1.
         21   -1    0    0  501  503 -0.00000000000E+00 -0.00000000000E+00 -0.63931666337E+03  0.63931666337E+03  0.00000000000E+00 0. -1.
          6    1    1    2  501    0  0.74967187822E+02  0.49308683844E+02 -0.21799328430E+03  0.29240639109E+03  0.17300000000E+03 0.  1.
         -6    1    1    2    0  502 -0.74967187822E+02 -0.49308683844E+02 -0.35939750657E+03  0.40883614478E+03  0.17300000000E+03 0.  1.
<mgrwt>
<rscale>  2 0.19488567E+03</rscale>
<asrwt>0</asrwt>
<pdfrwt beam="1">  1       21 0.95270566E-02 0.19488567E+03</pdfrwt>
<pdfrwt beam="2">  1       21 0.98356417E-01 0.19488567E+03</pdfrwt>
<totfact> 0.75384051E+04</totfact>
</mgrwt>
</event>
<event>
 4    1  0.4332500E+000  0.2131721E+03  0.7546771E-02  0.1139078E+00
         21   -1    0    0  501  502  0.00000000000E+00  0.00000000000E+00  0.44625930823E+03  0.44625930823E+03  0.00000000000E+00 0.  1.
         21   -1    0    0  502  503 -0.00000000000E+00 -0.00000000000E+00 -0.10196728709E+03  0.10196728709E+03  0.00000000000E+00 0. -1.
          6    1    1    2  501    0  0.44188563642E+02 -0.11645057422E+03  0.18222211734E+03  0.28044119783E+03  0.17300000000E+03 0.  1.
         -6    1    1    2    0  503 -0.44188563642E+02  0.11645057422E+03  0.16206990381E+03  0.26778539749E+03  0.17300000000E+03 0. -1.
<mgrwt>
<rscale>  2 0.21317215E+03</rscale>
<asrwt>0</asrwt>
<pdfrwt beam="1">  1       21 0.68655277E-01 0.21317215E+03</pdfrwt>
<pdfrwt beam="2">  1       21 0.15687275E-01 0.21317215E+03</pdfrwt>
<totfact> 0.69263324E+04</totfact>
</mgrwt>
</event>
<event>
 4    1  0.4332500E+000  0.2196452E+03  0.7546771E-02  0.1134148E+00
         21   -1    0    0  501  502  0.00000000000E+00  0.00000000000E+00  0.76950540355E+02  0.76950540355E+02  0.00000000000E+00 0.  1.
         21   -1    0    0  502  503 -0.00000000000E+00 -0.00000000000E+00 -0.67419522795E+03  0.67419522795E+03  0.00000000000E+00 0. -1.
          6    1    1    2  501    0  0.13383037496E+03  0.20110661707E+02 -0.19919900846E+03  0.29652024037E+03  0.17300000000E+03 0. -1.
         -6    1    1    2    0  503 -0.13383037496E+03 -0.20110661707E+02 -0.39804567914E+03  0.45462552794E+03  0.17300000000E+03 0. -1.
<mgrwt>
<rscale>  2 0.21964519E+03</rscale>
<asrwt>0</asrwt>
<pdfrwt beam="1">  1       21 0.11838545E-01 0.21964519E+03</pdfrwt>
<pdfrwt beam="2">  1       21 0.10372234E+00 0.21964519E+03</pdfrwt>
<totfact> 0.44609700E+04</totfact>
</mgrwt>
</event>
<event>
 4    1  0.4332500E+000  0.2006007E+03  0.7546771E-02  0.1149233E+00
         21   -1    0    0  503  502  0.00000000000E+00  0.00000000000E+00  0.61324246183E+03  0.61324246183E+03  0.00000000000E+00 0.  1.
         21   -1    0    0  501  503 -0.00000000000E+00 -0.00000000000E+00 -0.10262817796E+03  0.10262817796E+03  0.00000000000E+00 0.  1.
          6    1    1    2  501    0 -0.53008942759E+02 -0.86612318292E+02  0.40364173463E+02  0.20462137765E+03  0.17300000000E+03 0.  1.
         -6    1    1    2    0  502  0.53008942759E+02  0.86612318292E+02  0.47025011041E+03  0.51124926213E+03  0.17300000000E+03 0.  1.
<mgrwt>
<rscale>  2 0.20060070E+03</rscale>
<asrwt>0</asrwt>
<pdfrwt beam="1">  1       21 0.94344993E-01 0.20060070E+03</pdfrwt>
<pdfrwt beam="2">  1       21 0.15788951E-01 0.20060070E+03</pdfrwt>
<totfact> 0.33485660E+04</totfact>
</mgrwt>
</event>
<event>
 4    1  0.4332500E+000  0.1808790E+03  0.7546771E-02  0.1166955E+00
         21   -1    0    0  503  502  0.00000000000E+00  0.00000000000E+00  0.16360814014E+03  0.16360814014E+03  0.00000000000E+00 0. -1.
         21   -1    0    0  501  503 -0.00000000000E+00 -0.00000000000E+00 -0.23625317245E+03  0.23625317245E+03  0.00000000000E+00 0. -1.
          6    1    1    2  501    0  0.37051458830E+02  0.37621625712E+02 -0.11467012105E+03  0.21416450216E+03  0.17300000000E+03 0. -1.
         -6    1    1    2    0  502 -0.37051458830E+02 -0.37621625712E+02  0.42025088739E+02  0.18569681044E+03  0.17300000000E+03 0. -1.
<mgrwt>
<rscale>  2 0.18087896E+03</rscale>
<asrwt>0</asrwt>
<pdfrwt beam="1">  1       21 0.25170483E-01 0.18087896E+03</pdfrwt>
<pdfrwt beam="2">  1       21 0.36346642E-01 0.18087896E+03</pdfrwt>
<totfact> 0.10961203E+05</totfact>
</mgrwt>
</event>
<event>
 4    1  0.4332500E+000  0.2768059E+03  0.7546771E-02  0.1097446E+00
         21   -1    0    0  503  502  0.00000000000E+00  0.00000000000E+00  0.71532425211E+03  0.71532425211E+03  0.00000000000E+00 0. -1.
         21   -1    0    0  501  503 -0.00000000000E+00 -0.00000000000E+00 -0.11019044514E+03  0.11019044514E+03  0.00000000000E+00 0.  1.
          6    1    1    2  501    0  0.13876313453E+03 -0.16564208237E+03  0.37153071896E+03  0.46331045972E+03  0.17300000000E+03 0. -1.
         -6    1    1    2    0  502 -0.13876313453E+03  0.16564208237E+03  0.23360308801E+03  0.36220423753E+03  0.17300000000E+03 0. -1.
<mgrwt>
<rscale>  2 0.27680590E+03</rscale>
<asrwt>0</asrwt>
<pdfrwt beam="1">  1       21 0.11004988E+00 0.27680590E+03</pdfrwt>
<pdfrwt beam="2">  1       21 0.16952377E-01 0.27680590E+03</pdfrwt>
<totfact> 0.19543909E+04</totfact>
</mgrwt>
</event>
<event>
 4    1  0.4332500E+000  0.1792830E+03  0.7546771E-02  0.1168499E+00
         21   -1    0    0  503  502  0.00000000000E+00  0.00000000000E+00  0.26944652762E+03  0.26944652762E+03  0.00000000000E+00 0.  1.
         21   -1    0    0  501  503 -0.00000000000E+00 -0.00000000000E+00 -0.11938817318E+03  0.11938817318E+03  0.00000000000E+00 0.  1.
          6    1    1    2  501    0  0.40840916826E+02  0.23353786258E+02  0.80593331596E+02  0.19656465836E+03  0.17300000000E+03 0.  1.
         -6    1    1    2    0  502 -0.40840916826E+02 -0.23353786258E+02  0.69465022840E+02  0.19227004243E+03  0.17300000000E+03 0.  1.
<mgrwt>
<rscale>  2 0.17928296E+03</rscale>
<asrwt>0</asrwt>
<pdfrwt beam="1">  1       21 0.41453312E-01 0.17928296E+03</pdfrwt>
<pdfrwt beam="2">  1       21 0.18367411E-01 0.17928296E+03</pdfrwt>
<totfact> 0.15219894E+05</totfact>
</mgrwt>
</event>
<event>
 4    1  0.4332500E+000  0.1817596E+03  0.7546771E-02  0.1166111E+00
         21   -1    0    0  503  502  0.00000000000E+00  0.00000000000E+00  0.32022847781E+03  0.32022847781E+03  0.00000000000E+00 0. -1.
         21   -1    0    0  501  503 -0.00000000000E+00 -0.00000000000E+00 -0.16398294142E+03  0.16398294142E+03  0.00000000000E+00 0. -1.
          6    1    1    2  501    0 -0.55681186709E+02  0.26742324755E+01 -0.69318684258E+02  0.19452924217E+03  0.17300000000E+03 0. -1.
         -6    1    1    2    0  502  0.55681186709E+02 -0.26742324755E+01  0.22556422065E+03  0.28968217706E+03  0.17300000000E+03 0. -1.
<mgrwt>
<rscale>  2 0.18175958E+03</rscale>
<asrwt>0</asrwt>
<pdfrwt beam="1">  1       21 0.49265920E-01 0.18175958E+03</pdfrwt>
<pdfrwt beam="2">  1       21 0.25228145E-01 0.18175958E+03</pdfrwt>
<totfact> 0.58783602E+04</totfact>
</mgrwt>
</event>
<event>
 4    1  0.4332500E+000  0.1982652E+03  0.7546771E-02  0.1151211E+00
         21   -1    0    0  501  502  0.00000000000E+00  0.00000000000E+00  0.95381850742E+03  0.95381850742E+03  0.00000000000E+00 0.  1.
         21   -1    0    0  502  503 -0.00000000000E+00 -0.00000000000E+00 -0.44765335225E+02  0.44765335225E+02  0.00000000000E+00 0.  1.
          6    1    1    2  501    0  0.51359724929E+02 -0.82111394925E+02  0.31386344979E+03  0.37124030982E+03  0.17300000000E+03 0.  1.
         -6    1    1    2    0  503 -0.51359724929E+02  0.82111394925E+02  0.59518972240E+03  0.62734353282E+03  0.17300000000E+03 0.  1.
<mgrwt>
<rscale>  2 0.19826523E+03</rscale>
<asrwt>0</asrwt>
<pdfrwt beam="1">  1       21 0.14674129E+00 0.19826523E+03</pdfrwt>
<pdfrwt beam="2">  1       21 0.68869753E-02 0.19826523E+03</pdfrwt>
<totfact> 0.49104978E+04</totfact>
</mgrwt>
</event>
<event>
 4    1  0.4332500E+000  0.2095866E+03  0.7546771E-02  0.1141894E+00
         21   -1    0    0  503  502  0.00000000000E+00  0.00000000000E+00  0.26762110127E+02  0.26762110127E+02  0.00000000000E+00 0.  1.
         21   -1    0    0  501  503 -0.00000000000E+00 -0.00000000000E+00 -0.18432206359E+04  0.18432206359E+04  0.00000000000E+00 0.  1.
          6    1    1    2  501    0  0.94794096230E+02 -0.70792689218E+02 -0.12176389948E+04  0.12355449192E+04  0.17300000000E+03 0.  1.
         -6    1    1    2    0  502 -0.94794096230E+02  0.70792689218E+02 -0.59881953099E+03  0.63443782691E+03  0.17300000000E+03 0.  1.
<mgrwt>
<rscale>  2 0.20958656E+03</rscale>
<asrwt>0</asrwt>
<pdfrwt beam="1">  1       21 0.41172454E-02 0.20958656E+03</pdfrwt>
<pdfrwt beam="2">  1       21 0.28357256E+00 0.20958656E+03</pdfrwt>
<totfact> 0.15589527E+04</totfact>
</mgrwt>
</event>
<event>
 4    1  0.4332500E+000  0.1740090E+03  0.7546771E-02  0.1173730E+00
         21   -1    0    0  503  502  0.00000000000E+00  0.00000000000E+00  0.68301543334E+02  0.68301543334E+02  0.00000000000E+00 0.  1.
         21   -1    0    0  501  503 -0.00000000000E+00 -0.00000000000E+00 -0.55203169782E+03  0.55203169782E+03  0.00000000000E+00 0.  1.
          6    1    1    2  501    0 -0.15450121439E+01  0.18647979415E+02 -0.37950998149E+03  0.41750085060E+03  0.17300000000E+03 0.  1.
         -6    1    1    2    0  502  0.15450121439E+01 -0.18647979415E+02 -0.10422017299E+03  0.20283239055E+03  0.17300000000E+03 0.  1.
<mgrwt>
<rscale>  2 0.17400901E+03</rscale>
<asrwt>0</asrwt>
<pdfrwt beam="1">  1       21 0.10507930E-01 0.17400901E+03</pdfrwt>
<pdfrwt beam="2">  1       21 0.84927952E-01 0.17400901E+03</pdfrwt>
<totfact> 0.89939202E+04</totfact>
</mgrwt>
</event>
<event>
 4    1  0.4332500E+000  0.1918940E+03  0.7546771E-02  0.1156764E+00
         21   -1    0    0  503  502  0.00000000000E+00  0.00000000000E+00  0.29405762639E+03  0.29405762639E+03  0.00000000000E+00 0.  1.
         21   -1    0    0  501  503 -0.00000000000E+00 -0.00000000000E+00 -0.12571119326E+03  0.12571119326E+03  0.00000000000E+00 0.  1.
          6    1    1    2  501    0 -0.55157826660E+02 -0.62063707308E+02  0.71117098363E+02  0.20464831122E+03  0.17300000000E+03 0.  1.
         -6    1    1    2    0  502  0.55157826660E+02  0.62063707308E+02  0.97229334770E+02  0.21512050843E+03  0.17300000000E+03 0.  1.
<mgrwt>
<rscale>  2 0.19189395E+03</rscale>
<asrwt>0</asrwt>
<pdfrwt beam="1">  1       21 0.45239635E-01 0.19189395E+03</pdfrwt>
<pdfrwt beam="2">  1       21 0.19340184E-01 0.19189395E+03</pdfrwt>
<totfact> 0.11521848E+05</totfact>
</mgrwt>
</event>
<event>
 4    1  0.4332500E+000  0.3278745E+03  0.7546771E-02  0.1072081E+00
         21   -1    0    0  501  502  0.00000000000E+00  0.00000000000E+00  0.14793484305E+03  0.14793484305E+03  0.00000000000E+00 0.  1.
         21   -1    0    0  502  503 -0.00000000000E+00 -0.00000000000E+00 -0.73124216308E+03  0.73124216308E+03  0.00000000000E+00 0. -1.
          6    1    1    2  501    0 -0.21850025127E+03  0.17271452654E+03 -0.32636570420E+03  0.46261889322E+03  0.17300000000E+03 0. -1.
         -6    1    1    2    0  503  0.21850025127E+03 -0.17271452654E+03 -0.25694161582E+03  0.41655811290E+03  0.17300000000E+03 0.  1.
<mgrwt>
<rscale>  2 0.32787447E+03</rscale>
<asrwt>0</asrwt>
<pdfrwt beam="1">  1       21 0.22759206E-01 0.32787447E+03</pdfrwt>
<pdfrwt beam="2">  1       21 0.11249880E+00 0.32787447E+03</pdfrwt>
<totfact> 0.10393232E+04</totfact>
</mgrwt>
</event>
<event>
 4    1  0.4332500E+000  0.2193634E+03  0.7546771E-02  0.1134359E+00
         21   -1    0    0  503  502  0.00000000000E+00  0.00000000000E+00  0.15740317328E+03  0.15740317328E+03  0.00000000000E+00 0. -1.
         21   -1    0    0  501  503 -0.00000000000E+00 -0.00000000000E+00 -0.53422045405E+03  0.53422045405E+03  0.00000000000E+00 0.  1.
          6    1    1    2  501    0 -0.51305881471E+01 -0.13477749885E+03 -0.41457559316E+03  0.46903434797E+03  0.17300000000E+03 0.  1.
         -6    1    1    2    0  502  0.51305881471E+01  0.13477749885E+03  0.37758312393E+02  0.22258927936E+03  0.17300000000E+03 0. -1.
<mgrwt>
<rscale>  2 0.21936339E+03</rscale>
<asrwt>0</asrwt>
<pdfrwt beam="1">  1       21 0.24215873E-01 0.21936339E+03</pdfrwt>
<pdfrwt beam="2">  1       21 0.82187761E-01 0.21936339E+03</pdfrwt>
<totfact> 0.20498594E+04</totfact>
</mgrwt>
</event>
<event>
 4    1  0.4332500E+000  0.2304519E+03  0.7546771E-02  0.1126322E+00
         21   -1    0    0  501  502  0.00000000000E+00  0.00000000000E+00  0.19602382792E+04  0.19602382792E+04  0.00000000000E+00 0. -1.
         21   -1    0    0  502  503 -0.00000000000E+00 -0.00000000000E+00 -0.43023841359E+02  0.43023841359E+02  0.00000000000E+00 0. -1.
          6    1    1    2  501    0  0.13418055946E+03  0.71935141144E+02  0.15681119181E+04  0.15849552280E+04  0.17300000000E+03 0. -1.
         -6    1    1    2    0  503 -0.13418055946E+03 -0.71935141144E+02  0.34910251970E+03  0.41830689252E+03  0.17300000000E+03 0. -1.
<mgrwt>
<rscale>  2 0.23045192E+03</rscale>
<asrwt>0</asrwt>
<pdfrwt beam="1">  1       21 0.30157505E+00 0.23045192E+03</pdfrwt>
<pdfrwt beam="2">  1       21 0.66190541E-02 0.23045192E+03</pdfrwt>
<totfact> 0.53481210E+03</totfact>
</mgrwt>
</event>
<event>
 4    1  0.4332500E+000  0.2515924E+03  0.7546771E-02  0.1112303E+00
         21   -1    0    0  501  502  0.00000000000E+00  0.00000000000E+00  0.36808179754E+03  0.36808179754E+03  0.00000000000E+00 0.  1.
         21   -1    0    0  502  503 -0.00000000000E+00 -0.00000000000E+00 -0.56170631891E+03  0.56170631891E+03  0.00000000000E+00 0. -1.
          6    1    1    2  501    0 -0.17318177874E+03  0.58118774755E+02  0.29043222646E+03  0.38425199887E+03  0.17300000000E+03 0.  1.
         -6    1    1    2    0  503  0.17318177874E+03 -0.58118774755E+02 -0.48405674783E+03  0.54553611758E+03  0.17300000000E+03 0. -1.
<mgrwt>
<rscale>  2 0.25159237E+03</rscale>
<asrwt>0</asrwt>
<pdfrwt beam="1">  1       21 0.56627969E-01 0.25159237E+03</pdfrwt>
<pdfrwt beam="2">  1       21 0.86416357E-01 0.25159237E+03</pdfrwt>
<totfact> 0.32360193E+03</totfact>
</mgrwt>
</event>
<event>
 4    1  0.4332500E+000  0.1769107E+03  0.7546771E-02  0.1170827E+00
         21   -1    0    0  503  502  0.00000000000E+00  0.00000000000E+00  0.14471245286E+04  0.14471245286E+04  0.00000000000E+00 0.  1.
         21   -1    0    0  501  503 -0.00000000000E+00 -0.00000000000E+00 -0.27488846470E+02  0.27488846470E+02  0.00000000000E+00 0.  1.
          6    1    1    2  501    0 -0.32103424095E+02 -0.18378323109E+02  0.36934998449E+03  0.40953242075E+03  0.17300000000E+03 0.  1.
         -6    1    1    2    0  502  0.32103424095E+02  0.18378323109E+02  0.10502856976E+04  0.10650809543E+04  0.17300000000E+03 0.  1.
<mgrwt>
<rscale>  2 0.17691069E+03</rscale>
<asrwt>0</asrwt>
<pdfrwt beam="1">  1       21 0.22263448E+00 0.17691069E+03</pdfrwt>
<pdfrwt beam="2">  1       21 0.42290544E-02 0.17691069E+03</pdfrwt>
<totfact> 0.35010171E+04</totfact>
</mgrwt>
</event>
<event>
 4    1  0.4332500E+000  0.1866245E+03  0.7546771E-02  0.1161541E+00
         21   -1    0    0  501  502  0.00000000000E+00  0.00000000000E+00  0.42374930020E+03  0.42374930020E+03  0.00000000000E+00 0.  1.
         21   -1    0    0  502  503 -0.00000000000E+00 -0.00000000000E+00 -0.82708159607E+02  0.82708159607E+02  0.00000000000E+00 0.  1.
          6    1    1    2  501    0  0.51150902941E+02  0.47783878242E+02  0.15051187637E+03  0.23975516432E+03  0.17300000000E+03 0.  1.
         -6    1    1    2    0  503 -0.51150902941E+02 -0.47783878242E+02  0.19052926422E+03  0.26670229549E+03  0.17300000000E+03 0.  1.
<mgrwt>
<rscale>  2 0.18662453E+03</rscale>
<asrwt>0</asrwt>
<pdfrwt beam="1">  1       21 0.65192199E-01 0.18662453E+03</pdfrwt>
<pdfrwt beam="2">  1       21 0.12724332E-01 0.18662453E+03</pdfrwt>
<totfact> 0.11465504E+05</totfact>
</mgrwt>
</event>
<event>
 4    1  0.4332500E+000  0.2154372E+03  0.7546771E-02  0.1137331E+00
         21   -1    0    0  503  502  0.00000000000E+00  0.00000000000E+00  0.47727038785E+03  0.47727038785E+03  0.00000000000E+00 0.  1.
         21   -1    0    0  501  503 -0.00000000000E+00 -0.00000000000E+00 -0.11805730309E+03  0.11805730309E+03  0.00000000000E+00 0.  1.
          6    1    1    2  501    0  0.46446439586E+02  0.11969518168E+03  0.30457971290E+03  0.37307105192E+03  0.17300000000E+03 0.  1.
         -6    1    1    2    0  502 -0.46446439586E+02 -0.11969518168E+03  0.54633371848E+02  0.22225663902E+03  0.17300000000E+03 0.  1.
<mgrwt>
<rscale>  2 0.21543725E+03</rscale>
<asrwt>0</asrwt>
<pdfrwt beam="1">  1       21 0.73426212E-01 0.21543725E+03</pdfrwt>
<pdfrwt beam="2">  1       21 0.18162662E-01 0.21543725E+03</pdfrwt>
<totfact> 0.45507375E+04</totfact>
</mgrwt>
</event>
<event>
 4    1  0.4332500E+000  0.2741297E+03  0.7546771E-02  0.1098939E+00
         21   -1    0    0  503  502  0.00000000000E+00  0.00000000000E+00  0.15424371573E+03  0.15424371573E+03  0.00000000000E+00 0.  1.
         21   -1    0    0  501  503 -0.00000000000E+00 -0.00000000000E+00 -0.52784749427E+03  0.52784749427E+03  0.00000000000E+00 0. -1.
          6    1    1    2  501    0 -0.17331483837E+03  0.12320727587E+03 -0.92158241437E+02  0.28920616780E+03  0.17300000000E+03 0.  1.
         -6    1    1    2    0  502  0.17331483837E+03 -0.12320727587E+03 -0.28144553710E+03  0.39288504220E+03  0.17300000000E+03 0. -1.
<mgrwt>
<rscale>  2 0.27412965E+03</rscale>
<asrwt>0</asrwt>
<pdfrwt beam="1">  1       21 0.23729803E-01 0.27412965E+03</pdfrwt>
<pdfrwt beam="2">  1       21 0.81207306E-01 0.27412965E+03</pdfrwt>
<totfact> 0.21317442E+04</totfact>
</mgrwt>
</event>
<event>
 4    1  0.4332500E+000  0.1975900E+03  0.7546771E-02  0.1151788E+00
         21   -1    0    0  503  502  0.00000000000E+00  0.00000000000E+00  0.19313238043E+03  0.19313238043E+03  0.00000000000E+00 0. -1.
         21   -1    0    0  501  503 -0.00000000000E+00 -0.00000000000E+00 -0.21979734585E+03  0.21979734585E+03  0.00000000000E+00 0. -1.
          6    1    1    2  501    0  0.52430379307E+01  0.95316965320E+02 -0.71834129440E+02  0.21024261099E+03  0.17300000000E+03 0. -1.
         -6    1    1    2    0  502 -0.52430379307E+01 -0.95316965320E+02  0.45169164024E+02  0.20268711529E+03  0.17300000000E+03 0. -1.
<mgrwt>
<rscale>  2 0.19759001E+03</rscale>
<asrwt>0</asrwt>
<pdfrwt beam="1">  1       21 0.29712674E-01 0.19759001E+03</pdfrwt>
<pdfrwt beam="2">  1       21 0.33814976E-01 0.19759001E+03</pdfrwt>
<totfact> 0.91292556E+04</totfact>
</mgrwt>
</event>
<event>
 4    1  0.4332500E+000  0.2054635E+03  0.7546771E-02  0.1145210E+00
         21   -1    0    0  501  502  0.00000000000E+00  0.00000000000E+00  0.24221060876E+02  0.24221060876E+02  0.00000000000E+00 0.  1.
         21   -1    0    0  502  503 -0.00000000000E+00 -0.00000000000E+00 -0.21983392139E+04  0.21983392139E+04  0.00000000000E+00 0.  1.
          6    1    1    2  501    0  0.70359145880E+02 -0.85649473783E+02 -0.58125255386E+03  0.61649799118E+03  0.17300000000E+03 0.  1.
         -6    1    1    2    0  503 -0.70359145880E+02  0.85649473783E+02 -0.15928655992E+04  0.16060622836E+04  0.17300000000E+03 0.  1.
<mgrwt>
<rscale>  2 0.20546348E+03</rscale>
<asrwt>0</asrwt>
<pdfrwt beam="1">  1       21 0.37263174E-02 0.20546348E+03</pdfrwt>
<pdfrwt beam="2">  1       21 0.33820600E+00 0.20546348E+03</pdfrwt>
<totfact> 0.89179787E+03</totfact>
</mgrwt>
</event>
<event>
 4    1  0.4332500E+000  0.1831441E+03  0.7546771E-02  0.1164794E+00
         21   -1    0    0  501  502  0.00000000000E+00  0.00000000000E+00  0.12674955739E+03  0.12674955739E+03  0.00000000000E+00 0.  1.
         21   -1    0    0  502  503 -0.00000000000E+00 -0.00000000000E+00 -0.47656223365E+03  0.47656223365E+03  0.00000000000E+00 0.  1.
          6    1    1    2  501    0  0.57631325761E+02  0.17070316846E+02  0.26257665704E+02  0.18501683825E+03  0.17300000000E+03 0.  1.
         -6    1    1    2    0  503 -0.57631325761E+02 -0.17070316846E+02 -0.37607034197E+03  0.41829495279E+03  0.17300000000E+03 0.  1.
<mgrwt>
<rscale>  2 0.18314411E+03</rscale>
<asrwt>0</asrwt>
<pdfrwt beam="1">  1       21 0.19499932E-01 0.18314411E+03</pdfrwt>
<pdfrwt beam="2">  1       21 0.73317266E-01 0.18314411E+03</pdfrwt>
<totfact> 0.40665790E+04</totfact>
</mgrwt>
</event>
<event>
 4    1  0.4332500E+000  0.2255909E+03  0.7546771E-02  0.1129782E+00
         21   -1    0    0  503  502  0.00000000000E+00  0.00000000000E+00  0.62784818706E+03  0.62784818706E+03  0.00000000000E+00 0. -1.
         21   -1    0    0  501  503 -0.00000000000E+00 -0.00000000000E+00 -0.92461823521E+02  0.92461823521E+02  0.00000000000E+00 0. -1.
          6    1    1    2  501    0  0.56385933718E+01  0.14467358133E+03  0.14120203119E+03  0.26613765702E+03  0.17300000000E+03 0. -1.
         -6    1    1    2    0  502 -0.56385933718E+01 -0.14467358133E+03  0.39418433234E+03  0.45417235356E+03  0.17300000000E+03 0. -1.
<mgrwt>
<rscale>  2 0.22559087E+03</rscale>
<asrwt>0</asrwt>
<pdfrwt beam="1">  1       21 0.96592026E-01 0.22559087E+03</pdfrwt>
<pdfrwt beam="2">  1       21 0.14224896E-01 0.22559087E+03</pdfrwt>
<totfact> 0.37831610E+04</totfact>
</mgrwt>
</event>
<event>
 4    1  0.4332500E+000  0.1773321E+03  0.7546771E-02  0.1170410E+00
         21   -1    0    0  501  502  0.00000000000E+00  0.00000000000E+00  0.67094433410E+02  0.67094433410E+02  0.00000000000E+00 0. -1.
         21   -1    0    0  502  503 -0.00000000000E+00 -0.00000000000E+00 -0.57304509635E+03  0.57304509635E+03  0.00000000000E+00 0. -1.
          6    1    1    2  501    0  0.38325145229E+02 -0.69903466419E+01 -0.38955974323E+03  0.42802275086E+03  0.17300000000E+03 0. -1.
         -6    1    1    2    0  503 -0.38325145229E+02  0.69903466419E+01 -0.11639091971E+03  0.21211677891E+03  0.17300000000E+03 0. -1.
<mgrwt>
<rscale>  2 0.17733212E+03</rscale>
<asrwt>0</asrwt>
<pdfrwt beam="1">  1       21 0.10322221E-01 0.17733212E+03</pdfrwt>
<pdfrwt beam="2">  1       21 0.88160780E-01 0.17733212E+03</pdfrwt>
<totfact> 0.85086544E+04</totfact>
</mgrwt>
</event>
<event>
 4    1  0.4332500E+000  0.1900209E+03  0.7546771E-02  0.1158442E+00
         21   -1    0    0  503  502  0.00000000000E+00  0.00000000000E+00  0.21914114320E+02  0.21914114320E+02  0.00000000000E+00 0. -1.
         21   -1    0    0  501  503 -0.00000000000E+00 -0.00000000000E+00 -0.16477418444E+04  0.16477418444E+04  0.00000000000E+00 0.  1.
          6    1    1    2  501    0 -0.67960292971E+02 -0.39501075930E+02 -0.80882378662E+03  0.83084526491E+03  0.17300000000E+03 0.  1.
         -6    1    1    2    0  502  0.67960292971E+02  0.39501075930E+02 -0.81700394341E+03  0.83881069377E+03  0.17300000000E+03 0.  1.
<mgrwt>
<rscale>  2 0.19002088E+03</rscale>
<asrwt>0</asrwt>
<pdfrwt beam="1">  1       21 0.33714000E-02 0.19002088E+03</pdfrwt>
<pdfrwt beam="2">  1       21 0.25349891E+00 0.19002088E+03</pdfrwt>
<totfact> 0.33135511E+04</totfact>
</mgrwt>
</event>
<event>
 4    1  0.4332500E+000  0.1852787E+03  0.7546771E-02  0.1162790E+00
         21   -1    0    0  501  502  0.00000000000E+00  0.00000000000E+00  0.38942743147E+02  0.38942743147E+02  0.00000000000E+00 0.  1.
         21   -1    0    0  502  503 -0.00000000000E+00 -0.00000000000E+00 -0.93864109791E+03  0.93864109791E+03  0.00000000000E+00 0.  1.
          6    1    1    2  501    0 -0.46357764790E+02 -0.47435748185E+02 -0.32925329623E+03  0.37780408367E+03  0.17300000000E+03 0. -1.
         -6    1    1    2    0  503  0.46357764790E+02  0.47435748185E+02 -0.57044505853E+03  0.59977975738E+03  0.17300000000E+03 0. -1.
<mgrwt>
<rscale>  2 0.18527869E+03</rscale>
<asrwt>0</asrwt>
<pdfrwt beam="1">  1       21 0.59911919E-02 0.18527869E+03</pdfrwt>
<pdfrwt beam="2">  1       21 0.14440631E+00 0.18527869E+03</pdfrwt>
<totfact> 0.65517207E+04</totfact>
</mgrwt>
</event>
<event>
 4    1  0.4332500E+000  0.1774755E+03  0.7546771E-02  0.1170269E+00
         21   -1    0    0  501  502  0.00000000000E+00  0.00000000000E+00  0.13070657696E+03  0.13070657696E+03  0.00000000000E+00 0.  1.
         21   -1    0    0  502  503 -0.00000000000E+00 -0.00000000000E+00 -0.60058217765E+03  0.60058217765E+03  0.00000000000E+00 0.  1.
          6    1    1    2  501    0 -0.36757512022E+02 -0.14746323994E+02  0.47995657802E+02  0.18385089592E+03  0.17300000000E+03 0.  1.
         -6    1    1    2    0  503  0.36757512022E+02  0.14746323994E+02 -0.51787125849E+03  0.54743785870E+03  0.17300000000E+03 0.  1.
<mgrwt>
<rscale>  2 0.17747554E+03</rscale>
<asrwt>0</asrwt>
<pdfrwt beam="1">  1       21 0.20108704E-01 0.17747554E+03</pdfrwt>
<pdfrwt beam="2">  1       21 0.92397259E-01 0.17747554E+03</pdfrwt>
<totfact> 0.22791857E+04</totfact>
</mgrwt>
</event>
<event>
 4    1  0.4332500E+000  0.1962256E+03  0.7546771E-02  0.1152963E+00
         21   -1    0    0  503  502  0.00000000000E+00  0.00000000000E+00  0.38320055794E+03  0.38320055794E+03  0.00000000000E+00 0. -1.
         21   -1    0    0  501  503 -0.00000000000E+00 -0.00000000000E+00 -0.28036572336E+03  0.28036572336E+03  0.00000000000E+00 0. -1.
          6    1    1    2  501    0 -0.18679623001E+02  0.90700367037E+02 -0.21434199291E+03  0.29059761668E+03  0.17300000000E+03 0. -1.
         -6    1    1    2    0  502  0.18679623001E+02 -0.90700367037E+02  0.31717682749E+03  0.37296866462E+03  0.17300000000E+03 0. -1.
<mgrwt>
<rscale>  2 0.19622560E+03</rscale>
<asrwt>0</asrwt>
<pdfrwt beam="1">  1       21 0.58953932E-01 0.19622560E+03</pdfrwt>
<pdfrwt beam="2">  1       21 0.43133188E-01 0.19622560E+03</pdfrwt>
<totfact> 0.13874370E+04</totfact>
</mgrwt>
</event>
<event>
 4    1  0.4332500E+000  0.2514004E+03  0.7546771E-02  0.1112423E+00
         21   -1    0    0  503  502  0.00000000000E+00  0.00000000000E+00  0.29046076624E+03  0.29046076624E+03  0.00000000000E+00 0. -1.
         21   -1    0    0  501  503 -0.00000000000E+00 -0.00000000000E+00 -0.24461736951E+03  0.24461736951E+03  0.00000000000E+00 0.  1.
          6    1    1    2  501    0  0.17597907257E+03  0.48005295208E+02 -0.66003278357E+02  0.25992032453E+03  0.17300000000E+03 0.  1.
         -6    1    1    2    0  502 -0.17597907257E+03 -0.48005295208E+02  0.11184667508E+03  0.27515781122E+03  0.17300000000E+03 0. -1.
<mgrwt>
<rscale>  2 0.25140036E+03</rscale>
<asrwt>0</asrwt>
<pdfrwt beam="1">  1       21 0.44686272E-01 0.25140036E+03</pdfrwt>
<pdfrwt beam="2">  1       21 0.37633441E-01 0.25140036E+03</pdfrwt>
<totfact> 0.31802647E+04</totfact>
</mgrwt>
</event>
<event>
 4    1  0.4332500E+000  0.2326225E+03  0.7546771E-02  0.1124807E+00
         21   -1    0    0  501  502  0.00000000000E+00  0.00000000000E+00  0.15140948323E+03  0.15140948323E+03  0.00000000000E+00 0.  1.
         21   -1    0    0  502  503 -0.00000000000E+00 -0.00000000000E+00 -0.74301562018E+03  0.74301562018E+03  0.00000000000E+00 0. -1.
          6    1    1    2  501    0  0.92650732985E+02  0.12490014593E+03  0.26373792829E+02  0.23411275430E+03  0.17300000000E+03 0.  1.
         -6    1    1    2    0  503 -0.92650732985E+02 -0.12490014593E+03 -0.61797992978E+03  0.66031234911E+03  0.17300000000E+03 0. -1.
<mgrwt>
<rscale>  2 0.23262245E+03</rscale>
<asrwt>0</asrwt>
<pdfrwt beam="1">  1       21 0.23293766E-01 0.23262245E+03</pdfrwt>
<pdfrwt beam="2">  1       21 0.11431010E+00 0.23262245E+03</pdfrwt>
<totfact> 0.10033711E+04</totfact>
</mgrwt>
</event>
<event>
 4    1  0.4332500E+000  0.1824937E+03  0.7546771E-02  0.1165411E+00
         21   -1    0    0  503  502  0.00000000000E+00  0.00000000000E+00  0.63316975269E+02  0.63316975269E+02  0.00000000000E+00 0.  1.
         21   -1    0    0  501  503 -0.00000000000E+00 -0.00000000000E+00 -0.67498699768E+03  0.67498699768E+03  0.00000000000E+00 0. -1.
          6    1    1    2  501    0  0.51108079902E+02  0.27621049312E+02 -0.47927507824E+03  0.51284360074E+03  0.17300000000E+03 0. -1.
         -6    1    1    2    0  502 -0.51108079902E+02 -0.27621049312E+02 -0.13239494418E+03  0.22546037222E+03  0.17300000000E+03 0.  1.
<mgrwt>
<rscale>  2 0.18249372E+03</rscale>
<asrwt>0</asrwt>
<pdfrwt beam="1">  1       21 0.97410729E-02 0.18249372E+03</pdfrwt>
<pdfrwt beam="2">  1       21 0.10384416E+00 0.18249372E+03</pdfrwt>
<totfact> 0.64070973E+04</totfact>
</mgrwt>
</event>
<event>
 4    1  0.4332500E+000  0.2776542E+03  0.7546771E-02  0.1096977E+00
         21   -1    0    0  503  502  0.00000000000E+00  0.00000000000E+00  0.12916510420E+03  0.12916510420E+03  0.00000000000E+00 0.  1.
         21   -1    0    0  501  503 -0.00000000000E+00 -0.00000000000E+00 -0.59895470931E+03  0.59895470931E+03  0.00000000000E+00 0.  1.
          6    1    1    2  501    0  0.21779922708E+01 -0.21715918511E+03 -0.21330040830E+03  0.35012700483E+03  0.17300000000E+03 0.  1.
         -6    1    1    2    0  502 -0.21779922708E+01  0.21715918511E+03 -0.25648919681E+03  0.37799280867E+03  0.17300000000E+03 0.  1.
<mgrwt>
<rscale>  2 0.27765420E+03</rscale>
<asrwt>0</asrwt>
<pdfrwt beam="1">  1       21 0.19871555E-01 0.27765420E+03</pdfrwt>
<pdfrwt beam="2">  1       21 0.92146878E-01 0.27765420E+03</pdfrwt>
<totfact> 0.22237569E+04</totfact>
</mgrwt>
</event>
<event>
 4    1  0.4332500E+000  0.2044303E+03  0.7546771E-02  0.1146054E+00
         21   -1    0    0  503  502  0.00000000000E+00  0.00000000000E+00  0.22363293031E+03  0.22363293031E+03  0.00000000000E+00 0.  1.
         21   -1    0    0  501  503 -0.00000000000E+00 -0.00000000000E+00 -0.90807936007E+03  0.90807936007E+03  0.00000000000E+00 0.  1.
          6    1    1    2  501    0  0.65702651863E+02  0.86867130681E+02 -0.84650450802E+03  0.87083960576E+03  0.17300000000E+03 0.  1.
         -6    1    1    2    0  502 -0.65702651863E+02 -0.86867130681E+02  0.16205807826E+03  0.26087268462E+03  0.17300000000E+03 0.  1.
<mgrwt>
<rscale>  2 0.20443027E+03</rscale>
<asrwt>0</asrwt>
<pdfrwt beam="1">  1       21 0.34405066E-01 0.20443027E+03</pdfrwt>
<pdfrwt beam="2">  1       21 0.13970452E+00 0.20443027E+03</pdfrwt>
<totfact> 0.28986949E+03</totfact>
</mgrwt>
</event>
<event>
 4    1  0.4332500E+000  0.2368089E+03  0.7546771E-02  0.1121937E+00
         21   -1    0    0  503  502  0.00000000000E+00  0.00000000000E+00  0.28148248945E+03  0.28148248945E+03  0.00000000000E+00 0.  1.
         21   -1    0    0  501  503 -0.00000000000E+00 -0.00000000000E+00 -0.22213567796E+03  0.22213567796E+03  0.00000000000E+00 0. -1.
          6    1    1    2  501    0 -0.18423832787E+02 -0.16065495519E+03 -0.51194784958E+02  0.24227950439E+03  0.17300000000E+03 0. -1.
         -6    1    1    2    0  502  0.18423832787E+02  0.16065495519E+03  0.11054159645E+03  0.26133866301E+03  0.17300000000E+03 0.  1.
<mgrwt>
<rscale>  2 0.23680889E+03</rscale>
<asrwt>0</asrwt>
<pdfrwt beam="1">  1       21 0.43304999E-01 0.23680889E+03</pdfrwt>
<pdfrwt beam="2">  1       21 0.34174720E-01 0.23680889E+03</pdfrwt>
<totfact> 0.41411383E+04</totfact>
</mgrwt>
</event>
<event>
 4    1  0.4332500E+000  0.1941222E+03  0.7546771E-02  0.1154795E+00
         21   -1    0    0  503  502  0.00000000000E+00  0.00000000000E+00  0.11090701666E+04  0.11090701666E+04  0.00000000000E+00 0. -1.
         21   -1    0    0  501  503 -0.00000000000E+00 -0.00000000000E+00 -0.34298785231E+02  0.34298785231E+02  0.00000000000E+00 0. -1.
          6    1    1    2  501    0 -0.10565043114E+02  0.87423097181E+02  0.59271696291E+03  0.62369609280E+03  0.17300000000E+03 0. -1.
         -6    1    1    2    0  502  0.10565043114E+02 -0.87423097181E+02  0.48205441849E+03  0.51967285906E+03  0.17300000000E+03 0. -1.
<mgrwt>
<rscale>  2 0.19412217E+03</rscale>
<asrwt>0</asrwt>
<pdfrwt beam="1">  1       21 0.17062615E+00 0.19412217E+03</pdfrwt>
<pdfrwt beam="2">  1       21 0.52767370E-02 0.19412217E+03</pdfrwt>
<totfact> 0.51809158E+04</totfact>
</mgrwt>
</event>
<event>
 4    1  0.4332500E+000  0.1948991E+03  0.7546771E-02  0.1154115E+00
         21   -1    0    0  501  502  0.00000000000E+00  0.00000000000E+00  0.51079284423E+03  0.51079284423E+03  0.00000000000E+00 0. -1.
         21   -1    0    0  502  503 -0.00000000000E+00 -0.00000000000E+00 -0.40865333809E+03  0.40865333809E+03  0.00000000000E+00 0.  1.
          6    1    1    2  501    0  0.54998781359E+02  0.70935093985E+02  0.46686422838E+03  0.50591289887E+03  0.17300000000E+03 0. -1.
         -6    1    1    2    0  503 -0.54998781359E+02 -0.70935093985E+02 -0.36472472224E+03  0.41353328345E+03  0.17300000000E+03 0.  1.
<mgrwt>
<rscale>  2 0.19489909E+03</rscale>
<asrwt>0</asrwt>
<pdfrwt beam="1">  1       21 0.78583515E-01 0.19489909E+03</pdfrwt>
<pdfrwt beam="2">  1       21 0.62869744E-01 0.19489909E+03</pdfrwt>
<totfact> 0.33487503E+03</totfact>
</mgrwt>
</event>
<event>
 4    1  0.4332500E+000  0.1798975E+03  0.7546771E-02  0.1167902E+00
         21   -1    0    0  501  502  0.00000000000E+00  0.00000000000E+00  0.83660394089E+03  0.83660394089E+03  0.00000000000E+00 0. -1.
         21   -1    0    0  502  503 -0.00000000000E+00 -0.00000000000E+00 -0.51684639548E+02  0.51684639548E+02  0.00000000000E+00 0.  1.
          6    1    1    2  501    0 -0.17305211733E+02  0.46202165869E+02  0.61521452739E+03  0.64097739835E+03  0.17300000000E+03 0. -1.
         -6    1    1    2    0  503  0.17305211733E+02 -0.46202165869E+02  0.16970477396E+03  0.24731118209E+03  0.17300000000E+03 0.  1.
<mgrwt>
<rscale>  2 0.17989750E+03</rscale>
<asrwt>0</asrwt>
<pdfrwt beam="1">  1       21 0.12870829E+00 0.17989750E+03</pdfrwt>
<pdfrwt beam="2">  1       21 0.79514836E-02 0.17989750E+03</pdfrwt>
<totfact> 0.54118040E+04</totfact>
</mgrwt>
</event>
<event>
 4    1  0.4332500E+000  0.1911844E+03  0.7546771E-02  0.1157397E+00
         21   -1    0    0  503  502  0.00000000000E+00  0.00000000000E+00  0.64256318303E+03  0.64256318303E+03  0.00000000000E+00 0. -1.
         21   -1    0    0  501  503 -0.00000000000E+00 -0.00000000000E+00 -0.80221110521E+02  0.80221110521E+02  0.00000000000E+00 0. -1.
          6    1    1    2  501    0 -0.78240214716E+02  0.22381812308E+02  0.86249788456E+02  0.20973913018E+03  0.17300000000E+03 0. -1.
         -6    1    1    2    0  502  0.78240214716E+02 -0.22381812308E+02  0.47609228405E+03  0.51304516337E+03  0.17300000000E+03 0. -1.
<mgrwt>
<rscale>  2 0.19118441E+03</rscale>
<asrwt>0</asrwt>
<pdfrwt beam="1">  1       21 0.98855871E-01 0.19118441E+03</pdfrwt>
<pdfrwt beam="2">  1       21 0.12341710E-01 0.19118441E+03</pdfrwt>
<totfact> 0.47113845E+04</totfact>
</mgrwt>
</event>
<event>
 4    1  0.4332500E+000  0.1828013E+03  0.7546771E-02  0.1165119E+00
         21   -1    0    0  501  502  0.00000000000E+00  0.00000000000E+00  0.93869518064E+03  0.93869518064E+03  0.00000000000E+00 0. -1.
         21   -1    0    0  502  503 -0.00000000000E+00 -0.00000000000E+00 -0.36243886082E+02  0.36243886082E+02  0.00000000000E+00 0. -1.
          6    1    1    2  501    0 -0.58839377040E+02 -0.50256504334E+01  0.38618690728E+03  0.42726649390E+03  0.17300000000E+03 0. -1.
         -6    1    1    2    0  503  0.58839377040E+02  0.50256504334E+01  0.51626438728E+03  0.54767257283E+03  0.17300000000E+03 0. -1.
<mgrwt>
<rscale>  2 0.18280134E+03</rscale>
<asrwt>0</asrwt>
<pdfrwt beam="1">  1       21 0.14441462E+00 0.18280134E+03</pdfrwt>
<pdfrwt beam="2">  1       21 0.55759832E-02 0.18280134E+03</pdfrwt>
<totfact> 0.74142454E+04</totfact>
</mgrwt>
</event>
<event>
 4    1  0.4332500E+000  0.1828479E+03  0.7546771E-02  0.1165075E+00
         21   -1    0    0  501  502  0.00000000000E+00  0.00000000000E+00  0.10737081186E+03  0.10737081186E+03  0.00000000000E+00 0. -1.
         21   -1    0    0  502  503 -0.00000000000E+00 -0.00000000000E+00 -0.39093883786E+03  0.39093883786E+03  0.00000000000E+00 0. -1.
          6    1    1    2  501    0  0.41271675584E+02  0.42438280852E+02 -0.29387426494E+02  0.18519443761E+03  0.17300000000E+03 0. -1.
         -6    1    1    2    0  503 -0.41271675584E+02 -0.42438280852E+02 -0.25418059950E+03  0.31311521210E+03  0.17300000000E+03 0. -1.
<mgrwt>
<rscale>  2 0.18284791E+03</rscale>
<asrwt>0</asrwt>
<pdfrwt beam="1">  1       21 0.16518586E-01 0.18284791E+03</pdfrwt>
<pdfrwt beam="2">  1       21 0.60144437E-01 0.18284791E+03</pdfrwt>
<totfact> 0.85115767E+04</totfact>
</mgrwt>
</event>
<event>
 4    1  0.4332500E+000  0.2606454E+03  0.7546771E-02  0.1106756E+00
         21   -1    0    0  501  502  0.00000000000E+00  0.00000000000E+00  0.11932243104E+03  0.11932243104E+03  0.00000000000E+00 0.  1.
         21   -1    0    0  502  503 -0.00000000000E+00 -0.00000000000E+00 -0.75857186017E+03  0.75857186017E+03  0.00000000000E+00 0. -1.
          6    1    1    2  501    0  0.25606788189E+01 -0.19493702796E+03 -0.10039386098E+03  0.27931152727E+03  0.17300000000E+03 0.  1.
         -6    1    1    2    0  503 -0.25606788189E+01  0.19493702796E+03 -0.53885556815E+03  0.59858276393E+03  0.17300000000E+03 0. -1.
<mgrwt>
<rscale>  2 0.26064536E+03</rscale>
<asrwt>0</asrwt>
<pdfrwt beam="1">  1       21 0.18357297E-01 0.26064536E+03</pdfrwt>
<pdfrwt beam="2">  1       21 0.11670337E+00 0.26064536E+03</pdfrwt>
<totfact> 0.14705037E+04</totfact>
</mgrwt>
</event>
<event>
 4    1  0.4332500E+000  0.2708825E+03  0.7546771E-02  0.1100776E+00
         21   -1    0    0  501  502  0.00000000000E+00  0.00000000000E+00  0.10079098875E+04  0.10079098875E+04  0.00000000000E+00 0. -1.
         21   -1    0    0  502  503 -0.00000000000E+00 -0.00000000000E+00 -0.14554299271E+03  0.14554299271E+03  0.00000000000E+00 0. -1.
          6    1    1    2  501    0  0.12741871903E+03 -0.16496297130E+03  0.83890665677E+03  0.88155640241E+03  0.17300000000E+03 0. -1.
         -6    1    1    2    0  503 -0.12741871903E+03  0.16496297130E+03  0.23460237985E+02  0.27189647777E+03  0.17300000000E+03 0. -1.
<mgrwt>
<rscale>  2 0.27088247E+03</rscale>
<asrwt>0</asrwt>
<pdfrwt beam="1">  1       21 0.15506306E+00 0.27088247E+03</pdfrwt>
<pdfrwt beam="2">  1       21 0.22391230E-01 0.27088247E+03</pdfrwt>
<totfact> 0.48268511E+03</totfact>
</mgrwt>
</event>
<event>
 4    1  0.4332500E+000  0.1740465E+03  0.7546771E-02  0.1173693E+00
         21   -1    0    0  501  502  0.00000000000E+00  0.00000000000E+00  0.55351552975E+02  0.55351552975E+02  0.00000000000E+00 0. -1.
         21   -1    0    0  502  503 -0.00000000000E+00 -0.00000000000E+00 -0.67203269598E+03  0.67203269598E+03  0.00000000000E+00 0. -1.
          6    1    1    2  501    0  0.64488936573E+01  0.17932860853E+02 -0.15163543578E+03  0.23083648133E+03  0.17300000000E+03 0. -1.
         -6    1    1    2    0  503 -0.64488936573E+01 -0.17932860853E+02 -0.46504570722E+03  0.49654776762E+03  0.17300000000E+03 0. -1.
<mgrwt>
<rscale>  2 0.17404648E+03</rscale>
<asrwt>0</asrwt>
<pdfrwt beam="1">  1       21 0.85156238E-02 0.17404648E+03</pdfrwt>
<pdfrwt beam="2">  1       21 0.10338964E+00 0.17404648E+03</pdfrwt>
<totfact> 0.82271705E+04</totfact>
</mgrwt>
</event>
<event>
 4    1  0.4332500E+000  0.2284377E+03  0.7546771E-02  0.1127744E+00
         21   -1    0    0  501  502  0.00000000000E+00  0.00000000000E+00  0.76619725933E+03  0.76619725933E+03  0.00000000000E+00 0. -1.
         21   -1    0    0  502  503 -0.00000000000E+00 -0.00000000000E+00 -0.69439572303E+02  0.69439572303E+02  0.00000000000E+00 0. -1.
          6    1    1    2  501    0  0.14033634797E+03 -0.50601132814E+02  0.40624852241E+03  0.46607041009E+03  0.17300000000E+03 0. -1.
         -6    1    1    2    0  503 -0.14033634797E+03  0.50601132814E+02  0.29050916462E+03  0.36956642154E+03  0.17300000000E+03 0. -1.
<mgrwt>
<rscale>  2 0.22843766E+03</rscale>
<asrwt>0</asrwt>
<pdfrwt beam="1">  1       21 0.11787650E+00 0.22843766E+03</pdfrwt>
<pdfrwt beam="2">  1       21 0.10683012E-01 0.22843766E+03</pdfrwt>
<totfact> 0.39089220E+04</totfact>
</mgrwt>
</event>
<event>
 4    1  0.4332500E+000  0.1749848E+03  0.7546771E-02  0.1172747E+00
         21   -1    0    0  503  502  0.00000000000E+00  0.00000000000E+00  0.16485897564E+03  0.16485897564E+03  0.00000000000E+00 0.  1.
         21   -1    0    0  501  503 -0.00000000000E+00 -0.00000000000E+00 -0.45764050865E+03  0.45764050865E+03  0.00000000000E+00 0.  1.
          6    1    1    2  501    0 -0.93186678700E+01 -0.24573138475E+02 -0.38630595119E+03  0.42408957147E+03  0.17300000000E+03 0.  1.
         -6    1    1    2    0  502  0.93186678700E+01  0.24573138475E+02  0.93524418181E+02  0.19840991281E+03  0.17300000000E+03 0.  1.
<mgrwt>
<rscale>  2 0.17498479E+03</rscale>
<asrwt>0</asrwt>
<pdfrwt beam="1">  1       21 0.25362920E-01 0.17498479E+03</pdfrwt>
<pdfrwt beam="2">  1       21 0.70406231E-01 0.17498479E+03</pdfrwt>
<totfact> 0.27227875E+04</totfact>
</mgrwt>
</event>
<event>
 4    1  0.4332500E+000  0.2199855E+03  0.7546771E-02  0.1133894E+00
         21   -1    0    0  501  502  0.00000000000E+00  0.00000000000E+00  0.16392942312E+03  0.16392942312E+03  0.00000000000E+00 0. -1.
         21   -1    0    0  502  503 -0.00000000000E+00 -0.00000000000E+00 -0.30516751924E+03  0.30516751924E+03  0.00000000000E+00 0. -1.
          6    1    1    2  501    0 -0.53055905602E+02  0.12509873721E+03 -0.11298691626E+03  0.24730480468E+03  0.17300000000E+03 0. -1.
         -6    1    1    2    0  503  0.53055905602E+02 -0.12509873721E+03 -0.28251179861E+02  0.22179213768E+03  0.17300000000E+03 0. -1.
<mgrwt>
<rscale>  2 0.21998551E+03</rscale>
<asrwt>0</asrwt>
<pdfrwt beam="1">  1       21 0.25219911E-01 0.21998551E+03</pdfrwt>
<pdfrwt beam="2">  1       21 0.46948849E-01 0.21998551E+03</pdfrwt>
<totfact> 0.63899344E+04</totfact>
</mgrwt>
</event>
<event>
 4    1  0.4332500E+000  0.1935981E+03  0.7546771E-02  0.1155256E+00
         21   -1    0    0  503  502  0.00000000000E+00  0.00000000000E+00  0.16236846165E+03  0.16236846165E+03  0.00000000000E+00 0. -1.
         21   -1    0    0  501  503 -0.00000000000E+00 -0.00000000000E+00 -0.25325360652E+03  0.25325360652E+03  0.00000000000E+00 0.  1.
          6    1    1    2  501    0  0.59624743986E+02  0.63214840134E+02 -0.10727281094E+03  0.22133161111E+03  0.17300000000E+03 0.  1.
         -6    1    1    2    0  502 -0.59624743986E+02 -0.63214840134E+02  0.16387666067E+02  0.19429045707E+03  0.17300000000E+03 0. -1.
<mgrwt>
<rscale>  2 0.19359810E+03</rscale>
<asrwt>0</asrwt>
<pdfrwt beam="1">  1       21 0.24979764E-01 0.19359810E+03</pdfrwt>
<pdfrwt beam="2">  1       21 0.38962093E-01 0.19359810E+03</pdfrwt>
<totfact> 0.96322721E+04</totfact>
</mgrwt>
</event>
<event>
 4    1  0.4332500E+000  0.1876693E+03  0.7546771E-02  0.1160580E+00
         21   -1    0    0  501  502  0.00000000000E+00  0.00000000000E+00  0.18226476093E+03  0.18226476093E+03  0.00000000000E+00 0.  1.
         21   -1    0    0  502  503 -0.00000000000E+00 -0.00000000000E+00 -0.21379484626E+03  0.21379484626E+03  0.00000000000E+00 0.  1.
          6    1    1    2  501    0 -0.63881328722E+02 -0.34784192164E+02  0.45646717196E+02  0.19314084750E+03  0.17300000000E+03 0.  1.
         -6    1    1    2    0  503  0.63881328722E+02  0.34784192164E+02 -0.77176802532E+02  0.20291875969E+03  0.17300000000E+03 0.  1.
<mgrwt>
<rscale>  2 0.18766929E+03</rscale>
<asrwt>0</asrwt>
<pdfrwt beam="1">  1       21 0.28040733E-01 0.18766929E+03</pdfrwt>
<pdfrwt beam="2">  1       21 0.32891515E-01 0.18766929E+03</pdfrwt>
<totfact> 0.10830309E+05</totfact>
</mgrwt>
</event>
<event>
 4    1  0.4332500E+000  0.2285342E+03  0.7546771E-02  0.1127676E+00
         21   -1    0    0  501  502  0.00000000000E+00  0.00000000000E+00  0.45949535767E+03  0.45949535767E+03  0.00000000000E+00 0.  1.
         21   -1    0    0  502  503 -0.00000000000E+00 -0.00000000000E+00 -0.13138555783E+03  0.13138555783E+03  0.00000000000E+00 0.  1.
          6    1    1    2  501    0 -0.13337089066E+03 -0.67164668916E+02  0.27256052433E+03  0.35569246077E+03  0.17300000000E+03 0.  1.
         -6    1    1    2    0  503  0.13337089066E+03  0.67164668916E+02  0.55549275513E+02  0.23518845473E+03  0.17300000000E+03 0.  1.
<mgrwt>
<rscale>  2 0.22853421E+03</rscale>
<asrwt>0</asrwt>
<pdfrwt beam="1">  1       21 0.70691593E-01 0.22853421E+03</pdfrwt>
<pdfrwt beam="2">  1       21 0.20213163E-01 0.22853421E+03</pdfrwt>
<totfact> 0.40306970E+04</totfact>
</mgrwt>
</event>
<event>
 4    1  0.4332500E+000  0.1826977E+03  0.7546771E-02  0.1165217E+00
         21   -1    0    0  501  502  0.00000000000E+00  0.00000000000E+00  0.29884590420E+03  0.29884590420E+03  0.00000000000E+00 0. -1.
         21   -1    0    0  502  503 -0.00000000000E+00 -0.00000000000E+00 -0.17731555857E+03  0.17731555857E+03  0.00000000000E+00 0. -1.
          6    1    1    2  501    0  0.30478641903E+02 -0.50204621794E+02  0.20560347586E+03  0.27504770667E+03  0.17300000000E+03 0. -1.
         -6    1    1    2    0  503 -0.30478641903E+02  0.50204621794E+02 -0.84073130230E+02  0.20111375609E+03  0.17300000000E+03 0. -1.
<mgrwt>
<rscale>  2 0.18269771E+03</rscale>
<asrwt>0</asrwt>
<pdfrwt beam="1">  1       21 0.45976293E-01 0.18269771E+03</pdfrwt>
<pdfrwt beam="2">  1       21 0.27279317E-01 0.18269771E+03</pdfrwt>
<totfact> 0.58352590E+04</totfact>
</mgrwt>
</event>
<event>
 4    1  0.4332500E+000  0.2685540E+03  0.7546771E-02  0.1102110E+00
         21   -1    0    0  503  502  0.00000000000E+00  0.00000000000E+00  0.27492912168E+03  0.27492912168E+03  0.00000000000E+00 0.  1.
         21   -1    0    0  501  503 -0.00000000000E+00 -0.00000000000E+00 -0.43256909139E+03  0.43256909139E+03  0.00000000000E+00 0. -1.
          6    1    1    2  501    0  0.19375889704E+03  0.68188948285E+02 -0.30074256584E+03  0.40319639601E+03  0.17300000000E+03 0. -1.
         -6    1    1    2    0  502 -0.19375889704E+03 -0.68188948285E+02  0.14310259612E+03  0.30430181706E+03  0.17300000000E+03 0.  1.
<mgrwt>
<rscale>  2 0.26855398E+03</rscale>
<asrwt>0</asrwt>
<pdfrwt beam="1">  1       21 0.42296788E-01 0.26855398E+03</pdfrwt>
<pdfrwt beam="2">  1       21 0.66549090E-01 0.26855398E+03</pdfrwt>
<totfact> 0.10645542E+04</totfact>
</mgrwt>
</event>
<event>
 4    1  0.4332500E+000  0.3425421E+03  0.7546771E-02  0.1065718E+00
         21   -1    0    0  503  502  0.00000000000E+00  0.00000000000E+00  0.32379285373E+03  0.32379285373E+03  0.00000000000E+00 0. -1.
         21   -1    0    0  501  503 -0.00000000000E+00 -0.00000000000E+00 -0.16791377132E+04  0.16791377132E+04  0.00000000000E+00 0.  1.
          6    1    1    2  501    0 -0.24070001410E+03  0.17166707129E+03 -0.15645142658E+04  0.16015742156E+04  0.17300000000E+03 0.  1.
         -6    1    1    2    0  502  0.24070001410E+03 -0.17166707129E+03  0.20916940638E+03  0.40135635129E+03  0.17300000000E+03 0. -1.
<mgrwt>
<rscale>  2 0.34254209E+03</rscale>
<asrwt>0</asrwt>
<pdfrwt beam="1">  1       21 0.49814284E-01 0.34254209E+03</pdfrwt>
<pdfrwt beam="2">  1       21 0.25832889E+00 0.34254209E+03</pdfrwt>
<totfact> 0.19449075E+02</totfact>
</mgrwt>
</event>
<event>
 4    1  0.4332500E+000  0.1944963E+03  0.7546771E-02  0.1154467E+00
         21   -1    0    0  501  502  0.00000000000E+00  0.00000000000E+00  0.41491606550E+03  0.41491606550E+03  0.00000000000E+00 0. -1.
         21   -1    0    0  502  503 -0.00000000000E+00 -0.00000000000E+00 -0.29060858526E+03  0.29060858526E+03  0.00000000000E+00 0.  1.
          6    1    1    2  501    0 -0.88880195107E+02 -0.33562978373E+00  0.35438737282E+03  0.40425142145E+03  0.17300000000E+03 0. -1.
         -6    1    1    2    0  503  0.88880195107E+02  0.33562978373E+00 -0.23007989257E+03  0.30127322931E+03  0.17300000000E+03 0.  1.
<mgrwt>
<rscale>  2 0.19449628E+03</rscale>
<asrwt>0</asrwt>
<pdfrwt beam="1">  1       21 0.63833241E-01 0.19449628E+03</pdfrwt>
<pdfrwt beam="2">  1       21 0.44709013E-01 0.19449628E+03</pdfrwt>
<totfact> 0.10873346E+04</totfact>
</mgrwt>
</event>
<event>
 4    1  0.4332500E+000  0.1819670E+03  0.7546771E-02  0.1165913E+00
         21   -1    0    0  501  502  0.00000000000E+00  0.00000000000E+00  0.20617298182E+03  0.20617298182E+03  0.00000000000E+00 0. -1.
         21   -1    0    0  502  503 -0.00000000000E+00 -0.00000000000E+00 -0.28468981804E+03  0.28468981804E+03  0.00000000000E+00 0. -1.
          6    1    1    2  501    0  0.48667004298E+02 -0.28539616086E+02  0.12277593010E+03  0.21951290624E+03  0.17300000000E+03 0. -1.
         -6    1    1    2    0  503 -0.48667004298E+02  0.28539616086E+02 -0.20129276633E+03  0.27134989362E+03  0.17300000000E+03 0. -1.
<mgrwt>
<rscale>  2 0.18196699E+03</rscale>
<asrwt>0</asrwt>
<pdfrwt beam="1">  1       21 0.31718920E-01 0.18196699E+03</pdfrwt>
<pdfrwt beam="2">  1       21 0.43798433E-01 0.18196699E+03</pdfrwt>
<totfact> 0.48110155E+04</totfact>
</mgrwt>
</event>
<event>
 4    1  0.4332500E+000  0.2335761E+03  0.7546771E-02  0.1124148E+00
         21   -1    0    0  503  502  0.00000000000E+00  0.00000000000E+00  0.70091866450E+02  0.70091866450E+02  0.00000000000E+00 0.  1.
         21   -1    0    0  501  503 -0.00000000000E+00 -0.00000000000E+00 -0.94647660957E+03  0.94647660957E+03  0.00000000000E+00 0. -1.
          6    1    1    2  501    0  0.14933578589E+03  0.48245565770E+02 -0.65240083283E+03  0.69295357582E+03  0.17300000000E+03 0. -1.
         -6    1    1    2    0  502 -0.14933578589E+03 -0.48245565770E+02 -0.22398391029E+03  0.32361490020E+03  0.17300000000E+03 0.  1.
<mgrwt>
<rscale>  2 0.23357614E+03</rscale>
<asrwt>0</asrwt>
<pdfrwt beam="1">  1       21 0.10783365E-01 0.23357614E+03</pdfrwt>
<pdfrwt beam="2">  1       21 0.14561178E+00 0.23357614E+03</pdfrwt>
<totfact> 0.22366777E+04</totfact>
</mgrwt>
</event>
<event>
 4    1  0.4332500E+000  0.1863527E+03  0.7546771E-02  0.1161793E+00
         21   -1    0    0  501  502  0.00000000000E+00  0.00000000000E+00  0.15685471981E+03  0.15685471981E+03  0.00000000000E+00 0. -1.
         21   -1    0    0  502  503 -0.00000000000E+00 -0.00000000000E+00 -0.26546270706E+03  0.26546270706E+03  0.00000000000E+00 0.  1.
          6    1    1    2  501    0  0.65789463900E+02 -0.21681556849E+02  0.31726416570E+02  0.18903414765E+03  0.17300000000E+03 0. -1.
         -6    1    1    2    0  503 -0.65789463900E+02  0.21681556849E+02 -0.14033440383E+03  0.23328327922E+03  0.17300000000E+03 0. -1.
<mgrwt>
<rscale>  2 0.18635274E+03</rscale>
<asrwt>0</asrwt>
<pdfrwt beam="1">  1       21 0.24131496E-01 0.18635274E+03</pdfrwt>
<pdfrwt beam="2">  1       21 0.40840416E-01 0.18635274E+03</pdfrwt>
<totfact> 0.93801539E+04</totfact>
</mgrwt>
</event>
<event>
 4    1  0.4332500E+000  0.1799081E+03  0.7546771E-02  0.1167892E+00
         21   -1    0    0  501  502  0.00000000000E+00  0.00000000000E+00  0.12275941127E+04  0.12275941127E+04  0.00000000000E+00 0. -1.
         21   -1    0    0  502  503 -0.00000000000E+00 -0.00000000000E+00 -0.40406259541E+02  0.40406259541E+02  0.00000000000E+00 0. -1.
          6    1    1    2  501    0 -0.65447251521E+01  0.48939643497E+02  0.96731743269E+03  0.98390545161E+03  0.17300000000E+03 0. -1.
         -6    1    1    2    0  503  0.65447251521E+01 -0.48939643497E+02  0.21987042051E+03  0.28409492066E+03  0.17300000000E+03 0. -1.
<mgrwt>
<rscale>  2 0.17990809E+03</rscale>
<asrwt>0</asrwt>
<pdfrwt beam="1">  1       21 0.18886060E+00 0.17990809E+03</pdfrwt>
<pdfrwt beam="2">  1       21 0.62163486E-02 0.17990809E+03</pdfrwt>
<totfact> 0.29711849E+04</totfact>
</mgrwt>
</event>
<event>
 4    1  0.4332500E+000  0.4193502E+03  0.7546771E-02  0.1037278E+00
         21   -1    0    0  503  502  0.00000000000E+00  0.00000000000E+00  0.24051886814E+03  0.24051886814E+03  0.00000000000E+00 0. -1.
         21   -1    0    0  501  503 -0.00000000000E+00 -0.00000000000E+00 -0.74801433140E+03  0.74801433140E+03  0.00000000000E+00 0.  1.
          6    1    1    2  501    0  0.35233333410E+03 -0.14760357451E+03 -0.32796969808E+03  0.53237084479E+03  0.17300000000E+03 0. -1.
         -6    1    1    2    0  502 -0.35233333410E+03  0.14760357451E+03 -0.17952576518E+03  0.45616235474E+03  0.17300000000E+03 0.  1.
<mgrwt>
<rscale>  2 0.41935020E+03</rscale>
<asrwt>0</asrwt>
<pdfrwt beam="1">  1       21 0.37002903E-01 0.41935020E+03</pdfrwt>
<pdfrwt beam="2">  1       21 0.11507913E+00 0.41935020E+03</pdfrwt>
<totfact> 0.36312384E+03</totfact>
</mgrwt>
</event>
<event>
 4    1  0.4332500E+000  0.1903521E+03  0.7546771E-02  0.1158144E+00
         21   -1    0    0  501  502  0.00000000000E+00  0.00000000000E+00  0.38682419603E+03  0.38682419603E+03  0.00000000000E+00 0.  1.
         21   -1    0    0  502  503 -0.00000000000E+00 -0.00000000000E+00 -0.12610527669E+03  0.12610527669E+03  0.00000000000E+00 0.  1.
          6    1    1    2  501    0 -0.72534339125E+02 -0.32306390603E+02  0.26042669676E+03  0.32257711886E+03  0.17300000000E+03 0.  1.
         -6    1    1    2    0  503  0.72534339125E+02  0.32306390603E+02  0.29222258511E+00  0.19035235386E+03  0.17300000000E+03 0.  1.
<mgrwt>
<rscale>  2 0.19035213E+03</rscale>
<asrwt>0</asrwt>
<pdfrwt beam="1">  1       21 0.59511414E-01 0.19035213E+03</pdfrwt>
<pdfrwt beam="2">  1       21 0.19400812E-01 0.19035213E+03</pdfrwt>
<totfact> 0.64491919E+04</totfact>
</mgrwt>
</event>
<event>
 4    1  0.4332500E+000  0.2378793E+03  0.7546771E-02  0.1121214E+00
         21   -1    0    0  501  502  0.00000000000E+00  0.00000000000E+00  0.28176337194E+03  0.28176337194E+03  0.00000000000E+00 0.  1.
         21   -1    0    0  502  503 -0.00000000000E+00 -0.00000000000E+00 -0.20756214713E+03  0.20756214713E+03  0.00000000000E+00 0. -1.
          6    1    1    2  501    0 -0.13811460519E+03 -0.87074250391E+02  0.81162897189E+02  0.25134435567E+03  0.17300000000E+03 0.  1.
         -6    1    1    2    0  503  0.13811460519E+03  0.87074250391E+02 -0.69616723751E+01  0.23798116339E+03  0.17300000000E+03 0. -1.
<mgrwt>
<rscale>  2 0.23787932E+03</rscale>
<asrwt>0</asrwt>
<pdfrwt beam="1">  1       21 0.43348211E-01 0.23787932E+03</pdfrwt>
<pdfrwt beam="2">  1       21 0.31932638E-01 0.23787932E+03</pdfrwt>
<totfact> 0.47251327E+04</totfact>
</mgrwt>
</event>
<event>
 4    1  0.4332500E+000  0.2157208E+03  0.7546771E-02  0.1137114E+00
         21   -1    0    0  501  502  0.00000000000E+00  0.00000000000E+00  0.16206874468E+03  0.16206874468E+03  0.00000000000E+00 0.  1.
         21   -1    0    0  502  503 -0.00000000000E+00 -0.00000000000E+00 -0.29661743916E+03  0.29661743916E+03  0.00000000000E+00 0. -1.
          6    1    1    2  501    0  0.99471794910E+02  0.81925685819E+02 -0.26266310681E+02  0.21731400106E+03  0.17300000000E+03 0.  1.
         -6    1    1    2    0  503 -0.99471794910E+02 -0.81925685819E+02 -0.10828238380E+03  0.24137218278E+03  0.17300000000E+03 0. -1.
<mgrwt>
<rscale>  2 0.21572078E+03</rscale>
<asrwt>0</asrwt>
<pdfrwt beam="1">  1       21 0.24933653E-01 0.21572078E+03</pdfrwt>
<pdfrwt beam="2">  1       21 0.45633451E-01 0.21572078E+03</pdfrwt>
<totfact> 0.69389887E+04</totfact>
</mgrwt>
</event>
<event>
 4    1  0.4332500E+000  0.1819863E+03  0.7546771E-02  0.1165894E+00
         21   -1    0    0  503  502  0.00000000000E+00  0.00000000000E+00  0.91580248400E+02  0.91580248400E+02  0.00000000000E+00 0. -1.
         21   -1    0    0  501  503 -0.00000000000E+00 -0.00000000000E+00 -0.36685218559E+03  0.36685218559E+03  0.00000000000E+00 0. -1.
          6    1    1    2  501    0 -0.54776634706E+02 -0.13767242040E+02 -0.16495963668E+03  0.24562308197E+03  0.17300000000E+03 0. -1.
         -6    1    1    2    0  502  0.54776634706E+02  0.13767242040E+02 -0.11031230051E+03  0.21280935202E+03  0.17300000000E+03 0. -1.
<mgrwt>
<rscale>  2 0.18198631E+03</rscale>
<asrwt>0</asrwt>
<pdfrwt beam="1">  1       21 0.14089269E-01 0.18198631E+03</pdfrwt>
<pdfrwt beam="2">  1       21 0.56438798E-01 0.18198631E+03</pdfrwt>
<totfact> 0.13027964E+05</totfact>
</mgrwt>
</event>
<event>
 4    1  0.4332500E+000  0.1891730E+03  0.7546771E-02  0.1159209E+00
         21   -1    0    0  501  502  0.00000000000E+00  0.00000000000E+00  0.89968308467E+03  0.89968308467E+03  0.00000000000E+00 0. -1.
         21   -1    0    0  502  503 -0.00000000000E+00 -0.00000000000E+00 -0.39917440966E+02  0.39917440966E+02  0.00000000000E+00 0. -1.
          6    1    1    2  501    0  0.76220330151E+02  0.69193844930E+01  0.45777966817E+03  0.49532680242E+03  0.17300000000E+03 0. -1.
         -6    1    1    2    0  503 -0.76220330151E+02 -0.69193844930E+01  0.40198597554E+03  0.44427372322E+03  0.17300000000E+03 0. -1.
<mgrwt>
<rscale>  2 0.18917298E+03</rscale>
<asrwt>0</asrwt>
<pdfrwt beam="1">  1       21 0.13841277E+00 0.18917298E+03</pdfrwt>
<pdfrwt beam="2">  1       21 0.61411454E-02 0.18917298E+03</pdfrwt>
<totfact> 0.69948469E+04</totfact>
</mgrwt>
</event>
<event>
 4    1  0.4332500E+000  0.3036604E+03  0.7546771E-02  0.1083425E+00
         21   -1    0    0  501  502  0.00000000000E+00  0.00000000000E+00  0.52367282227E+03  0.52367282227E+03  0.00000000000E+00 0. -1.
         21   -1    0    0  502  503 -0.00000000000E+00 -0.00000000000E+00 -0.27094491989E+03  0.27094491989E+03  0.00000000000E+00 0. -1.
          6    1    1    2  501    0 -0.16733957339E+03 -0.18514353416E+03  0.36145423194E+03  0.47207925484E+03  0.17300000000E+03 0. -1.
         -6    1    1    2    0  503  0.16733957339E+03  0.18514353416E+03 -0.10872632957E+03  0.32253848732E+03  0.17300000000E+03 0. -1.
<mgrwt>
<rscale>  2 0.30366044E+03</rscale>
<asrwt>0</asrwt>
<pdfrwt beam="1">  1       21 0.80565049E-01 0.30366044E+03</pdfrwt>
<pdfrwt beam="2">  1       21 0.41683834E-01 0.30366044E+03</pdfrwt>
<totfact> 0.70189572E+03</totfact>
</mgrwt>
</event>
<event>
 4    1  0.4332500E+000  0.1980851E+03  0.7546771E-02  0.1151365E+00
         21   -1    0    0  501  502  0.00000000000E+00  0.00000000000E+00  0.61370771754E+02  0.61370771754E+02  0.00000000000E+00 0. -1.
         21   -1    0    0  502  503 -0.00000000000E+00 -0.00000000000E+00 -0.64452252128E+03  0.64452252128E+03  0.00000000000E+00 0. -1.
          6    1    1    2  501    0 -0.76352986015E+02  0.58982607340E+02 -0.32317825074E+03  0.37905396475E+03  0.17300000000E+03 0.  1.
         -6    1    1    2    0  503  0.76352986015E+02 -0.58982607340E+02 -0.25997349879E+03  0.32683932828E+03  0.17300000000E+03 0.  1.
<mgrwt>
<rscale>  2 0.19808515E+03</rscale>
<asrwt>0</asrwt>
<pdfrwt beam="1">  1       21 0.94416569E-02 0.19808515E+03</pdfrwt>
<pdfrwt beam="2">  1       21 0.99157314E-01 0.19808515E+03</pdfrwt>
<totfact> 0.75021363E+04</totfact>
</mgrwt>
</event>
<event>
 4    1  0.4332500E+000  0.2206135E+03  0.7546771E-02  0.1133427E+00
         21   -1    0    0  503  502  0.00000000000E+00  0.00000000000E+00  0.37082850296E+02  0.37082850296E+02  0.00000000000E+00 0.  1.
         21   -1    0    0  501  503 -0.00000000000E+00 -0.00000000000E+00 -0.17656188801E+04  0.17656188801E+04  0.00000000000E+00 0. -1.
          6    1    1    2  501    0 -0.11354915731E+03 -0.76471545354E+02 -0.13208970567E+04  0.13391935420E+04  0.17300000000E+03 0.  1.
         -6    1    1    2    0  502  0.11354915731E+03  0.76471545354E+02 -0.40763897311E+03  0.46350818847E+03  0.17300000000E+03 0.  1.
<mgrwt>
<rscale>  2 0.22061348E+03</rscale>
<asrwt>0</asrwt>
<pdfrwt beam="1">  1       21 0.57050549E-02 0.22061348E+03</pdfrwt>
<pdfrwt beam="2">  1       21 0.27163362E+00 0.22061348E+03</pdfrwt>
<totfact> 0.10408765E+04</totfact>
</mgrwt>
</event>
<event>
 4    1  0.4332500E+000  0.2031865E+03  0.7546771E-02  0.1147078E+00
         21   -1    0    0  503  502  0.00000000000E+00  0.00000000000E+00  0.13271458748E+03  0.13271458748E+03  0.00000000000E+00 0.  1.
         21   -1    0    0  501  503 -0.00000000000E+00 -0.00000000000E+00 -0.70145458124E+03  0.70145458124E+03  0.00000000000E+00 0.  1.
          6    1    1    2  501    0  0.10479690101E+03 -0.19322349636E+02 -0.59551697545E+03  0.62922588289E+03  0.17300000000E+03 0.  1.
         -6    1    1    2    0  502 -0.10479690101E+03  0.19322349636E+02  0.26776981691E+02  0.20494328582E+03  0.17300000000E+03 0.  1.
<mgrwt>
<rscale>  2 0.20318648E+03</rscale>
<asrwt>0</asrwt>
<pdfrwt beam="1">  1       21 0.20417629E-01 0.20318648E+03</pdfrwt>
<pdfrwt beam="2">  1       21 0.10791609E+00 0.20318648E+03</pdfrwt>
<totfact> 0.15084832E+04</totfact>
</mgrwt>
</event>
<event>
 4    1  0.4332500E+000  0.2142153E+03  0.7546771E-02  0.1138271E+00
         21   -1    0    0  501  502  0.00000000000E+00  0.00000000000E+00  0.54081323371E+02  0.54081323371E+02  0.00000000000E+00 0. -1.
         21   -1    0    0  502  503 -0.00000000000E+00 -0.00000000000E+00 -0.86052520710E+03  0.86052520710E+03  0.00000000000E+00 0. -1.
          6    1    1    2  501    0  0.11365319949E+03  0.55155638515E+02 -0.34917079785E+03  0.40964428506E+03  0.17300000000E+03 0. -1.
         -6    1    1    2    0  503 -0.11365319949E+03 -0.55155638515E+02 -0.45727308588E+03  0.50496224540E+03  0.17300000000E+03 0. -1.
<mgrwt>
<rscale>  2 0.21421530E+03</rscale>
<asrwt>0</asrwt>
<pdfrwt beam="1">  1       21 0.83202044E-02 0.21421530E+03</pdfrwt>
<pdfrwt beam="2">  1       21 0.13238848E+00 0.21421530E+03</pdfrwt>
<totfact> 0.45721968E+04</totfact>
</mgrwt>
</event>
<event>
 4    1  0.4332500E+000  0.2027407E+03  0.7546771E-02  0.1147447E+00
         21   -1    0    0  503  502  0.00000000000E+00  0.00000000000E+00  0.34930804531E+03  0.34930804531E+03  0.00000000000E+00 0. -1.
         21   -1    0    0  501  503 -0.00000000000E+00 -0.00000000000E+00 -0.12158740082E+03  0.12158740082E+03  0.00000000000E+00 0. -1.
          6    1    1    2  501    0 -0.10462782487E+03  0.15093739549E+02  0.71609600789E+02  0.21501566835E+03  0.17300000000E+03 0. -1.
         -6    1    1    2    0  502  0.10462782487E+03 -0.15093739549E+02  0.15611104371E+03  0.25587977778E+03  0.17300000000E+03 0. -1.
<mgrwt>
<rscale>  2 0.20274073E+03</rscale>
<asrwt>0</asrwt>
<pdfrwt beam="1">  1       21 0.53739699E-01 0.20274073E+03</pdfrwt>
<pdfrwt beam="2">  1       21 0.18705754E-01 0.20274073E+03</pdfrwt>
<totfact> 0.85277158E+04</totfact>
</mgrwt>
</event>
<event>
 4    1  0.4332500E+000  0.1770929E+03  0.7546771E-02  0.1170647E+00
         21   -1    0    0  501  502  0.00000000000E+00  0.00000000000E+00  0.23396017468E+02  0.23396017468E+02  0.00000000000E+00 0.  1.
         21   -1    0    0  502  503 -0.00000000000E+00 -0.00000000000E+00 -0.13655149631E+04  0.13655149631E+04  0.00000000000E+00 0.  1.
          6    1    1    2  501    0 -0.35460365003E+02 -0.13246331630E+02 -0.57702952032E+03  0.60359338143E+03  0.17300000000E+03 0.  1.
         -6    1    1    2    0  503  0.35460365003E+02  0.13246331630E+02 -0.76508942526E+03  0.78531759909E+03  0.17300000000E+03 0.  1.
<mgrwt>
<rscale>  2 0.17709292E+03</rscale>
<asrwt>0</asrwt>
<pdfrwt beam="1">  1       21 0.35993859E-02 0.17709292E+03</pdfrwt>
<pdfrwt beam="2">  1       21 0.21007931E+00 0.17709292E+03</pdfrwt>
<totfact> 0.54758970E+04</totfact>
</mgrwt>
</event>
<event>
 4    1  0.4332500E+000  0.1938376E+03  0.7546771E-02  0.1155045E+00
         21   -1    0    0  501  502  0.00000000000E+00  0.00000000000E+00  0.36835912328E+02  0.36835912328E+02  0.00000000000E+00 0.  1.
         21   -1    0    0  502  503 -0.00000000000E+00 -0.00000000000E+00 -0.14321145248E+04  0.14321145248E+04  0.00000000000E+00 0.  1.
          6    1    1    2  501    0  0.81860922859E+02  0.30705085497E+02 -0.30364335120E+03  0.36023922287E+03  0.17300000000E+03 0.  1.
         -6    1    1    2    0  503 -0.81860922859E+02 -0.30705085497E+02 -0.10916352612E+04  0.11087112142E+04  0.17300000000E+03 0.  1.
<mgrwt>
<rscale>  2 0.19383759E+03</rscale>
<asrwt>0</asrwt>
<pdfrwt beam="1">  1       21 0.56670628E-02 0.19383759E+03</pdfrwt>
<pdfrwt beam="2">  1       21 0.22032534E+00 0.19383759E+03</pdfrwt>
<totfact> 0.21747957E+04</totfact>
</mgrwt>
</event>
<event>
 4    1  0.4332500E+000  0.2354066E+03  0.7546771E-02  0.1122891E+00
         21   -1    0    0  503  502  0.00000000000E+00  0.00000000000E+00  0.17342710847E+03  0.17342710847E+03  0.00000000000E+00 0. -1.
         21   -1    0    0  501  503 -0.00000000000E+00 -0.00000000000E+00 -0.47033454755E+03  0.47033454755E+03  0.00000000000E+00 0.  1.
          6    1    1    2  501    0  0.69517218586E+02 -0.14371716913E+03 -0.33071302830E+03  0.40594011316E+03  0.17300000000E+03 0.  1.
         -6    1    1    2    0  502 -0.69517218586E+02  0.14371716913E+03  0.33805589218E+02  0.23782154285E+03  0.17300000000E+03 0. -1.
<mgrwt>
<rscale>  2 0.23540660E+03</rscale>
<asrwt>0</asrwt>
<pdfrwt beam="1">  1       21 0.26681094E-01 0.23540660E+03</pdfrwt>
<pdfrwt beam="2">  1       21 0.72359160E-01 0.23540660E+03</pdfrwt>
<totfact> 0.22484856E+04</totfact>
</mgrwt>
</event>
<event>
 4    1  0.4332500E+000  0.1811285E+03  0.7546771E-02  0.1166715E+00
         21   -1    0    0  501  502  0.00000000000E+00  0.00000000000E+00  0.19441128713E+03  0.19441128713E+03  0.00000000000E+00 0.  1.
         21   -1    0    0  502  503 -0.00000000000E+00 -0.00000000000E+00 -0.18135226339E+03  0.18135226339E+03  0.00000000000E+00 0.  1.
          6    1    1    2  501    0 -0.40618301971E+02 -0.35052533571E+02  0.56050843926E+02  0.18960280502E+03  0.17300000000E+03 0.  1.
         -6    1    1    2    0  503  0.40618301971E+02  0.35052533571E+02 -0.42991820190E+02  0.18616074551E+03  0.17300000000E+03 0.  1.
<mgrwt>
<rscale>  2 0.18112848E+03</rscale>
<asrwt>0</asrwt>
<pdfrwt beam="1">  1       21 0.29909429E-01 0.18112848E+03</pdfrwt>
<pdfrwt beam="2">  1       21 0.27900348E-01 0.18112848E+03</pdfrwt>
<totfact> 0.13201247E+05</totfact>
</mgrwt>
</event>
<event>
 4    1  0.4332500E+000  0.1969200E+03  0.7546771E-02  0.1152364E+00
         21   -1    0    0  501  502  0.00000000000E+00  0.00000000000E+00  0.12712920742E+03  0.12712920742E+03  0.00000000000E+00 0. -1.
         21   -1    0    0  502  503 -0.00000000000E+00 -0.00000000000E+00 -0.32476661977E+03  0.32476661977E+03  0.00000000000E+00 0. -1.
          6    1    1    2  501    0  0.88274977063E+02 -0.32496662879E+02 -0.15452716110E+03  0.25031210157E+03  0.17300000000E+03 0. -1.
         -6    1    1    2    0  503 -0.88274977063E+02  0.32496662879E+02 -0.43110251249E+02  0.20158372562E+03  0.17300000000E+03 0. -1.
<mgrwt>
<rscale>  2 0.19692005E+03</rscale>
<asrwt>0</asrwt>
<pdfrwt beam="1">  1       21 0.19558340E-01 0.19692005E+03</pdfrwt>
<pdfrwt beam="2">  1       21 0.49964096E-01 0.19692005E+03</pdfrwt>
<totfact> 0.91675563E+04</totfact>
</mgrwt>
</event>
<event>
 4    1  0.4332500E+000  0.2177454E+03  0.7546771E-02  0.1135575E+00
         21   -1    0    0  503  502  0.00000000000E+00  0.00000000000E+00  0.28820446448E+03  0.28820446448E+03  0.00000000000E+00 0.  1.
         21   -1    0    0  501  503 -0.00000000000E+00 -0.00000000000E+00 -0.17334126298E+03  0.17334126298E+03  0.00000000000E+00 0. -1.
          6    1    1    2  501    0  0.10821393912E+03  0.75985495130E+02  0.53481840462E+01  0.21781105381E+03  0.17300000000E+03 0.  1.
         -6    1    1    2    0  502 -0.10821393912E+03 -0.75985495130E+02  0.10951501745E+03  0.24373467365E+03  0.17300000000E+03 0.  1.
<mgrwt>
<rscale>  2 0.21774538E+03</rscale>
<asrwt>0</asrwt>
<pdfrwt beam="1">  1       21 0.44339148E-01 0.21774538E+03</pdfrwt>
<pdfrwt beam="2">  1       21 0.26667887E-01 0.21774538E+03</pdfrwt>
<totfact> 0.64650306E+04</totfact>
</mgrwt>
</event>
<event>
 4    1  0.4332500E+000  0.2401064E+03  0.7546771E-02  0.1119722E+00
         21   -1    0    0  501  502  0.00000000000E+00  0.00000000000E+00  0.83413369460E+03  0.83413369460E+03  0.00000000000E+00 0.  1.
         21   -1    0    0  502  503 -0.00000000000E+00 -0.00000000000E+00 -0.16328605544E+03  0.16328605544E+03  0.00000000000E+00 0.  1.
          6    1    1    2  501    0 -0.15642825418E+03  0.57028759243E+02  0.71415611280E+03  0.75343880411E+03  0.17300000000E+03 0.  1.
         -6    1    1    2    0  503  0.15642825418E+03 -0.57028759243E+02 -0.43308473640E+02  0.24398094593E+03  0.17300000000E+03 0.  1.
<mgrwt>
<rscale>  2 0.24010639E+03</rscale>
<asrwt>0</asrwt>
<pdfrwt beam="1">  1       21 0.12832826E+00 0.24010639E+03</pdfrwt>
<pdfrwt beam="2">  1       21 0.25120932E-01 0.24010639E+03</pdfrwt>
<totfact> 0.64761908E+03</totfact>
</mgrwt>
</event>
<event>
 4    1  0.4332500E+000  0.2016388E+03  0.7546771E-02  0.1148364E+00
         21   -1    0    0  503  502  0.00000000000E+00  0.00000000000E+00  0.59747008686E+03  0.59747008686E+03  0.00000000000E+00 0.  1.
         21   -1    0    0  501  503 -0.00000000000E+00 -0.00000000000E+00 -0.20613429754E+03  0.20613429754E+03  0.00000000000E+00 0.  1.
          6    1    1    2  501    0 -0.91507215799E+02 -0.48534985305E+02 -0.13319004464E+03  0.24165637449E+03  0.17300000000E+03 0.  1.
         -6    1    1    2    0  502  0.91507215799E+02  0.48534985305E+02  0.52452583396E+03  0.56194800990E+03  0.17300000000E+03 0.  1.
<mgrwt>
<rscale>  2 0.20163882E+03</rscale>
<asrwt>0</asrwt>
<pdfrwt beam="1">  1       21 0.91918474E-01 0.20163882E+03</pdfrwt>
<pdfrwt beam="2">  1       21 0.31712969E-01 0.20163882E+03</pdfrwt>
<totfact> 0.95032723E+03</totfact>
</mgrwt>
</event>
<event>
 4    1  0.4332500E+000  0.1809405E+03  0.7546771E-02  0.1166896E+00
         21   -1    0    0  501  502  0.00000000000E+00  0.00000000000E+00  0.31296815044E+03  0.31296815044E+03  0.00000000000E+00 0. -1.
         21   -1    0    0  502  503 -0.00000000000E+00 -0.00000000000E+00 -0.14325032418E+03  0.14325032418E+03  0.00000000000E+00 0. -1.
          6    1    1    2  501    0 -0.53013390764E+02  0.21405185756E+00  0.20333148894E+03  0.27218221803E+03  0.17300000000E+03 0. -1.
         -6    1    1    2    0  503  0.53013390764E+02 -0.21405185756E+00 -0.33613662679E+02  0.18403625658E+03  0.17300000000E+03 0. -1.
<mgrwt>
<rscale>  2 0.18094050E+03</rscale>
<asrwt>0</asrwt>
<pdfrwt beam="1">  1       21 0.48148946E-01 0.18094050E+03</pdfrwt>
<pdfrwt beam="2">  1       21 0.22038512E-01 0.18094050E+03</pdfrwt>
<totfact> 0.79672805E+04</totfact>
</mgrwt>
</event>
<event>
 4    1  0.4332500E+000  0.2368458E+03  0.7546771E-02  0.1121912E+00
         21   -1    0    0  501  502  0.00000000000E+00  0.00000000000E+00  0.28341256548E+03  0.28341256548E+03  0.00000000000E+00 0. -1.
         21   -1    0    0  502  503 -0.00000000000E+00 -0.00000000000E+00 -0.20607261487E+03  0.20607261487E+03  0.00000000000E+00 0. -1.
          6    1    1    2  501    0  0.28955512690E+02 -0.15914929195E+03  0.87319073484E+02  0.25242927611E+03  0.17300000000E+03 0. -1.
         -6    1    1    2    0  503 -0.28955512690E+02  0.15914929195E+03 -0.99791228750E+01  0.23705590424E+03  0.17300000000E+03 0. -1.
<mgrwt>
<rscale>  2 0.23684577E+03</rscale>
<asrwt>0</asrwt>
<pdfrwt beam="1">  1       21 0.43601933E-01 0.23684577E+03</pdfrwt>
<pdfrwt beam="2">  1       21 0.31703479E-01 0.23684577E+03</pdfrwt>
<totfact> 0.47376614E+04</totfact>
</mgrwt>
</event>
<event>
 4    1  0.4332500E+000  0.1846814E+03  0.7546771E-02  0.1163348E+00
         21   -1    0    0  501  502  0.00000000000E+00  0.00000000000E+00  0.24003577592E+04  0.24003577592E+04  0.00000000000E+00 0. -1.
         21   -1    0    0  502  503 -0.00000000000E+00 -0.00000000000E+00 -0.10460044570E+03  0.10460044570E+03  0.00000000000E+00 0. -1.
          6    1    1    2  501    0  0.66826923661E+01  0.64292901070E+02  0.23121838500E+04  0.23195476696E+04  0.17300000000E+03 0. -1.
         -6    1    1    2    0  503 -0.66826923661E+01 -0.64292901070E+02 -0.16426536450E+02  0.18541053531E+03  0.17300000000E+03 0. -1.
<mgrwt>
<rscale>  2 0.18468144E+03</rscale>
<asrwt>0</asrwt>
<pdfrwt beam="1">  1       21 0.36928577E+00 0.18468144E+03</pdfrwt>
<pdfrwt beam="2">  1       21 0.16092378E-01 0.18468144E+03</pdfrwt>
<totfact> 0.46926527E+02</totfact>
</mgrwt>
</event>
<event>
 4    1  0.4332500E+000  0.3029871E+03  0.7546771E-02  0.1083757E+00
         21   -1    0    0  501  502  0.00000000000E+00  0.00000000000E+00  0.90949843356E+03  0.90949843356E+03  0.00000000000E+00 0.  1.
         21   -1    0    0  502  503 -0.00000000000E+00 -0.00000000000E+00 -0.10180476958E+03  0.10180476958E+03  0.00000000000E+00 0. -1.
          6    1    1    2  501    0  0.64895397179E+02  0.24012661192E+03  0.45055585878E+03  0.54295652147E+03  0.17300000000E+03 0. -1.
         -6    1    1    2    0  503 -0.64895397179E+02 -0.24012661192E+03  0.35713780521E+03  0.46834668168E+03  0.17300000000E+03 0. -1.
<mgrwt>
<rscale>  2 0.30298713E+03</rscale>
<asrwt>0</asrwt>
<pdfrwt beam="1">  1       21 0.13992283E+00 0.30298713E+03</pdfrwt>
<pdfrwt beam="2">  1       21 0.15662273E-01 0.30298713E+03</pdfrwt>
<totfact> 0.12180006E+04</totfact>
</mgrwt>
</event>
<event>
 4    1  0.4332500E+000  0.2254768E+03  0.7546771E-02  0.1129865E+00
         21   -1    0    0  503  502  0.00000000000E+00  0.00000000000E+00  0.17498679514E+03  0.17498679514E+03  0.00000000000E+00 0. -1.
         21   -1    0    0  501  503 -0.00000000000E+00 -0.00000000000E+00 -0.30556448665E+03  0.30556448665E+03  0.00000000000E+00 0. -1.
          6    1    1    2  501    0 -0.13796354633E+03 -0.43322639901E+02 -0.11857693578E+03  0.25475533545E+03  0.17300000000E+03 0. -1.
         -6    1    1    2    0  502  0.13796354633E+03  0.43322639901E+02 -0.12000755727E+02  0.22579594633E+03  0.17300000000E+03 0. -1.
<mgrwt>
<rscale>  2 0.22547681E+03</rscale>
<asrwt>0</asrwt>
<pdfrwt beam="1">  1       21 0.26921045E-01 0.22547681E+03</pdfrwt>
<pdfrwt beam="2">  1       21 0.47009921E-01 0.22547681E+03</pdfrwt>
<totfact> 0.56075177E+04</totfact>
</mgrwt>
</event>
<event>
 4    1  0.4332500E+000  0.2247384E+03  0.7546771E-02  0.1130399E+00
         21   -1    0    0  503  502  0.00000000000E+00  0.00000000000E+00  0.26211913763E+04  0.26211913763E+04  0.00000000000E+00 0. -1.
         21   -1    0    0  501  503 -0.00000000000E+00 -0.00000000000E+00 -0.19390759931E+02  0.19390759931E+02  0.00000000000E+00 0.  1.
          6    1    1    2  501    0 -0.10198344834E+03  0.10088468264E+03  0.11962134491E+04  0.12171417168E+04  0.17300000000E+03 0. -1.
         -6    1    1    2    0  502  0.10198344834E+03 -0.10088468264E+03  0.14055871672E+04  0.14234404194E+04  0.17300000000E+03 0.  1.
<mgrwt>
<rscale>  2 0.22473839E+03</rscale>
<asrwt>0</asrwt>
<pdfrwt beam="1">  1       21 0.40325993E+00 0.22473839E+03</pdfrwt>
<pdfrwt beam="2">  1       21 0.29831959E-02 0.22473839E+03</pdfrwt>
<totfact> 0.50976100E+03</totfact>
</mgrwt>
</event>
<event>
 4    1  0.4332500E+000  0.2926559E+03  0.7546771E-02  0.1088971E+00
         21   -1    0    0  501  502  0.00000000000E+00  0.00000000000E+00  0.92971917097E+03  0.92971917097E+03  0.00000000000E+00 0. -1.
         21   -1    0    0  502  503 -0.00000000000E+00 -0.00000000000E+00 -0.19642424187E+03  0.19642424187E+03  0.00000000000E+00 0. -1.
          6    1    1    2  501    0 -0.23465749708E+03 -0.25580175264E+02  0.77695851645E+03  0.83024816927E+03  0.17300000000E+03 0. -1.
         -6    1    1    2    0  503  0.23465749708E+03  0.25580175264E+02 -0.43663587350E+02  0.29589524357E+03  0.17300000000E+03 0. -1.
<mgrwt>
<rscale>  2 0.29265592E+03</rscale>
<asrwt>0</asrwt>
<pdfrwt beam="1">  1       21 0.14303372E+00 0.29265592E+03</pdfrwt>
<pdfrwt beam="2">  1       21 0.30219115E-01 0.29265592E+03</pdfrwt>
<totfact> 0.33071754E+03</totfact>
</mgrwt>
</event>
<event>
 4    1  0.4332500E+000  0.1923955E+03  0.7546771E-02  0.1156318E+00
         21   -1    0    0  503  502  0.00000000000E+00  0.00000000000E+00  0.41867064909E+03  0.41867064909E+03  0.00000000000E+00 0.  1.
         21   -1    0    0  501  503 -0.00000000000E+00 -0.00000000000E+00 -0.10954831438E+03  0.10954831438E+03  0.00000000000E+00 0.  1.
          6    1    1    2  501    0 -0.46722517659E+02  0.70028910808E+02  0.38554565846E+02  0.19622053041E+03  0.17300000000E+03 0.  1.
         -6    1    1    2    0  502  0.46722517659E+02 -0.70028910808E+02  0.27056776887E+03  0.33199843306E+03  0.17300000000E+03 0.  1.
<mgrwt>
<rscale>  2 0.19239554E+03</rscale>
<asrwt>0</asrwt>
<pdfrwt beam="1">  1       21 0.64410868E-01 0.19239554E+03</pdfrwt>
<pdfrwt beam="2">  1       21 0.16853587E-01 0.19239554E+03</pdfrwt>
<totfact> 0.70477333E+04</totfact>
</mgrwt>
</event>
<event>
 4    1  0.4332500E+000  0.1812535E+03  0.7546771E-02  0.1166595E+00
         21   -1    0    0  501  502  0.00000000000E+00  0.00000000000E+00  0.34213114560E+02  0.34213114560E+02  0.00000000000E+00 0.  1.
         21   -1    0    0  502  503 -0.00000000000E+00 -0.00000000000E+00 -0.96779003549E+03  0.96779003549E+03  0.00000000000E+00 0.  1.
          6    1    1    2  501    0  0.52351969094E+02 -0.13531288748E+02 -0.51103745552E+03  0.54222883121E+03  0.17300000000E+03 0.  1.
         -6    1    1    2    0  503 -0.52351969094E+02  0.13531288748E+02 -0.42253946541E+03  0.45977431885E+03  0.17300000000E+03 0.  1.
<mgrwt>
<rscale>  2 0.18125348E+03</rscale>
<asrwt>0</asrwt>
<pdfrwt beam="1">  1       21 0.52635563E-02 0.18125348E+03</pdfrwt>
<pdfrwt beam="2">  1       21 0.14889077E+00 0.18125348E+03</pdfrwt>
<totfact> 0.75575978E+04</totfact>
</mgrwt>
</event>
<event>
 4    1  0.4332500E+000  0.2222243E+03  0.7546771E-02  0.1132236E+00
         21   -1    0    0  501  502  0.00000000000E+00  0.00000000000E+00  0.90670490054E+03  0.90670490054E+03  0.00000000000E+00 0. -1.
         21   -1    0    0  502  503 -0.00000000000E+00 -0.00000000000E+00 -0.60209518657E+02  0.60209518657E+02  0.00000000000E+00 0. -1.
          6    1    1    2  501    0 -0.11109383036E+03  0.84337550481E+02  0.57257978477E+03  0.61419155929E+03  0.17300000000E+03 0. -1.
         -6    1    1    2    0  503  0.11109383036E+03 -0.84337550481E+02  0.27391559710E+03  0.35272285991E+03  0.17300000000E+03 0. -1.
<mgrwt>
<rscale>  2 0.22222435E+03</rscale>
<asrwt>0</asrwt>
<pdfrwt beam="1">  1       21 0.13949305E+00 0.22222435E+03</pdfrwt>
<pdfrwt beam="2">  1       21 0.92630035E-02 0.22222435E+03</pdfrwt>
<totfact> 0.32970840E+04</totfact>
</mgrwt>
</event>
<event>
 4    1  0.4332500E+000  0.1896403E+03  0.7546771E-02  0.1158786E+00
         21   -1    0    0  503  502  0.00000000000E+00  0.00000000000E+00  0.77726239434E+02  0.77726239434E+02  0.00000000000E+00 0. -1.
         21   -1    0    0  501  503 -0.00000000000E+00 -0.00000000000E+00 -0.49559644013E+03  0.49559644013E+03  0.00000000000E+00 0. -1.
          6    1    1    2  501    0  0.74933324313E+01  0.77319540541E+02 -0.28279681185E+03  0.34049595911E+03  0.17300000000E+03 0. -1.
         -6    1    1    2    0  502 -0.74933324313E+01 -0.77319540541E+02 -0.13507338884E+03  0.23282672045E+03  0.17300000000E+03 0. -1.
<mgrwt>
<rscale>  2 0.18964035E+03</rscale>
<asrwt>0</asrwt>
<pdfrwt beam="1">  1       21 0.11957883E-01 0.18964035E+03</pdfrwt>
<pdfrwt beam="2">  1       21 0.76245608E-01 0.18964035E+03</pdfrwt>
<totfact> 0.90604937E+04</totfact>
</mgrwt>
</event>
<event>
 4    1  0.4332500E+000  0.2056705E+03  0.7546771E-02  0.1145041E+00
         21   -1    0    0  501  502  0.00000000000E+00  0.00000000000E+00  0.64131165010E+03  0.64131165010E+03  0.00000000000E+00 0.  1.
         21   -1    0    0  502  503 -0.00000000000E+00 -0.00000000000E+00 -0.87965545620E+02  0.87965545620E+02  0.00000000000E+00 0.  1.
          6    1    1    2  501    0  0.98312744953E+02 -0.52018860399E+02  0.45905464572E+03  0.50302239057E+03  0.17300000000E+03 0.  1.
         -6    1    1    2    0  503 -0.98312744953E+02  0.52018860399E+02  0.94291458757E+02  0.22625480515E+03  0.17300000000E+03 0.  1.
<mgrwt>
<rscale>  2 0.20567051E+03</rscale>
<asrwt>0</asrwt>
<pdfrwt beam="1">  1       21 0.98663328E-01 0.20567051E+03</pdfrwt>
<pdfrwt beam="2">  1       21 0.13533161E-01 0.20567051E+03</pdfrwt>
<totfact> 0.39788322E+04</totfact>
</mgrwt>
</event>
<event>
 4    1  0.4332500E+000  0.2347328E+03  0.7546771E-02  0.1123352E+00
         21   -1    0    0  501  502  0.00000000000E+00  0.00000000000E+00  0.36991424788E+03  0.36991424788E+03  0.00000000000E+00 0.  1.
         21   -1    0    0  502  503 -0.00000000000E+00 -0.00000000000E+00 -0.14917247141E+03  0.14917247141E+03  0.00000000000E+00 0. -1.
          6    1    1    2  501    0  0.15447353072E+03 -0.36171745451E+02  0.12034885891E+03  0.26378649454E+03  0.17300000000E+03 0. -1.
         -6    1    1    2    0  503 -0.15447353072E+03  0.36171745451E+02  0.10039291756E+03  0.25530022475E+03  0.17300000000E+03 0.  1.
<mgrwt>
<rscale>  2 0.23473276E+03</rscale>
<asrwt>0</asrwt>
<pdfrwt beam="1">  1       21 0.56909884E-01 0.23473276E+03</pdfrwt>
<pdfrwt beam="2">  1       21 0.22949611E-01 0.23473276E+03</pdfrwt>
<totfact> 0.50716599E+04</totfact>
</mgrwt>
</event>
<event>
 4    1  0.4332500E+000  0.2775605E+03  0.7546771E-02  0.1097029E+00
         21   -1    0    0  501  502  0.00000000000E+00  0.00000000000E+00  0.19560102115E+03  0.19560102115E+03  0.00000000000E+00 0. -1.
         21   -1    0    0  502  503 -0.00000000000E+00 -0.00000000000E+00 -0.65848013125E+03  0.65848013125E+03  0.00000000000E+00 0.  1.
          6    1    1    2  501    0 -0.21631943464E+03  0.17797679231E+02  0.39272385308E+02  0.28032512452E+03  0.17300000000E+03 0. -1.
         -6    1    1    2    0  503  0.21631943464E+03 -0.17797679231E+02 -0.50215149542E+03  0.57375602789E+03  0.17300000000E+03 0.  1.
<mgrwt>
<rscale>  2 0.27756054E+03</rscale>
<asrwt>0</asrwt>
<pdfrwt beam="1">  1       21 0.30092465E-01 0.27756054E+03</pdfrwt>
<pdfrwt beam="2">  1       21 0.10130464E+00 0.27756054E+03</pdfrwt>
<totfact> 0.79952781E+03</totfact>
</mgrwt>
</event>
<event>
 4    1  0.4332500E+000  0.5381610E+03  0.7546771E-02  0.1004272E+00
         21   -1    0    0  503  502  0.00000000000E+00  0.00000000000E+00  0.79685033638E+03  0.79685033638E+03  0.00000000000E+00 0. -1.
         21   -1    0    0  501  503 -0.00000000000E+00 -0.00000000000E+00 -0.42026346951E+03  0.42026346951E+03  0.00000000000E+00 0.  1.
          6    1    1    2  501    0 -0.50055726097E+03  0.95554403142E+02 -0.35453258664E+02  0.53932749700E+03  0.17300000000E+03 0. -1.
         -6    1    1    2    0  502  0.50055726097E+03 -0.95554403142E+02  0.41204012553E+03  0.67778630889E+03  0.17300000000E+03 0.  1.
<mgrwt>
<rscale>  2 0.53816096E+03</rscale>
<asrwt>0</asrwt>
<pdfrwt beam="1">  1       21 0.12259236E+00 0.53816096E+03</pdfrwt>
<pdfrwt beam="2">  1       21 0.64655919E-01 0.53816096E+03</pdfrwt>
<totfact> 0.90441098E+02</totfact>
</mgrwt>
</event>
<event>
 4    1  0.4332500E+000  0.2390635E+03  0.7546771E-02  0.1120418E+00
         21   -1    0    0  503  502  0.00000000000E+00  0.00000000000E+00  0.45522060018E+03  0.45522060018E+03  0.00000000000E+00 0. -1.
         21   -1    0    0  501  503 -0.00000000000E+00 -0.00000000000E+00 -0.16747221389E+03  0.16747221389E+03  0.00000000000E+00 0. -1.
          6    1    1    2  501    0  0.12177072420E+03 -0.11132950253E+03 -0.11906111103E+02  0.23935981887E+03  0.17300000000E+03 0. -1.
         -6    1    1    2    0  502 -0.12177072420E+03  0.11132950253E+03  0.29965449739E+03  0.38333299520E+03  0.17300000000E+03 0. -1.
<mgrwt>
<rscale>  2 0.23906352E+03</rscale>
<asrwt>0</asrwt>
<pdfrwt beam="1">  1       21 0.70033938E-01 0.23906352E+03</pdfrwt>
<pdfrwt beam="2">  1       21 0.25764956E-01 0.23906352E+03</pdfrwt>
<totfact> 0.25817488E+04</totfact>
</mgrwt>
</event>
<event>
 4    1  0.4332500E+000  0.2043191E+03  0.7546771E-02  0.1146145E+00
         21   -1    0    0  501  502  0.00000000000E+00  0.00000000000E+00  0.28776602291E+03  0.28776602291E+03  0.00000000000E+00 0. -1.
         21   -1    0    0  502  503 -0.00000000000E+00 -0.00000000000E+00 -0.29197274775E+03  0.29197274775E+03  0.00000000000E+00 0.  1.
          6    1    1    2  501    0 -0.10809369905E+03  0.11533815383E+02 -0.20771412501E+03  0.29136134679E+03  0.17300000000E+03 0.  1.
         -6    1    1    2    0  503  0.10809369905E+03 -0.11533815383E+02  0.20350740017E+03  0.28837742387E+03  0.17300000000E+03 0. -1.
<mgrwt>
<rscale>  2 0.20431906E+03</rscale>
<asrwt>0</asrwt>
<pdfrwt beam="1">  1       21 0.44271696E-01 0.20431906E+03</pdfrwt>
<pdfrwt beam="2">  1       21 0.44918884E-01 0.20431906E+03</pdfrwt>
<totfact> 0.23147629E+04</totfact>
</mgrwt>
</event>
<event>
 4    1  0.4332500E+000  0.2732857E+03  0.7546771E-02  0.1099414E+00
         21   -1    0    0  503  502  0.00000000000E+00  0.00000000000E+00  0.29429358136E+03  0.29429358136E+03  0.00000000000E+00 0. -1.
         21   -1    0    0  501  503 -0.00000000000E+00 -0.00000000000E+00 -0.36343941436E+03  0.36343941436E+03  0.00000000000E+00 0.  1.
          6    1    1    2  501    0 -0.99397425450E+02 -0.18675173056E+03 -0.21522033106E+03  0.34785751099E+03  0.17300000000E+03 0.  1.
         -6    1    1    2    0  502  0.99397425450E+02  0.18675173056E+03  0.14607449805E+03  0.30987548473E+03  0.17300000000E+03 0. -1.
<mgrwt>
<rscale>  2 0.27328567E+03</rscale>
<asrwt>0</asrwt>
<pdfrwt beam="1">  1       21 0.45275936E-01 0.27328567E+03</pdfrwt>
<pdfrwt beam="2">  1       21 0.55913756E-01 0.27328567E+03</pdfrwt>
<totfact> 0.13471980E+04</totfact>
</mgrwt>
</event>
<event>
 4    1  0.4332500E+000  0.1869271E+03  0.7546771E-02  0.1161262E+00
         21   -1    0    0  501  502  0.00000000000E+00  0.00000000000E+00  0.36108291803E+03  0.36108291803E+03  0.00000000000E+00 0.  1.
         21   -1    0    0  502  503 -0.00000000000E+00 -0.00000000000E+00 -0.11813962896E+03  0.11813962896E+03  0.00000000000E+00 0.  1.
          6    1    1    2  501    0 -0.60458560429E+02 -0.36844561959E+02  0.22338111425E+03  0.29127458090E+03  0.17300000000E+03 0.  1.
         -6    1    1    2    0  503  0.60458560429E+02  0.36844561959E+02  0.19562174817E+02  0.18794796609E+03  0.17300000000E+03 0.  1.
<mgrwt>
<rscale>  2 0.18692715E+03</rscale>
<asrwt>0</asrwt>
<pdfrwt beam="1">  1       21 0.55551218E-01 0.18692715E+03</pdfrwt>
<pdfrwt beam="2">  1       21 0.18175328E-01 0.18692715E+03</pdfrwt>
<totfact> 0.84413910E+04</totfact>
</mgrwt>
</event>
<event>
 4    1  0.4332500E+000  0.2006749E+03  0.7546771E-02  0.1149171E+00
         21   -1    0    0  501  502  0.00000000000E+00  0.00000000000E+00  0.34616519455E+03  0.34616519455E+03  0.00000000000E+00 0. -1.
         21   -1    0    0  502  503 -0.00000000000E+00 -0.00000000000E+00 -0.14752522638E+03  0.14752522638E+03  0.00000000000E+00 0. -1.
          6    1    1    2  501    0  0.75015636941E+02  0.68659182485E+02  0.21282495374E+03  0.29251476896E+03  0.17300000000E+03 0. -1.
         -6    1    1    2    0  503 -0.75015636941E+02 -0.68659182485E+02 -0.14184985573E+02  0.20117565196E+03  0.17300000000E+03 0. -1.
<mgrwt>
<rscale>  2 0.20067493E+03</rscale>
<asrwt>0</asrwt>
<pdfrwt beam="1">  1       21 0.53256183E-01 0.20067493E+03</pdfrwt>
<pdfrwt beam="2">  1       21 0.22696189E-01 0.20067493E+03</pdfrwt>
<totfact> 0.60538146E+04</totfact>
</mgrwt>
</event>
<event>
 4    1  0.4332500E+000  0.2185678E+03  0.7546771E-02  0.1134955E+00
         21   -1    0    0  501  502  0.00000000000E+00  0.00000000000E+00  0.20209534788E+03  0.20209534788E+03  0.00000000000E+00 0. -1.
         21   -1    0    0  502  503 -0.00000000000E+00 -0.00000000000E+00 -0.54745766095E+03  0.54745766095E+03  0.00000000000E+00 0.  1.
          6    1    1    2  501    0 -0.13306625581E+03  0.11673200598E+02  0.10982599681E+03  0.24460916095E+03  0.17300000000E+03 0. -1.
         -6    1    1    2    0  503  0.13306625581E+03 -0.11673200598E+02 -0.45518830989E+03  0.50494384788E+03  0.17300000000E+03 0.  1.
<mgrwt>
<rscale>  2 0.21856782E+03</rscale>
<asrwt>0</asrwt>
<pdfrwt beam="1">  1       21 0.31091593E-01 0.21856782E+03</pdfrwt>
<pdfrwt beam="2">  1       21 0.84224254E-01 0.21856782E+03</pdfrwt>
<totfact> 0.11955663E+04</totfact>
</mgrwt>
</event>
<event>
 4    1  0.4332500E+000  0.2000391E+03  0.7546771E-02  0.1149706E+00
         21   -1    0    0  503  502  0.00000000000E+00  0.00000000000E+00  0.51632253268E+03  0.51632253268E+03  0.00000000000E+00 0.  1.
         21   -1    0    0  501  503 -0.00000000000E+00 -0.00000000000E+00 -0.78683736787E+02  0.78683736787E+02  0.00000000000E+00 0.  1.
          6    1    1    2  501    0 -0.21892760562E+02 -0.98016986306E+02  0.18234786607E+03  0.27067760681E+03  0.17300000000E+03 0.  1.
         -6    1    1    2    0  502  0.21892760562E+02  0.98016986306E+02  0.25529092983E+03  0.32432866266E+03  0.17300000000E+03 0.  1.
<mgrwt>
<rscale>  2 0.20003905E+03</rscale>
<asrwt>0</asrwt>
<pdfrwt beam="1">  1       21 0.79434234E-01 0.20003905E+03</pdfrwt>
<pdfrwt beam="2">  1       21 0.12105191E-01 0.20003905E+03</pdfrwt>
<totfact> 0.80477604E+04</totfact>
</mgrwt>
</event>
<event>
 4    1  0.4332500E+000  0.1904789E+03  0.7546771E-02  0.1158030E+00
         21   -1    0    0  503  502  0.00000000000E+00  0.00000000000E+00  0.95530911894E+03  0.95530911894E+03  0.00000000000E+00 0.  1.
         21   -1    0    0  501  503 -0.00000000000E+00 -0.00000000000E+00 -0.52601168430E+02  0.52601168430E+02  0.00000000000E+00 0.  1.
          6    1    1    2  501    0 -0.68085718736E+02  0.41443315880E+02  0.18565378715E+03  0.26598786102E+03  0.17300000000E+03 0.  1.
         -6    1    1    2    0  502  0.68085718736E+02 -0.41443315880E+02  0.71705416337E+03  0.74192242635E+03  0.17300000000E+03 0.  1.
<mgrwt>
<rscale>  2 0.19047891E+03</rscale>
<asrwt>0</asrwt>
<pdfrwt beam="1">  1       21 0.14697062E+00 0.19047891E+03</pdfrwt>
<pdfrwt beam="2">  1       21 0.80924882E-02 0.19047891E+03</pdfrwt>
<totfact> 0.37140384E+04</totfact>
</mgrwt>
</event>
<event>
 4    1  0.4332500E+000  0.2271334E+03  0.7546771E-02  0.1128674E+00
         21   -1    0    0  503  502  0.00000000000E+00  0.00000000000E+00  0.63305385713E+02  0.63305385713E+02  0.00000000000E+00 0. -1.
         21   -1    0    0  501  503 -0.00000000000E+00 -0.00000000000E+00 -0.10258452903E+04  0.10258452903E+04  0.00000000000E+00 0.  1.
          6    1    1    2  501    0  0.13800366530E+03  0.51142642376E+02 -0.72819722453E+03  0.76279799378E+03  0.17300000000E+03 0.  1.
         -6    1    1    2    0  502 -0.13800366530E+03 -0.51142642376E+02 -0.23434268006E+03  0.32635268224E+03  0.17300000000E+03 0. -1.
<mgrwt>
<rscale>  2 0.22713340E+03</rscale>
<asrwt>0</asrwt>
<pdfrwt beam="1">  1       21 0.97392897E-02 0.22713340E+03</pdfrwt>
<pdfrwt beam="2">  1       21 0.15782236E+00 0.22713340E+03</pdfrwt>
<totfact> 0.21713817E+04</totfact>
</mgrwt>
</event>
<event>
 4    1  0.4332500E+000  0.2471328E+03  0.7546771E-02  0.1115130E+00
         21   -1    0    0  501  502  0.00000000000E+00  0.00000000000E+00  0.32215317821E+03  0.32215317821E+03  0.00000000000E+00 0. -1.
         21   -1    0    0  502  503 -0.00000000000E+00 -0.00000000000E+00 -0.18973633053E+03  0.18973633053E+03  0.00000000000E+00 0.  1.
          6    1    1    2  501    0  0.49280338262E+02  0.16946104095E+03  0.73496798228E+02  0.25783012913E+03  0.17300000000E+03 0. -1.
         -6    1    1    2    0  503 -0.49280338262E+02 -0.16946104095E+03  0.58920049453E+02  0.25405937961E+03  0.17300000000E+03 0. -1.
<mgrwt>
<rscale>  2 0.24713275E+03</rscale>
<asrwt>0</asrwt>
<pdfrwt beam="1">  1       21 0.49562028E-01 0.24713275E+03</pdfrwt>
<pdfrwt beam="2">  1       21 0.29190205E-01 0.24713275E+03</pdfrwt>
<totfact> 0.42526177E+04</totfact>
</mgrwt>
</event>
<event>
 4    1  0.4332500E+000  0.2350984E+03  0.7546771E-02  0.1123102E+00
         21   -1    0    0  501  502  0.00000000000E+00  0.00000000000E+00  0.21442829503E+03  0.21442829503E+03  0.00000000000E+00 0. -1.
         21   -1    0    0  502  503 -0.00000000000E+00 -0.00000000000E+00 -0.45728009743E+03  0.45728009743E+03  0.00000000000E+00 0. -1.
          6    1    1    2  501    0  0.70664857441E+02 -0.14264891508E+03  0.10042027604E+03  0.25564715311E+03  0.17300000000E+03 0. -1.
         -6    1    1    2    0  503 -0.70664857441E+02  0.14264891508E+03 -0.34327207844E+03  0.41606123935E+03  0.17300000000E+03 0. -1.
<mgrwt>
<rscale>  2 0.23509835E+03</rscale>
<asrwt>0</asrwt>
<pdfrwt beam="1">  1       21 0.32988968E-01 0.23509835E+03</pdfrwt>
<pdfrwt beam="2">  1       21 0.70350785E-01 0.23509835E+03</pdfrwt>
<totfact> 0.15807830E+04</totfact>
</mgrwt>
</event>
<event>
 4    1  0.4332500E+000  0.2679925E+03  0.7546771E-02  0.1102434E+00
         21   -1    0    0  503  502  0.00000000000E+00  0.00000000000E+00  0.47897454836E+03  0.47897454836E+03  0.00000000000E+00 0. -1.
         21   -1    0    0  501  503 -0.00000000000E+00 -0.00000000000E+00 -0.16059136215E+03  0.16059136215E+03  0.00000000000E+00 0.  1.
          6    1    1    2  501    0 -0.13079241126E+02 -0.20425453194E+03  0.76855775264E+02  0.27879524845E+03  0.17300000000E+03 0. -1.
         -6    1    1    2    0  502  0.13079241126E+02  0.20425453194E+03  0.24152741094E+03  0.36077066206E+03  0.17300000000E+03 0.  1.
<mgrwt>
<rscale>  2 0.26799250E+03</rscale>
<asrwt>0</asrwt>
<pdfrwt beam="1">  1       21 0.73688392E-01 0.26799250E+03</pdfrwt>
<pdfrwt beam="2">  1       21 0.24706364E-01 0.26799250E+03</pdfrwt>
<totfact> 0.24656734E+04</totfact>
</mgrwt>
</event>
<event>
 4    1  0.4332500E+000  0.2318675E+03  0.7546771E-02  0.1125332E+00
         21   -1    0    0  501  502  0.00000000000E+00  0.00000000000E+00  0.10271452115E+03  0.10271452115E+03  0.00000000000E+00 0.  1.
         21   -1    0    0  502  503 -0.00000000000E+00 -0.00000000000E+00 -0.52342438595E+03  0.52342438595E+03  0.00000000000E+00 0. -1.
          6    1    1    2  501    0  0.40918632632E+02  0.14885963287E+03 -0.20917757490E+03  0.31227837363E+03  0.17300000000E+03 0.  1.
         -6    1    1    2    0  503 -0.40918632632E+02 -0.14885963287E+03 -0.21153228990E+03  0.31386053346E+03  0.17300000000E+03 0.  1.
<mgrwt>
<rscale>  2 0.23186747E+03</rscale>
<asrwt>0</asrwt>
<pdfrwt beam="1">  1       21 0.15802234E-01 0.23186747E+03</pdfrwt>
<pdfrwt beam="2">  1       21 0.80526830E-01 0.23186747E+03</pdfrwt>
<totfact> 0.47435963E+04</totfact>
</mgrwt>
</event>
<event>
 4    1  0.4332500E+000  0.2288328E+03  0.7546771E-02  0.1127464E+00
         21   -1    0    0  501  502  0.00000000000E+00  0.00000000000E+00  0.20973603620E+03  0.20973603620E+03  0.00000000000E+00 0.  1.
         21   -1    0    0  502  503 -0.00000000000E+00 -0.00000000000E+00 -0.25545382257E+03  0.25545382257E+03  0.00000000000E+00 0.  1.
          6    1    1    2  501    0 -0.98538972335E+02  0.11280749991E+03  0.12144608174E+02  0.22915486600E+03  0.17300000000E+03 0.  1.
         -6    1    1    2    0  503  0.98538972335E+02 -0.11280749991E+03 -0.57862394543E+02  0.23603499276E+03  0.17300000000E+03 0.  1.
<mgrwt>
<rscale>  2 0.22883282E+03</rscale>
<asrwt>0</asrwt>
<pdfrwt beam="1">  1       21 0.32267083E-01 0.22883282E+03</pdfrwt>
<pdfrwt beam="2">  1       21 0.39300588E-01 0.22883282E+03</pdfrwt>
<totfact> 0.56744448E+04</totfact>
</mgrwt>
</event>
<event>
 4    1  0.4332500E+000  0.2161660E+03  0.7546771E-02  0.1136774E+00
         21   -1    0    0  501  502  0.00000000000E+00  0.00000000000E+00  0.83494184562E+03  0.83494184562E+03  0.00000000000E+00 0. -1.
         21   -1    0    0  502  503 -0.00000000000E+00 -0.00000000000E+00 -0.68786167190E+02  0.68786167190E+02  0.00000000000E+00 0. -1.
          6    1    1    2  501    0 -0.89147607723E+02 -0.94082181347E+02  0.57815941737E+03  0.61724878672E+03  0.17300000000E+03 0. -1.
         -6    1    1    2    0  503  0.89147607723E+02  0.94082181347E+02  0.18799626106E+03  0.28647922609E+03  0.17300000000E+03 0. -1.
<mgrwt>
<rscale>  2 0.21616603E+03</rscale>
<asrwt>0</asrwt>
<pdfrwt beam="1">  1       21 0.12845258E+00 0.21616603E+03</pdfrwt>
<pdfrwt beam="2">  1       21 0.10582488E-01 0.21616603E+03</pdfrwt>
<totfact> 0.32261407E+04</totfact>
</mgrwt>
</event>
<event>
 4    1  0.4332500E+000  0.1991143E+03  0.7546771E-02  0.1150488E+00
         21   -1    0    0  501  502  0.00000000000E+00  0.00000000000E+00  0.94126797476E+02  0.94126797476E+02  0.00000000000E+00 0.  1.
         21   -1    0    0  502  503 -0.00000000000E+00 -0.00000000000E+00 -0.72664480065E+03  0.72664480065E+03  0.00000000000E+00 0.  1.
          6    1    1    2  501    0  0.61964461323E+02 -0.76667529948E+02 -0.50189338175E+02  0.20534233436E+03  0.17300000000E+03 0.  1.
         -6    1    1    2    0  503 -0.61964461323E+02  0.76667529948E+02 -0.58232866500E+03  0.61542926376E+03  0.17300000000E+03 0.  1.
<mgrwt>
<rscale>  2 0.19911430E+03</rscale>
<asrwt>0</asrwt>
<pdfrwt beam="1">  1       21 0.14481046E-01 0.19911430E+03</pdfrwt>
<pdfrwt beam="2">  1       21 0.11179151E+00 0.19911430E+03</pdfrwt>
<totfact> 0.26163728E+04</totfact>
</mgrwt>
</event>
<event>
 4    1  0.4332500E+000  0.2161143E+03  0.7546771E-02  0.1136814E+00
         21   -1    0    0  501  502  0.00000000000E+00  0.00000000000E+00  0.59375412792E+02  0.59375412792E+02  0.00000000000E+00 0.  1.
         21   -1    0    0  502  503 -0.00000000000E+00 -0.00000000000E+00 -0.10274169903E+04  0.10274169903E+04  0.00000000000E+00 0.  1.
          6    1    1    2  501    0 -0.12799656380E+03  0.19830725195E+02 -0.22094766153E+03  0.30906835351E+03  0.17300000000E+03 0.  1.
         -6    1    1    2    0  503  0.12799656380E+03 -0.19830725195E+02 -0.74709391602E+03  0.77772404962E+03  0.17300000000E+03 0.  1.
<mgrwt>
<rscale>  2 0.21611427E+03</rscale>
<asrwt>0</asrwt>
<pdfrwt beam="1">  1       21 0.91346790E-02 0.21611427E+03</pdfrwt>
<pdfrwt beam="2">  1       21 0.15806415E+00 0.21611427E+03</pdfrwt>
<totfact> 0.24378526E+04</totfact>
</mgrwt>
</event>
<event>
 4    1  0.4332500E+000  0.2061376E+03  0.7546771E-02  0.1144662E+00
         21   -1    0    0  501  502  0.00000000000E+00  0.00000000000E+00  0.11368428120E+04  0.11368428120E+04  0.00000000000E+00 0.  1.
         21   -1    0    0  502  503 -0.00000000000E+00 -0.00000000000E+00 -0.43821617363E+02  0.43821617363E+02  0.00000000000E+00 0.  1.
          6    1    1    2  501    0  0.11202098247E+03 -0.38730268352E+01  0.77288294354E+03  0.79990045960E+03  0.17300000000E+03 0.  1.
         -6    1    1    2    0  503 -0.11202098247E+03  0.38730268352E+01  0.32013825106E+03  0.38076396973E+03  0.17300000000E+03 0.  1.
<mgrwt>
<rscale>  2 0.20613758E+03</rscale>
<asrwt>0</asrwt>
<pdfrwt beam="1">  1       21 0.17489887E+00 0.20613758E+03</pdfrwt>
<pdfrwt beam="2">  1       21 0.67417882E-02 0.20613758E+03</pdfrwt>
<totfact> 0.31554317E+04</totfact>
</mgrwt>
</event>
<event>
 4    1  0.4332500E+000  0.1820632E+03  0.7546771E-02  0.1165821E+00
         21   -1    0    0  503  502  0.00000000000E+00  0.00000000000E+00  0.26810372128E+03  0.26810372128E+03  0.00000000000E+00 0. -1.
         21   -1    0    0  501  503 -0.00000000000E+00 -0.00000000000E+00 -0.12490893896E+03  0.12490893896E+03  0.00000000000E+00 0.  1.
          6    1    1    2  501    0  0.70132107341E+01  0.56292181641E+02  0.51752000509E+02  0.18927563075E+03  0.17300000000E+03 0. -1.
         -6    1    1    2    0  502 -0.70132107341E+01 -0.56292181641E+02  0.91442781812E+02  0.20373702949E+03  0.17300000000E+03 0.  1.
<mgrwt>
<rscale>  2 0.18206316E+03</rscale>
<asrwt>0</asrwt>
<pdfrwt beam="1">  1       21 0.41246726E-01 0.18206316E+03</pdfrwt>
<pdfrwt beam="2">  1       21 0.19216760E-01 0.18206316E+03</pdfrwt>
<totfact> 0.14125947E+05</totfact>
</mgrwt>
</event>
<event>
 4    1  0.4332500E+000  0.1822952E+03  0.7546771E-02  0.1165600E+00
         21   -1    0    0  501  502  0.00000000000E+00  0.00000000000E+00  0.15744800458E+03  0.15744800458E+03  0.00000000000E+00 0. -1.
         21   -1    0    0  502  503 -0.00000000000E+00 -0.00000000000E+00 -0.23639073438E+03  0.23639073438E+03  0.00000000000E+00 0. -1.
          6    1    1    2  501    0 -0.20877795662E+02 -0.53541062268E+02  0.24985184672E+02  0.18399942161E+03  0.17300000000E+03 0. -1.
         -6    1    1    2    0  503  0.20877795662E+02  0.53541062268E+02 -0.10392791447E+03  0.20983931735E+03  0.17300000000E+03 0. -1.
<mgrwt>
<rscale>  2 0.18229517E+03</rscale>
<asrwt>0</asrwt>
<pdfrwt beam="1">  1       21 0.24222770E-01 0.18229517E+03</pdfrwt>
<pdfrwt beam="2">  1       21 0.36367805E-01 0.18229517E+03</pdfrwt>
<totfact> 0.11772419E+05</totfact>
</mgrwt>
</event>
<event>
 4    1  0.4332500E+000  0.2274409E+03  0.7546771E-02  0.1128454E+00
         21   -1    0    0  501  502  0.00000000000E+00  0.00000000000E+00  0.14319823963E+04  0.14319823963E+04  0.00000000000E+00 0.  1.
         21   -1    0    0  502  503 -0.00000000000E+00 -0.00000000000E+00 -0.40939939365E+02  0.40939939365E+02  0.00000000000E+00 0.  1.
          6    1    1    2  501    0 -0.14761736390E+03  0.30762783046E+01  0.94810393500E+03  0.97500278008E+03  0.17300000000E+03 0.  1.
         -6    1    1    2    0  503  0.14761736390E+03 -0.30762783046E+01  0.44293852194E+03  0.49791955558E+03  0.17300000000E+03 0.  1.
<mgrwt>
<rscale>  2 0.22744087E+03</rscale>
<asrwt>0</asrwt>
<pdfrwt beam="1">  1       21 0.22030495E+00 0.22744087E+03</pdfrwt>
<pdfrwt beam="2">  1       21 0.62984533E-02 0.22744087E+03</pdfrwt>
<totfact> 0.17689663E+04</totfact>
</mgrwt>
</event>
<event>
 4    1  0.4332500E+000  0.1785227E+03  0.7546771E-02  0.1169240E+00
         21   -1    0    0  501  502  0.00000000000E+00  0.00000000000E+00  0.23846860500E+03  0.23846860500E+03  0.00000000000E+00 0.  1.
         21   -1    0    0  502  503 -0.00000000000E+00 -0.00000000000E+00 -0.48826064025E+03  0.48826064025E+03  0.00000000000E+00 0.  1.
          6    1    1    2  501    0  0.20320161978E+01  0.44014019923E+02  0.18477113847E+03  0.25692554690E+03  0.17300000000E+03 0.  1.
         -6    1    1    2    0  503 -0.20320161978E+01 -0.44014019923E+02 -0.43456317371E+03  0.46980369836E+03  0.17300000000E+03 0.  1.
<mgrwt>
<rscale>  2 0.17852272E+03</rscale>
<asrwt>0</asrwt>
<pdfrwt beam="1">  1       21 0.36687478E-01 0.17852272E+03</pdfrwt>
<pdfrwt beam="2">  1       21 0.75117020E-01 0.17852272E+03</pdfrwt>
<totfact> 0.11462370E+04</totfact>
</mgrwt>
</event>
<event>
 4    1  0.4332500E+000  0.2057617E+03  0.7546771E-02  0.1144967E+00
         21   -1    0    0  503  502  0.00000000000E+00  0.00000000000E+00  0.16831575197E+04  0.16831575197E+04  0.00000000000E+00 0.  1.
         21   -1    0    0  501  503 -0.00000000000E+00 -0.00000000000E+00 -0.31919715284E+02  0.31919715284E+02  0.00000000000E+00 0. -1.
          6    1    1    2  501    0  0.11095526072E+03  0.98887625741E+01  0.43081038889E+03  0.47742585673E+03  0.17300000000E+03 0. -1.
         -6    1    1    2    0  502 -0.11095526072E+03 -0.98887625741E+01  0.12204274155E+04  0.12376513782E+04  0.17300000000E+03 0.  1.
<mgrwt>
<rscale>  2 0.20576165E+03</rscale>
<asrwt>0</asrwt>
<pdfrwt beam="1">  1       21 0.25894724E+00 0.20576165E+03</pdfrwt>
<pdfrwt beam="2">  1       21 0.49107268E-02 0.20576165E+03</pdfrwt>
<totfact> 0.16152278E+04</totfact>
</mgrwt>
</event>
<event>
 4    1  0.4332500E+000  0.2686028E+03  0.7546771E-02  0.1102082E+00
         21   -1    0    0  501  502  0.00000000000E+00  0.00000000000E+00  0.52379505353E+03  0.52379505353E+03  0.00000000000E+00 0.  1.
         21   -1    0    0  502  503 -0.00000000000E+00 -0.00000000000E+00 -0.16272909654E+03  0.16272909654E+03  0.00000000000E+00 0.  1.
          6    1    1    2  501    0 -0.20545044286E+03 -0.29306600494E+01  0.31504758550E+03  0.41400779505E+03  0.17300000000E+03 0.  1.
         -6    1    1    2    0  503  0.20545044286E+03  0.29306600494E+01  0.46018371498E+02  0.27251635502E+03  0.17300000000E+03 0.  1.
<mgrwt>
<rscale>  2 0.26860282E+03</rscale>
<asrwt>0</asrwt>
<pdfrwt beam="1">  1       21 0.80583854E-01 0.26860282E+03</pdfrwt>
<pdfrwt beam="2">  1       21 0.25035246E-01 0.26860282E+03</pdfrwt>
<totfact> 0.19625401E+04</totfact>
</mgrwt>
</event>
<event>
 4    1  0.4332500E+000  0.2033991E+03  0.7546771E-02  0.1146902E+00
         21   -1    0    0  503  502  0.00000000000E+00  0.00000000000E+00  0.51677557196E+02  0.51677557196E+02  0.00000000000E+00 0. -1.
         21   -1    0    0  501  503 -0.00000000000E+00 -0.00000000000E+00 -0.98622200047E+03  0.98622200047E+03  0.00000000000E+00 0. -1.
          6    1    1    2  501    0 -0.17226798616E+02 -0.10557191981E+03 -0.69243406786E+03  0.72168977489E+03  0.17300000000E+03 0. -1.
         -6    1    1    2    0  502  0.17226798616E+02  0.10557191981E+03 -0.24211037541E+03  0.31620978278E+03  0.17300000000E+03 0. -1.
<mgrwt>
<rscale>  2 0.20339910E+03</rscale>
<asrwt>0</asrwt>
<pdfrwt beam="1">  1       21 0.79503935E-02 0.20339910E+03</pdfrwt>
<pdfrwt beam="2">  1       21 0.15172646E+00 0.20339910E+03</pdfrwt>
<totfact> 0.34951261E+04</totfact>
</mgrwt>
</event>
<event>
 4    1  0.4332500E+000  0.1745661E+03  0.7546771E-02  0.1173168E+00
         21   -1    0    0  501  502  0.00000000000E+00  0.00000000000E+00  0.41874791375E+03  0.41874791375E+03  0.00000000000E+00 0. -1.
         21   -1    0    0  502  503 -0.00000000000E+00 -0.00000000000E+00 -0.28732423758E+03  0.28732423758E+03  0.00000000000E+00 0. -1.
          6    1    1    2  501    0  0.14775701374E+02  0.18055599350E+02  0.37078147785E+03  0.40981975347E+03  0.17300000000E+03 0. -1.
         -6    1    1    2    0  503 -0.14775701374E+02 -0.18055599350E+02 -0.23935780167E+03  0.29625239786E+03  0.17300000000E+03 0. -1.
<mgrwt>
<rscale>  2 0.17456611E+03</rscale>
<asrwt>0</asrwt>
<pdfrwt beam="1">  1       21 0.64422756E-01 0.17456611E+03</pdfrwt>
<pdfrwt beam="2">  1       21 0.44203729E-01 0.17456611E+03</pdfrwt>
<totfact> 0.11059874E+04</totfact>
</mgrwt>
</event>
<event>
 4    1  0.4332500E+000  0.2452233E+03  0.7546771E-02  0.1116361E+00
         21   -1    0    0  501  502  0.00000000000E+00  0.00000000000E+00  0.34784144662E+03  0.34784144662E+03  0.00000000000E+00 0. -1.
         21   -1    0    0  502  503 -0.00000000000E+00 -0.00000000000E+00 -0.18506238552E+03  0.18506238552E+03  0.00000000000E+00 0. -1.
          6    1    1    2  501    0 -0.15626352962E+03  0.76073357429E+02  0.14975637876E+03  0.28733502985E+03  0.17300000000E+03 0. -1.
         -6    1    1    2    0  503  0.15626352962E+03 -0.76073357429E+02  0.13022682342E+02  0.24556880228E+03  0.17300000000E+03 0. -1.
<mgrwt>
<rscale>  2 0.24522326E+03</rscale>
<asrwt>0</asrwt>
<pdfrwt beam="1">  1       21 0.53514068E-01 0.24522326E+03</pdfrwt>
<pdfrwt beam="2">  1       21 0.28471136E-01 0.24522326E+03</pdfrwt>
<totfact> 0.38013304E+04</totfact>
</mgrwt>
</event>
<event>
 4    1  0.4332500E+000  0.2678557E+03  0.7546771E-02  0.1102513E+00
         21   -1    0    0  501  502  0.00000000000E+00  0.00000000000E+00  0.37371743376E+03  0.37371743376E+03  0.00000000000E+00 0. -1.
         21   -1    0    0  502  503 -0.00000000000E+00 -0.00000000000E+00 -0.40430797665E+03  0.40430797665E+03  0.00000000000E+00 0.  1.
          6    1    1    2  501    0  0.18068588050E+03 -0.95761743452E+02  0.26661446510E+03  0.37792852753E+03  0.17300000000E+03 0. -1.
         -6    1    1    2    0  503 -0.18068588050E+03  0.95761743452E+02 -0.29720500799E+03  0.40009688288E+03  0.17300000000E+03 0.  1.
<mgrwt>
<rscale>  2 0.26785574E+03</rscale>
<asrwt>0</asrwt>
<pdfrwt beam="1">  1       21 0.57494990E-01 0.26785574E+03</pdfrwt>
<pdfrwt beam="2">  1       21 0.62201227E-01 0.26785574E+03</pdfrwt>
<totfact> 0.64835577E+03</totfact>
</mgrwt>
</event>
<event>
 4    1  0.4332500E+000  0.2128712E+03  0.7546771E-02  0.1139312E+00
         21   -1    0    0  503  502  0.00000000000E+00  0.00000000000E+00  0.22622463742E+03  0.22622463742E+03  0.00000000000E+00 0.  1.
         21   -1    0    0  501  503 -0.00000000000E+00 -0.00000000000E+00 -0.37575292408E+03  0.37575292408E+03  0.00000000000E+00 0.  1.
          6    1    1    2  501    0  0.10453494062E+03 -0.66765330017E+02 -0.28043461452E+03  0.35207632145E+03  0.17300000000E+03 0.  1.
         -6    1    1    2    0  502 -0.10453494062E+03  0.66765330017E+02  0.13090632786E+03  0.24990124005E+03  0.17300000000E+03 0.  1.
<mgrwt>
<rscale>  2 0.21287124E+03</rscale>
<asrwt>0</asrwt>
<pdfrwt beam="1">  1       21 0.34803791E-01 0.21287124E+03</pdfrwt>
<pdfrwt beam="2">  1       21 0.57808141E-01 0.21287124E+03</pdfrwt>
<totfact> 0.22069408E+04</totfact>
</mgrwt>
</event>
<event>
 4    1  0.4332500E+000  0.2724150E+03  0.7546771E-02  0.1099905E+00
         21   -1    0    0  503  502  0.00000000000E+00  0.00000000000E+00  0.27311945107E+03  0.27311945107E+03  0.00000000000E+00 0.  1.
         21   -1    0    0  501  503 -0.00000000000E+00 -0.00000000000E+00 -0.38073034887E+03  0.38073034887E+03  0.00000000000E+00 0.  1.
          6    1    1    2  501    0 -0.47943753513E+02 -0.20489586242E+03 -0.22874516870E+03  0.35571655871E+03  0.17300000000E+03 0.  1.
         -6    1    1    2    0  502  0.47943753513E+02  0.20489586242E+03  0.12113427090E+03  0.29813324123E+03  0.17300000000E+03 0.  1.
<mgrwt>
<rscale>  2 0.27241497E+03</rscale>
<asrwt>0</asrwt>
<pdfrwt beam="1">  1       21 0.42018377E-01 0.27241497E+03</pdfrwt>
<pdfrwt beam="2">  1       21 0.58573899E-01 0.27241497E+03</pdfrwt>
<totfact> 0.14227019E+04</totfact>
</mgrwt>
</event>
<event>
 4    1  0.4332500E+000  0.1976418E+03  0.7546771E-02  0.1151744E+00
         21   -1    0    0  503  502  0.00000000000E+00  0.00000000000E+00  0.52902276957E+03  0.52902276957E+03  0.00000000000E+00 0.  1.
         21   -1    0    0  501  503 -0.00000000000E+00 -0.00000000000E+00 -0.85566001235E+02  0.85566001235E+02  0.00000000000E+00 0. -1.
          6    1    1    2  501    0  0.50129949226E+02  0.81365000160E+02  0.10796413744E+03  0.22520774861E+03  0.17300000000E+03 0. -1.
         -6    1    1    2    0  502 -0.50129949226E+02 -0.81365000160E+02  0.33549263090E+03  0.38938102220E+03  0.17300000000E+03 0.  1.
<mgrwt>
<rscale>  2 0.19764178E+03</rscale>
<asrwt>0</asrwt>
<pdfrwt beam="1">  1       21 0.81388116E-01 0.19764178E+03</pdfrwt>
<pdfrwt beam="2">  1       21 0.13164001E-01 0.19764178E+03</pdfrwt>
<totfact> 0.65585962E+04</totfact>
</mgrwt>
</event>
<event>
 4    1  0.4332500E+000  0.1808938E+03  0.7546771E-02  0.1166941E+00
         21   -1    0    0  503  502  0.00000000000E+00  0.00000000000E+00  0.17963234435E+03  0.17963234435E+03  0.00000000000E+00 0.  1.
         21   -1    0    0  501  503 -0.00000000000E+00 -0.00000000000E+00 -0.44807842087E+03  0.44807842087E+03  0.00000000000E+00 0.  1.
          6    1    1    2  501    0  0.50593402273E+02  0.15293134952E+02 -0.37600471986E+03  0.41725546334E+03  0.17300000000E+03 0.  1.
         -6    1    1    2    0  502 -0.50593402273E+02 -0.15293134952E+02  0.10755864334E+03  0.21045530188E+03  0.17300000000E+03 0.  1.
<mgrwt>
<rscale>  2 0.18089382E+03</rscale>
<asrwt>0</asrwt>
<pdfrwt beam="1">  1       21 0.27635745E-01 0.18089382E+03</pdfrwt>
<pdfrwt beam="2">  1       21 0.68935142E-01 0.18089382E+03</pdfrwt>
<totfact> 0.24110629E+04</totfact>
</mgrwt>
</event>
<event>
 4    1  0.4332500E+000  0.1956121E+03  0.7546771E-02  0.1153495E+00
         21   -1    0    0  503  502  0.00000000000E+00  0.00000000000E+00  0.12407365676E+03  0.12407365676E+03  0.00000000000E+00 0.  1.
         21   -1    0    0  501  503 -0.00000000000E+00 -0.00000000000E+00 -0.30858201491E+03  0.30858201491E+03  0.00000000000E+00 0.  1.
          6    1    1    2  501    0  0.48601089716E+01 -0.91167245070E+02 -0.97534578390E+02  0.21857969076E+03  0.17300000000E+03 0.  1.
         -6    1    1    2    0  502 -0.48601089716E+01  0.91167245070E+02 -0.86973779761E+02  0.21407598090E+03  0.17300000000E+03 0.  1.
<mgrwt>
<rscale>  2 0.19561208E+03</rscale>
<asrwt>0</asrwt>
<pdfrwt beam="1">  1       21 0.19088255E-01 0.19561208E+03</pdfrwt>
<pdfrwt beam="2">  1       21 0.47474156E-01 0.19561208E+03</pdfrwt>
<totfact> 0.10673511E+05</totfact>
</mgrwt>
</event>
<event>
 4    1  0.4332500E+000  0.2495293E+03  0.7546771E-02  0.1113603E+00
         21   -1    0    0  501  502  0.00000000000E+00  0.00000000000E+00  0.15644759399E+03  0.15644759399E+03  0.00000000000E+00 0. -1.
         21   -1    0    0  502  503 -0.00000000000E+00 -0.00000000000E+00 -0.45140655093E+03  0.45140655093E+03  0.00000000000E+00 0.  1.
          6    1    1    2  501    0 -0.17962977077E+03 -0.83086126443E+01 -0.42931573867E+02  0.25319559164E+03  0.17300000000E+03 0.  1.
         -6    1    1    2    0  503  0.17962977077E+03  0.83086126443E+01 -0.25202738307E+03  0.35465855327E+03  0.17300000000E+03 0.  1.
<mgrwt>
<rscale>  2 0.24952933E+03</rscale>
<asrwt>0</asrwt>
<pdfrwt beam="1">  1       21 0.24068861E-01 0.24952933E+03</pdfrwt>
<pdfrwt beam="2">  1       21 0.69447161E-01 0.24952933E+03</pdfrwt>
<totfact> 0.29830991E+04</totfact>
</mgrwt>
</event>
<event>
 4    1  0.4332500E+000  0.2399774E+03  0.7546771E-02  0.1119808E+00
         21   -1    0    0  503  502  0.00000000000E+00  0.00000000000E+00  0.47314181082E+02  0.47314181082E+02  0.00000000000E+00 0. -1.
         21   -1    0    0  501  503 -0.00000000000E+00 -0.00000000000E+00 -0.14642305828E+04  0.14642305828E+04  0.00000000000E+00 0. -1.
          6    1    1    2  501    0  0.46871882727E+02 -0.15957184157E+03 -0.10189089862E+04  0.10467877856E+04  0.17300000000E+03 0. -1.
         -6    1    1    2    0  502 -0.46871882727E+02  0.15957184157E+03 -0.39800741551E+03  0.46475697823E+03  0.17300000000E+03 0. -1.
<mgrwt>
<rscale>  2 0.23997739E+03</rscale>
<asrwt>0</asrwt>
<pdfrwt beam="1">  1       21 0.72791053E-02 0.23997739E+03</pdfrwt>
<pdfrwt beam="2">  1       21 0.22526623E+00 0.23997739E+03</pdfrwt>
<totfact> 0.12718464E+04</totfact>
</mgrwt>
</event>
<event>
 4    1  0.4332500E+000  0.1987081E+03  0.7546771E-02  0.1150834E+00
         21   -1    0    0  501  502  0.00000000000E+00  0.00000000000E+00  0.26712914065E+03  0.26712914065E+03  0.00000000000E+00 0. -1.
         21   -1    0    0  502  503 -0.00000000000E+00 -0.00000000000E+00 -0.19203613183E+03  0.19203613183E+03  0.00000000000E+00 0. -1.
          6    1    1    2  501    0  0.66003725560E+02 -0.72106872107E+02  0.14772002235E+03  0.24760068214E+03  0.17300000000E+03 0. -1.
         -6    1    1    2    0  503 -0.66003725560E+02  0.72106872107E+02 -0.72627013521E+02  0.21156459034E+03  0.17300000000E+03 0. -1.
<mgrwt>
<rscale>  2 0.19870806E+03</rscale>
<asrwt>0</asrwt>
<pdfrwt beam="1">  1       21 0.41096791E-01 0.19870806E+03</pdfrwt>
<pdfrwt beam="2">  1       21 0.29544020E-01 0.19870806E+03</pdfrwt>
<totfact> 0.62433270E+04</totfact>
</mgrwt>
</event>
<event>
 4    1  0.4332500E+000  0.2909909E+03  0.7546771E-02  0.1089833E+00
         21   -1    0    0  503  502  0.00000000000E+00  0.00000000000E+00  0.25056936906E+03  0.25056936906E+03  0.00000000000E+00 0.  1.
         21   -1    0    0  501  503 -0.00000000000E+00 -0.00000000000E+00 -0.40312038470E+03  0.40312038470E+03  0.00000000000E+00 0.  1.
          6    1    1    2  501    0  0.23089786126E+03  0.37853691087E+02 -0.20770874599E+03  0.35751733863E+03  0.17300000000E+03 0.  1.
         -6    1    1    2    0  502 -0.23089786126E+03 -0.37853691087E+02  0.55157730347E+02  0.29617241512E+03  0.17300000000E+03 0.  1.
<mgrwt>
<rscale>  2 0.29099094E+03</rscale>
<asrwt>0</asrwt>
<pdfrwt beam="1">  1       21 0.38549134E-01 0.29099094E+03</pdfrwt>
<pdfrwt beam="2">  1       21 0.62018520E-01 0.29099094E+03</pdfrwt>
<totfact> 0.14859184E+04</totfact>
</mgrwt>
</event>
<event>
 4    1  0.4332500E+000  0.2365174E+03  0.7546771E-02  0.1122135E+00
         21   -1    0    0  503  502  0.00000000000E+00  0.00000000000E+00  0.73430460411E+03  0.73430460411E+03  0.00000000000E+00 0. -1.
         21   -1    0    0  501  503 -0.00000000000E+00 -0.00000000000E+00 -0.37009287108E+03  0.37009287108E+03  0.00000000000E+00 0.  1.
          6    1    1    2  501    0  0.14737252250E+03  0.65519692473E+02 -0.30998825760E+03  0.38991436283E+03  0.17300000000E+03 0.  1.
         -6    1    1    2    0  502 -0.14737252250E+03 -0.65519692473E+02  0.67419999063E+03  0.71448311236E+03  0.17300000000E+03 0. -1.
<mgrwt>
<rscale>  2 0.23651742E+03</rscale>
<asrwt>0</asrwt>
<pdfrwt beam="1">  1       21 0.11296994E+00 0.23651742E+03</pdfrwt>
<pdfrwt beam="2">  1       21 0.56937365E-01 0.23651742E+03</pdfrwt>
<totfact> 0.17080720E+03</totfact>
</mgrwt>
</event>
<event>
 4    1  0.4332500E+000  0.1848445E+03  0.7546771E-02  0.1163195E+00
         21   -1    0    0  503  502  0.00000000000E+00  0.00000000000E+00  0.29616509927E+03  0.29616509927E+03  0.00000000000E+00 0.  1.
         21   -1    0    0  501  503 -0.00000000000E+00 -0.00000000000E+00 -0.39152506647E+03  0.39152506647E+03  0.00000000000E+00 0.  1.
          6    1    1    2  501    0  0.12794969244E+02 -0.63833842827E+02 -0.33645688481E+03  0.38388892412E+03  0.17300000000E+03 0.  1.
         -6    1    1    2    0  502 -0.12794969244E+02  0.63833842827E+02  0.24109691761E+03  0.30380124162E+03  0.17300000000E+03 0.  1.
<mgrwt>
<rscale>  2 0.18484445E+03</rscale>
<asrwt>0</asrwt>
<pdfrwt beam="1">  1       21 0.45563861E-01 0.18484445E+03</pdfrwt>
<pdfrwt beam="2">  1       21 0.60234626E-01 0.18484445E+03</pdfrwt>
<totfact> 0.11930259E+04</totfact>
</mgrwt>
</event>
<event>
 4    1  0.4332500E+000  0.1845680E+03  0.7546771E-02  0.1163454E+00
         21   -1    0    0  503  502  0.00000000000E+00  0.00000000000E+00  0.63545784398E+03  0.63545784398E+03  0.00000000000E+00 0. -1.
         21   -1    0    0  501  503 -0.00000000000E+00 -0.00000000000E+00 -0.18941217806E+03  0.18941217806E+03  0.00000000000E+00 0.  1.
          6    1    1    2  501    0  0.43220768477E+01 -0.64168987971E+02 -0.12620500712E+03  0.22359124131E+03  0.17300000000E+03 0.  1.
         -6    1    1    2    0  502 -0.43220768477E+01  0.64168987971E+02  0.57225067304E+03  0.60127878074E+03  0.17300000000E+03 0. -1.
<mgrwt>
<rscale>  2 0.18456798E+03</rscale>
<asrwt>0</asrwt>
<pdfrwt beam="1">  1       21 0.97762744E-01 0.18456798E+03</pdfrwt>
<pdfrwt beam="2">  1       21 0.29140335E-01 0.18456798E+03</pdfrwt>
<totfact> 0.98217642E+03</totfact>
</mgrwt>
</event>
<event>
 4    1  0.4332500E+000  0.2044504E+03  0.7546771E-02  0.1146038E+00
         21   -1    0    0  503  502  0.00000000000E+00  0.00000000000E+00  0.16300853753E+03  0.16300853753E+03  0.00000000000E+00 0.  1.
         21   -1    0    0  501  503 -0.00000000000E+00 -0.00000000000E+00 -0.29017387185E+03  0.29017387185E+03  0.00000000000E+00 0. -1.
          6    1    1    2  501    0 -0.46200873148E+02 -0.98673519610E+02 -0.14085481841E+03  0.24827417107E+03  0.17300000000E+03 0. -1.
         -6    1    1    2    0  502  0.46200873148E+02  0.98673519610E+02  0.13689484089E+02  0.20490823831E+03  0.17300000000E+03 0.  1.
<mgrwt>
<rscale>  2 0.20445044E+03</rscale>
<asrwt>0</asrwt>
<pdfrwt beam="1">  1       21 0.25078237E-01 0.20445044E+03</pdfrwt>
<pdfrwt beam="2">  1       21 0.44642134E-01 0.20445044E+03</pdfrwt>
<totfact> 0.72149108E+04</totfact>
</mgrwt>
</event>
<event>
 4    1  0.4332500E+000  0.2853506E+03  0.7546771E-02  0.1092802E+00
         21   -1    0    0  501  502  0.00000000000E+00  0.00000000000E+00  0.25094289353E+04  0.25094289353E+04  0.00000000000E+00 0.  1.
         21   -1    0    0  502  503 -0.00000000000E+00 -0.00000000000E+00 -0.33858029928E+02  0.33858029928E+02  0.00000000000E+00 0. -1.
          6    1    1    2  501    0 -0.20137422723E+03  0.10461554918E+03  0.14973273352E+04  0.15242749559E+04  0.17300000000E+03 0.  1.
         -6    1    1    2    0  503  0.20137422723E+03 -0.10461554918E+03  0.97824357015E+03  0.10190120093E+04  0.17300000000E+03 0. -1.
<mgrwt>
<rscale>  2 0.28535065E+03</rscale>
<asrwt>0</asrwt>
<pdfrwt beam="1">  1       21 0.38606584E+00 0.28535065E+03</pdfrwt>
<pdfrwt beam="2">  1       21 0.52089296E-02 0.28535065E+03</pdfrwt>
<totfact> 0.23941599E+03</totfact>
</mgrwt>
</event>
<event>
 4    1  0.4332500E+000  0.3260071E+03  0.7546771E-02  0.1072917E+00
         21   -1    0    0  503  502  0.00000000000E+00  0.00000000000E+00  0.76994465062E+02  0.76994465062E+02  0.00000000000E+00 0. -1.
         21   -1    0    0  501  503 -0.00000000000E+00 -0.00000000000E+00 -0.14121010576E+04  0.14121010576E+04  0.00000000000E+00 0.  1.
          6    1    1    2  501    0  0.24136195429E+03 -0.13452146486E+03 -0.77916830265E+03  0.84462054281E+03  0.17300000000E+03 0. -1.
         -6    1    1    2    0  502 -0.24136195429E+03  0.13452146486E+03 -0.55593828990E+03  0.64447497986E+03  0.17300000000E+03 0.  1.
<mgrwt>
<rscale>  2 0.32600708E+03</rscale>
<asrwt>0</asrwt>
<pdfrwt beam="1">  1       21 0.11845302E-01 0.32600708E+03</pdfrwt>
<pdfrwt beam="2">  1       21 0.21724632E+00 0.32600708E+03</pdfrwt>
<totfact> 0.57026626E+03</totfact>
</mgrwt>
</event>
<event>
 4    1  0.4332500E+000  0.1783626E+03  0.7546771E-02  0.1169397E+00
         21   -1    0    0  503  502  0.00000000000E+00  0.00000000000E+00  0.19103910634E+03  0.19103910634E+03  0.00000000000E+00 0. -1.
         21   -1    0    0  501  503 -0.00000000000E+00 -0.00000000000E+00 -0.27206117471E+03  0.27206117471E+03  0.00000000000E+00 0. -1.
          6    1    1    2  501    0 -0.41579924065E+02 -0.12463151325E+02 -0.18472515100E+03  0.25678123303E+03  0.17300000000E+03 0. -1.
         -6    1    1    2    0  502  0.41579924065E+02  0.12463151325E+02  0.10370308263E+03  0.20631904801E+03  0.17300000000E+03 0. -1.
<mgrwt>
<rscale>  2 0.17836261E+03</rscale>
<asrwt>0</asrwt>
<pdfrwt beam="1">  1       21 0.29390632E-01 0.17836261E+03</pdfrwt>
<pdfrwt beam="2">  1       21 0.41855565E-01 0.17836261E+03</pdfrwt>
<totfact> 0.61325383E+04</totfact>
</mgrwt>
</event>
<event>
 4    1  0.4332500E+000  0.1829589E+03  0.7546771E-02  0.1164970E+00
         21   -1    0    0  501  502  0.00000000000E+00  0.00000000000E+00  0.49315695937E+02  0.49315695937E+02  0.00000000000E+00 0.  1.
         21   -1    0    0  502  503 -0.00000000000E+00 -0.00000000000E+00 -0.10585557016E+04  0.10585557016E+04  0.00000000000E+00 0. -1.
          6    1    1    2  501    0 -0.59028109156E+02 -0.77883018049E+01 -0.83641685467E+03  0.85619339526E+03  0.17300000000E+03 0. -1.
         -6    1    1    2    0  503  0.59028109156E+02  0.77883018049E+01 -0.17282315103E+03  0.25167800231E+03  0.17300000000E+03 0.  1.
<mgrwt>
<rscale>  2 0.18295894E+03</rscale>
<asrwt>0</asrwt>
<pdfrwt beam="1">  1       21 0.75870301E-02 0.18295894E+03</pdfrwt>
<pdfrwt beam="2">  1       21 0.16285473E+00 0.18295894E+03</pdfrwt>
<totfact> 0.31767100E+04</totfact>
</mgrwt>
</event>
<event>
 4    1  0.4332500E+000  0.1795347E+03  0.7546771E-02  0.1168254E+00
         21   -1    0    0  503  502  0.00000000000E+00  0.00000000000E+00  0.75907024160E+03  0.75907024160E+03  0.00000000000E+00 0. -1.
         21   -1    0    0  501  503 -0.00000000000E+00 -0.00000000000E+00 -0.42492151392E+02  0.42492151392E+02  0.00000000000E+00 0. -1.
          6    1    1    2  501    0  0.47116352365E+02 -0.91523475359E+01  0.34786695709E+03  0.39146409281E+03  0.17300000000E+03 0. -1.
         -6    1    1    2    0  502 -0.47116352365E+02  0.91523475359E+01  0.36871113312E+03  0.41009830018E+03  0.17300000000E+03 0. -1.
<mgrwt>
<rscale>  2 0.17953472E+03</rscale>
<asrwt>0</asrwt>
<pdfrwt beam="1">  1       21 0.11678003E+00 0.17953472E+03</pdfrwt>
<pdfrwt beam="2">  1       21 0.65372546E-02 0.17953472E+03</pdfrwt>
<totfact> 0.96653599E+04</totfact>
</mgrwt>
</event>
<event>
 4    1  0.4332500E+000  0.1929354E+03  0.7546771E-02  0.1155840E+00
         21   -1    0    0  503  502  0.00000000000E+00  0.00000000000E+00  0.10147756134E+04  0.10147756134E+04  0.00000000000E+00 0.  1.
         21   -1    0    0  501  503 -0.00000000000E+00 -0.00000000000E+00 -0.59370632054E+02  0.59370632054E+02  0.00000000000E+00 0. -1.
          6    1    1    2  501    0  0.77261277392E+02 -0.36410802796E+02  0.14569243012E+03  0.24176504243E+03  0.17300000000E+03 0. -1.
         -6    1    1    2    0  502 -0.77261277392E+02  0.36410802796E+02  0.80971255127E+03  0.83238120307E+03  0.17300000000E+03 0.  1.
<mgrwt>
<rscale>  2 0.19293536E+03</rscale>
<asrwt>0</asrwt>
<pdfrwt beam="1">  1       21 0.15611931E+00 0.19293536E+03</pdfrwt>
<pdfrwt beam="2">  1       21 0.91339441E-02 0.19293536E+03</pdfrwt>
<totfact> 0.25586993E+04</totfact>
</mgrwt>
</event>
<event>
 4    1  0.4332500E+000  0.1739349E+03  0.7546771E-02  0.1173805E+00
         21   -1    0    0  501  502  0.00000000000E+00  0.00000000000E+00  0.15770733724E+03  0.15770733724E+03  0.00000000000E+00 0. -1.
         21   -1    0    0  502  503 -0.00000000000E+00 -0.00000000000E+00 -0.21060017413E+03  0.21060017413E+03  0.00000000000E+00 0. -1.
          6    1    1    2  501    0 -0.15534316328E+02  0.91128859193E+01  0.28527775811E+02  0.17625888252E+03  0.17300000000E+03 0.  1.
         -6    1    1    2    0  503  0.15534316328E+02 -0.91128859193E+01 -0.81420612700E+02  0.19204862886E+03  0.17300000000E+03 0.  1.
<mgrwt>
<rscale>  2 0.17393493E+03</rscale>
<asrwt>0</asrwt>
<pdfrwt beam="1">  1       21 0.24262667E-01 0.17393493E+03</pdfrwt>
<pdfrwt beam="2">  1       21 0.32400027E-01 0.17393493E+03</pdfrwt>
<totfact> 0.14788567E+05</totfact>
</mgrwt>
</event>
<event>
 4    1  0.4332500E+000  0.2065547E+03  0.7546771E-02  0.1144324E+00
         21   -1    0    0  503  502  0.00000000000E+00  0.00000000000E+00  0.20550164490E+03  0.20550164490E+03  0.00000000000E+00 0.  1.
         21   -1    0    0  501  503 -0.00000000000E+00 -0.00000000000E+00 -0.22497403489E+03  0.22497403489E+03  0.00000000000E+00 0. -1.
          6    1    1    2  501    0  0.65563342366E+02 -0.91854771924E+02 -0.69527484403E+02  0.21794247423E+03  0.17300000000E+03 0. -1.
         -6    1    1    2    0  502 -0.65563342366E+02  0.91854771924E+02  0.50055094414E+02  0.21253320556E+03  0.17300000000E+03 0.  1.
<mgrwt>
<rscale>  2 0.20655472E+03</rscale>
<asrwt>0</asrwt>
<pdfrwt beam="1">  1       21 0.31615637E-01 0.20655472E+03</pdfrwt>
<pdfrwt beam="2">  1       21 0.34611390E-01 0.20655472E+03</pdfrwt>
<totfact> 0.76915485E+04</totfact>
</mgrwt>
</event>
<event>
 4    1  0.4332500E+000  0.4457883E+03  0.7546771E-02  0.1028985E+00
         21   -1    0    0  501  502  0.00000000000E+00  0.00000000000E+00  0.20109881907E+03  0.20109881907E+03  0.00000000000E+00 0. -1.
         21   -1    0    0  502  503 -0.00000000000E+00 -0.00000000000E+00 -0.22283659818E+04  0.22283659818E+04  0.00000000000E+00 0.  1.
          6    1    1    2  501    0  0.32006138053E+03 -0.25760234003E+03 -0.10742943731E+03  0.45855025558E+03  0.17300000000E+03 0. -1.
         -6    1    1    2    0  503 -0.32006138053E+03  0.25760234003E+03 -0.19198377254E+04  0.19709145453E+04  0.17300000000E+03 0.  1.
<mgrwt>
<rscale>  2 0.44578835E+03</rscale>
<asrwt>0</asrwt>
<pdfrwt beam="1">  1       21 0.30938280E-01 0.44578835E+03</pdfrwt>
<pdfrwt beam="2">  1       21 0.34282553E+00 0.44578835E+03</pdfrwt>
<totfact> 0.14909190E+02</totfact>
</mgrwt>
</event>
<event>
 4    1  0.4332500E+000  0.1813570E+03  0.7546771E-02  0.1166496E+00
         21   -1    0    0  503  502  0.00000000000E+00  0.00000000000E+00  0.27929445127E+03  0.27929445127E+03  0.00000000000E+00 0.  1.
         21   -1    0    0  501  503 -0.00000000000E+00 -0.00000000000E+00 -0.26488484879E+03  0.26488484879E+03  0.00000000000E+00 0.  1.
          6    1    1    2  501    0 -0.17489208971E+02 -0.51531417821E+02 -0.19557424222E+03  0.26672015985E+03  0.17300000000E+03 0.  1.
         -6    1    1    2    0  502  0.17489208971E+02  0.51531417821E+02  0.20998384469E+03  0.27745914021E+03  0.17300000000E+03 0.  1.
<mgrwt>
<rscale>  2 0.18135699E+03</rscale>
<asrwt>0</asrwt>
<pdfrwt beam="1">  1       21 0.42968377E-01 0.18135699E+03</pdfrwt>
<pdfrwt beam="2">  1       21 0.40751515E-01 0.18135699E+03</pdfrwt>
<totfact> 0.30398548E+04</totfact>
</mgrwt>
</event>
<event>
 4    1  0.4332500E+000  0.2394475E+03  0.7546771E-02  0.1120161E+00
         21   -1    0    0  503  502  0.00000000000E+00  0.00000000000E+00  0.30185444351E+03  0.30185444351E+03  0.00000000000E+00 0.  1.
         21   -1    0    0  501  503 -0.00000000000E+00 -0.00000000000E+00 -0.19532260130E+03  0.19532260130E+03  0.00000000000E+00 0.  1.
          6    1    1    2  501    0  0.56199126675E+02 -0.15571700164E+03  0.12010455822E+02  0.23974857140E+03  0.17300000000E+03 0.  1.
         -6    1    1    2    0  502 -0.56199126675E+02  0.15571700164E+03  0.94521386389E+02  0.25742847341E+03  0.17300000000E+03 0.  1.
<mgrwt>
<rscale>  2 0.23944754E+03</rscale>
<asrwt>0</asrwt>
<pdfrwt beam="1">  1       21 0.46439145E-01 0.23944754E+03</pdfrwt>
<pdfrwt beam="2">  1       21 0.30049631E-01 0.23944754E+03</pdfrwt>
<totfact> 0.46163671E+04</totfact>
</mgrwt>
</event>
<event>
 4    1  0.4332500E+000  0.1803062E+03  0.7546771E-02  0.1167507E+00
         21   -1    0    0  501  502  0.00000000000E+00  0.00000000000E+00  0.80730061726E+02  0.80730061726E+02  0.00000000000E+00 0.  1.
         21   -1    0    0  502  503 -0.00000000000E+00 -0.00000000000E+00 -0.48801147863E+03  0.48801147863E+03  0.00000000000E+00 0.  1.
          6    1    1    2  501    0 -0.27273623631E+02 -0.42865913243E+02 -0.84745894401E+02  0.19922902319E+03  0.17300000000E+03 0.  1.
         -6    1    1    2    0  503  0.27273623631E+02  0.42865913243E+02 -0.32253552250E+03  0.36951251716E+03  0.17300000000E+03 0.  1.
<mgrwt>
<rscale>  2 0.18030623E+03</rscale>
<asrwt>0</asrwt>
<pdfrwt beam="1">  1       21 0.12420009E-01 0.18030623E+03</pdfrwt>
<pdfrwt beam="2">  1       21 0.75078690E-01 0.18030623E+03</pdfrwt>
<totfact> 0.87959950E+04</totfact>
</mgrwt>
</event>
<event>
 4    1  0.4332500E+000  0.1939549E+03  0.7546771E-02  0.1154942E+00
         21   -1    0    0  501  502  0.00000000000E+00  0.00000000000E+00  0.54919972280E+03  0.54919972280E+03  0.00000000000E+00 0.  1.
         21   -1    0    0  502  503 -0.00000000000E+00 -0.00000000000E+00 -0.71752219909E+02  0.71752219909E+02  0.00000000000E+00 0.  1.
          6    1    1    2  501    0 -0.51602580046E+02  0.70898935956E+02  0.30485493924E+03  0.36132398116E+03  0.17300000000E+03 0.  1.
         -6    1    1    2    0  503  0.51602580046E+02 -0.70898935956E+02  0.17259256365E+03  0.25962796154E+03  0.17300000000E+03 0.  1.
<mgrwt>
<rscale>  2 0.19395485E+03</rscale>
<asrwt>0</asrwt>
<pdfrwt beam="1">  1       21 0.84492262E-01 0.19395485E+03</pdfrwt>
<pdfrwt beam="2">  1       21 0.11038803E-01 0.19395485E+03</pdfrwt>
<totfact> 0.82690328E+04</totfact>
</mgrwt>
</event>
<event>
 4    1  0.4332500E+000  0.2220718E+03  0.7546771E-02  0.1132348E+00
         21   -1    0    0  503  502  0.00000000000E+00  0.00000000000E+00  0.19102758525E+03  0.19102758525E+03  0.00000000000E+00 0.  1.
         21   -1    0    0  501  503 -0.00000000000E+00 -0.00000000000E+00 -0.27661603487E+03  0.27661603487E+03  0.00000000000E+00 0. -1.
          6    1    1    2  501    0 -0.13531551360E+03  0.32811191226E+02 -0.10318969825E+03  0.24487543020E+03  0.17300000000E+03 0.  1.
         -6    1    1    2    0  502  0.13531551360E+03 -0.32811191226E+02  0.17601248623E+02  0.22276818993E+03  0.17300000000E+03 0. -1.
<mgrwt>
<rscale>  2 0.22207175E+03</rscale>
<asrwt>0</asrwt>
<pdfrwt beam="1">  1       21 0.29388859E-01 0.22207175E+03</pdfrwt>
<pdfrwt beam="2">  1       21 0.42556313E-01 0.22207175E+03</pdfrwt>
<totfact> 0.58138678E+04</totfact>
</mgrwt>
</event>
<event>
 4    1  0.4332500E+000  0.2097535E+03  0.7546771E-02  0.1141761E+00
         21   -1    0    0  501  502  0.00000000000E+00  0.00000000000E+00  0.32988626872E+03  0.32988626872E+03  0.00000000000E+00 0. -1.
         21   -1    0    0  502  503 -0.00000000000E+00 -0.00000000000E+00 -0.13805272963E+03  0.13805272963E+03  0.00000000000E+00 0. -1.
          6    1    1    2  501    0 -0.54151914704E+02  0.10552297830E+03  0.13901335956E+03  0.25163712554E+03  0.17300000000E+03 0. -1.
         -6    1    1    2    0  503  0.54151914704E+02 -0.10552297830E+03  0.52820179525E+02  0.21630187281E+03  0.17300000000E+03 0. -1.
<mgrwt>
<rscale>  2 0.20975350E+03</rscale>
<asrwt>0</asrwt>
<pdfrwt beam="1">  1       21 0.50751733E-01 0.20975350E+03</pdfrwt>
<pdfrwt beam="2">  1       21 0.21238882E-01 0.20975350E+03</pdfrwt>
<totfact> 0.75615751E+04</totfact>
</mgrwt>
</event>
<event>
 4    1  0.4332500E+000  0.2896600E+03  0.7546771E-02  0.1090527E+00
         21   -1    0    0  503  502  0.00000000000E+00  0.00000000000E+00  0.38316704322E+03  0.38316704322E+03  0.00000000000E+00 0.  1.
         21   -1    0    0  501  503 -0.00000000000E+00 -0.00000000000E+00 -0.22276871733E+03  0.22276871733E+03  0.00000000000E+00 0.  1.
          6    1    1    2  501    0  0.58455148485E+02  0.22484867484E+03  0.40647741239E+02  0.29249815355E+03  0.17300000000E+03 0.  1.
         -6    1    1    2    0  502 -0.58455148485E+02 -0.22484867484E+03  0.11975058465E+03  0.31343760700E+03  0.17300000000E+03 0.  1.
<mgrwt>
<rscale>  2 0.28966003E+03</rscale>
<asrwt>0</asrwt>
<pdfrwt beam="1">  1       21 0.58948776E-01 0.28966003E+03</pdfrwt>
<pdfrwt beam="2">  1       21 0.34272110E-01 0.28966003E+03</pdfrwt>
<totfact> 0.21037134E+04</totfact>
</mgrwt>
</event>
<event>
 4    1  0.4332500E+000  0.2036731E+03  0.7546771E-02  0.1146677E+00
         21   -1    0    0  501  502  0.00000000000E+00  0.00000000000E+00  0.12781167530E+04  0.12781167530E+04  0.00000000000E+00 0.  1.
         21   -1    0    0  502  503 -0.00000000000E+00 -0.00000000000E+00 -0.54314389043E+02  0.54314389043E+02  0.00000000000E+00 0.  1.
          6    1    1    2  501    0 -0.53295621844E+02  0.93345090996E+02  0.10345358012E+04  0.10543941641E+04  0.17300000000E+03 0.  1.
         -6    1    1    2    0  503  0.53295621844E+02 -0.93345090996E+02  0.18926656272E+03  0.27803697791E+03  0.17300000000E+03 0.  1.
<mgrwt>
<rscale>  2 0.20367309E+03</rscale>
<asrwt>0</asrwt>
<pdfrwt beam="1">  1       21 0.19663332E+00 0.20367309E+03</pdfrwt>
<pdfrwt beam="2">  1       21 0.83560608E-02 0.20367309E+03</pdfrwt>
<totfact> 0.15566398E+04</totfact>
</mgrwt>
</event>
<event>
 4    1  0.4332500E+000  0.1923619E+03  0.7546771E-02  0.1156348E+00
         21   -1    0    0  503  502  0.00000000000E+00  0.00000000000E+00  0.41148010713E+03  0.41148010713E+03  0.00000000000E+00 0. -1.
         21   -1    0    0  501  503 -0.00000000000E+00 -0.00000000000E+00 -0.90094090780E+02  0.90094090780E+02  0.00000000000E+00 0. -1.
          6    1    1    2  501    0  0.20317097539E+02  0.81616865191E+02  0.14988692478E+03  0.24386305041E+03  0.17300000000E+03 0. -1.
         -6    1    1    2    0  502 -0.20317097539E+02 -0.81616865191E+02  0.17149909157E+03  0.25771114750E+03  0.17300000000E+03 0. -1.
<mgrwt>
<rscale>  2 0.19236189E+03</rscale>
<asrwt>0</asrwt>
<pdfrwt beam="1">  1       21 0.63304631E-01 0.19236189E+03</pdfrwt>
<pdfrwt beam="2">  1       21 0.13860630E-01 0.19236189E+03</pdfrwt>
<totfact> 0.10452678E+05</totfact>
</mgrwt>
</event>
<event>
 4    1  0.4332500E+000  0.4769419E+03  0.7546771E-02  0.1019979E+00
         21   -1    0    0  501  502  0.00000000000E+00  0.00000000000E+00  0.22927064122E+03  0.22927064122E+03  0.00000000000E+00 0.  1.
         21   -1    0    0  502  503 -0.00000000000E+00 -0.00000000000E+00 -0.10507222556E+04  0.10507222556E+04  0.00000000000E+00 0. -1.
          6    1    1    2  501    0  0.43757149167E+03 -0.77947303746E+02 -0.25963588704E+03  0.54303258311E+03  0.17300000000E+03 0.  1.
         -6    1    1    2    0  503 -0.43757149167E+03  0.77947303746E+02 -0.56181572736E+03  0.73696031372E+03  0.17300000000E+03 0. -1.
<mgrwt>
<rscale>  2 0.47694192E+03</rscale>
<asrwt>0</asrwt>
<pdfrwt beam="1">  1       21 0.35272406E-01 0.47694192E+03</pdfrwt>
<pdfrwt beam="2">  1       21 0.16164958E+00 0.47694192E+03</pdfrwt>
<totfact> 0.15960658E+03</totfact>
</mgrwt>
</event>
<event>
 4    1  0.4332500E+000  0.2631434E+03  0.7546771E-02  0.1105269E+00
         21   -1    0    0  501  502  0.00000000000E+00  0.00000000000E+00  0.74225895697E+03  0.74225895697E+03  0.00000000000E+00 0. -1.
         21   -1    0    0  502  503 -0.00000000000E+00 -0.00000000000E+00 -0.10595024247E+03  0.10595024247E+03  0.00000000000E+00 0.  1.
          6    1    1    2  501    0 -0.32486738477E+02 -0.19560176088E+03  0.46476443948E+03  0.53408840209E+03  0.17300000000E+03 0. -1.
         -6    1    1    2    0  503  0.32486738477E+02  0.19560176088E+03  0.17154427501E+03  0.31412079735E+03  0.17300000000E+03 0.  1.
<mgrwt>
<rscale>  2 0.26314338E+03</rscale>
<asrwt>0</asrwt>
<pdfrwt beam="1">  1       21 0.11419368E+00 0.26314338E+03</pdfrwt>
<pdfrwt beam="2">  1       21 0.16300038E-01 0.26314338E+03</pdfrwt>
<totfact> 0.19318498E+04</totfact>
</mgrwt>
</event>
<event>
 4    1  0.4332500E+000  0.2109385E+03  0.7546771E-02  0.1140825E+00
         21   -1    0    0  503  502  0.00000000000E+00  0.00000000000E+00  0.14435463092E+03  0.14435463092E+03  0.00000000000E+00 0.  1.
         21   -1    0    0  501  503 -0.00000000000E+00 -0.00000000000E+00 -0.31000320361E+03  0.31000320361E+03  0.00000000000E+00 0.  1.
          6    1    1    2  501    0 -0.11258543869E+03  0.43480635656E+02 -0.65663441696E+02  0.22092246209E+03  0.17300000000E+03 0.  1.
         -6    1    1    2    0  502  0.11258543869E+03 -0.43480635656E+02 -0.99985130990E+02  0.23343537243E+03  0.17300000000E+03 0.  1.
<mgrwt>
<rscale>  2 0.21093849E+03</rscale>
<asrwt>0</asrwt>
<pdfrwt beam="1">  1       21 0.22208405E-01 0.21093849E+03</pdfrwt>
<pdfrwt beam="2">  1       21 0.47692801E-01 0.21093849E+03</pdfrwt>
<totfact> 0.79087841E+04</totfact>
</mgrwt>
</event>
<event>
 4    1  0.4332500E+000  0.1898992E+03  0.7546771E-02  0.1158552E+00
         21   -1    0    0  503  502  0.00000000000E+00  0.00000000000E+00  0.39230520477E+02  0.39230520477E+02  0.00000000000E+00 0.  1.
         21   -1    0    0  501  503 -0.00000000000E+00 -0.00000000000E+00 -0.15814115059E+04  0.15814115059E+04  0.00000000000E+00 0.  1.
          6    1    1    2  501    0  0.64495928381E+02 -0.44418041580E+02 -0.12954446515E+04  0.13092893234E+04  0.17300000000E+03 0.  1.
         -6    1    1    2    0  502 -0.64495928381E+02  0.44418041580E+02 -0.24673633395E+03  0.31135270304E+03  0.17300000000E+03 0.  1.
<mgrwt>
<rscale>  2 0.18989915E+03</rscale>
<asrwt>0</asrwt>
<pdfrwt beam="1">  1       21 0.60354654E-02 0.18989915E+03</pdfrwt>
<pdfrwt beam="2">  1       21 0.24329405E+00 0.18989915E+03</pdfrwt>
<totfact> 0.14252846E+04</totfact>
</mgrwt>
</event>
<event>
 4    1  0.4332500E+000  0.2111341E+03  0.7546771E-02  0.1140671E+00
         21   -1    0    0  503  502  0.00000000000E+00  0.00000000000E+00  0.25360253952E+03  0.25360253952E+03  0.00000000000E+00 0. -1.
         21   -1    0    0  501  503 -0.00000000000E+00 -0.00000000000E+00 -0.34015791047E+03  0.34015791047E+03  0.00000000000E+00 0. -1.
          6    1    1    2  501    0  0.94207025191E+02  0.75984564084E+02 -0.24965693455E+03  0.32696513965E+03  0.17300000000E+03 0. -1.
         -6    1    1    2    0  502 -0.94207025191E+02 -0.75984564084E+02  0.16310156360E+03  0.26679531035E+03  0.17300000000E+03 0. -1.
<mgrwt>
<rscale>  2 0.21113412E+03</rscale>
<asrwt>0</asrwt>
<pdfrwt beam="1">  1       21 0.39015775E-01 0.21113412E+03</pdfrwt>
<pdfrwt beam="2">  1       21 0.52331986E-01 0.21113412E+03</pdfrwt>
<totfact> 0.21704050E+04</totfact>
</mgrwt>
</event>
<event>
 4    1  0.4332500E+000  0.2801938E+03  0.7546771E-02  0.1095583E+00
         21   -1    0    0  503  502  0.00000000000E+00  0.00000000000E+00  0.24646674795E+03  0.24646674795E+03  0.00000000000E+00 0.  1.
         21   -1    0    0  501  503 -0.00000000000E+00 -0.00000000000E+00 -0.44975781407E+03  0.44975781407E+03  0.00000000000E+00 0.  1.
          6    1    1    2  501    0 -0.74217764501E+02  0.20753624237E+03 -0.28967796378E+03  0.40301599368E+03  0.17300000000E+03 0.  1.
         -6    1    1    2    0  502  0.74217764501E+02 -0.20753624237E+03  0.86386897663E+02  0.29320856834E+03  0.17300000000E+03 0.  1.
<mgrwt>
<rscale>  2 0.28019381E+03</rscale>
<asrwt>0</asrwt>
<pdfrwt beam="1">  1       21 0.37917962E-01 0.28019381E+03</pdfrwt>
<pdfrwt beam="2">  1       21 0.69193509E-01 0.28019381E+03</pdfrwt>
<totfact> 0.12132829E+04</totfact>
</mgrwt>
</event>
<event>
 4    1  0.4332500E+000  0.2352703E+03  0.7546771E-02  0.1122984E+00
         21   -1    0    0  501  502  0.00000000000E+00  0.00000000000E+00  0.15986799237E+04  0.15986799237E+04  0.00000000000E+00 0. -1.
         21   -1    0    0  502  503 -0.00000000000E+00 -0.00000000000E+00 -0.37870962700E+02  0.37870962700E+02  0.00000000000E+00 0. -1.
          6    1    1    2  501    0 -0.14273120904E+03  0.71069836491E+02  0.10200167238E+04  0.10467980877E+04  0.17300000000E+03 0. -1.
         -6    1    1    2    0  503  0.14273120904E+03 -0.71069836491E+02  0.54079223719E+03  0.58975279863E+03  0.17300000000E+03 0. -1.
<mgrwt>
<rscale>  2 0.23527031E+03</rscale>
<asrwt>0</asrwt>
<pdfrwt beam="1">  1       21 0.24595071E+00 0.23527031E+03</pdfrwt>
<pdfrwt beam="2">  1       21 0.58263032E-02 0.23527031E+03</pdfrwt>
<totfact> 0.14053399E+04</totfact>
</mgrwt>
</event>
<event>
 4    1  0.4332500E+000  0.2084645E+03  0.7546771E-02  0.1142788E+00
         21   -1    0    0  501  502  0.00000000000E+00  0.00000000000E+00  0.29662401720E+03  0.29662401720E+03  0.00000000000E+00 0.  1.
         21   -1    0    0  502  503 -0.00000000000E+00 -0.00000000000E+00 -0.14740524921E+03  0.14740524921E+03  0.00000000000E+00 0. -1.
          6    1    1    2  501    0  0.22218287827E+02  0.11416995559E+03  0.57276311731E+02  0.21618974758E+03  0.17300000000E+03 0.  1.
         -6    1    1    2    0  503 -0.22218287827E+02 -0.11416995559E+03  0.91942456258E+02  0.22783951882E+03  0.17300000000E+03 0. -1.
<mgrwt>
<rscale>  2 0.20846446E+03</rscale>
<asrwt>0</asrwt>
<pdfrwt beam="1">  1       21 0.45634464E-01 0.20846446E+03</pdfrwt>
<pdfrwt beam="2">  1       21 0.22677731E-01 0.20846446E+03</pdfrwt>
<totfact> 0.83368329E+04</totfact>
</mgrwt>
</event>
<event>
 4    1  0.4332500E+000  0.2092277E+03  0.7546771E-02  0.1142179E+00
         21   -1    0    0  503  502  0.00000000000E+00  0.00000000000E+00  0.10166259905E+03  0.10166259905E+03  0.00000000000E+00 0.  1.
         21   -1    0    0  501  503 -0.00000000000E+00 -0.00000000000E+00 -0.52553151629E+03  0.52553151629E+03  0.00000000000E+00 0. -1.
          6    1    1    2  501    0  0.45425619037E+02  0.10855291276E+03 -0.34521627628E+03  0.40367127609E+03  0.17300000000E+03 0. -1.
         -6    1    1    2    0  502 -0.45425619037E+02 -0.10855291276E+03 -0.78652640970E+02  0.22352283925E+03  0.17300000000E+03 0.  1.
<mgrwt>
<rscale>  2 0.20922768E+03</rscale>
<asrwt>0</asrwt>
<pdfrwt beam="1">  1       21 0.15640400E-01 0.20922768E+03</pdfrwt>
<pdfrwt beam="2">  1       21 0.80851004E-01 0.20922768E+03</pdfrwt>
<totfact> 0.48406451E+04</totfact>
</mgrwt>
</event>
<event>
 4    1  0.4332500E+000  0.2008433E+03  0.7546771E-02  0.1149029E+00
         21   -1    0    0  501  502  0.00000000000E+00  0.00000000000E+00  0.13426609542E+03  0.13426609542E+03  0.00000000000E+00 0.  1.
         21   -1    0    0  502  503 -0.00000000000E+00 -0.00000000000E+00 -0.10311273933E+04  0.10311273933E+04  0.00000000000E+00 0.  1.
          6    1    1    2  501    0 -0.10012216705E+03  0.19610366687E+02  0.42086514758E+02  0.20520548127E+03  0.17300000000E+03 0.  1.
         -6    1    1    2    0  503  0.10012216705E+03 -0.19610366687E+02 -0.93894781262E+03  0.96018800744E+03  0.17300000000E+03 0.  1.
<mgrwt>
<rscale>  2 0.20084326E+03</rscale>
<asrwt>0</asrwt>
<pdfrwt beam="1">  1       21 0.20656323E-01 0.20084326E+03</pdfrwt>
<pdfrwt beam="2">  1       21 0.15863498E+00 0.20084326E+03</pdfrwt>
<totfact> 0.55586749E+03</totfact>
</mgrwt>
</event>
<event>
 4    1  0.4332500E+000  0.2046752E+03  0.7546771E-02  0.1145853E+00
         21   -1    0    0  501  502  0.00000000000E+00  0.00000000000E+00  0.23270608088E+03  0.23270608088E+03  0.00000000000E+00 0.  1.
         21   -1    0    0  502  503 -0.00000000000E+00 -0.00000000000E+00 -0.19867092598E+03  0.19867092598E+03  0.00000000000E+00 0.  1.
          6    1    1    2  501    0  0.73580243958E+02 -0.80925239388E+02  0.83102157155E+02  0.22090250156E+03  0.17300000000E+03 0.  1.
         -6    1    1    2    0  503 -0.73580243958E+02  0.80925239388E+02 -0.49067002260E+02  0.21047450530E+03  0.17300000000E+03 0.  1.
<mgrwt>
<rscale>  2 0.20467522E+03</rscale>
<asrwt>0</asrwt>
<pdfrwt beam="1">  1       21 0.35800935E-01 0.20467522E+03</pdfrwt>
<pdfrwt beam="2">  1       21 0.30564758E-01 0.20467522E+03</pdfrwt>
<totfact> 0.76902921E+04</totfact>
</mgrwt>
</event>
<event>
 4    1  0.4332500E+000  0.1938395E+03  0.7546771E-02  0.1155043E+00
         21   -1    0    0  501  502  0.00000000000E+00  0.00000000000E+00  0.20916348605E+03  0.20916348605E+03  0.00000000000E+00 0. -1.
         21   -1    0    0  502  503 -0.00000000000E+00 -0.00000000000E+00 -0.59455086808E+03  0.59455086808E+03  0.00000000000E+00 0. -1.
          6    1    1    2  501    0 -0.59600427758E+02 -0.63973024667E+02  0.14300956300E+03  0.24088481476E+03  0.17300000000E+03 0. -1.
         -6    1    1    2    0  503  0.59600427758E+02  0.63973024667E+02 -0.52839694502E+03  0.56282953937E+03  0.17300000000E+03 0. -1.
<mgrwt>
<rscale>  2 0.19383952E+03</rscale>
<asrwt>0</asrwt>
<pdfrwt beam="1">  1       21 0.32178999E-01 0.19383952E+03</pdfrwt>
<pdfrwt beam="2">  1       21 0.91469362E-01 0.19383952E+03</pdfrwt>
<totfact> 0.93928250E+03</totfact>
</mgrwt>
</event>
<event>
 4    1  0.4332500E+000  0.2423096E+03  0.7546771E-02  0.1118264E+00
         21   -1    0    0  501  502  0.00000000000E+00  0.00000000000E+00  0.93447072688E+03  0.93447072688E+03  0.00000000000E+00 0.  1.
         21   -1    0    0  502  503 -0.00000000000E+00 -0.00000000000E+00 -0.63125798777E+02  0.63125798777E+02  0.00000000000E+00 0.  1.
          6    1    1    2  501    0 -0.12359306165E+01  0.16965669075E+03  0.40159757049E+03  0.46903574370E+03  0.17300000000E+03 0.  1.
         -6    1    1    2    0  503  0.12359306165E+01 -0.16965669075E+03  0.46974735762E+03  0.52856078197E+03  0.17300000000E+03 0.  1.
<mgrwt>
<rscale>  2 0.24230955E+03</rscale>
<asrwt>0</asrwt>
<pdfrwt beam="1">  1       21 0.14376472E+00 0.24230955E+03</pdfrwt>
<pdfrwt beam="2">  1       21 0.97116620E-02 0.24230955E+03</pdfrwt>
<totfact> 0.27731166E+04</totfact>
</mgrwt>
</event>
<event>
 4    1  0.4332500E+000  0.1838535E+03  0.7546771E-02  0.1164125E+00
         21   -1    0    0  503  502  0.00000000000E+00  0.00000000000E+00  0.21871312386E+03  0.21871312386E+03  0.00000000000E+00 0. -1.
         21   -1    0    0  501  503 -0.00000000000E+00 -0.00000000000E+00 -0.17047165805E+03  0.17047165805E+03  0.00000000000E+00 0. -1.
          6    1    1    2  501    0 -0.18648024416E+02  0.59374669189E+02 -0.35348827329E+02  0.18722083151E+03  0.17300000000E+03 0. -1.
         -6    1    1    2    0  502  0.18648024416E+02 -0.59374669189E+02  0.83590293139E+02  0.20196395040E+03  0.17300000000E+03 0. -1.
<mgrwt>
<rscale>  2 0.18385347E+03</rscale>
<asrwt>0</asrwt>
<pdfrwt beam="1">  1       21 0.33648173E-01 0.18385347E+03</pdfrwt>
<pdfrwt beam="2">  1       21 0.26226409E-01 0.18385347E+03</pdfrwt>
<totfact> 0.11794255E+05</totfact>
</mgrwt>
</event>
<event>
 4    1  0.4332500E+000  0.1912363E+03  0.7546771E-02  0.1157351E+00
         21   -1    0    0  503  502  0.00000000000E+00  0.00000000000E+00  0.51625671823E+03  0.51625671823E+03  0.00000000000E+00 0. -1.
         21   -1    0    0  501  503 -0.00000000000E+00 -0.00000000000E+00 -0.14096972232E+03  0.14096972232E+03  0.00000000000E+00 0. -1.
          6    1    1    2  501    0 -0.45478235533E+02  0.67631629878E+02 -0.44136033194E+02  0.19626333507E+03  0.17300000000E+03 0. -1.
         -6    1    1    2    0  502  0.45478235533E+02 -0.67631629878E+02  0.41942302910E+03  0.46096310547E+03  0.17300000000E+03 0. -1.
<mgrwt>
<rscale>  2 0.19123626E+03</rscale>
<asrwt>0</asrwt>
<pdfrwt beam="1">  1       21 0.79424110E-01 0.19123626E+03</pdfrwt>
<pdfrwt beam="2">  1       21 0.21687650E-01 0.19123626E+03</pdfrwt>
<totfact> 0.27745077E+04</totfact>
</mgrwt>
</event>
<event>
 4    1  0.4332500E+000  0.1896751E+03  0.7546771E-02  0.1158755E+00
         21   -1    0    0  501  502  0.00000000000E+00  0.00000000000E+00  0.15712470258E+03  0.15712470258E+03  0.00000000000E+00 0. -1.
         21   -1    0    0  502  503 -0.00000000000E+00 -0.00000000000E+00 -0.22922548689E+03  0.22922548689E+03  0.00000000000E+00 0. -1.
          6    1    1    2  501    0 -0.91868938105E+01 -0.77222096411E+02 -0.29585818664E+02  0.19196867416E+03  0.17300000000E+03 0. -1.
         -6    1    1    2    0  503  0.91868938105E+01  0.77222096411E+02 -0.42514965646E+02  0.19438151531E+03  0.17300000000E+03 0. -1.
<mgrwt>
<rscale>  2 0.18967512E+03</rscale>
<asrwt>0</asrwt>
<pdfrwt beam="1">  1       21 0.24173031E-01 0.18967512E+03</pdfrwt>
<pdfrwt beam="2">  1       21 0.35265460E-01 0.18967512E+03</pdfrwt>
<totfact> 0.12532645E+05</totfact>
</mgrwt>
</event>
<event>
 4    1  0.4332500E+000  0.2880385E+03  0.7546771E-02  0.1091378E+00
         21   -1    0    0  501  502  0.00000000000E+00  0.00000000000E+00  0.52427566691E+03  0.52427566691E+03  0.00000000000E+00 0.  1.
         21   -1    0    0  502  503 -0.00000000000E+00 -0.00000000000E+00 -0.27170562792E+03  0.27170562792E+03  0.00000000000E+00 0. -1.
          6    1    1    2  501    0 -0.10821612659E+03 -0.20328907700E+03  0.38346561482E+03  0.47959572207E+03  0.17300000000E+03 0.  1.
         -6    1    1    2    0  503  0.10821612659E+03  0.20328907700E+03 -0.13089557583E+03  0.31638557276E+03  0.17300000000E+03 0. -1.
<mgrwt>
<rscale>  2 0.28803850E+03</rscale>
<asrwt>0</asrwt>
<pdfrwt beam="1">  1       21 0.80657795E-01 0.28803850E+03</pdfrwt>
<pdfrwt beam="2">  1       21 0.41800866E-01 0.28803850E+03</pdfrwt>
<totfact> 0.70134958E+03</totfact>
</mgrwt>
</event>
<event>
 4    1  0.4332500E+000  0.2172764E+03  0.7546771E-02  0.1135930E+00
         21   -1    0    0  501  502  0.00000000000E+00  0.00000000000E+00  0.79214246798E+03  0.79214246798E+03  0.00000000000E+00 0. -1.
         21   -1    0    0  502  503 -0.00000000000E+00 -0.00000000000E+00 -0.84619425629E+02  0.84619425629E+02  0.00000000000E+00 0.  1.
          6    1    1    2  501    0 -0.10504811158E+03  0.79024964819E+02  0.59214943214E+03  0.63075351825E+03  0.17300000000E+03 0. -1.
         -6    1    1    2    0  503  0.10504811158E+03 -0.79024964819E+02  0.11537361022E+03  0.24600837536E+03  0.17300000000E+03 0.  1.
<mgrwt>
<rscale>  2 0.21727644E+03</rscale>
<asrwt>0</asrwt>
<pdfrwt beam="1">  1       21 0.12186807E+00 0.21727644E+03</pdfrwt>
<pdfrwt beam="2">  1       21 0.13018374E-01 0.21727644E+03</pdfrwt>
<totfact> 0.25391513E+04</totfact>
</mgrwt>
</event>
<event>
 4    1  0.4332500E+000  0.2014369E+03  0.7546771E-02  0.1148532E+00
         21   -1    0    0  503  502  0.00000000000E+00  0.00000000000E+00  0.93200270866E+02  0.93200270866E+02  0.00000000000E+00 0.  1.
         21   -1    0    0  501  503 -0.00000000000E+00 -0.00000000000E+00 -0.44376252584E+03  0.44376252584E+03  0.00000000000E+00 0.  1.
          6    1    1    2  501    0 -0.96938618764E+02  0.35365807417E+02 -0.21219760038E+03  0.29258273659E+03  0.17300000000E+03 0. -1.
         -6    1    1    2    0  502  0.96938618764E+02 -0.35365807417E+02 -0.13836465459E+03  0.24438006012E+03  0.17300000000E+03 0. -1.
<mgrwt>
<rscale>  2 0.20143693E+03</rscale>
<asrwt>0</asrwt>
<pdfrwt beam="1">  1       21 0.14338503E-01 0.20143693E+03</pdfrwt>
<pdfrwt beam="2">  1       21 0.68271157E-01 0.20143693E+03</pdfrwt>
<totfact> 0.83040928E+04</totfact>
</mgrwt>
</event>
<event>
 4    1  0.4332500E+000  0.2326305E+03  0.7546771E-02  0.1124802E+00
         21   -1    0    0  501  502  0.00000000000E+00  0.00000000000E+00  0.56312576357E+03  0.56312576357E+03  0.00000000000E+00 0. -1.
         21   -1    0    0  502  503 -0.00000000000E+00 -0.00000000000E+00 -0.34103498749E+03  0.34103498749E+03  0.00000000000E+00 0.  1.
          6    1    1    2  501    0 -0.27916532733E+02  0.15299870409E+03  0.49417060102E+03  0.54618817194E+03  0.17300000000E+03 0. -1.
         -6    1    1    2    0  503  0.27916532733E+02 -0.15299870409E+03 -0.27207982494E+03  0.35797257911E+03  0.17300000000E+03 0.  1.
<mgrwt>
<rscale>  2 0.23263047E+03</rscale>
<asrwt>0</asrwt>
<pdfrwt beam="1">  1       21 0.86634733E-01 0.23263047E+03</pdfrwt>
<pdfrwt beam="2">  1       21 0.52466921E-01 0.23263047E+03</pdfrwt>
<totfact> 0.38322201E+03</totfact>
</mgrwt>
</event>
<event>
 4    1  0.4332500E+000  0.2241155E+03  0.7546771E-02  0.1130851E+00
         21   -1    0    0  503  502  0.00000000000E+00  0.00000000000E+00  0.42788399960E+03  0.42788399960E+03  0.00000000000E+00 0. -1.
         21   -1    0    0  501  503 -0.00000000000E+00 -0.00000000000E+00 -0.22135217149E+03  0.22135217149E+03  0.00000000000E+00 0.  1.
          6    1    1    2  501    0  0.14202649311E+03  0.11278900853E+02 -0.11920647887E+03  0.25384625850E+03  0.17300000000E+03 0.  1.
         -6    1    1    2    0  502 -0.14202649311E+03 -0.11278900853E+02  0.32573830698E+03  0.39538991260E+03  0.17300000000E+03 0. -1.
<mgrwt>
<rscale>  2 0.22411546E+03</rscale>
<asrwt>0</asrwt>
<pdfrwt beam="1">  1       21 0.65828307E-01 0.22411546E+03</pdfrwt>
<pdfrwt beam="2">  1       21 0.34054180E-01 0.22411546E+03</pdfrwt>
<totfact> 0.17287422E+04</totfact>
</mgrwt>
</event>
<event>
 4    1  0.4332500E+000  0.1867353E+03  0.7546771E-02  0.1161439E+00
         21   -1    0    0  503  502  0.00000000000E+00  0.00000000000E+00  0.10676903358E+03  0.10676903358E+03  0.00000000000E+00 0.  1.
         21   -1    0    0  501  503 -0.00000000000E+00 -0.00000000000E+00 -0.57549288998E+03  0.57549288998E+03  0.00000000000E+00 0.  1.
          6    1    1    2  501    0  0.62156568089E+02  0.32827117832E+02 -0.45870527058E+03  0.49525809824E+03  0.17300000000E+03 0.  1.
         -6    1    1    2    0  502 -0.62156568089E+02 -0.32827117832E+02 -0.10018585821E+02  0.18700382532E+03  0.17300000000E+03 0.  1.
<mgrwt>
<rscale>  2 0.18673526E+03</rscale>
<asrwt>0</asrwt>
<pdfrwt beam="1">  1       21 0.16426006E-01 0.18673526E+03</pdfrwt>
<pdfrwt beam="2">  1       21 0.88537365E-01 0.18673526E+03</pdfrwt>
<totfact> 0.36370233E+04</totfact>
</mgrwt>
</event>
<event>
 4    1  0.4332500E+000  0.2031443E+03  0.7546771E-02  0.1147113E+00
         21   -1    0    0  503  502  0.00000000000E+00  0.00000000000E+00  0.49775946057E+03  0.49775946057E+03  0.00000000000E+00 0. -1.
         21   -1    0    0  501  503 -0.00000000000E+00 -0.00000000000E+00 -0.85240310760E+02  0.85240310760E+02  0.00000000000E+00 0.  1.
          6    1    1    2  501    0  0.10475968004E+03 -0.19079489026E+02  0.15802863227E+03  0.25737262108E+03  0.17300000000E+03 0.  1.
         -6    1    1    2    0  502 -0.10475968004E+03  0.19079489026E+02  0.25449051754E+03  0.32562715025E+03  0.17300000000E+03 0. -1.
<mgrwt>
<rscale>  2 0.20314433E+03</rscale>
<asrwt>0</asrwt>
<pdfrwt beam="1">  1       21 0.76578377E-01 0.20314433E+03</pdfrwt>
<pdfrwt beam="2">  1       21 0.13113894E-01 0.20314433E+03</pdfrwt>
<totfact> 0.75578733E+04</totfact>
</mgrwt>
</event>
<event>
 4    1  0.4332500E+000  0.1746811E+03  0.7546771E-02  0.1173052E+00
         21   -1    0    0  501  502  0.00000000000E+00  0.00000000000E+00  0.14114364224E+03  0.14114364224E+03  0.00000000000E+00 0. -1.
         21   -1    0    0  502  503 -0.00000000000E+00 -0.00000000000E+00 -0.21753270219E+03  0.21753270219E+03  0.00000000000E+00 0. -1.
          6    1    1    2  501    0 -0.20460486796E+02  0.12878918172E+02 -0.24092021905E+02  0.17633469191E+03  0.17300000000E+03 0.  1.
         -6    1    1    2    0  503  0.20460486796E+02 -0.12878918172E+02 -0.52297038048E+02  0.18234165251E+03  0.17300000000E+03 0.  1.
<mgrwt>
<rscale>  2 0.17468113E+03</rscale>
<asrwt>0</asrwt>
<pdfrwt beam="1">  1       21 0.21714406E-01 0.17468113E+03</pdfrwt>
<pdfrwt beam="2">  1       21 0.33466570E-01 0.17468113E+03</pdfrwt>
<totfact> 0.17106604E+05</totfact>
</mgrwt>
</event>
<event>
 4    1  0.4332500E+000  0.1974162E+03  0.7546771E-02  0.1151937E+00
         21   -1    0    0  501  502  0.00000000000E+00  0.00000000000E+00  0.96065619874E+02  0.96065619874E+02  0.00000000000E+00 0. -1.
         21   -1    0    0  502  503 -0.00000000000E+00 -0.00000000000E+00 -0.96719828220E+03  0.96719828220E+03  0.00000000000E+00 0. -1.
          6    1    1    2  501    0  0.63090068222E+02  0.71160505293E+02 -0.30496275650E+02  0.19975784603E+03  0.17300000000E+03 0. -1.
         -6    1    1    2    0  503 -0.63090068222E+02 -0.71160505293E+02 -0.84063638667E+03  0.86350605604E+03  0.17300000000E+03 0. -1.
<mgrwt>
<rscale>  2 0.19741625E+03</rscale>
<asrwt>0</asrwt>
<pdfrwt beam="1">  1       21 0.14779326E-01 0.19741625E+03</pdfrwt>
<pdfrwt beam="2">  1       21 0.14879974E+00 0.19741625E+03</pdfrwt>
<totfact> 0.12260299E+04</totfact>
</mgrwt>
</event>
<event>
 4    1  0.4332500E+000  0.1911594E+03  0.7546771E-02  0.1157420E+00
         21   -1    0    0  501  502  0.00000000000E+00  0.00000000000E+00  0.61945942997E+03  0.61945942997E+03  0.00000000000E+00 0.  1.
         21   -1    0    0  502  503 -0.00000000000E+00 -0.00000000000E+00 -0.91577686549E+02  0.91577686549E+02  0.00000000000E+00 0. -1.
          6    1    1    2  501    0 -0.35989540949E+02 -0.72922420205E+02  0.47601810524E+03  0.51296701936E+03  0.17300000000E+03 0.  1.
         -6    1    1    2    0  503  0.35989540949E+02  0.72922420205E+02  0.51863638181E+02  0.19807009717E+03  0.17300000000E+03 0. -1.
<mgrwt>
<rscale>  2 0.19115943E+03</rscale>
<asrwt>0</asrwt>
<pdfrwt beam="1">  1       21 0.95301448E-01 0.19115943E+03</pdfrwt>
<pdfrwt beam="2">  1       21 0.14088875E-01 0.19115943E+03</pdfrwt>
<totfact> 0.40451549E+04</totfact>
</mgrwt>
</event>
<event>
 4    1  0.4332500E+000  0.1769320E+03  0.7546771E-02  0.1170806E+00
         21   -1    0    0  501  502  0.00000000000E+00  0.00000000000E+00  0.62477263308E+03  0.62477263308E+03  0.00000000000E+00 0.  1.
         21   -1    0    0  502  503 -0.00000000000E+00 -0.00000000000E+00 -0.82060867367E+02  0.82060867367E+02  0.00000000000E+00 0.  1.
          6    1    1    2  501    0  0.26232650229E+02 -0.26225876665E+02  0.49189549046E+03  0.52274862227E+03  0.17300000000E+03 0.  1.
         -6    1    1    2    0  503 -0.26232650229E+02  0.26225876665E+02  0.50816275252E+02  0.18408487818E+03  0.17300000000E+03 0.  1.
<mgrwt>
<rscale>  2 0.17693204E+03</rscale>
<asrwt>0</asrwt>
<pdfrwt beam="1">  1       21 0.96118864E-01 0.17693204E+03</pdfrwt>
<pdfrwt beam="2">  1       21 0.12624749E-01 0.17693204E+03</pdfrwt>
<totfact> 0.48672574E+04</totfact>
</mgrwt>
</event>
<event>
 4    1  0.4332500E+000  0.1824249E+03  0.7546771E-02  0.1165477E+00
         21   -1    0    0  501  502  0.00000000000E+00  0.00000000000E+00  0.75112273185E+03  0.75112273185E+03  0.00000000000E+00 0.  1.
         21   -1    0    0  502  503 -0.00000000000E+00 -0.00000000000E+00 -0.47757078560E+02  0.47757078560E+02  0.00000000000E+00 0.  1.
          6    1    1    2  501    0 -0.98074908838E+01 -0.57040991151E+02  0.45906742871E+03  0.49398559255E+03  0.17300000000E+03 0.  1.
         -6    1    1    2    0  503  0.98074908838E+01  0.57040991151E+02  0.24429822458E+03  0.30489421785E+03  0.17300000000E+03 0.  1.
<mgrwt>
<rscale>  2 0.18242495E+03</rscale>
<asrwt>0</asrwt>
<pdfrwt beam="1">  1       21 0.11555734E+00 0.18242495E+03</pdfrwt>
<pdfrwt beam="2">  1       21 0.73472434E-02 0.18242495E+03</pdfrwt>
<totfact> 0.80975508E+04</totfact>
</mgrwt>
</event>
<event>
 4    1  0.4332500E+000  0.1760618E+03  0.7546771E-02  0.1171670E+00
         21   -1    0    0  503  502  0.00000000000E+00  0.00000000000E+00  0.62149140959E+02  0.62149140959E+02  0.00000000000E+00 0. -1.
         21   -1    0    0  501  503 -0.00000000000E+00 -0.00000000000E+00 -0.13021987549E+04  0.13021987549E+04  0.00000000000E+00 0. -1.
          6    1    1    2  501    0 -0.20542057575E+02  0.25431737294E+02 -0.11558607225E+04  0.11691927810E+04  0.17300000000E+03 0. -1.
         -6    1    1    2    0  502  0.20542057575E+02 -0.25431737294E+02 -0.84188891389E+02  0.19515511478E+03  0.17300000000E+03 0. -1.
<mgrwt>
<rscale>  2 0.17606178E+03</rscale>
<asrwt>0</asrwt>
<pdfrwt beam="1">  1       21 0.95614071E-02 0.17606178E+03</pdfrwt>
<pdfrwt beam="2">  1       21 0.20033825E+00 0.17606178E+03</pdfrwt>
<totfact> 0.11899271E+04</totfact>
</mgrwt>
</event>
<event>
 4    1  0.4332500E+000  0.2378824E+03  0.7546771E-02  0.1121212E+00
         21   -1    0    0  503  502  0.00000000000E+00  0.00000000000E+00  0.27649497486E+03  0.27649497486E+03  0.00000000000E+00 0. -1.
         21   -1    0    0  501  503 -0.00000000000E+00 -0.00000000000E+00 -0.20474319539E+03  0.20474319539E+03  0.00000000000E+00 0. -1.
          6    1    1    2  501    0 -0.13568700383E+03  0.90818971539E+02  0.31087810166E+02  0.23990519074E+03  0.17300000000E+03 0. -1.
         -6    1    1    2    0  502  0.13568700383E+03 -0.90818971539E+02  0.40663969308E+02  0.24133297951E+03  0.17300000000E+03 0. -1.
<mgrwt>
<rscale>  2 0.23788243E+03</rscale>
<asrwt>0</asrwt>
<pdfrwt beam="1">  1       21 0.42537689E-01 0.23788243E+03</pdfrwt>
<pdfrwt beam="2">  1       21 0.31498953E-01 0.23788243E+03</pdfrwt>
<totfact> 0.50458452E+04</totfact>
</mgrwt>
</event>
<event>
 4    1  0.4332500E+000  0.1881474E+03  0.7546771E-02  0.1160143E+00
         21   -1    0    0  503  502  0.00000000000E+00  0.00000000000E+00  0.10437372290E+03  0.10437372290E+03  0.00000000000E+00 0. -1.
         21   -1    0    0  501  503 -0.00000000000E+00 -0.00000000000E+00 -0.33980225595E+03  0.33980225595E+03  0.00000000000E+00 0. -1.
          6    1    1    2  501    0  0.38340831114E+01 -0.73863046938E+02 -0.12736539114E+03  0.22720341713E+03  0.17300000000E+03 0.  1.
         -6    1    1    2    0  502 -0.38340831114E+01  0.73863046938E+02 -0.10806314192E+03  0.21697256171E+03  0.17300000000E+03 0.  1.
<mgrwt>
<rscale>  2 0.18814742E+03</rscale>
<asrwt>0</asrwt>
<pdfrwt beam="1">  1       21 0.16057496E-01 0.18814742E+03</pdfrwt>
<pdfrwt beam="2">  1       21 0.52277270E-01 0.18814742E+03</pdfrwt>
<totfact> 0.12044284E+05</totfact>
</mgrwt>
</event>
<event>
 4    1  0.4332500E+000  0.3254325E+03  0.7546771E-02  0.1073176E+00
         21   -1    0    0  501  502  0.00000000000E+00  0.00000000000E+00  0.12738492198E+03  0.12738492198E+03  0.00000000000E+00 0. -1.
         21   -1    0    0  502  503 -0.00000000000E+00 -0.00000000000E+00 -0.10123493860E+04  0.10123493860E+04  0.00000000000E+00 0.  1.
          6    1    1    2  501    0  0.10010761835E+03  0.25681852328E+03 -0.20154637911E+03  0.38278875648E+03  0.17300000000E+03 0. -1.
         -6    1    1    2    0  503 -0.10010761835E+03 -0.25681852328E+03 -0.68341808491E+03  0.75694555150E+03  0.17300000000E+03 0.  1.
<mgrwt>
<rscale>  2 0.32543246E+03</rscale>
<asrwt>0</asrwt>
<pdfrwt beam="1">  1       21 0.19597680E-01 0.32543246E+03</pdfrwt>
<pdfrwt beam="2">  1       21 0.15574606E+00 0.32543246E+03</pdfrwt>
<totfact> 0.59576930E+03</totfact>
</mgrwt>
</event>
<event>
 4    1  0.4332500E+000  0.2624162E+03  0.7546771E-02  0.1105700E+00
         21   -1    0    0  503  502  0.00000000000E+00  0.00000000000E+00  0.85680861576E+03  0.85680861576E+03  0.00000000000E+00 0. -1.
         21   -1    0    0  501  503 -0.00000000000E+00 -0.00000000000E+00 -0.99542238033E+02  0.99542238033E+02  0.00000000000E+00 0. -1.
          6    1    1    2  501    0  0.12706816821E+03 -0.15095352474E+03  0.58848480838E+03  0.64434203316E+03  0.17300000000E+03 0. -1.
         -6    1    1    2    0  502 -0.12706816821E+03  0.15095352474E+03  0.16878156935E+03  0.31200882064E+03  0.17300000000E+03 0. -1.
<mgrwt>
<rscale>  2 0.26241625E+03</rscale>
<asrwt>0</asrwt>
<pdfrwt beam="1">  1       21 0.13181671E+00 0.26241625E+03</pdfrwt>
<pdfrwt beam="2">  1       21 0.15314191E-01 0.26241625E+03</pdfrwt>
<totfact> 0.15115115E+04</totfact>
</mgrwt>
</event>
<event>
 4    1  0.4332500E+000  0.2139076E+03  0.7546771E-02  0.1138508E+00
         21   -1    0    0  501  502  0.00000000000E+00  0.00000000000E+00  0.28025582584E+03  0.28025582584E+03  0.00000000000E+00 0. -1.
         21   -1    0    0  502  503 -0.00000000000E+00 -0.00000000000E+00 -0.21776417232E+03  0.21776417232E+03  0.00000000000E+00 0. -1.
          6    1    1    2  501    0 -0.12579269128E+03  0.19183421966E+01  0.15581518314E+03  0.26464098797E+03  0.17300000000E+03 0. -1.
         -6    1    1    2    0  503  0.12579269128E+03 -0.19183421966E+01 -0.93323529618E+02  0.23337901019E+03  0.17300000000E+03 0. -1.
<mgrwt>
<rscale>  2 0.21390765E+03</rscale>
<asrwt>0</asrwt>
<pdfrwt beam="1">  1       21 0.43116281E-01 0.21390765E+03</pdfrwt>
<pdfrwt beam="2">  1       21 0.33502180E-01 0.21390765E+03</pdfrwt>
<totfact> 0.43919322E+04</totfact>
</mgrwt>
</event>
<event>
 4    1  0.4332500E+000  0.3288624E+03  0.7546771E-02  0.1071641E+00
         21   -1    0    0  503  502  0.00000000000E+00  0.00000000000E+00  0.21357700784E+03  0.21357700784E+03  0.00000000000E+00 0.  1.
         21   -1    0    0  501  503 -0.00000000000E+00 -0.00000000000E+00 -0.50802808597E+03  0.50802808597E+03  0.00000000000E+00 0.  1.
          6    1    1    2  501    0  0.25692983162E+03  0.11049214356E+03 -0.12665571938E+03  0.35240902857E+03  0.17300000000E+03 0.  1.
         -6    1    1    2    0  502 -0.25692983162E+03 -0.11049214356E+03 -0.16779535876E+03  0.36919606524E+03  0.17300000000E+03 0.  1.
<mgrwt>
<rscale>  2 0.32886236E+03</rscale>
<asrwt>0</asrwt>
<pdfrwt beam="1">  1       21 0.32858002E-01 0.32886236E+03</pdfrwt>
<pdfrwt beam="2">  1       21 0.78158166E-01 0.32886236E+03</pdfrwt>
<totfact> 0.12040403E+04</totfact>
</mgrwt>
</event>
<event>
 4    1  0.4332500E+000  0.1794525E+03  0.7546771E-02  0.1168334E+00
         21   -1    0    0  503  502  0.00000000000E+00  0.00000000000E+00  0.53686037723E+02  0.53686037723E+02  0.00000000000E+00 0.  1.
         21   -1    0    0  501  503 -0.00000000000E+00 -0.00000000000E+00 -0.64479399538E+03  0.64479399538E+03  0.00000000000E+00 0.  1.
          6    1    1    2  501    0 -0.38083460888E+01  0.47536400503E+02 -0.38776470869E+03  0.42727588532E+03  0.17300000000E+03 0.  1.
         -6    1    1    2    0  502  0.38083460888E+01 -0.47536400503E+02 -0.20334324896E+03  0.27120414778E+03  0.17300000000E+03 0.  1.
<mgrwt>
<rscale>  2 0.17945254E+03</rscale>
<asrwt>0</asrwt>
<pdfrwt beam="1">  1       21 0.82593901E-02 0.17945254E+03</pdfrwt>
<pdfrwt beam="2">  1       21 0.99199080E-01 0.17945254E+03</pdfrwt>
<totfact> 0.95503796E+04</totfact>
</mgrwt>
</event>
<event>
 4    1  0.4332500E+000  0.1930353E+03  0.7546771E-02  0.1155752E+00
         21   -1    0    0  501  502  0.00000000000E+00  0.00000000000E+00  0.56282047923E+03  0.56282047923E+03  0.00000000000E+00 0. -1.
         21   -1    0    0  502  503 -0.00000000000E+00 -0.00000000000E+00 -0.99788792712E+02  0.99788792712E+02  0.00000000000E+00 0. -1.
          6    1    1    2  501    0 -0.46773011395E+02 -0.71734951270E+02  0.42370947773E+03  0.46560964267E+03  0.17300000000E+03 0. -1.
         -6    1    1    2    0  503  0.46773011395E+02  0.71734951270E+02  0.39322208786E+02  0.19699962927E+03  0.17300000000E+03 0. -1.
<mgrwt>
<rscale>  2 0.19303528E+03</rscale>
<asrwt>0</asrwt>
<pdfrwt beam="1">  1       21 0.86587764E-01 0.19303528E+03</pdfrwt>
<pdfrwt beam="2">  1       21 0.15352122E-01 0.19303528E+03</pdfrwt>
<totfact> 0.43182291E+04</totfact>
</mgrwt>
</event>
<event>
 4    1  0.4332500E+000  0.2521452E+03  0.7546771E-02  0.1111957E+00
         21   -1    0    0  503  502  0.00000000000E+00  0.00000000000E+00  0.17134461359E+04  0.17134461359E+04  0.00000000000E+00 0. -1.
         21   -1    0    0  501  503 -0.00000000000E+00 -0.00000000000E+00 -0.37294828511E+02  0.37294828511E+02  0.00000000000E+00 0. -1.
          6    1    1    2  501    0  0.94024641469E+02 -0.15750415346E+03  0.77560155271E+03  0.81555806668E+03  0.17300000000E+03 0. -1.
         -6    1    1    2    0  502 -0.94024641469E+02  0.15750415346E+03  0.90054975470E+03  0.93518289775E+03  0.17300000000E+03 0. -1.
<mgrwt>
<rscale>  2 0.25214518E+03</rscale>
<asrwt>0</asrwt>
<pdfrwt beam="1">  1       21 0.26360704E+00 0.25214518E+03</pdfrwt>
<pdfrwt beam="2">  1       21 0.57376672E-02 0.25214518E+03</pdfrwt>
<totfact> 0.11194517E+04</totfact>
</mgrwt>
</event>
<event>
 4    1  0.4332500E+000  0.1915698E+03  0.7546771E-02  0.1157053E+00
         21   -1    0    0  501  502  0.00000000000E+00  0.00000000000E+00  0.56045013554E+02  0.56045013554E+02  0.00000000000E+00 0. -1.
         21   -1    0    0  502  503 -0.00000000000E+00 -0.00000000000E+00 -0.67083252133E+03  0.67083252133E+03  0.00000000000E+00 0. -1.
          6    1    1    2  501    0 -0.39985845450E+02 -0.71910481023E+02 -0.36355715511E+03  0.41094134636E+03  0.17300000000E+03 0. -1.
         -6    1    1    2    0  503  0.39985845450E+02  0.71910481023E+02 -0.25123035267E+03  0.31593618852E+03  0.17300000000E+03 0. -1.
<mgrwt>
<rscale>  2 0.19156979E+03</rscale>
<asrwt>0</asrwt>
<pdfrwt beam="1">  1       21 0.86223096E-02 0.19156979E+03</pdfrwt>
<pdfrwt beam="2">  1       21 0.10320500E+00 0.19156979E+03</pdfrwt>
<totfact> 0.80221094E+04</totfact>
</mgrwt>
</event>
<event>
 4    1  0.4332500E+000  0.1926708E+03  0.7546771E-02  0.1156074E+00
         21   -1    0    0  503  502  0.00000000000E+00  0.00000000000E+00  0.14053451195E+03  0.14053451195E+03  0.00000000000E+00 0.  1.
         21   -1    0    0  501  503 -0.00000000000E+00 -0.00000000000E+00 -0.46992497684E+03  0.46992497684E+03  0.00000000000E+00 0. -1.
          6    1    1    2  501    0  0.81190822470E+02  0.24516713737E+02 -0.36667606784E+03  0.41421414466E+03  0.17300000000E+03 0. -1.
         -6    1    1    2    0  502 -0.81190822470E+02 -0.24516713737E+02  0.37285602957E+02  0.19624534413E+03  0.17300000000E+03 0.  1.
<mgrwt>
<rscale>  2 0.19267075E+03</rscale>
<asrwt>0</asrwt>
<pdfrwt beam="1">  1       21 0.21620694E-01 0.19267075E+03</pdfrwt>
<pdfrwt beam="2">  1       21 0.72296150E-01 0.19267075E+03</pdfrwt>
<totfact> 0.34413957E+04</totfact>
</mgrwt>
</event>
<event>
 4    1  0.4332500E+000  0.1889712E+03  0.7546771E-02  0.1159393E+00
         21   -1    0    0  501  502  0.00000000000E+00  0.00000000000E+00  0.23329533493E+03  0.23329533493E+03  0.00000000000E+00 0.  1.
         21   -1    0    0  502  503 -0.00000000000E+00 -0.00000000000E+00 -0.23333528815E+03  0.23333528815E+03  0.00000000000E+00 0.  1.
          6    1    1    2  501    0 -0.75853196340E+02 -0.52347818507E+01  0.13682272141E+03  0.23330359498E+03  0.17300000000E+03 0.  1.
         -6    1    1    2    0  503  0.75853196340E+02  0.52347818507E+01 -0.13686267463E+03  0.23332702810E+03  0.17300000000E+03 0.  1.
<mgrwt>
<rscale>  2 0.18897119E+03</rscale>
<asrwt>0</asrwt>
<pdfrwt beam="1">  1       21 0.35891590E-01 0.18897119E+03</pdfrwt>
<pdfrwt beam="2">  1       21 0.35897737E-01 0.18897119E+03</pdfrwt>
<totfact> 0.56108294E+04</totfact>
</mgrwt>
</event>
<event>
 4    1  0.4332500E+000  0.2587696E+03  0.7546771E-02  0.1107885E+00
         21   -1    0    0  501  502  0.00000000000E+00  0.00000000000E+00  0.17402600820E+03  0.17402600820E+03  0.00000000000E+00 0.  1.
         21   -1    0    0  502  503 -0.00000000000E+00 -0.00000000000E+00 -0.39650632459E+03  0.39650632459E+03  0.00000000000E+00 0. -1.
          6    1    1    2  501    0  0.15289854323E+03 -0.11685343424E+03 -0.62182118989E+02  0.26613587796E+03  0.17300000000E+03 0. -1.
         -6    1    1    2    0  503 -0.15289854323E+03  0.11685343424E+03 -0.16029819740E+03  0.30439645482E+03  0.17300000000E+03 0. -1.
<mgrwt>
<rscale>  2 0.25876957E+03</rscale>
<asrwt>0</asrwt>
<pdfrwt beam="1">  1       21 0.26773232E-01 0.25876957E+03</pdfrwt>
<pdfrwt beam="2">  1       21 0.61000972E-01 0.25876957E+03</pdfrwt>
<totfact> 0.32166073E+04</totfact>
</mgrwt>
</event>
<event>
 4    1  0.4332500E+000  0.1824873E+03  0.7546771E-02  0.1165417E+00
         21   -1    0    0  503  502  0.00000000000E+00  0.00000000000E+00  0.10536697517E+04  0.10536697517E+04  0.00000000000E+00 0.  1.
         21   -1    0    0  501  503 -0.00000000000E+00 -0.00000000000E+00 -0.62815502373E+02  0.62815502373E+02  0.00000000000E+00 0.  1.
          6    1    1    2  501    0 -0.16059060754E+02 -0.55809716915E+02  0.10193376155E+03  0.20902657649E+03  0.17300000000E+03 0.  1.
         -6    1    1    2    0  502  0.16059060754E+02  0.55809716915E+02  0.88892048781E+03  0.90745867762E+03  0.17300000000E+03 0.  1.
<mgrwt>
<rscale>  2 0.18248731E+03</rscale>
<asrwt>0</asrwt>
<pdfrwt beam="1">  1       21 0.16210303E+00 0.18248731E+03</pdfrwt>
<pdfrwt beam="2">  1       21 0.96639242E-02 0.18248731E+03</pdfrwt>
<totfact> 0.21088361E+04</totfact>
</mgrwt>
</event>
<event>
 4    1  0.4332500E+000  0.2216227E+03  0.7546771E-02  0.1132679E+00
         21   -1    0    0  503  502  0.00000000000E+00  0.00000000000E+00  0.82067187955E+03  0.82067187955E+03  0.00000000000E+00 0. -1.
         21   -1    0    0  501  503 -0.00000000000E+00 -0.00000000000E+00 -0.24728238275E+03  0.24728238275E+03  0.00000000000E+00 0. -1.
          6    1    1    2  501    0  0.13374273103E+03 -0.36062238134E+02 -0.17819422134E+03  0.28437613058E+03  0.17300000000E+03 0. -1.
         -6    1    1    2    0  502 -0.13374273103E+03  0.36062238134E+02  0.75158371815E+03  0.78357813172E+03  0.17300000000E+03 0. -1.
<mgrwt>
<rscale>  2 0.22162266E+03</rscale>
<asrwt>0</asrwt>
<pdfrwt beam="1">  1       21 0.12625721E+00 0.22162266E+03</pdfrwt>
<pdfrwt beam="2">  1       21 0.38043444E-01 0.22162266E+03</pdfrwt>
<totfact> 0.30253049E+03</totfact>
</mgrwt>
</event>
<event>
 4    1  0.4332500E+000  0.2088087E+03  0.7546771E-02  0.1142513E+00
         21   -1    0    0  501  502  0.00000000000E+00  0.00000000000E+00  0.26953025500E+02  0.26953025500E+02  0.00000000000E+00 0. -1.
         21   -1    0    0  502  503 -0.00000000000E+00 -0.00000000000E+00 -0.21659262298E+04  0.21659262298E+04  0.00000000000E+00 0.  1.
          6    1    1    2  501    0  0.64132159025E+00  0.11692592484E+03 -0.51784763219E+03  0.55836122122E+03  0.17300000000E+03 0. -1.
         -6    1    1    2    0  503 -0.64132159025E+00 -0.11692592484E+03 -0.16211255721E+04  0.16345180341E+04  0.17300000000E+03 0.  1.
<mgrwt>
<rscale>  2 0.20880872E+03</rscale>
<asrwt>0</asrwt>
<pdfrwt beam="1">  1       21 0.41466181E-02 0.20880872E+03</pdfrwt>
<pdfrwt beam="2">  1       21 0.33321952E+00 0.20880872E+03</pdfrwt>
<totfact> 0.79431543E+03</totfact>
</mgrwt>
</event>
<event>
 4    1  0.4332500E+000  0.1786439E+03  0.7546771E-02  0.1169122E+00
         21   -1    0    0  503  502  0.00000000000E+00  0.00000000000E+00  0.21257175353E+03  0.21257175353E+03  0.00000000000E+00 0.  1.
         21   -1    0    0  501  503 -0.00000000000E+00 -0.00000000000E+00 -0.29918714336E+03  0.29918714336E+03  0.00000000000E+00 0.  1.
          6    1    1    2  501    0  0.35480601304E+02  0.26939872317E+02 -0.22391642807E+03  0.28644754589E+03  0.17300000000E+03 0.  1.
         -6    1    1    2    0  502 -0.35480601304E+02 -0.26939872317E+02  0.13730103824E+03  0.22531135100E+03  0.17300000000E+03 0.  1.
<mgrwt>
<rscale>  2 0.17864386E+03</rscale>
<asrwt>0</asrwt>
<pdfrwt beam="1">  1       21 0.32703347E-01 0.17864386E+03</pdfrwt>
<pdfrwt beam="2">  1       21 0.46028791E-01 0.17864386E+03</pdfrwt>
<totfact> 0.40992360E+04</totfact>
</mgrwt>
</event>
<event>
 4    1  0.4332500E+000  0.1996413E+03  0.7546771E-02  0.1150042E+00
         21   -1    0    0  501  502  0.00000000000E+00  0.00000000000E+00  0.76097788592E+02  0.76097788592E+02  0.00000000000E+00 0. -1.
         21   -1    0    0  502  503 -0.00000000000E+00 -0.00000000000E+00 -0.62328681974E+03  0.62328681974E+03  0.00000000000E+00 0. -1.
          6    1    1    2  501    0 -0.25414320775E+02  0.96341894321E+02 -0.13385423464E+03  0.24036140379E+03  0.17300000000E+03 0. -1.
         -6    1    1    2    0  503  0.25414320775E+02 -0.96341894321E+02 -0.41333479651E+03  0.45902320454E+03  0.17300000000E+03 0. -1.
<mgrwt>
<rscale>  2 0.19964130E+03</rscale>
<asrwt>0</asrwt>
<pdfrwt beam="1">  1       21 0.11707352E-01 0.19964130E+03</pdfrwt>
<pdfrwt beam="2">  1       21 0.95890283E-01 0.19964130E+03</pdfrwt>
<totfact> 0.55390856E+04</totfact>
</mgrwt>
</event>
<event>
 4    1  0.4332500E+000  0.2061951E+03  0.7546771E-02  0.1144615E+00
         21   -1    0    0  503  502  0.00000000000E+00  0.00000000000E+00  0.15118458431E+03  0.15118458431E+03  0.00000000000E+00 0.  1.
         21   -1    0    0  501  503 -0.00000000000E+00 -0.00000000000E+00 -0.30442065945E+03  0.30442065945E+03  0.00000000000E+00 0. -1.
          6    1    1    2  501    0  0.11086277668E+03 -0.17229186363E+02 -0.13950419004E+03  0.24895344777E+03  0.17300000000E+03 0. -1.
         -6    1    1    2    0  502 -0.11086277668E+03  0.17229186363E+02 -0.13731885105E+02  0.20665179599E+03  0.17300000000E+03 0.  1.
<mgrwt>
<rscale>  2 0.20619505E+03</rscale>
<asrwt>0</asrwt>
<pdfrwt beam="1">  1       21 0.23259167E-01 0.20619505E+03</pdfrwt>
<pdfrwt beam="2">  1       21 0.46833948E-01 0.20619505E+03</pdfrwt>
<totfact> 0.75387354E+04</totfact>
</mgrwt>
</event>
<event>
 4    1  0.4332500E+000  0.1854902E+03  0.7546771E-02  0.1162593E+00
         21   -1    0    0  503  502  0.00000000000E+00  0.00000000000E+00  0.97158860833E+03  0.97158860833E+03  0.00000000000E+00 0.  1.
         21   -1    0    0  501  503 -0.00000000000E+00 -0.00000000000E+00 -0.41323903503E+02  0.41323903503E+02  0.00000000000E+00 0. -1.
          6    1    1    2  501    0 -0.58063517193E+02 -0.33260132266E+02  0.65668051778E+03  0.68237519801E+03  0.17300000000E+03 0. -1.
         -6    1    1    2    0  502  0.58063517193E+02  0.33260132266E+02  0.27358418704E+03  0.33053731382E+03  0.17300000000E+03 0. -1.
<mgrwt>
<rscale>  2 0.18549018E+03</rscale>
<asrwt>0</asrwt>
<pdfrwt beam="1">  1       21 0.14947515E+00 0.18549018E+03</pdfrwt>
<pdfrwt beam="2">  1       21 0.63575243E-02 0.18549018E+03</pdfrwt>
<totfact> 0.54074496E+04</totfact>
</mgrwt>
</event>
<event>
 4    1  0.4332500E+000  0.3009240E+03  0.7546771E-02  0.1084780E+00
         21   -1    0    0  501  502  0.00000000000E+00  0.00000000000E+00  0.43310935266E+03  0.43310935266E+03  0.00000000000E+00 0.  1.
         21   -1    0    0  502  503 -0.00000000000E+00 -0.00000000000E+00 -0.21213865710E+03  0.21213865710E+03  0.00000000000E+00 0. -1.
          6    1    1    2  501    0  0.46893245918E+02 -0.24171741033E+03  0.71757411783E+02  0.30936129221E+03  0.17300000000E+03 0. -1.
         -6    1    1    2    0  503 -0.46893245918E+02  0.24171741033E+03  0.14921328378E+03  0.33588671755E+03  0.17300000000E+03 0.  1.
<mgrwt>
<rscale>  2 0.30092405E+03</rscale>
<asrwt>0</asrwt>
<pdfrwt beam="1">  1       21 0.66632208E-01 0.30092405E+03</pdfrwt>
<pdfrwt beam="2">  1       21 0.32636717E-01 0.30092405E+03</pdfrwt>
<totfact> 0.17660089E+04</totfact>
</mgrwt>
</event>
<event>
 4    1  0.4332500E+000  0.2462800E+03  0.7546771E-02  0.1115679E+00
         21   -1    0    0  503  502  0.00000000000E+00  0.00000000000E+00  0.54098688067E+03  0.54098688067E+03  0.00000000000E+00 0. -1.
         21   -1    0    0  501  503 -0.00000000000E+00 -0.00000000000E+00 -0.41088137917E+03  0.41088137917E+03  0.00000000000E+00 0. -1.
          6    1    1    2  501    0  0.17054153665E+03  0.40502367775E+02 -0.34078550797E+03  0.42046238828E+03  0.17300000000E+03 0. -1.
         -6    1    1    2    0  502 -0.17054153665E+03 -0.40502367775E+02  0.47089100948E+03  0.53140587156E+03  0.17300000000E+03 0. -1.
<mgrwt>
<rscale>  2 0.24628004E+03</rscale>
<asrwt>0</asrwt>
<pdfrwt beam="1">  1       21 0.83228751E-01 0.24628004E+03</pdfrwt>
<pdfrwt beam="2">  1       21 0.63212520E-01 0.24628004E+03</pdfrwt>
<totfact> 0.27922328E+03</totfact>
</mgrwt>
</event>
<event>
 4    1  0.4332500E+000  0.1918786E+03  0.7546771E-02  0.1156778E+00
         21   -1    0    0  501  502  0.00000000000E+00  0.00000000000E+00  0.10727213543E+04  0.10727213543E+04  0.00000000000E+00 0. -1.
         21   -1    0    0  502  503 -0.00000000000E+00 -0.00000000000E+00 -0.58561861715E+02  0.58561861715E+02  0.00000000000E+00 0. -1.
          6    1    1    2  501    0  0.63135124405E+02  0.53873604860E+02  0.87099765794E+03  0.89188246388E+03  0.17300000000E+03 0. -1.
         -6    1    1    2    0  503 -0.63135124405E+02 -0.53873604860E+02  0.14316183469E+03  0.23940075219E+03  0.17300000000E+03 0. -1.
<mgrwt>
<rscale>  2 0.19187863E+03</rscale>
<asrwt>0</asrwt>
<pdfrwt beam="1">  1       21 0.16503404E+00 0.19187863E+03</pdfrwt>
<pdfrwt beam="2">  1       21 0.90095180E-02 0.19187863E+03</pdfrwt>
<totfact> 0.22576564E+04</totfact>
</mgrwt>
</event>
<event>
 4    1  0.4332500E+000  0.1940040E+03  0.7546771E-02  0.1154899E+00
         21   -1    0    0  503  502  0.00000000000E+00  0.00000000000E+00  0.65826443708E+03  0.65826443708E+03  0.00000000000E+00 0. -1.
         21   -1    0    0  501  503 -0.00000000000E+00 -0.00000000000E+00 -0.10784770510E+03  0.10784770510E+03  0.00000000000E+00 0. -1.
          6    1    1    2  501    0  0.36941857831E+02  0.79648415671E+02  0.12644193284E+02  0.19441565421E+03  0.17300000000E+03 0. -1.
         -6    1    1    2    0  502 -0.36941857831E+02 -0.79648415671E+02  0.53777253869E+03  0.57169648797E+03  0.17300000000E+03 0. -1.
<mgrwt>
<rscale>  2 0.19400405E+03</rscale>
<asrwt>0</asrwt>
<pdfrwt beam="1">  1       21 0.10127145E+00 0.19400405E+03</pdfrwt>
<pdfrwt beam="2">  1       21 0.16591955E-01 0.19400405E+03</pdfrwt>
<totfact> 0.25968211E+04</totfact>
</mgrwt>
</event>
<event>
 4    1  0.4332500E+000  0.2768387E+03  0.7546771E-02  0.1097428E+00
         21   -1    0    0  503  502  0.00000000000E+00  0.00000000000E+00  0.13469013497E+03  0.13469013497E+03  0.00000000000E+00 0. -1.
         21   -1    0    0  501  503 -0.00000000000E+00 -0.00000000000E+00 -0.76602653272E+03  0.76602653272E+03  0.00000000000E+00 0.  1.
          6    1    1    2  501    0  0.17537926817E+03  0.12630427316E+03 -0.54406536702E+03  0.61044801639E+03  0.17300000000E+03 0.  1.
         -6    1    1    2    0  502 -0.17537926817E+03 -0.12630427316E+03 -0.87271030737E+02  0.29026865130E+03  0.17300000000E+03 0. -1.
<mgrwt>
<rscale>  2 0.27683868E+03</rscale>
<asrwt>0</asrwt>
<pdfrwt beam="1">  1       21 0.20721559E-01 0.27683868E+03</pdfrwt>
<pdfrwt beam="2">  1       21 0.11785024E+00 0.27683868E+03</pdfrwt>
<totfact> 0.11338622E+04</totfact>
</mgrwt>
</event>
<event>
 4    1  0.4332500E+000  0.1907317E+03  0.7546771E-02  0.1157803E+00
         21   -1    0    0  503  502  0.00000000000E+00  0.00000000000E+00  0.19218474208E+04  0.19218474208E+04  0.00000000000E+00 0.  1.
         21   -1    0    0  501  503 -0.00000000000E+00 -0.00000000000E+00 -0.21096520451E+02  0.21096520451E+02  0.00000000000E+00 0. -1.
          6    1    1    2  501    0  0.60699436330E+02  0.52584635286E+02  0.12617698947E+04  0.12761041621E+04  0.17300000000E+03 0.  1.
         -6    1    1    2    0  502 -0.60699436330E+02 -0.52584635286E+02  0.63898100569E+03  0.66683977917E+03  0.17300000000E+03 0. -1.
<mgrwt>
<rscale>  2 0.19073166E+03</rscale>
<asrwt>0</asrwt>
<pdfrwt beam="1">  1       21 0.29566869E+00 0.19073166E+03</pdfrwt>
<pdfrwt beam="2">  1       21 0.32456201E-02 0.19073166E+03</pdfrwt>
<totfact> 0.20114902E+04</totfact>
</mgrwt>
</event>
<event>
 4    1  0.4332500E+000  0.3099960E+03  0.7546771E-02  0.1080348E+00
         21   -1    0    0  501  502  0.00000000000E+00  0.00000000000E+00  0.30182481179E+03  0.30182481179E+03  0.00000000000E+00 0. -1.
         21   -1    0    0  502  503 -0.00000000000E+00 -0.00000000000E+00 -0.31840700425E+03  0.31840700425E+03  0.00000000000E+00 0.  1.
          6    1    1    2  501    0  0.25027771565E+03  0.59410553781E+02 -0.10655260721E+02  0.31017911508E+03  0.17300000000E+03 0.  1.
         -6    1    1    2    0  503 -0.25027771565E+03 -0.59410553781E+02 -0.59269317321E+01  0.31005270096E+03  0.17300000000E+03 0. -1.
<mgrwt>
<rscale>  2 0.30999605E+03</rscale>
<asrwt>0</asrwt>
<pdfrwt beam="1">  1       21 0.46434586E-01 0.30999605E+03</pdfrwt>
<pdfrwt beam="2">  1       21 0.48985693E-01 0.30999605E+03</pdfrwt>
<totfact> 0.16655742E+04</totfact>
</mgrwt>
</event>
<event>
 4    1  0.4332500E+000  0.1880967E+03  0.7546771E-02  0.1160189E+00
         21   -1    0    0  503  502  0.00000000000E+00  0.00000000000E+00  0.67824318063E+03  0.67824318063E+03  0.00000000000E+00 0.  1.
         21   -1    0    0  501  503 -0.00000000000E+00 -0.00000000000E+00 -0.52771895194E+02  0.52771895194E+02  0.00000000000E+00 0. -1.
          6    1    1    2  501    0 -0.53453980731E+02 -0.50931889501E+02  0.35194065134E+03  0.39905213631E+03  0.17300000000E+03 0. -1.
         -6    1    1    2    0  502  0.53453980731E+02  0.50931889501E+02  0.27353063409E+03  0.33196293951E+03  0.17300000000E+03 0. -1.
<mgrwt>
<rscale>  2 0.18809674E+03</rscale>
<asrwt>0</asrwt>
<pdfrwt beam="1">  1       21 0.10434510E+00 0.18809674E+03</pdfrwt>
<pdfrwt beam="2">  1       21 0.81187536E-02 0.18809674E+03</pdfrwt>
<totfact> 0.86917598E+04</totfact>
</mgrwt>
</event>
<event>
 4    1  0.4332500E+000  0.2026359E+03  0.7546771E-02  0.1147534E+00
         21   -1    0    0  501  502  0.00000000000E+00  0.00000000000E+00  0.61126374440E+03  0.61126374440E+03  0.00000000000E+00 0.  1.
         21   -1    0    0  502  503 -0.00000000000E+00 -0.00000000000E+00 -0.10145100880E+03  0.10145100880E+03  0.00000000000E+00 0. -1.
          6    1    1    2  501    0  0.49432654820E+02 -0.93213263128E+02  0.46204267911E+03  0.50452426811E+03  0.17300000000E+03 0.  1.
         -6    1    1    2    0  503 -0.49432654820E+02  0.93213263128E+02  0.47770056481E+02  0.20819048509E+03  0.17300000000E+03 0. -1.
<mgrwt>
<rscale>  2 0.20263588E+03</rscale>
<asrwt>0</asrwt>
<pdfrwt beam="1">  1       21 0.94040575E-01 0.20263588E+03</pdfrwt>
<pdfrwt beam="2">  1       21 0.15607848E-01 0.20263588E+03</pdfrwt>
<totfact> 0.34420804E+04</totfact>
</mgrwt>
</event>
<event>
 4    1  0.4332500E+000  0.1970759E+03  0.7546771E-02  0.1152230E+00
         21   -1    0    0  501  502  0.00000000000E+00  0.00000000000E+00  0.10966800508E+04  0.10966800508E+04  0.00000000000E+00 0.  1.
         21   -1    0    0  502  503 -0.00000000000E+00 -0.00000000000E+00 -0.37847730198E+02  0.37847730198E+02  0.00000000000E+00 0.  1.
          6    1    1    2  501    0  0.23416574217E+02  0.91441648967E+02  0.67323415914E+03  0.70148638201E+03  0.17300000000E+03 0.  1.
         -6    1    1    2    0  503 -0.23416574217E+02 -0.91441648967E+02  0.38559816146E+03  0.43304139899E+03  0.17300000000E+03 0.  1.
<mgrwt>
<rscale>  2 0.19707590E+03</rscale>
<asrwt>0</asrwt>
<pdfrwt beam="1">  1       21 0.16871998E+00 0.19707590E+03</pdfrwt>
<pdfrwt beam="2">  1       21 0.58227286E-02 0.19707590E+03</pdfrwt>
<totfact> 0.45095955E+04</totfact>
</mgrwt>
</event>
<event>
 4    1  0.4332500E+000  0.2059994E+03  0.7546771E-02  0.1144774E+00
         21   -1    0    0  501  502  0.00000000000E+00  0.00000000000E+00  0.20362254381E+03  0.20362254381E+03  0.00000000000E+00 0. -1.
         21   -1    0    0  502  503 -0.00000000000E+00 -0.00000000000E+00 -0.23923570887E+03  0.23923570887E+03  0.00000000000E+00 0. -1.
          6    1    1    2  501    0 -0.18530891551E+02 -0.11028761423E+03  0.61684895340E+02  0.21503669014E+03  0.17300000000E+03 0. -1.
         -6    1    1    2    0  503  0.18530891551E+02  0.11028761423E+03 -0.97298060399E+02  0.22782156253E+03  0.17300000000E+03 0. -1.
<mgrwt>
<rscale>  2 0.20599940E+03</rscale>
<asrwt>0</asrwt>
<pdfrwt beam="1">  1       21 0.31326545E-01 0.20599940E+03</pdfrwt>
<pdfrwt beam="2">  1       21 0.36805494E-01 0.20599940E+03</pdfrwt>
<totfact> 0.69302507E+04</totfact>
</mgrwt>
</event>
<event>
 4    1  0.4332500E+000  0.2191281E+03  0.7546771E-02  0.1134535E+00
         21   -1    0    0  503  502  0.00000000000E+00  0.00000000000E+00  0.28840878890E+03  0.28840878890E+03  0.00000000000E+00 0.  1.
         21   -1    0    0  501  503 -0.00000000000E+00 -0.00000000000E+00 -0.23017518899E+03  0.23017518899E+03  0.00000000000E+00 0.  1.
          6    1    1    2  501    0  0.92871901960E+02 -0.97277526839E+02 -0.10727237914E+03  0.24397637330E+03  0.17300000000E+03 0.  1.
         -6    1    1    2    0  502 -0.92871901960E+02  0.97277526839E+02  0.16550597904E+03  0.27460760459E+03  0.17300000000E+03 0.  1.
<mgrwt>
<rscale>  2 0.21912806E+03</rscale>
<asrwt>0</asrwt>
<pdfrwt beam="1">  1       21 0.44370583E-01 0.21912806E+03</pdfrwt>
<pdfrwt beam="2">  1       21 0.35411568E-01 0.21912806E+03</pdfrwt>
<totfact> 0.36999803E+04</totfact>
</mgrwt>
</event>
<event>
 4    1  0.4332500E+000  0.2897400E+03  0.7546771E-02  0.1090485E+00
         21   -1    0    0  501  502  0.00000000000E+00  0.00000000000E+00  0.75955997617E+02  0.75955997617E+02  0.00000000000E+00 0. -1.
         21   -1    0    0  502  503 -0.00000000000E+00 -0.00000000000E+00 -0.11144602018E+04  0.11144602018E+04  0.00000000000E+00 0.  1.
          6    1    1    2  501    0 -0.96111990067E+01 -0.23222383374E+03 -0.46510106224E+03  0.54796740980E+03  0.17300000000E+03 0. -1.
         -6    1    1    2    0  503  0.96111990067E+01  0.23222383374E+03 -0.57340314197E+03  0.64244878965E+03  0.17300000000E+03 0.  1.
<mgrwt>
<rscale>  2 0.28974003E+03</rscale>
<asrwt>0</asrwt>
<pdfrwt beam="1">  1       21 0.11685539E-01 0.28974003E+03</pdfrwt>
<pdfrwt beam="2">  1       21 0.17145540E+00 0.28974003E+03</pdfrwt>
<totfact> 0.12054543E+04</totfact>
</mgrwt>
</event>
<event>
 4    1  0.4332500E+000  0.2292162E+03  0.7546771E-02  0.1127193E+00
         21   -1    0    0  501  502  0.00000000000E+00  0.00000000000E+00  0.50877991577E+03  0.50877991577E+03  0.00000000000E+00 0.  1.
         21   -1    0    0  502  503 -0.00000000000E+00 -0.00000000000E+00 -0.75503746971E+03  0.75503746971E+03  0.00000000000E+00 0. -1.
          6    1    1    2  501    0  0.58115930558E+00  0.15036861063E+03  0.46397854281E+03  0.51750956030E+03  0.17300000000E+03 0.  1.
         -6    1    1    2    0  503 -0.58115930558E+00 -0.15036861063E+03 -0.71023609675E+03  0.74630782519E+03  0.17300000000E+03 0. -1.
<mgrwt>
<rscale>  2 0.22921618E+03</rscale>
<asrwt>0</asrwt>
<pdfrwt beam="1">  1       21 0.78273834E-01 0.22921618E+03</pdfrwt>
<pdfrwt beam="2">  1       21 0.11615961E+00 0.22921618E+03</pdfrwt>
<totfact> 0.79737801E+02</totfact>
</mgrwt>
</event>
<event>
 4    1  0.4332500E+000  0.1854483E+03  0.7546771E-02  0.1162632E+00
         21   -1    0    0  503  502  0.00000000000E+00  0.00000000000E+00  0.74146146337E+03  0.74146146337E+03  0.00000000000E+00 0.  1.
         21   -1    0    0  501  503 -0.00000000000E+00 -0.00000000000E+00 -0.76504429074E+02  0.76504429074E+02  0.00000000000E+00 0.  1.
          6    1    1    2  501    0 -0.37898726124E+02 -0.55006965364E+02  0.75852351735E+02  0.20036132098E+03  0.17300000000E+03 0.  1.
         -6    1    1    2    0  502  0.37898726124E+02  0.55006965364E+02  0.58910468256E+03  0.61760457147E+03  0.17300000000E+03 0.  1.
<mgrwt>
<rscale>  2 0.18544832E+03</rscale>
<asrwt>0</asrwt>
<pdfrwt beam="1">  1       21 0.11407099E+00 0.18544832E+03</pdfrwt>
<pdfrwt beam="2">  1       21 0.11769913E-01 0.18544832E+03</pdfrwt>
<totfact> 0.36469494E+04</totfact>
</mgrwt>
</event>
<event>
 4    1  0.4332500E+000  0.1925305E+03  0.7546771E-02  0.1156199E+00
         21   -1    0    0  501  502  0.00000000000E+00  0.00000000000E+00  0.58451387582E+03  0.58451387582E+03  0.00000000000E+00 0.  1.
         21   -1    0    0  502  503 -0.00000000000E+00 -0.00000000000E+00 -0.23395003662E+03  0.23395003662E+03  0.00000000000E+00 0.  1.
          6    1    1    2  501    0  0.13391137521E+02  0.83424709078E+02  0.52467354186E+03  0.55888310958E+03  0.17300000000E+03 0.  1.
         -6    1    1    2    0  503 -0.13391137521E+02 -0.83424709078E+02 -0.17410970266E+03  0.25958080285E+03  0.17300000000E+03 0.  1.
<mgrwt>
<rscale>  2 0.19253053E+03</rscale>
<asrwt>0</asrwt>
<pdfrwt beam="1">  1       21 0.89925211E-01 0.19253053E+03</pdfrwt>
<pdfrwt beam="2">  1       21 0.35992314E-01 0.19253053E+03</pdfrwt>
<totfact> 0.78366571E+03</totfact>
</mgrwt>
</event>
<event>
 4    1  0.4332500E+000  0.2099083E+03  0.7546771E-02  0.1141639E+00
         21   -1    0    0  503  502  0.00000000000E+00  0.00000000000E+00  0.14494937596E+03  0.14494937596E+03  0.00000000000E+00 0. -1.
         21   -1    0    0  501  503 -0.00000000000E+00 -0.00000000000E+00 -0.44927715789E+03  0.44927715789E+03  0.00000000000E+00 0.  1.
          6    1    1    2  501    0  0.92102806988E+02  0.75163687678E+02 -0.32112841971E+03  0.38364693267E+03  0.17300000000E+03 0.  1.
         -6    1    1    2    0  502 -0.92102806988E+02 -0.75163687678E+02  0.16800637783E+02  0.21057960117E+03  0.17300000000E+03 0. -1.
<mgrwt>
<rscale>  2 0.20990833E+03</rscale>
<asrwt>0</asrwt>
<pdfrwt beam="1">  1       21 0.22299904E-01 0.20990833E+03</pdfrwt>
<pdfrwt beam="2">  1       21 0.69119563E-01 0.20990833E+03</pdfrwt>
<totfact> 0.35524268E+04</totfact>
</mgrwt>
</event>
<event>
 4    1  0.4332500E+000  0.1966066E+03  0.7546771E-02  0.1152634E+00
         21   -1    0    0  501  502  0.00000000000E+00  0.00000000000E+00  0.35483324269E+03  0.35483324269E+03  0.00000000000E+00 0.  1.
         21   -1    0    0  502  503 -0.00000000000E+00 -0.00000000000E+00 -0.23379263611E+03  0.23379263611E+03  0.00000000000E+00 0.  1.
          6    1    1    2  501    0  0.90648851960E+02  0.22537755681E+02  0.27560004632E+03  0.33854032304E+03  0.17300000000E+03 0.  1.
         -6    1    1    2    0  503 -0.90648851960E+02 -0.22537755681E+02 -0.15455943974E+03  0.25008555577E+03  0.17300000000E+03 0.  1.
<mgrwt>
<rscale>  2 0.19660662E+03</rscale>
<asrwt>0</asrwt>
<pdfrwt beam="1">  1       21 0.54589730E-01 0.19660662E+03</pdfrwt>
<pdfrwt beam="2">  1       21 0.35968098E-01 0.19660662E+03</pdfrwt>
<totfact> 0.23567130E+04</totfact>
</mgrwt>
</event>
<event>
 4    1  0.4332500E+000  0.2339567E+03  0.7546771E-02  0.1123885E+00
         21   -1    0    0  501  502  0.00000000000E+00  0.00000000000E+00  0.11110380542E+04  0.11110380542E+04  0.00000000000E+00 0.  1.
         21   -1    0    0  502  503 -0.00000000000E+00 -0.00000000000E+00 -0.55116660398E+02  0.55116660398E+02  0.00000000000E+00 0.  1.
          6    1    1    2  501    0 -0.52615869422E+02  0.14845307773E+03  0.71794120572E+03  0.75509954369E+03  0.17300000000E+03 0.  1.
         -6    1    1    2    0  503  0.52615869422E+02 -0.14845307773E+03  0.33798018810E+03  0.41105517093E+03  0.17300000000E+03 0.  1.
<mgrwt>
<rscale>  2 0.23395672E+03</rscale>
<asrwt>0</asrwt>
<pdfrwt beam="1">  1       21 0.17092892E+00 0.23395672E+03</pdfrwt>
<pdfrwt beam="2">  1       21 0.84794870E-02 0.23395672E+03</pdfrwt>
<totfact> 0.22182674E+04</totfact>
</mgrwt>
</event>
<event>
 4    1  0.4332500E+000  0.1777807E+03  0.7546771E-02  0.1169968E+00
         21   -1    0    0  501  502  0.00000000000E+00  0.00000000000E+00  0.62969704978E+03  0.62969704978E+03  0.00000000000E+00 0. -1.
         21   -1    0    0  502  503 -0.00000000000E+00 -0.00000000000E+00 -0.50442316971E+02  0.50442316971E+02  0.00000000000E+00 0. -1.
          6    1    1    2  501    0  0.31136201636E+02 -0.26599020638E+02  0.26568776517E+03  0.31968102777E+03  0.17300000000E+03 0. -1.
         -6    1    1    2    0  503 -0.31136201636E+02  0.26599020638E+02  0.31356696764E+03  0.36045833898E+03  0.17300000000E+03 0. -1.
<mgrwt>
<rscale>  2 0.17778068E+03</rscale>
<asrwt>0</asrwt>
<pdfrwt beam="1">  1       21 0.96876464E-01 0.17778068E+03</pdfrwt>
<pdfrwt beam="2">  1       21 0.77603569E-02 0.17778068E+03</pdfrwt>
<totfact> 0.11260441E+05</totfact>
</mgrwt>
</event>
<event>
 4    1  0.4332500E+000  0.2580635E+03  0.7546771E-02  0.1108312E+00
         21   -1    0    0  501  502  0.00000000000E+00  0.00000000000E+00  0.48519221636E+03  0.48519221636E+03  0.00000000000E+00 0. -1.
         21   -1    0    0  502  503 -0.00000000000E+00 -0.00000000000E+00 -0.15632754906E+03  0.15632754906E+03  0.00000000000E+00 0.  1.
          6    1    1    2  501    0  0.57466481313E+02 -0.18266185851E+03  0.52404247369E+02  0.26333050748E+03  0.17300000000E+03 0. -1.
         -6    1    1    2    0  503 -0.57466481313E+02  0.18266185851E+03  0.27646041993E+03  0.37818925793E+03  0.17300000000E+03 0. -1.
<mgrwt>
<rscale>  2 0.25806346E+03</rscale>
<asrwt>0</asrwt>
<pdfrwt beam="1">  1       21 0.74644956E-01 0.25806346E+03</pdfrwt>
<pdfrwt beam="2">  1       21 0.24050392E-01 0.25806346E+03</pdfrwt>
<totfact> 0.25332350E+04</totfact>
</mgrwt>
</event>
<event>
 4    1  0.4332500E+000  0.2081636E+03  0.7546771E-02  0.1143028E+00
         21   -1    0    0  503  502  0.00000000000E+00  0.00000000000E+00  0.75808587212E+02  0.75808587212E+02  0.00000000000E+00 0. -1.
         21   -1    0    0  501  503 -0.00000000000E+00 -0.00000000000E+00 -0.73152991403E+03  0.73152991403E+03  0.00000000000E+00 0.  1.
          6    1    1    2  501    0  0.10614368977E+03 -0.46223599890E+02 -0.13911543265E+03  0.25037014132E+03  0.17300000000E+03 0. -1.
         -6    1    1    2    0  502 -0.10614368977E+03  0.46223599890E+02 -0.51660589417E+03  0.55696835992E+03  0.17300000000E+03 0.  1.
<mgrwt>
<rscale>  2 0.20816365E+03</rscale>
<asrwt>0</asrwt>
<pdfrwt beam="1">  1       21 0.11662860E-01 0.20816365E+03</pdfrwt>
<pdfrwt beam="2">  1       21 0.11254306E+00 0.20816365E+03</pdfrwt>
<totfact> 0.37828309E+04</totfact>
</mgrwt>
</event>
<event>
 4    1  0.4332500E+000  0.1767105E+03  0.7546771E-02  0.1171025E+00
         21   -1    0    0  501  502  0.00000000000E+00  0.00000000000E+00  0.27461574904E+03  0.27461574904E+03  0.00000000000E+00 0. -1.
         21   -1    0    0  502  503 -0.00000000000E+00 -0.00000000000E+00 -0.11407260484E+03  0.11407260484E+03  0.00000000000E+00 0. -1.
          6    1    1    2  501    0  0.35425431061E+02  0.65295109772E+01  0.91226585143E+02  0.19886901598E+03  0.17300000000E+03 0. -1.
         -6    1    1    2    0  503 -0.35425431061E+02 -0.65295109772E+01  0.69316559057E+02  0.18981933790E+03  0.17300000000E+03 0. -1.
<mgrwt>
<rscale>  2 0.17671049E+03</rscale>
<asrwt>0</asrwt>
<pdfrwt beam="1">  1       21 0.42248577E-01 0.17671049E+03</pdfrwt>
<pdfrwt beam="2">  1       21 0.17549632E-01 0.17671049E+03</pdfrwt>
<totfact> 0.15941322E+05</totfact>
</mgrwt>
</event>
<event>
 4    1  0.4332500E+000  0.1734324E+03  0.7546771E-02  0.1174315E+00
         21   -1    0    0  501  502  0.00000000000E+00  0.00000000000E+00  0.57080256299E+03  0.57080256299E+03  0.00000000000E+00 0.  1.
         21   -1    0    0  502  503 -0.00000000000E+00 -0.00000000000E+00 -0.70764871387E+02  0.70764871387E+02  0.00000000000E+00 0.  1.
          6    1    1    2  501    0 -0.31835457391E+01 -0.11817344359E+02  0.41211538885E+03  0.44712177124E+03  0.17300000000E+03 0.  1.
         -6    1    1    2    0  503  0.31835457391E+01  0.11817344359E+02  0.87922302755E+02  0.19444566314E+03  0.17300000000E+03 0.  1.
<mgrwt>
<rscale>  2 0.17343236E+03</rscale>
<asrwt>0</asrwt>
<pdfrwt beam="1">  1       21 0.87815776E-01 0.17343236E+03</pdfrwt>
<pdfrwt beam="2">  1       21 0.10886904E-01 0.17343236E+03</pdfrwt>
<totfact> 0.78269725E+04</totfact>
</mgrwt>
</event>
<event>
 4    1  0.4332500E+000  0.2179750E+03  0.7546771E-02  0.1135402E+00
         21   -1    0    0  503  502  0.00000000000E+00  0.00000000000E+00  0.97907436956E+03  0.97907436956E+03  0.00000000000E+00 0. -1.
         21   -1    0    0  501  503 -0.00000000000E+00 -0.00000000000E+00 -0.84509064888E+02  0.84509064888E+02  0.00000000000E+00 0. -1.
          6    1    1    2  501    0 -0.13121685596E+03  0.19137399518E+02  0.10028755609E+03  0.23993894485E+03  0.17300000000E+03 0. -1.
         -6    1    1    2    0  502  0.13121685596E+03 -0.19137399518E+02  0.79427774859E+03  0.82364448960E+03  0.17300000000E+03 0. -1.
<mgrwt>
<rscale>  2 0.21797501E+03</rscale>
<asrwt>0</asrwt>
<pdfrwt beam="1">  1       21 0.15062682E+00 0.21797501E+03</pdfrwt>
<pdfrwt beam="2">  1       21 0.13001395E-01 0.21797501E+03</pdfrwt>
<totfact> 0.14764165E+04</totfact>
</mgrwt>
</event>
<event>
 4    1  0.4332500E+000  0.3384459E+03  0.7546771E-02  0.1067460E+00
         21   -1    0    0  501  502  0.00000000000E+00  0.00000000000E+00  0.19510393434E+04  0.19510393434E+04  0.00000000000E+00 0.  1.
         21   -1    0    0  502  503 -0.00000000000E+00 -0.00000000000E+00 -0.76839822276E+02  0.76839822276E+02  0.00000000000E+00 0. -1.
          6    1    1    2  501    0 -0.99700759478E+02  0.27326977294E+03  0.14296098370E+04  0.14691255550E+04  0.17300000000E+03 0.  1.
         -6    1    1    2    0  503  0.99700759478E+02 -0.27326977294E+03  0.44458968415E+03  0.55875361072E+03  0.17300000000E+03 0. -1.
<mgrwt>
<rscale>  2 0.33844587E+03</rscale>
<asrwt>0</asrwt>
<pdfrwt beam="1">  1       21 0.30015986E+00 0.33844587E+03</pdfrwt>
<pdfrwt beam="2">  1       21 0.11821513E-01 0.33844587E+03</pdfrwt>
<totfact> 0.17891185E+03</totfact>
</mgrwt>
</event>
<event>
 4    1  0.4332500E+000  0.2480720E+03  0.7546771E-02  0.1114529E+00
         21   -1    0    0  503  502  0.00000000000E+00  0.00000000000E+00  0.30901155645E+02  0.30901155645E+02  0.00000000000E+00 0.  1.
         21   -1    0    0  501  503 -0.00000000000E+00 -0.00000000000E+00 -0.20304811916E+04  0.20304811916E+04  0.00000000000E+00 0.  1.
          6    1    1    2  501    0  0.52049420792E+02  0.17000460709E+03 -0.11425959739E+04  0.11692156637E+04  0.17300000000E+03 0.  1.
         -6    1    1    2    0  502 -0.52049420792E+02 -0.17000460709E+03 -0.85698406212E+03  0.89216668362E+03  0.17300000000E+03 0.  1.
<mgrwt>
<rscale>  2 0.24807198E+03</rscale>
<asrwt>0</asrwt>
<pdfrwt beam="1">  1       21 0.47540232E-02 0.24807198E+03</pdfrwt>
<pdfrwt beam="2">  1       21 0.31238177E+00 0.24807198E+03</pdfrwt>
<totfact> 0.80264109E+03</totfact>
</mgrwt>
</event>
<event>
 4    1  0.4332500E+000  0.2730462E+03  0.7546771E-02  0.1099549E+00
         21   -1    0    0  503  502  0.00000000000E+00  0.00000000000E+00  0.76931839447E+02  0.76931839447E+02  0.00000000000E+00 0. -1.
         21   -1    0    0  501  503 -0.00000000000E+00 -0.00000000000E+00 -0.97977891999E+03  0.97977891999E+03  0.00000000000E+00 0. -1.
          6    1    1    2  501    0  0.38808932443E+02 -0.20765137768E+03 -0.50659775181E+03  0.57549588185E+03  0.17300000000E+03 0. -1.
         -6    1    1    2    0  502 -0.38808932443E+02  0.20765137768E+03 -0.39624932873E+03  0.48121487759E+03  0.17300000000E+03 0. -1.
<mgrwt>
<rscale>  2 0.27304620E+03</rscale>
<asrwt>0</asrwt>
<pdfrwt beam="1">  1       21 0.11835668E-01 0.27304620E+03</pdfrwt>
<pdfrwt beam="2">  1       21 0.15073521E+00 0.27304620E+03</pdfrwt>
<totfact> 0.16911691E+04</totfact>
</mgrwt>
</event>
<event>
 4    1  0.4332500E+000  0.2012884E+03  0.7546771E-02  0.1148657E+00
         21   -1    0    0  503  502  0.00000000000E+00  0.00000000000E+00  0.16561810202E+03  0.16561810202E+03  0.00000000000E+00 0. -1.
         21   -1    0    0  501  503 -0.00000000000E+00 -0.00000000000E+00 -0.30577548804E+03  0.30577548804E+03  0.00000000000E+00 0.  1.
          6    1    1    2  501    0  0.70587926201E+02 -0.74868958340E+02 -0.17546754280E+03  0.26703159892E+03  0.17300000000E+03 0.  1.
         -6    1    1    2    0  502 -0.70587926201E+02  0.74868958340E+02  0.35310156782E+02  0.20436199113E+03  0.17300000000E+03 0. -1.
<mgrwt>
<rscale>  2 0.20128839E+03</rscale>
<asrwt>0</asrwt>
<pdfrwt beam="1">  1       21 0.25479708E-01 0.20128839E+03</pdfrwt>
<pdfrwt beam="2">  1       21 0.47042382E-01 0.20128839E+03</pdfrwt>
<totfact> 0.62915825E+04</totfact>
</mgrwt>
</event>
<event>
 4    1  0.4332500E+000  0.1926457E+03  0.7546771E-02  0.1156096E+00
         21   -1    0    0  503  502  0.00000000000E+00  0.00000000000E+00  0.10990045171E+03  0.10990045171E+03  0.00000000000E+00 0. -1.
         21   -1    0    0  501  503 -0.00000000000E+00 -0.00000000000E+00 -0.45095255741E+03  0.45095255741E+03  0.00000000000E+00 0.  1.
          6    1    1    2  501    0 -0.43121499412E+01  0.84645069530E+02 -0.31106447978E+03  0.36588726818E+03  0.17300000000E+03 0.  1.
         -6    1    1    2    0  502  0.43121499412E+01 -0.84645069530E+02 -0.29987625920E+02  0.19496574094E+03  0.17300000000E+03 0. -1.
<mgrwt>
<rscale>  2 0.19264574E+03</rscale>
<asrwt>0</asrwt>
<pdfrwt beam="1">  1       21 0.16907762E-01 0.19264574E+03</pdfrwt>
<pdfrwt beam="2">  1       21 0.69377316E-01 0.19264574E+03</pdfrwt>
<totfact> 0.59551227E+04</totfact>
</mgrwt>
</event>
<event>
 4    1  0.4332500E+000  0.2224118E+03  0.7546771E-02  0.1132098E+00
         21   -1    0    0  503  502  0.00000000000E+00  0.00000000000E+00  0.24862443336E+03  0.24862443336E+03  0.00000000000E+00 0.  1.
         21   -1    0    0  501  503 -0.00000000000E+00 -0.00000000000E+00 -0.20661244162E+03  0.20661244162E+03  0.00000000000E+00 0.  1.
          6    1    1    2  501    0 -0.13690031640E+03 -0.28219245699E+02 -0.22791442932E+02  0.22357654691E+03  0.17300000000E+03 0.  1.
         -6    1    1    2    0  502  0.13690031640E+03  0.28219245699E+02  0.64803434679E+02  0.23166032807E+03  0.17300000000E+03 0.  1.
<mgrwt>
<rscale>  2 0.22241183E+03</rscale>
<asrwt>0</asrwt>
<pdfrwt beam="1">  1       21 0.38249913E-01 0.22241183E+03</pdfrwt>
<pdfrwt beam="2">  1       21 0.31786530E-01 0.22241183E+03</pdfrwt>
<totfact> 0.61900045E+04</totfact>
</mgrwt>
</event>
<event>
 4    1  0.4332500E+000  0.2148992E+03  0.7546771E-02  0.1137744E+00
         21   -1    0    0  501  502  0.00000000000E+00  0.00000000000E+00  0.47736759189E+02  0.47736759189E+02  0.00000000000E+00 0. -1.
         21   -1    0    0  502  503 -0.00000000000E+00 -0.00000000000E+00 -0.10438016377E+04  0.10438016377E+04  0.00000000000E+00 0. -1.
          6    1    1    2  501    0  0.12729826284E+03  0.69148840941E+01 -0.35039907174E+03  0.41104886914E+03  0.17300000000E+03 0.  1.
         -6    1    1    2    0  503 -0.12729826284E+03 -0.69148840941E+01 -0.64566580678E+03  0.68048952776E+03  0.17300000000E+03 0.  1.
<mgrwt>
<rscale>  2 0.21489919E+03</rscale>
<asrwt>0</asrwt>
<pdfrwt beam="1">  1       21 0.73441164E-02 0.21489919E+03</pdfrwt>
<pdfrwt beam="2">  1       21 0.16058488E+00 0.21489919E+03</pdfrwt>
<totfact> 0.34225880E+04</totfact>
</mgrwt>
</event>
<event>
 4    1  0.4332500E+000  0.1925509E+03  0.7546771E-02  0.1156180E+00
         21   -1    0    0  501  502  0.00000000000E+00  0.00000000000E+00  0.44982274329E+03  0.44982274329E+03  0.00000000000E+00 0. -1.
         21   -1    0    0  502  503 -0.00000000000E+00 -0.00000000000E+00 -0.82783419796E+02  0.82783419796E+02  0.00000000000E+00 0. -1.
          6    1    1    2  501    0  0.72838887887E+02  0.42911043977E+02  0.20108458606E+03  0.27840774421E+03  0.17300000000E+03 0. -1.
         -6    1    1    2    0  503 -0.72838887887E+02 -0.42911043977E+02  0.16595473743E+03  0.25419841888E+03  0.17300000000E+03 0. -1.
<mgrwt>
<rscale>  2 0.19255093E+03</rscale>
<asrwt>0</asrwt>
<pdfrwt beam="1">  1       21 0.69203497E-01 0.19255093E+03</pdfrwt>
<pdfrwt beam="2">  1       21 0.12735911E-01 0.19255093E+03</pdfrwt>
<totfact> 0.10023133E+05</totfact>
</mgrwt>
</event>
<event>
 4    1  0.4332500E+000  0.1951461E+03  0.7546771E-02  0.1153900E+00
         21   -1    0    0  503  502  0.00000000000E+00  0.00000000000E+00  0.22975812897E+03  0.22975812897E+03  0.00000000000E+00 0. -1.
         21   -1    0    0  501  503 -0.00000000000E+00 -0.00000000000E+00 -0.29878361993E+03  0.29878361993E+03  0.00000000000E+00 0. -1.
          6    1    1    2  501    0  0.71766234267E+01  0.90008220232E+02 -0.21085429064E+03  0.28730039247E+03  0.17300000000E+03 0. -1.
         -6    1    1    2    0  502 -0.71766234267E+01 -0.90008220232E+02  0.14182879968E+03  0.24124135643E+03  0.17300000000E+03 0. -1.
<mgrwt>
<rscale>  2 0.19514606E+03</rscale>
<asrwt>0</asrwt>
<pdfrwt beam="1">  1       21 0.35347404E-01 0.19514606E+03</pdfrwt>
<pdfrwt beam="2">  1       21 0.45966711E-01 0.19514606E+03</pdfrwt>
<totfact> 0.34956919E+04</totfact>
</mgrwt>
</event>
<event>
 4    1  0.4332500E+000  0.1751035E+03  0.7546771E-02  0.1172628E+00
         21   -1    0    0  503  502  0.00000000000E+00  0.00000000000E+00  0.64402407589E+03  0.64402407589E+03  0.00000000000E+00 0.  1.
         21   -1    0    0  501  503 -0.00000000000E+00 -0.00000000000E+00 -0.18164983021E+03  0.18164983021E+03  0.00000000000E+00 0.  1.
          6    1    1    2  501    0 -0.26017222624E+02 -0.74391578225E+01 -0.12344648091E+03  0.21424348436E+03  0.17300000000E+03 0.  1.
         -6    1    1    2    0  502  0.26017222624E+02  0.74391578225E+01  0.58582072658E+03  0.61143042174E+03  0.17300000000E+03 0.  1.
<mgrwt>
<rscale>  2 0.17510350E+03</rscale>
<asrwt>0</asrwt>
<pdfrwt beam="1">  1       21 0.99080626E-01 0.17510350E+03</pdfrwt>
<pdfrwt beam="2">  1       21 0.27946128E-01 0.17510350E+03</pdfrwt>
<totfact> 0.10390758E+04</totfact>
</mgrwt>
</event>
<event>
 4    1  0.4332500E+000  0.1790234E+03  0.7546771E-02  0.1168752E+00
         21   -1    0    0  501  502  0.00000000000E+00  0.00000000000E+00  0.14952085712E+03  0.14952085712E+03  0.00000000000E+00 0.  1.
         21   -1    0    0  502  503 -0.00000000000E+00 -0.00000000000E+00 -0.24986470139E+03  0.24986470139E+03  0.00000000000E+00 0. -1.
          6    1    1    2  501    0  0.18051351931E+02  0.42362060482E+02 -0.12546071918E+03  0.21860875447E+03  0.17300000000E+03 0. -1.
         -6    1    1    2    0  503 -0.18051351931E+02 -0.42362060482E+02  0.25116874900E+02  0.18077680404E+03  0.17300000000E+03 0.  1.
<mgrwt>
<rscale>  2 0.17902345E+03</rscale>
<asrwt>0</asrwt>
<pdfrwt beam="1">  1       21 0.23003209E-01 0.17902345E+03</pdfrwt>
<pdfrwt beam="2">  1       21 0.38440723E-01 0.17902345E+03</pdfrwt>
<totfact> 0.11635599E+05</totfact>
</mgrwt>
</event>
<event>
 4    1  0.4332500E+000  0.1839771E+03  0.7546771E-02  0.1164009E+00
         21   -1    0    0  503  502  0.00000000000E+00  0.00000000000E+00  0.20828671339E+03  0.20828671339E+03  0.00000000000E+00 0. -1.
         21   -1    0    0  501  503 -0.00000000000E+00 -0.00000000000E+00 -0.16855817094E+03  0.16855817094E+03  0.00000000000E+00 0.  1.
          6    1    1    2  501    0  0.61206797990E+02 -0.13126062087E+02 -0.15843330833E+02  0.18465799944E+03  0.17300000000E+03 0.  1.
         -6    1    1    2    0  502 -0.61206797990E+02  0.13126062087E+02  0.55571873282E+02  0.19218688490E+03  0.17300000000E+03 0. -1.
<mgrwt>
<rscale>  2 0.18397708E+03</rscale>
<asrwt>0</asrwt>
<pdfrwt beam="1">  1       21 0.32044110E-01 0.18397708E+03</pdfrwt>
<pdfrwt beam="2">  1       21 0.25932026E-01 0.18397708E+03</pdfrwt>
<totfact> 0.13267074E+05</totfact>
</mgrwt>
</event>
<event>
 4    1  0.4332500E+000  0.1933032E+03  0.7546771E-02  0.1155515E+00
         21   -1    0    0  503  502  0.00000000000E+00  0.00000000000E+00  0.30099538684E+03  0.30099538684E+03  0.00000000000E+00 0. -1.
         21   -1    0    0  501  503 -0.00000000000E+00 -0.00000000000E+00 -0.49305842266E+03  0.49305842266E+03  0.00000000000E+00 0. -1.
          6    1    1    2  501    0 -0.20378976067E+02  0.83796271929E+02 -0.43945883882E+03  0.48009393755E+03  0.17300000000E+03 0. -1.
         -6    1    1    2    0  502  0.20378976067E+02 -0.83796271929E+02  0.24739580300E+03  0.31395987195E+03  0.17300000000E+03 0. -1.
<mgrwt>
<rscale>  2 0.19330318E+03</rscale>
<asrwt>0</asrwt>
<pdfrwt beam="1">  1       21 0.46306982E-01 0.19330318E+03</pdfrwt>
<pdfrwt beam="2">  1       21 0.75855142E-01 0.19330318E+03</pdfrwt>
<totfact> 0.69224473E+03</totfact>
</mgrwt>
</event>
<event>
 4    1  0.4332500E+000  0.1956842E+03  0.7546771E-02  0.1153432E+00
         21   -1    0    0  503  502  0.00000000000E+00  0.00000000000E+00  0.59727886620E+03  0.59727886620E+03  0.00000000000E+00 0.  1.
         21   -1    0    0  501  503 -0.00000000000E+00 -0.00000000000E+00 -0.82083070405E+02  0.82083070405E+02  0.00000000000E+00 0.  1.
          6    1    1    2  501    0 -0.25231425429E+01 -0.91416382401E+02  0.41654035295E+03  0.46021537007E+03  0.17300000000E+03 0.  1.
         -6    1    1    2    0  502  0.25231425429E+01  0.91416382401E+02  0.98655442853E+02  0.21914656654E+03  0.17300000000E+03 0.  1.
<mgrwt>
<rscale>  2 0.19568424E+03</rscale>
<asrwt>0</asrwt>
<pdfrwt beam="1">  1       21 0.91889053E-01 0.19568424E+03</pdfrwt>
<pdfrwt beam="2">  1       21 0.12628165E-01 0.19568424E+03</pdfrwt>
<totfact> 0.53536406E+04</totfact>
</mgrwt>
</event>
<event>
 4    1  0.4332500E+000  0.1824490E+03  0.7546771E-02  0.1165454E+00
         21   -1    0    0  501  502  0.00000000000E+00  0.00000000000E+00  0.92010689136E+03  0.92010689136E+03  0.00000000000E+00 0. -1.
         21   -1    0    0  502  503 -0.00000000000E+00 -0.00000000000E+00 -0.39751220606E+02  0.39751220606E+02  0.00000000000E+00 0. -1.
          6    1    1    2  501    0 -0.55172571130E+01 -0.57690437113E+02  0.58406821372E+03  0.61190138498E+03  0.17300000000E+03 0. -1.
         -6    1    1    2    0  503  0.55172571130E+01  0.57690437113E+02  0.29628745703E+03  0.34795672699E+03  0.17300000000E+03 0. -1.
<mgrwt>
<rscale>  2 0.18244897E+03</rscale>
<asrwt>0</asrwt>
<pdfrwt beam="1">  1       21 0.14155489E+00 0.18244897E+03</pdfrwt>
<pdfrwt beam="2">  1       21 0.61155731E-02 0.18244897E+03</pdfrwt>
<totfact> 0.66710714E+04</totfact>
</mgrwt>
</event>
<event>
 4    1  0.4332500E+000  0.3048406E+03  0.7546771E-02  0.1082846E+00
         21   -1    0    0  503  502  0.00000000000E+00  0.00000000000E+00  0.71060357090E+02  0.71060357090E+02  0.00000000000E+00 0.  1.
         21   -1    0    0  501  503 -0.00000000000E+00 -0.00000000000E+00 -0.19746166379E+04  0.19746166379E+04  0.00000000000E+00 0.  1.
          6    1    1    2  501    0  0.22709864263E+03 -0.10688787484E+03 -0.15461954477E+04  0.15759594455E+04  0.17300000000E+03 0.  1.
         -6    1    1    2    0  502 -0.22709864263E+03  0.10688787484E+03 -0.35736083305E+03  0.46971754946E+03  0.17300000000E+03 0.  1.
<mgrwt>
<rscale>  2 0.30484063E+03</rscale>
<asrwt>0</asrwt>
<pdfrwt beam="1">  1       21 0.10932362E-01 0.30484063E+03</pdfrwt>
<pdfrwt beam="2">  1       21 0.30378719E+00 0.30484063E+03</pdfrwt>
<totfact> 0.20108882E+03</totfact>
</mgrwt>
</event>
<event>
 4    1  0.4332500E+000  0.1753472E+03  0.7546771E-02  0.1172384E+00
         21   -1    0    0  501  502  0.00000000000E+00  0.00000000000E+00  0.40875010256E+03  0.40875010256E+03  0.00000000000E+00 0.  1.
         21   -1    0    0  502  503 -0.00000000000E+00 -0.00000000000E+00 -0.82396174972E+02  0.82396174972E+02  0.00000000000E+00 0.  1.
          6    1    1    2  501    0 -0.28003780555E+02 -0.57818588567E+01  0.90710032600E+02  0.19742074772E+03  0.17300000000E+03 0.  1.
         -6    1    1    2    0  503  0.28003780555E+02  0.57818588567E+01  0.23564389499E+03  0.29372552981E+03  0.17300000000E+03 0.  1.
<mgrwt>
<rscale>  2 0.17534720E+03</rscale>
<asrwt>0</asrwt>
<pdfrwt beam="1">  1       21 0.62884630E-01 0.17534720E+03</pdfrwt>
<pdfrwt beam="2">  1       21 0.12676335E-01 0.17534720E+03</pdfrwt>
<totfact> 0.12532798E+05</totfact>
</mgrwt>
</event>
<event>
 4    1  0.4332500E+000  0.2927110E+03  0.7546771E-02  0.1088942E+00
         21   -1    0    0  503  502  0.00000000000E+00  0.00000000000E+00  0.13437568691E+04  0.13437568691E+04  0.00000000000E+00 0.  1.
         21   -1    0    0  501  503 -0.00000000000E+00 -0.00000000000E+00 -0.67011895056E+02  0.67011895056E+02  0.00000000000E+00 0. -1.
          6    1    1    2  501    0 -0.23566576234E+03 -0.14572252516E+02  0.48301561484E+03  0.56478649618E+03  0.17300000000E+03 0. -1.
         -6    1    1    2    0  502  0.23566576234E+03  0.14572252516E+02  0.79372935924E+03  0.84598226802E+03  0.17300000000E+03 0.  1.
<mgrwt>
<rscale>  2 0.29271095E+03</rscale>
<asrwt>0</asrwt>
<pdfrwt beam="1">  1       21 0.20673181E+00 0.29271095E+03</pdfrwt>
<pdfrwt beam="2">  1       21 0.10309523E-01 0.29271095E+03</pdfrwt>
<totfact> 0.87069236E+03</totfact>
</mgrwt>
</event>
<event>
 4    1  0.4332500E+000  0.1757406E+03  0.7546771E-02  0.1171990E+00
         21   -1    0    0  503  502  0.00000000000E+00  0.00000000000E+00  0.54463893341E+02  0.54463893341E+02  0.00000000000E+00 0. -1.
         21   -1    0    0  501  503 -0.00000000000E+00 -0.00000000000E+00 -0.65594056319E+03  0.65594056319E+03  0.00000000000E+00 0. -1.
          6    1    1    2  501    0 -0.29401973395E+02  0.95536117190E+01 -0.43148377511E+03  0.46590019931E+03  0.17300000000E+03 0. -1.
         -6    1    1    2    0  502  0.29401973395E+02 -0.95536117190E+01 -0.16999289474E+03  0.24450425722E+03  0.17300000000E+03 0. -1.
<mgrwt>
<rscale>  2 0.17574057E+03</rscale>
<asrwt>0</asrwt>
<pdfrwt beam="1">  1       21 0.83790608E-02 0.17574057E+03</pdfrwt>
<pdfrwt beam="2">  1       21 0.10091393E+00 0.17574057E+03</pdfrwt>
<totfact> 0.89581450E+04</totfact>
</mgrwt>
</event>
<event>
 4    1  0.4332500E+000  0.2160363E+03  0.7546771E-02  0.1136873E+00
         21   -1    0    0  503  502  0.00000000000E+00  0.00000000000E+00  0.18088330455E+03  0.18088330455E+03  0.00000000000E+00 0.  1.
         21   -1    0    0  501  503 -0.00000000000E+00 -0.00000000000E+00 -0.31455325705E+03  0.31455325705E+03  0.00000000000E+00 0. -1.
          6    1    1    2  501    0 -0.10254326796E+03  0.78914884448E+02 -0.17185191295E+03  0.27605209794E+03  0.17300000000E+03 0. -1.
         -6    1    1    2    0  502  0.10254326796E+03 -0.78914884448E+02  0.38181960457E+02  0.21938446366E+03  0.17300000000E+03 0.  1.
<mgrwt>
<rscale>  2 0.21603630E+03</rscale>
<asrwt>0</asrwt>
<pdfrwt beam="1">  1       21 0.27828201E-01 0.21603630E+03</pdfrwt>
<pdfrwt beam="2">  1       21 0.48392809E-01 0.21603630E+03</pdfrwt>
<totfact> 0.49724160E+04</totfact>
</mgrwt>
</event>
<event>
 4    1  0.4332500E+000  0.2021836E+03  0.7546771E-02  0.1147910E+00
         21   -1    0    0  501  502  0.00000000000E+00  0.00000000000E+00  0.66756147764E+03  0.66756147764E+03  0.00000000000E+00 0.  1.
         21   -1    0    0  502  503 -0.00000000000E+00 -0.00000000000E+00 -0.92302945547E+02  0.92302945547E+02  0.00000000000E+00 0.  1.
          6    1    1    2  501    0 -0.10120352942E+03  0.26590498949E+02  0.50805066046E+03  0.54680314793E+03  0.17300000000E+03 0.  1.
         -6    1    1    2    0  503  0.10120352942E+03 -0.26590498949E+02  0.67207871636E+02  0.21306127525E+03  0.17300000000E+03 0.  1.
<mgrwt>
<rscale>  2 0.20218360E+03</rscale>
<asrwt>0</asrwt>
<pdfrwt beam="1">  1       21 0.10270176E+00 0.20218360E+03</pdfrwt>
<pdfrwt beam="2">  1       21 0.14200454E-01 0.20218360E+03</pdfrwt>
<totfact> 0.33205108E+04</totfact>
</mgrwt>
</event>
<event>
 4    1  0.4332500E+000  0.1836421E+03  0.7546771E-02  0.1164324E+00
         21   -1    0    0  501  502  0.00000000000E+00  0.00000000000E+00  0.44684789283E+03  0.44684789283E+03  0.00000000000E+00 0.  1.
         21   -1    0    0  502  503 -0.00000000000E+00 -0.00000000000E+00 -0.21707313872E+03  0.21707313872E+03  0.00000000000E+00 0.  1.
          6    1    1    2  501    0 -0.61074657228E+02  0.80823894364E+01  0.38299982944E+03  0.42475087772E+03  0.17300000000E+03 0.  1.
         -6    1    1    2    0  503  0.61074657228E+02 -0.80823894364E+01 -0.15322507532E+03  0.23917015383E+03  0.17300000000E+03 0.  1.
<mgrwt>
<rscale>  2 0.18364215E+03</rscale>
<asrwt>0</asrwt>
<pdfrwt beam="1">  1       21 0.68745830E-01 0.18364215E+03</pdfrwt>
<pdfrwt beam="2">  1       21 0.33395868E-01 0.18364215E+03</pdfrwt>
<totfact> 0.16743086E+04</totfact>
</mgrwt>
</event>
<event>
 4    1  0.4332500E+000  0.1757017E+03  0.7546771E-02  0.1172029E+00
         21   -1    0    0  501  502  0.00000000000E+00  0.00000000000E+00  0.62622503872E+03  0.62622503872E+03  0.00000000000E+00 0. -1.
         21   -1    0    0  502  503 -0.00000000000E+00 -0.00000000000E+00 -0.49520006545E+02  0.49520006545E+02  0.00000000000E+00 0. -1.
          6    1    1    2  501    0  0.30529228060E+02 -0.31681929458E+01  0.31102165640E+03  0.35721917916E+03  0.17300000000E+03 0.  1.
         -6    1    1    2    0  503 -0.30529228060E+02  0.31681929458E+01  0.26568337577E+03  0.31852586610E+03  0.17300000000E+03 0.  1.
<mgrwt>
<rscale>  2 0.17570165E+03</rscale>
<asrwt>0</asrwt>
<pdfrwt beam="1">  1       21 0.96342308E-01 0.17570165E+03</pdfrwt>
<pdfrwt beam="2">  1       21 0.76184630E-02 0.17570165E+03</pdfrwt>
<totfact> 0.11787921E+05</totfact>
</mgrwt>
</event>
<event>
 4    1  0.4332500E+000  0.2060877E+03  0.7546771E-02  0.1144702E+00
         21   -1    0    0  503  502  0.00000000000E+00  0.00000000000E+00  0.13322725701E+03  0.13322725701E+03  0.00000000000E+00 0. -1.
         21   -1    0    0  501  503 -0.00000000000E+00 -0.00000000000E+00 -0.35862597108E+03  0.35862597108E+03  0.00000000000E+00 0. -1.
          6    1    1    2  501    0  0.10858973449E+03  0.27411809687E+02 -0.19465841862E+03  0.28348551583E+03  0.17300000000E+03 0. -1.
         -6    1    1    2    0  502 -0.10858973449E+03 -0.27411809687E+02 -0.30740295451E+02  0.20836771226E+03  0.17300000000E+03 0. -1.
<mgrwt>
<rscale>  2 0.20608769E+03</rscale>
<asrwt>0</asrwt>
<pdfrwt beam="1">  1       21 0.20496501E-01 0.20608769E+03</pdfrwt>
<pdfrwt beam="2">  1       21 0.55173226E-01 0.20608769E+03</pdfrwt>
<totfact> 0.67903618E+04</totfact>
</mgrwt>
</event>
<event>
 4    1  0.4332500E+000  0.1835800E+03  0.7546771E-02  0.1164383E+00
         21   -1    0    0  501  502  0.00000000000E+00  0.00000000000E+00  0.29153852831E+03  0.29153852831E+03  0.00000000000E+00 0. -1.
         21   -1    0    0  502  503 -0.00000000000E+00 -0.00000000000E+00 -0.19103574825E+03  0.19103574825E+03  0.00000000000E+00 0. -1.
          6    1    1    2  501    0  0.57948164558E+02  0.20362132304E+02  0.20187537178E+03  0.27286493351E+03  0.17300000000E+03 0. -1.
         -6    1    1    2    0  503 -0.57948164558E+02 -0.20362132304E+02 -0.10137259172E+03  0.20970934304E+03  0.17300000000E+03 0. -1.
<mgrwt>
<rscale>  2 0.18357997E+03</rscale>
<asrwt>0</asrwt>
<pdfrwt beam="1">  1       21 0.44852081E-01 0.18357997E+03</pdfrwt>
<pdfrwt beam="2">  1       21 0.29390115E-01 0.18357997E+03</pdfrwt>
<totfact> 0.53133526E+04</totfact>
</mgrwt>
</event>
<event>
 4    1  0.4332500E+000  0.5606889E+03  0.7546771E-02  0.9990497E-01
         21   -1    0    0  501  502  0.00000000000E+00  0.00000000000E+00  0.78230411266E+03  0.78230411266E+03  0.00000000000E+00 0. -1.
         21   -1    0    0  502  503 -0.00000000000E+00 -0.00000000000E+00 -0.12499001157E+04  0.12499001157E+04  0.00000000000E+00 0.  1.
          6    1    1    2  501    0  0.44800443589E+03 -0.28937012706E+03  0.60317111437E+03  0.82352136476E+03  0.17300000000E+03 0. -1.
         -6    1    1    2    0  503 -0.44800443589E+03  0.28937012706E+03 -0.10707671174E+04  0.12086828636E+04  0.17300000000E+03 0.  1.
<mgrwt>
<rscale>  2 0.56068890E+03</rscale>
<asrwt>0</asrwt>
<pdfrwt beam="1">  1       21 0.12035448E+00 0.56068890E+03</pdfrwt>
<pdfrwt beam="2">  1       21 0.19229232E+00 0.56068890E+03</pdfrwt>
<totfact> 0.58679349E+01</totfact>
</mgrwt>
</event>
<event>
 4    1  0.4332500E+000  0.1932086E+03  0.7546771E-02  0.1155599E+00
         21   -1    0    0  503  502  0.00000000000E+00  0.00000000000E+00  0.40676175235E+03  0.40676175235E+03  0.00000000000E+00 0.  1.
         21   -1    0    0  501  503 -0.00000000000E+00 -0.00000000000E+00 -0.16918187321E+03  0.16918187321E+03  0.00000000000E+00 0. -1.
          6    1    1    2  501    0  0.55693520883E+02  0.65565224653E+02 -0.76001413981E+02  0.20761931962E+03  0.17300000000E+03 0. -1.
         -6    1    1    2    0  502 -0.55693520883E+02 -0.65565224653E+02  0.31358129312E+03  0.36832430594E+03  0.17300000000E+03 0.  1.
<mgrwt>
<rscale>  2 0.19320861E+03</rscale>
<asrwt>0</asrwt>
<pdfrwt beam="1">  1       21 0.62578731E-01 0.19320861E+03</pdfrwt>
<pdfrwt beam="2">  1       21 0.26027981E-01 0.19320861E+03</pdfrwt>
<totfact> 0.33178923E+04</totfact>
</mgrwt>
</event>
<event>
 4    1  0.4332500E+000  0.2247438E+03  0.7546771E-02  0.1130395E+00
         21   -1    0    0  501  502  0.00000000000E+00  0.00000000000E+00  0.11662425179E+03  0.11662425179E+03  0.00000000000E+00 0.  1.
         21   -1    0    0  502  503 -0.00000000000E+00 -0.00000000000E+00 -0.59106875249E+03  0.59106875249E+03  0.00000000000E+00 0. -1.
          6    1    1    2  501    0 -0.10666472501E+03 -0.95934324727E+02 -0.54292677699E+02  0.23120867863E+03  0.17300000000E+03 0.  1.
         -6    1    1    2    0  503  0.10666472501E+03  0.95934324727E+02 -0.42015182300E+03  0.47648432565E+03  0.17300000000E+03 0. -1.
<mgrwt>
<rscale>  2 0.22474376E+03</rscale>
<asrwt>0</asrwt>
<pdfrwt beam="1">  1       21 0.17942193E-01 0.22474376E+03</pdfrwt>
<pdfrwt beam="2">  1       21 0.90933654E-01 0.22474376E+03</pdfrwt>
<totfact> 0.28463425E+04</totfact>
</mgrwt>
</event>
<event>
 4    1  0.4332500E+000  0.2676341E+03  0.7546771E-02  0.1102641E+00
         21   -1    0    0  503  502  0.00000000000E+00  0.00000000000E+00  0.26800663042E+03  0.26800663042E+03  0.00000000000E+00 0. -1.
         21   -1    0    0  501  503 -0.00000000000E+00 -0.00000000000E+00 -0.26813686321E+03  0.26813686321E+03  0.00000000000E+00 0.  1.
          6    1    1    2  501    0  0.19693374543E+03 -0.54000808594E+02 -0.15377522979E+02  0.26807546630E+03  0.17300000000E+03 0.  1.
         -6    1    1    2    0  502 -0.19693374543E+03  0.54000808594E+02  0.15247290196E+02  0.26806802733E+03  0.17300000000E+03 0.  1.
<mgrwt>
<rscale>  2 0.26763406E+03</rscale>
<asrwt>0</asrwt>
<pdfrwt beam="1">  1       21 0.41231789E-01 0.26763406E+03</pdfrwt>
<pdfrwt beam="2">  1       21 0.41251825E-01 0.26763406E+03</pdfrwt>
<totfact> 0.30927859E+04</totfact>
</mgrwt>
</event>
<event>
 4    1  0.4332500E+000  0.4505959E+03  0.7546771E-02  0.1027544E+00
         21   -1    0    0  503  502  0.00000000000E+00  0.00000000000E+00  0.60352752964E+03  0.60352752964E+03  0.00000000000E+00 0.  1.
         21   -1    0    0  501  503 -0.00000000000E+00 -0.00000000000E+00 -0.12128168900E+04  0.12128168900E+04  0.00000000000E+00 0. -1.
          6    1    1    2  501    0  0.31408051844E+03 -0.27287557498E+03 -0.10766527817E+04  0.11671408929E+04  0.17300000000E+03 0. -1.
         -6    1    1    2    0  502 -0.31408051844E+03  0.27287557498E+03  0.46736342137E+03  0.64920352673E+03  0.17300000000E+03 0.  1.
<mgrwt>
<rscale>  2 0.45059588E+03</rscale>
<asrwt>0</asrwt>
<pdfrwt beam="1">  1       21 0.92850391E-01 0.45059588E+03</pdfrwt>
<pdfrwt beam="2">  1       21 0.18658721E+00 0.45059588E+03</pdfrwt>
<totfact> 0.12889048E+02</totfact>
</mgrwt>
</event>
<event>
 4    1  0.4332500E+000  0.2901307E+03  0.7546771E-02  0.1090281E+00
         21   -1    0    0  503  502  0.00000000000E+00  0.00000000000E+00  0.19511034949E+03  0.19511034949E+03  0.00000000000E+00 0.  1.
         21   -1    0    0  501  503 -0.00000000000E+00 -0.00000000000E+00 -0.43408645945E+03  0.43408645945E+03  0.00000000000E+00 0.  1.
          6    1    1    2  501    0 -0.23983634786E+02  0.23167129326E+03 -0.14411408076E+03  0.32395164937E+03  0.17300000000E+03 0.  1.
         -6    1    1    2    0  502  0.23983634786E+02 -0.23167129326E+03 -0.94862029204E+02  0.30524515957E+03  0.17300000000E+03 0.  1.
<mgrwt>
<rscale>  2 0.29013067E+03</rscale>
<asrwt>0</asrwt>
<pdfrwt beam="1">  1       21 0.30016977E-01 0.29013067E+03</pdfrwt>
<pdfrwt beam="2">  1       21 0.66782532E-01 0.29013067E+03</pdfrwt>
<totfact> 0.20827533E+04</totfact>
</mgrwt>
</event>
<event>
 4    1  0.4332500E+000  0.2005686E+03  0.7546771E-02  0.1149260E+00
         21   -1    0    0  501  502  0.00000000000E+00  0.00000000000E+00  0.14283186475E+03  0.14283186475E+03  0.00000000000E+00 0. -1.
         21   -1    0    0  502  503 -0.00000000000E+00 -0.00000000000E+00 -0.37847166469E+03  0.37847166469E+03  0.00000000000E+00 0. -1.
          6    1    1    2  501    0 -0.51178935987E+02  0.87632654231E+02  0.14018910459E+02  0.20105794047E+03  0.17300000000E+03 0. -1.
         -6    1    1    2    0  503  0.51178935987E+02 -0.87632654231E+02 -0.24965871039E+03  0.32024558897E+03  0.17300000000E+03 0. -1.
<mgrwt>
<rscale>  2 0.20056861E+03</rscale>
<asrwt>0</asrwt>
<pdfrwt beam="1">  1       21 0.21974133E-01 0.20056861E+03</pdfrwt>
<pdfrwt beam="2">  1       21 0.58226409E-01 0.20056861E+03</pdfrwt>
<totfact> 0.53252686E+04</totfact>
</mgrwt>
</event>
<event>
 4    1  0.4332500E+000  0.3116979E+03  0.7546771E-02  0.1079535E+00
         21   -1    0    0  501  502  0.00000000000E+00  0.00000000000E+00  0.86355817241E+02  0.86355817241E+02  0.00000000000E+00 0.  1.
         21   -1    0    0  502  503 -0.00000000000E+00 -0.00000000000E+00 -0.17132829529E+04  0.17132829529E+04  0.00000000000E+00 0. -1.
          6    1    1    2  501    0 -0.25721042697E+03 -0.32701334408E+02 -0.28621994964E+03  0.42317542531E+03  0.17300000000E+03 0.  1.
         -6    1    1    2    0  503  0.25721042697E+03  0.32701334408E+02 -0.13407071861E+04  0.13764633449E+04  0.17300000000E+03 0. -1.
<mgrwt>
<rscale>  2 0.31169790E+03</rscale>
<asrwt>0</asrwt>
<pdfrwt beam="1">  1       21 0.13285510E-01 0.31169790E+03</pdfrwt>
<pdfrwt beam="2">  1       21 0.26358199E+00 0.31169790E+03</pdfrwt>
<totfact> 0.24322725E+03</totfact>
</mgrwt>
</event>
<event>
 4    1  0.4332500E+000  0.2082321E+03  0.7546771E-02  0.1142974E+00
         21   -1    0    0  503  502  0.00000000000E+00  0.00000000000E+00  0.10146141811E+03  0.10146141811E+03  0.00000000000E+00 0. -1.
         21   -1    0    0  501  503 -0.00000000000E+00 -0.00000000000E+00 -0.70302624316E+03  0.70302624316E+03  0.00000000000E+00 0.  1.
          6    1    1    2  501    0  0.11324659413E+02 -0.11534018540E+03 -0.55266317136E+03  0.59059054112E+03  0.17300000000E+03 0. -1.
         -6    1    1    2    0  502 -0.11324659413E+02  0.11534018540E+03 -0.48901653685E+02  0.21389712016E+03  0.17300000000E+03 0. -1.
<mgrwt>
<rscale>  2 0.20823210E+03</rscale>
<asrwt>0</asrwt>
<pdfrwt beam="1">  1       21 0.15609448E-01 0.20823210E+03</pdfrwt>
<pdfrwt beam="2">  1       21 0.10815789E+00 0.20823210E+03</pdfrwt>
<totfact> 0.24587321E+04</totfact>
</mgrwt>
</event>
<event>
 4    1  0.4332500E+000  0.1797599E+03  0.7546771E-02  0.1168036E+00
         21   -1    0    0  503  502  0.00000000000E+00  0.00000000000E+00  0.31561633753E+03  0.31561633753E+03  0.00000000000E+00 0.  1.
         21   -1    0    0  501  503 -0.00000000000E+00 -0.00000000000E+00 -0.14667298916E+03  0.14667298916E+03  0.00000000000E+00 0. -1.
          6    1    1    2  501    0 -0.37104060738E+02 -0.31747330495E+02 -0.42545898900E+02  0.18472616986E+03  0.17300000000E+03 0. -1.
         -6    1    1    2    0  502  0.37104060738E+02  0.31747330495E+02  0.21148924727E+03  0.27756315683E+03  0.17300000000E+03 0.  1.
<mgrwt>
<rscale>  2 0.17975985E+03</rscale>
<asrwt>0</asrwt>
<pdfrwt beam="1">  1       21 0.48556359E-01 0.17975985E+03</pdfrwt>
<pdfrwt beam="2">  1       21 0.22565075E-01 0.17975985E+03</pdfrwt>
<totfact> 0.74924440E+04</totfact>
</mgrwt>
</event>
<event>
 4    1  0.4332500E+000  0.1837994E+03  0.7546771E-02  0.1164176E+00
         21   -1    0    0  501  502  0.00000000000E+00  0.00000000000E+00  0.13143581597E+03  0.13143581597E+03  0.00000000000E+00 0. -1.
         21   -1    0    0  502  503 -0.00000000000E+00 -0.00000000000E+00 -0.38721764488E+03  0.38721764488E+03  0.00000000000E+00 0. -1.
          6    1    1    2  501    0  0.60852051581E+02 -0.12256832075E+02  0.22480076823E+02  0.18516899300E+03  0.17300000000E+03 0. -1.
         -6    1    1    2    0  503 -0.60852051581E+02  0.12256832075E+02 -0.27826190573E+03  0.33348446785E+03  0.17300000000E+03 0. -1.
<mgrwt>
<rscale>  2 0.18379935E+03</rscale>
<asrwt>0</asrwt>
<pdfrwt beam="1">  1       21 0.20220895E-01 0.18379935E+03</pdfrwt>
<pdfrwt beam="2">  1       21 0.59571945E-01 0.18379935E+03</pdfrwt>
<totfact> 0.59741382E+04</totfact>
</mgrwt>
</event>
<event>
 4    1  0.4332500E+000  0.4727993E+03  0.7546771E-02  0.1021133E+00
         21   -1    0    0  501  502  0.00000000000E+00  0.00000000000E+00  0.21561129265E+04  0.21561129265E+04  0.00000000000E+00 0.  1.
         21   -1    0    0  502  503 -0.00000000000E+00 -0.00000000000E+00 -0.12727970651E+03  0.12727970651E+03  0.00000000000E+00 0. -1.
          6    1    1    2  501    0 -0.17004549160E+03  0.40582590210E+03  0.15060628497E+04  0.15785323688E+04  0.17300000000E+03 0.  1.
         -6    1    1    2    0  503  0.17004549160E+03 -0.40582590210E+03  0.52277037024E+03  0.70486026419E+03  0.17300000000E+03 0. -1.
<mgrwt>
<rscale>  2 0.47279925E+03</rscale>
<asrwt>0</asrwt>
<pdfrwt beam="1">  1       21 0.33170965E+00 0.47279925E+03</pdfrwt>
<pdfrwt beam="2">  1       21 0.19581495E-01 0.47279925E+03</pdfrwt>
<totfact> 0.41715301E+02</totfact>
</mgrwt>
</event>
<event>
 4    1  0.4332500E+000  0.2014211E+03  0.7546771E-02  0.1148546E+00
         21   -1    0    0  503  502  0.00000000000E+00  0.00000000000E+00  0.94402620012E+02  0.94402620012E+02  0.00000000000E+00 0.  1.
         21   -1    0    0  501  503 -0.00000000000E+00 -0.00000000000E+00 -0.43326602544E+03  0.43326602544E+03  0.00000000000E+00 0. -1.
          6    1    1    2  501    0  0.12087747709E+02  0.10244675985E+03 -0.14569758250E+03  0.24859251355E+03  0.17300000000E+03 0. -1.
         -6    1    1    2    0  502 -0.12087747709E+02 -0.10244675985E+03 -0.19316582292E+03  0.27907613190E+03  0.17300000000E+03 0. -1.
<mgrwt>
<rscale>  2 0.20142108E+03</rscale>
<asrwt>0</asrwt>
<pdfrwt beam="1">  1       21 0.14523480E-01 0.20142108E+03</pdfrwt>
<pdfrwt beam="2">  1       21 0.66656310E-01 0.20142108E+03</pdfrwt>
<totfact> 0.85502332E+04</totfact>
</mgrwt>
</event>
<event>
 4    1  0.4332500E+000  0.1946823E+03  0.7546771E-02  0.1154305E+00
         21   -1    0    0  503  502  0.00000000000E+00  0.00000000000E+00  0.37451983710E+02  0.37451983710E+02  0.00000000000E+00 0. -1.
         21   -1    0    0  501  503 -0.00000000000E+00 -0.00000000000E+00 -0.15278910685E+04  0.15278910685E+04  0.00000000000E+00 0. -1.
          6    1    1    2  501    0 -0.79104612439E+01  0.88936146914E+02 -0.12000133280E+04  0.12157027602E+04  0.17300000000E+03 0.  1.
         -6    1    1    2    0  502  0.79104612439E+01 -0.88936146914E+02 -0.29042575671E+03  0.34964029199E+03  0.17300000000E+03 0.  1.
<mgrwt>
<rscale>  2 0.19468234E+03</rscale>
<asrwt>0</asrwt>
<pdfrwt beam="1">  1       21 0.57618428E-02 0.19468234E+03</pdfrwt>
<pdfrwt beam="2">  1       21 0.23506020E+00 0.19468234E+03</pdfrwt>
<totfact> 0.17200455E+04</totfact>
</mgrwt>
</event>
<event>
 4    1  0.4332500E+000  0.2290785E+03  0.7546771E-02  0.1127290E+00
         21   -1    0    0  501  502  0.00000000000E+00  0.00000000000E+00  0.11106236572E+03  0.11106236572E+03  0.00000000000E+00 0. -1.
         21   -1    0    0  502  503 -0.00000000000E+00 -0.00000000000E+00 -0.73438277814E+03  0.73438277814E+03  0.00000000000E+00 0.  1.
          6    1    1    2  501    0 -0.93399310250E+00 -0.15015692367E+03 -0.59226339752E+02  0.23661093253E+03  0.17300000000E+03 0. -1.
         -6    1    1    2    0  503  0.93399310250E+00  0.15015692367E+03 -0.56409407267E+03  0.60883421134E+03  0.17300000000E+03 0.  1.
<mgrwt>
<rscale>  2 0.22907853E+03</rscale>
<asrwt>0</asrwt>
<pdfrwt beam="1">  1       21 0.17086518E-01 0.22907853E+03</pdfrwt>
<pdfrwt beam="2">  1       21 0.11298197E+00 0.22907853E+03</pdfrwt>
<totfact> 0.18501787E+04</totfact>
</mgrwt>
</event>
<event>
 4    1  0.4332500E+000  0.1885805E+03  0.7546771E-02  0.1159748E+00
         21   -1    0    0  503  502  0.00000000000E+00  0.00000000000E+00  0.76168985407E+02  0.76168985407E+02  0.00000000000E+00 0. -1.
         21   -1    0    0  501  503 -0.00000000000E+00 -0.00000000000E+00 -0.47989825940E+03  0.47989825940E+03  0.00000000000E+00 0.  1.
          6    1    1    2  501    0 -0.74735775984E+02 -0.69411065846E+01 -0.15609101036E+03  0.24479995647E+03  0.17300000000E+03 0. -1.
         -6    1    1    2    0  502  0.74735775984E+02  0.69411065846E+01 -0.24763826364E+03  0.31126728834E+03  0.17300000000E+03 0.  1.
<mgrwt>
<rscale>  2 0.18858053E+03</rscale>
<asrwt>0</asrwt>
<pdfrwt beam="1">  1       21 0.11718306E-01 0.18858053E+03</pdfrwt>
<pdfrwt beam="2">  1       21 0.73830500E-01 0.18858053E+03</pdfrwt>
<totfact> 0.10097860E+05</totfact>
</mgrwt>
</event>
<event>
 4    1  0.4332500E+000  0.3250521E+03  0.7546771E-02  0.1073347E+00
         21   -1    0    0  503  502  0.00000000000E+00  0.00000000000E+00  0.24397449202E+04  0.24397449202E+04  0.00000000000E+00 0. -1.
         21   -1    0    0  501  503 -0.00000000000E+00 -0.00000000000E+00 -0.45142108089E+02  0.45142108089E+02  0.00000000000E+00 0.  1.
          6    1    1    2  501    0  0.24584333484E+03  0.12365641619E+03  0.94681929024E+03  0.10010622473E+04  0.17300000000E+03 0. -1.
         -6    1    1    2    0  502 -0.24584333484E+03 -0.12365641619E+03  0.14477835219E+04  0.14838247811E+04  0.17300000000E+03 0.  1.
<mgrwt>
<rscale>  2 0.32505208E+03</rscale>
<asrwt>0</asrwt>
<pdfrwt beam="1">  1       21 0.37534527E+00 0.32505208E+03</pdfrwt>
<pdfrwt beam="2">  1       21 0.69449416E-02 0.32505208E+03</pdfrwt>
<totfact> 0.16392514E+03</totfact>
</mgrwt>
</event>
<event>
 4    1  0.4332500E+000  0.1781434E+03  0.7546771E-02  0.1169612E+00
         21   -1    0    0  501  502  0.00000000000E+00  0.00000000000E+00  0.31286625703E+03  0.31286625703E+03  0.00000000000E+00 0. -1.
         21   -1    0    0  502  503 -0.00000000000E+00 -0.00000000000E+00 -0.19208708595E+03  0.19208708595E+03  0.00000000000E+00 0. -1.
          6    1    1    2  501    0 -0.41384763373E+02 -0.96637898002E+01  0.23383583412E+03  0.29396306706E+03  0.17300000000E+03 0. -1.
         -6    1    1    2    0  503  0.41384763373E+02  0.96637898002E+01 -0.11305666304E+03  0.21099027592E+03  0.17300000000E+03 0. -1.
<mgrwt>
<rscale>  2 0.17814345E+03</rscale>
<asrwt>0</asrwt>
<pdfrwt beam="1">  1       21 0.48133270E-01 0.17814345E+03</pdfrwt>
<pdfrwt beam="2">  1       21 0.29551859E-01 0.17814345E+03</pdfrwt>
<totfact> 0.45574434E+04</totfact>
</mgrwt>
</event>
<event>
 4    1  0.4332500E+000  0.1820993E+03  0.7546771E-02  0.1165787E+00
         21   -1    0    0  503  502  0.00000000000E+00  0.00000000000E+00  0.11168494567E+03  0.11168494567E+03  0.00000000000E+00 0. -1.
         21   -1    0    0  501  503 -0.00000000000E+00 -0.00000000000E+00 -0.88282755073E+03  0.88282755073E+03  0.00000000000E+00 0.  1.
          6    1    1    2  501    0 -0.46400405725E+02  0.32835424855E+02 -0.79067039955E+03  0.81136911668E+03  0.17300000000E+03 0.  1.
         -6    1    1    2    0  502  0.46400405725E+02 -0.32835424855E+02  0.19527794487E+02  0.18314337972E+03  0.17300000000E+03 0. -1.
<mgrwt>
<rscale>  2 0.18209932E+03</rscale>
<asrwt>0</asrwt>
<pdfrwt beam="1">  1       21 0.17182300E-01 0.18209932E+03</pdfrwt>
<pdfrwt beam="2">  1       21 0.13581961E+00 0.18209932E+03</pdfrwt>
<totfact> 0.11923771E+04</totfact>
</mgrwt>
</event>
<event>
 4    1  0.4332500E+000  0.1998259E+03  0.7546771E-02  0.1149886E+00
         21   -1    0    0  503  502  0.00000000000E+00  0.00000000000E+00  0.10311880529E+03  0.10311880529E+03  0.00000000000E+00 0.  1.
         21   -1    0    0  501  503 -0.00000000000E+00 -0.00000000000E+00 -0.39417619881E+03  0.39417619881E+03  0.00000000000E+00 0. -1.
          6    1    1    2  501    0  0.64318498231E+02  0.76580244282E+02 -0.11251448033E+03  0.22932490339E+03  0.17300000000E+03 0. -1.
         -6    1    1    2    0  502 -0.64318498231E+02 -0.76580244282E+02 -0.17854291318E+03  0.26797010071E+03  0.17300000000E+03 0. -1.
<mgrwt>
<rscale>  2 0.19982593E+03</rscale>
<asrwt>0</asrwt>
<pdfrwt beam="1">  1       21 0.15864432E-01 0.19982593E+03</pdfrwt>
<pdfrwt beam="2">  1       21 0.60642491E-01 0.19982593E+03</pdfrwt>
<totfact> 0.89420312E+04</totfact>
</mgrwt>
</event>
<event>
 4    1  0.4332500E+000  0.2555673E+03  0.7546771E-02  0.1109836E+00
         21   -1    0    0  503  502  0.00000000000E+00  0.00000000000E+00  0.49643906415E+03  0.49643906415E+03  0.00000000000E+00 0.  1.
         21   -1    0    0  501  503 -0.00000000000E+00 -0.00000000000E+00 -0.20196350208E+03  0.20196350208E+03  0.00000000000E+00 0. -1.
          6    1    1    2  501    0 -0.17897556771E+03  0.57908513938E+02 -0.58928240397E+02  0.26227311593E+03  0.17300000000E+03 0. -1.
         -6    1    1    2    0  502  0.17897556771E+03 -0.57908513938E+02  0.35340380247E+03  0.43612945031E+03  0.17300000000E+03 0.  1.
<mgrwt>
<rscale>  2 0.25556731E+03</rscale>
<asrwt>0</asrwt>
<pdfrwt beam="1">  1       21 0.76375240E-01 0.25556731E+03</pdfrwt>
<pdfrwt beam="2">  1       21 0.31071308E-01 0.25556731E+03</pdfrwt>
<totfact> 0.14648199E+04</totfact>
</mgrwt>
</event>
<event>
 4    1  0.4332500E+000  0.2440928E+03  0.7546771E-02  0.1117096E+00
         21   -1    0    0  501  502  0.00000000000E+00  0.00000000000E+00  0.42844357994E+03  0.42844357994E+03  0.00000000000E+00 0.  1.
         21   -1    0    0  502  503 -0.00000000000E+00 -0.00000000000E+00 -0.23687436761E+03  0.23687436761E+03  0.00000000000E+00 0.  1.
          6    1    1    2  501    0 -0.16485723149E+02 -0.17140747316E+03  0.30954709629E+03  0.39420896203E+03  0.17300000000E+03 0.  1.
         -6    1    1    2    0  503  0.16485723149E+02  0.17140747316E+03 -0.11797788396E+03  0.27110898551E+03  0.17300000000E+03 0.  1.
<mgrwt>
<rscale>  2 0.24409281E+03</rscale>
<asrwt>0</asrwt>
<pdfrwt beam="1">  1       21 0.65914397E-01 0.24409281E+03</pdfrwt>
<pdfrwt beam="2">  1       21 0.36442210E-01 0.24409281E+03</pdfrwt>
<totfact> 0.14895542E+04</totfact>
</mgrwt>
</event>
<event>
 4    1  0.4332500E+000  0.1825455E+03  0.7546771E-02  0.1165362E+00
         21   -1    0    0  503  502  0.00000000000E+00  0.00000000000E+00  0.96997014867E+03  0.96997014867E+03  0.00000000000E+00 0. -1.
         21   -1    0    0  501  503 -0.00000000000E+00 -0.00000000000E+00 -0.37649042909E+02  0.37649042909E+02  0.00000000000E+00 0. -1.
          6    1    1    2  501    0  0.58050251060E+02 -0.49018502633E+01  0.31712644618E+03  0.36591261614E+03  0.17300000000E+03 0. -1.
         -6    1    1    2    0  502 -0.58050251060E+02  0.49018502633E+01  0.61519465959E+03  0.64170657545E+03  0.17300000000E+03 0. -1.
<mgrwt>
<rscale>  2 0.18254550E+03</rscale>
<asrwt>0</asrwt>
<pdfrwt beam="1">  1       21 0.14922616E+00 0.18254550E+03</pdfrwt>
<pdfrwt beam="2">  1       21 0.57921612E-02 0.18254550E+03</pdfrwt>
<totfact> 0.63796510E+04</totfact>
</mgrwt>
</event>
<event>
 4    1  0.4332500E+000  0.2869304E+03  0.7546771E-02  0.1091963E+00
         21   -1    0    0  503  502  0.00000000000E+00  0.00000000000E+00  0.28448713733E+04  0.28448713733E+04  0.00000000000E+00 0.  1.
         21   -1    0    0  501  503 -0.00000000000E+00 -0.00000000000E+00 -0.33707436109E+02  0.33707436109E+02  0.00000000000E+00 0. -1.
          6    1    1    2  501    0 -0.39555980454E+02  0.22546703040E+03  0.86426449489E+03  0.91064931479E+03  0.17300000000E+03 0. -1.
         -6    1    1    2    0  502  0.39555980454E+02 -0.22546703040E+03  0.19468994423E+04  0.19679294946E+04  0.17300000000E+03 0.  1.
<mgrwt>
<rscale>  2 0.28693041E+03</rscale>
<asrwt>0</asrwt>
<pdfrwt beam="1">  1       21 0.43767233E+00 0.28693041E+03</pdfrwt>
<pdfrwt beam="2">  1       21 0.51857617E-02 0.28693041E+03</pdfrwt>
<totfact> 0.11251844E+03</totfact>
</mgrwt>
</event>
<event>
 4    1  0.4332500E+000  0.2321544E+03  0.7546771E-02  0.1125133E+00
         21   -1    0    0  503  502  0.00000000000E+00  0.00000000000E+00  0.10814825134E+04  0.10814825134E+04  0.00000000000E+00 0.  1.
         21   -1    0    0  501  503 -0.00000000000E+00 -0.00000000000E+00 -0.50351408108E+02  0.50351408108E+02  0.00000000000E+00 0. -1.
          6    1    1    2  501    0 -0.13056630304E+03 -0.83181044715E+02  0.57287908519E+03  0.61813112843E+03  0.17300000000E+03 0.  1.
         -6    1    1    2    0  502  0.13056630304E+03  0.83181044715E+02  0.45825202013E+03  0.51370279310E+03  0.17300000000E+03 0.  1.
<mgrwt>
<rscale>  2 0.23215436E+03</rscale>
<asrwt>0</asrwt>
<pdfrwt beam="1">  1       21 0.16638191E+00 0.23215436E+03</pdfrwt>
<pdfrwt beam="2">  1       21 0.77463712E-02 0.23215436E+03</pdfrwt>
<totfact> 0.28026786E+04</totfact>
</mgrwt>
</event>
<event>
 4    1  0.4332500E+000  0.1937618E+03  0.7546771E-02  0.1155112E+00
         21   -1    0    0  501  502  0.00000000000E+00  0.00000000000E+00  0.77456612800E+03  0.77456612800E+03  0.00000000000E+00 0. -1.
         21   -1    0    0  502  503 -0.00000000000E+00 -0.00000000000E+00 -0.72565749269E+02  0.72565749269E+02  0.00000000000E+00 0. -1.
          6    1    1    2  501    0 -0.28232391419E+02  0.82568541726E+02  0.59507368067E+03  0.62582451010E+03  0.17300000000E+03 0. -1.
         -6    1    1    2    0  503  0.28232391419E+02 -0.82568541726E+02  0.10692669806E+03  0.22130736717E+03  0.17300000000E+03 0. -1.
<mgrwt>
<rscale>  2 0.19376179E+03</rscale>
<asrwt>0</asrwt>
<pdfrwt beam="1">  1       21 0.11916401E+00 0.19376179E+03</pdfrwt>
<pdfrwt beam="2">  1       21 0.11163962E-01 0.19376179E+03</pdfrwt>
<totfact> 0.35847550E+04</totfact>
</mgrwt>
</event>
<event>
 4    1  0.4332500E+000  0.2569354E+03  0.7546771E-02  0.1108999E+00
         21   -1    0    0  501  502  0.00000000000E+00  0.00000000000E+00  0.69162321281E+03  0.69162321281E+03  0.00000000000E+00 0. -1.
         21   -1    0    0  502  503 -0.00000000000E+00 -0.00000000000E+00 -0.11537479782E+03  0.11537479782E+03  0.00000000000E+00 0.  1.
          6    1    1    2  501    0 -0.18642872502E+03 -0.36484456669E+02  0.45580311949E+03  0.52323251890E+03  0.17300000000E+03 0. -1.
         -6    1    1    2    0  503  0.18642872502E+03  0.36484456669E+02  0.12044529550E+03  0.28376549173E+03  0.17300000000E+03 0.  1.
<mgrwt>
<rscale>  2 0.25693537E+03</rscale>
<asrwt>0</asrwt>
<pdfrwt beam="1">  1       21 0.10640357E+00 0.25693537E+03</pdfrwt>
<pdfrwt beam="2">  1       21 0.17749969E-01 0.25693537E+03</pdfrwt>
<totfact> 0.19665101E+04</totfact>
</mgrwt>
</event>
<event>
 4    1  0.4332500E+000  0.1910797E+03  0.7546771E-02  0.1157491E+00
         21   -1    0    0  503  502  0.00000000000E+00  0.00000000000E+00  0.31623929415E+03  0.31623929415E+03  0.00000000000E+00 0.  1.
         21   -1    0    0  501  503 -0.00000000000E+00 -0.00000000000E+00 -0.76110586117E+03  0.76110586117E+03  0.00000000000E+00 0.  1.
          6    1    1    2  501    0  0.64957303088E+02  0.48610776115E+02 -0.71856974762E+03  0.74354148571E+03  0.17300000000E+03 0.  1.
         -6    1    1    2    0  502 -0.64957303088E+02 -0.48610776115E+02  0.27370318060E+03  0.33380366962E+03  0.17300000000E+03 0.  1.
<mgrwt>
<rscale>  2 0.19107972E+03</rscale>
<asrwt>0</asrwt>
<pdfrwt beam="1">  1       21 0.48652199E-01 0.19107972E+03</pdfrwt>
<pdfrwt beam="2">  1       21 0.11709321E+00 0.19107972E+03</pdfrwt>
<totfact> 0.22660395E+03</totfact>
</mgrwt>
</event>
<event>
 4    1  0.4332500E+000  0.2040168E+03  0.7546771E-02  0.1146394E+00
         21   -1    0    0  503  502  0.00000000000E+00  0.00000000000E+00  0.13503539538E+03  0.13503539538E+03  0.00000000000E+00 0.  1.
         21   -1    0    0  501  503 -0.00000000000E+00 -0.00000000000E+00 -0.31240271416E+03  0.31240271416E+03  0.00000000000E+00 0.  1.
          6    1    1    2  501    0  0.46096080968E+02 -0.97821394146E+02 -0.62849019968E+02  0.21347803902E+03  0.17300000000E+03 0. -1.
         -6    1    1    2    0  502 -0.46096080968E+02  0.97821394146E+02 -0.11451829882E+03  0.23396007052E+03  0.17300000000E+03 0. -1.
<mgrwt>
<rscale>  2 0.20401685E+03</rscale>
<asrwt>0</asrwt>
<pdfrwt beam="1">  1       21 0.20774676E-01 0.20401685E+03</pdfrwt>
<pdfrwt beam="2">  1       21 0.48061956E-01 0.20401685E+03</pdfrwt>
<totfact> 0.88513326E+04</totfact>
</mgrwt>
</event>
<event>
 4    1  0.4332500E+000  0.1822019E+03  0.7546771E-02  0.1165689E+00
         21   -1    0    0  503  502  0.00000000000E+00  0.00000000000E+00  0.32878587565E+03  0.32878587565E+03  0.00000000000E+00 0. -1.
         21   -1    0    0  501  503 -0.00000000000E+00 -0.00000000000E+00 -0.73226218597E+03  0.73226218597E+03  0.00000000000E+00 0. -1.
          6    1    1    2  501    0 -0.42637254999E+02  0.38086530716E+02 -0.69432970076E+03  0.71783790141E+03  0.17300000000E+03 0. -1.
         -6    1    1    2    0  502  0.42637254999E+02 -0.38086530716E+02  0.29085339045E+03  0.34321016021E+03  0.17300000000E+03 0. -1.
<mgrwt>
<rscale>  2 0.18220186E+03</rscale>
<asrwt>0</asrwt>
<pdfrwt beam="1">  1       21 0.50582443E-01 0.18220186E+03</pdfrwt>
<pdfrwt beam="2">  1       21 0.11265572E+00 0.18220186E+03</pdfrwt>
<totfact> 0.23147551E+03</totfact>
</mgrwt>
</event>
<event>
 4    1  0.4332500E+000  0.1741483E+03  0.7546771E-02  0.1173590E+00
         21   -1    0    0  503  502  0.00000000000E+00  0.00000000000E+00  0.24911037051E+03  0.24911037051E+03  0.00000000000E+00 0. -1.
         21   -1    0    0  501  503 -0.00000000000E+00 -0.00000000000E+00 -0.13955315664E+03  0.13955315664E+03  0.00000000000E+00 0. -1.
          6    1    1    2  501    0  0.13822997642E+02  0.14406852573E+02 -0.14643627389E+02  0.17476289219E+03  0.17300000000E+03 0. -1.
         -6    1    1    2    0  502 -0.13822997642E+02 -0.14406852573E+02  0.12420084126E+03  0.21390063496E+03  0.17300000000E+03 0. -1.
<mgrwt>
<rscale>  2 0.17414831E+03</rscale>
<asrwt>0</asrwt>
<pdfrwt beam="1">  1       21 0.38324672E-01 0.17414831E+03</pdfrwt>
<pdfrwt beam="2">  1       21 0.21469717E-01 0.17414831E+03</pdfrwt>
<totfact> 0.13353341E+05</totfact>
</mgrwt>
</event>
<event>
 4    1  0.4332500E+000  0.2411140E+03  0.7546771E-02  0.1119053E+00
         21   -1    0    0  501  502  0.00000000000E+00  0.00000000000E+00  0.12316809092E+03  0.12316809092E+03  0.00000000000E+00 0. -1.
         21   -1    0    0  502  503 -0.00000000000E+00 -0.00000000000E+00 -0.47201803881E+03  0.47201803881E+03  0.00000000000E+00 0.  1.
          6    1    1    2  501    0  0.75841454692E+02 -0.14985000295E+03 -0.17599155859E+03  0.29851127002E+03  0.17300000000E+03 0.  1.
         -6    1    1    2    0  503 -0.75841454692E+02  0.14985000295E+03 -0.17285838930E+03  0.29667485971E+03  0.17300000000E+03 0.  1.
<mgrwt>
<rscale>  2 0.24111398E+03</rscale>
<asrwt>0</asrwt>
<pdfrwt beam="1">  1       21 0.18948937E-01 0.24111398E+03</pdfrwt>
<pdfrwt beam="2">  1       21 0.72618161E-01 0.24111398E+03</pdfrwt>
<totfact> 0.42608515E+04</totfact>
</mgrwt>
</event>
<event>
 4    1  0.4332500E+000  0.1948116E+03  0.7546771E-02  0.1154192E+00
         21   -1    0    0  503  502  0.00000000000E+00  0.00000000000E+00  0.10263742477E+04  0.10263742477E+04  0.00000000000E+00 0. -1.
         21   -1    0    0  501  503 -0.00000000000E+00 -0.00000000000E+00 -0.44446623563E+02  0.44446623563E+02  0.00000000000E+00 0. -1.
          6    1    1    2  501    0  0.45634583847E+02  0.77071762915E+02  0.27146319743E+03  0.33413147029E+03  0.17300000000E+03 0. -1.
         -6    1    1    2    0  502 -0.45634583847E+02 -0.77071762915E+02  0.71046442669E+03  0.73668940095E+03  0.17300000000E+03 0. -1.
<mgrwt>
<rscale>  2 0.19481163E+03</rscale>
<asrwt>0</asrwt>
<pdfrwt beam="1">  1       21 0.15790371E+00 0.19481163E+03</pdfrwt>
<pdfrwt beam="2">  1       21 0.68379429E-02 0.19481163E+03</pdfrwt>
<totfact> 0.41023722E+04</totfact>
</mgrwt>
</event>
<event>
 4    1  0.4332500E+000  0.1772283E+03  0.7546771E-02  0.1170513E+00
         21   -1    0    0  503  502  0.00000000000E+00  0.00000000000E+00  0.66762816776E+03  0.66762816776E+03  0.00000000000E+00 0.  1.
         21   -1    0    0  501  503 -0.00000000000E+00 -0.00000000000E+00 -0.34311234282E+03  0.34311234282E+03  0.00000000000E+00 0.  1.
          6    1    1    2  501    0  0.33663017435E+02 -0.18645652498E+02 -0.30718776008E+03  0.35464655509E+03  0.17300000000E+03 0.  1.
         -6    1    1    2    0  502 -0.33663017435E+02  0.18645652498E+02  0.63170358502E+03  0.65609395548E+03  0.17300000000E+03 0.  1.
<mgrwt>
<rscale>  2 0.17722827E+03</rscale>
<asrwt>0</asrwt>
<pdfrwt beam="1">  1       21 0.10271203E+00 0.17722827E+03</pdfrwt>
<pdfrwt beam="2">  1       21 0.52786514E-01 0.17722827E+03</pdfrwt>
<totfact> 0.26565480E+03</totfact>
</mgrwt>
</event>
<event>
 4    1  0.4332500E+000  0.2146014E+03  0.7546771E-02  0.1137973E+00
         21   -1    0    0  501  502  0.00000000000E+00  0.00000000000E+00  0.59669406899E+03  0.59669406899E+03  0.00000000000E+00 0. -1.
         21   -1    0    0  502  503 -0.00000000000E+00 -0.00000000000E+00 -0.48282630359E+03  0.48282630359E+03  0.00000000000E+00 0.  1.
          6    1    1    2  501    0 -0.10459825400E+03 -0.71999680672E+02  0.55167538072E+03  0.59194549956E+03  0.17300000000E+03 0. -1.
         -6    1    1    2    0  503  0.10459825400E+03  0.71999680672E+02 -0.43780761533E+03  0.48757487301E+03  0.17300000000E+03 0.  1.
<mgrwt>
<rscale>  2 0.21460137E+03</rscale>
<asrwt>0</asrwt>
<pdfrwt beam="1">  1       21 0.91799088E-01 0.21460137E+03</pdfrwt>
<pdfrwt beam="2">  1       21 0.74280970E-01 0.21460137E+03</pdfrwt>
<totfact> 0.15978055E+03</totfact>
</mgrwt>
</event>
<event>
 4    1  0.4332500E+000  0.1760114E+03  0.7546771E-02  0.1171720E+00
         21   -1    0    0  503  502  0.00000000000E+00  0.00000000000E+00  0.24367657396E+03  0.24367657396E+03  0.00000000000E+00 0.  1.
         21   -1    0    0  501  503 -0.00000000000E+00 -0.00000000000E+00 -0.13009509788E+03  0.13009509788E+03  0.00000000000E+00 0.  1.
          6    1    1    2  501    0  0.31838476933E+02  0.61085490357E+01  0.28604037990E+02  0.17832048108E+03  0.17300000000E+03 0.  1.
         -6    1    1    2    0  502 -0.31838476933E+02 -0.61085490357E+01  0.84977438093E+02  0.19545119076E+03  0.17300000000E+03 0.  1.
<mgrwt>
<rscale>  2 0.17601137E+03</rscale>
<asrwt>0</asrwt>
<pdfrwt beam="1">  1       21 0.37488704E-01 0.17601137E+03</pdfrwt>
<pdfrwt beam="2">  1       21 0.20014630E-01 0.17601137E+03</pdfrwt>
<totfact> 0.15902257E+05</totfact>
</mgrwt>
</event>
<event>
 4    1  0.4332500E+000  0.2811324E+03  0.7546771E-02  0.1095072E+00
         21   -1    0    0  501  502  0.00000000000E+00  0.00000000000E+00  0.25453961786E+03  0.25453961786E+03  0.00000000000E+00 0. -1.
         21   -1    0    0  502  503 -0.00000000000E+00 -0.00000000000E+00 -0.31488361566E+03  0.31488361566E+03  0.00000000000E+00 0.  1.
          6    1    1    2  501    0 -0.14540118143E+03  0.16722722948E+03  0.34072875874E+01  0.28115308899E+03  0.17300000000E+03 0.  1.
         -6    1    1    2    0  503  0.14540118143E+03 -0.16722722948E+03 -0.63751285385E+02  0.28827014453E+03  0.17300000000E+03 0.  1.
<mgrwt>
<rscale>  2 0.28113244E+03</rscale>
<asrwt>0</asrwt>
<pdfrwt beam="1">  1       21 0.39159941E-01 0.28113244E+03</pdfrwt>
<pdfrwt beam="2">  1       21 0.48443633E-01 0.28113244E+03</pdfrwt>
<totfact> 0.24498947E+04</totfact>
</mgrwt>
</event>
<event>
 4    1  0.4332500E+000  0.1901346E+03  0.7546771E-02  0.1158340E+00
         21   -1    0    0  501  502  0.00000000000E+00  0.00000000000E+00  0.11687121281E+03  0.11687121281E+03  0.00000000000E+00 0.  1.
         21   -1    0    0  502  503 -0.00000000000E+00 -0.00000000000E+00 -0.35883191425E+03  0.35883191425E+03  0.00000000000E+00 0. -1.
          6    1    1    2  501    0  0.67804359237E+02 -0.40307768979E+02 -0.32632715430E+02  0.19291459636E+03  0.17300000000E+03 0.  1.
         -6    1    1    2    0  503 -0.67804359237E+02  0.40307768979E+02 -0.20932798600E+03  0.28278853070E+03  0.17300000000E+03 0.  1.
<mgrwt>
<rscale>  2 0.19013455E+03</rscale>
<asrwt>0</asrwt>
<pdfrwt beam="1">  1       21 0.17980186E-01 0.19013455E+03</pdfrwt>
<pdfrwt beam="2">  1       21 0.55204910E-01 0.19013455E+03</pdfrwt>
<totfact> 0.87153381E+04</totfact>
</mgrwt>
</event>
<event>
 4    1  0.4332500E+000  0.1947117E+03  0.7546771E-02  0.1154279E+00
         21   -1    0    0  503  502  0.00000000000E+00  0.00000000000E+00  0.50783056183E+03  0.50783056183E+03  0.00000000000E+00 0.  1.
         21   -1    0    0  501  503 -0.00000000000E+00 -0.00000000000E+00 -0.74729588612E+02  0.74729588612E+02  0.00000000000E+00 0.  1.
          6    1    1    2  501    0 -0.88022503876E+02  0.15352662127E+02  0.20741818743E+03  0.28449072024E+03  0.17300000000E+03 0.  1.
         -6    1    1    2    0  502  0.88022503876E+02 -0.15352662127E+02  0.22568278579E+03  0.29806943021E+03  0.17300000000E+03 0.  1.
<mgrwt>
<rscale>  2 0.19471175E+03</rscale>
<asrwt>0</asrwt>
<pdfrwt beam="1">  1       21 0.78127777E-01 0.19471175E+03</pdfrwt>
<pdfrwt beam="2">  1       21 0.11496860E-01 0.19471175E+03</pdfrwt>
<totfact> 0.91828852E+04</totfact>
</mgrwt>
</event>
<event>
 4    1  0.4332500E+000  0.2037402E+03  0.7546771E-02  0.1146621E+00
         21   -1    0    0  501  502  0.00000000000E+00  0.00000000000E+00  0.17801619754E+04  0.17801619754E+04  0.00000000000E+00 0.  1.
         21   -1    0    0  502  503 -0.00000000000E+00 -0.00000000000E+00 -0.40165396589E+02  0.40165396589E+02  0.00000000000E+00 0.  1.
          6    1    1    2  501    0 -0.10741147664E+03 -0.66217294659E+01  0.14594632881E+04  0.14736156765E+04  0.17300000000E+03 0.  1.
         -6    1    1    2    0  503  0.10741147664E+03  0.66217294659E+01  0.28053329070E+03  0.34671169551E+03  0.17300000000E+03 0.  1.
<mgrwt>
<rscale>  2 0.20374021E+03</rscale>
<asrwt>0</asrwt>
<pdfrwt beam="1">  1       21 0.27387101E+00 0.20374021E+03</pdfrwt>
<pdfrwt beam="2">  1       21 0.61792932E-02 0.20374021E+03</pdfrwt>
<totfact> 0.89508050E+03</totfact>
</mgrwt>
</event>
<event>
 4    1  0.4332500E+000  0.1854327E+03  0.7546771E-02  0.1162646E+00
         21   -1    0    0  501  502  0.00000000000E+00  0.00000000000E+00  0.82468021964E+03  0.82468021964E+03  0.00000000000E+00 0.  1.
         21   -1    0    0  502  503 -0.00000000000E+00 -0.00000000000E+00 -0.72652246831E+02  0.72652246831E+02  0.00000000000E+00 0.  1.
          6    1    1    2  501    0  0.66684198287E+02 -0.30811631323E+01  0.66888610878E+03  0.69411375321E+03  0.17300000000E+03 0.  1.
         -6    1    1    2    0  503 -0.66684198287E+02  0.30811631323E+01  0.83141864026E+02  0.20321871327E+03  0.17300000000E+03 0.  1.
<mgrwt>
<rscale>  2 0.18543267E+03</rscale>
<asrwt>0</asrwt>
<pdfrwt beam="1">  1       21 0.12687387E+00 0.18543267E+03</pdfrwt>
<pdfrwt beam="2">  1       21 0.11177269E-01 0.18543267E+03</pdfrwt>
<totfact> 0.30741782E+04</totfact>
</mgrwt>
</event>
<event>
 4    1  0.4332500E+000  0.2766737E+03  0.7546771E-02  0.1097520E+00
         21   -1    0    0  501  502  0.00000000000E+00  0.00000000000E+00  0.37037483102E+03  0.37037483102E+03  0.00000000000E+00 0. -1.
         21   -1    0    0  502  503 -0.00000000000E+00 -0.00000000000E+00 -0.22801234914E+03  0.22801234914E+03  0.00000000000E+00 0. -1.
          6    1    1    2  501    0 -0.15183623077E+03 -0.15350929506E+03 -0.20337993497E+02  0.27742022028E+03  0.17300000000E+03 0. -1.
         -6    1    1    2    0  503  0.15183623077E+03  0.15350929506E+03  0.16270047537E+03  0.32096695987E+03  0.17300000000E+03 0. -1.
<mgrwt>
<rscale>  2 0.27667372E+03</rscale>
<asrwt>0</asrwt>
<pdfrwt beam="1">  1       21 0.56980744E-01 0.27667372E+03</pdfrwt>
<pdfrwt beam="2">  1       21 0.35078823E-01 0.27667372E+03</pdfrwt>
<totfact> 0.21722349E+04</totfact>
</mgrwt>
</event>
<event>
 4    1  0.4332500E+000  0.2108009E+03  0.7546771E-02  0.1140933E+00
         21   -1    0    0  501  502  0.00000000000E+00  0.00000000000E+00  0.72177289178E+03  0.72177289178E+03  0.00000000000E+00 0.  1.
         21   -1    0    0  502  503 -0.00000000000E+00 -0.00000000000E+00 -0.66758202174E+02  0.66758202174E+02  0.00000000000E+00 0.  1.
          6    1    1    2  501    0 -0.12044910254E+03 -0.21743943506E+00  0.43745633178E+03  0.48559764806E+03  0.17300000000E+03 0.  1.
         -6    1    1    2    0  503  0.12044910254E+03  0.21743943506E+00  0.21755835783E+03  0.30293344590E+03  0.17300000000E+03 0.  1.
<mgrwt>
<rscale>  2 0.21080093E+03</rscale>
<asrwt>0</asrwt>
<pdfrwt beam="1">  1       21 0.11104198E+00 0.21080093E+03</pdfrwt>
<pdfrwt beam="2">  1       21 0.10270493E-01 0.21080093E+03</pdfrwt>
<totfact> 0.48948479E+04</totfact>
</mgrwt>
</event>
<event>
 4    1  0.4332500E+000  0.1866140E+03  0.7546771E-02  0.1161551E+00
         21   -1    0    0  501  502  0.00000000000E+00  0.00000000000E+00  0.35795836367E+03  0.35795836367E+03  0.00000000000E+00 0. -1.
         21   -1    0    0  502  503 -0.00000000000E+00 -0.00000000000E+00 -0.11825859119E+03  0.11825859119E+03  0.00000000000E+00 0. -1.
          6    1    1    2  501    0 -0.53789383882E+02  0.44749205520E+02  0.22011999436E+03  0.28857858744E+03  0.17300000000E+03 0. -1.
         -6    1    1    2    0  503  0.53789383882E+02 -0.44749205520E+02  0.19579778117E+02  0.18763836741E+03  0.17300000000E+03 0. -1.
<mgrwt>
<rscale>  2 0.18661401E+03</rscale>
<asrwt>0</asrwt>
<pdfrwt beam="1">  1       21 0.55070517E-01 0.18661401E+03</pdfrwt>
<pdfrwt beam="2">  1       21 0.18193630E-01 0.18661401E+03</pdfrwt>
<totfact> 0.85831223E+04</totfact>
</mgrwt>
</event>
<event>
 4    1  0.4332500E+000  0.3002676E+03  0.7546771E-02  0.1085107E+00
         21   -1    0    0  501  502  0.00000000000E+00  0.00000000000E+00  0.52698173634E+02  0.52698173634E+02  0.00000000000E+00 0. -1.
         21   -1    0    0  502  503 -0.00000000000E+00 -0.00000000000E+00 -0.21780358740E+04  0.21780358740E+04  0.00000000000E+00 0.  1.
          6    1    1    2  501    0 -0.94383501699E+02  0.22654664262E+03 -0.54611823632E+03  0.62322207496E+03  0.17300000000E+03 0.  1.
         -6    1    1    2    0  503  0.94383501699E+02 -0.22654664262E+03 -0.15792194640E+04  0.16075119727E+04  0.17300000000E+03 0. -1.
<mgrwt>
<rscale>  2 0.30026759E+03</rscale>
<asrwt>0</asrwt>
<pdfrwt beam="1">  1       21 0.81074121E-02 0.30026759E+03</pdfrwt>
<pdfrwt beam="2">  1       21 0.33508241E+00 0.30026759E+03</pdfrwt>
<totfact> 0.22398019E+03</totfact>
</mgrwt>
</event>
<event>
 4    1  0.4332500E+000  0.1863369E+03  0.7546771E-02  0.1161807E+00
         21   -1    0    0  503  502  0.00000000000E+00  0.00000000000E+00  0.65332856550E+03  0.65332856550E+03  0.00000000000E+00 0.  1.
         21   -1    0    0  501  503 -0.00000000000E+00 -0.00000000000E+00 -0.58541643872E+02  0.58541643872E+02  0.00000000000E+00 0.  1.
          6    1    1    2  501    0 -0.18351136964E+02  0.66750733072E+02  0.18932894170E+03  0.26564425979E+03  0.17300000000E+03 0.  1.
         -6    1    1    2    0  502  0.18351136964E+02 -0.66750733072E+02  0.40545797993E+03  0.44622594958E+03  0.17300000000E+03 0.  1.
<mgrwt>
<rscale>  2 0.18633686E+03</rscale>
<asrwt>0</asrwt>
<pdfrwt beam="1">  1       21 0.10051208E+00 0.18633686E+03</pdfrwt>
<pdfrwt beam="2">  1       21 0.90064072E-02 0.18633686E+03</pdfrwt>
<totfact> 0.79346448E+04</totfact>
</mgrwt>
</event>
<event>
 4    1  0.4332500E+000  0.4111243E+03  0.7546771E-02  0.1039994E+00
         21   -1    0    0  501  502  0.00000000000E+00  0.00000000000E+00  0.13324572822E+04  0.13324572822E+04  0.00000000000E+00 0. -1.
         21   -1    0    0  502  503 -0.00000000000E+00 -0.00000000000E+00 -0.12769699763E+03  0.12769699763E+03  0.00000000000E+00 0. -1.
          6    1    1    2  501    0 -0.34128323850E+03 -0.15039934614E+03  0.54294738647E+03  0.68103970271E+03  0.17300000000E+03 0. -1.
         -6    1    1    2    0  503  0.34128323850E+03  0.15039934614E+03  0.66181289809E+03  0.77911457711E+03  0.17300000000E+03 0. -1.
<mgrwt>
<rscale>  2 0.41112433E+03</rscale>
<asrwt>0</asrwt>
<pdfrwt beam="1">  1       21 0.20499342E+00 0.41112433E+03</pdfrwt>
<pdfrwt beam="2">  1       21 0.19645693E-01 0.41112433E+03</pdfrwt>
<totfact> 0.25685785E+03</totfact>
</mgrwt>
</event>
<event>
 4    1  0.4332500E+000  0.2309486E+03  0.7546771E-02  0.1125974E+00
         21   -1    0    0  503  502  0.00000000000E+00  0.00000000000E+00  0.17784220684E+03  0.17784220684E+03  0.00000000000E+00 0.  1.
         21   -1    0    0  501  503 -0.00000000000E+00 -0.00000000000E+00 -0.92723855959E+03  0.92723855959E+03  0.00000000000E+00 0. -1.
          6    1    1    2  501    0 -0.12003725617E+03  0.94864756954E+02 -0.82917802091E+03  0.86074006259E+03  0.17300000000E+03 0. -1.
         -6    1    1    2    0  502  0.12003725617E+03 -0.94864756954E+02  0.79781668160E+02  0.24434070384E+03  0.17300000000E+03 0.  1.
<mgrwt>
<rscale>  2 0.23094862E+03</rscale>
<asrwt>0</asrwt>
<pdfrwt beam="1">  1       21 0.27360340E-01 0.23094862E+03</pdfrwt>
<pdfrwt beam="2">  1       21 0.14265208E+00 0.23094862E+03</pdfrwt>
<totfact> 0.42107481E+03</totfact>
</mgrwt>
</event>
<event>
 4    1  0.4332500E+000  0.1885057E+03  0.7546771E-02  0.1159816E+00
         21   -1    0    0  503  502  0.00000000000E+00  0.00000000000E+00  0.65308753915E+02  0.65308753915E+02  0.00000000000E+00 0.  1.
         21   -1    0    0  501  503 -0.00000000000E+00 -0.00000000000E+00 -0.55873492687E+03  0.55873492687E+03  0.00000000000E+00 0.  1.
          6    1    1    2  501    0  0.58152061370E+02 -0.47156576759E+02 -0.19621239072E+03  0.27209135827E+03  0.17300000000E+03 0.  1.
         -6    1    1    2    0  502 -0.58152061370E+02  0.47156576759E+02 -0.29721378223E+03  0.35195232251E+03  0.17300000000E+03 0.  1.
<mgrwt>
<rscale>  2 0.18850572E+03</rscale>
<asrwt>0</asrwt>
<pdfrwt beam="1">  1       21 0.10047501E-01 0.18850572E+03</pdfrwt>
<pdfrwt beam="2">  1       21 0.85959216E-01 0.18850572E+03</pdfrwt>
<totfact> 0.94133976E+04</totfact>
</mgrwt>
</event>
<event>
 4    1  0.4332500E+000  0.1885915E+03  0.7546771E-02  0.1159738E+00
         21   -1    0    0  501  502  0.00000000000E+00  0.00000000000E+00  0.15332692987E+03  0.15332692987E+03  0.00000000000E+00 0. -1.
         21   -1    0    0  502  503 -0.00000000000E+00 -0.00000000000E+00 -0.52906688189E+03  0.52906688189E+03  0.00000000000E+00 0. -1.
          6    1    1    2  501    0 -0.69929094988E+02  0.27343633547E+02  0.67812641515E+02  0.20041284133E+03  0.17300000000E+03 0. -1.
         -6    1    1    2    0  503  0.69929094988E+02 -0.27343633547E+02 -0.44355259353E+03  0.48198097042E+03  0.17300000000E+03 0. -1.
<mgrwt>
<rscale>  2 0.18859150E+03</rscale>
<asrwt>0</asrwt>
<pdfrwt beam="1">  1       21 0.23588759E-01 0.18859150E+03</pdfrwt>
<pdfrwt beam="2">  1       21 0.81394902E-01 0.18859150E+03</pdfrwt>
<totfact> 0.22428998E+04</totfact>
</mgrwt>
</event>
<event>
 4    1  0.4332500E+000  0.1964030E+03  0.7546771E-02  0.1152810E+00
         21   -1    0    0  501  502  0.00000000000E+00  0.00000000000E+00  0.73569688856E+02  0.73569688856E+02  0.00000000000E+00 0.  1.
         21   -1    0    0  502  503 -0.00000000000E+00 -0.00000000000E+00 -0.15896391739E+04  0.15896391739E+04  0.00000000000E+00 0.  1.
          6    1    1    2  501    0  0.87954636546E+02 -0.30151697306E+02 -0.77254165654E+02  0.21105058411E+03  0.17300000000E+03 0.  1.
         -6    1    1    2    0  503 -0.87954636546E+02  0.30151697306E+02 -0.14388153194E+04  0.14521582787E+04  0.17300000000E+03 0.  1.
<mgrwt>
<rscale>  2 0.19640301E+03</rscale>
<asrwt>0</asrwt>
<pdfrwt beam="1">  1       21 0.11318415E-01 0.19640301E+03</pdfrwt>
<pdfrwt beam="2">  1       21 0.24455985E+00 0.19640301E+03</pdfrwt>
<totfact> 0.46454156E+03</totfact>
</mgrwt>
</event>
<event>
 4    1  0.4332500E+000  0.1905720E+03  0.7546771E-02  0.1157946E+00
         21   -1    0    0  503  502  0.00000000000E+00  0.00000000000E+00  0.26011149376E+03  0.26011149376E+03  0.00000000000E+00 0.  1.
         21   -1    0    0  501  503 -0.00000000000E+00 -0.00000000000E+00 -0.25351112705E+03  0.25351112705E+03  0.00000000000E+00 0.  1.
          6    1    1    2  501    0 -0.55810327888E+02 -0.57217848595E+02 -0.16882876780E+03  0.25459934747E+03  0.17300000000E+03 0.  1.
         -6    1    1    2    0  502  0.55810327888E+02  0.57217848595E+02  0.17542913451E+03  0.25902327334E+03  0.17300000000E+03 0.  1.
<mgrwt>
<rscale>  2 0.19057197E+03</rscale>
<asrwt>0</asrwt>
<pdfrwt beam="1">  1       21 0.40017153E-01 0.19057197E+03</pdfrwt>
<pdfrwt beam="2">  1       21 0.39001712E-01 0.19057197E+03</pdfrwt>
<totfact> 0.38188101E+04</totfact>
</mgrwt>
</event>
<event>
 4    1  0.4332500E+000  0.3532436E+03  0.7546771E-02  0.1061292E+00
         21   -1    0    0  503  502  0.00000000000E+00  0.00000000000E+00  0.29577295794E+03  0.29577295794E+03  0.00000000000E+00 0. -1.
         21   -1    0    0  501  503 -0.00000000000E+00 -0.00000000000E+00 -0.96552842796E+03  0.96552842796E+03  0.00000000000E+00 0. -1.
          6    1    1    2  501    0  0.51364525168E+02  0.30366716456E+03 -0.80809972660E+03  0.88193323410E+03  0.17300000000E+03 0. -1.
         -6    1    1    2    0  502 -0.51364525168E+02 -0.30366716456E+03  0.13834425657E+03  0.37936815180E+03  0.17300000000E+03 0. -1.
<mgrwt>
<rscale>  2 0.35324363E+03</rscale>
<asrwt>0</asrwt>
<pdfrwt beam="1">  1       21 0.45503533E-01 0.35324363E+03</pdfrwt>
<pdfrwt beam="2">  1       21 0.14854283E+00 0.35324363E+03</pdfrwt>
<totfact> 0.12612830E+03</totfact>
</mgrwt>
</event>
<event>
 4    1  0.4332500E+000  0.2326359E+03  0.7546771E-02  0.1124798E+00
         21   -1    0    0  503  502  0.00000000000E+00  0.00000000000E+00  0.40362667259E+03  0.40362667259E+03  0.00000000000E+00 0.  1.
         21   -1    0    0  501  503 -0.00000000000E+00 -0.00000000000E+00 -0.38507639600E+03  0.38507639600E+03  0.00000000000E+00 0.  1.
          6    1    1    2  501    0  0.86349824197E+02 -0.12936064600E+03 -0.30910153932E+03  0.38686332274E+03  0.17300000000E+03 0.  1.
         -6    1    1    2    0  502 -0.86349824197E+02  0.12936064600E+03  0.32765181591E+03  0.40183974585E+03  0.17300000000E+03 0.  1.
<mgrwt>
<rscale>  2 0.23263591E+03</rscale>
<asrwt>0</asrwt>
<pdfrwt beam="1">  1       21 0.62096411E-01 0.23263591E+03</pdfrwt>
<pdfrwt beam="2">  1       21 0.59242522E-01 0.23263591E+03</pdfrwt>
<totfact> 0.62297802E+03</totfact>
</mgrwt>
</event>
<event>
 4    1  0.4332500E+000  0.3729620E+03  0.7546771E-02  0.1053566E+00
         21   -1    0    0  503  502  0.00000000000E+00  0.00000000000E+00  0.42164873905E+03  0.42164873905E+03  0.00000000000E+00 0. -1.
         21   -1    0    0  501  503 -0.00000000000E+00 -0.00000000000E+00 -0.36659812640E+03  0.36659812640E+03  0.00000000000E+00 0.  1.
          6    1    1    2  501    0  0.27458291890E+03 -0.18378213760E+03 -0.97177676458E+02  0.38541426317E+03  0.17300000000E+03 0. -1.
         -6    1    1    2    0  502 -0.27458291890E+03  0.18378213760E+03  0.15222828910E+03  0.40283260228E+03  0.17300000000E+03 0. -1.
<mgrwt>
<rscale>  2 0.37296200E+03</rscale>
<asrwt>0</asrwt>
<pdfrwt beam="1">  1       21 0.64869037E-01 0.37296200E+03</pdfrwt>
<pdfrwt beam="2">  1       21 0.56399712E-01 0.37296200E+03</pdfrwt>
<totfact> 0.58712284E+03</totfact>
</mgrwt>
</event>
<event>
 4    1  0.4332500E+000  0.2614752E+03  0.7546771E-02  0.1106260E+00
         21   -1    0    0  501  502  0.00000000000E+00  0.00000000000E+00  0.88249237780E+03  0.88249237780E+03  0.00000000000E+00 0. -1.
         21   -1    0    0  502  503 -0.00000000000E+00 -0.00000000000E+00 -0.11355017504E+03  0.11355017504E+03  0.00000000000E+00 0. -1.
          6    1    1    2  501    0 -0.17336799628E+03 -0.91563319158E+02  0.10375298006E+03  0.28130763306E+03  0.17300000000E+03 0. -1.
         -6    1    1    2    0  503  0.17336799628E+03  0.91563319158E+02  0.66518922271E+03  0.71473491978E+03  0.17300000000E+03 0. -1.
<mgrwt>
<rscale>  2 0.26147524E+03</rscale>
<asrwt>0</asrwt>
<pdfrwt beam="1">  1       21 0.13576805E+00 0.26147524E+03</pdfrwt>
<pdfrwt beam="2">  1       21 0.17469258E-01 0.26147524E+03</pdfrwt>
<totfact> 0.10992675E+04</totfact>
</mgrwt>
</event>
<event>
 4    1  0.4332500E+000  0.2150787E+03  0.7546771E-02  0.1137606E+00
         21   -1    0    0  501  502  0.00000000000E+00  0.00000000000E+00  0.85572608145E+03  0.85572608145E+03  0.00000000000E+00 0.  1.
         21   -1    0    0  502  503 -0.00000000000E+00 -0.00000000000E+00 -0.11063830745E+03  0.11063830745E+03  0.00000000000E+00 0.  1.
          6    1    1    2  501    0 -0.12561431295E+03 -0.23471393304E+02  0.71807782975E+03  0.74959631236E+03  0.17300000000E+03 0.  1.
         -6    1    1    2    0  503  0.12561431295E+03  0.23471393304E+02  0.27009944257E+02  0.21676807655E+03  0.17300000000E+03 0.  1.
<mgrwt>
<rscale>  2 0.21507873E+03</rscale>
<asrwt>0</asrwt>
<pdfrwt beam="1">  1       21 0.13165016E+00 0.21507873E+03</pdfrwt>
<pdfrwt beam="2">  1       21 0.17021279E-01 0.21507873E+03</pdfrwt>
<totfact> 0.12832535E+04</totfact>
</mgrwt>
</event>
<event>
 4    1  0.4332500E+000  0.1976572E+03  0.7546771E-02  0.1151731E+00
         21   -1    0    0  501  502  0.00000000000E+00  0.00000000000E+00  0.11239317212E+03  0.11239317212E+03  0.00000000000E+00 0. -1.
         21   -1    0    0  502  503 -0.00000000000E+00 -0.00000000000E+00 -0.45429336307E+03  0.45429336307E+03  0.00000000000E+00 0.  1.
          6    1    1    2  501    0  0.58812640113E+02  0.75368748418E+02 -0.33639452547E+02  0.20049934574E+03  0.17300000000E+03 0. -1.
         -6    1    1    2    0  503 -0.58812640113E+02 -0.75368748418E+02 -0.30826073841E+03  0.36618718945E+03  0.17300000000E+03 0.  1.
<mgrwt>
<rscale>  2 0.19765722E+03</rscale>
<asrwt>0</asrwt>
<pdfrwt beam="1">  1       21 0.17291257E-01 0.19765722E+03</pdfrwt>
<pdfrwt beam="2">  1       21 0.69891288E-01 0.19765722E+03</pdfrwt>
<totfact> 0.56083015E+04</totfact>
</mgrwt>
</event>
<event>
 4    1  0.4332500E+000  0.1937705E+03  0.7546771E-02  0.1155104E+00
         21   -1    0    0  503  502  0.00000000000E+00  0.00000000000E+00  0.82674624543E+03  0.82674624543E+03  0.00000000000E+00 0. -1.
         21   -1    0    0  501  503 -0.00000000000E+00 -0.00000000000E+00 -0.11826758360E+03  0.11826758360E+03  0.00000000000E+00 0. -1.
          6    1    1    2  501    0 -0.87259757862E+02 -0.19338046501E+01 -0.16609245798E+02  0.19448103246E+03  0.17300000000E+03 0. -1.
         -6    1    1    2    0  502  0.87259757862E+02  0.19338046501E+01  0.72508790763E+03  0.75053279657E+03  0.17300000000E+03 0. -1.
<mgrwt>
<rscale>  2 0.19377050E+03</rscale>
<asrwt>0</asrwt>
<pdfrwt beam="1">  1       21 0.12719173E+00 0.19377050E+03</pdfrwt>
<pdfrwt beam="2">  1       21 0.18195013E-01 0.19377050E+03</pdfrwt>
<totfact> 0.12559394E+04</totfact>
</mgrwt>
</event>
<event>
 4    1  0.4332500E+000  0.2059197E+03  0.7546771E-02  0.1144838E+00
         21   -1    0    0  503  502  0.00000000000E+00  0.00000000000E+00  0.77245737019E+03  0.77245737019E+03  0.00000000000E+00 0.  1.
         21   -1    0    0  501  503 -0.00000000000E+00 -0.00000000000E+00 -0.68376455938E+02  0.68376455938E+02  0.00000000000E+00 0.  1.
          6    1    1    2  501    0 -0.67787281733E+02  0.88762712022E+02  0.16535156218E+03  0.26409103303E+03  0.17300000000E+03 0.  1.
         -6    1    1    2    0  502  0.67787281733E+02 -0.88762712022E+02  0.53872935206E+03  0.57674279309E+03  0.17300000000E+03 0.  1.
<mgrwt>
<rscale>  2 0.20591973E+03</rscale>
<asrwt>0</asrwt>
<pdfrwt beam="1">  1       21 0.11883959E+00 0.20591973E+03</pdfrwt>
<pdfrwt beam="2">  1       21 0.10519455E-01 0.20591973E+03</pdfrwt>
<totfact> 0.39840096E+04</totfact>
</mgrwt>
</event>
<event>
 4    1  0.4332500E+000  0.1829123E+03  0.7546771E-02  0.1165014E+00
         21   -1    0    0  501  502  0.00000000000E+00  0.00000000000E+00  0.39509154789E+02  0.39509154789E+02  0.00000000000E+00 0. -1.
         21   -1    0    0  502  503 -0.00000000000E+00 -0.00000000000E+00 -0.16957078433E+04  0.16957078433E+04  0.00000000000E+00 0. -1.
          6    1    1    2  501    0  0.54772220972E+02 -0.22976253452E+02 -0.21423136309E+03  0.28169483727E+03  0.17300000000E+03 0. -1.
         -6    1    1    2    0  503 -0.54772220972E+02  0.22976253452E+02 -0.14419673254E+04  0.14535221608E+04  0.17300000000E+03 0. -1.
<mgrwt>
<rscale>  2 0.18291229E+03</rscale>
<asrwt>0</asrwt>
<pdfrwt beam="1">  1       21 0.60783309E-02 0.18291229E+03</pdfrwt>
<pdfrwt beam="2">  1       21 0.26087816E+00 0.18291229E+03</pdfrwt>
<totfact> 0.11182144E+04</totfact>
</mgrwt>
</event>
<event>
 4    1  0.4332500E+000  0.1932519E+03  0.7546771E-02  0.1155561E+00
         21   -1    0    0  501  502  0.00000000000E+00  0.00000000000E+00  0.10111746558E+03  0.10111746558E+03  0.00000000000E+00 0. -1.
         21   -1    0    0  502  503 -0.00000000000E+00 -0.00000000000E+00 -0.49837341036E+03  0.49837341036E+03  0.00000000000E+00 0.  1.
          6    1    1    2  501    0 -0.48847900052E+02 -0.70930819983E+02 -0.46105677621E+02  0.19867569573E+03  0.17300000000E+03 0. -1.
         -6    1    1    2    0  503  0.48847900052E+02  0.70930819983E+02 -0.35115026716E+03  0.40081518021E+03  0.17300000000E+03 0.  1.
<mgrwt>
<rscale>  2 0.19325190E+03</rscale>
<asrwt>0</asrwt>
<pdfrwt beam="1">  1       21 0.15556533E-01 0.19325190E+03</pdfrwt>
<pdfrwt beam="2">  1       21 0.76672832E-01 0.19325190E+03</pdfrwt>
<totfact> 0.55538651E+04</totfact>
</mgrwt>
</event>
<event>
 4    1  0.4332500E+000  0.2068691E+03  0.7546771E-02  0.1144070E+00
         21   -1    0    0  503  502  0.00000000000E+00  0.00000000000E+00  0.47498773773E+03  0.47498773773E+03  0.00000000000E+00 0. -1.
         21   -1    0    0  501  503 -0.00000000000E+00 -0.00000000000E+00 -0.11052074795E+03  0.11052074795E+03  0.00000000000E+00 0. -1.
          6    1    1    2  501    0  0.22150383645E+02 -0.11124373156E+03  0.56383657807E+02  0.21441530770E+03  0.17300000000E+03 0. -1.
         -6    1    1    2    0  502 -0.22150383645E+02  0.11124373156E+03  0.30808333197E+03  0.37109317798E+03  0.17300000000E+03 0. -1.
<mgrwt>
<rscale>  2 0.20686906E+03</rscale>
<asrwt>0</asrwt>
<pdfrwt beam="1">  1       21 0.73075036E-01 0.20686906E+03</pdfrwt>
<pdfrwt beam="2">  1       21 0.17003192E-01 0.20686906E+03</pdfrwt>
<totfact> 0.52176077E+04</totfact>
</mgrwt>
</event>
<event>
 4    1  0.4332500E+000  0.2243065E+03  0.7546771E-02  0.1130713E+00
         21   -1    0    0  501  502  0.00000000000E+00  0.00000000000E+00  0.76012136778E+02  0.76012136778E+02  0.00000000000E+00 0. -1.
         21   -1    0    0  502  503 -0.00000000000E+00 -0.00000000000E+00 -0.70276980923E+03  0.70276980923E+03  0.00000000000E+00 0. -1.
          6    1    1    2  501    0  0.12625368320E+03 -0.66666294299E+02 -0.21949000253E+03  0.31382996755E+03  0.17300000000E+03 0. -1.
         -6    1    1    2    0  503 -0.12625368320E+03  0.66666294299E+02 -0.40726766992E+03  0.46495197847E+03  0.17300000000E+03 0. -1.
<mgrwt>
<rscale>  2 0.22430646E+03</rscale>
<asrwt>0</asrwt>
<pdfrwt beam="1">  1       21 0.11694175E-01 0.22430646E+03</pdfrwt>
<pdfrwt beam="2">  1       21 0.10811843E+00 0.22430646E+03</pdfrwt>
<totfact> 0.41157683E+04</totfact>
</mgrwt>
</event>
<event>
 4    1  0.4332500E+000  0.1806380E+03  0.7546771E-02  0.1167187E+00
         21   -1    0    0  501  502  0.00000000000E+00  0.00000000000E+00  0.20008090512E+04  0.20008090512E+04  0.00000000000E+00 0.  1.
         21   -1    0    0  502  503 -0.00000000000E+00 -0.00000000000E+00 -0.16668142396E+02  0.16668142396E+02  0.00000000000E+00 0.  1.
          6    1    1    2  501    0  0.50842500744E+02 -0.10776485754E+02  0.11402544230E+04  0.11544740109E+04  0.17300000000E+03 0.  1.
         -6    1    1    2    0  503 -0.50842500744E+02  0.10776485754E+02  0.84388648577E+03  0.86300318272E+03  0.17300000000E+03 0.  1.
<mgrwt>
<rscale>  2 0.18063802E+03</rscale>
<asrwt>0</asrwt>
<pdfrwt beam="1">  1       21 0.30781659E+00 0.18063802E+03</pdfrwt>
<pdfrwt beam="2">  1       21 0.25643312E-02 0.18063802E+03</pdfrwt>
<totfact> 0.25535137E+04</totfact>
</mgrwt>
</event>
<event>
 4    1  0.4332500E+000  0.1868788E+03  0.7546771E-02  0.1161307E+00
         21   -1    0    0  503  502  0.00000000000E+00  0.00000000000E+00  0.70794873636E+02  0.70794873636E+02  0.00000000000E+00 0.  1.
         21   -1    0    0  501  503 -0.00000000000E+00 -0.00000000000E+00 -0.50887058094E+03  0.50887058094E+03  0.00000000000E+00 0.  1.
          6    1    1    2  501    0 -0.69371663419E+02  0.13499972429E+02 -0.26972346369E+03  0.32813781222E+03  0.17300000000E+03 0. -1.
         -6    1    1    2    0  502  0.69371663419E+02 -0.13499972429E+02 -0.16835224361E+03  0.25152764236E+03  0.17300000000E+03 0. -1.
<mgrwt>
<rscale>  2 0.18687878E+03</rscale>
<asrwt>0</asrwt>
<pdfrwt beam="1">  1       21 0.10891519E-01 0.18687878E+03</pdfrwt>
<pdfrwt beam="2">  1       21 0.78287779E-01 0.18687878E+03</pdfrwt>
<totfact> 0.10095753E+05</totfact>
</mgrwt>
</event>
<event>
 4    1  0.4332500E+000  0.2133250E+03  0.7546771E-02  0.1138960E+00
         21   -1    0    0  503  502  0.00000000000E+00  0.00000000000E+00  0.56969843121E+03  0.56969843121E+03  0.00000000000E+00 0.  1.
         21   -1    0    0  501  503 -0.00000000000E+00 -0.00000000000E+00 -0.11919706076E+03  0.11919706076E+03  0.00000000000E+00 0.  1.
          6    1    1    2  501    0 -0.11694809653E+03 -0.43608564410E+02  0.27425957257E+02  0.21508079250E+03  0.17300000000E+03 0.  1.
         -6    1    1    2    0  502  0.11694809653E+03  0.43608564410E+02  0.42307541319E+03  0.47381469946E+03  0.17300000000E+03 0.  1.
<mgrwt>
<rscale>  2 0.21332502E+03</rscale>
<asrwt>0</asrwt>
<pdfrwt beam="1">  1       21 0.87645911E-01 0.21332502E+03</pdfrwt>
<pdfrwt beam="2">  1       21 0.18338010E-01 0.21332502E+03</pdfrwt>
<totfact> 0.29949769E+04</totfact>
</mgrwt>
</event>
<event>
 4    1  0.4332500E+000  0.1795813E+03  0.7546771E-02  0.1168209E+00
         21   -1    0    0  503  502  0.00000000000E+00  0.00000000000E+00  0.14385107857E+03  0.14385107857E+03  0.00000000000E+00 0.  1.
         21   -1    0    0  501  503 -0.00000000000E+00 -0.00000000000E+00 -0.27829916503E+03  0.27829916503E+03  0.00000000000E+00 0.  1.
          6    1    1    2  501    0 -0.17963918288E+02  0.44696146057E+02 -0.16029864186E+03  0.24071788969E+03  0.17300000000E+03 0.  1.
         -6    1    1    2    0  502  0.17963918288E+02 -0.44696146057E+02  0.25850555407E+02  0.18143235392E+03  0.17300000000E+03 0.  1.
<mgrwt>
<rscale>  2 0.17958131E+03</rscale>
<asrwt>0</asrwt>
<pdfrwt beam="1">  1       21 0.22130935E-01 0.17958131E+03</pdfrwt>
<pdfrwt beam="2">  1       21 0.42815256E-01 0.17958131E+03</pdfrwt>
<totfact> 0.10064497E+05</totfact>
</mgrwt>
</event>
<event>
 4    1  0.4332500E+000  0.2748035E+03  0.7546771E-02  0.1098561E+00
         21   -1    0    0  503  502  0.00000000000E+00  0.00000000000E+00  0.31714742314E+03  0.31714742314E+03  0.00000000000E+00 0. -1.
         21   -1    0    0  501  503 -0.00000000000E+00 -0.00000000000E+00 -0.84710535587E+03  0.84710535587E+03  0.00000000000E+00 0.  1.
          6    1    1    2  501    0  0.12394273590E+03 -0.17385674765E+03 -0.75855543065E+03  0.80679818534E+03  0.17300000000E+03 0.  1.
         -6    1    1    2    0  502 -0.12394273590E+03  0.17385674765E+03  0.22859749791E+03  0.35745459367E+03  0.17300000000E+03 0. -1.
<mgrwt>
<rscale>  2 0.27480351E+03</rscale>
<asrwt>0</asrwt>
<pdfrwt beam="1">  1       21 0.48791910E-01 0.27480351E+03</pdfrwt>
<pdfrwt beam="2">  1       21 0.13032390E+00 0.27480351E+03</pdfrwt>
<totfact> 0.16105498E+03</totfact>
</mgrwt>
</event>
<event>
 4    1  0.4332500E+000  0.1774031E+03  0.7546771E-02  0.1170340E+00
         21   -1    0    0  501  502  0.00000000000E+00  0.00000000000E+00  0.17992267532E+04  0.17992267532E+04  0.00000000000E+00 0. -1.
         21   -1    0    0  502  503 -0.00000000000E+00 -0.00000000000E+00 -0.19647367082E+02  0.19647367082E+02  0.00000000000E+00 0. -1.
          6    1    1    2  501    0  0.35063743523E+02 -0.17702949084E+02  0.58856326956E+03  0.61471829548E+03  0.17300000000E+03 0. -1.
         -6    1    1    2    0  503 -0.35063743523E+02  0.17702949084E+02  0.11910161165E+04  0.12041558248E+04  0.17300000000E+03 0. -1.
<mgrwt>
<rscale>  2 0.17740310E+03</rscale>
<asrwt>0</asrwt>
<pdfrwt beam="1">  1       21 0.27680399E+00 0.17740310E+03</pdfrwt>
<pdfrwt beam="2">  1       21 0.30226733E-02 0.17740310E+03</pdfrwt>
<totfact> 0.29427761E+04</totfact>
</mgrwt>
</event>
<event>
 4    1  0.4332500E+000  0.1756036E+03  0.7546771E-02  0.1172127E+00
         21   -1    0    0  501  502  0.00000000000E+00  0.00000000000E+00  0.25914592675E+02  0.25914592675E+02  0.00000000000E+00 0.  1.
         21   -1    0    0  502  503 -0.00000000000E+00 -0.00000000000E+00 -0.11953480529E+04  0.11953480529E+04  0.00000000000E+00 0.  1.
          6    1    1    2  501    0  0.28626849522E+02  0.93885120508E+01 -0.54361925082E+03  0.57127798009E+03  0.17300000000E+03 0. -1.
         -6    1    1    2    0  503 -0.28626849522E+02 -0.93885120508E+01 -0.62581420938E+03  0.64998466546E+03  0.17300000000E+03 0. -1.
<mgrwt>
<rscale>  2 0.17560365E+03</rscale>
<asrwt>0</asrwt>
<pdfrwt beam="1">  1       21 0.39868616E-02 0.17560365E+03</pdfrwt>
<pdfrwt beam="2">  1       21 0.18389965E+00 0.17560365E+03</pdfrwt>
<totfact> 0.68158124E+04</totfact>
</mgrwt>
</event>
<event>
 4    1  0.4332500E+000  0.1762146E+03  0.7546771E-02  0.1171518E+00
         21   -1    0    0  501  502  0.00000000000E+00  0.00000000000E+00  0.94467945712E+02  0.94467945712E+02  0.00000000000E+00 0.  1.
         21   -1    0    0  502  503 -0.00000000000E+00 -0.00000000000E+00 -0.54396209489E+03  0.54396209489E+03  0.00000000000E+00 0.  1.
          6    1    1    2  501    0  0.31468444892E+02  0.11502942251E+02 -0.23938092951E+02  0.17783310434E+03  0.17300000000E+03 0.  1.
         -6    1    1    2    0  503 -0.31468444892E+02 -0.11502942251E+02 -0.42555605623E+03  0.46059693627E+03  0.17300000000E+03 0.  1.
<mgrwt>
<rscale>  2 0.17621459E+03</rscale>
<asrwt>0</asrwt>
<pdfrwt beam="1">  1       21 0.14533530E-01 0.17621459E+03</pdfrwt>
<pdfrwt beam="2">  1       21 0.83686477E-01 0.17621459E+03</pdfrwt>
<totfact> 0.52000957E+04</totfact>
</mgrwt>
</event>
<event>
 4    1  0.4332500E+000  0.2250666E+03  0.7546771E-02  0.1130161E+00
         21   -1    0    0  501  502  0.00000000000E+00  0.00000000000E+00  0.27844894104E+03  0.27844894104E+03  0.00000000000E+00 0. -1.
         21   -1    0    0  502  503 -0.00000000000E+00 -0.00000000000E+00 -0.38933241033E+03  0.38933241033E+03  0.00000000000E+00 0. -1.
          6    1    1    2  501    0 -0.13292365731E+03 -0.55292834728E+02  0.18826246707E+03  0.29342418570E+03  0.17300000000E+03 0. -1.
         -6    1    1    2    0  503  0.13292365731E+03  0.55292834728E+02 -0.29914593636E+03  0.37435716567E+03  0.17300000000E+03 0. -1.
<mgrwt>
<rscale>  2 0.22506665E+03</rscale>
<asrwt>0</asrwt>
<pdfrwt beam="1">  1       21 0.42838299E-01 0.22506665E+03</pdfrwt>
<pdfrwt beam="2">  1       21 0.59897294E-01 0.22506665E+03</pdfrwt>
<totfact> 0.13357131E+04</totfact>
</mgrwt>
</event>
<event>
 4    1  0.4332500E+000  0.2495992E+03  0.7546771E-02  0.1113558E+00
         21   -1    0    0  501  502  0.00000000000E+00  0.00000000000E+00  0.45994520634E+03  0.45994520634E+03  0.00000000000E+00 0. -1.
         21   -1    0    0  502  503 -0.00000000000E+00 -0.00000000000E+00 -0.20038426132E+03  0.20038426132E+03  0.00000000000E+00 0. -1.
          6    1    1    2  501    0  0.16068463911E+03 -0.80939477610E+02  0.31772711217E+03  0.40404241125E+03  0.17300000000E+03 0. -1.
         -6    1    1    2    0  503 -0.16068463911E+03  0.80939477610E+02 -0.58166167147E+02  0.25628705641E+03  0.17300000000E+03 0. -1.
<mgrwt>
<rscale>  2 0.24959918E+03</rscale>
<asrwt>0</asrwt>
<pdfrwt beam="1">  1       21 0.70760801E-01 0.24959918E+03</pdfrwt>
<pdfrwt beam="2">  1       21 0.30828348E-01 0.24959918E+03</pdfrwt>
<totfact> 0.17704569E+04</totfact>
</mgrwt>
</event>
<event>
 4    1  0.4332500E+000  0.2165857E+03  0.7546771E-02  0.1136454E+00
         21   -1    0    0  501  502  0.00000000000E+00  0.00000000000E+00  0.41840224328E+03  0.41840224328E+03  0.00000000000E+00 0.  1.
         21   -1    0    0  502  503 -0.00000000000E+00 -0.00000000000E+00 -0.18064562071E+03  0.18064562071E+03  0.00000000000E+00 0.  1.
          6    1    1    2  501    0  0.76381641219E+02 -0.10557559092E+03  0.30336230025E+03  0.37274394123E+03  0.17300000000E+03 0.  1.
         -6    1    1    2    0  503 -0.76381641219E+02  0.10557559092E+03 -0.65605677678E+02  0.22630392276E+03  0.17300000000E+03 0.  1.
<mgrwt>
<rscale>  2 0.21658569E+03</rscale>
<asrwt>0</asrwt>
<pdfrwt beam="1">  1       21 0.64369576E-01 0.21658569E+03</pdfrwt>
<pdfrwt beam="2">  1       21 0.27791634E-01 0.21658569E+03</pdfrwt>
<totfact> 0.27155420E+04</totfact>
</mgrwt>
</event>
<event>
 4    1  0.4332500E+000  0.1945302E+03  0.7546771E-02  0.1154438E+00
         21   -1    0    0  501  502  0.00000000000E+00  0.00000000000E+00  0.96345957812E+02  0.96345957812E+02  0.00000000000E+00 0. -1.
         21   -1    0    0  502  503 -0.00000000000E+00 -0.00000000000E+00 -0.40416921713E+03  0.40416921713E+03  0.00000000000E+00 0.  1.
          6    1    1    2  501    0 -0.51070051780E+02 -0.72834432695E+02 -0.19593617508E+03  0.27610322251E+03  0.17300000000E+03 0.  1.
         -6    1    1    2    0  503  0.51070051780E+02  0.72834432695E+02 -0.11188708423E+03  0.22441195243E+03  0.17300000000E+03 0.  1.
<mgrwt>
<rscale>  2 0.19453022E+03</rscale>
<asrwt>0</asrwt>
<pdfrwt beam="1">  1       21 0.14822455E-01 0.19453022E+03</pdfrwt>
<pdfrwt beam="2">  1       21 0.62179880E-01 0.19453022E+03</pdfrwt>
<totfact> 0.96121308E+04</totfact>
</mgrwt>
</event>
<event>
 4    1  0.4332500E+000  0.2600959E+03  0.7546771E-02  0.1107086E+00
         21   -1    0    0  501  502  0.00000000000E+00  0.00000000000E+00  0.11674127130E+03  0.11674127130E+03  0.00000000000E+00 0. -1.
         21   -1    0    0  502  503 -0.00000000000E+00 -0.00000000000E+00 -0.73482581073E+03  0.73482581073E+03  0.00000000000E+00 0.  1.
          6    1    1    2  501    0  0.10318797874E+02  0.19394438097E+03 -0.50480879627E+03  0.56787482890E+03  0.17300000000E+03 0.  1.
         -6    1    1    2    0  503 -0.10318797874E+02 -0.19394438097E+03 -0.11327574316E+03  0.28369225313E+03  0.17300000000E+03 0.  1.
<mgrwt>
<rscale>  2 0.26009594E+03</rscale>
<asrwt>0</asrwt>
<pdfrwt beam="1">  1       21 0.17960196E-01 0.26009594E+03</pdfrwt>
<pdfrwt beam="2">  1       21 0.11305012E+00 0.26009594E+03</pdfrwt>
<totfact> 0.16568082E+04</totfact>
</mgrwt>
</event>
<event>
 4    1  0.4332500E+000  0.3185914E+03  0.7546771E-02  0.1076299E+00
         21   -1    0    0  501  502  0.00000000000E+00  0.00000000000E+00  0.16977410778E+04  0.16977410778E+04  0.00000000000E+00 0. -1.
         21   -1    0    0  502  503 -0.00000000000E+00 -0.00000000000E+00 -0.13141595572E+03  0.13141595572E+03  0.00000000000E+00 0.  1.
          6    1    1    2  501    0  0.23206806966E+02  0.26652002807E+03  0.14583828428E+04  0.14927762717E+04  0.17300000000E+03 0.  1.
         -6    1    1    2    0  503 -0.23206806966E+02 -0.26652002807E+03  0.10794227929E+03  0.33638076180E+03  0.17300000000E+03 0.  1.
<mgrwt>
<rscale>  2 0.31859140E+03</rscale>
<asrwt>0</asrwt>
<pdfrwt beam="1">  1       21 0.26119092E+00 0.31859140E+03</pdfrwt>
<pdfrwt beam="2">  1       21 0.20217841E-01 0.31859140E+03</pdfrwt>
<totfact> 0.11474537E+03</totfact>
</mgrwt>
</event>
<event>
 4    1  0.4332500E+000  0.1802438E+03  0.7546771E-02  0.1167567E+00
         21   -1    0    0  503  502  0.00000000000E+00  0.00000000000E+00  0.27947327308E+04  0.27947327308E+04  0.00000000000E+00 0.  1.
         21   -1    0    0  501  503 -0.00000000000E+00 -0.00000000000E+00 -0.32191324800E+02  0.32191324800E+02  0.00000000000E+00 0.  1.
          6    1    1    2  501    0 -0.27895420484E+02 -0.42197896451E+02  0.25148347995E+03  0.30940549063E+03  0.17300000000E+03 0.  1.
         -6    1    1    2    0  502  0.27895420484E+02  0.42197896451E+02  0.25110579261E+04  0.25175185650E+04  0.17300000000E+03 0.  1.
<mgrwt>
<rscale>  2 0.18024377E+03</rscale>
<asrwt>0</asrwt>
<pdfrwt beam="1">  1       21 0.42995869E+00 0.18024377E+03</pdfrwt>
<pdfrwt beam="2">  1       21 0.49525137E-02 0.18024377E+03</pdfrwt>
<totfact> 0.15692363E+03</totfact>
</mgrwt>
</event>
<event>
 4    1  0.4332500E+000  0.2356897E+03  0.7546771E-02  0.1122698E+00
         21   -1    0    0  501  502  0.00000000000E+00  0.00000000000E+00  0.19788261284E+03  0.19788261284E+03  0.00000000000E+00 0.  1.
         21   -1    0    0  502  503 -0.00000000000E+00 -0.00000000000E+00 -0.32575100087E+03  0.32575100087E+03  0.00000000000E+00 0.  1.
          6    1    1    2  501    0  0.12305577309E+03 -0.10236175976E+03  0.33409835467E+02  0.23804594149E+03  0.17300000000E+03 0.  1.
         -6    1    1    2    0  503 -0.12305577309E+03  0.10236175976E+03 -0.16127822350E+03  0.28558767222E+03  0.17300000000E+03 0.  1.
<mgrwt>
<rscale>  2 0.23568974E+03</rscale>
<asrwt>0</asrwt>
<pdfrwt beam="1">  1       21 0.30443479E-01 0.23568974E+03</pdfrwt>
<pdfrwt beam="2">  1       21 0.50115538E-01 0.23568974E+03</pdfrwt>
<totfact> 0.38452366E+04</totfact>
</mgrwt>
</event>
<event>
 4    1  0.4332500E+000  0.1953806E+03  0.7546771E-02  0.1153696E+00
         21   -1    0    0  501  502  0.00000000000E+00  0.00000000000E+00  0.23040996819E+03  0.23040996819E+03  0.00000000000E+00 0. -1.
         21   -1    0    0  502  503 -0.00000000000E+00 -0.00000000000E+00 -0.23089057875E+03  0.23089057875E+03  0.00000000000E+00 0. -1.
          6    1    1    2  501    0 -0.68154652934E+02  0.59995888714E+02  0.12234005137E+03  0.23052256190E+03  0.17300000000E+03 0. -1.
         -6    1    1    2    0  503  0.68154652934E+02 -0.59995888714E+02 -0.12282066193E+03  0.23077798504E+03  0.17300000000E+03 0. -1.
<mgrwt>
<rscale>  2 0.19538056E+03</rscale>
<asrwt>0</asrwt>
<pdfrwt beam="1">  1       21 0.35447688E-01 0.19538056E+03</pdfrwt>
<pdfrwt beam="2">  1       21 0.35521627E-01 0.19538056E+03</pdfrwt>
<totfact> 0.58562143E+04</totfact>
</mgrwt>
</event>
<event>
 4    1  0.4332500E+000  0.1886267E+03  0.7546771E-02  0.1159706E+00
         21   -1    0    0  501  502  0.00000000000E+00  0.00000000000E+00  0.96758779421E+02  0.96758779421E+02  0.00000000000E+00 0. -1.
         21   -1    0    0  502  503 -0.00000000000E+00 -0.00000000000E+00 -0.44694968402E+03  0.44694968402E+03  0.00000000000E+00 0. -1.
          6    1    1    2  501    0 -0.16258924764E+02 -0.73394120519E+02 -0.60635579794E+02  0.19813309440E+03  0.17300000000E+03 0. -1.
         -6    1    1    2    0  503  0.16258924764E+02  0.73394120519E+02 -0.28955532480E+03  0.34557536903E+03  0.17300000000E+03 0. -1.
<mgrwt>
<rscale>  2 0.18862675E+03</rscale>
<asrwt>0</asrwt>
<pdfrwt beam="1">  1       21 0.14885966E-01 0.18862675E+03</pdfrwt>
<pdfrwt beam="2">  1       21 0.68761489E-01 0.18862675E+03</pdfrwt>
<totfact> 0.76787859E+04</totfact>
</mgrwt>
</event>
<event>
 4    1  0.4332500E+000  0.1748869E+03  0.7546771E-02  0.1172845E+00
         21   -1    0    0  501  502  0.00000000000E+00  0.00000000000E+00  0.64200928822E+02  0.64200928822E+02  0.00000000000E+00 0.  1.
         21   -1    0    0  502  503 -0.00000000000E+00 -0.00000000000E+00 -0.54935474716E+03  0.54935474716E+03  0.00000000000E+00 0.  1.
          6    1    1    2  501    0 -0.25600891540E+02 -0.10105874904E+01 -0.13078265636E+03  0.21837932626E+03  0.17300000000E+03 0.  1.
         -6    1    1    2    0  503  0.25600891540E+02  0.10105874904E+01 -0.35437116198E+03  0.39517634972E+03  0.17300000000E+03 0.  1.
<mgrwt>
<rscale>  2 0.17488690E+03</rscale>
<asrwt>0</asrwt>
<pdfrwt beam="1">  1       21 0.98770659E-02 0.17488690E+03</pdfrwt>
<pdfrwt beam="2">  1       21 0.84516116E-01 0.17488690E+03</pdfrwt>
<totfact> 0.10140278E+05</totfact>
</mgrwt>
</event>
<event>
 4    1  0.4332500E+000  0.1902813E+03  0.7546771E-02  0.1158208E+00
         21   -1    0    0  503  502  0.00000000000E+00  0.00000000000E+00  0.11613686026E+03  0.11613686026E+03  0.00000000000E+00 0. -1.
         21   -1    0    0  501  503 -0.00000000000E+00 -0.00000000000E+00 -0.34479956197E+03  0.34479956197E+03  0.00000000000E+00 0.  1.
          6    1    1    2  501    0  0.26237160157E+02 -0.74763523443E+02 -0.42990778898E+02  0.19507736947E+03  0.17300000000E+03 0. -1.
         -6    1    1    2    0  502 -0.26237160157E+02  0.74763523443E+02 -0.18567192281E+03  0.26585905275E+03  0.17300000000E+03 0.  1.
<mgrwt>
<rscale>  2 0.19028130E+03</rscale>
<asrwt>0</asrwt>
<pdfrwt beam="1">  1       21 0.17867209E-01 0.19028130E+03</pdfrwt>
<pdfrwt beam="2">  1       21 0.53046088E-01 0.19028130E+03</pdfrwt>
<totfact> 0.95910238E+04</totfact>
</mgrwt>
</event>
<event>
 4    1  0.4332500E+000  0.2321820E+03  0.7546771E-02  0.1125113E+00
         21   -1    0    0  503  502  0.00000000000E+00  0.00000000000E+00  0.25014810531E+03  0.25014810531E+03  0.00000000000E+00 0. -1.
         21   -1    0    0  501  503 -0.00000000000E+00 -0.00000000000E+00 -0.24023252387E+03  0.24023252387E+03  0.00000000000E+00 0.  1.
          6    1    1    2  501    0  0.12891685481E+03  0.85790086624E+02 -0.73704437557E+02  0.24359975068E+03  0.17300000000E+03 0. -1.
         -6    1    1    2    0  502 -0.12891685481E+03 -0.85790086624E+02  0.83620018995E+02  0.24678087850E+03  0.17300000000E+03 0.  1.
<mgrwt>
<rscale>  2 0.23218203E+03</rscale>
<asrwt>0</asrwt>
<pdfrwt beam="1">  1       21 0.38484324E-01 0.23218203E+03</pdfrwt>
<pdfrwt beam="2">  1       21 0.36958850E-01 0.23218203E+03</pdfrwt>
<totfact> 0.45119904E+04</totfact>
</mgrwt>
</event>
<event>
 4    1  0.4332500E+000  0.2192638E+03  0.7546771E-02  0.1134433E+00
         21   -1    0    0  503  502  0.00000000000E+00  0.00000000000E+00  0.29093202972E+02  0.29093202972E+02  0.00000000000E+00 0. -1.
         21   -1    0    0  501  503 -0.00000000000E+00 -0.00000000000E+00 -0.16903771474E+04  0.16903771474E+04  0.00000000000E+00 0.  1.
          6    1    1    2  501    0  0.12866385856E+03 -0.39915243202E+02 -0.95933124951E+03  0.98406964256E+03  0.17300000000E+03 0.  1.
         -6    1    1    2    0  502 -0.12866385856E+03  0.39915243202E+02 -0.70195269496E+03  0.73540070784E+03  0.17300000000E+03 0. -1.
<mgrwt>
<rscale>  2 0.21926380E+03</rscale>
<asrwt>0</asrwt>
<pdfrwt beam="1">  1       21 0.44758767E-02 0.21926380E+03</pdfrwt>
<pdfrwt beam="2">  1       21 0.26005806E+00 0.21926380E+03</pdfrwt>
<totfact> 0.18403849E+04</totfact>
</mgrwt>
</event>
<event>
 4    1  0.4332500E+000  0.1894804E+03  0.7546771E-02  0.1158931E+00
         21   -1    0    0  501  502  0.00000000000E+00  0.00000000000E+00  0.35684516707E+03  0.35684516707E+03  0.00000000000E+00 0. -1.
         21   -1    0    0  502  503 -0.00000000000E+00 -0.00000000000E+00 -0.81035888390E+03  0.81035888390E+03  0.00000000000E+00 0.  1.
          6    1    1    2  501    0  0.31821815994E+02 -0.70435784623E+02  0.31941573784E+03  0.37138826221E+03  0.17300000000E+03 0. -1.
         -6    1    1    2    0  503 -0.31821815994E+02  0.70435784623E+02 -0.77292945467E+03  0.79581578875E+03  0.17300000000E+03 0.  1.
<mgrwt>
<rscale>  2 0.18948042E+03</rscale>
<asrwt>0</asrwt>
<pdfrwt beam="1">  1       21 0.54899257E-01 0.18948042E+03</pdfrwt>
<pdfrwt beam="2">  1       21 0.12467060E+00 0.18948042E+03</pdfrwt>
<totfact> 0.15082979E+03</totfact>
</mgrwt>
</event>
<event>
 4    1  0.4332500E+000  0.1759655E+03  0.7546771E-02  0.1171766E+00
         21   -1    0    0  501  502  0.00000000000E+00  0.00000000000E+00  0.65188677609E+03  0.65188677609E+03  0.00000000000E+00 0.  1.
         21   -1    0    0  502  503 -0.00000000000E+00 -0.00000000000E+00 -0.90698498906E+02  0.90698498906E+02  0.00000000000E+00 0.  1.
          6    1    1    2  501    0  0.75729881917E+01 -0.31265078105E+02  0.53683980360E+03  0.56494320953E+03  0.17300000000E+03 0.  1.
         -6    1    1    2    0  503 -0.75729881917E+01  0.31265078105E+02  0.24348473584E+02  0.17764206547E+03  0.17300000000E+03 0.  1.
<mgrwt>
<rscale>  2 0.17596549E+03</rscale>
<asrwt>0</asrwt>
<pdfrwt beam="1">  1       21 0.10029027E+00 0.17596549E+03</pdfrwt>
<pdfrwt beam="2">  1       21 0.13953616E-01 0.17596549E+03</pdfrwt>
<totfact> 0.36804085E+04</totfact>
</mgrwt>
</event>
<event>
 4    1  0.4332500E+000  0.1946178E+03  0.7546771E-02  0.1154361E+00
         21   -1    0    0  501  502  0.00000000000E+00  0.00000000000E+00  0.48364859547E+03  0.48364859547E+03  0.00000000000E+00 0. -1.
         21   -1    0    0  502  503 -0.00000000000E+00 -0.00000000000E+00 -0.78600822752E+02  0.78600822752E+02  0.00000000000E+00 0. -1.
          6    1    1    2  501    0 -0.64244607920E+02 -0.61803773480E+02  0.18551850572E+03  0.26887393333E+03  0.17300000000E+03 0. -1.
         -6    1    1    2    0  503  0.64244607920E+02  0.61803773480E+02  0.21952926700E+03  0.29337548489E+03  0.17300000000E+03 0. -1.
<mgrwt>
<rscale>  2 0.19461777E+03</rscale>
<asrwt>0</asrwt>
<pdfrwt beam="1">  1       21 0.74407475E-01 0.19461777E+03</pdfrwt>
<pdfrwt beam="2">  1       21 0.12092435E-01 0.19461777E+03</pdfrwt>
<totfact> 0.93597366E+04</totfact>
</mgrwt>
</event>
<event>
 4    1  0.4332500E+000  0.2126798E+03  0.7546771E-02  0.1139461E+00
         21   -1    0    0  501  502  0.00000000000E+00  0.00000000000E+00  0.13538716068E+04  0.13538716068E+04  0.00000000000E+00 0. -1.
         21   -1    0    0  502  503 -0.00000000000E+00 -0.00000000000E+00 -0.41089793613E+02  0.41089793613E+02  0.00000000000E+00 0. -1.
          6    1    1    2  501    0 -0.12353139391E+03  0.66101580842E+01  0.95792966422E+03  0.98125528843E+03  0.17300000000E+03 0. -1.
         -6    1    1    2    0  503  0.12353139391E+03 -0.66101580842E+01  0.35485214900E+03  0.41370611202E+03  0.17300000000E+03 0. -1.
<mgrwt>
<rscale>  2 0.21267981E+03</rscale>
<asrwt>0</asrwt>
<pdfrwt beam="1">  1       21 0.20828791E+00 0.21267981E+03</pdfrwt>
<pdfrwt beam="2">  1       21 0.63215078E-02 0.21267981E+03</pdfrwt>
<totfact> 0.21124741E+04</totfact>
</mgrwt>
</event>
<event>
 4    1  0.4332500E+000  0.1878409E+03  0.7546771E-02  0.1160423E+00
         21   -1    0    0  503  502  0.00000000000E+00  0.00000000000E+00  0.12060839475E+03  0.12060839475E+03  0.00000000000E+00 0.  1.
         21   -1    0    0  501  503 -0.00000000000E+00 -0.00000000000E+00 -0.45285851877E+03  0.45285851877E+03  0.00000000000E+00 0.  1.
          6    1    1    2  501    0  0.31611824416E+02  0.65999272430E+02 -0.33672264247E+03  0.38557275494E+03  0.17300000000E+03 0.  1.
         -6    1    1    2    0  502 -0.31611824416E+02 -0.65999272430E+02  0.44725184490E+01  0.18789415857E+03  0.17300000000E+03 0.  1.
<mgrwt>
<rscale>  2 0.18784092E+03</rscale>
<asrwt>0</asrwt>
<pdfrwt beam="1">  1       21 0.18555138E-01 0.18784092E+03</pdfrwt>
<pdfrwt beam="2">  1       21 0.69670541E-01 0.18784092E+03</pdfrwt>
<totfact> 0.49805252E+04</totfact>
</mgrwt>
</event>
<event>
 4    1  0.4332500E+000  0.2175400E+03  0.7546771E-02  0.1135730E+00
         21   -1    0    0  503  502  0.00000000000E+00  0.00000000000E+00  0.66856301812E+02  0.66856301812E+02  0.00000000000E+00 0. -1.
         21   -1    0    0  501  503 -0.00000000000E+00 -0.00000000000E+00 -0.86554216858E+03  0.86554216858E+03  0.00000000000E+00 0. -1.
          6    1    1    2  501    0  0.36014140055E+02  0.12687640634E+03 -0.59833909824E+03  0.63665792797E+03  0.17300000000E+03 0. -1.
         -6    1    1    2    0  502 -0.36014140055E+02 -0.12687640634E+03 -0.20034676854E+03  0.29574054242E+03  0.17300000000E+03 0. -1.
<mgrwt>
<rscale>  2 0.21753998E+03</rscale>
<asrwt>0</asrwt>
<pdfrwt beam="1">  1       21 0.10285586E-01 0.21753998E+03</pdfrwt>
<pdfrwt beam="2">  1       21 0.13316033E+00 0.21753998E+03</pdfrwt>
<totfact> 0.30949262E+04</totfact>
</mgrwt>
</event>
<event>
 4    1  0.4332500E+000  0.1979888E+03  0.7546771E-02  0.1151447E+00
         21   -1    0    0  501  502  0.00000000000E+00  0.00000000000E+00  0.29603210839E+02  0.29603210839E+02  0.00000000000E+00 0. -1.
         21   -1    0    0  502  503 -0.00000000000E+00 -0.00000000000E+00 -0.17166429848E+04  0.17166429848E+04  0.00000000000E+00 0. -1.
          6    1    1    2  501    0  0.70837112383E+02  0.65212545067E+02 -0.42603337629E+03  0.46979145399E+03  0.17300000000E+03 0. -1.
         -6    1    1    2    0  503 -0.70837112383E+02 -0.65212545067E+02 -0.12610063977E+04  0.12764547417E+04  0.17300000000E+03 0. -1.
<mgrwt>
<rscale>  2 0.19798882E+03</rscale>
<asrwt>0</asrwt>
<pdfrwt beam="1">  1       21 0.45543395E-02 0.19798882E+03</pdfrwt>
<pdfrwt beam="2">  1       21 0.26409896E+00 0.19798882E+03</pdfrwt>
<totfact> 0.17241561E+04</totfact>
</mgrwt>
</event>
<event>
 4    1  0.4332500E+000  0.1903206E+03  0.7546771E-02  0.1158173E+00
         21   -1    0    0  503  502  0.00000000000E+00  0.00000000000E+00  0.46032229846E+02  0.46032229846E+02  0.00000000000E+00 0.  1.
         21   -1    0    0  501  503 -0.00000000000E+00 -0.00000000000E+00 -0.16192514620E+04  0.16192514620E+04  0.00000000000E+00 0. -1.
          6    1    1    2  501    0 -0.30639643037E+02  0.73171891352E+02 -0.13835889061E+04  0.13966174045E+04  0.17300000000E+03 0. -1.
         -6    1    1    2    0  502  0.30639643037E+02 -0.73171891352E+02 -0.18963032606E+03  0.26866628737E+03  0.17300000000E+03 0.  1.
<mgrwt>
<rscale>  2 0.19032055E+03</rscale>
<asrwt>0</asrwt>
<pdfrwt beam="1">  1       21 0.70818817E-02 0.19032055E+03</pdfrwt>
<pdfrwt beam="2">  1       21 0.24911560E+00 0.19032055E+03</pdfrwt>
<totfact> 0.99993313E+03</totfact>
</mgrwt>
</event>
<event>
 4    1  0.4332500E+000  0.3201253E+03  0.7546771E-02  0.1075592E+00
         21   -1    0    0  503  502  0.00000000000E+00  0.00000000000E+00  0.36617336377E+03  0.36617336377E+03  0.00000000000E+00 0. -1.
         21   -1    0    0  501  503 -0.00000000000E+00 -0.00000000000E+00 -0.51641185966E+03  0.51641185966E+03  0.00000000000E+00 0. -1.
          6    1    1    2  501    0 -0.21752758780E+03 -0.15884893372E+03 -0.37378424100E+03  0.49213300439E+03  0.17300000000E+03 0. -1.
         -6    1    1    2    0  502  0.21752758780E+03  0.15884893372E+03  0.22354574510E+03  0.39045221903E+03  0.17300000000E+03 0. -1.
<mgrwt>
<rscale>  2 0.32012534E+03</rscale>
<asrwt>0</asrwt>
<pdfrwt beam="1">  1       21 0.56334364E-01 0.32012534E+03</pdfrwt>
<pdfrwt beam="2">  1       21 0.79447978E-01 0.32012534E+03</pdfrwt>
<totfact> 0.38185194E+03</totfact>
</mgrwt>
</event>
<event>
 4    1  0.4332500E+000  0.1892061E+03  0.7546771E-02  0.1159179E+00
         21   -1    0    0  503  502  0.00000000000E+00  0.00000000000E+00  0.85669180710E+03  0.85669180710E+03  0.00000000000E+00 0. -1.
         21   -1    0    0  501  503 -0.00000000000E+00 -0.00000000000E+00 -0.45108950967E+02  0.45108950967E+02  0.00000000000E+00 0. -1.
          6    1    1    2  501    0  0.62251723738E+02  0.44661939799E+02  0.28343791759E+03  0.34078735174E+03  0.17300000000E+03 0. -1.
         -6    1    1    2    0  502 -0.62251723738E+02 -0.44661939799E+02  0.52814493854E+03  0.56101340633E+03  0.17300000000E+03 0. -1.
<mgrwt>
<rscale>  2 0.18920615E+03</rscale>
<asrwt>0</asrwt>
<pdfrwt beam="1">  1       21 0.13179873E+00 0.18920615E+03</pdfrwt>
<pdfrwt beam="2">  1       21 0.69398392E-02 0.18920615E+03</pdfrwt>
<totfact> 0.64213257E+04</totfact>
</mgrwt>
</event>
<event>
 4    1  0.4332500E+000  0.1770587E+03  0.7546771E-02  0.1170680E+00
         21   -1    0    0  501  502  0.00000000000E+00  0.00000000000E+00  0.15153620853E+03  0.15153620853E+03  0.00000000000E+00 0.  1.
         21   -1    0    0  502  503 -0.00000000000E+00 -0.00000000000E+00 -0.78048528253E+03  0.78048528253E+03  0.00000000000E+00 0.  1.
          6    1    1    2  501    0  0.37097277142E+02 -0.66771503889E+01  0.85028595849E+02  0.19641704208E+03  0.17300000000E+03 0.  1.
         -6    1    1    2    0  503 -0.37097277142E+02  0.66771503889E+01 -0.71397766985E+03  0.73560444898E+03  0.17300000000E+03 0.  1.
<mgrwt>
<rscale>  2 0.17705873E+03</rscale>
<asrwt>0</asrwt>
<pdfrwt beam="1">  1       21 0.23313263E-01 0.17705873E+03</pdfrwt>
<pdfrwt beam="2">  1       21 0.12007466E+00 0.17705873E+03</pdfrwt>
<totfact> 0.92283469E+03</totfact>
</mgrwt>
</event>
<event>
 4    1  0.4332500E+000  0.1736476E+03  0.7546771E-02  0.1174097E+00
         21   -1    0    0  501  502  0.00000000000E+00  0.00000000000E+00  0.98250935355E+03  0.98250935355E+03  0.00000000000E+00 0.  1.
         21   -1    0    0  502  503 -0.00000000000E+00 -0.00000000000E+00 -0.12197277142E+03  0.12197277142E+03  0.00000000000E+00 0.  1.
          6    1    1    2  501    0 -0.13908010902E+02 -0.55715343595E+01  0.90800765012E+03  0.92446274530E+03  0.17300000000E+03 0.  1.
         -6    1    1    2    0  503  0.13908010902E+02  0.55715343595E+01 -0.47471067991E+02  0.18001937968E+03  0.17300000000E+03 0.  1.
<mgrwt>
<rscale>  2 0.17364756E+03</rscale>
<asrwt>0</asrwt>
<pdfrwt beam="1">  1       21 0.15115528E+00 0.17364756E+03</pdfrwt>
<pdfrwt beam="2">  1       21 0.18765042E-01 0.17364756E+03</pdfrwt>
<totfact> 0.77325960E+03</totfact>
</mgrwt>
</event>
<event>
 4    1  0.4332500E+000  0.2596811E+03  0.7546771E-02  0.1107335E+00
         21   -1    0    0  503  502  0.00000000000E+00  0.00000000000E+00  0.12968115921E+03  0.12968115921E+03  0.00000000000E+00 0. -1.
         21   -1    0    0  501  503 -0.00000000000E+00 -0.00000000000E+00 -0.56144257697E+03  0.56144257697E+03  0.00000000000E+00 0.  1.
          6    1    1    2  501    0  0.41957440252E+02  0.18906304970E+03 -0.30976524441E+03  0.40421376795E+03  0.17300000000E+03 0.  1.
         -6    1    1    2    0  502 -0.41957440252E+02 -0.18906304970E+03 -0.12199617336E+03  0.28690996823E+03  0.17300000000E+03 0. -1.
<mgrwt>
<rscale>  2 0.25968108E+03</rscale>
<asrwt>0</asrwt>
<pdfrwt beam="1">  1       21 0.19950947E-01 0.25968108E+03</pdfrwt>
<pdfrwt beam="2">  1       21 0.86375783E-01 0.25968108E+03</pdfrwt>
<totfact> 0.25869766E+04</totfact>
</mgrwt>
</event>
<event>
 4    1  0.4332500E+000  0.1828106E+03  0.7546771E-02  0.1165110E+00
         21   -1    0    0  503  502  0.00000000000E+00  0.00000000000E+00  0.15624046227E+03  0.15624046227E+03  0.00000000000E+00 0. -1.
         21   -1    0    0  501  503 -0.00000000000E+00 -0.00000000000E+00 -0.24252648913E+03  0.24252648913E+03  0.00000000000E+00 0. -1.
          6    1    1    2  501    0  0.46813976391E+02 -0.36043904135E+02  0.25358412313E+02  0.18456099394E+03  0.17300000000E+03 0. -1.
         -6    1    1    2    0  502 -0.46813976391E+02  0.36043904135E+02 -0.11164443917E+03  0.21420595745E+03  0.17300000000E+03 0. -1.
<mgrwt>
<rscale>  2 0.18281059E+03</rscale>
<asrwt>0</asrwt>
<pdfrwt beam="1">  1       21 0.24036994E-01 0.18281059E+03</pdfrwt>
<pdfrwt beam="2">  1       21 0.37311767E-01 0.18281059E+03</pdfrwt>
<totfact> 0.11348473E+05</totfact>
</mgrwt>
</event>
<event>
 4    1  0.4332500E+000  0.2572445E+03  0.7546771E-02  0.1108810E+00
         21   -1    0    0  503  502  0.00000000000E+00  0.00000000000E+00  0.29057448836E+03  0.29057448836E+03  0.00000000000E+00 0.  1.
         21   -1    0    0  501  503 -0.00000000000E+00 -0.00000000000E+00 -0.30050882478E+03  0.30050882478E+03  0.00000000000E+00 0.  1.
          6    1    1    2  501    0  0.15081998245E+01  0.19037713915E+03 -0.15040252496E+03  0.29798598841E+03  0.17300000000E+03 0.  1.
         -6    1    1    2    0  502 -0.15081998245E+01 -0.19037713915E+03  0.14046818853E+03  0.29309732473E+03  0.17300000000E+03 0.  1.
<mgrwt>
<rscale>  2 0.25724449E+03</rscale>
<asrwt>0</asrwt>
<pdfrwt beam="1">  1       21 0.44703767E-01 0.25724449E+03</pdfrwt>
<pdfrwt beam="2">  1       21 0.46232127E-01 0.25724449E+03</pdfrwt>
<totfact> 0.20803430E+04</totfact>
</mgrwt>
</event>
<event>
 4    1  0.4332500E+000  0.1886827E+03  0.7546771E-02  0.1159655E+00
         21   -1    0    0  503  502  0.00000000000E+00  0.00000000000E+00  0.20253489737E+04  0.20253489737E+04  0.00000000000E+00 0. -1.
         21   -1    0    0  501  503 -0.00000000000E+00 -0.00000000000E+00 -0.27744727731E+02  0.27744727731E+02  0.00000000000E+00 0.  1.
          6    1    1    2  501    0 -0.33150044855E+02  0.67625566253E+02  0.37738417211E+03  0.42192411171E+03  0.17300000000E+03 0.  1.
         -6    1    1    2    0  502  0.33150044855E+02 -0.67625566253E+02  0.16202200738E+04  0.16311695897E+04  0.17300000000E+03 0. -1.
<mgrwt>
<rscale>  2 0.18868265E+03</rscale>
<asrwt>0</asrwt>
<pdfrwt beam="1">  1       21 0.31159203E+00 0.18868265E+03</pdfrwt>
<pdfrwt beam="2">  1       21 0.42684212E-02 0.18868265E+03</pdfrwt>
<totfact> 0.10329949E+04</totfact>
</mgrwt>
</event>
<event>
 4    1  0.4332500E+000  0.2221216E+03  0.7546771E-02  0.1132311E+00
         21   -1    0    0  503  502  0.00000000000E+00  0.00000000000E+00  0.15520121702E+03  0.15520121702E+03  0.00000000000E+00 0. -1.
         21   -1    0    0  501  503 -0.00000000000E+00 -0.00000000000E+00 -0.41643280931E+03  0.41643280931E+03  0.00000000000E+00 0. -1.
          6    1    1    2  501    0  0.92936970208E+02 -0.10378695661E+03 -0.26964706543E+03  0.34935304878E+03  0.17300000000E+03 0. -1.
         -6    1    1    2    0  502 -0.92936970208E+02  0.10378695661E+03  0.84154731459E+01  0.22228097755E+03  0.17300000000E+03 0. -1.
<mgrwt>
<rscale>  2 0.22212162E+03</rscale>
<asrwt>0</asrwt>
<pdfrwt beam="1">  1       21 0.23877110E-01 0.22212162E+03</pdfrwt>
<pdfrwt beam="2">  1       21 0.64066586E-01 0.22212162E+03</pdfrwt>
<totfact> 0.36626099E+04</totfact>
</mgrwt>
</event>
<event>
 4    1  0.4332500E+000  0.2770542E+03  0.7546771E-02  0.1097309E+00
         21   -1    0    0  501  502  0.00000000000E+00  0.00000000000E+00  0.30112844925E+03  0.30112844925E+03  0.00000000000E+00 0.  1.
         21   -1    0    0  502  503 -0.00000000000E+00 -0.00000000000E+00 -0.29624138206E+03  0.29624138206E+03  0.00000000000E+00 0. -1.
          6    1    1    2  501    0 -0.61608910105E+02  0.20744731607E+03  0.11401635462E+03  0.29959769003E+03  0.17300000000E+03 0.  1.
         -6    1    1    2    0  503  0.61608910105E+02 -0.20744731607E+03 -0.10912928743E+03  0.29777214128E+03  0.17300000000E+03 0. -1.
<mgrwt>
<rscale>  2 0.27705423E+03</rscale>
<asrwt>0</asrwt>
<pdfrwt beam="1">  1       21 0.46327454E-01 0.27705423E+03</pdfrwt>
<pdfrwt beam="2">  1       21 0.45575597E-01 0.27705423E+03</pdfrwt>
<totfact> 0.19726126E+04</totfact>
</mgrwt>
</event>
<event>
 4    1  0.4332500E+000  0.1977048E+03  0.7546771E-02  0.1151690E+00
         21   -1    0    0  503  502  0.00000000000E+00  0.00000000000E+00  0.71323220793E+02  0.71323220793E+02  0.00000000000E+00 0.  1.
         21   -1    0    0  501  503 -0.00000000000E+00 -0.00000000000E+00 -0.56452224809E+03  0.56452224809E+03  0.00000000000E+00 0.  1.
          6    1    1    2  501    0 -0.27138764969E+02  0.91769791801E+02 -0.19225801806E+03  0.27577228425E+03  0.17300000000E+03 0. -1.
         -6    1    1    2    0  502  0.27138764969E+02 -0.91769791801E+02 -0.30094100924E+03  0.36007318463E+03  0.17300000000E+03 0. -1.
<mgrwt>
<rscale>  2 0.19770485E+03</rscale>
<asrwt>0</asrwt>
<pdfrwt beam="1">  1       21 0.10972803E-01 0.19770485E+03</pdfrwt>
<pdfrwt beam="2">  1       21 0.86849575E-01 0.19770485E+03</pdfrwt>
<totfact> 0.78332812E+04</totfact>
</mgrwt>
</event>
<event>
 4    1  0.4332500E+000  0.3181357E+03  0.7546771E-02  0.1076511E+00
         21   -1    0    0  501  502  0.00000000000E+00  0.00000000000E+00  0.10601734311E+04  0.10601734311E+04  0.00000000000E+00 0. -1.
         21   -1    0    0  502  503 -0.00000000000E+00 -0.00000000000E+00 -0.95897303771E+02  0.95897303771E+02  0.00000000000E+00 0.  1.
          6    1    1    2  501    0 -0.23601601140E+03  0.12481094241E+03  0.52091129554E+03  0.61037603721E+03  0.17300000000E+03 0. -1.
         -6    1    1    2    0  503  0.23601601140E+03 -0.12481094241E+03  0.44336483179E+03  0.54569469766E+03  0.17300000000E+03 0.  1.
<mgrwt>
<rscale>  2 0.31813571E+03</rscale>
<asrwt>0</asrwt>
<pdfrwt beam="1">  1       21 0.16310360E+00 0.31813571E+03</pdfrwt>
<pdfrwt beam="2">  1       21 0.14753432E-01 0.31813571E+03</pdfrwt>
<totfact> 0.89357428E+03</totfact>
</mgrwt>
</event>
<event>
 4    1  0.4332500E+000  0.2097830E+03  0.7546771E-02  0.1141738E+00
         21   -1    0    0  503  502  0.00000000000E+00  0.00000000000E+00  0.30253026586E+03  0.30253026586E+03  0.00000000000E+00 0.  1.
         21   -1    0    0  501  503 -0.00000000000E+00 -0.00000000000E+00 -0.32403778608E+03  0.32403778608E+03  0.00000000000E+00 0.  1.
          6    1    1    2  501    0 -0.90912585713E+02  0.76254887836E+02 -0.24331785730E+03  0.32126700086E+03  0.17300000000E+03 0.  1.
         -6    1    1    2    0  502  0.90912585713E+02 -0.76254887836E+02  0.22181033708E+03  0.30530105108E+03  0.17300000000E+03 0.  1.
<mgrwt>
<rscale>  2 0.20978300E+03</rscale>
<asrwt>0</asrwt>
<pdfrwt beam="1">  1       21 0.46543118E-01 0.20978300E+03</pdfrwt>
<pdfrwt beam="2">  1       21 0.49851967E-01 0.20978300E+03</pdfrwt>
<totfact> 0.16771999E+04</totfact>
</mgrwt>
</event>
<event>
 4    1  0.4332500E+000  0.2024038E+03  0.7546771E-02  0.1147727E+00
         21   -1    0    0  503  502  0.00000000000E+00  0.00000000000E+00  0.21556161836E+03  0.21556161836E+03  0.00000000000E+00 0. -1.
         21   -1    0    0  501  503 -0.00000000000E+00 -0.00000000000E+00 -0.21420994664E+03  0.21420994664E+03  0.00000000000E+00 0. -1.
          6    1    1    2  501    0 -0.10210506812E+03  0.24755621348E+02 -0.71492083331E+02  0.21465880765E+03  0.17300000000E+03 0. -1.
         -6    1    1    2    0  502  0.10210506812E+03 -0.24755621348E+02  0.72843755049E+02  0.21511275735E+03  0.17300000000E+03 0. -1.
<mgrwt>
<rscale>  2 0.20240377E+03</rscale>
<asrwt>0</asrwt>
<pdfrwt beam="1">  1       21 0.33163326E-01 0.20240377E+03</pdfrwt>
<pdfrwt beam="2">  1       21 0.32955376E-01 0.20240377E+03</pdfrwt>
<totfact> 0.77277987E+04</totfact>
</mgrwt>
</event>
<event>
 4    1  0.4332500E+000  0.1733052E+03  0.7546771E-02  0.1174444E+00
         21   -1    0    0  501  502  0.00000000000E+00  0.00000000000E+00  0.12606157092E+03  0.12606157092E+03  0.00000000000E+00 0.  1.
         21   -1    0    0  502  503 -0.00000000000E+00 -0.00000000000E+00 -0.34136988828E+03  0.34136988828E+03  0.00000000000E+00 0.  1.
          6    1    1    2  501    0  0.96055309562E+01  0.36638356082E+01  0.20796950007E+02  0.17454856930E+03  0.17300000000E+03 0.  1.
         -6    1    1    2    0  503 -0.96055309562E+01 -0.36638356082E+01 -0.23610526736E+03  0.29288288989E+03  0.17300000000E+03 0.  1.
<mgrwt>
<rscale>  2 0.17330519E+03</rscale>
<asrwt>0</asrwt>
<pdfrwt beam="1">  1       21 0.19394088E-01 0.17330519E+03</pdfrwt>
<pdfrwt beam="2">  1       21 0.52518444E-01 0.17330519E+03</pdfrwt>
<totfact> 0.84712182E+04</totfact>
</mgrwt>
</event>
<event>
 4    1  0.4332500E+000  0.2006397E+03  0.7546771E-02  0.1149200E+00
         21   -1    0    0  503  502  0.00000000000E+00  0.00000000000E+00  0.61580663743E+03  0.61580663743E+03  0.00000000000E+00 0. -1.
         21   -1    0    0  501  503 -0.00000000000E+00 -0.00000000000E+00 -0.87357857358E+02  0.87357857358E+02  0.00000000000E+00 0. -1.
          6    1    1    2  501    0  0.58570560608E+02  0.83046863814E+02  0.87843645257E+02  0.21902693481E+03  0.17300000000E+03 0. -1.
         -6    1    1    2    0  502 -0.58570560608E+02 -0.83046863814E+02  0.44060513482E+03  0.48413755998E+03  0.17300000000E+03 0. -1.
<mgrwt>
<rscale>  2 0.20063971E+03</rscale>
<asrwt>0</asrwt>
<pdfrwt beam="1">  1       21 0.94739480E-01 0.20063971E+03</pdfrwt>
<pdfrwt beam="2">  1       21 0.13439671E-01 0.20063971E+03</pdfrwt>
<totfact> 0.44445971E+04</totfact>
</mgrwt>
</event>
<event>
 4    1  0.4332500E+000  0.2655562E+03  0.7546771E-02  0.1103850E+00
         21   -1    0    0  503  502  0.00000000000E+00  0.00000000000E+00  0.15400660651E+03  0.15400660651E+03  0.00000000000E+00 0. -1.
         21   -1    0    0  501  503 -0.00000000000E+00 -0.00000000000E+00 -0.54915701128E+03  0.54915701128E+03  0.00000000000E+00 0.  1.
          6    1    1    2  501    0 -0.15261648804E+03 -0.13152688148E+03 -0.34089418372E+03  0.43212146148E+03  0.17300000000E+03 0.  1.
         -6    1    1    2    0  502  0.15261648804E+03  0.13152688148E+03 -0.54256221048E+02  0.27104215631E+03  0.17300000000E+03 0. -1.
<mgrwt>
<rscale>  2 0.26555623E+03</rscale>
<asrwt>0</asrwt>
<pdfrwt beam="1">  1       21 0.23693324E-01 0.26555623E+03</pdfrwt>
<pdfrwt beam="2">  1       21 0.84485694E-01 0.26555623E+03</pdfrwt>
<totfact> 0.19598302E+04</totfact>
</mgrwt>
</event>
<event>
 4    1  0.4332500E+000  0.2976382E+03  0.7546771E-02  0.1086427E+00
         21   -1    0    0  503  502  0.00000000000E+00  0.00000000000E+00  0.42495026667E+03  0.42495026667E+03  0.00000000000E+00 0.  1.
         21   -1    0    0  501  503 -0.00000000000E+00 -0.00000000000E+00 -0.27392941686E+03  0.27392941686E+03  0.00000000000E+00 0. -1.
          6    1    1    2  501    0  0.20518455241E+03  0.12868098614E+03 -0.95312463440E+02  0.31252673874E+03  0.17300000000E+03 0. -1.
         -6    1    1    2    0  502 -0.20518455241E+03 -0.12868098614E+03  0.24633331324E+03  0.38635294479E+03  0.17300000000E+03 0.  1.
<mgrwt>
<rscale>  2 0.29763820E+03</rscale>
<asrwt>0</asrwt>
<pdfrwt beam="1">  1       21 0.65376964E-01 0.29763820E+03</pdfrwt>
<pdfrwt beam="2">  1       21 0.42142987E-01 0.29763820E+03</pdfrwt>
<totfact> 0.11000863E+04</totfact>
</mgrwt>
</event>
<event>
 4    1  0.4332500E+000  0.2053263E+03  0.7546771E-02  0.1145321E+00
         21   -1    0    0  501  502  0.00000000000E+00  0.00000000000E+00  0.11825250598E+03  0.11825250598E+03  0.00000000000E+00 0. -1.
         21   -1    0    0  502  503 -0.00000000000E+00 -0.00000000000E+00 -0.11995371104E+04  0.11995371104E+04  0.00000000000E+00 0. -1.
          6    1    1    2  501    0  0.11035599871E+03 -0.71710273946E+01  0.11725752870E+02  0.20566079686E+03  0.17300000000E+03 0. -1.
         -6    1    1    2    0  503 -0.11035599871E+03  0.71710273946E+01 -0.10930103573E+04  0.11121288196E+04  0.17300000000E+03 0. -1.
<mgrwt>
<rscale>  2 0.20532625E+03</rscale>
<asrwt>0</asrwt>
<pdfrwt beam="1">  1       21 0.18192695E-01 0.20532625E+03</pdfrwt>
<pdfrwt beam="2">  1       21 0.18454416E+00 0.20532625E+03</pdfrwt>
<totfact> 0.46146079E+03</totfact>
</mgrwt>
</event>
<event>
 4    1  0.4332500E+000  0.3091418E+03  0.7546771E-02  0.1080758E+00
         21   -1    0    0  501  502  0.00000000000E+00  0.00000000000E+00  0.48547849133E+03  0.48547849133E+03  0.00000000000E+00 0. -1.
         21   -1    0    0  502  503 -0.00000000000E+00 -0.00000000000E+00 -0.19705081383E+03  0.19705081383E+03  0.00000000000E+00 0.  1.
          6    1    1    2  501    0  0.17898312400E+03 -0.18331576475E+03  0.15498522714E+03  0.34581649601E+03  0.17300000000E+03 0.  1.
         -6    1    1    2    0  503 -0.17898312400E+03  0.18331576475E+03  0.13344245036E+03  0.33671280914E+03  0.17300000000E+03 0. -1.
<mgrwt>
<rscale>  2 0.30914176E+03</rscale>
<asrwt>0</asrwt>
<pdfrwt beam="1">  1       21 0.74688998E-01 0.30914176E+03</pdfrwt>
<pdfrwt beam="2">  1       21 0.30315510E-01 0.30914176E+03</pdfrwt>
<totfact> 0.15785406E+04</totfact>
</mgrwt>
</event>
<event>
 4    1  0.4332500E+000  0.1913272E+03  0.7546771E-02  0.1157270E+00
         21   -1    0    0  503  502  0.00000000000E+00  0.00000000000E+00  0.93931871499E+02  0.93931871499E+02  0.00000000000E+00 0.  1.
         21   -1    0    0  501  503 -0.00000000000E+00 -0.00000000000E+00 -0.40472252823E+03  0.40472252823E+03  0.00000000000E+00 0.  1.
          6    1    1    2  501    0 -0.80495811855E+02 -0.14053573322E+02 -0.20341674630E+03  0.27925696289E+03  0.17300000000E+03 0.  1.
         -6    1    1    2    0  502  0.80495811855E+02  0.14053573322E+02 -0.10737391043E+03  0.21939743684E+03  0.17300000000E+03 0.  1.
<mgrwt>
<rscale>  2 0.19132715E+03</rscale>
<asrwt>0</asrwt>
<pdfrwt beam="1">  1       21 0.14451057E-01 0.19132715E+03</pdfrwt>
<pdfrwt beam="2">  1       21 0.62265005E-01 0.19132715E+03</pdfrwt>
<totfact> 0.10048845E+05</totfact>
</mgrwt>
</event>
<event>
 4    1  0.4332500E+000  0.2390402E+03  0.7546771E-02  0.1120434E+00
         21   -1    0    0  501  502  0.00000000000E+00  0.00000000000E+00  0.12786788764E+03  0.12786788764E+03  0.00000000000E+00 0.  1.
         21   -1    0    0  502  503 -0.00000000000E+00 -0.00000000000E+00 -0.59037672940E+03  0.59037672940E+03  0.00000000000E+00 0. -1.
          6    1    1    2  501    0  0.16295003433E+03  0.25661508617E+02 -0.54196630141E+02  0.24510712236E+03  0.17300000000E+03 0.  1.
         -6    1    1    2    0  503 -0.16295003433E+03 -0.25661508617E+02 -0.40831221162E+03  0.47313749468E+03  0.17300000000E+03 0. -1.
<mgrwt>
<rscale>  2 0.23904022E+03</rscale>
<asrwt>0</asrwt>
<pdfrwt beam="1">  1       21 0.19671983E-01 0.23904022E+03</pdfrwt>
<pdfrwt beam="2">  1       21 0.90827189E-01 0.23904022E+03</pdfrwt>
<totfact> 0.23866550E+04</totfact>
</mgrwt>
</event>
<event>
 4    1  0.4332500E+000  0.1788034E+03  0.7546771E-02  0.1168966E+00
         21   -1    0    0  501  502  0.00000000000E+00  0.00000000000E+00  0.64229583656E+03  0.64229583656E+03  0.00000000000E+00 0. -1.
         21   -1    0    0  502  503 -0.00000000000E+00 -0.00000000000E+00 -0.79793341493E+02  0.79793341493E+02  0.00000000000E+00 0. -1.
          6    1    1    2  501    0  0.10510052307E+02  0.43945201310E+02  0.50269668254E+03  0.53354905731E+03  0.17300000000E+03 0. -1.
         -6    1    1    2    0  503 -0.10510052307E+02 -0.43945201310E+02  0.59805812522E+02  0.18854012074E+03  0.17300000000E+03 0. -1.
<mgrwt>
<rscale>  2 0.17880336E+03</rscale>
<asrwt>0</asrwt>
<pdfrwt beam="1">  1       21 0.98814741E-01 0.17880336E+03</pdfrwt>
<pdfrwt beam="2">  1       21 0.12275899E-01 0.17880336E+03</pdfrwt>
<totfact> 0.47911464E+04</totfact>
</mgrwt>
</event>
<event>
 4    1  0.4332500E+000  0.1825482E+03  0.7546771E-02  0.1165359E+00
         21   -1    0    0  503  502  0.00000000000E+00  0.00000000000E+00  0.95290663392E+02  0.95290663392E+02  0.00000000000E+00 0.  1.
         21   -1    0    0  501  503 -0.00000000000E+00 -0.00000000000E+00 -0.35508903192E+03  0.35508903192E+03  0.00000000000E+00 0.  1.
          6    1    1    2  501    0  0.44000964361E+02  0.38193531055E+02 -0.15762251547E+03  0.24118185683E+03  0.17300000000E+03 0.  1.
         -6    1    1    2    0  502 -0.44000964361E+02 -0.38193531055E+02 -0.10217585306E+03  0.20919783849E+03  0.17300000000E+03 0.  1.
<mgrwt>
<rscale>  2 0.18254816E+03</rscale>
<asrwt>0</asrwt>
<pdfrwt beam="1">  1       21 0.14660102E-01 0.18254816E+03</pdfrwt>
<pdfrwt beam="2">  1       21 0.54629083E-01 0.18254816E+03</pdfrwt>
<totfact> 0.12986075E+05</totfact>
</mgrwt>
</event>
<event>
 4    1  0.4332500E+000  0.1948426E+03  0.7546771E-02  0.1154165E+00
         21   -1    0    0  501  502  0.00000000000E+00  0.00000000000E+00  0.17383308207E+04  0.17383308207E+04  0.00000000000E+00 0. -1.
         21   -1    0    0  502  503 -0.00000000000E+00 -0.00000000000E+00 -0.68825004749E+02  0.68825004749E+02  0.00000000000E+00 0. -1.
          6    1    1    2  501    0 -0.52420643956E+02 -0.72709833394E+02  0.15813324936E+04  0.15932909650E+04  0.17300000000E+03 0. -1.
         -6    1    1    2    0  503  0.52420643956E+02  0.72709833394E+02  0.88173322422E+02  0.21386486054E+03  0.17300000000E+03 0. -1.
<mgrwt>
<rscale>  2 0.19484261E+03</rscale>
<asrwt>0</asrwt>
<pdfrwt beam="1">  1       21 0.26743548E+00 0.19484261E+03</pdfrwt>
<pdfrwt beam="2">  1       21 0.10588464E-01 0.19484261E+03</pdfrwt>
<totfact> 0.38483604E+03</totfact>
</mgrwt>
</event>
<event>
 4    1  0.4332500E+000  0.2311056E+03  0.7546771E-02  0.1125864E+00
         21   -1    0    0  503  502  0.00000000000E+00  0.00000000000E+00  0.61852783087E+03  0.61852783087E+03  0.00000000000E+00 0. -1.
         21   -1    0    0  501  503 -0.00000000000E+00 -0.00000000000E+00 -0.10369196384E+03  0.10369196384E+03  0.00000000000E+00 0.  1.
          6    1    1    2  501    0  0.14111874953E+03 -0.59718400003E+02  0.10973925739E+03  0.25583684915E+03  0.17300000000E+03 0.  1.
         -6    1    1    2    0  502 -0.14111874953E+03  0.59718400003E+02  0.40509660964E+03  0.46638294556E+03  0.17300000000E+03 0.  1.
<mgrwt>
<rscale>  2 0.23110558E+03</rscale>
<asrwt>0</asrwt>
<pdfrwt beam="1">  1       21 0.95158126E-01 0.23110558E+03</pdfrwt>
<pdfrwt beam="2">  1       21 0.15952610E-01 0.23110558E+03</pdfrwt>
<totfact> 0.31691882E+04</totfact>
</mgrwt>
</event>
<event>
 4    1  0.4332500E+000  0.2040763E+03  0.7546771E-02  0.1146345E+00
         21   -1    0    0  501  502  0.00000000000E+00  0.00000000000E+00  0.10886181852E+03  0.10886181852E+03  0.00000000000E+00 0.  1.
         21   -1    0    0  502  503 -0.00000000000E+00 -0.00000000000E+00 -0.43519467581E+03  0.43519467581E+03  0.00000000000E+00 0. -1.
          6    1    1    2  501    0 -0.10816772119E+03 -0.42296995019E+01 -0.25776214449E+03  0.32876810886E+03  0.17300000000E+03 0.  1.
         -6    1    1    2    0  503  0.10816772119E+03  0.42296995019E+01 -0.68570712794E+02  0.21528838547E+03  0.17300000000E+03 0.  1.
<mgrwt>
<rscale>  2 0.20407632E+03</rscale>
<asrwt>0</asrwt>
<pdfrwt beam="1">  1       21 0.16747972E-01 0.20407632E+03</pdfrwt>
<pdfrwt beam="2">  1       21 0.66953028E-01 0.20407632E+03</pdfrwt>
<totfact> 0.65170291E+04</totfact>
</mgrwt>
</event>
<event>
 4    1  0.4332500E+000  0.2455232E+03  0.7546771E-02  0.1116167E+00
         21   -1    0    0  501  502  0.00000000000E+00  0.00000000000E+00  0.12523255447E+04  0.12523255447E+04  0.00000000000E+00 0.  1.
         21   -1    0    0  502  503 -0.00000000000E+00 -0.00000000000E+00 -0.90796669837E+02  0.90796669837E+02  0.00000000000E+00 0.  1.
          6    1    1    2  501    0  0.11434962984E+03 -0.13144132079E+03  0.10410905007E+04  0.10696499845E+04  0.17300000000E+03 0.  1.
         -6    1    1    2    0  503 -0.11434962984E+03  0.13144132079E+03  0.12043837422E+03  0.27347223011E+03  0.17300000000E+03 0.  1.
<mgrwt>
<rscale>  2 0.24552323E+03</rscale>
<asrwt>0</asrwt>
<pdfrwt beam="1">  1       21 0.19266546E+00 0.24552323E+03</pdfrwt>
<pdfrwt beam="2">  1       21 0.13968719E-01 0.24552323E+03</pdfrwt>
<totfact> 0.64116230E+03</totfact>
</mgrwt>
</event>
<event>
 4    1  0.4332500E+000  0.1979447E+03  0.7546771E-02  0.1151485E+00
         21   -1    0    0  503  502  0.00000000000E+00  0.00000000000E+00  0.31185789764E+03  0.31185789764E+03  0.00000000000E+00 0. -1.
         21   -1    0    0  501  503 -0.00000000000E+00 -0.00000000000E+00 -0.39519856114E+03  0.39519856114E+03  0.00000000000E+00 0.  1.
          6    1    1    2  501    0  0.87390430378E+02 -0.40199538112E+02 -0.33364307059E+03  0.38794302254E+03  0.17300000000E+03 0.  1.
         -6    1    1    2    0  502 -0.87390430378E+02  0.40199538112E+02  0.25030240710E+03  0.31911343623E+03  0.17300000000E+03 0. -1.
<mgrwt>
<rscale>  2 0.19794466E+03</rscale>
<asrwt>0</asrwt>
<pdfrwt beam="1">  1       21 0.47978138E-01 0.19794466E+03</pdfrwt>
<pdfrwt beam="2">  1       21 0.60799778E-01 0.19794466E+03</pdfrwt>
<totfact> 0.10418508E+04</totfact>
</mgrwt>
</event>
<event>
 4    1  0.4332500E+000  0.2264960E+03  0.7546771E-02  0.1129131E+00
         21   -1    0    0  503  502  0.00000000000E+00  0.00000000000E+00  0.71775039590E+02  0.71775039590E+02  0.00000000000E+00 0. -1.
         21   -1    0    0  501  503 -0.00000000000E+00 -0.00000000000E+00 -0.73761875112E+03  0.73761875112E+03  0.00000000000E+00 0. -1.
          6    1    1    2  501    0  0.24924754576E+02  0.14404931115E+03 -0.40419664171E+03  0.46333073782E+03  0.17300000000E+03 0. -1.
         -6    1    1    2    0  502 -0.24924754576E+02 -0.14404931115E+03 -0.26164706982E+03  0.34606305289E+03  0.17300000000E+03 0. -1.
<mgrwt>
<rscale>  2 0.22649602E+03</rscale>
<asrwt>0</asrwt>
<pdfrwt beam="1">  1       21 0.11042313E-01 0.22649602E+03</pdfrwt>
<pdfrwt beam="2">  1       21 0.11347981E+00 0.22649602E+03</pdfrwt>
<totfact> 0.40491124E+04</totfact>
</mgrwt>
</event>
<event>
 4    1  0.4332500E+000  0.1936952E+03  0.7546771E-02  0.1155170E+00
         21   -1    0    0  503  502  0.00000000000E+00  0.00000000000E+00  0.56052853048E+02  0.56052853048E+02  0.00000000000E+00 0.  1.
         21   -1    0    0  501  503 -0.00000000000E+00 -0.00000000000E+00 -0.74066219685E+03  0.74066219685E+03  0.00000000000E+00 0.  1.
          6    1    1    2  501    0 -0.80988590328E+02  0.32088708163E+02 -0.46592980637E+03  0.50458737739E+03  0.17300000000E+03 0.  1.
         -6    1    1    2    0  502  0.80988590328E+02 -0.32088708163E+02 -0.21867953743E+03  0.29212767251E+03  0.17300000000E+03 0.  1.
<mgrwt>
<rscale>  2 0.19369522E+03</rscale>
<asrwt>0</asrwt>
<pdfrwt beam="1">  1       21 0.86235163E-02 0.19369522E+03</pdfrwt>
<pdfrwt beam="2">  1       21 0.11394802E+00 0.19369522E+03</pdfrwt>
<totfact> 0.63085745E+04</totfact>
</mgrwt>
</event>
<event>
 4    1  0.4332500E+000  0.2149899E+03  0.7546771E-02  0.1137674E+00
         21   -1    0    0  501  502  0.00000000000E+00  0.00000000000E+00  0.63419059290E+02  0.63419059290E+02  0.00000000000E+00 0.  1.
         21   -1    0    0  502  503 -0.00000000000E+00 -0.00000000000E+00 -0.72883819906E+03  0.72883819906E+03  0.00000000000E+00 0. -1.
          6    1    1    2  501    0 -0.92009776194E+02  0.88463921454E+02 -0.33501723654E+03  0.39806684500E+03  0.17300000000E+03 0.  1.
         -6    1    1    2    0  503  0.92009776194E+02 -0.88463921454E+02 -0.33040190323E+03  0.39419041335E+03  0.17300000000E+03 0.  1.
<mgrwt>
<rscale>  2 0.21498992E+03</rscale>
<asrwt>0</asrwt>
<pdfrwt beam="1">  1       21 0.97567776E-02 0.21498992E+03</pdfrwt>
<pdfrwt beam="2">  1       21 0.11212896E+00 0.21498992E+03</pdfrwt>
<totfact> 0.52240141E+04</totfact>
</mgrwt>
</event>
<event>
 4    1  0.4332500E+000  0.2094293E+03  0.7546771E-02  0.1142019E+00
         21   -1    0    0  503  502  0.00000000000E+00  0.00000000000E+00  0.10799963781E+03  0.10799963781E+03  0.00000000000E+00 0. -1.
         21   -1    0    0  501  503 -0.00000000000E+00 -0.00000000000E+00 -0.61222397693E+03  0.61222397693E+03  0.00000000000E+00 0. -1.
          6    1    1    2  501    0  0.38588641249E+02 -0.11154624220E+03 -0.46105476971E+03  0.50639129935E+03  0.17300000000E+03 0. -1.
         -6    1    1    2    0  502 -0.38588641249E+02  0.11154624220E+03 -0.43169569411E+02  0.21383231539E+03  0.17300000000E+03 0. -1.
<mgrwt>
<rscale>  2 0.20942934E+03</rscale>
<asrwt>0</asrwt>
<pdfrwt beam="1">  1       21 0.16615329E-01 0.20942934E+03</pdfrwt>
<pdfrwt beam="2">  1       21 0.94188306E-01 0.20942934E+03</pdfrwt>
<totfact> 0.30463477E+04</totfact>
</mgrwt>
</event>
<event>
 4    1  0.4332500E+000  0.4448132E+03  0.7546771E-02  0.1029280E+00
         21   -1    0    0  501  502  0.00000000000E+00  0.00000000000E+00  0.51197757949E+03  0.51197757949E+03  0.00000000000E+00 0.  1.
         21   -1    0    0  502  503 -0.00000000000E+00 -0.00000000000E+00 -0.79899001592E+03  0.79899001592E+03  0.00000000000E+00 0. -1.
          6    1    1    2  501    0 -0.38745206507E+03 -0.13345679613E+03  0.32749182086E+03  0.55236737041E+03  0.17300000000E+03 0.  1.
         -6    1    1    2    0  503  0.38745206507E+03  0.13345679613E+03 -0.61450425729E+03  0.75860022501E+03  0.17300000000E+03 0. -1.
<mgrwt>
<rscale>  2 0.44481324E+03</rscale>
<asrwt>0</asrwt>
<pdfrwt beam="1">  1       21 0.78765782E-01 0.44481324E+03</pdfrwt>
<pdfrwt beam="2">  1       21 0.12292154E+00 0.44481324E+03</pdfrwt>
<totfact> 0.59602227E+02</totfact>
</mgrwt>
</event>
<event>
 4    1  0.4332500E+000  0.1984384E+03  0.7546771E-02  0.1151063E+00
         21   -1    0    0  501  502  0.00000000000E+00  0.00000000000E+00  0.19493328085E+03  0.19493328085E+03  0.00000000000E+00 0. -1.
         21   -1    0    0  502  503 -0.00000000000E+00 -0.00000000000E+00 -0.31129309298E+03  0.31129309298E+03  0.00000000000E+00 0. -1.
          6    1    1    2  501    0 -0.96960824155E+02 -0.68844750806E+01  0.91793203237E+02  0.21864077748E+03  0.17300000000E+03 0. -1.
         -6    1    1    2    0  503  0.96960824155E+02  0.68844750806E+01 -0.20815301537E+03  0.28758559635E+03  0.17300000000E+03 0. -1.
<mgrwt>
<rscale>  2 0.19843840E+03</rscale>
<asrwt>0</asrwt>
<pdfrwt beam="1">  1       21 0.29989736E-01 0.19843840E+03</pdfrwt>
<pdfrwt beam="2">  1       21 0.47891244E-01 0.19843840E+03</pdfrwt>
<totfact> 0.44309903E+04</totfact>
</mgrwt>
</event>
<event>
 4    1  0.4332500E+000  0.2589697E+03  0.7546771E-02  0.1107764E+00
         21   -1    0    0  503  502  0.00000000000E+00  0.00000000000E+00  0.97213526906E+02  0.97213526906E+02  0.00000000000E+00 0. -1.
         21   -1    0    0  501  503 -0.00000000000E+00 -0.00000000000E+00 -0.69263448383E+03  0.69263448383E+03  0.00000000000E+00 0. -1.
          6    1    1    2  501    0  0.15261026611E+03 -0.11767080682E+03 -0.32263173673E+03  0.41371070767E+03  0.17300000000E+03 0. -1.
         -6    1    1    2    0  502 -0.15261026611E+03  0.11767080682E+03 -0.27278922020E+03  0.37613730307E+03  0.17300000000E+03 0. -1.
<mgrwt>
<rscale>  2 0.25896971E+03</rscale>
<asrwt>0</asrwt>
<pdfrwt beam="1">  1       21 0.14955927E-01 0.25896971E+03</pdfrwt>
<pdfrwt beam="2">  1       21 0.10655915E+00 0.25896971E+03</pdfrwt>
<totfact> 0.26855405E+04</totfact>
</mgrwt>
</event>
<event>
 4    1  0.4332500E+000  0.1811824E+03  0.7546771E-02  0.1166664E+00
         21   -1    0    0  503  502  0.00000000000E+00  0.00000000000E+00  0.42752132502E+03  0.42752132502E+03  0.00000000000E+00 0.  1.
         21   -1    0    0  501  503 -0.00000000000E+00 -0.00000000000E+00 -0.25607495742E+03  0.25607495742E+03  0.00000000000E+00 0.  1.
          6    1    1    2  501    0 -0.30995532764E+02 -0.44015101554E+02 -0.20027588124E+03  0.27006940001E+03  0.17300000000E+03 0.  1.
         -6    1    1    2    0  502  0.30995532764E+02  0.44015101554E+02  0.37172224884E+03  0.41352688243E+03  0.17300000000E+03 0.  1.
<mgrwt>
<rscale>  2 0.18118237E+03</rscale>
<asrwt>0</asrwt>
<pdfrwt beam="1">  1       21 0.65772512E-01 0.18118237E+03</pdfrwt>
<pdfrwt beam="2">  1       21 0.39396147E-01 0.18118237E+03</pdfrwt>
<totfact> 0.13292856E+04</totfact>
</mgrwt>
</event>
<event>
 4    1  0.4332500E+000  0.1883602E+03  0.7546771E-02  0.1159949E+00
         21   -1    0    0  501  502  0.00000000000E+00  0.00000000000E+00  0.49809279165E+03  0.49809279165E+03  0.00000000000E+00 0. -1.
         21   -1    0    0  502  503 -0.00000000000E+00 -0.00000000000E+00 -0.17253257423E+03  0.17253257423E+03  0.00000000000E+00 0. -1.
          6    1    1    2  501    0  0.56676507469E+02 -0.48356330735E+02  0.41971488993E+03  0.46004363929E+03  0.17300000000E+03 0. -1.
         -6    1    1    2    0  503 -0.56676507469E+02  0.48356330735E+02 -0.94154672501E+02  0.21058172659E+03  0.17300000000E+03 0. -1.
<mgrwt>
<rscale>  2 0.18836019E+03</rscale>
<asrwt>0</asrwt>
<pdfrwt beam="1">  1       21 0.76629660E-01 0.18836019E+03</pdfrwt>
<pdfrwt beam="2">  1       21 0.26543473E-01 0.18836019E+03</pdfrwt>
<totfact> 0.20516178E+04</totfact>
</mgrwt>
</event>
<event>
 4    1  0.4332500E+000  0.1816533E+03  0.7546771E-02  0.1166213E+00
         21   -1    0    0  501  502  0.00000000000E+00  0.00000000000E+00  0.94953160505E+02  0.94953160505E+02  0.00000000000E+00 0. -1.
         21   -1    0    0  502  503 -0.00000000000E+00 -0.00000000000E+00 -0.37880341750E+03  0.37880341750E+03  0.00000000000E+00 0. -1.
          6    1    1    2  501    0 -0.29082982668E+02  0.47149685877E+02 -0.73849645912E+02  0.19609100683E+03  0.17300000000E+03 0. -1.
         -6    1    1    2    0  503  0.29082982668E+02 -0.47149685877E+02 -0.21000061109E+03  0.27766557117E+03  0.17300000000E+03 0. -1.
<mgrwt>
<rscale>  2 0.18165328E+03</rscale>
<asrwt>0</asrwt>
<pdfrwt beam="1">  1       21 0.14608178E-01 0.18165328E+03</pdfrwt>
<pdfrwt beam="2">  1       21 0.58277450E-01 0.18165328E+03</pdfrwt>
<totfact> 0.11398510E+05</totfact>
</mgrwt>
</event>
<event>
 4    1  0.4332500E+000  0.2020859E+03  0.7546771E-02  0.1147991E+00
         21   -1    0    0  501  502  0.00000000000E+00  0.00000000000E+00  0.73876565788E+02  0.73876565788E+02  0.00000000000E+00 0. -1.
         21   -1    0    0  502  503 -0.00000000000E+00 -0.00000000000E+00 -0.13257634585E+04  0.13257634585E+04  0.00000000000E+00 0. -1.
          6    1    1    2  501    0 -0.68983787748E+02 -0.78428013239E+02 -0.91583663143E+02  0.22186997000E+03  0.17300000000E+03 0. -1.
         -6    1    1    2    0  503  0.68983787748E+02  0.78428013239E+02 -0.11603032296E+04  0.11777700543E+04  0.17300000000E+03 0. -1.
<mgrwt>
<rscale>  2 0.20208591E+03</rscale>
<asrwt>0</asrwt>
<pdfrwt beam="1">  1       21 0.11365624E-01 0.20208591E+03</pdfrwt>
<pdfrwt beam="2">  1       21 0.20396363E+00 0.20208591E+03</pdfrwt>
<totfact> 0.81232239E+03</totfact>
</mgrwt>
</event>
<event>
 4    1  0.4332500E+000  0.1995841E+03  0.7546771E-02  0.1150090E+00
         21   -1    0    0  503  502  0.00000000000E+00  0.00000000000E+00  0.46268423749E+02  0.46268423749E+02  0.00000000000E+00 0.  1.
         21   -1    0    0  501  503 -0.00000000000E+00 -0.00000000000E+00 -0.99474193084E+03  0.99474193084E+03  0.00000000000E+00 0.  1.
          6    1    1    2  501    0  0.86257569378E+02 -0.49643279209E+02 -0.66514251482E+03  0.69444106191E+03  0.17300000000E+03 0.  1.
         -6    1    1    2    0  502 -0.86257569378E+02  0.49643279209E+02 -0.28333099227E+03  0.34656929267E+03  0.17300000000E+03 0.  1.
<mgrwt>
<rscale>  2 0.19958413E+03</rscale>
<asrwt>0</asrwt>
<pdfrwt beam="1">  1       21 0.71182193E-02 0.19958413E+03</pdfrwt>
<pdfrwt beam="2">  1       21 0.15303721E+00 0.19958413E+03</pdfrwt>
<totfact> 0.41488670E+04</totfact>
</mgrwt>
</event>
<event>
 4    1  0.4332500E+000  0.1773548E+03  0.7546771E-02  0.1170388E+00
         21   -1    0    0  503  502  0.00000000000E+00  0.00000000000E+00  0.38854218245E+02  0.38854218245E+02  0.00000000000E+00 0. -1.
         21   -1    0    0  501  503 -0.00000000000E+00 -0.00000000000E+00 -0.15321723029E+04  0.15321723029E+04  0.00000000000E+00 0. -1.
          6    1    1    2  501    0  0.37420985937E+02 -0.11197224734E+02 -0.12861116119E+04  0.12982826296E+04  0.17300000000E+03 0. -1.
         -6    1    1    2    0  502 -0.37420985937E+02  0.11197224734E+02 -0.20720647276E+03  0.27274389156E+03  0.17300000000E+03 0. -1.
<mgrwt>
<rscale>  2 0.17735475E+03</rscale>
<asrwt>0</asrwt>
<pdfrwt beam="1">  1       21 0.59775724E-02 0.17735475E+03</pdfrwt>
<pdfrwt beam="2">  1       21 0.23571880E+00 0.17735475E+03</pdfrwt>
<totfact> 0.16254100E+04</totfact>
</mgrwt>
</event>
<event>
 4    1  0.4332500E+000  0.5526771E+03  0.7546771E-02  0.1000876E+00
         21   -1    0    0  501  502  0.00000000000E+00  0.00000000000E+00  0.39848108580E+03  0.39848108580E+03  0.00000000000E+00 0. -1.
         21   -1    0    0  502  503 -0.00000000000E+00 -0.00000000000E+00 -0.93886071567E+03  0.93886071567E+03  0.00000000000E+00 0.  1.
          6    1    1    2  501    0 -0.51668530414E+03  0.92516397414E+02  0.16280515925E+02  0.55291684954E+03  0.17300000000E+03 0. -1.
         -6    1    1    2    0  503  0.51668530414E+03 -0.92516397414E+02 -0.55666014580E+03  0.78442495194E+03  0.17300000000E+03 0.  1.
<mgrwt>
<rscale>  2 0.55267711E+03</rscale>
<asrwt>0</asrwt>
<pdfrwt beam="1">  1       21 0.61304783E-01 0.55267711E+03</pdfrwt>
<pdfrwt beam="2">  1       21 0.14444011E+00 0.55267711E+03</pdfrwt>
<totfact> 0.65759257E+02</totfact>
</mgrwt>
</event>
<event>
 4    1  0.4332500E+000  0.3490817E+03  0.7546771E-02  0.1062993E+00
         21   -1    0    0  501  502  0.00000000000E+00  0.00000000000E+00  0.31623395674E+03  0.31623395674E+03  0.00000000000E+00 0.  1.
         21   -1    0    0  502  503 -0.00000000000E+00 -0.00000000000E+00 -0.38733118593E+03  0.38733118593E+03  0.00000000000E+00 0. -1.
          6    1    1    2  501    0  0.29973592977E+03 -0.45688290228E+02 -0.60762058940E+02  0.35433046054E+03  0.17300000000E+03 0. -1.
         -6    1    1    2    0  503 -0.29973592977E+03  0.45688290228E+02 -0.10335170247E+02  0.34923468213E+03  0.17300000000E+03 0.  1.
<mgrwt>
<rscale>  2 0.34908172E+03</rscale>
<asrwt>0</asrwt>
<pdfrwt beam="1">  1       21 0.48651378E-01 0.34908172E+03</pdfrwt>
<pdfrwt beam="2">  1       21 0.59589413E-01 0.34908172E+03</pdfrwt>
<totfact> 0.97829463E+03</totfact>
</mgrwt>
</event>
<event>
 4    1  0.4332500E+000  0.2366485E+03  0.7546771E-02  0.1122046E+00
         21   -1    0    0  503  502  0.00000000000E+00  0.00000000000E+00  0.64701416951E+02  0.64701416951E+02  0.00000000000E+00 0.  1.
         21   -1    0    0  501  503 -0.00000000000E+00 -0.00000000000E+00 -0.11165937335E+04  0.11165937335E+04  0.00000000000E+00 0.  1.
          6    1    1    2  501    0  0.15912194202E+03  0.27454270617E+02 -0.80600714259E+03  0.84002978716E+03  0.17300000000E+03 0.  1.
         -6    1    1    2    0  502 -0.15912194202E+03 -0.27454270617E+02 -0.24588517393E+03  0.34126536327E+03  0.17300000000E+03 0.  1.
<mgrwt>
<rscale>  2 0.23664854E+03</rscale>
<asrwt>0</asrwt>
<pdfrwt beam="1">  1       21 0.99540644E-02 0.23664854E+03</pdfrwt>
<pdfrwt beam="2">  1       21 0.17178365E+00 0.23664854E+03</pdfrwt>
<totfact> 0.16459596E+04</totfact>
</mgrwt>
</event>
<event>
 4    1  0.4332500E+000  0.1782763E+03  0.7546771E-02  0.1169482E+00
         21   -1    0    0  503  502  0.00000000000E+00  0.00000000000E+00  0.43784793215E+03  0.43784793215E+03  0.00000000000E+00 0. -1.
         21   -1    0    0  501  503 -0.00000000000E+00 -0.00000000000E+00 -0.75652681100E+02  0.75652681100E+02  0.00000000000E+00 0.  1.
          6    1    1    2  501    0  0.39138934213E+02  0.17932679308E+02  0.12942000063E+03  0.22029973609E+03  0.17300000000E+03 0.  1.
         -6    1    1    2    0  502 -0.39138934213E+02 -0.17932679308E+02  0.23277525042E+03  0.29320087716E+03  0.17300000000E+03 0. -1.
<mgrwt>
<rscale>  2 0.17827629E+03</rscale>
<asrwt>0</asrwt>
<pdfrwt beam="1">  1       21 0.67361219E-01 0.17827629E+03</pdfrwt>
<pdfrwt beam="2">  1       21 0.11638874E-01 0.17827629E+03</pdfrwt>
<totfact> 0.12559714E+05</totfact>
</mgrwt>
</event>
<event>
 4    1  0.4332500E+000  0.2160824E+03  0.7546771E-02  0.1136838E+00
         21   -1    0    0  503  502  0.00000000000E+00  0.00000000000E+00  0.21822828275E+03  0.21822828275E+03  0.00000000000E+00 0. -1.
         21   -1    0    0  501  503 -0.00000000000E+00 -0.00000000000E+00 -0.61891925528E+03  0.61891925528E+03  0.00000000000E+00 0. -1.
          6    1    1    2  501    0 -0.42003291062E+02  0.12246761492E+03 -0.53892601505E+03  0.58063141739E+03  0.17300000000E+03 0. -1.
         -6    1    1    2    0  502  0.42003291062E+02 -0.12246761492E+03  0.13823504252E+03  0.25651612064E+03  0.17300000000E+03 0. -1.
<mgrwt>
<rscale>  2 0.21608238E+03</rscale>
<asrwt>0</asrwt>
<pdfrwt beam="1">  1       21 0.33573582E-01 0.21608238E+03</pdfrwt>
<pdfrwt beam="2">  1       21 0.95218345E-01 0.21608238E+03</pdfrwt>
<totfact> 0.77424584E+03</totfact>
</mgrwt>
</event>
<event>
 4    1  0.4332500E+000  0.2689228E+03  0.7546771E-02  0.1101898E+00
         21   -1    0    0  503  502  0.00000000000E+00  0.00000000000E+00  0.18572350216E+03  0.18572350216E+03  0.00000000000E+00 0.  1.
         21   -1    0    0  501  503 -0.00000000000E+00 -0.00000000000E+00 -0.41164295022E+03  0.41164295022E+03  0.00000000000E+00 0.  1.
          6    1    1    2  501    0  0.70866372092E+02 -0.19330921812E+03 -0.43519420939E+02  0.27242143180E+03  0.17300000000E+03 0.  1.
         -6    1    1    2    0  502 -0.70866372092E+02  0.19330921812E+03 -0.18240002712E+03  0.32494502058E+03  0.17300000000E+03 0.  1.
<mgrwt>
<rscale>  2 0.26892284E+03</rscale>
<asrwt>0</asrwt>
<pdfrwt beam="1">  1       21 0.28572846E-01 0.26892284E+03</pdfrwt>
<pdfrwt beam="2">  1       21 0.63329685E-01 0.26892284E+03</pdfrwt>
<totfact> 0.26009861E+04</totfact>
</mgrwt>
</event>
<event>
 4    1  0.4332500E+000  0.1882346E+03  0.7546771E-02  0.1160063E+00
         21   -1    0    0  503  502  0.00000000000E+00  0.00000000000E+00  0.37683531672E+03  0.37683531672E+03  0.00000000000E+00 0. -1.
         21   -1    0    0  501  503 -0.00000000000E+00 -0.00000000000E+00 -0.10844432324E+03  0.10844432324E+03  0.00000000000E+00 0. -1.
          6    1    1    2  501    0 -0.12933567209E+02 -0.73047811870E+02  0.45720951106E+02  0.19370768015E+03  0.17300000000E+03 0. -1.
         -6    1    1    2    0  502  0.12933567209E+02  0.73047811870E+02  0.22267004237E+03  0.29157195981E+03  0.17300000000E+03 0. -1.
<mgrwt>
<rscale>  2 0.18823459E+03</rscale>
<asrwt>0</asrwt>
<pdfrwt beam="1">  1       21 0.57974663E-01 0.18823459E+03</pdfrwt>
<pdfrwt beam="2">  1       21 0.16683742E-01 0.18823459E+03</pdfrwt>
<totfact> 0.90218987E+04</totfact>
</mgrwt>
</event>
<event>
 4    1  0.4332500E+000  0.2020884E+03  0.7546771E-02  0.1147989E+00
         21   -1    0    0  503  502  0.00000000000E+00  0.00000000000E+00  0.29229483501E+03  0.29229483501E+03  0.00000000000E+00 0. -1.
         21   -1    0    0  501  503 -0.00000000000E+00 -0.00000000000E+00 -0.17305045495E+03  0.17305045495E+03  0.00000000000E+00 0. -1.
          6    1    1    2  501    0 -0.10266616804E+03  0.19245346856E+02 -0.42488941038E+02  0.20650674455E+03  0.17300000000E+03 0. -1.
         -6    1    1    2    0  502  0.10266616804E+03 -0.19245346856E+02  0.16173332110E+03  0.25883854541E+03  0.17300000000E+03 0. -1.
<mgrwt>
<rscale>  2 0.20208841E+03</rscale>
<asrwt>0</asrwt>
<pdfrwt beam="1">  1       21 0.44968436E-01 0.20208841E+03</pdfrwt>
<pdfrwt beam="2">  1       21 0.26623147E-01 0.20208841E+03</pdfrwt>
<totfact> 0.63443953E+04</totfact>
</mgrwt>
</event>
<event>
 4    1  0.4332500E+000  0.2034284E+03  0.7546771E-02  0.1146878E+00
         21   -1    0    0  501  502  0.00000000000E+00  0.00000000000E+00  0.10783059252E+03  0.10783059252E+03  0.00000000000E+00 0.  1.
         21   -1    0    0  502  503 -0.00000000000E+00 -0.00000000000E+00 -0.39648406704E+03  0.39648406704E+03  0.00000000000E+00 0. -1.
          6    1    1    2  501    0 -0.10152635856E+02 -0.10654124051E+03 -0.18946532880E+03  0.27799320632E+03  0.17300000000E+03 0.  1.
         -6    1    1    2    0  503  0.10152635856E+02  0.10654124051E+03 -0.99188145725E+02  0.22632145324E+03  0.17300000000E+03 0.  1.
<mgrwt>
<rscale>  2 0.20342840E+03</rscale>
<asrwt>0</asrwt>
<pdfrwt beam="1">  1       21 0.16589322E-01 0.20342840E+03</pdfrwt>
<pdfrwt beam="2">  1       21 0.60997549E-01 0.20342840E+03</pdfrwt>
<totfact> 0.81227903E+04</totfact>
</mgrwt>
</event>
<event>
 4    1  0.4332500E+000  0.1831909E+03  0.7546771E-02  0.1164750E+00
         21   -1    0    0  503  502  0.00000000000E+00  0.00000000000E+00  0.49919716481E+03  0.49919716481E+03  0.00000000000E+00 0.  1.
         21   -1    0    0  501  503 -0.00000000000E+00 -0.00000000000E+00 -0.83440778057E+02  0.83440778057E+02  0.00000000000E+00 0.  1.
          6    1    1    2  501    0  0.23281698235E+02 -0.55568510416E+02  0.79456428263E+02  0.19968029651E+03  0.17300000000E+03 0.  1.
         -6    1    1    2    0  502 -0.23281698235E+02  0.55568510416E+02  0.33629995849E+03  0.38295764636E+03  0.17300000000E+03 0.  1.
<mgrwt>
<rscale>  2 0.18319088E+03</rscale>
<asrwt>0</asrwt>
<pdfrwt beam="1">  1       21 0.76799562E-01 0.18319088E+03</pdfrwt>
<pdfrwt beam="2">  1       21 0.12837043E-01 0.18319088E+03</pdfrwt>
<totfact> 0.78713570E+04</totfact>
</mgrwt>
</event>
<event>
 4    1  0.4332500E+000  0.3234140E+03  0.7546771E-02  0.1074089E+00
         21   -1    0    0  501  502  0.00000000000E+00  0.00000000000E+00  0.12570452448E+04  0.12570452448E+04  0.00000000000E+00 0.  1.
         21   -1    0    0  502  503 -0.00000000000E+00 -0.00000000000E+00 -0.14339614804E+03  0.14339614804E+03  0.00000000000E+00 0. -1.
          6    1    1    2  501    0  0.25707019728E+03  0.92642107874E+02  0.10104740820E+04  0.10609686691E+04  0.17300000000E+03 0.  1.
         -6    1    1    2    0  503 -0.25707019728E+03 -0.92642107874E+02  0.10317501478E+03  0.33947272373E+03  0.17300000000E+03 0. -1.
<mgrwt>
<rscale>  2 0.32341405E+03</rscale>
<asrwt>0</asrwt>
<pdfrwt beam="1">  1       21 0.19339157E+00 0.32341405E+03</pdfrwt>
<pdfrwt beam="2">  1       21 0.22060947E-01 0.32341405E+03</pdfrwt>
<totfact> 0.25744054E+03</totfact>
</mgrwt>
</event>
<event>
 4    1  0.4332500E+000  0.2470908E+03  0.7546771E-02  0.1115157E+00
         21   -1    0    0  503  502  0.00000000000E+00  0.00000000000E+00  0.46554600811E+03  0.46554600811E+03  0.00000000000E+00 0. -1.
         21   -1    0    0  501  503 -0.00000000000E+00 -0.00000000000E+00 -0.13292200508E+03  0.13292200508E+03  0.00000000000E+00 0. -1.
          6    1    1    2  501    0  0.12163888434E+03  0.12778439554E+03  0.13171016293E+03  0.28000256597E+03  0.17300000000E+03 0. -1.
         -6    1    1    2    0  502 -0.12163888434E+03 -0.12778439554E+03  0.20091384010E+03  0.31846544722E+03  0.17300000000E+03 0. -1.
<mgrwt>
<rscale>  2 0.24709081E+03</rscale>
<asrwt>0</asrwt>
<pdfrwt beam="1">  1       21 0.71622462E-01 0.24709081E+03</pdfrwt>
<pdfrwt beam="2">  1       21 0.20449540E-01 0.24709081E+03</pdfrwt>
<totfact> 0.37990713E+04</totfact>
</mgrwt>
</event>
<event>
 4    1  0.4332500E+000  0.1774594E+03  0.7546771E-02  0.1170285E+00
         21   -1    0    0  501  502  0.00000000000E+00  0.00000000000E+00  0.44618990201E+03  0.44618990201E+03  0.00000000000E+00 0. -1.
         21   -1    0    0  502  503 -0.00000000000E+00 -0.00000000000E+00 -0.84814228573E+02  0.84814228573E+02  0.00000000000E+00 0. -1.
          6    1    1    2  501    0 -0.26349775662E+02  0.29470607687E+02  0.28945787015E+03  0.33952567795E+03  0.17300000000E+03 0. -1.
         -6    1    1    2    0  503  0.26349775662E+02 -0.29470607687E+02  0.71917803294E+02  0.19147845264E+03  0.17300000000E+03 0. -1.
<mgrwt>
<rscale>  2 0.17745937E+03</rscale>
<asrwt>0</asrwt>
<pdfrwt beam="1">  1       21 0.68644599E-01 0.17745937E+03</pdfrwt>
<pdfrwt beam="2">  1       21 0.13048343E-01 0.17745937E+03</pdfrwt>
<totfact> 0.98254319E+04</totfact>
</mgrwt>
</event>
<event>
 4    1  0.4332500E+000  0.1736029E+03  0.7546771E-02  0.1174142E+00
         21   -1    0    0  501  502  0.00000000000E+00  0.00000000000E+00  0.66320451605E+03  0.66320451605E+03  0.00000000000E+00 0. -1.
         21   -1    0    0  502  503 -0.00000000000E+00 -0.00000000000E+00 -0.90077007870E+02  0.90077007870E+02  0.00000000000E+00 0. -1.
          6    1    1    2  501    0 -0.14374592596E+02 -0.15260430230E+01  0.55169054653E+03  0.57836011001E+03  0.17300000000E+03 0. -1.
         -6    1    1    2    0  503  0.14374592596E+02  0.15260430230E+01  0.21436961649E+02  0.17492141391E+03  0.17300000000E+03 0. -1.
<mgrwt>
<rscale>  2 0.17360287E+03</rscale>
<asrwt>0</asrwt>
<pdfrwt beam="1">  1       21 0.10203146E+00 0.17360287E+03</pdfrwt>
<pdfrwt beam="2">  1       21 0.13858002E-01 0.17360287E+03</pdfrwt>
<totfact> 0.35818393E+04</totfact>
</mgrwt>
</event>
<event>
 4    1  0.4332500E+000  0.1905832E+03  0.7546771E-02  0.1157936E+00
         21   -1    0    0  503  502  0.00000000000E+00  0.00000000000E+00  0.23560630058E+03  0.23560630058E+03  0.00000000000E+00 0. -1.
         21   -1    0    0  501  503 -0.00000000000E+00 -0.00000000000E+00 -0.19338958058E+03  0.19338958058E+03  0.00000000000E+00 0. -1.
          6    1    1    2  501    0 -0.20860329707E+02  0.77186776091E+02 -0.75495091444E+02  0.20499136711E+03  0.17300000000E+03 0. -1.
         -6    1    1    2    0  502  0.20860329707E+02 -0.77186776091E+02  0.11771181144E+03  0.22400451404E+03  0.17300000000E+03 0. -1.
<mgrwt>
<rscale>  2 0.19058319E+03</rscale>
<asrwt>0</asrwt>
<pdfrwt beam="1">  1       21 0.36247123E-01 0.19058319E+03</pdfrwt>
<pdfrwt beam="2">  1       21 0.29752243E-01 0.19058319E+03</pdfrwt>
<totfact> 0.79559451E+04</totfact>
</mgrwt>
</event>
<event>
 4    1  0.4332500E+000  0.1866315E+03  0.7546771E-02  0.1161535E+00
         21   -1    0    0  503  502  0.00000000000E+00  0.00000000000E+00  0.11110333716E+03  0.11110333716E+03  0.00000000000E+00 0.  1.
         21   -1    0    0  501  503 -0.00000000000E+00 -0.00000000000E+00 -0.32723545590E+03  0.32723545590E+03  0.00000000000E+00 0.  1.
          6    1    1    2  501    0 -0.15084318560E+02 -0.68372377938E+02 -0.63169698234E+02  0.19703230574E+03  0.17300000000E+03 0.  1.
         -6    1    1    2    0  502  0.15084318560E+02  0.68372377938E+02 -0.15296242050E+03  0.24130648731E+03  0.17300000000E+03 0.  1.
<mgrwt>
<rscale>  2 0.18663151E+03</rscale>
<asrwt>0</asrwt>
<pdfrwt beam="1">  1       21 0.17092821E-01 0.18663151E+03</pdfrwt>
<pdfrwt beam="2">  1       21 0.50343915E-01 0.18663151E+03</pdfrwt>
<totfact> 0.11626818E+05</totfact>
</mgrwt>
</event>
<event>
 4    1  0.4332500E+000  0.2063624E+03  0.7546771E-02  0.1144479E+00
         21   -1    0    0  503  502  0.00000000000E+00  0.00000000000E+00  0.42025842724E+03  0.42025842724E+03  0.00000000000E+00 0.  1.
         21   -1    0    0  501  503 -0.00000000000E+00 -0.00000000000E+00 -0.12215101877E+03  0.12215101877E+03  0.00000000000E+00 0. -1.
          6    1    1    2  501    0 -0.14860109676E+02  0.11151507625E+03  0.37088367189E+02  0.20966874367E+03  0.17300000000E+03 0. -1.
         -6    1    1    2    0  502  0.14860109676E+02 -0.11151507625E+03  0.26101904128E+03  0.33274070235E+03  0.17300000000E+03 0.  1.
<mgrwt>
<rscale>  2 0.20636239E+03</rscale>
<asrwt>0</asrwt>
<pdfrwt beam="1">  1       21 0.64655142E-01 0.20636239E+03</pdfrwt>
<pdfrwt beam="2">  1       21 0.18792465E-01 0.20636239E+03</pdfrwt>
<totfact> 0.56782694E+04</totfact>
</mgrwt>
</event>
<event>
 4    1  0.4332500E+000  0.2217370E+03  0.7546771E-02  0.1132595E+00
         21   -1    0    0  503  502  0.00000000000E+00  0.00000000000E+00  0.38328898373E+02  0.38328898373E+02  0.00000000000E+00 0.  1.
         21   -1    0    0  501  503 -0.00000000000E+00 -0.00000000000E+00 -0.16720215020E+04  0.16720215020E+04  0.00000000000E+00 0. -1.
          6    1    1    2  501    0 -0.38003928496E+02 -0.13339408056E+03 -0.12294637559E+04  0.12492991661E+04  0.17300000000E+03 0. -1.
         -6    1    1    2    0  502  0.38003928496E+02  0.13339408056E+03 -0.40422884776E+03  0.46105123432E+03  0.17300000000E+03 0.  1.
<mgrwt>
<rscale>  2 0.22173696E+03</rscale>
<asrwt>0</asrwt>
<pdfrwt beam="1">  1       21 0.58967536E-02 0.22173696E+03</pdfrwt>
<pdfrwt beam="2">  1       21 0.25723408E+00 0.22173696E+03</pdfrwt>
<totfact> 0.11931737E+04</totfact>
</mgrwt>
</event>
<event>
 4    1  0.4332500E+000  0.2780960E+03  0.7546771E-02  0.1096733E+00
         21   -1    0    0  501  502  0.00000000000E+00  0.00000000000E+00  0.49594071657E+03  0.49594071657E+03  0.00000000000E+00 0. -1.
         21   -1    0    0  502  503 -0.00000000000E+00 -0.00000000000E+00 -0.47698278743E+03  0.47698278743E+03  0.00000000000E+00 0. -1.
          6    1    1    2  501    0 -0.16506215743E+03  0.14199604023E+03  0.40857578219E+03  0.49423836461E+03  0.17300000000E+03 0. -1.
         -6    1    1    2    0  503  0.16506215743E+03 -0.14199604023E+03 -0.38961785305E+03  0.47868513939E+03  0.17300000000E+03 0. -1.
<mgrwt>
<rscale>  2 0.27809601E+03</rscale>
<asrwt>0</asrwt>
<pdfrwt beam="1">  1       21 0.76298572E-01 0.27809601E+03</pdfrwt>
<pdfrwt beam="2">  1       21 0.73381967E-01 0.27809601E+03</pdfrwt>
<totfact> 0.23966974E+03</totfact>
</mgrwt>
</event>
<event>
 4    1  0.4332500E+000  0.1765666E+03  0.7546771E-02  0.1171168E+00
         21   -1    0    0  503  502  0.00000000000E+00  0.00000000000E+00  0.27941004296E+03  0.27941004296E+03  0.00000000000E+00 0.  1.
         21   -1    0    0  501  503 -0.00000000000E+00 -0.00000000000E+00 -0.10488700479E+04  0.10488700479E+04  0.00000000000E+00 0.  1.
          6    1    1    2  501    0 -0.35275880569E+02 -0.15374858396E+01 -0.10125519725E+04  0.10278313328E+04  0.17300000000E+03 0.  1.
         -6    1    1    2    0  502  0.35275880569E+02  0.15374858396E+01  0.24309196750E+03  0.30044875816E+03  0.17300000000E+03 0.  1.
<mgrwt>
<rscale>  2 0.17656656E+03</rscale>
<asrwt>0</asrwt>
<pdfrwt beam="1">  1       21 0.42986160E-01 0.17656656E+03</pdfrwt>
<pdfrwt beam="2">  1       21 0.16136463E+00 0.17656656E+03</pdfrwt>
<totfact> 0.13023705E+03</totfact>
</mgrwt>
</event>
<event>
 4    1  0.4332500E+000  0.1802453E+03  0.7546771E-02  0.1167566E+00
         21   -1    0    0  503  502  0.00000000000E+00  0.00000000000E+00  0.26570034045E+03  0.26570034045E+03  0.00000000000E+00 0. -1.
         21   -1    0    0  501  503 -0.00000000000E+00 -0.00000000000E+00 -0.21719403843E+03  0.21719403843E+03  0.00000000000E+00 0. -1.
          6    1    1    2  501    0 -0.43561347813E+02  0.25725185798E+02 -0.13536269846E+03  0.22541392225E+03  0.17300000000E+03 0. -1.
         -6    1    1    2    0  502  0.43561347813E+02 -0.25725185798E+02  0.18386900048E+03  0.25748045663E+03  0.17300000000E+03 0. -1.
<mgrwt>
<rscale>  2 0.18024532E+03</rscale>
<asrwt>0</asrwt>
<pdfrwt beam="1">  1       21 0.40876976E-01 0.18024532E+03</pdfrwt>
<pdfrwt beam="2">  1       21 0.33414467E-01 0.18024532E+03</pdfrwt>
<totfact> 0.50016270E+04</totfact>
</mgrwt>
</event>
<event>
 4    1  0.4332500E+000  0.2081100E+03  0.7546771E-02  0.1143071E+00
         21   -1    0    0  501  502  0.00000000000E+00  0.00000000000E+00  0.20730933929E+03  0.20730933929E+03  0.00000000000E+00 0. -1.
         21   -1    0    0  502  503 -0.00000000000E+00 -0.00000000000E+00 -0.20961025039E+03  0.20961025039E+03  0.00000000000E+00 0. -1.
          6    1    1    2  501    0  0.11559699032E+03 -0.42548259644E+01  0.10866166203E+02  0.20839347707E+03  0.17300000000E+03 0. -1.
         -6    1    1    2    0  503 -0.11559699032E+03  0.42548259644E+01 -0.13167077308E+02  0.20852611261E+03  0.17300000000E+03 0. -1.
<mgrwt>
<rscale>  2 0.20810999E+03</rscale>
<asrwt>0</asrwt>
<pdfrwt beam="1">  1       21 0.31893745E-01 0.20810999E+03</pdfrwt>
<pdfrwt beam="2">  1       21 0.32247731E-01 0.20810999E+03</pdfrwt>
<totfact> 0.86895543E+04</totfact>
</mgrwt>
</event>
<event>
 4    1  0.4332500E+000  0.1778432E+03  0.7546771E-02  0.1169907E+00
         21   -1    0    0  503  502  0.00000000000E+00  0.00000000000E+00  0.12824685792E+03  0.12824685792E+03  0.00000000000E+00 0. -1.
         21   -1    0    0  501  503 -0.00000000000E+00 -0.00000000000E+00 -0.66594078892E+03  0.66594078892E+03  0.00000000000E+00 0. -1.
          6    1    1    2  501    0 -0.29617364303E+02 -0.28670991016E+02 -0.58394712737E+03  0.61042809696E+03  0.17300000000E+03 0. -1.
         -6    1    1    2    0  502  0.29617364303E+02  0.28670991016E+02  0.46253196378E+02  0.18375954987E+03  0.17300000000E+03 0. -1.
<mgrwt>
<rscale>  2 0.17784323E+03</rscale>
<asrwt>0</asrwt>
<pdfrwt beam="1">  1       21 0.19730286E-01 0.17784323E+03</pdfrwt>
<pdfrwt beam="2">  1       21 0.10245243E+00 0.17784323E+03</pdfrwt>
<totfact> 0.18519217E+04</totfact>
</mgrwt>
</event>
<event>
 4    1  0.4332500E+000  0.2162418E+03  0.7546771E-02  0.1136716E+00
         21   -1    0    0  503  502  0.00000000000E+00  0.00000000000E+00  0.49518547797E+02  0.49518547797E+02  0.00000000000E+00 0. -1.
         21   -1    0    0  501  503 -0.00000000000E+00 -0.00000000000E+00 -0.96366830451E+03  0.96366830451E+03  0.00000000000E+00 0. -1.
          6    1    1    2  501    0 -0.27439502127E+02  0.12680136849E+03 -0.52888867831E+03  0.57138756320E+03  0.17300000000E+03 0. -1.
         -6    1    1    2    0  502  0.27439502127E+02 -0.12680136849E+03 -0.38526107840E+03  0.44179928911E+03  0.17300000000E+03 0. -1.
<mgrwt>
<rscale>  2 0.21624179E+03</rscale>
<asrwt>0</asrwt>
<pdfrwt beam="1">  1       21 0.76182383E-02 0.21624179E+03</pdfrwt>
<pdfrwt beam="2">  1       21 0.14825666E+00 0.21624179E+03</pdfrwt>
<totfact> 0.39722783E+04</totfact>
</mgrwt>
</event>
<event>
 4    1  0.4332500E+000  0.1992785E+03  0.7546771E-02  0.1150349E+00
         21   -1    0    0  503  502  0.00000000000E+00  0.00000000000E+00  0.37207214527E+03  0.37207214527E+03  0.00000000000E+00 0. -1.
         21   -1    0    0  501  503 -0.00000000000E+00 -0.00000000000E+00 -0.47610567944E+03  0.47610567944E+03  0.00000000000E+00 0. -1.
          6    1    1    2  501    0  0.24681580105E+02  0.95779615855E+02 -0.42555783018E+03  0.46990571612E+03  0.17300000000E+03 0. -1.
         -6    1    1    2    0  502 -0.24681580105E+02 -0.95779615855E+02  0.32152429601E+03  0.37827210859E+03  0.17300000000E+03 0. -1.
<mgrwt>
<rscale>  2 0.19927849E+03</rscale>
<asrwt>0</asrwt>
<pdfrwt beam="1">  1       21 0.57241869E-01 0.19927849E+03</pdfrwt>
<pdfrwt beam="2">  1       21 0.73247027E-01 0.19927849E+03</pdfrwt>
<totfact> 0.47776087E+03</totfact>
</mgrwt>
</event>
<event>
 4    1  0.4332500E+000  0.4080010E+03  0.7546771E-02  0.1041044E+00
         21   -1    0    0  501  502  0.00000000000E+00  0.00000000000E+00  0.11596211356E+03  0.11596211356E+03  0.00000000000E+00 0. -1.
         21   -1    0    0  502  503 -0.00000000000E+00 -0.00000000000E+00 -0.15081321325E+04  0.15081321325E+04  0.00000000000E+00 0. -1.
          6    1    1    2  501    0 -0.26736541952E+02  0.36853899603E+03 -0.51789043752E+03  0.65929912752E+03  0.17300000000E+03 0. -1.
         -6    1    1    2    0  503  0.26736541952E+02 -0.36853899603E+03 -0.87427958137E+03  0.96479511849E+03  0.17300000000E+03 0. -1.
<mgrwt>
<rscale>  2 0.40800102E+03</rscale>
<asrwt>0</asrwt>
<pdfrwt beam="1">  1       21 0.17840324E-01 0.40800102E+03</pdfrwt>
<pdfrwt beam="2">  1       21 0.23202034E+00 0.40800102E+03</pdfrwt>
<totfact> 0.20729974E+03</totfact>
</mgrwt>
</event>
<event>
 4    1  0.4332500E+000  0.1969098E+03  0.7546771E-02  0.1152373E+00
         21   -1    0    0  503  502  0.00000000000E+00  0.00000000000E+00  0.81933271681E+03  0.81933271681E+03  0.00000000000E+00 0. -1.
         21   -1    0    0  501  503 -0.00000000000E+00 -0.00000000000E+00 -0.49629386212E+02  0.49629386212E+02  0.00000000000E+00 0. -1.
          6    1    1    2  501    0  0.32729804534E+02 -0.88165859250E+02  0.29119318613E+03  0.35152088202E+03  0.17300000000E+03 0. -1.
         -6    1    1    2    0  502 -0.32729804534E+02  0.88165859250E+02  0.47851014447E+03  0.51744122101E+03  0.17300000000E+03 0. -1.
<mgrwt>
<rscale>  2 0.19690977E+03</rscale>
<asrwt>0</asrwt>
<pdfrwt beam="1">  1       21 0.12605118E+00 0.19690977E+03</pdfrwt>
<pdfrwt beam="2">  1       21 0.76352908E-02 0.19690977E+03</pdfrwt>
<totfact> 0.60659300E+04</totfact>
</mgrwt>
</event>
<event>
 4    1  0.4332500E+000  0.1754014E+03  0.7546771E-02  0.1172329E+00
         21   -1    0    0  503  502  0.00000000000E+00  0.00000000000E+00  0.19410824753E+03  0.19410824753E+03  0.00000000000E+00 0. -1.
         21   -1    0    0  501  503 -0.00000000000E+00 -0.00000000000E+00 -0.18380626969E+03  0.18380626969E+03  0.00000000000E+00 0. -1.
          6    1    1    2  501    0  0.11871092827E+02  0.26376917395E+02 -0.64965354681E+02  0.18704588187E+03  0.17300000000E+03 0. -1.
         -6    1    1    2    0  502 -0.11871092827E+02 -0.26376917395E+02  0.75267332525E+02  0.19086863535E+03  0.17300000000E+03 0. -1.
<mgrwt>
<rscale>  2 0.17540144E+03</rscale>
<asrwt>0</asrwt>
<pdfrwt beam="1">  1       21 0.29862807E-01 0.17540144E+03</pdfrwt>
<pdfrwt beam="2">  1       21 0.28277888E-01 0.17540144E+03</pdfrwt>
<totfact> 0.12927914E+05</totfact>
</mgrwt>
</event>
<event>
 4    1  0.4332500E+000  0.2605116E+03  0.7546771E-02  0.1106836E+00
         21   -1    0    0  501  502  0.00000000000E+00  0.00000000000E+00  0.20681125025E+04  0.20681125025E+04  0.00000000000E+00 0. -1.
         21   -1    0    0  502  503 -0.00000000000E+00 -0.00000000000E+00 -0.33599863344E+02  0.33599863344E+02  0.00000000000E+00 0.  1.
          6    1    1    2  501    0  0.14471726342E+03 -0.13036189900E+03  0.11778065951E+04  0.12062730564E+04  0.17300000000E+03 0. -1.
         -6    1    1    2    0  503 -0.14471726342E+03  0.13036189900E+03  0.85670604406E+03  0.89543930949E+03  0.17300000000E+03 0.  1.
<mgrwt>
<rscale>  2 0.26051163E+03</rscale>
<asrwt>0</asrwt>
<pdfrwt beam="1">  1       21 0.31817105E+00 0.26051163E+03</pdfrwt>
<pdfrwt beam="2">  1       21 0.51692114E-02 0.26051163E+03</pdfrwt>
<totfact> 0.63661975E+03</totfact>
</mgrwt>
</event>
<event>
 4    1  0.4332500E+000  0.1919429E+03  0.7546771E-02  0.1156721E+00
         21   -1    0    0  501  502  0.00000000000E+00  0.00000000000E+00  0.61653745227E+03  0.61653745227E+03  0.00000000000E+00 0.  1.
         21   -1    0    0  502  503 -0.00000000000E+00 -0.00000000000E+00 -0.87436339966E+02  0.87436339966E+02  0.00000000000E+00 0.  1.
          6    1    1    2  501    0 -0.61125121449E+02  0.56363196613E+02  0.46259500702E+03  0.50083553281E+03  0.17300000000E+03 0.  1.
         -6    1    1    2    0  503  0.61125121449E+02 -0.56363196613E+02  0.66506105292E+02  0.20313825943E+03  0.17300000000E+03 0.  1.
<mgrwt>
<rscale>  2 0.19194294E+03</rscale>
<asrwt>0</asrwt>
<pdfrwt beam="1">  1       21 0.94851913E-01 0.19194294E+03</pdfrwt>
<pdfrwt beam="2">  1       21 0.13451745E-01 0.19194294E+03</pdfrwt>
<totfact> 0.44454578E+04</totfact>
</mgrwt>
</event>
<event>
 4    1  0.4332500E+000  0.1815543E+03  0.7546771E-02  0.1166307E+00
         21   -1    0    0  501  502  0.00000000000E+00  0.00000000000E+00  0.13849927857E+03  0.13849927857E+03  0.00000000000E+00 0.  1.
         21   -1    0    0  502  503 -0.00000000000E+00 -0.00000000000E+00 -0.28430968055E+03  0.28430968055E+03  0.00000000000E+00 0.  1.
          6    1    1    2  501    0  0.48326852465E+02  0.26409728963E+02  0.12421253867E+02  0.18197869656E+03  0.17300000000E+03 0.  1.
         -6    1    1    2    0  503 -0.48326852465E+02 -0.26409728963E+02 -0.15823165584E+03  0.24083026256E+03  0.17300000000E+03 0.  1.
<mgrwt>
<rscale>  2 0.18155429E+03</rscale>
<asrwt>0</asrwt>
<pdfrwt beam="1">  1       21 0.21307581E-01 0.18155429E+03</pdfrwt>
<pdfrwt beam="2">  1       21 0.43739951E-01 0.18155429E+03</pdfrwt>
<totfact> 0.10339311E+05</totfact>
</mgrwt>
</event>
<event>
 4    1  0.4332500E+000  0.1973151E+03  0.7546771E-02  0.1152024E+00
         21   -1    0    0  503  502  0.00000000000E+00  0.00000000000E+00  0.74310846283E+02  0.74310846283E+02  0.00000000000E+00 0.  1.
         21   -1    0    0  501  503 -0.00000000000E+00 -0.00000000000E+00 -0.52427654747E+03  0.52427654747E+03  0.00000000000E+00 0.  1.
          6    1    1    2  501    0  0.62825200224E+02 -0.71114378510E+02 -0.23274032970E+03  0.30512509186E+03  0.17300000000E+03 0.  1.
         -6    1    1    2    0  502 -0.62825200224E+02  0.71114378510E+02 -0.21722537149E+03  0.29346230189E+03  0.17300000000E+03 0.  1.
<mgrwt>
<rscale>  2 0.19731513E+03</rscale>
<asrwt>0</asrwt>
<pdfrwt beam="1">  1       21 0.11432437E-01 0.19731513E+03</pdfrwt>
<pdfrwt beam="2">  1       21 0.80657934E-01 0.19731513E+03</pdfrwt>
<totfact> 0.86214106E+04</totfact>
</mgrwt>
</event>
<event>
 4    1  0.4332500E+000  0.1789308E+03  0.7546771E-02  0.1168842E+00
         21   -1    0    0  503  502  0.00000000000E+00  0.00000000000E+00  0.29495607232E+03  0.29495607232E+03  0.00000000000E+00 0. -1.
         21   -1    0    0  501  503 -0.00000000000E+00 -0.00000000000E+00 -0.55924395260E+03  0.55924395260E+03  0.00000000000E+00 0. -1.
          6    1    1    2  501    0 -0.17521829479E+02  0.42192418429E+02 -0.51556138685E+03  0.54572864896E+03  0.17300000000E+03 0. -1.
         -6    1    1    2    0  502  0.17521829479E+02 -0.42192418429E+02  0.25127350657E+03  0.30847137596E+03  0.17300000000E+03 0. -1.
<mgrwt>
<rscale>  2 0.17893075E+03</rscale>
<asrwt>0</asrwt>
<pdfrwt beam="1">  1       21 0.45377858E-01 0.17893075E+03</pdfrwt>
<pdfrwt beam="2">  1       21 0.86037530E-01 0.17893075E+03</pdfrwt>
<totfact> 0.54873486E+03</totfact>
</mgrwt>
</event>
<event>
 4    1  0.4332500E+000  0.2001363E+03  0.7546771E-02  0.1149624E+00
         21   -1    0    0  501  502  0.00000000000E+00  0.00000000000E+00  0.22279257129E+03  0.22279257129E+03  0.00000000000E+00 0.  1.
         21   -1    0    0  502  503 -0.00000000000E+00 -0.00000000000E+00 -0.30826149953E+03  0.30826149953E+03  0.00000000000E+00 0.  1.
          6    1    1    2  501    0 -0.69353777136E+02  0.72908185442E+02  0.12868595917E+03  0.23793828190E+03  0.17300000000E+03 0.  1.
         -6    1    1    2    0  503  0.69353777136E+02 -0.72908185442E+02 -0.21415488742E+03  0.29311578892E+03  0.17300000000E+03 0.  1.
<mgrwt>
<rscale>  2 0.20013633E+03</rscale>
<asrwt>0</asrwt>
<pdfrwt beam="1">  1       21 0.34275780E-01 0.20013633E+03</pdfrwt>
<pdfrwt beam="2">  1       21 0.47424846E-01 0.20013633E+03</pdfrwt>
<totfact> 0.34743949E+04</totfact>
</mgrwt>
</event>
<event>
 4    1  0.4332500E+000  0.4023665E+03  0.7546771E-02  0.1042963E+00
         21   -1    0    0  501  502  0.00000000000E+00  0.00000000000E+00  0.50569657551E+03  0.50569657551E+03  0.00000000000E+00 0. -1.
         21   -1    0    0  502  503 -0.00000000000E+00 -0.00000000000E+00 -0.32232269627E+03  0.32232269627E+03  0.00000000000E+00 0.  1.
          6    1    1    2  501    0  0.31109541900E+02  0.36194202306E+03  0.12567685523E+03  0.42153707262E+03  0.17300000000E+03 0. -1.
         -6    1    1    2    0  503 -0.31109541900E+02 -0.36194202306E+03  0.57697024013E+02  0.40648219916E+03  0.17300000000E+03 0.  1.
<mgrwt>
<rscale>  2 0.40236654E+03</rscale>
<asrwt>0</asrwt>
<pdfrwt beam="1">  1       21 0.77799474E-01 0.40236654E+03</pdfrwt>
<pdfrwt beam="2">  1       21 0.49588107E-01 0.40236654E+03</pdfrwt>
<totfact> 0.50784718E+03</totfact>
</mgrwt>
</event>
<event>
 4    1  0.4332500E+000  0.2658966E+03  0.7546771E-02  0.1103651E+00
         21   -1    0    0  501  502  0.00000000000E+00  0.00000000000E+00  0.26894498720E+03  0.26894498720E+03  0.00000000000E+00 0. -1.
         21   -1    0    0  502  503 -0.00000000000E+00 -0.00000000000E+00 -0.27394879839E+03  0.27394879839E+03  0.00000000000E+00 0.  1.
          6    1    1    2  501    0 -0.19980413349E+03  0.29159903851E+02  0.52054644682E+02  0.27094404918E+03  0.17300000000E+03 0. -1.
         -6    1    1    2    0  503  0.19980413349E+03 -0.29159903851E+02 -0.57058455870E+02  0.27194973642E+03  0.17300000000E+03 0.  1.
<mgrwt>
<rscale>  2 0.26589658E+03</rscale>
<asrwt>0</asrwt>
<pdfrwt beam="1">  1       21 0.41376152E-01 0.26589658E+03</pdfrwt>
<pdfrwt beam="2">  1       21 0.42145969E-01 0.26589658E+03</pdfrwt>
<totfact> 0.29409119E+04</totfact>
</mgrwt>
</event>
<event>
 4    1  0.4332500E+000  0.2200150E+03  0.7546771E-02  0.1133872E+00
         21   -1    0    0  503  502  0.00000000000E+00  0.00000000000E+00  0.45243131856E+03  0.45243131856E+03  0.00000000000E+00 0.  1.
         21   -1    0    0  501  503 -0.00000000000E+00 -0.00000000000E+00 -0.15969601770E+03  0.15969601770E+03  0.00000000000E+00 0. -1.
          6    1    1    2  501    0  0.11067633395E+03  0.78919875839E+02 -0.29459523515E+02  0.22197851523E+03  0.17300000000E+03 0. -1.
         -6    1    1    2    0  502 -0.11067633395E+03 -0.78919875839E+02  0.32219482437E+03  0.39014882103E+03  0.17300000000E+03 0.  1.
<mgrwt>
<rscale>  2 0.22001499E+03</rscale>
<asrwt>0</asrwt>
<pdfrwt beam="1">  1       21 0.69604818E-01 0.22001499E+03</pdfrwt>
<pdfrwt beam="2">  1       21 0.24568618E-01 0.22001499E+03</pdfrwt>
<totfact> 0.28943685E+04</totfact>
</mgrwt>
</event>
<event>
 4    1  0.4332500E+000  0.1956395E+03  0.7546771E-02  0.1153471E+00
         21   -1    0    0  503  502  0.00000000000E+00  0.00000000000E+00  0.62296384850E+03  0.62296384850E+03  0.00000000000E+00 0. -1.
         21   -1    0    0  501  503 -0.00000000000E+00 -0.00000000000E+00 -0.79504852184E+02  0.79504852184E+02  0.00000000000E+00 0. -1.
          6    1    1    2  501    0  0.65838808407E+02 -0.63332826538E+02  0.10430486198E+03  0.22170769009E+03  0.17300000000E+03 0. -1.
         -6    1    1    2    0  502 -0.65838808407E+02  0.63332826538E+02  0.43915413434E+03  0.48076101060E+03  0.17300000000E+03 0. -1.
<mgrwt>
<rscale>  2 0.19563945E+03</rscale>
<asrwt>0</asrwt>
<pdfrwt beam="1">  1       21 0.95840589E-01 0.19563945E+03</pdfrwt>
<pdfrwt beam="2">  1       21 0.12231516E-01 0.19563945E+03</pdfrwt>
<totfact> 0.51381994E+04</totfact>
</mgrwt>
</event>
<event>
 4    1  0.4332500E+000  0.3397951E+03  0.7546771E-02  0.1066883E+00
         21   -1    0    0  501  502  0.00000000000E+00  0.00000000000E+00  0.37071913235E+03  0.37071913235E+03  0.00000000000E+00 0. -1.
         21   -1    0    0  502  503 -0.00000000000E+00 -0.00000000000E+00 -0.35607143052E+03  0.35607143052E+03  0.00000000000E+00 0.  1.
          6    1    1    2  501    0  0.11845319684E+03  0.26739580783E+03  0.13596496255E+03  0.36598790818E+03  0.17300000000E+03 0. -1.
         -6    1    1    2    0  503 -0.11845319684E+03 -0.26739580783E+03 -0.12131726072E+03  0.36080265470E+03  0.17300000000E+03 0.  1.
<mgrwt>
<rscale>  2 0.33979505E+03</rscale>
<asrwt>0</asrwt>
<pdfrwt beam="1">  1       21 0.57033713E-01 0.33979505E+03</pdfrwt>
<pdfrwt beam="2">  1       21 0.54780220E-01 0.33979505E+03</pdfrwt>
<totfact> 0.83913376E+03</totfact>
</mgrwt>
</event>
<event>
 4    1  0.4332500E+000  0.1777910E+03  0.7546771E-02  0.1169958E+00
         21   -1    0    0  503  502  0.00000000000E+00  0.00000000000E+00  0.10688731134E+03  0.10688731134E+03  0.00000000000E+00 0.  1.
         21   -1    0    0  501  503 -0.00000000000E+00 -0.00000000000E+00 -0.15125585066E+04  0.15125585066E+04  0.00000000000E+00 0.  1.
          6    1    1    2  501    0 -0.18296110634E+02 -0.36686297868E+02 -0.14291008693E+04  0.14401176781E+04  0.17300000000E+03 0.  1.
         -6    1    1    2    0  502  0.18296110634E+02  0.36686297868E+02  0.23429674042E+02  0.17932813985E+03  0.17300000000E+03 0.  1.
<mgrwt>
<rscale>  2 0.17779098E+03</rscale>
<asrwt>0</asrwt>
<pdfrwt beam="1">  1       21 0.16444203E-01 0.17779098E+03</pdfrwt>
<pdfrwt beam="2">  1       21 0.23270129E+00 0.17779098E+03</pdfrwt>
<totfact> 0.28396934E+03</totfact>
</mgrwt>
</event>
<event>
 4    1  0.4332500E+000  0.2048967E+03  0.7546771E-02  0.1145672E+00
         21   -1    0    0  501  502  0.00000000000E+00  0.00000000000E+00  0.39495001315E+02  0.39495001315E+02  0.00000000000E+00 0.  1.
         21   -1    0    0  502  503 -0.00000000000E+00 -0.00000000000E+00 -0.11683878096E+04  0.11683878096E+04  0.00000000000E+00 0. -1.
          6    1    1    2  501    0  0.83648085136E+02 -0.71110115249E+02 -0.38305177052E+03  0.43440914992E+03  0.17300000000E+03 0.  1.
         -6    1    1    2    0  503 -0.83648085136E+02  0.71110115249E+02 -0.74584103780E+03  0.77347366103E+03  0.17300000000E+03 0.  1.
<mgrwt>
<rscale>  2 0.20489668E+03</rscale>
<asrwt>0</asrwt>
<pdfrwt beam="1">  1       21 0.60761554E-02 0.20489668E+03</pdfrwt>
<pdfrwt beam="2">  1       21 0.17975193E+00 0.20489668E+03</pdfrwt>
<totfact> 0.34967702E+04</totfact>
</mgrwt>
</event>
<event>
 4    1  0.4332500E+000  0.1810139E+03  0.7546771E-02  0.1166825E+00
         21   -1    0    0  503  502  0.00000000000E+00  0.00000000000E+00  0.14501100764E+03  0.14501100764E+03  0.00000000000E+00 0.  1.
         21   -1    0    0  501  503 -0.00000000000E+00 -0.00000000000E+00 -0.23170446322E+03  0.23170446322E+03  0.00000000000E+00 0.  1.
          6    1    1    2  501    0 -0.33399843028E+02  0.41490608618E+02 -0.73016542437E+02  0.19518564391E+03  0.17300000000E+03 0.  1.
         -6    1    1    2    0  502  0.33399843028E+02 -0.41490608618E+02 -0.13676913143E+02  0.18152982695E+03  0.17300000000E+03 0.  1.
<mgrwt>
<rscale>  2 0.18101387E+03</rscale>
<asrwt>0</asrwt>
<pdfrwt beam="1">  1       21 0.22309386E-01 0.18101387E+03</pdfrwt>
<pdfrwt beam="2">  1       21 0.35646840E-01 0.18101387E+03</pdfrwt>
<totfact> 0.14321169E+05</totfact>
</mgrwt>
</event>
<event>
 4    1  0.4332500E+000  0.2226059E+03  0.7546771E-02  0.1131955E+00
         21   -1    0    0  501  502  0.00000000000E+00  0.00000000000E+00  0.72844501028E+03  0.72844501028E+03  0.00000000000E+00 0. -1.
         21   -1    0    0  502  503 -0.00000000000E+00 -0.00000000000E+00 -0.12336415728E+03  0.12336415728E+03  0.00000000000E+00 0. -1.
          6    1    1    2  501    0  0.10983712695E+03 -0.86949441694E+02  0.58779268225E+03  0.62853292450E+03  0.17300000000E+03 0. -1.
         -6    1    1    2    0  503 -0.10983712695E+03  0.86949441694E+02  0.17288170754E+02  0.22327624306E+03  0.17300000000E+03 0. -1.
<mgrwt>
<rscale>  2 0.22260593E+03</rscale>
<asrwt>0</asrwt>
<pdfrwt beam="1">  1       21 0.11206846E+00 0.22260593E+03</pdfrwt>
<pdfrwt beam="2">  1       21 0.18979102E-01 0.22260593E+03</pdfrwt>
<totfact> 0.15587700E+04</totfact>
</mgrwt>
</event>
<event>
 4    1  0.4332500E+000  0.1737416E+03  0.7546771E-02  0.1174001E+00
         21   -1    0    0  501  502  0.00000000000E+00  0.00000000000E+00  0.16440692290E+04  0.16440692290E+04  0.00000000000E+00 0. -1.
         21   -1    0    0  502  503 -0.00000000000E+00 -0.00000000000E+00 -0.19563370826E+02  0.19563370826E+02  0.00000000000E+00 0. -1.
          6    1    1    2  501    0 -0.10206813856E+02 -0.12368165613E+02  0.60600424032E+03  0.63041834511E+03  0.17300000000E+03 0. -1.
         -6    1    1    2    0  503  0.10206813856E+02  0.12368165613E+02  0.10185016178E+04  0.10332142547E+04  0.17300000000E+03 0. -1.
<mgrwt>
<rscale>  2 0.17374162E+03</rscale>
<asrwt>0</asrwt>
<pdfrwt beam="1">  1       21 0.25293362E+00 0.17374162E+03</pdfrwt>
<pdfrwt beam="2">  1       21 0.30097506E-02 0.17374162E+03</pdfrwt>
<totfact> 0.40854407E+04</totfact>
</mgrwt>
</event>
<event>
 4    1  0.4332500E+000  0.1912484E+03  0.7546771E-02  0.1157340E+00
         21   -1    0    0  503  502  0.00000000000E+00  0.00000000000E+00  0.82770493111E+02  0.82770493111E+02  0.00000000000E+00 0.  1.
         21   -1    0    0  501  503 -0.00000000000E+00 -0.00000000000E+00 -0.48751223356E+03  0.48751223356E+03  0.00000000000E+00 0.  1.
          6    1    1    2  501    0  0.21443283166E+02 -0.78658229263E+02 -0.28959331042E+03  0.34704497816E+03  0.17300000000E+03 0.  1.
         -6    1    1    2    0  502 -0.21443283166E+02  0.78658229263E+02 -0.11514843003E+03  0.22323774852E+03  0.17300000000E+03 0.  1.
<mgrwt>
<rscale>  2 0.19124835E+03</rscale>
<asrwt>0</asrwt>
<pdfrwt beam="1">  1       21 0.12733922E-01 0.19124835E+03</pdfrwt>
<pdfrwt beam="2">  1       21 0.75001882E-01 0.19124835E+03</pdfrwt>
<totfact> 0.83926946E+04</totfact>
</mgrwt>
</event>
<event>
 4    1  0.4332500E+000  0.1806840E+03  0.7546771E-02  0.1167143E+00
         21   -1    0    0  503  502  0.00000000000E+00  0.00000000000E+00  0.66089812556E+02  0.66089812556E+02  0.00000000000E+00 0.  1.
         21   -1    0    0  501  503 -0.00000000000E+00 -0.00000000000E+00 -0.49858608306E+03  0.49858608306E+03  0.00000000000E+00 0.  1.
          6    1    1    2  501    0  0.45373354817E+02  0.25670154742E+02 -0.18909545201E+03  0.26154117867E+03  0.17300000000E+03 0.  1.
         -6    1    1    2    0  502 -0.45373354817E+02 -0.25670154742E+02 -0.24340081849E+03  0.30313471694E+03  0.17300000000E+03 0.  1.
<mgrwt>
<rscale>  2 0.18068397E+03</rscale>
<asrwt>0</asrwt>
<pdfrwt beam="1">  1       21 0.10167663E-01 0.18068397E+03</pdfrwt>
<pdfrwt beam="2">  1       21 0.76705554E-01 0.18068397E+03</pdfrwt>
<totfact> 0.11965774E+05</totfact>
</mgrwt>
</event>
<event>
 4    1  0.4332500E+000  0.1933609E+03  0.7546771E-02  0.1155465E+00
         21   -1    0    0  503  502  0.00000000000E+00  0.00000000000E+00  0.13677971794E+04  0.13677971794E+04  0.00000000000E+00 0. -1.
         21   -1    0    0  501  503 -0.00000000000E+00 -0.00000000000E+00 -0.81957714455E+02  0.81957714455E+02  0.00000000000E+00 0. -1.
          6    1    1    2  501    0 -0.81303985726E+02 -0.29139130578E+02  0.51143926858E+02  0.20001032043E+03  0.17300000000E+03 0. -1.
         -6    1    1    2    0  502  0.81303985726E+02  0.29139130578E+02  0.12346955381E+04  0.12497445735E+04  0.17300000000E+03 0. -1.
<mgrwt>
<rscale>  2 0.19336087E+03</rscale>
<asrwt>0</asrwt>
<pdfrwt beam="1">  1       21 0.21043032E+00 0.19336087E+03</pdfrwt>
<pdfrwt beam="2">  1       21 0.12608880E-01 0.19336087E+03</pdfrwt>
<totfact> 0.61890561E+03</totfact>
</mgrwt>
</event>
<event>
 4    1  0.4332500E+000  0.1854873E+03  0.7546771E-02  0.1162596E+00
         21   -1    0    0  503  502  0.00000000000E+00  0.00000000000E+00  0.15323468507E+03  0.15323468507E+03  0.00000000000E+00 0. -1.
         21   -1    0    0  501  503 -0.00000000000E+00 -0.00000000000E+00 -0.25743216528E+03  0.25743216528E+03  0.00000000000E+00 0. -1.
          6    1    1    2  501    0  0.14658318975E+02 -0.65281407926E+02  0.21310627417E+02  0.18670744864E+03  0.17300000000E+03 0. -1.
         -6    1    1    2    0  502 -0.14658318975E+02  0.65281407926E+02 -0.12550810762E+03  0.22395940171E+03  0.17300000000E+03 0. -1.
<mgrwt>
<rscale>  2 0.18548727E+03</rscale>
<asrwt>0</asrwt>
<pdfrwt beam="1">  1       21 0.23574567E-01 0.18548727E+03</pdfrwt>
<pdfrwt beam="2">  1       21 0.39604948E-01 0.18548727E+03</pdfrwt>
<totfact> 0.10436433E+05</totfact>
</mgrwt>
</event>
<event>
 4    1  0.4332500E+000  0.1877796E+03  0.7546771E-02  0.1160479E+00
         21   -1    0    0  501  502  0.00000000000E+00  0.00000000000E+00  0.10587894844E+03  0.10587894844E+03  0.00000000000E+00 0. -1.
         21   -1    0    0  502  503 -0.00000000000E+00 -0.00000000000E+00 -0.33311451018E+03  0.33311451018E+03  0.00000000000E+00 0. -1.
          6    1    1    2  501    0 -0.68933095004E+02  0.24091625904E+02 -0.11018312411E+03  0.21771885280E+03  0.17300000000E+03 0. -1.
         -6    1    1    2    0  503  0.68933095004E+02 -0.24091625904E+02 -0.11705243763E+03  0.22127460582E+03  0.17300000000E+03 0. -1.
<mgrwt>
<rscale>  2 0.18777960E+03</rscale>
<asrwt>0</asrwt>
<pdfrwt beam="1">  1       21 0.16289069E-01 0.18777960E+03</pdfrwt>
<pdfrwt beam="2">  1       21 0.51248386E-01 0.18777960E+03</pdfrwt>
<totfact> 0.12232986E+05</totfact>
</mgrwt>
</event>
<event>
 4    1  0.4332500E+000  0.1779547E+03  0.7546771E-02  0.1169797E+00
         21   -1    0    0  503  502  0.00000000000E+00  0.00000000000E+00  0.59975515695E+03  0.59975515695E+03  0.00000000000E+00 0. -1.
         21   -1    0    0  501  503 -0.00000000000E+00 -0.00000000000E+00 -0.52811337422E+02  0.52811337422E+02  0.00000000000E+00 0. -1.
          6    1    1    2  501    0  0.41312376535E+02 -0.56718092656E+01  0.27795895910E+03  0.33004403467E+03  0.17300000000E+03 0.  1.
         -6    1    1    2    0  502 -0.41312376535E+02  0.56718092656E+01  0.26898486043E+03  0.32252245971E+03  0.17300000000E+03 0.  1.
<mgrwt>
<rscale>  2 0.17795472E+03</rscale>
<asrwt>0</asrwt>
<pdfrwt beam="1">  1       21 0.92270019E-01 0.17795472E+03</pdfrwt>
<pdfrwt beam="2">  1       21 0.81248216E-02 0.17795472E+03</pdfrwt>
<totfact> 0.11648525E+05</totfact>
</mgrwt>
</event>
<event>
 4    1  0.4332500E+000  0.1942599E+03  0.7546771E-02  0.1154674E+00
         21   -1    0    0  503  502  0.00000000000E+00  0.00000000000E+00  0.82655339186E+03  0.82655339186E+03  0.00000000000E+00 0. -1.
         21   -1    0    0  501  503 -0.00000000000E+00 -0.00000000000E+00 -0.71531041772E+02  0.71531041772E+02  0.00000000000E+00 0. -1.
          6    1    1    2  501    0  0.50554608717E+01  0.88217729450E+02  0.10743739696E+03  0.22199035957E+03  0.17300000000E+03 0. -1.
         -6    1    1    2    0  502 -0.50554608717E+01 -0.88217729450E+02  0.64758495312E+03  0.67609407406E+03  0.17300000000E+03 0. -1.
<mgrwt>
<rscale>  2 0.19425994E+03</rscale>
<asrwt>0</asrwt>
<pdfrwt beam="1">  1       21 0.12716205E+00 0.19425994E+03</pdfrwt>
<pdfrwt beam="2">  1       21 0.11004776E-01 0.19425994E+03</pdfrwt>
<totfact> 0.31263558E+04</totfact>
</mgrwt>
</event>
<event>
 4    1  0.4332500E+000  0.2827328E+03  0.7546771E-02  0.1094206E+00
         21   -1    0    0  503  502  0.00000000000E+00  0.00000000000E+00  0.24047905780E+04  0.24047905780E+04  0.00000000000E+00 0. -1.
         21   -1    0    0  501  503 -0.00000000000E+00 -0.00000000000E+00 -0.78185561681E+02  0.78185561681E+02  0.00000000000E+00 0. -1.
          6    1    1    2  501    0  0.15262984804E+03  0.16344100741E+03  0.22202547186E+03  0.35949011609E+03  0.17300000000E+03 0. -1.
         -6    1    1    2    0  502 -0.15262984804E+03 -0.16344100741E+03  0.21045795445E+04  0.21234860236E+04  0.17300000000E+03 0. -1.
<mgrwt>
<rscale>  2 0.28273280E+03</rscale>
<asrwt>0</asrwt>
<pdfrwt beam="1">  1       21 0.36996772E+00 0.28273280E+03</pdfrwt>
<pdfrwt beam="2">  1       21 0.12028550E-01 0.28273280E+03</pdfrwt>
<totfact> 0.69375027E+02</totfact>
</mgrwt>
</event>
<event>
 4    1  0.4332500E+000  0.2883634E+03  0.7546771E-02  0.1091207E+00
         21   -1    0    0  501  502  0.00000000000E+00  0.00000000000E+00  0.97848416199E+02  0.97848416199E+02  0.00000000000E+00 0. -1.
         21   -1    0    0  502  503 -0.00000000000E+00 -0.00000000000E+00 -0.23450657074E+04  0.23450657074E+04  0.00000000000E+00 0. -1.
          6    1    1    2  501    0  0.58249125746E+02  0.22322962561E+03 -0.14826614490E+03  0.32424724536E+03  0.17300000000E+03 0. -1.
         -6    1    1    2    0  503 -0.58249125746E+02 -0.22322962561E+03 -0.20989511463E+04  0.21186668783E+04  0.17300000000E+03 0. -1.
<mgrwt>
<rscale>  2 0.28836336E+03</rscale>
<asrwt>0</asrwt>
<pdfrwt beam="1">  1       21 0.15053605E-01 0.28836336E+03</pdfrwt>
<pdfrwt beam="2">  1       21 0.36077929E+00 0.28836336E+03</pdfrwt>
<totfact> 0.52162156E+02</totfact>
</mgrwt>
</event>
<event>
 4    1  0.4332500E+000  0.4316066E+03  0.7546771E-02  0.1033354E+00
         21   -1    0    0  503  502  0.00000000000E+00  0.00000000000E+00  0.89093500892E+03  0.89093500892E+03  0.00000000000E+00 0. -1.
         21   -1    0    0  501  503 -0.00000000000E+00 -0.00000000000E+00 -0.22738930329E+03  0.22738930329E+03  0.00000000000E+00 0.  1.
          6    1    1    2  501    0 -0.35074593782E+03  0.18257212288E+03  0.17314207473E+03  0.46504028964E+03  0.17300000000E+03 0.  1.
         -6    1    1    2    0  502  0.35074593782E+03 -0.18257212288E+03  0.49040363090E+03  0.65328402257E+03  0.17300000000E+03 0. -1.
<mgrwt>
<rscale>  2 0.43160664E+03</rscale>
<asrwt>0</asrwt>
<pdfrwt beam="1">  1       21 0.13706692E+00 0.43160664E+03</pdfrwt>
<pdfrwt beam="2">  1       21 0.34982970E-01 0.43160664E+03</pdfrwt>
<totfact> 0.25855037E+03</totfact>
</mgrwt>
</event>
<event>
 4    1  0.4332500E+000  0.1831981E+03  0.7546771E-02  0.1164743E+00
         21   -1    0    0  503  502  0.00000000000E+00  0.00000000000E+00  0.13312238873E+03  0.13312238873E+03  0.00000000000E+00 0. -1.
         21   -1    0    0  501  503 -0.00000000000E+00 -0.00000000000E+00 -0.43536135173E+03  0.43536135173E+03  0.00000000000E+00 0.  1.
          6    1    1    2  501    0 -0.11061470138E+02 -0.59246869848E+02 -0.33553019773E+03  0.38228531399E+03  0.17300000000E+03 0.  1.
         -6    1    1    2    0  502  0.11061470138E+02  0.59246869848E+02  0.33291234730E+02  0.18619842647E+03  0.17300000000E+03 0. -1.
<mgrwt>
<rscale>  2 0.18319811E+03</rscale>
<asrwt>0</asrwt>
<pdfrwt beam="1">  1       21 0.20480367E-01 0.18319811E+03</pdfrwt>
<pdfrwt beam="2">  1       21 0.66978670E-01 0.18319811E+03</pdfrwt>
<totfact> 0.45285554E+04</totfact>
</mgrwt>
</event>
<event>
 4    1  0.4332500E+000  0.2031636E+03  0.7546771E-02  0.1147097E+00
         21   -1    0    0  501  502  0.00000000000E+00  0.00000000000E+00  0.14548130435E+04  0.14548130435E+04  0.00000000000E+00 0.  1.
         21   -1    0    0  502  503 -0.00000000000E+00 -0.00000000000E+00 -0.98163398641E+02  0.98163398641E+02  0.00000000000E+00 0.  1.
          6    1    1    2  501    0 -0.81119247373E+01 -0.10621036959E+03  0.13330546402E+04  0.13484472996E+04  0.17300000000E+03 0.  1.
         -6    1    1    2    0  503  0.81119247373E+01  0.10621036959E+03  0.23595004691E+02  0.20452914261E+03  0.17300000000E+03 0.  1.
<mgrwt>
<rscale>  2 0.20316359E+03</rscale>
<asrwt>0</asrwt>
<pdfrwt beam="1">  1       21 0.22381738E+00 0.20316359E+03</pdfrwt>
<pdfrwt beam="2">  1       21 0.15102062E-01 0.20316359E+03</pdfrwt>
<totfact> 0.36552301E+03</totfact>
</mgrwt>
</event>
<event>
 4    1  0.4332500E+000  0.1783150E+03  0.7546771E-02  0.1169444E+00
         21   -1    0    0  503  502  0.00000000000E+00  0.00000000000E+00  0.10449983010E+03  0.10449983010E+03  0.00000000000E+00 0. -1.
         21   -1    0    0  501  503 -0.00000000000E+00 -0.00000000000E+00 -0.33908387964E+03  0.33908387964E+03  0.00000000000E+00 0. -1.
          6    1    1    2  501    0  0.40476140384E+02  0.15130265202E+02 -0.46225760890E+02  0.18420929356E+03  0.17300000000E+03 0. -1.
         -6    1    1    2    0  502 -0.40476140384E+02 -0.15130265202E+02 -0.18835828865E+03  0.25937441618E+03  0.17300000000E+03 0. -1.
<mgrwt>
<rscale>  2 0.17831501E+03</rscale>
<asrwt>0</asrwt>
<pdfrwt beam="1">  1       21 0.16076897E-01 0.17831501E+03</pdfrwt>
<pdfrwt beam="2">  1       21 0.52166751E-01 0.17831501E+03</pdfrwt>
<totfact> 0.12113384E+05</totfact>
</mgrwt>
</event>
<event>
 4    1  0.4332500E+000  0.1748731E+03  0.7546771E-02  0.1172859E+00
         21   -1    0    0  503  502  0.00000000000E+00  0.00000000000E+00  0.30117712014E+02  0.30117712014E+02  0.00000000000E+00 0. -1.
         21   -1    0    0  501  503 -0.00000000000E+00 -0.00000000000E+00 -0.10173481943E+04  0.10173481943E+04  0.00000000000E+00 0. -1.
          6    1    1    2  501    0 -0.21522483211E+02  0.13725821481E+02 -0.51671091628E+03  0.54550049171E+03  0.17300000000E+03 0.  1.
         -6    1    1    2    0  502  0.21522483211E+02 -0.13725821481E+02 -0.47051956600E+03  0.50196541460E+03  0.17300000000E+03 0.  1.
<mgrwt>
<rscale>  2 0.17487314E+03</rscale>
<asrwt>0</asrwt>
<pdfrwt beam="1">  1       21 0.46334943E-02 0.17487314E+03</pdfrwt>
<pdfrwt beam="2">  1       21 0.15651510E+00 0.17487314E+03</pdfrwt>
<totfact> 0.82461364E+04</totfact>
</mgrwt>
</event>
<event>
 4    1  0.4332500E+000  0.1936387E+03  0.7546771E-02  0.1155220E+00
         21   -1    0    0  503  502  0.00000000000E+00  0.00000000000E+00  0.10669759518E+04  0.10669759518E+04  0.00000000000E+00 0.  1.
         21   -1    0    0  501  503 -0.00000000000E+00 -0.00000000000E+00 -0.66990751420E+02  0.66990751420E+02  0.00000000000E+00 0.  1.
          6    1    1    2  501    0  0.24226682180E+01  0.86954412675E+02  0.10905507394E+03  0.22223624447E+03  0.17300000000E+03 0.  1.
         -6    1    1    2    0  502 -0.24226682180E+01 -0.86954412675E+02  0.89093012642E+03  0.91173045873E+03  0.17300000000E+03 0.  1.
<mgrwt>
<rscale>  2 0.19363868E+03</rscale>
<asrwt>0</asrwt>
<pdfrwt beam="1">  1       21 0.16415013E+00 0.19363868E+03</pdfrwt>
<pdfrwt beam="2">  1       21 0.10306270E-01 0.19363868E+03</pdfrwt>
<totfact> 0.18053453E+04</totfact>
</mgrwt>
</event>
<event>
 4    1  0.4332500E+000  0.2000968E+03  0.7546771E-02  0.1149657E+00
         21   -1    0    0  501  502  0.00000000000E+00  0.00000000000E+00  0.14186262900E+03  0.14186262900E+03  0.00000000000E+00 0.  1.
         21   -1    0    0  502  503 -0.00000000000E+00 -0.00000000000E+00 -0.10198558841E+04  0.10198558841E+04  0.00000000000E+00 0.  1.
          6    1    1    2  501    0 -0.76468171442E+02  0.65286544607E+02  0.54993051272E+02  0.20751614356E+03  0.17300000000E+03 0.  1.
         -6    1    1    2    0  503  0.76468171442E+02 -0.65286544607E+02 -0.93298630641E+03  0.95420236957E+03  0.17300000000E+03 0.  1.
<mgrwt>
<rscale>  2 0.20009676E+03</rscale>
<asrwt>0</asrwt>
<pdfrwt beam="1">  1       21 0.21825020E-01 0.20009676E+03</pdfrwt>
<pdfrwt beam="2">  1       21 0.15690091E+00 0.20009676E+03</pdfrwt>
<totfact> 0.51658188E+03</totfact>
</mgrwt>
</event>
<event>
 4    1  0.4332500E+000  0.2091264E+03  0.7546771E-02  0.1142260E+00
         21   -1    0    0  501  502  0.00000000000E+00  0.00000000000E+00  0.15893689127E+03  0.15893689127E+03  0.00000000000E+00 0. -1.
         21   -1    0    0  502  503 -0.00000000000E+00 -0.00000000000E+00 -0.28189483964E+03  0.28189483964E+03  0.00000000000E+00 0.  1.
          6    1    1    2  501    0 -0.89319279906E+01  0.11715399360E+03 -0.95536113812E+02  0.22991517261E+03  0.17300000000E+03 0.  1.
         -6    1    1    2    0  503  0.89319279906E+01 -0.11715399360E+03 -0.27421834551E+02  0.21091655830E+03  0.17300000000E+03 0.  1.
<mgrwt>
<rscale>  2 0.20912637E+03</rscale>
<asrwt>0</asrwt>
<pdfrwt beam="1">  1       21 0.24451829E-01 0.20912637E+03</pdfrwt>
<pdfrwt beam="2">  1       21 0.43368437E-01 0.20912637E+03</pdfrwt>
<totfact> 0.80192157E+04</totfact>
</mgrwt>
</event>
<event>
 4    1  0.4332500E+000  0.2434382E+03  0.7546771E-02  0.1117523E+00
         21   -1    0    0  501  502  0.00000000000E+00  0.00000000000E+00  0.12794217099E+04  0.12794217099E+04  0.00000000000E+00 0.  1.
         21   -1    0    0  502  503 -0.00000000000E+00 -0.00000000000E+00 -0.11444567753E+03  0.11444567753E+03  0.00000000000E+00 0.  1.
          6    1    1    2  501    0 -0.17043708615E+03 -0.16863445533E+02  0.11201988285E+04  0.11463453195E+04  0.17300000000E+03 0.  1.
         -6    1    1    2    0  503  0.17043708615E+03  0.16863445533E+02  0.44777203874E+02  0.24752206794E+03  0.17300000000E+03 0.  1.
<mgrwt>
<rscale>  2 0.24343824E+03</rscale>
<asrwt>0</asrwt>
<pdfrwt beam="1">  1       21 0.19683410E+00 0.24343824E+03</pdfrwt>
<pdfrwt beam="2">  1       21 0.17607028E-01 0.24343824E+03</pdfrwt>
<totfact> 0.39392933E+03</totfact>
</mgrwt>
</event>
<event>
 4    1  0.4332500E+000  0.1817089E+03  0.7546771E-02  0.1166159E+00
         21   -1    0    0  503  502  0.00000000000E+00  0.00000000000E+00  0.77378338166E+03  0.77378338166E+03  0.00000000000E+00 0. -1.
         21   -1    0    0  501  503 -0.00000000000E+00 -0.00000000000E+00 -0.72739992614E+02  0.72739992614E+02  0.00000000000E+00 0. -1.
          6    1    1    2  501    0  0.52732283712E+01  0.55329163482E+02  0.62265497320E+03  0.64862727272E+03  0.17300000000E+03 0. -1.
         -6    1    1    2    0  502 -0.52732283712E+01 -0.55329163482E+02  0.78388415840E+02  0.19789610155E+03  0.17300000000E+03 0. -1.
<mgrwt>
<rscale>  2 0.18170890E+03</rscale>
<asrwt>0</asrwt>
<pdfrwt beam="1">  1       21 0.11904359E+00 0.18170890E+03</pdfrwt>
<pdfrwt beam="2">  1       21 0.11190769E-01 0.18170890E+03</pdfrwt>
<totfact> 0.36024756E+04</totfact>
</mgrwt>
</event>
<event>
 4    1  0.4332500E+000  0.3071081E+03  0.7546771E-02  0.1081740E+00
         21   -1    0    0  501  502  0.00000000000E+00  0.00000000000E+00  0.17880212403E+03  0.17880212403E+03  0.00000000000E+00 0. -1.
         21   -1    0    0  502  503 -0.00000000000E+00 -0.00000000000E+00 -0.63570425707E+03  0.63570425707E+03  0.00000000000E+00 0.  1.
          6    1    1    2  501    0  0.61987620948E+02  0.24605673642E+03 -0.60419902974E+02  0.31299512355E+03  0.17300000000E+03 0. -1.
         -6    1    1    2    0  503 -0.61987620948E+02 -0.24605673642E+03 -0.39648223007E+03  0.50151125755E+03  0.17300000000E+03 0.  1.
<mgrwt>
<rscale>  2 0.30710810E+03</rscale>
<asrwt>0</asrwt>
<pdfrwt beam="1">  1       21 0.27508019E-01 0.30710810E+03</pdfrwt>
<pdfrwt beam="2">  1       21 0.97800656E-01 0.30710810E+03</pdfrwt>
<totfact> 0.10226019E+04</totfact>
</mgrwt>
</event>
<event>
 4    1  0.4332500E+000  0.1744356E+03  0.7546771E-02  0.1173300E+00
         21   -1    0    0  501  502  0.00000000000E+00  0.00000000000E+00  0.46300585086E+03  0.46300585086E+03  0.00000000000E+00 0. -1.
         21   -1    0    0  502  503 -0.00000000000E+00 -0.00000000000E+00 -0.18042960579E+03  0.18042960579E+03  0.00000000000E+00 0. -1.
          6    1    1    2  501    0  0.15175447123E+02 -0.16385270812E+02  0.39781032850E+03  0.43437406548E+03  0.17300000000E+03 0. -1.
         -6    1    1    2    0  503 -0.15175447123E+02  0.16385270812E+02 -0.11523408343E+03  0.20906139117E+03  0.17300000000E+03 0. -1.
<mgrwt>
<rscale>  2 0.17443558E+03</rscale>
<asrwt>0</asrwt>
<pdfrwt beam="1">  1       21 0.71231669E-01 0.17443558E+03</pdfrwt>
<pdfrwt beam="2">  1       21 0.27758401E-01 0.17443558E+03</pdfrwt>
<totfact> 0.22329215E+04</totfact>
</mgrwt>
</event>
<event>
 4    1  0.4332500E+000  0.1988896E+03  0.7546771E-02  0.1150679E+00
         21   -1    0    0  501  502  0.00000000000E+00  0.00000000000E+00  0.82725087472E+03  0.82725087472E+03  0.00000000000E+00 0. -1.
         21   -1    0    0  502  503 -0.00000000000E+00 -0.00000000000E+00 -0.11726664795E+03  0.11726664795E+03  0.00000000000E+00 0.  1.
          6    1    1    2  501    0 -0.61110603932E+02  0.76769491379E+02  0.71842670356E+03  0.74544885076E+03  0.17300000000E+03 0. -1.
         -6    1    1    2    0  503  0.61110603932E+02 -0.76769491379E+02 -0.84424767929E+01  0.19906867190E+03  0.17300000000E+03 0.  1.
<mgrwt>
<rscale>  2 0.19888957E+03</rscale>
<asrwt>0</asrwt>
<pdfrwt beam="1">  1       21 0.12726936E+00 0.19888957E+03</pdfrwt>
<pdfrwt beam="2">  1       21 0.18041023E-01 0.19888957E+03</pdfrwt>
<totfact> 0.12692583E+04</totfact>
</mgrwt>
</event>
<event>
 4    1  0.4332500E+000  0.2229765E+03  0.7546771E-02  0.1131683E+00
         21   -1    0    0  501  502  0.00000000000E+00  0.00000000000E+00  0.10655706393E+03  0.10655706393E+03  0.00000000000E+00 0. -1.
         21   -1    0    0  502  503 -0.00000000000E+00 -0.00000000000E+00 -0.51665417307E+03  0.51665417307E+03  0.00000000000E+00 0. -1.
          6    1    1    2  501    0 -0.98841207498E+02 -0.10009953128E+03 -0.10804956637E+03  0.24777653088E+03  0.17300000000E+03 0. -1.
         -6    1    1    2    0  503  0.98841207498E+02  0.10009953128E+03 -0.30204754278E+03  0.37543470612E+03  0.17300000000E+03 0. -1.
<mgrwt>
<rscale>  2 0.22297646E+03</rscale>
<asrwt>0</asrwt>
<pdfrwt beam="1">  1       21 0.16393395E-01 0.22297646E+03</pdfrwt>
<pdfrwt beam="2">  1       21 0.79485257E-01 0.22297646E+03</pdfrwt>
<totfact> 0.45853154E+04</totfact>
</mgrwt>
</event>
<event>
 4    1  0.4332500E+000  0.2541961E+03  0.7546771E-02  0.1110681E+00
         21   -1    0    0  503  502  0.00000000000E+00  0.00000000000E+00  0.53347908970E+03  0.53347908970E+03  0.00000000000E+00 0. -1.
         21   -1    0    0  501  503 -0.00000000000E+00 -0.00000000000E+00 -0.12237238204E+03  0.12237238204E+03  0.00000000000E+00 0. -1.
          6    1    1    2  501    0 -0.14487704657E+03 -0.11703554842E+03  0.23871053122E+03  0.34870961548E+03  0.17300000000E+03 0. -1.
         -6    1    1    2    0  502  0.14487704657E+03  0.11703554842E+03  0.17239617644E+03  0.30714185626E+03  0.17300000000E+03 0. -1.
<mgrwt>
<rscale>  2 0.25419614E+03</rscale>
<asrwt>0</asrwt>
<pdfrwt beam="1">  1       21 0.82073705E-01 0.25419614E+03</pdfrwt>
<pdfrwt beam="2">  1       21 0.18826521E-01 0.25419614E+03</pdfrwt>
<totfact> 0.32520146E+04</totfact>
</mgrwt>
</event>
<event>
 4    1  0.4332500E+000  0.1807153E+03  0.7546771E-02  0.1167113E+00
         21   -1    0    0  501  502  0.00000000000E+00  0.00000000000E+00  0.53947439904E+02  0.53947439904E+02  0.00000000000E+00 0.  1.
         21   -1    0    0  502  503 -0.00000000000E+00 -0.00000000000E+00 -0.60604395222E+03  0.60604395222E+03  0.00000000000E+00 0.  1.
          6    1    1    2  501    0 -0.49777518715E+02 -0.15849608163E+02 -0.26502103043E+03  0.32077119263E+03  0.17300000000E+03 0. -1.
         -6    1    1    2    0  503  0.49777518715E+02  0.15849608163E+02 -0.28707548189E+03  0.33922019950E+03  0.17300000000E+03 0. -1.
<mgrwt>
<rscale>  2 0.18071528E+03</rscale>
<asrwt>0</asrwt>
<pdfrwt beam="1">  1       21 0.82996060E-02 0.18071528E+03</pdfrwt>
<pdfrwt beam="2">  1       21 0.93237532E-01 0.18071528E+03</pdfrwt>
<totfact> 0.10943997E+05</totfact>
</mgrwt>
</event>
<event>
 4    1  0.4332500E+000  0.1961479E+03  0.7546771E-02  0.1153030E+00
         21   -1    0    0  503  502  0.00000000000E+00  0.00000000000E+00  0.26777137423E+03  0.26777137423E+03  0.00000000000E+00 0.  1.
         21   -1    0    0  501  503 -0.00000000000E+00 -0.00000000000E+00 -0.24217822004E+03  0.24217822004E+03  0.00000000000E+00 0.  1.
          6    1    1    2  501    0 -0.64924153731E+02  0.65801635593E+02  0.17540344439E+03  0.26313564808E+03  0.17300000000E+03 0.  1.
         -6    1    1    2    0  502  0.64924153731E+02 -0.65801635593E+02 -0.14981029021E+03  0.24681394619E+03  0.17300000000E+03 0.  1.
<mgrwt>
<rscale>  2 0.19614791E+03</rscale>
<asrwt>0</asrwt>
<pdfrwt beam="1">  1       21 0.41195596E-01 0.19614791E+03</pdfrwt>
<pdfrwt beam="2">  1       21 0.37258188E-01 0.19614791E+03</pdfrwt>
<totfact> 0.39356408E+04</totfact>
</mgrwt>
</event>
<event>
 4    1  0.4332500E+000  0.2750422E+03  0.7546771E-02  0.1098428E+00
         21   -1    0    0  501  502  0.00000000000E+00  0.00000000000E+00  0.34581189487E+03  0.34581189487E+03  0.00000000000E+00 0. -1.
         21   -1    0    0  502  503 -0.00000000000E+00 -0.00000000000E+00 -0.72074938369E+03  0.72074938369E+03  0.00000000000E+00 0.  1.
          6    1    1    2  501    0  0.14482460410E+03  0.15730561171E+03  0.25758548305E+03  0.37682688666E+03  0.17300000000E+03 0. -1.
         -6    1    1    2    0  503 -0.14482460410E+03 -0.15730561171E+03 -0.63252297187E+03  0.68973439191E+03  0.17300000000E+03 0.  1.
<mgrwt>
<rscale>  2 0.27504222E+03</rscale>
<asrwt>0</asrwt>
<pdfrwt beam="1">  1       21 0.53201830E-01 0.27504222E+03</pdfrwt>
<pdfrwt beam="2">  1       21 0.11088452E+00 0.27504222E+03</pdfrwt>
<totfact> 0.20100046E+03</totfact>
</mgrwt>
</event>
<event>
 4    1  0.4332500E+000  0.1796993E+03  0.7546771E-02  0.1168094E+00
         21   -1    0    0  501  502  0.00000000000E+00  0.00000000000E+00  0.21059562457E+03  0.21059562457E+03  0.00000000000E+00 0. -1.
         21   -1    0    0  502  503 -0.00000000000E+00 -0.00000000000E+00 -0.15391505675E+03  0.15391505675E+03  0.00000000000E+00 0.  1.
          6    1    1    2  501    0  0.74723923558E+01 -0.48031166590E+02  0.39522013997E+02  0.18399407382E+03  0.17300000000E+03 0. -1.
         -6    1    1    2    0  503 -0.74723923558E+01  0.48031166590E+02  0.17158553818E+02  0.18051660749E+03  0.17300000000E+03 0. -1.
<mgrwt>
<rscale>  2 0.17969928E+03</rscale>
<asrwt>0</asrwt>
<pdfrwt beam="1">  1       21 0.32399327E-01 0.17969928E+03</pdfrwt>
<pdfrwt beam="2">  1       21 0.23679240E-01 0.17969928E+03</pdfrwt>
<totfact> 0.15458497E+05</totfact>
</mgrwt>
</event>
<event>
 4    1  0.4332500E+000  0.1746585E+03  0.7546771E-02  0.1173075E+00
         21   -1    0    0  501  502  0.00000000000E+00  0.00000000000E+00  0.56925801509E+03  0.56925801509E+03  0.00000000000E+00 0. -1.
         21   -1    0    0  502  503 -0.00000000000E+00 -0.00000000000E+00 -0.59461221562E+02  0.59461221562E+02  0.00000000000E+00 0. -1.
          6    1    1    2  501    0  0.24011487269E+02  0.17542510488E+00  0.35369365366E+03  0.39446772103E+03  0.17300000000E+03 0. -1.
         -6    1    1    2    0  503 -0.24011487269E+02 -0.17542510488E+00  0.15610313987E+03  0.23425151562E+03  0.17300000000E+03 0. -1.
<mgrwt>
<rscale>  2 0.17465847E+03</rscale>
<asrwt>0</asrwt>
<pdfrwt beam="1">  1       21 0.87578153E-01 0.17465847E+03</pdfrwt>
<pdfrwt beam="2">  1       21 0.91478806E-02 0.17465847E+03</pdfrwt>
<totfact> 0.10696846E+05</totfact>
</mgrwt>
</event>
<event>
 4    1  0.4332500E+000  0.1750984E+03  0.7546771E-02  0.1172633E+00
         21   -1    0    0  503  502  0.00000000000E+00  0.00000000000E+00  0.32478843465E+03  0.32478843465E+03  0.00000000000E+00 0.  1.
         21   -1    0    0  501  503 -0.00000000000E+00 -0.00000000000E+00 -0.12726409252E+03  0.12726409252E+03  0.00000000000E+00 0.  1.
          6    1    1    2  501    0  0.99359668326E+01  0.25134225778E+02 -0.16100389324E+02  0.17583707026E+03  0.17300000000E+03 0.  1.
         -6    1    1    2    0  502 -0.99359668326E+01 -0.25134225778E+02  0.21362473145E+03  0.27621545690E+03  0.17300000000E+03 0.  1.
<mgrwt>
<rscale>  2 0.17509841E+03</rscale>
<asrwt>0</asrwt>
<pdfrwt beam="1">  1       21 0.49967451E-01 0.17509841E+03</pdfrwt>
<pdfrwt beam="2">  1       21 0.19579091E-01 0.17509841E+03</pdfrwt>
<totfact> 0.92276905E+04</totfact>
</mgrwt>
</event>
<event>
 4    1  0.4332500E+000  0.1909039E+03  0.7546771E-02  0.1157649E+00
         21   -1    0    0  501  502  0.00000000000E+00  0.00000000000E+00  0.43987979214E+03  0.43987979214E+03  0.00000000000E+00 0. -1.
         21   -1    0    0  502  503 -0.00000000000E+00 -0.00000000000E+00 -0.85152533657E+02  0.85152533657E+02  0.00000000000E+00 0. -1.
          6    1    1    2  501    0 -0.23759325999E+02 -0.77141314230E+02  0.22052619560E+03  0.29167806033E+03  0.17300000000E+03 0. -1.
         -6    1    1    2    0  503  0.23759325999E+02  0.77141314230E+02  0.13420106289E+03  0.23335426547E+03  0.17300000000E+03 0. -1.
<mgrwt>
<rscale>  2 0.19090387E+03</rscale>
<asrwt>0</asrwt>
<pdfrwt beam="1">  1       21 0.67673813E-01 0.19090387E+03</pdfrwt>
<pdfrwt beam="2">  1       21 0.13100390E-01 0.19090387E+03</pdfrwt>
<totfact> 0.10012395E+05</totfact>
</mgrwt>
</event>
<event>
 4    1  0.4332500E+000  0.1937837E+03  0.7546771E-02  0.1155092E+00
         21   -1    0    0  501  502  0.00000000000E+00  0.00000000000E+00  0.41121617475E+03  0.41121617475E+03  0.00000000000E+00 0. -1.
         21   -1    0    0  502  503 -0.00000000000E+00 -0.00000000000E+00 -0.37623384253E+03  0.37623384253E+03  0.00000000000E+00 0.  1.
          6    1    1    2  501    0  0.53145882681E+02 -0.69272123147E+02  0.36011780319E+03  0.40894613834E+03  0.17300000000E+03 0. -1.
         -6    1    1    2    0  503 -0.53145882681E+02  0.69272123147E+02 -0.32513547096E+03  0.37850387894E+03  0.17300000000E+03 0.  1.
<mgrwt>
<rscale>  2 0.19378367E+03</rscale>
<asrwt>0</asrwt>
<pdfrwt beam="1">  1       21 0.63264027E-01 0.19378367E+03</pdfrwt>
<pdfrwt beam="2">  1       21 0.57882130E-01 0.19378367E+03</pdfrwt>
<totfact> 0.64633191E+03</totfact>
</mgrwt>
</event>
<event>
 4    1  0.4332500E+000  0.2013828E+03  0.7546771E-02  0.1148578E+00
         21   -1    0    0  501  502  0.00000000000E+00  0.00000000000E+00  0.11803702920E+03  0.11803702920E+03  0.00000000000E+00 0. -1.
         21   -1    0    0  502  503 -0.00000000000E+00 -0.00000000000E+00 -0.44164188382E+03  0.44164188382E+03  0.00000000000E+00 0. -1.
          6    1    1    2  501    0  0.41024879050E+02  0.94567488865E+02 -0.29938490952E+02  0.20359608025E+03  0.17300000000E+03 0. -1.
         -6    1    1    2    0  503 -0.41024879050E+02 -0.94567488865E+02 -0.29366636367E+03  0.35608283278E+03  0.17300000000E+03 0. -1.
<mgrwt>
<rscale>  2 0.20138285E+03</rscale>
<asrwt>0</asrwt>
<pdfrwt beam="1">  1       21 0.18159543E-01 0.20138285E+03</pdfrwt>
<pdfrwt beam="2">  1       21 0.67944904E-01 0.20138285E+03</pdfrwt>
<totfact> 0.54414854E+04</totfact>
</mgrwt>
</event>
<event>
 4    1  0.4332500E+000  0.1873325E+03  0.7546771E-02  0.1160889E+00
         21   -1    0    0  501  502  0.00000000000E+00  0.00000000000E+00  0.36394532940E+02  0.36394532940E+02  0.00000000000E+00 0. -1.
         21   -1    0    0  502  503 -0.00000000000E+00 -0.00000000000E+00 -0.12150058768E+04  0.12150058768E+04  0.00000000000E+00 0. -1.
          6    1    1    2  501    0 -0.43506030505E+02 -0.57198631940E+02 -0.30505469962E+03  0.35798299952E+03  0.17300000000E+03 0. -1.
         -6    1    1    2    0  503  0.43506030505E+02  0.57198631940E+02 -0.87355664428E+03  0.89341741026E+03  0.17300000000E+03 0. -1.
<mgrwt>
<rscale>  2 0.18733248E+03</rscale>
<asrwt>0</asrwt>
<pdfrwt beam="1">  1       21 0.55991592E-02 0.18733248E+03</pdfrwt>
<pdfrwt beam="2">  1       21 0.18692397E+00 0.18733248E+03</pdfrwt>
<totfact> 0.36399267E+04</totfact>
</mgrwt>
</event>
<event>
 4    1  0.4332500E+000  0.1845922E+03  0.7546771E-02  0.1163431E+00
         21   -1    0    0  503  502  0.00000000000E+00  0.00000000000E+00  0.10806212684E+03  0.10806212684E+03  0.00000000000E+00 0.  1.
         21   -1    0    0  501  503 -0.00000000000E+00 -0.00000000000E+00 -0.35269415248E+03  0.35269415248E+03  0.00000000000E+00 0.  1.
          6    1    1    2  501    0  0.62520883586E+02 -0.15375924801E+02 -0.47322997159E+02  0.19056165933E+03  0.17300000000E+03 0.  1.
         -6    1    1    2    0  502 -0.62520883586E+02  0.15375924801E+02 -0.19730902848E+03  0.27019461998E+03  0.17300000000E+03 0.  1.
<mgrwt>
<rscale>  2 0.18459220E+03</rscale>
<asrwt>0</asrwt>
<pdfrwt beam="1">  1       21 0.16624943E-01 0.18459220E+03</pdfrwt>
<pdfrwt beam="2">  1       21 0.54260639E-01 0.18459220E+03</pdfrwt>
<totfact> 0.10463776E+05</totfact>
</mgrwt>
</event>
<event>
 4    1  0.4332500E+000  0.2165880E+03  0.7546771E-02  0.1136453E+00
         21   -1    0    0  503  502  0.00000000000E+00  0.00000000000E+00  0.18930019022E+03  0.18930019022E+03  0.00000000000E+00 0.  1.
         21   -1    0    0  501  503 -0.00000000000E+00 -0.00000000000E+00 -0.24790339372E+03  0.24790339372E+03  0.00000000000E+00 0. -1.
          6    1    1    2  501    0  0.12758811072E+03 -0.26507673579E+02 -0.25046949017E+02  0.21803149408E+03  0.17300000000E+03 0.  1.
         -6    1    1    2    0  502 -0.12758811072E+03  0.26507673579E+02 -0.33556254487E+02  0.21917208985E+03  0.17300000000E+03 0. -1.
<mgrwt>
<rscale>  2 0.21658805E+03</rscale>
<asrwt>0</asrwt>
<pdfrwt beam="1">  1       21 0.29123106E-01 0.21658805E+03</pdfrwt>
<pdfrwt beam="2">  1       21 0.38138983E-01 0.21658805E+03</pdfrwt>
<totfact> 0.74081056E+04</totfact>
</mgrwt>
</event>
<event>
 4    1  0.4332500E+000  0.2564991E+03  0.7546771E-02  0.1109265E+00
         21   -1    0    0  503  502  0.00000000000E+00  0.00000000000E+00  0.75447756762E+03  0.75447756762E+03  0.00000000000E+00 0. -1.
         21   -1    0    0  501  503 -0.00000000000E+00 -0.00000000000E+00 -0.95824495327E+02  0.95824495327E+02  0.00000000000E+00 0.  1.
          6    1    1    2  501    0 -0.10612977269E+02  0.18907709403E+03  0.20179219950E+03  0.32636157028E+03  0.17300000000E+03 0.  1.
         -6    1    1    2    0  502  0.10612977269E+02 -0.18907709403E+03  0.45686087279E+03  0.52394049267E+03  0.17300000000E+03 0. -1.
<mgrwt>
<rscale>  2 0.25649909E+03</rscale>
<asrwt>0</asrwt>
<pdfrwt beam="1">  1       21 0.11607347E+00 0.25649909E+03</pdfrwt>
<pdfrwt beam="2">  1       21 0.14742231E-01 0.25649909E+03</pdfrwt>
<totfact> 0.22393423E+04</totfact>
</mgrwt>
</event>
<event>
 4    1  0.4332500E+000  0.2345594E+03  0.7546771E-02  0.1123471E+00
         21   -1    0    0  503  502  0.00000000000E+00  0.00000000000E+00  0.39310886773E+02  0.39310886773E+02  0.00000000000E+00 0.  1.
         21   -1    0    0  501  503 -0.00000000000E+00 -0.00000000000E+00 -0.16210450386E+04  0.16210450386E+04  0.00000000000E+00 0.  1.
          6    1    1    2  501    0  0.17199323032E+02  0.15745886290E+03 -0.10977280994E+04  0.11225083921E+04  0.17300000000E+03 0.  1.
         -6    1    1    2    0  502 -0.17199323032E+02 -0.15745886290E+03 -0.48400605248E+03  0.53784753328E+03  0.17300000000E+03 0.  1.
<mgrwt>
<rscale>  2 0.23455940E+03</rscale>
<asrwt>0</asrwt>
<pdfrwt beam="1">  1       21 0.60478298E-02 0.23455940E+03</pdfrwt>
<pdfrwt beam="2">  1       21 0.24939150E+00 0.23455940E+03</pdfrwt>
<totfact> 0.12579383E+04</totfact>
</mgrwt>
</event>
<event>
 4    1  0.4332500E+000  0.2469423E+03  0.7546771E-02  0.1115253E+00
         21   -1    0    0  503  502  0.00000000000E+00  0.00000000000E+00  0.62695194832E+03  0.62695194832E+03  0.00000000000E+00 0. -1.
         21   -1    0    0  501  503 -0.00000000000E+00 -0.00000000000E+00 -0.18574059452E+03  0.18574059452E+03  0.00000000000E+00 0. -1.
          6    1    1    2  501    0 -0.28191847531E+02  0.17394452530E+03 -0.59843791006E+02  0.25409005780E+03  0.17300000000E+03 0. -1.
         -6    1    1    2    0  502  0.28191847531E+02 -0.17394452530E+03  0.50105514481E+03  0.55860248504E+03  0.17300000000E+03 0. -1.
<mgrwt>
<rscale>  2 0.24694226E+03</rscale>
<asrwt>0</asrwt>
<pdfrwt beam="1">  1       21 0.96454145E-01 0.24694226E+03</pdfrwt>
<pdfrwt beam="2">  1       21 0.28575476E-01 0.24694226E+03</pdfrwt>
<totfact> 0.10113611E+04</totfact>
</mgrwt>
</event>
<event>
 4    1  0.4332500E+000  0.1807596E+03  0.7546771E-02  0.1167070E+00
         21   -1    0    0  501  502  0.00000000000E+00  0.00000000000E+00  0.23316660991E+03  0.23316660991E+03  0.00000000000E+00 0. -1.
         21   -1    0    0  502  503 -0.00000000000E+00 -0.00000000000E+00 -0.29633113441E+03  0.29633113441E+03  0.00000000000E+00 0. -1.
          6    1    1    2  501    0 -0.29959480986E+01 -0.52307454936E+02  0.16063178935E+03  0.24181938983E+03  0.17300000000E+03 0. -1.
         -6    1    1    2    0  503  0.29959480986E+01  0.52307454936E+02 -0.22379631385E+03  0.28767835449E+03  0.17300000000E+03 0. -1.
<mgrwt>
<rscale>  2 0.18075963E+03</rscale>
<asrwt>0</asrwt>
<pdfrwt beam="1">  1       21 0.35871786E-01 0.18075963E+03</pdfrwt>
<pdfrwt beam="2">  1       21 0.45589405E-01 0.18075963E+03</pdfrwt>
<totfact> 0.34787189E+04</totfact>
</mgrwt>
</event>
<event>
 4    1  0.4332500E+000  0.2804224E+03  0.7546771E-02  0.1095458E+00
         21   -1    0    0  501  502  0.00000000000E+00  0.00000000000E+00  0.73249699971E+02  0.73249699971E+02  0.00000000000E+00 0.  1.
         21   -1    0    0  502  503 -0.00000000000E+00 -0.00000000000E+00 -0.12427322343E+04  0.12427322343E+04  0.00000000000E+00 0. -1.
          6    1    1    2  501    0 -0.14994196272E+02 -0.22018832781E+03 -0.34195891763E+03  0.44223594039E+03  0.17300000000E+03 0.  1.
         -6    1    1    2    0  503  0.14994196272E+02  0.22018832781E+03 -0.82752361670E+03  0.87374599388E+03  0.17300000000E+03 0. -1.
<mgrwt>
<rscale>  2 0.28042241E+03</rscale>
<asrwt>0</asrwt>
<pdfrwt beam="1">  1       21 0.11269185E-01 0.28042241E+03</pdfrwt>
<pdfrwt beam="2">  1       21 0.19118957E+00 0.28042241E+03</pdfrwt>
<totfact> 0.94546412E+03</totfact>
</mgrwt>
</event>
<event>
 4    1  0.4332500E+000  0.1793183E+03  0.7546771E-02  0.1168464E+00
         21   -1    0    0  501  502  0.00000000000E+00  0.00000000000E+00  0.93794024086E+02  0.93794024086E+02  0.00000000000E+00 0. -1.
         21   -1    0    0  502  503 -0.00000000000E+00 -0.00000000000E+00 -0.48166857383E+03  0.48166857383E+03  0.00000000000E+00 0. -1.
          6    1    1    2  501    0 -0.34243567234E+02 -0.32456328224E+02 -0.39456587102E+02  0.18360789037E+03  0.17300000000E+03 0. -1.
         -6    1    1    2    0  503  0.34243567234E+02  0.32456328224E+02 -0.34841796265E+03  0.39185470756E+03  0.17300000000E+03 0. -1.
<mgrwt>
<rscale>  2 0.17931825E+03</rscale>
<asrwt>0</asrwt>
<pdfrwt beam="1">  1       21 0.14429850E-01 0.17931825E+03</pdfrwt>
<pdfrwt beam="2">  1       21 0.74102857E-01 0.17931825E+03</pdfrwt>
<totfact> 0.69146380E+04</totfact>
</mgrwt>
</event>
<event>
 4    1  0.4332500E+000  0.2832985E+03  0.7546771E-02  0.1093901E+00
         21   -1    0    0  503  502  0.00000000000E+00  0.00000000000E+00  0.16782243563E+04  0.16782243563E+04  0.00000000000E+00 0. -1.
         21   -1    0    0  501  503 -0.00000000000E+00 -0.00000000000E+00 -0.63254752401E+02  0.63254752401E+02  0.00000000000E+00 0. -1.
          6    1    1    2  501    0 -0.19570882184E+03 -0.10966800887E+03  0.37740715552E+03  0.47190483803E+03  0.17300000000E+03 0. -1.
         -6    1    1    2    0  502  0.19570882184E+03  0.10966800887E+03  0.12375624484E+04  0.12695742707E+04  0.17300000000E+03 0. -1.
<mgrwt>
<rscale>  2 0.28329846E+03</rscale>
<asrwt>0</asrwt>
<pdfrwt beam="1">  1       21 0.25818833E+00 0.28329846E+03</pdfrwt>
<pdfrwt beam="2">  1       21 0.97315016E-02 0.28329846E+03</pdfrwt>
<totfact> 0.46797073E+03</totfact>
</mgrwt>
</event>
<event>
 4    1  0.4332500E+000  0.2141249E+03  0.7546771E-02  0.1138341E+00
         21   -1    0    0  501  502  0.00000000000E+00  0.00000000000E+00  0.53916059896E+02  0.53916059896E+02  0.00000000000E+00 0.  1.
         21   -1    0    0  502  503 -0.00000000000E+00 -0.00000000000E+00 -0.85141455781E+03  0.85141455781E+03  0.00000000000E+00 0.  1.
          6    1    1    2  501    0  0.78460193796E+02 -0.98815374345E+02 -0.41448008072E+03  0.46652247270E+03  0.17300000000E+03 0.  1.
         -6    1    1    2    0  503 -0.78460193796E+02  0.98815374345E+02 -0.38301841720E+03  0.43880814501E+03  0.17300000000E+03 0.  1.
<mgrwt>
<rscale>  2 0.21412492E+03</rscale>
<asrwt>0</asrwt>
<pdfrwt beam="1">  1       21 0.82947776E-02 0.21412492E+03</pdfrwt>
<pdfrwt beam="2">  1       21 0.13098687E+00 0.21412492E+03</pdfrwt>
<totfact> 0.47228996E+04</totfact>
</mgrwt>
</event>
<event>
 4    1  0.4332500E+000  0.2074158E+03  0.7546771E-02  0.1143629E+00
         21   -1    0    0  501  502  0.00000000000E+00  0.00000000000E+00  0.30140364911E+03  0.30140364911E+03  0.00000000000E+00 0. -1.
         21   -1    0    0  502  503 -0.00000000000E+00 -0.00000000000E+00 -0.22839252235E+03  0.22839252235E+03  0.00000000000E+00 0. -1.
          6    1    1    2  501    0  0.94190413542E+02 -0.64965356484E+02  0.19873011488E+03  0.28725422556E+03  0.17300000000E+03 0. -1.
         -6    1    1    2    0  503 -0.94190413542E+02  0.64965356484E+02 -0.12571898812E+03  0.24254194590E+03  0.17300000000E+03 0. -1.
<mgrwt>
<rscale>  2 0.20741584E+03</rscale>
<asrwt>0</asrwt>
<pdfrwt beam="1">  1       21 0.46369792E-01 0.20741584E+03</pdfrwt>
<pdfrwt beam="2">  1       21 0.35137311E-01 0.20741584E+03</pdfrwt>
<totfact> 0.34515925E+04</totfact>
</mgrwt>
</event>
<event>
 4    1  0.4332500E+000  0.1862379E+03  0.7546771E-02  0.1161899E+00
         21   -1    0    0  503  502  0.00000000000E+00  0.00000000000E+00  0.13474706659E+03  0.13474706659E+03  0.00000000000E+00 0.  1.
         21   -1    0    0  501  503 -0.00000000000E+00 -0.00000000000E+00 -0.27110234842E+03  0.27110234842E+03  0.00000000000E+00 0.  1.
          6    1    1    2  501    0  0.36905162538E+02  0.58254363213E+02 -0.11379050498E+03  0.21824949227E+03  0.17300000000E+03 0. -1.
         -6    1    1    2    0  502 -0.36905162538E+02 -0.58254363213E+02 -0.22564776854E+02  0.18759992273E+03  0.17300000000E+03 0. -1.
<mgrwt>
<rscale>  2 0.18623792E+03</rscale>
<asrwt>0</asrwt>
<pdfrwt beam="1">  1       21 0.20730318E-01 0.18623792E+03</pdfrwt>
<pdfrwt beam="2">  1       21 0.41708054E-01 0.18623792E+03</pdfrwt>
<totfact> 0.11972417E+05</totfact>
</mgrwt>
</event>
<event>
 4    1  0.4332500E+000  0.1903839E+03  0.7546771E-02  0.1158116E+00
         21   -1    0    0  503  502  0.00000000000E+00  0.00000000000E+00  0.11184571421E+03  0.11184571421E+03  0.00000000000E+00 0. -1.
         21   -1    0    0  501  503 -0.00000000000E+00 -0.00000000000E+00 -0.34286705056E+03  0.34286705056E+03  0.00000000000E+00 0.  1.
          6    1    1    2  501    0 -0.76410762001E+02 -0.21873144057E+02 -0.16874216013E+03  0.25440117057E+03  0.17300000000E+03 0. -1.
         -6    1    1    2    0  502  0.76410762001E+02  0.21873144057E+02 -0.62279176229E+02  0.20031159420E+03  0.17300000000E+03 0. -1.
<mgrwt>
<rscale>  2 0.19038393E+03</rscale>
<asrwt>0</asrwt>
<pdfrwt beam="1">  1       21 0.17207033E-01 0.19038393E+03</pdfrwt>
<pdfrwt beam="2">  1       21 0.52748776E-01 0.19038393E+03</pdfrwt>
<totfact> 0.10402381E+05</totfact>
</mgrwt>
</event>
<event>
 4    1  0.4332500E+000  0.2290032E+03  0.7546771E-02  0.1127343E+00
         21   -1    0    0  501  502  0.00000000000E+00  0.00000000000E+00  0.40302151891E+03  0.40302151891E+03  0.00000000000E+00 0.  1.
         21   -1    0    0  502  503 -0.00000000000E+00 -0.00000000000E+00 -0.45068296310E+03  0.45068296310E+03  0.00000000000E+00 0.  1.
          6    1    1    2  501    0 -0.99082721051E+02  0.11267683175E+03  0.33616429735E+03  0.40675408890E+03  0.17300000000E+03 0.  1.
         -6    1    1    2    0  503  0.99082721051E+02 -0.11267683175E+03 -0.38382574155E+03  0.44695039311E+03  0.17300000000E+03 0.  1.
<mgrwt>
<rscale>  2 0.22900317E+03</rscale>
<asrwt>0</asrwt>
<pdfrwt beam="1">  1       21 0.62003311E-01 0.22900317E+03</pdfrwt>
<pdfrwt beam="2">  1       21 0.69335840E-01 0.22900317E+03</pdfrwt>
<totfact> 0.44451823E+03</totfact>
</mgrwt>
</event>
<event>
 4    1  0.4332500E+000  0.2033094E+03  0.7546771E-02  0.1146977E+00
         21   -1    0    0  503  502  0.00000000000E+00  0.00000000000E+00  0.33367449747E+03  0.33367449747E+03  0.00000000000E+00 0. -1.
         21   -1    0    0  501  503 -0.00000000000E+00 -0.00000000000E+00 -0.12425784812E+03  0.12425784812E+03  0.00000000000E+00 0. -1.
          6    1    1    2  501    0  0.37354219440E+02 -0.10005185044E+03  0.92037959558E+02  0.22317189896E+03  0.17300000000E+03 0.  1.
         -6    1    1    2    0  502 -0.37354219440E+02  0.10005185044E+03  0.11737868979E+03  0.23476044663E+03  0.17300000000E+03 0.  1.
<mgrwt>
<rscale>  2 0.20330940E+03</rscale>
<asrwt>0</asrwt>
<pdfrwt beam="1">  1       21 0.51334538E-01 0.20330940E+03</pdfrwt>
<pdfrwt beam="2">  1       21 0.19116592E-01 0.20330940E+03</pdfrwt>
<totfact> 0.90157538E+04</totfact>
</mgrwt>
</event>
<event>
 4    1  0.4332500E+000  0.1793128E+03  0.7546771E-02  0.1168470E+00
         21   -1    0    0  503  502  0.00000000000E+00  0.00000000000E+00  0.13472149087E+03  0.13472149087E+03  0.00000000000E+00 0.  1.
         21   -1    0    0  501  503 -0.00000000000E+00 -0.00000000000E+00 -0.34592321902E+03  0.34592321902E+03  0.00000000000E+00 0.  1.
          6    1    1    2  501    0  0.25999401253E+02  0.39346035864E+02 -0.23942146918E+03  0.29912492258E+03  0.17300000000E+03 0.  1.
         -6    1    1    2    0  502 -0.25999401253E+02 -0.39346035864E+02  0.28219741033E+02  0.18151978732E+03  0.17300000000E+03 0.  1.
<mgrwt>
<rscale>  2 0.17931280E+03</rscale>
<asrwt>0</asrwt>
<pdfrwt beam="1">  1       21 0.20726383E-01 0.17931280E+03</pdfrwt>
<pdfrwt beam="2">  1       21 0.53218956E-01 0.17931280E+03</pdfrwt>
<totfact> 0.72604510E+04</totfact>
</mgrwt>
</event>
<event>
 4    1  0.4332500E+000  0.1889875E+03  0.7546771E-02  0.1159378E+00
         21   -1    0    0  503  502  0.00000000000E+00  0.00000000000E+00  0.14853766056E+03  0.14853766056E+03  0.00000000000E+00 0.  1.
         21   -1    0    0  501  503 -0.00000000000E+00 -0.00000000000E+00 -0.37136916539E+03  0.37136916539E+03  0.00000000000E+00 0.  1.
          6    1    1    2  501    0 -0.18283754038E+02  0.73844282766E+02 -0.26575977874E+03  0.32610509618E+03  0.17300000000E+03 0.  1.
         -6    1    1    2    0  502  0.18283754038E+02 -0.73844282766E+02  0.42928273922E+02  0.19380172977E+03  0.17300000000E+03 0.  1.
<mgrwt>
<rscale>  2 0.18898750E+03</rscale>
<asrwt>0</asrwt>
<pdfrwt beam="1">  1       21 0.22851948E-01 0.18898750E+03</pdfrwt>
<pdfrwt beam="2">  1       21 0.57133718E-01 0.18898750E+03</pdfrwt>
<totfact> 0.51782289E+04</totfact>
</mgrwt>
</event>
<event>
 4    1  0.4332500E+000  0.1751499E+03  0.7546771E-02  0.1172581E+00
         21   -1    0    0  503  502  0.00000000000E+00  0.00000000000E+00  0.27956130134E+03  0.27956130134E+03  0.00000000000E+00 0.  1.
         21   -1    0    0  501  503 -0.00000000000E+00 -0.00000000000E+00 -0.22894410565E+03  0.22894410565E+03  0.00000000000E+00 0.  1.
          6    1    1    2  501    0  0.23847694644E+02 -0.13408608770E+02 -0.15815781850E+03  0.23599025167E+03  0.17300000000E+03 0.  1.
         -6    1    1    2    0  502 -0.23847694644E+02  0.13408608770E+02  0.20877501419E+03  0.27251515532E+03  0.17300000000E+03 0.  1.
<mgrwt>
<rscale>  2 0.17514995E+03</rscale>
<asrwt>0</asrwt>
<pdfrwt beam="1">  1       21 0.43009431E-01 0.17514995E+03</pdfrwt>
<pdfrwt beam="2">  1       21 0.35222170E-01 0.17514995E+03</pdfrwt>
<totfact> 0.40755589E+04</totfact>
</mgrwt>
</event>
<event>
 4    1  0.4332500E+000  0.2371664E+03  0.7546771E-02  0.1121695E+00
         21   -1    0    0  501  502  0.00000000000E+00  0.00000000000E+00  0.99003848667E+02  0.99003848667E+02  0.00000000000E+00 0.  1.
         21   -1    0    0  502  503 -0.00000000000E+00 -0.00000000000E+00 -0.94708162549E+03  0.94708162549E+03  0.00000000000E+00 0.  1.
          6    1    1    2  501    0 -0.16211270258E+03 -0.61932161606E+01 -0.93189324290E+02  0.25481784558E+03  0.17300000000E+03 0.  1.
         -6    1    1    2    0  503  0.16211270258E+03  0.61932161606E+01 -0.75488845253E+03  0.79126762857E+03  0.17300000000E+03 0.  1.
<mgrwt>
<rscale>  2 0.23716636E+03</rscale>
<asrwt>0</asrwt>
<pdfrwt beam="1">  1       21 0.15231362E-01 0.23716636E+03</pdfrwt>
<pdfrwt beam="2">  1       21 0.14570486E+00 0.23716636E+03</pdfrwt>
<totfact> 0.11938536E+04</totfact>
</mgrwt>
</event>
<event>
 4    1  0.4332500E+000  0.2072660E+03  0.7546771E-02  0.1143749E+00
         21   -1    0    0  503  502  0.00000000000E+00  0.00000000000E+00  0.23953979493E+03  0.23953979493E+03  0.00000000000E+00 0.  1.
         21   -1    0    0  501  503 -0.00000000000E+00 -0.00000000000E+00 -0.18378927447E+03  0.18378927447E+03  0.00000000000E+00 0. -1.
          6    1    1    2  501    0 -0.11414297751E+03 -0.12591143199E+01 -0.50557097539E+01  0.20732767515E+03  0.17300000000E+03 0. -1.
         -6    1    1    2    0  502  0.11414297751E+03  0.12591143199E+01  0.60806230215E+02  0.21600139425E+03  0.17300000000E+03 0.  1.
<mgrwt>
<rscale>  2 0.20726602E+03</rscale>
<asrwt>0</asrwt>
<pdfrwt beam="1">  1       21 0.36852276E-01 0.20726602E+03</pdfrwt>
<pdfrwt beam="2">  1       21 0.28275273E-01 0.20726602E+03</pdfrwt>
<totfact> 0.84376569E+04</totfact>
</mgrwt>
</event>
<event>
 4    1  0.4332500E+000  0.2370870E+03  0.7546771E-02  0.1121749E+00
         21   -1    0    0  503  502  0.00000000000E+00  0.00000000000E+00  0.74447114948E+02  0.74447114948E+02  0.00000000000E+00 0. -1.
         21   -1    0    0  501  503 -0.00000000000E+00 -0.00000000000E+00 -0.12536317951E+04  0.12536317951E+04  0.00000000000E+00 0.  1.
          6    1    1    2  501    0  0.47429723768E+02  0.15502154226E+03 -0.10083696662E+04  0.10358666135E+04  0.17300000000E+03 0.  1.
         -6    1    1    2    0  502 -0.47429723768E+02 -0.15502154226E+03 -0.17081501396E+03  0.29221229655E+03  0.17300000000E+03 0. -1.
<mgrwt>
<rscale>  2 0.23708702E+03</rscale>
<asrwt>0</asrwt>
<pdfrwt beam="1">  1       21 0.11453404E-01 0.23708702E+03</pdfrwt>
<pdfrwt beam="2">  1       21 0.19286641E+00 0.23708702E+03</pdfrwt>
<totfact> 0.92021690E+03</totfact>
</mgrwt>
</event>
<event>
 4    1  0.4332500E+000  0.2339987E+03  0.7546771E-02  0.1123857E+00
         21   -1    0    0  501  502  0.00000000000E+00  0.00000000000E+00  0.89609790283E+03  0.89609790283E+03  0.00000000000E+00 0.  1.
         21   -1    0    0  502  503 -0.00000000000E+00 -0.00000000000E+00 -0.22663930209E+03  0.22663930209E+03  0.00000000000E+00 0.  1.
          6    1    1    2  501    0  0.10398816482E+03 -0.11837596391E+03  0.81449088107E+03  0.84743778686E+03  0.17300000000E+03 0.  1.
         -6    1    1    2    0  503 -0.10398816482E+03  0.11837596391E+03 -0.14503228032E+03  0.27529941807E+03  0.17300000000E+03 0.  1.
<mgrwt>
<rscale>  2 0.23399873E+03</rscale>
<asrwt>0</asrwt>
<pdfrwt beam="1">  1       21 0.13786121E+00 0.23399873E+03</pdfrwt>
<pdfrwt beam="2">  1       21 0.34867585E-01 0.23399873E+03</pdfrwt>
<totfact> 0.28517144E+03</totfact>
</mgrwt>
</event>
<event>
 4    1  0.4332500E+000  0.2455161E+03  0.7546771E-02  0.1116172E+00
         21   -1    0    0  503  502  0.00000000000E+00  0.00000000000E+00  0.22867553646E+04  0.22867553646E+04  0.00000000000E+00 0. -1.
         21   -1    0    0  501  503 -0.00000000000E+00 -0.00000000000E+00 -0.27719361476E+02  0.27719361476E+02  0.00000000000E+00 0. -1.
          6    1    1    2  501    0 -0.88243602405E+02  0.15020727059E+03  0.87321825335E+03  0.90707677486E+03  0.17300000000E+03 0. -1.
         -6    1    1    2    0  502  0.88243602405E+02 -0.15020727059E+03  0.13858177498E+04  0.14073979512E+04  0.17300000000E+03 0. -1.
<mgrwt>
<rscale>  2 0.24551610E+03</rscale>
<asrwt>0</asrwt>
<pdfrwt beam="1">  1       21 0.35180837E+00 0.24551610E+03</pdfrwt>
<pdfrwt beam="2">  1       21 0.42645189E-02 0.24551610E+03</pdfrwt>
<totfact> 0.56589547E+03</totfact>
</mgrwt>
</event>
<event>
 4    1  0.4332500E+000  0.2038461E+03  0.7546771E-02  0.1146534E+00
         21   -1    0    0  501  502  0.00000000000E+00  0.00000000000E+00  0.15396393238E+03  0.15396393238E+03  0.00000000000E+00 0. -1.
         21   -1    0    0  502  503 -0.00000000000E+00 -0.00000000000E+00 -0.40735907105E+03  0.40735907105E+03  0.00000000000E+00 0. -1.
          6    1    1    2  501    0 -0.99659476907E+02 -0.41136378383E+02  0.36343796370E+02  0.20706058171E+03  0.17300000000E+03 0. -1.
         -6    1    1    2    0  503  0.99659476907E+02  0.41136378383E+02 -0.28973893504E+03  0.35426242172E+03  0.17300000000E+03 0. -1.
<mgrwt>
<rscale>  2 0.20384605E+03</rscale>
<asrwt>0</asrwt>
<pdfrwt beam="1">  1       21 0.23686759E-01 0.20384605E+03</pdfrwt>
<pdfrwt beam="2">  1       21 0.62670625E-01 0.20384605E+03</pdfrwt>
<totfact> 0.39368415E+04</totfact>
</mgrwt>
</event>
<event>
 4    1  0.4332500E+000  0.1922889E+03  0.7546771E-02  0.1156413E+00
         21   -1    0    0  501  502  0.00000000000E+00  0.00000000000E+00  0.10795442855E+03  0.10795442855E+03  0.00000000000E+00 0.  1.
         21   -1    0    0  502  503 -0.00000000000E+00 -0.00000000000E+00 -0.53595051018E+03  0.53595051018E+03  0.00000000000E+00 0.  1.
          6    1    1    2  501    0  0.29532596300E+01  0.83888723011E+02 -0.20575261313E+02  0.19338661011E+03  0.17300000000E+03 0.  1.
         -6    1    1    2    0  503 -0.29532596300E+01 -0.83888723011E+02 -0.40742082032E+03  0.45051832862E+03  0.17300000000E+03 0.  1.
<mgrwt>
<rscale>  2 0.19228895E+03</rscale>
<asrwt>0</asrwt>
<pdfrwt beam="1">  1       21 0.16608374E-01 0.19228895E+03</pdfrwt>
<pdfrwt beam="2">  1       21 0.82453924E-01 0.19228895E+03</pdfrwt>
<totfact> 0.41830314E+04</totfact>
</mgrwt>
</event>
<event>
 4    1  0.4332500E+000  0.1832265E+03  0.7546771E-02  0.1164717E+00
         21   -1    0    0  503  502  0.00000000000E+00  0.00000000000E+00  0.42284555893E+03  0.42284555893E+03  0.00000000000E+00 0. -1.
         21   -1    0    0  501  503 -0.00000000000E+00 -0.00000000000E+00 -0.83571103960E+02  0.83571103960E+02  0.00000000000E+00 0. -1.
          6    1    1    2  501    0 -0.25912164130E+01 -0.60301064622E+02  0.11303649013E+03  0.21528859909E+03  0.17300000000E+03 0.  1.
         -6    1    1    2    0  502  0.25912164130E+01  0.60301064622E+02  0.22623796485E+03  0.29112806381E+03  0.17300000000E+03 0.  1.
<mgrwt>
<rscale>  2 0.18322645E+03</rscale>
<asrwt>0</asrwt>
<pdfrwt beam="1">  1       21 0.65053162E-01 0.18322645E+03</pdfrwt>
<pdfrwt beam="2">  1       21 0.12857093E-01 0.18322645E+03</pdfrwt>
<totfact> 0.11320218E+05</totfact>
</mgrwt>
</event>
<event>
 4    1  0.4332500E+000  0.2896281E+03  0.7546771E-02  0.1090543E+00
         21   -1    0    0  503  502  0.00000000000E+00  0.00000000000E+00  0.94445310591E+03  0.94445310591E+03  0.00000000000E+00 0.  1.
         21   -1    0    0  501  503 -0.00000000000E+00 -0.00000000000E+00 -0.23687004106E+03  0.23687004106E+03  0.00000000000E+00 0.  1.
          6    1    1    2  501    0  0.66094215939E+02  0.22268136871E+03 -0.11318047506E+03  0.31095700231E+03  0.17300000000E+03 0.  1.
         -6    1    1    2    0  502 -0.66094215939E+02 -0.22268136871E+03  0.82076353990E+03  0.87036614466E+03  0.17300000000E+03 0.  1.
<mgrwt>
<rscale>  2 0.28962810E+03</rscale>
<asrwt>0</asrwt>
<pdfrwt beam="1">  1       21 0.14530048E+00 0.28962810E+03</pdfrwt>
<pdfrwt beam="2">  1       21 0.36441545E-01 0.28962810E+03</pdfrwt>
<totfact> 0.21889310E+03</totfact>
</mgrwt>
</event>
<event>
 4    1  0.4332500E+000  0.2372384E+03  0.7546771E-02  0.1121646E+00
         21   -1    0    0  503  502  0.00000000000E+00  0.00000000000E+00  0.45476938718E+03  0.45476938718E+03  0.00000000000E+00 0.  1.
         21   -1    0    0  501  503 -0.00000000000E+00 -0.00000000000E+00 -0.13927613053E+03  0.13927613053E+03  0.00000000000E+00 0.  1.
          6    1    1    2  501    0  0.11487730137E+03  0.11470079319E+03  0.25688665553E+03  0.34967530671E+03  0.17300000000E+03 0.  1.
         -6    1    1    2    0  502 -0.11487730137E+03 -0.11470079319E+03  0.58606601122E+02  0.24437021100E+03  0.17300000000E+03 0.  1.
<mgrwt>
<rscale>  2 0.23723842E+03</rscale>
<asrwt>0</asrwt>
<pdfrwt beam="1">  1       21 0.69964520E-01 0.23723842E+03</pdfrwt>
<pdfrwt beam="2">  1       21 0.21427097E-01 0.23723842E+03</pdfrwt>
<totfact> 0.36805504E+04</totfact>
</mgrwt>
</event>
<event>
 4    1  0.4332500E+000  0.2093830E+03  0.7546771E-02  0.1142056E+00
         21   -1    0    0  503  502  0.00000000000E+00  0.00000000000E+00  0.37450108418E+03  0.37450108418E+03  0.00000000000E+00 0. -1.
         21   -1    0    0  501  503 -0.00000000000E+00 -0.00000000000E+00 -0.23404799192E+03  0.23404799192E+03  0.00000000000E+00 0. -1.
          6    1    1    2  501    0 -0.11130767005E+03 -0.39023668954E+02 -0.14488967126E+03  0.25462572727E+03  0.17300000000E+03 0. -1.
         -6    1    1    2    0  502  0.11130767005E+03  0.39023668954E+02  0.28534276352E+03  0.35392334882E+03  0.17300000000E+03 0. -1.
<mgrwt>
<rscale>  2 0.20938301E+03</rscale>
<asrwt>0</asrwt>
<pdfrwt beam="1">  1       21 0.57615552E-01 0.20938301E+03</pdfrwt>
<pdfrwt beam="2">  1       21 0.36007383E-01 0.20938301E+03</pdfrwt>
<totfact> 0.20812971E+04</totfact>
</mgrwt>
</event>
<event>
 4    1  0.4332500E+000  0.1778086E+03  0.7546771E-02  0.1169941E+00
         21   -1    0    0  503  502  0.00000000000E+00  0.00000000000E+00  0.34463570548E+02  0.34463570548E+02  0.00000000000E+00 0.  1.
         21   -1    0    0  501  503 -0.00000000000E+00 -0.00000000000E+00 -0.13390234665E+04  0.13390234665E+04  0.00000000000E+00 0.  1.
          6    1    1    2  501    0 -0.35415097236E+02  0.20800650302E+02 -0.10376496426E+04  0.10527738014E+04  0.17300000000E+03 0.  1.
         -6    1    1    2    0  502  0.35415097236E+02 -0.20800650302E+02 -0.26691025338E+03  0.32071323565E+03  0.17300000000E+03 0.  1.
<mgrwt>
<rscale>  2 0.17780859E+03</rscale>
<asrwt>0</asrwt>
<pdfrwt beam="1">  1       21 0.53020892E-02 0.17780859E+03</pdfrwt>
<pdfrwt beam="2">  1       21 0.20600355E+00 0.17780859E+03</pdfrwt>
<totfact> 0.30267525E+04</totfact>
</mgrwt>
</event>
<event>
 4    1  0.4332500E+000  0.1830877E+03  0.7546771E-02  0.1164848E+00
         21   -1    0    0  501  502  0.00000000000E+00  0.00000000000E+00  0.40416731664E+02  0.40416731664E+02  0.00000000000E+00 0.  1.
         21   -1    0    0  502  503 -0.00000000000E+00 -0.00000000000E+00 -0.89234233286E+03  0.89234233286E+03  0.00000000000E+00 0.  1.
          6    1    1    2  501    0 -0.46534630586E+02 -0.37770581074E+02 -0.30208543092E+03  0.35323745019E+03  0.17300000000E+03 0.  1.
         -6    1    1    2    0  503  0.46534630586E+02  0.37770581074E+02 -0.54984017027E+03  0.57952161434E+03  0.17300000000E+03 0.  1.
<mgrwt>
<rscale>  2 0.18308765E+03</rscale>
<asrwt>0</asrwt>
<pdfrwt beam="1">  1       21 0.62179594E-02 0.18308765E+03</pdfrwt>
<pdfrwt beam="2">  1       21 0.13728342E+00 0.18308765E+03</pdfrwt>
<totfact> 0.70143497E+04</totfact>
</mgrwt>
</event>
<event>
 4    1  0.4332500E+000  0.2001575E+03  0.7546771E-02  0.1149606E+00
         21   -1    0    0  501  502  0.00000000000E+00  0.00000000000E+00  0.66807894309E+03  0.66807894309E+03  0.00000000000E+00 0.  1.
         21   -1    0    0  502  503 -0.00000000000E+00 -0.00000000000E+00 -0.19817471717E+03  0.19817471717E+03  0.00000000000E+00 0. -1.
          6    1    1    2  501    0  0.77527891461E+02 -0.64214113869E+02  0.59665861789E+03  0.62933658139E+03  0.17300000000E+03 0.  1.
         -6    1    1    2    0  503 -0.77527891461E+02  0.64214113869E+02 -0.12675439197E+03  0.23691707886E+03  0.17300000000E+03 0. -1.
<mgrwt>
<rscale>  2 0.20015750E+03</rscale>
<asrwt>0</asrwt>
<pdfrwt beam="1">  1       21 0.10278137E+00 0.20015750E+03</pdfrwt>
<pdfrwt beam="2">  1       21 0.30488418E-01 0.20015750E+03</pdfrwt>
<totfact> 0.78963750E+03</totfact>
</mgrwt>
</event>
<event>
 4    1  0.4332500E+000  0.3370411E+03  0.7546771E-02  0.1068063E+00
         21   -1    0    0  501  502  0.00000000000E+00  0.00000000000E+00  0.10319644020E+04  0.10319644020E+04  0.00000000000E+00 0.  1.
         21   -1    0    0  502  503 -0.00000000000E+00 -0.00000000000E+00 -0.31289310740E+03  0.31289310740E+03  0.00000000000E+00 0.  1.
          6    1    1    2  501    0 -0.68106686661E+02  0.28112133586E+03  0.90091074485E+03  0.96189235179E+03  0.17300000000E+03 0.  1.
         -6    1    1    2    0  503  0.68106686661E+02 -0.28112133586E+03 -0.18183945028E+03  0.38296515758E+03  0.17300000000E+03 0.  1.
<mgrwt>
<rscale>  2 0.33704113E+03</rscale>
<asrwt>0</asrwt>
<pdfrwt beam="1">  1       21 0.15876375E+00 0.33704113E+03</pdfrwt>
<pdfrwt beam="2">  1       21 0.48137402E-01 0.33704113E+03</pdfrwt>
<totfact> 0.94443224E+02</totfact>
</mgrwt>
</event>
<event>
 4    1  0.4332500E+000  0.1777846E+03  0.7546771E-02  0.1169964E+00
         21   -1    0    0  501  502  0.00000000000E+00  0.00000000000E+00  0.96271363396E+03  0.96271363396E+03  0.00000000000E+00 0. -1.
         21   -1    0    0  502  503 -0.00000000000E+00 -0.00000000000E+00 -0.76682558163E+02  0.76682558163E+02  0.00000000000E+00 0. -1.
          6    1    1    2  501    0  0.39833212445E+02  0.95752426383E+01  0.50015424361E+02  0.18468598420E+03  0.17300000000E+03 0. -1.
         -6    1    1    2    0  503 -0.39833212445E+02 -0.95752426383E+01  0.83601565143E+03  0.85471020792E+03  0.17300000000E+03 0. -1.
<mgrwt>
<rscale>  2 0.17778462E+03</rscale>
<asrwt>0</asrwt>
<pdfrwt beam="1">  1       21 0.14810978E+00 0.17778462E+03</pdfrwt>
<pdfrwt beam="2">  1       21 0.11797317E-01 0.17778462E+03</pdfrwt>
<totfact> 0.18886837E+04</totfact>
</mgrwt>
</event>
<event>
 4    1  0.4332500E+000  0.2075604E+03  0.7546771E-02  0.1143513E+00
         21   -1    0    0  503  502  0.00000000000E+00  0.00000000000E+00  0.16345279854E+03  0.16345279854E+03  0.00000000000E+00 0.  1.
         21   -1    0    0  501  503 -0.00000000000E+00 -0.00000000000E+00 -0.35026588061E+03  0.35026588061E+03  0.00000000000E+00 0.  1.
          6    1    1    2  501    0 -0.41172304492E+02 -0.10703811275E+03 -0.22119590934E+03  0.30332976535E+03  0.17300000000E+03 0.  1.
         -6    1    1    2    0  502  0.41172304492E+02  0.10703811275E+03  0.34382827271E+02  0.21038891380E+03  0.17300000000E+03 0.  1.
<mgrwt>
<rscale>  2 0.20756039E+03</rscale>
<asrwt>0</asrwt>
<pdfrwt beam="1">  1       21 0.25146585E-01 0.20756039E+03</pdfrwt>
<pdfrwt beam="2">  1       21 0.53887058E-01 0.20756039E+03</pdfrwt>
<totfact> 0.48427015E+04</totfact>
</mgrwt>
</event>
<event>
 4    1  0.4332500E+000  0.2135767E+03  0.7546771E-02  0.1138765E+00
         21   -1    0    0  503  502  0.00000000000E+00  0.00000000000E+00  0.85554428452E+03  0.85554428452E+03  0.00000000000E+00 0. -1.
         21   -1    0    0  501  503 -0.00000000000E+00 -0.00000000000E+00 -0.62225419771E+02  0.62225419771E+02  0.00000000000E+00 0.  1.
          6    1    1    2  501    0  0.12421770828E+03 -0.15998614292E+02  0.22303059880E+03  0.30880032822E+03  0.17300000000E+03 0.  1.
         -6    1    1    2    0  502 -0.12421770828E+03  0.15998614292E+02  0.57028826595E+03  0.60896937607E+03  0.17300000000E+03 0. -1.
<mgrwt>
<rscale>  2 0.21357667E+03</rscale>
<asrwt>0</asrwt>
<pdfrwt beam="1">  1       21 0.13162219E+00 0.21357667E+03</pdfrwt>
<pdfrwt beam="2">  1       21 0.95731421E-02 0.21357667E+03</pdfrwt>
<totfact> 0.36276309E+04</totfact>
</mgrwt>
</event>
<event>
 4    1  0.4332500E+000  0.3441192E+03  0.7546771E-02  0.1065055E+00
         21   -1    0    0  503  502  0.00000000000E+00  0.00000000000E+00  0.90128912999E+03  0.90128912999E+03  0.00000000000E+00 0.  1.
         21   -1    0    0  501  503 -0.00000000000E+00 -0.00000000000E+00 -0.25105885599E+03  0.25105885599E+03  0.00000000000E+00 0. -1.
          6    1    1    2  501    0  0.12894142823E+03 -0.26807295136E+03 -0.72681620843E+02  0.35171098529E+03  0.17300000000E+03 0.  1.
         -6    1    1    2    0  502 -0.12894142823E+03  0.26807295136E+03  0.72291189485E+03  0.80063700069E+03  0.17300000000E+03 0.  1.
<mgrwt>
<rscale>  2 0.34411916E+03</rscale>
<asrwt>0</asrwt>
<pdfrwt beam="1">  1       21 0.13865986E+00 0.34411916E+03</pdfrwt>
<pdfrwt beam="2">  1       21 0.38624440E-01 0.34411916E+03</pdfrwt>
<totfact> 0.21339526E+03</totfact>
</mgrwt>
</event>
<event>
 4    1  0.4332500E+000  0.1835679E+03  0.7546771E-02  0.1164394E+00
         21   -1    0    0  501  502  0.00000000000E+00  0.00000000000E+00  0.67742623288E+03  0.67742623288E+03  0.00000000000E+00 0.  1.
         21   -1    0    0  502  503 -0.00000000000E+00 -0.00000000000E+00 -0.88950898661E+02  0.88950898661E+02  0.00000000000E+00 0. -1.
          6    1    1    2  501    0  0.38370691975E+02 -0.47915279232E+02  0.54864193507E+03  0.57853708343E+03  0.17300000000E+03 0.  1.
         -6    1    1    2    0  503 -0.38370691975E+02  0.47915279232E+02  0.39833399148E+02  0.18784004811E+03  0.17300000000E+03 0. -1.
<mgrwt>
<rscale>  2 0.18356793E+03</rscale>
<asrwt>0</asrwt>
<pdfrwt beam="1">  1       21 0.10421942E+00 0.18356793E+03</pdfrwt>
<pdfrwt beam="2">  1       21 0.13684754E-01 0.18356793E+03</pdfrwt>
<totfact> 0.34636201E+04</totfact>
</mgrwt>
</event>
<event>
 4    1  0.4332500E+000  0.1910443E+03  0.7546771E-02  0.1157523E+00
         21   -1    0    0  503  502  0.00000000000E+00  0.00000000000E+00  0.47148125735E+02  0.47148125735E+02  0.00000000000E+00 0.  1.
         21   -1    0    0  501  503 -0.00000000000E+00 -0.00000000000E+00 -0.11010288331E+04  0.11010288331E+04  0.00000000000E+00 0.  1.
          6    1    1    2  501    0  0.20972755093E+02  0.78288419175E+02 -0.21411778114E+03  0.28695706514E+03  0.17300000000E+03 0.  1.
         -6    1    1    2    0  502 -0.20972755093E+02 -0.78288419175E+02 -0.83976292627E+03  0.86121989373E+03  0.17300000000E+03 0.  1.
<mgrwt>
<rscale>  2 0.19104432E+03</rscale>
<asrwt>0</asrwt>
<pdfrwt beam="1">  1       21 0.72535574E-02 0.19104432E+03</pdfrwt>
<pdfrwt beam="2">  1       21 0.16938906E+00 0.19104432E+03</pdfrwt>
<totfact> 0.30685988E+04</totfact>
</mgrwt>
</event>
<event>
 4    1  0.4332500E+000  0.2053466E+03  0.7546771E-02  0.1145305E+00
         21   -1    0    0  503  502  0.00000000000E+00  0.00000000000E+00  0.82988805103E+03  0.82988805103E+03  0.00000000000E+00 0.  1.
         21   -1    0    0  501  503 -0.00000000000E+00 -0.00000000000E+00 -0.81429731317E+02  0.81429731317E+02  0.00000000000E+00 0.  1.
          6    1    1    2  501    0 -0.50839623405E+01  0.11050960814E+03  0.94817942385E+02  0.22618059679E+03  0.17300000000E+03 0.  1.
         -6    1    1    2    0  502  0.50839623405E+01 -0.11050960814E+03  0.65364037733E+03  0.68513718556E+03  0.17300000000E+03 0.  1.
<mgrwt>
<rscale>  2 0.20534659E+03</rscale>
<asrwt>0</asrwt>
<pdfrwt beam="1">  1       21 0.12767508E+00 0.20534659E+03</pdfrwt>
<pdfrwt beam="2">  1       21 0.12527652E-01 0.20534659E+03</pdfrwt>
<totfact> 0.24382027E+04</totfact>
</mgrwt>
</event>
<event>
 4    1  0.4332500E+000  0.1914903E+03  0.7546771E-02  0.1157124E+00
         21   -1    0    0  503  502  0.00000000000E+00  0.00000000000E+00  0.15768420157E+04  0.15768420157E+04  0.00000000000E+00 0. -1.
         21   -1    0    0  501  503 -0.00000000000E+00 -0.00000000000E+00 -0.26880882412E+02  0.26880882412E+02  0.00000000000E+00 0. -1.
          6    1    1    2  501    0  0.65965280448E+02  0.48868530924E+02  0.48045773111E+03  0.51721193231E+03  0.17300000000E+03 0. -1.
         -6    1    1    2    0  502 -0.65965280448E+02 -0.48868530924E+02  0.10695034022E+04  0.10865109658E+04  0.17300000000E+03 0. -1.
<mgrwt>
<rscale>  2 0.19149034E+03</rscale>
<asrwt>0</asrwt>
<pdfrwt beam="1">  1       21 0.24259101E+00 0.19149034E+03</pdfrwt>
<pdfrwt beam="2">  1       21 0.41355216E-02 0.19149034E+03</pdfrwt>
<totfact> 0.27275212E+04</totfact>
</mgrwt>
</event>
<event>
 4    1  0.4332500E+000  0.2460455E+03  0.7546771E-02  0.1115830E+00
         21   -1    0    0  501  502  0.00000000000E+00  0.00000000000E+00  0.20237149809E+03  0.20237149809E+03  0.00000000000E+00 0. -1.
         21   -1    0    0  502  503 -0.00000000000E+00 -0.00000000000E+00 -0.47798568644E+03  0.47798568644E+03  0.00000000000E+00 0. -1.
          6    1    1    2  501    0 -0.16417269089E+03 -0.60470597923E+02  0.70274197335E+02  0.25588440448E+03  0.17300000000E+03 0. -1.
         -6    1    1    2    0  503  0.16417269089E+03  0.60470597923E+02 -0.34588838568E+03  0.42447278004E+03  0.17300000000E+03 0. -1.
<mgrwt>
<rscale>  2 0.24604545E+03</rscale>
<asrwt>0</asrwt>
<pdfrwt beam="1">  1       21 0.31134077E-01 0.24604545E+03</pdfrwt>
<pdfrwt beam="2">  1       21 0.73536258E-01 0.24604545E+03</pdfrwt>
<totfact> 0.15964021E+04</totfact>
</mgrwt>
</event>
<event>
 4    1  0.4332500E+000  0.2012857E+03  0.7546771E-02  0.1148659E+00
         21   -1    0    0  503  502  0.00000000000E+00  0.00000000000E+00  0.84852164611E+03  0.84852164611E+03  0.00000000000E+00 0.  1.
         21   -1    0    0  501  503 -0.00000000000E+00 -0.00000000000E+00 -0.47830551641E+02  0.47830551641E+02  0.00000000000E+00 0.  1.
          6    1    1    2  501    0  0.98042511177E+02  0.31218664550E+02  0.41886771991E+03  0.46472153576E+03  0.17300000000E+03 0.  1.
         -6    1    1    2    0  502 -0.98042511177E+02 -0.31218664550E+02  0.38182337456E+03  0.43163066199E+03  0.17300000000E+03 0.  1.
<mgrwt>
<rscale>  2 0.20128571E+03</rscale>
<asrwt>0</asrwt>
<pdfrwt beam="1">  1       21 0.13054178E+00 0.20128571E+03</pdfrwt>
<pdfrwt beam="2">  1       21 0.73585470E-02 0.20128571E+03</pdfrwt>
<totfact> 0.59078406E+04</totfact>
</mgrwt>
</event>
<event>
 4    1  0.4332500E+000  0.1745706E+03  0.7546771E-02  0.1173163E+00
         21   -1    0    0  501  502  0.00000000000E+00  0.00000000000E+00  0.67846424817E+03  0.67846424817E+03  0.00000000000E+00 0.  1.
         21   -1    0    0  502  503 -0.00000000000E+00 -0.00000000000E+00 -0.57610838439E+02  0.57610838439E+02  0.00000000000E+00 0.  1.
          6    1    1    2  501    0  0.10390793033E+02 -0.20927039615E+02  0.13767268404E+03  0.22232561143E+03  0.17300000000E+03 0.  1.
         -6    1    1    2    0  503 -0.10390793033E+02  0.20927039615E+02  0.48318072570E+03  0.51374947518E+03  0.17300000000E+03 0.  1.
<mgrwt>
<rscale>  2 0.17457064E+03</rscale>
<asrwt>0</asrwt>
<pdfrwt beam="1">  1       21 0.10437911E+00 0.17457064E+03</pdfrwt>
<pdfrwt beam="2">  1       21 0.88632064E-02 0.17457064E+03</pdfrwt>
<totfact> 0.74978268E+04</totfact>
</mgrwt>
</event>
<event>
 4    1  0.4332500E+000  0.1964179E+03  0.7546771E-02  0.1152797E+00
         21   -1    0    0  503  502  0.00000000000E+00  0.00000000000E+00  0.61372751838E+02  0.61372751838E+02  0.00000000000E+00 0.  1.
         21   -1    0    0  501  503 -0.00000000000E+00 -0.00000000000E+00 -0.14507893047E+04  0.14507893047E+04  0.00000000000E+00 0.  1.
          6    1    1    2  501    0 -0.92583089300E+02  0.89080635985E+01 -0.12638854493E+04  0.12790568443E+04  0.17300000000E+03 0.  1.
         -6    1    1    2    0  502  0.92583089300E+02 -0.89080635985E+01 -0.12553110363E+03  0.23310521230E+03  0.17300000000E+03 0.  1.
<mgrwt>
<rscale>  2 0.19641788E+03</rscale>
<asrwt>0</asrwt>
<pdfrwt beam="1">  1       21 0.94419617E-02 0.19641788E+03</pdfrwt>
<pdfrwt beam="2">  1       21 0.22319836E+00 0.19641788E+03</pdfrwt>
<totfact> 0.86053613E+03</totfact>
</mgrwt>
</event>
<event>
 4    1  0.4332500E+000  0.2357138E+03  0.7546771E-02  0.1122682E+00
         21   -1    0    0  503  502  0.00000000000E+00  0.00000000000E+00  0.83256831230E+03  0.83256831230E+03  0.00000000000E+00 0.  1.
         21   -1    0    0  501  503 -0.00000000000E+00 -0.00000000000E+00 -0.73583548206E+02  0.73583548206E+02  0.00000000000E+00 0.  1.
          6    1    1    2  501    0 -0.14532538550E+03 -0.67175343753E+02  0.24126404176E+03  0.33729709801E+03  0.17300000000E+03 0.  1.
         -6    1    1    2    0  502  0.14532538550E+03  0.67175343753E+02  0.51772072234E+03  0.56885476250E+03  0.17300000000E+03 0.  1.
<mgrwt>
<rscale>  2 0.23571380E+03</rscale>
<asrwt>0</asrwt>
<pdfrwt beam="1">  1       21 0.12808743E+00 0.23571380E+03</pdfrwt>
<pdfrwt beam="2">  1       21 0.11320547E-01 0.23571380E+03</pdfrwt>
<totfact> 0.28511845E+04</totfact>
</mgrwt>
</event>
<event>
 4    1  0.4332500E+000  0.2029483E+03  0.7546771E-02  0.1147275E+00
         21   -1    0    0  501  502  0.00000000000E+00  0.00000000000E+00  0.13196966481E+03  0.13196966481E+03  0.00000000000E+00 0. -1.
         21   -1    0    0  502  503 -0.00000000000E+00 -0.00000000000E+00 -0.37409711042E+03  0.37409711042E+03  0.00000000000E+00 0. -1.
          6    1    1    2  501    0 -0.92984551196E+02  0.51116382048E+02 -0.18057378300E+02  0.20375004340E+03  0.17300000000E+03 0. -1.
         -6    1    1    2    0  503  0.92984551196E+02 -0.51116382048E+02 -0.22407006731E+03  0.30231673182E+03  0.17300000000E+03 0. -1.
<mgrwt>
<rscale>  2 0.20294830E+03</rscale>
<asrwt>0</asrwt>
<pdfrwt beam="1">  1       21 0.20303026E-01 0.20294830E+03</pdfrwt>
<pdfrwt beam="2">  1       21 0.57553401E-01 0.20294830E+03</pdfrwt>
<totfact> 0.63271801E+04</totfact>
</mgrwt>
</event>
<event>
 4    1  0.4332500E+000  0.2672514E+03  0.7546771E-02  0.1102863E+00
         21   -1    0    0  501  502  0.00000000000E+00  0.00000000000E+00  0.78680880611E+02  0.78680880611E+02  0.00000000000E+00 0. -1.
         21   -1    0    0  502  503 -0.00000000000E+00 -0.00000000000E+00 -0.99742152203E+03  0.99742152203E+03  0.00000000000E+00 0. -1.
          6    1    1    2  501    0  0.78277020484E+01  0.20355101903E+03 -0.29804990953E+03  0.40032116961E+03  0.17300000000E+03 0. -1.
         -6    1    1    2    0  503 -0.78277020484E+01 -0.20355101903E+03 -0.62069073189E+03  0.67578123303E+03  0.17300000000E+03 0. -1.
<mgrwt>
<rscale>  2 0.26725136E+03</rscale>
<asrwt>0</asrwt>
<pdfrwt beam="1">  1       21 0.12104751E-01 0.26725136E+03</pdfrwt>
<pdfrwt beam="2">  1       21 0.15344946E+00 0.26725136E+03</pdfrwt>
<totfact> 0.15529344E+04</totfact>
</mgrwt>
</event>
<event>
 4    1  0.4332500E+000  0.2502153E+03  0.7546771E-02  0.1113169E+00
         21   -1    0    0  501  502  0.00000000000E+00  0.00000000000E+00  0.11704721308E+03  0.11704721308E+03  0.00000000000E+00 0.  1.
         21   -1    0    0  502  503 -0.00000000000E+00 -0.00000000000E+00 -0.55390367695E+03  0.55390367695E+03  0.00000000000E+00 0. -1.
          6    1    1    2  501    0  0.16659878059E+02  0.18000313410E+03 -0.15627728018E+03  0.29500892889E+03  0.17300000000E+03 0.  1.
         -6    1    1    2    0  503 -0.16659878059E+02 -0.18000313410E+03 -0.28057918369E+03  0.37594196114E+03  0.17300000000E+03 0. -1.
<mgrwt>
<rscale>  2 0.25021527E+03</rscale>
<asrwt>0</asrwt>
<pdfrwt beam="1">  1       21 0.18007263E-01 0.25021527E+03</pdfrwt>
<pdfrwt beam="2">  1       21 0.85215951E-01 0.25021527E+03</pdfrwt>
<totfact> 0.32467910E+04</totfact>
</mgrwt>
</event>
<event>
 4    1  0.4332500E+000  0.1898906E+03  0.7546771E-02  0.1158560E+00
         21   -1    0    0  501  502  0.00000000000E+00  0.00000000000E+00  0.99769350789E+02  0.99769350789E+02  0.00000000000E+00 0. -1.
         21   -1    0    0  502  503 -0.00000000000E+00 -0.00000000000E+00 -0.47966769268E+03  0.47966769268E+03  0.00000000000E+00 0. -1.
          6    1    1    2  501    0  0.78279408000E+02 -0.13251635838E+01 -0.46100332958E+02  0.19540640336E+03  0.17300000000E+03 0. -1.
         -6    1    1    2    0  503 -0.78279408000E+02  0.13251635838E+01 -0.33379800893E+03  0.38403064011E+03  0.17300000000E+03 0. -1.
<mgrwt>
<rscale>  2 0.18989055E+03</rscale>
<asrwt>0</asrwt>
<pdfrwt beam="1">  1       21 0.15349131E-01 0.18989055E+03</pdfrwt>
<pdfrwt beam="2">  1       21 0.73795028E-01 0.18989055E+03</pdfrwt>
<totfact> 0.62086143E+04</totfact>
</mgrwt>
</event>
<event>
 4    1  0.4332500E+000  0.2582877E+03  0.7546771E-02  0.1108176E+00
         21   -1    0    0  501  502  0.00000000000E+00  0.00000000000E+00  0.15922847836E+03  0.15922847836E+03  0.00000000000E+00 0. -1.
         21   -1    0    0  502  503 -0.00000000000E+00 -0.00000000000E+00 -0.47530392685E+03  0.47530392685E+03  0.00000000000E+00 0.  1.
          6    1    1    2  501    0  0.16206989831E+03 -0.10255188368E+03 -0.48816018488E+02  0.26286031356E+03  0.17300000000E+03 0. -1.
         -6    1    1    2    0  503 -0.16206989831E+03  0.10255188368E+03 -0.26725943000E+03  0.37167209165E+03  0.17300000000E+03 0.  1.
<mgrwt>
<rscale>  2 0.25828771E+03</rscale>
<asrwt>0</asrwt>
<pdfrwt beam="1">  1       21 0.24496690E-01 0.25828771E+03</pdfrwt>
<pdfrwt beam="2">  1       21 0.73123679E-01 0.25828771E+03</pdfrwt>
<totfact> 0.25608995E+04</totfact>
</mgrwt>
</event>
<event>
 4    1  0.4332500E+000  0.1786353E+03  0.7546771E-02  0.1169130E+00
         21   -1    0    0  503  502  0.00000000000E+00  0.00000000000E+00  0.53814530228E+02  0.53814530228E+02  0.00000000000E+00 0.  1.
         21   -1    0    0  501  503 -0.00000000000E+00 -0.00000000000E+00 -0.73488779707E+03  0.73488779707E+03  0.00000000000E+00 0.  1.
          6    1    1    2  501    0  0.28205884461E+02 -0.34438507398E+02 -0.51383158094E+03  0.54399768040E+03  0.17300000000E+03 0.  1.
         -6    1    1    2    0  502 -0.28205884461E+02  0.34438507398E+02 -0.16724168590E+03  0.24470464690E+03  0.17300000000E+03 0.  1.
<mgrwt>
<rscale>  2 0.17863533E+03</rscale>
<asrwt>0</asrwt>
<pdfrwt beam="1">  1       21 0.82791588E-02 0.17863533E+03</pdfrwt>
<pdfrwt beam="2">  1       21 0.11305966E+00 0.17863533E+03</pdfrwt>
<totfact> 0.69532152E+04</totfact>
</mgrwt>
</event>
<event>
 4    1  0.4332500E+000  0.1786544E+03  0.7546771E-02  0.1169112E+00
         21   -1    0    0  501  502  0.00000000000E+00  0.00000000000E+00  0.31991965622E+03  0.31991965622E+03  0.00000000000E+00 0. -1.
         21   -1    0    0  502  503 -0.00000000000E+00 -0.00000000000E+00 -0.24076286759E+03  0.24076286759E+03  0.00000000000E+00 0. -1.
          6    1    1    2  501    0  0.43134158923E+02 -0.11307262583E+02  0.25411209882E+03  0.31062898870E+03  0.17300000000E+03 0. -1.
         -6    1    1    2    0  503 -0.43134158923E+02  0.11307262583E+02 -0.17495531020E+03  0.25005353511E+03  0.17300000000E+03 0. -1.
<mgrwt>
<rscale>  2 0.17865444E+03</rscale>
<asrwt>0</asrwt>
<pdfrwt beam="1">  1       21 0.49218408E-01 0.17865444E+03</pdfrwt>
<pdfrwt beam="2">  1       21 0.37040441E-01 0.17865444E+03</pdfrwt>
<totfact> 0.27893559E+04</totfact>
</mgrwt>
</event>
<event>
 4    1  0.4332500E+000  0.1804140E+03  0.7546771E-02  0.1167403E+00
         21   -1    0    0  501  502  0.00000000000E+00  0.00000000000E+00  0.13602064293E+03  0.13602064293E+03  0.00000000000E+00 0. -1.
         21   -1    0    0  502  503 -0.00000000000E+00 -0.00000000000E+00 -0.24243954451E+03  0.24243954451E+03  0.00000000000E+00 0. -1.
          6    1    1    2  501    0 -0.46954975323E+02 -0.20382595938E+02 -0.31662490341E+02  0.18317132204E+03  0.17300000000E+03 0. -1.
         -6    1    1    2    0  503  0.46954975323E+02  0.20382595938E+02 -0.74756411245E+02  0.19528886539E+03  0.17300000000E+03 0. -1.
<mgrwt>
<rscale>  2 0.18041402E+03</rscale>
<asrwt>0</asrwt>
<pdfrwt beam="1">  1       21 0.20926253E-01 0.18041402E+03</pdfrwt>
<pdfrwt beam="2">  1       21 0.37298392E-01 0.18041402E+03</pdfrwt>
<totfact> 0.14760702E+05</totfact>
</mgrwt>
</event>
<event>
 4    1  0.4332500E+000  0.2342134E+03  0.7546771E-02  0.1123709E+00
         21   -1    0    0  503  502  0.00000000000E+00  0.00000000000E+00  0.74734231926E+03  0.74734231926E+03  0.00000000000E+00 0. -1.
         21   -1    0    0  501  503 -0.00000000000E+00 -0.00000000000E+00 -0.99517132316E+02  0.99517132316E+02  0.00000000000E+00 0. -1.
          6    1    1    2  501    0  0.17152106222E+02 -0.15694821784E+03  0.10700042954E+03  0.25749763058E+03  0.17300000000E+03 0. -1.
         -6    1    1    2    0  502 -0.17152106222E+02  0.15694821784E+03  0.54082475739E+03  0.58936182099E+03  0.17300000000E+03 0. -1.
<mgrwt>
<rscale>  2 0.23421345E+03</rscale>
<asrwt>0</asrwt>
<pdfrwt beam="1">  1       21 0.11497574E+00 0.23421345E+03</pdfrwt>
<pdfrwt beam="2">  1       21 0.15310329E-01 0.23421345E+03</pdfrwt>
<totfact> 0.21632005E+04</totfact>
</mgrwt>
</event>
<event>
 4    1  0.4332500E+000  0.2095110E+03  0.7546771E-02  0.1141954E+00
         21   -1    0    0  503  502  0.00000000000E+00  0.00000000000E+00  0.34562134455E+03  0.34562134455E+03  0.00000000000E+00 0.  1.
         21   -1    0    0  501  503 -0.00000000000E+00 -0.00000000000E+00 -0.13332238318E+03  0.13332238318E+03  0.00000000000E+00 0.  1.
          6    1    1    2  501    0 -0.58496807449E+02  0.10268395180E+03  0.54012247685E+02  0.21636125656E+03  0.17300000000E+03 0.  1.
         -6    1    1    2    0  502  0.58496807449E+02 -0.10268395180E+03  0.15828671369E+03  0.26258247117E+03  0.17300000000E+03 0.  1.
<mgrwt>
<rscale>  2 0.20951103E+03</rscale>
<asrwt>0</asrwt>
<pdfrwt beam="1">  1       21 0.53172514E-01 0.20951103E+03</pdfrwt>
<pdfrwt beam="2">  1       21 0.20511136E-01 0.20951103E+03</pdfrwt>
<totfact> 0.73212232E+04</totfact>
</mgrwt>
</event>
<event>
 4    1  0.4332500E+000  0.3412503E+03  0.7546771E-02  0.1066265E+00
         21   -1    0    0  501  502  0.00000000000E+00  0.00000000000E+00  0.32122956228E+03  0.32122956228E+03  0.00000000000E+00 0. -1.
         21   -1    0    0  502  503 -0.00000000000E+00 -0.00000000000E+00 -0.85141121992E+03  0.85141121992E+03  0.00000000000E+00 0.  1.
          6    1    1    2  501    0  0.65492005065E+02  0.28676390303E+03  0.17920474708E+03  0.38544270675E+03  0.17300000000E+03 0. -1.
         -6    1    1    2    0  503 -0.65492005065E+02 -0.28676390303E+03 -0.70938640471E+03  0.78719807545E+03  0.17300000000E+03 0.  1.
<mgrwt>
<rscale>  2 0.34125026E+03</rscale>
<asrwt>0</asrwt>
<pdfrwt beam="1">  1       21 0.49419933E-01 0.34125026E+03</pdfrwt>
<pdfrwt beam="2">  1       21 0.13098634E+00 0.34125026E+03</pdfrwt>
<totfact> 0.14863069E+03</totfact>
</mgrwt>
</event>
<event>
 4    1  0.4332500E+000  0.1746431E+03  0.7546771E-02  0.1173091E+00
         21   -1    0    0  501  502  0.00000000000E+00  0.00000000000E+00  0.28514728386E+04  0.28514728386E+04  0.00000000000E+00 0.  1.
         21   -1    0    0  502  503 -0.00000000000E+00 -0.00000000000E+00 -0.11258606318E+02  0.11258606318E+02  0.00000000000E+00 0.  1.
          6    1    1    2  501    0  0.75738316543E+01 -0.22668315020E+02  0.17399921311E+04  0.17487346373E+04  0.17300000000E+03 0.  1.
         -6    1    1    2    0  503 -0.75738316543E+01  0.22668315020E+02  0.11002221011E+04  0.11139968075E+04  0.17300000000E+03 0.  1.
<mgrwt>
<rscale>  2 0.17464311E+03</rscale>
<asrwt>0</asrwt>
<pdfrwt beam="1">  1       21 0.43868755E+00 0.17464311E+03</pdfrwt>
<pdfrwt beam="2">  1       21 0.17320956E-02 0.17464311E+03</pdfrwt>
<totfact> 0.78787263E+03</totfact>
</mgrwt>
</event>
<event>
 4    1  0.4332500E+000  0.1808174E+03  0.7546771E-02  0.1167014E+00
         21   -1    0    0  503  502  0.00000000000E+00  0.00000000000E+00  0.13988319513E+03  0.13988319513E+03  0.00000000000E+00 0. -1.
         21   -1    0    0  501  503 -0.00000000000E+00 -0.00000000000E+00 -0.25575625312E+03  0.25575625312E+03  0.00000000000E+00 0. -1.
          6    1    1    2  501    0 -0.27711369687E+02  0.44699019503E+02  0.11653444530E+00  0.18081741049E+03  0.17300000000E+03 0.  1.
         -6    1    1    2    0  502  0.27711369687E+02 -0.44699019503E+02 -0.11598959244E+03  0.21482203776E+03  0.17300000000E+03 0.  1.
<mgrwt>
<rscale>  2 0.18081737E+03</rscale>
<asrwt>0</asrwt>
<pdfrwt beam="1">  1       21 0.21520492E-01 0.18081737E+03</pdfrwt>
<pdfrwt beam="2">  1       21 0.39347115E-01 0.18081737E+03</pdfrwt>
<totfact> 0.12580435E+05</totfact>
</mgrwt>
</event>
<event>
 4    1  0.4332500E+000  0.2046980E+03  0.7546771E-02  0.1145835E+00
         21   -1    0    0  503  502  0.00000000000E+00  0.00000000000E+00  0.61524779234E+03  0.61524779234E+03  0.00000000000E+00 0.  1.
         21   -1    0    0  501  503 -0.00000000000E+00 -0.00000000000E+00 -0.71533447693E+02  0.71533447693E+02  0.00000000000E+00 0.  1.
          6    1    1    2  501    0 -0.31812647663E+02  0.10469114777E+03  0.19667755591E+03  0.28387205211E+03  0.17300000000E+03 0.  1.
         -6    1    1    2    0  502  0.31812647663E+02 -0.10469114777E+03  0.34703678874E+03  0.40290918792E+03  0.17300000000E+03 0.  1.
<mgrwt>
<rscale>  2 0.20469802E+03</rscale>
<asrwt>0</asrwt>
<pdfrwt beam="1">  1       21 0.94653503E-01 0.20469802E+03</pdfrwt>
<pdfrwt beam="2">  1       21 0.11005146E-01 0.20469802E+03</pdfrwt>
<totfact> 0.63608427E+04</totfact>
</mgrwt>
</event>
