<event>
 4    1  0.4439578E+000  0.2009060E+03  0.7546771E-02  0.1148977E+00
         21   -1    0    0  503  502  0.00000000000E+00  0.00000000000E+00  0.40607325636E+03  0.40607325636E+03  0.00000000000E+00 0. -1.
         21   -1    0    0  501  503 -0.00000000000E+00 -0.00000000000E+00 -0.13840743249E+03  0.13840743249E+03  0.00000000000E+00 0. -1.
          6    1    1    2  501    0  0.21239476055E+02 -0.99915519961E+02 -0.10695324194E+02  0.20119049787E+03  0.17300000000E+03 0.  1.
         -6    1    1    2    0  502 -0.21239476055E+02  0.99915519961E+02  0.27836114806E+03  0.34329019098E+03  0.17300000000E+03 0.  1.
<mgrwt>
<rscale>  2 0.20090601E+03</rscale>
<asrwt>0</asrwt>
<pdfrwt beam="1">  1       21 0.62472808E-01 0.20090601E+03</pdfrwt>
<pdfrwt beam="2">  1       21 0.21293451E-01 0.20090601E+03</pdfrwt>
<totfact> 0.48555722E+04</totfact>
</mgrwt>
</event>
<event>
 4    1  0.4439578E+000  0.1765711E+03  0.7546771E-02  0.1171163E+00
         21   -1    0    0  501  502  0.00000000000E+00  0.00000000000E+00  0.20162674333E+03  0.20162674333E+03  0.00000000000E+00 0. -1.
         21   -1    0    0  502  503 -0.00000000000E+00 -0.00000000000E+00 -0.41554204780E+03  0.41554204780E+03  0.00000000000E+00 0. -1.
          6    1    1    2  501    0 -0.31372040834E+02 -0.16252467856E+02  0.13756232545E+03  0.22383194821E+03  0.17300000000E+03 0. -1.
         -6    1    1    2    0  503  0.31372040834E+02  0.16252467856E+02 -0.35147762992E+03  0.39333684291E+03  0.17300000000E+03 0. -1.
<mgrwt>
<rscale>  2 0.17657108E+03</rscale>
<asrwt>0</asrwt>
<pdfrwt beam="1">  1       21 0.31019499E-01 0.17657108E+03</pdfrwt>
<pdfrwt beam="2">  1       21 0.63929546E-01 0.17657108E+03</pdfrwt>
<totfact> 0.22770938E+04</totfact>
</mgrwt>
</event>
<event>
 4    1  0.4439578E+000  0.2134767E+03  0.7546771E-02  0.1138842E+00
         21   -1    0    0  501  502  0.00000000000E+00  0.00000000000E+00  0.12213513808E+04  0.12213513808E+04  0.00000000000E+00 0.  1.
         21   -1    0    0  502  503 -0.00000000000E+00 -0.00000000000E+00 -0.40471282338E+02  0.40471282338E+02  0.00000000000E+00 0.  1.
          6    1    1    2  501    0 -0.12199861076E+03 -0.27561912066E+02  0.76668565471E+03  0.79585125065E+03  0.17300000000E+03 0.  1.
         -6    1    1    2    0  503  0.12199861076E+03  0.27561912066E+02  0.41419444378E+03  0.46597141251E+03  0.17300000000E+03 0.  1.
<mgrwt>
<rscale>  2 0.21347674E+03</rscale>
<asrwt>0</asrwt>
<pdfrwt beam="1">  1       21 0.18790018E+00 0.21347674E+03</pdfrwt>
<pdfrwt beam="2">  1       21 0.62263521E-02 0.21347674E+03</pdfrwt>
<totfact> 0.29382517E+04</totfact>
</mgrwt>
</event>
<event>
 4    1  0.4439578E+000  0.1736215E+03  0.7546771E-02  0.1174123E+00
         21   -1    0    0  501  502  0.00000000000E+00  0.00000000000E+00  0.87022403609E+03  0.87022403609E+03  0.00000000000E+00 0. -1.
         21   -1    0    0  502  503 -0.00000000000E+00 -0.00000000000E+00 -0.35180024112E+02  0.35180024112E+02  0.00000000000E+00 0. -1.
          6    1    1    2  501    0 -0.22155289672E+01  0.14509766899E+02  0.36142679376E+03  0.40096604488E+03  0.17300000000E+03 0. -1.
         -6    1    1    2    0  503  0.22155289672E+01 -0.14509766899E+02  0.47361721822E+03  0.50443801532E+03  0.17300000000E+03 0. -1.
<mgrwt>
<rscale>  2 0.17362155E+03</rscale>
<asrwt>0</asrwt>
<pdfrwt beam="1">  1       21 0.13388060E+00 0.17362155E+03</pdfrwt>
<pdfrwt beam="2">  1       21 0.54123121E-02 0.17362155E+03</pdfrwt>
<totfact> 0.95171632E+04</totfact>
</mgrwt>
</event>
<event>
 4    1  0.4439578E+000  0.1814689E+03  0.7546771E-02  0.1166389E+00
         21   -1    0    0  501  502  0.00000000000E+00  0.00000000000E+00  0.69512402818E+02  0.69512402818E+02  0.00000000000E+00 0. -1.
         21   -1    0    0  502  503 -0.00000000000E+00 -0.00000000000E+00 -0.48438756599E+03  0.48438756599E+03  0.00000000000E+00 0. -1.
          6    1    1    2  501    0  0.28698929433E+02 -0.46672597247E+02 -0.16638081111E+03  0.24619816041E+03  0.17300000000E+03 0. -1.
         -6    1    1    2    0  503 -0.28698929433E+02  0.46672597247E+02 -0.24849435207E+03  0.30770180840E+03  0.17300000000E+03 0. -1.
<mgrwt>
<rscale>  2 0.18146890E+03</rscale>
<asrwt>0</asrwt>
<pdfrwt beam="1">  1       21 0.10694216E-01 0.18146890E+03</pdfrwt>
<pdfrwt beam="2">  1       21 0.74521160E-01 0.18146890E+03</pdfrwt>
<totfact> 0.11668931E+05</totfact>
</mgrwt>
</event>
<event>
 4    1  0.4439578E+000  0.1972587E+03  0.7546771E-02  0.1152073E+00
         21   -1    0    0  503  502  0.00000000000E+00  0.00000000000E+00  0.17924203810E+03  0.17924203810E+03  0.00000000000E+00 0.  1.
         21   -1    0    0  501  503 -0.00000000000E+00 -0.00000000000E+00 -0.23705410912E+03  0.23705410912E+03  0.00000000000E+00 0. -1.
          6    1    1    2  501    0 -0.77262760079E+02 -0.54886017461E+02 -0.89316581228E+02  0.21653743485E+03  0.17300000000E+03 0. -1.
         -6    1    1    2    0  502  0.77262760079E+02  0.54886017461E+02  0.31504510212E+02  0.19975871238E+03  0.17300000000E+03 0.  1.
<mgrwt>
<rscale>  2 0.19725874E+03</rscale>
<asrwt>0</asrwt>
<pdfrwt beam="1">  1       21 0.27575698E-01 0.19725874E+03</pdfrwt>
<pdfrwt beam="2">  1       21 0.36469863E-01 0.19725874E+03</pdfrwt>
<totfact> 0.90814653E+04</totfact>
</mgrwt>
</event>
<event>
 4    1  0.4439578E+000  0.1774892E+03  0.7546771E-02  0.1170255E+00
         21   -1    0    0  503  502  0.00000000000E+00  0.00000000000E+00  0.58672221755E+03  0.58672221755E+03  0.00000000000E+00 0. -1.
         21   -1    0    0  501  503 -0.00000000000E+00 -0.00000000000E+00 -0.53977001906E+02  0.53977001906E+02  0.00000000000E+00 0. -1.
          6    1    1    2  501    0 -0.49468810244E+01 -0.39356536935E+02  0.24310302005E+03  0.30100080895E+03  0.17300000000E+03 0. -1.
         -6    1    1    2    0  502  0.49468810244E+01  0.39356536935E+02  0.28964219559E+03  0.33969841050E+03  0.17300000000E+03 0. -1.
<mgrwt>
<rscale>  2 0.17748918E+03</rscale>
<asrwt>0</asrwt>
<pdfrwt beam="1">  1       21 0.90264952E-01 0.17748918E+03</pdfrwt>
<pdfrwt beam="2">  1       21 0.83041546E-02 0.17748918E+03</pdfrwt>
<totfact> 0.11801701E+05</totfact>
</mgrwt>
</event>
<event>
 4    1  0.4439578E+000  0.2228658E+03  0.7546771E-02  0.1131764E+00
         21   -1    0    0  501  502  0.00000000000E+00  0.00000000000E+00  0.54086358831E+03  0.54086358831E+03  0.00000000000E+00 0. -1.
         21   -1    0    0  502  503 -0.00000000000E+00 -0.00000000000E+00 -0.91853374610E+02  0.91853374610E+02  0.00000000000E+00 0. -1.
          6    1    1    2  501    0  0.88372959695E+02  0.10922636908E+03  0.21980493441E+03  0.31302298462E+03  0.17300000000E+03 0. -1.
         -6    1    1    2    0  503 -0.88372959695E+02 -0.10922636908E+03  0.22920527929E+03  0.31969397830E+03  0.17300000000E+03 0. -1.
<mgrwt>
<rscale>  2 0.22286583E+03</rscale>
<asrwt>0</asrwt>
<pdfrwt beam="1">  1       21 0.83209781E-01 0.22286583E+03</pdfrwt>
<pdfrwt beam="2">  1       21 0.14131289E-01 0.22286583E+03</pdfrwt>
<totfact> 0.54210589E+04</totfact>
</mgrwt>
</event>
<event>
 4    1  0.4439578E+000  0.2051205E+03  0.7546771E-02  0.1145489E+00
         21   -1    0    0  503  502  0.00000000000E+00  0.00000000000E+00  0.44446991142E+03  0.44446991142E+03  0.00000000000E+00 0. -1.
         21   -1    0    0  501  503 -0.00000000000E+00 -0.00000000000E+00 -0.12662245732E+03  0.12662245732E+03  0.00000000000E+00 0. -1.
          6    1    1    2  501    0 -0.14548587269E+02  0.10924166623E+03  0.15464791828E+02  0.20570260771E+03  0.17300000000E+03 0. -1.
         -6    1    1    2    0  502  0.14548587269E+02 -0.10924166623E+03  0.30238266227E+03  0.36538976104E+03  0.17300000000E+03 0. -1.
<mgrwt>
<rscale>  2 0.20512046E+03</rscale>
<asrwt>0</asrwt>
<pdfrwt beam="1">  1       21 0.68379986E-01 0.20512046E+03</pdfrwt>
<pdfrwt beam="2">  1       21 0.19480378E-01 0.20512046E+03</pdfrwt>
<totfact> 0.47004669E+04</totfact>
</mgrwt>
</event>
<event>
 4    1  0.4439578E+000  0.1773197E+03  0.7546771E-02  0.1170423E+00
         21   -1    0    0  503  502  0.00000000000E+00  0.00000000000E+00  0.26680312972E+03  0.26680312972E+03  0.00000000000E+00 0. -1.
         21   -1    0    0  501  503 -0.00000000000E+00 -0.00000000000E+00 -0.12013793509E+03  0.12013793509E+03  0.00000000000E+00 0. -1.
          6    1    1    2  501    0 -0.20514343298E+02 -0.33052160332E+02  0.46623326208E+02  0.18334671562E+03  0.17300000000E+03 0.  1.
         -6    1    1    2    0  502  0.20514343298E+02  0.33052160332E+02  0.10004186842E+03  0.20359434919E+03  0.17300000000E+03 0.  1.
<mgrwt>
<rscale>  2 0.17731972E+03</rscale>
<asrwt>0</asrwt>
<pdfrwt beam="1">  1       21 0.41046635E-01 0.17731972E+03</pdfrwt>
<pdfrwt beam="2">  1       21 0.18482759E-01 0.17731972E+03</pdfrwt>
<totfact> 0.15357995E+05</totfact>
</mgrwt>
</event>
<event>
 4    1  0.4439578E+000  0.1912394E+03  0.7546771E-02  0.1157348E+00
         21   -1    0    0  501  502  0.00000000000E+00  0.00000000000E+00  0.32996517515E+03  0.32996517515E+03  0.00000000000E+00 0.  1.
         21   -1    0    0  502  503 -0.00000000000E+00 -0.00000000000E+00 -0.12157666984E+03  0.12157666984E+03  0.00000000000E+00 0.  1.
          6    1    1    2  501    0  0.81469284685E+02  0.25001449141E+01  0.17129532621E+03  0.25673835680E+03  0.17300000000E+03 0.  1.
         -6    1    1    2    0  503 -0.81469284685E+02 -0.25001449141E+01  0.37093179104E+02  0.19480348818E+03  0.17300000000E+03 0.  1.
<mgrwt>
<rscale>  2 0.19123937E+03</rscale>
<asrwt>0</asrwt>
<pdfrwt beam="1">  1       21 0.50763873E-01 0.19123937E+03</pdfrwt>
<pdfrwt beam="2">  1       21 0.18704103E-01 0.19123937E+03</pdfrwt>
<totfact> 0.96593630E+04</totfact>
</mgrwt>
</event>
<event>
 4    1  0.4439578E+000  0.1870920E+03  0.7546771E-02  0.1161111E+00
         21   -1    0    0  501  502  0.00000000000E+00  0.00000000000E+00  0.66587001416E+03  0.66587001416E+03  0.00000000000E+00 0. -1.
         21   -1    0    0  502  503 -0.00000000000E+00 -0.00000000000E+00 -0.81139145627E+02  0.81139145627E+02  0.00000000000E+00 0. -1.
          6    1    1    2  501    0  0.67226623799E+02  0.23558273820E+02  0.51400385265E+03  0.54699485533E+03  0.17300000000E+03 0. -1.
         -6    1    1    2    0  503 -0.67226623799E+02 -0.23558273820E+02  0.70727015879E+02  0.20001430446E+03  0.17300000000E+03 0. -1.
<mgrwt>
<rscale>  2 0.18709199E+03</rscale>
<asrwt>0</asrwt>
<pdfrwt beam="1">  1       21 0.10244154E+00 0.18709199E+03</pdfrwt>
<pdfrwt beam="2">  1       21 0.12482946E-01 0.18709199E+03</pdfrwt>
<totfact> 0.42501997E+04</totfact>
</mgrwt>
</event>
<event>
 4    1  0.4439578E+000  0.3292340E+03  0.7546771E-02  0.1071476E+00
         21   -1    0    0  503  502  0.00000000000E+00  0.00000000000E+00  0.33888701928E+03  0.33888701928E+03  0.00000000000E+00 0. -1.
         21   -1    0    0  501  503 -0.00000000000E+00 -0.00000000000E+00 -0.55750341364E+03  0.55750341364E+03  0.00000000000E+00 0.  1.
          6    1    1    2  501    0  0.20577790268E+03 -0.19005660393E+03 -0.40193221342E+03  0.51956189440E+03  0.17300000000E+03 0.  1.
         -6    1    1    2    0  502 -0.20577790268E+03  0.19005660393E+03  0.18331581906E+03  0.37682853852E+03  0.17300000000E+03 0. -1.
<mgrwt>
<rscale>  2 0.32923405E+03</rscale>
<asrwt>0</asrwt>
<pdfrwt beam="1">  1       21 0.52136465E-01 0.32923405E+03</pdfrwt>
<pdfrwt beam="2">  1       21 0.85769754E-01 0.32923405E+03</pdfrwt>
<totfact> 0.37597665E+03</totfact>
</mgrwt>
</event>
<event>
 4    1  0.4439578E+000  0.4547262E+03  0.7546771E-02  0.1026322E+00
         21   -1    0    0  503  502  0.00000000000E+00  0.00000000000E+00  0.11953709574E+04  0.11953709574E+04  0.00000000000E+00 0.  1.
         21   -1    0    0  501  503 -0.00000000000E+00 -0.00000000000E+00 -0.28864832579E+03  0.28864832579E+03  0.00000000000E+00 0. -1.
          6    1    1    2  501    0 -0.41811307271E+03  0.45037695749E+02 -0.16350195552E+02  0.45502007044E+03  0.17300000000E+03 0. -1.
         -6    1    1    2    0  502  0.41811307271E+03 -0.45037695749E+02  0.92307282718E+03  0.10289992128E+04  0.17300000000E+03 0.  1.
<mgrwt>
<rscale>  2 0.45472622E+03</rscale>
<asrwt>0</asrwt>
<pdfrwt beam="1">  1       21 0.18390322E+00 0.45472622E+03</pdfrwt>
<pdfrwt beam="2">  1       21 0.44407435E-01 0.45472622E+03</pdfrwt>
<totfact> 0.69236821E+02</totfact>
</mgrwt>
</event>
<event>
 4    1  0.4439578E+000  0.1804099E+03  0.7546771E-02  0.1167407E+00
         21   -1    0    0  501  502  0.00000000000E+00  0.00000000000E+00  0.85905579118E+02  0.85905579118E+02  0.00000000000E+00 0.  1.
         21   -1    0    0  502  503 -0.00000000000E+00 -0.00000000000E+00 -0.40432949395E+03  0.40432949395E+03  0.00000000000E+00 0.  1.
          6    1    1    2  501    0  0.11197945100E+02 -0.49933396995E+02 -0.97713686653E+02  0.20517237307E+03  0.17300000000E+03 0.  1.
         -6    1    1    2    0  503 -0.11197945100E+02  0.49933396995E+02 -0.22071022818E+03  0.28506270000E+03  0.17300000000E+03 0.  1.
<mgrwt>
<rscale>  2 0.18040992E+03</rscale>
<asrwt>0</asrwt>
<pdfrwt beam="1">  1       21 0.13216243E-01 0.18040992E+03</pdfrwt>
<pdfrwt beam="2">  1       21 0.62204537E-01 0.18040992E+03</pdfrwt>
<totfact> 0.11882017E+05</totfact>
</mgrwt>
</event>
<event>
 4    1  0.4439578E+000  0.1756241E+03  0.7546771E-02  0.1172107E+00
         21   -1    0    0  501  502  0.00000000000E+00  0.00000000000E+00  0.89402710702E+02  0.89402710702E+02  0.00000000000E+00 0.  1.
         21   -1    0    0  502  503 -0.00000000000E+00 -0.00000000000E+00 -0.34518427019E+03  0.34518427019E+03  0.00000000000E+00 0.  1.
          6    1    1    2  501    0 -0.52950612976E+01 -0.29778898584E+02 -0.12285280932E+03  0.21432833045E+03  0.17300000000E+03 0.  1.
         -6    1    1    2    0  503  0.52950612976E+01  0.29778898584E+02 -0.13292875017E+03  0.22025865044E+03  0.17300000000E+03 0.  1.
<mgrwt>
<rscale>  2 0.17562409E+03</rscale>
<asrwt>0</asrwt>
<pdfrwt beam="1">  1       21 0.13754263E-01 0.17562409E+03</pdfrwt>
<pdfrwt beam="2">  1       21 0.53105273E-01 0.17562409E+03</pdfrwt>
<totfact> 0.15505842E+05</totfact>
</mgrwt>
</event>
<event>
 4    1  0.4439578E+000  0.2027615E+03  0.7546771E-02  0.1147430E+00
         21   -1    0    0  503  502  0.00000000000E+00  0.00000000000E+00  0.30583872882E+02  0.30583872882E+02  0.00000000000E+00 0.  1.
         21   -1    0    0  501  503 -0.00000000000E+00 -0.00000000000E+00 -0.17181281484E+04  0.17181281484E+04  0.00000000000E+00 0.  1.
          6    1    1    2  501    0  0.97351343628E+02 -0.41302954517E+02 -0.12516484367E+04  0.12679653099E+04  0.17300000000E+03 0.  1.
         -6    1    1    2    0  502 -0.97351343628E+02  0.41302954517E+02 -0.43589583890E+03  0.48074671141E+03  0.17300000000E+03 0.  1.
<mgrwt>
<rscale>  2 0.20276148E+03</rscale>
<asrwt>0</asrwt>
<pdfrwt beam="1">  1       21 0.47052108E-02 0.20276148E+03</pdfrwt>
<pdfrwt beam="2">  1       21 0.26432743E+00 0.20276148E+03</pdfrwt>
<totfact> 0.16197255E+04</totfact>
</mgrwt>
</event>
<event>
 4    1  0.4439578E+000  0.1763838E+03  0.7546771E-02  0.1171349E+00
         21   -1    0    0  503  502  0.00000000000E+00  0.00000000000E+00  0.14574653609E+04  0.14574653609E+04  0.00000000000E+00 0. -1.
         21   -1    0    0  501  503 -0.00000000000E+00 -0.00000000000E+00 -0.48676468633E+02  0.48676468633E+02  0.00000000000E+00 0. -1.
          6    1    1    2  501    0  0.33572267491E+02 -0.74250152619E+01  0.14010887926E+03  0.22525924186E+03  0.17300000000E+03 0. -1.
         -6    1    1    2    0  502 -0.33572267491E+02  0.74250152619E+01  0.12686800130E+04  0.12808825877E+04  0.17300000000E+03 0. -1.
<mgrwt>
<rscale>  2 0.17638375E+03</rscale>
<asrwt>0</asrwt>
<pdfrwt beam="1">  1       21 0.22422541E+00 0.17638375E+03</pdfrwt>
<pdfrwt beam="2">  1       21 0.74886886E-02 0.17638375E+03</pdfrwt>
<totfact> 0.12944195E+04</totfact>
</mgrwt>
</event>
<event>
 4    1  0.4439578E+000  0.1820481E+03  0.7546771E-02  0.1165836E+00
         21   -1    0    0  503  502  0.00000000000E+00  0.00000000000E+00  0.21304481221E+03  0.21304481221E+03  0.00000000000E+00 0.  1.
         21   -1    0    0  501  503 -0.00000000000E+00 -0.00000000000E+00 -0.15679061261E+03  0.15679061261E+03  0.00000000000E+00 0.  1.
          6    1    1    2  501    0 -0.33055195455E+01 -0.56582398699E+02  0.44501957899E+02  0.18740842713E+03  0.17300000000E+03 0.  1.
         -6    1    1    2    0  502  0.33055195455E+01  0.56582398699E+02  0.11752241704E+02  0.18242699769E+03  0.17300000000E+03 0.  1.
<mgrwt>
<rscale>  2 0.18204805E+03</rscale>
<asrwt>0</asrwt>
<pdfrwt beam="1">  1       21 0.32776125E-01 0.18204805E+03</pdfrwt>
<pdfrwt beam="2">  1       21 0.24121633E-01 0.18204805E+03</pdfrwt>
<totfact> 0.14578641E+05</totfact>
</mgrwt>
</event>
<event>
 4    1  0.4439578E+000  0.1931299E+03  0.7546771E-02  0.1155668E+00
         21   -1    0    0  501  502  0.00000000000E+00  0.00000000000E+00  0.23817192023E+03  0.23817192023E+03  0.00000000000E+00 0. -1.
         21   -1    0    0  502  503 -0.00000000000E+00 -0.00000000000E+00 -0.30336566032E+03  0.30336566032E+03  0.00000000000E+00 0. -1.
          6    1    1    2  501    0 -0.56092431509E+01 -0.85666238918E+02  0.15573275532E+03  0.24809647152E+03  0.17300000000E+03 0. -1.
         -6    1    1    2    0  503  0.56092431509E+01  0.85666238918E+02 -0.22092649541E+03  0.29344110904E+03  0.17300000000E+03 0. -1.
<mgrwt>
<rscale>  2 0.19312993E+03</rscale>
<asrwt>0</asrwt>
<pdfrwt beam="1">  1       21 0.36641834E-01 0.19312993E+03</pdfrwt>
<pdfrwt beam="2">  1       21 0.46671640E-01 0.19312993E+03</pdfrwt>
<totfact> 0.31569871E+04</totfact>
</mgrwt>
</event>
<event>
 4    1  0.4439578E+000  0.2194104E+03  0.7546771E-02  0.1134323E+00
         21   -1    0    0  501  502  0.00000000000E+00  0.00000000000E+00  0.17761008511E+03  0.17761008511E+03  0.00000000000E+00 0. -1.
         21   -1    0    0  502  503 -0.00000000000E+00 -0.00000000000E+00 -0.34828487185E+03  0.34828487185E+03  0.00000000000E+00 0. -1.
          6    1    1    2  501    0 -0.12419332236E+03 -0.52800984905E+02  0.38488931408E+02  0.22276068586E+03  0.17300000000E+03 0.  1.
         -6    1    1    2    0  503  0.12419332236E+03  0.52800984905E+02 -0.20916371815E+03  0.30313427110E+03  0.17300000000E+03 0.  1.
<mgrwt>
<rscale>  2 0.21941040E+03</rscale>
<asrwt>0</asrwt>
<pdfrwt beam="1">  1       21 0.27324628E-01 0.21941040E+03</pdfrwt>
<pdfrwt beam="2">  1       21 0.53582288E-01 0.21941040E+03</pdfrwt>
<totfact> 0.41539187E+04</totfact>
</mgrwt>
</event>
<event>
 4    1  0.4439578E+000  0.2091614E+03  0.7546771E-02  0.1142232E+00
         21   -1    0    0  501  502  0.00000000000E+00  0.00000000000E+00  0.48024164746E+02  0.48024164746E+02  0.00000000000E+00 0. -1.
         21   -1    0    0  502  503 -0.00000000000E+00 -0.00000000000E+00 -0.91882425420E+03  0.91882425420E+03  0.00000000000E+00 0.  1.
          6    1    1    2  501    0 -0.99635535396E+02  0.62387949052E+02 -0.39069988047E+03  0.44316463386E+03  0.17300000000E+03 0.  1.
         -6    1    1    2    0  503  0.99635535396E+02 -0.62387949052E+02 -0.48010020898E+03  0.52368378509E+03  0.17300000000E+03 0.  1.
<mgrwt>
<rscale>  2 0.20916141E+03</rscale>
<asrwt>0</asrwt>
<pdfrwt beam="1">  1       21 0.73883336E-02 0.20916141E+03</pdfrwt>
<pdfrwt beam="2">  1       21 0.14135757E+00 0.20916141E+03</pdfrwt>
<totfact> 0.47644951E+04</totfact>
</mgrwt>
</event>
<event>
 4    1  0.4439578E+000  0.1830148E+03  0.7546771E-02  0.1164917E+00
         21   -1    0    0  503  502  0.00000000000E+00  0.00000000000E+00  0.32938475364E+03  0.32938475364E+03  0.00000000000E+00 0. -1.
         21   -1    0    0  501  503 -0.00000000000E+00 -0.00000000000E+00 -0.14889090154E+03  0.14889090154E+03  0.00000000000E+00 0. -1.
          6    1    1    2  501    0  0.36577008750E+02 -0.47196730691E+02 -0.44400946350E+02  0.18832379827E+03  0.17300000000E+03 0. -1.
         -6    1    1    2    0  502 -0.36577008750E+02  0.47196730691E+02  0.22489479845E+03  0.28995185691E+03  0.17300000000E+03 0. -1.
<mgrwt>
<rscale>  2 0.18301478E+03</rscale>
<asrwt>0</asrwt>
<pdfrwt beam="1">  1       21 0.50674577E-01 0.18301478E+03</pdfrwt>
<pdfrwt beam="2">  1       21 0.22906293E-01 0.18301478E+03</pdfrwt>
<totfact> 0.66549870E+04</totfact>
</mgrwt>
</event>
<event>
 4    1  0.4439578E+000  0.2437375E+03  0.7546771E-02  0.1117328E+00
         21   -1    0    0  501  502  0.00000000000E+00  0.00000000000E+00  0.29641412282E+03  0.29641412282E+03  0.00000000000E+00 0. -1.
         21   -1    0    0  502  503 -0.00000000000E+00 -0.00000000000E+00 -0.20157307244E+03  0.20157307244E+03  0.00000000000E+00 0. -1.
          6    1    1    2  501    0 -0.14109514160E+03 -0.97832087769E+02  0.28605943255E+02  0.24541038358E+03  0.17300000000E+03 0. -1.
         -6    1    1    2    0  503  0.14109514160E+03  0.97832087769E+02  0.66235107125E+02  0.25257681168E+03  0.17300000000E+03 0. -1.
<mgrwt>
<rscale>  2 0.24373747E+03</rscale>
<asrwt>0</asrwt>
<pdfrwt beam="1">  1       21 0.45602173E-01 0.24373747E+03</pdfrwt>
<pdfrwt beam="2">  1       21 0.31011242E-01 0.24373747E+03</pdfrwt>
<totfact> 0.44980947E+04</totfact>
</mgrwt>
</event>
<event>
 4    1  0.4439578E+000  0.2330077E+03  0.7546771E-02  0.1124541E+00
         21   -1    0    0  501  502  0.00000000000E+00  0.00000000000E+00  0.14356885878E+03  0.14356885878E+03  0.00000000000E+00 0.  1.
         21   -1    0    0  502  503 -0.00000000000E+00 -0.00000000000E+00 -0.40796512354E+03  0.40796512354E+03  0.00000000000E+00 0. -1.
          6    1    1    2  501    0 -0.92742890256E+02 -0.12554817458E+03 -0.57665514721E+02  0.24003728757E+03  0.17300000000E+03 0. -1.
         -6    1    1    2    0  503  0.92742890256E+02  0.12554817458E+03 -0.20673075003E+03  0.31149669476E+03  0.17300000000E+03 0. -1.
<mgrwt>
<rscale>  2 0.23300770E+03</rscale>
<asrwt>0</asrwt>
<pdfrwt beam="1">  1       21 0.22087517E-01 0.23300770E+03</pdfrwt>
<pdfrwt beam="2">  1       21 0.62763865E-01 0.23300770E+03</pdfrwt>
<totfact> 0.44190457E+04</totfact>
</mgrwt>
</event>
<event>
 4    1  0.4439578E+000  0.1743486E+03  0.7546771E-02  0.1173387E+00
         21   -1    0    0  503  502  0.00000000000E+00  0.00000000000E+00  0.28745846651E+03  0.28745846651E+03  0.00000000000E+00 0.  1.
         21   -1    0    0  501  503 -0.00000000000E+00 -0.00000000000E+00 -0.14630890771E+03  0.14630890771E+03  0.00000000000E+00 0.  1.
          6    1    1    2  501    0 -0.17937714444E+02 -0.12110765942E+02 -0.43623313389E+02  0.17972319194E+03  0.17300000000E+03 0.  1.
         -6    1    1    2    0  502  0.17937714444E+02  0.12110765942E+02  0.18477287219E+03  0.25404418227E+03  0.17300000000E+03 0.  1.
<mgrwt>
<rscale>  2 0.17434859E+03</rscale>
<asrwt>0</asrwt>
<pdfrwt beam="1">  1       21 0.44224379E-01 0.17434859E+03</pdfrwt>
<pdfrwt beam="2">  1       21 0.22509063E-01 0.17434859E+03</pdfrwt>
<totfact> 0.91443431E+04</totfact>
</mgrwt>
</event>
<event>
 4    1  0.4439578E+000  0.2090714E+03  0.7546771E-02  0.1142303E+00
         21   -1    0    0  503  502  0.00000000000E+00  0.00000000000E+00  0.93489501767E+03  0.93489501767E+03  0.00000000000E+00 0.  1.
         21   -1    0    0  501  503 -0.00000000000E+00 -0.00000000000E+00 -0.60650530234E+02  0.60650530234E+02  0.00000000000E+00 0. -1.
          6    1    1    2  501    0 -0.59915605933E+02  0.10095533060E+03  0.19886065154E+03  0.28854188143E+03  0.17300000000E+03 0. -1.
         -6    1    1    2    0  502  0.59915605933E+02 -0.10095533060E+03  0.67538383590E+03  0.70700366647E+03  0.17300000000E+03 0.  1.
<mgrwt>
<rscale>  2 0.20907142E+03</rscale>
<asrwt>0</asrwt>
<pdfrwt beam="1">  1       21 0.14382999E+00 0.20907142E+03</pdfrwt>
<pdfrwt beam="2">  1       21 0.93308515E-02 0.20907142E+03</pdfrwt>
<totfact> 0.30282505E+04</totfact>
</mgrwt>
</event>
<event>
 4    1  0.4439578E+000  0.2295211E+03  0.7546771E-02  0.1126977E+00
         21   -1    0    0  503  502  0.00000000000E+00  0.00000000000E+00  0.54574334311E+02  0.54574334311E+02  0.00000000000E+00 0. -1.
         21   -1    0    0  501  503 -0.00000000000E+00 -0.00000000000E+00 -0.10480220088E+04  0.10480220088E+04  0.00000000000E+00 0. -1.
          6    1    1    2  501    0 -0.12818470685E+02 -0.15028850135E+03 -0.65162102678E+03  0.69086171509E+03  0.17300000000E+03 0. -1.
         -6    1    1    2    0  502  0.12818470685E+02  0.15028850135E+03 -0.34182664769E+03  0.41173462801E+03  0.17300000000E+03 0. -1.
<mgrwt>
<rscale>  2 0.22952113E+03</rscale>
<asrwt>0</asrwt>
<pdfrwt beam="1">  1       21 0.83960511E-02 0.22952113E+03</pdfrwt>
<pdfrwt beam="2">  1       21 0.16123416E+00 0.22952113E+03</pdfrwt>
<totfact> 0.26573453E+04</totfact>
</mgrwt>
</event>
<event>
 4    1  0.4439578E+000  0.1762165E+03  0.7546771E-02  0.1171516E+00
         21   -1    0    0  501  502  0.00000000000E+00  0.00000000000E+00  0.24609595381E+03  0.24609595381E+03  0.00000000000E+00 0. -1.
         21   -1    0    0  502  503 -0.00000000000E+00 -0.00000000000E+00 -0.25729760686E+03  0.25729760686E+03  0.00000000000E+00 0. -1.
          6    1    1    2  501    0  0.70907287225E+00 -0.33507267851E+02  0.17407567691E+03  0.24769856898E+03  0.17300000000E+03 0. -1.
         -6    1    1    2    0  503 -0.70907287225E+00  0.33507267851E+02 -0.18527732995E+03  0.25569499169E+03  0.17300000000E+03 0. -1.
<mgrwt>
<rscale>  2 0.17621646E+03</rscale>
<asrwt>0</asrwt>
<pdfrwt beam="1">  1       21 0.37860916E-01 0.17621646E+03</pdfrwt>
<pdfrwt beam="2">  1       21 0.39584247E-01 0.17621646E+03</pdfrwt>
<totfact> 0.41729985E+04</totfact>
</mgrwt>
</event>
<event>
 4    1  0.4439578E+000  0.2111502E+03  0.7546771E-02  0.1140658E+00
         21   -1    0    0  503  502  0.00000000000E+00  0.00000000000E+00  0.95853644627E+03  0.95853644627E+03  0.00000000000E+00 0.  1.
         21   -1    0    0  501  503 -0.00000000000E+00 -0.00000000000E+00 -0.57066118981E+03  0.57066118981E+03  0.00000000000E+00 0.  1.
          6    1    1    2  501    0 -0.72058428018E+02  0.97277811998E+02 -0.53883882527E+03  0.57873281346E+03  0.17300000000E+03 0.  1.
         -6    1    1    2    0  502  0.72058428018E+02 -0.97277811998E+02  0.92671408173E+03  0.95046482262E+03  0.17300000000E+03 0.  1.
<mgrwt>
<rscale>  2 0.21115016E+03</rscale>
<asrwt>0</asrwt>
<pdfrwt beam="1">  1       21 0.14746714E+00 0.21115016E+03</pdfrwt>
<pdfrwt beam="2">  1       21 0.87794030E-01 0.21115016E+03</pdfrwt>
<totfact> 0.34038191E+02</totfact>
</mgrwt>
</event>
<event>
 4    1  0.4439578E+000  0.1952549E+03  0.7546771E-02  0.1153805E+00
         21   -1    0    0  501  502  0.00000000000E+00  0.00000000000E+00  0.52196253582E+03  0.52196253582E+03  0.00000000000E+00 0. -1.
         21   -1    0    0  502  503 -0.00000000000E+00 -0.00000000000E+00 -0.19353159858E+03  0.19353159858E+03  0.00000000000E+00 0. -1.
          6    1    1    2  501    0  0.89387698871E+02  0.14329298006E+02  0.44649366191E+03  0.48732030495E+03  0.17300000000E+03 0. -1.
         -6    1    1    2    0  503 -0.89387698871E+02 -0.14329298006E+02 -0.11806272466E+03  0.22817382945E+03  0.17300000000E+03 0. -1.
<mgrwt>
<rscale>  2 0.19525493E+03</rscale>
<asrwt>0</asrwt>
<pdfrwt beam="1">  1       21 0.80301928E-01 0.19525493E+03</pdfrwt>
<pdfrwt beam="2">  1       21 0.29774092E-01 0.19525493E+03</pdfrwt>
<totfact> 0.14722983E+04</totfact>
</mgrwt>
</event>
<event>
 4    1  0.4439578E+000  0.1903602E+03  0.7546771E-02  0.1158137E+00
         21   -1    0    0  501  502  0.00000000000E+00  0.00000000000E+00  0.19528487771E+03  0.19528487771E+03  0.00000000000E+00 0.  1.
         21   -1    0    0  502  503 -0.00000000000E+00 -0.00000000000E+00 -0.18701503433E+03  0.18701503433E+03  0.00000000000E+00 0. -1.
          6    1    1    2  501    0  0.77578063072E+02  0.17019181017E+02 -0.12727247996E+02  0.19078519658E+03  0.17300000000E+03 0.  1.
         -6    1    1    2    0  503 -0.77578063072E+02 -0.17019181017E+02  0.20997091372E+02  0.19151471546E+03  0.17300000000E+03 0.  1.
<mgrwt>
<rscale>  2 0.19036021E+03</rscale>
<asrwt>0</asrwt>
<pdfrwt beam="1">  1       21 0.30043828E-01 0.19036021E+03</pdfrwt>
<pdfrwt beam="2">  1       21 0.28771543E-01 0.19036021E+03</pdfrwt>
<totfact> 0.12292330E+05</totfact>
</mgrwt>
</event>
<event>
 4    1  0.4439578E+000  0.1746193E+03  0.7546771E-02  0.1173114E+00
         21   -1    0    0  501  502  0.00000000000E+00  0.00000000000E+00  0.35011665078E+03  0.35011665078E+03  0.00000000000E+00 0.  1.
         21   -1    0    0  502  503 -0.00000000000E+00 -0.00000000000E+00 -0.49239415139E+03  0.49239415139E+03  0.00000000000E+00 0.  1.
          6    1    1    2  501    0  0.42146530749E-01 -0.23725793590E+02  0.31105112132E+03  0.35671377200E+03  0.17300000000E+03 0.  1.
         -6    1    1    2    0  503 -0.42146530749E-01  0.23725793590E+02 -0.45332862193E+03  0.48579703017E+03  0.17300000000E+03 0.  1.
<mgrwt>
<rscale>  2 0.17461934E+03</rscale>
<asrwt>0</asrwt>
<pdfrwt beam="1">  1       21 0.53864100E-01 0.17461934E+03</pdfrwt>
<pdfrwt beam="2">  1       21 0.75752947E-01 0.17461934E+03</pdfrwt>
<totfact> 0.51420020E+03</totfact>
</mgrwt>
</event>
<event>
 4    1  0.4439578E+000  0.1890434E+03  0.7546771E-02  0.1159327E+00
         21   -1    0    0  503  502  0.00000000000E+00  0.00000000000E+00  0.73366709831E+03  0.73366709831E+03  0.00000000000E+00 0. -1.
         21   -1    0    0  501  503 -0.00000000000E+00 -0.00000000000E+00 -0.49602540929E+02  0.49602540929E+02  0.00000000000E+00 0. -1.
          6    1    1    2  501    0  0.73993976529E+02  0.18256370310E+02  0.39454740567E+03  0.43749863878E+03  0.17300000000E+03 0. -1.
         -6    1    1    2    0  502 -0.73993976529E+02 -0.18256370310E+02  0.28951715172E+03  0.34577100046E+03  0.17300000000E+03 0. -1.
<mgrwt>
<rscale>  2 0.18904339E+03</rscale>
<asrwt>0</asrwt>
<pdfrwt beam="1">  1       21 0.11287185E+00 0.18904339E+03</pdfrwt>
<pdfrwt beam="2">  1       21 0.76311607E-02 0.18904339E+03</pdfrwt>
<totfact> 0.80051864E+04</totfact>
</mgrwt>
</event>
<event>
 4    1  0.4439578E+000  0.1938617E+03  0.7546771E-02  0.1155024E+00
         21   -1    0    0  501  502  0.00000000000E+00  0.00000000000E+00  0.31550059802E+03  0.31550059802E+03  0.00000000000E+00 0. -1.
         21   -1    0    0  502  503 -0.00000000000E+00 -0.00000000000E+00 -0.21411991430E+03  0.21411991430E+03  0.00000000000E+00 0.  1.
          6    1    1    2  501    0 -0.25813279812E+02  0.83588437163E+02  0.22707810389E+03  0.29857464311E+03  0.17300000000E+03 0. -1.
         -6    1    1    2    0  503  0.25813279812E+02 -0.83588437163E+02 -0.12569742016E+03  0.23104586921E+03  0.17300000000E+03 0.  1.
<mgrwt>
<rscale>  2 0.19386168E+03</rscale>
<asrwt>0</asrwt>
<pdfrwt beam="1">  1       21 0.48538553E-01 0.19386168E+03</pdfrwt>
<pdfrwt beam="2">  1       21 0.32941525E-01 0.19386168E+03</pdfrwt>
<totfact> 0.35935781E+04</totfact>
</mgrwt>
</event>
<event>
 4    1  0.4439578E+000  0.2997618E+03  0.7546771E-02  0.1085360E+00
         21   -1    0    0  501  502  0.00000000000E+00  0.00000000000E+00  0.46709879517E+02  0.46709879517E+02  0.00000000000E+00 0. -1.
         21   -1    0    0  502  503 -0.00000000000E+00 -0.00000000000E+00 -0.19302617719E+04  0.19302617719E+04  0.00000000000E+00 0. -1.
          6    1    1    2  501    0  0.78395825655E+02 -0.23191000608E+03 -0.88427084101E+03  0.93369806504E+03  0.17300000000E+03 0. -1.
         -6    1    1    2    0  503 -0.78395825655E+02  0.23191000608E+03 -0.99928105139E+03  0.10432735864E+04  0.17300000000E+03 0. -1.
<mgrwt>
<rscale>  2 0.29976183E+03</rscale>
<asrwt>0</asrwt>
<pdfrwt beam="1">  1       21 0.71861358E-02 0.29976183E+03</pdfrwt>
<pdfrwt beam="2">  1       21 0.29696333E+00 0.29976183E+03</pdfrwt>
<totfact> 0.46544984E+03</totfact>
</mgrwt>
</event>
<event>
 4    1  0.4439578E+000  0.1800576E+03  0.7546771E-02  0.1167747E+00
         21   -1    0    0  501  502  0.00000000000E+00  0.00000000000E+00  0.37933030734E+03  0.37933030734E+03  0.00000000000E+00 0.  1.
         21   -1    0    0  502  503 -0.00000000000E+00 -0.00000000000E+00 -0.21178495205E+03  0.21178495205E+03  0.00000000000E+00 0.  1.
          6    1    1    2  501    0 -0.31032458596E+02 -0.39099006276E+02  0.31203004084E+03  0.36025476009E+03  0.17300000000E+03 0.  1.
         -6    1    1    2    0  503  0.31032458596E+02  0.39099006276E+02 -0.14448468556E+03  0.23086049930E+03  0.17300000000E+03 0.  1.
<mgrwt>
<rscale>  2 0.18005762E+03</rscale>
<asrwt>0</asrwt>
<pdfrwt beam="1">  1       21 0.58358509E-01 0.18005762E+03</pdfrwt>
<pdfrwt beam="2">  1       21 0.32582300E-01 0.18005762E+03</pdfrwt>
<totfact> 0.25106387E+04</totfact>
</mgrwt>
</event>
<event>
 4    1  0.4439578E+000  0.2226132E+03  0.7546771E-02  0.1131950E+00
         21   -1    0    0  501  502  0.00000000000E+00  0.00000000000E+00  0.13077642266E+03  0.13077642266E+03  0.00000000000E+00 0.  1.
         21   -1    0    0  502  503 -0.00000000000E+00 -0.00000000000E+00 -0.46743052599E+03  0.46743052599E+03  0.00000000000E+00 0. -1.
          6    1    1    2  501    0 -0.13492990922E+03 -0.37703518991E+02 -0.38188125994E+02  0.22586493467E+03  0.17300000000E+03 0.  1.
         -6    1    1    2    0  503  0.13492990922E+03  0.37703518991E+02 -0.29846597733E+03  0.37234201398E+03  0.17300000000E+03 0. -1.
<mgrwt>
<rscale>  2 0.22261320E+03</rscale>
<asrwt>0</asrwt>
<pdfrwt beam="1">  1       21 0.20119450E-01 0.22261320E+03</pdfrwt>
<pdfrwt beam="2">  1       21 0.71912388E-01 0.22261320E+03</pdfrwt>
<totfact> 0.39251398E+04</totfact>
</mgrwt>
</event>
<event>
 4    1  0.4439578E+000  0.1745831E+03  0.7546771E-02  0.1173151E+00
         21   -1    0    0  503  502  0.00000000000E+00  0.00000000000E+00  0.10014369362E+03  0.10014369362E+03  0.00000000000E+00 0. -1.
         21   -1    0    0  501  503 -0.00000000000E+00 -0.00000000000E+00 -0.30435733963E+03  0.30435733963E+03  0.00000000000E+00 0. -1.
          6    1    1    2  501    0  0.73493841513E+01  0.22276214213E+02 -0.10155730690E+03  0.20197309165E+03  0.17300000000E+03 0. -1.
         -6    1    1    2    0  502 -0.73493841513E+01 -0.22276214213E+02 -0.10265633912E+03  0.20252794160E+03  0.17300000000E+03 0. -1.
<mgrwt>
<rscale>  2 0.17458306E+03</rscale>
<asrwt>0</asrwt>
<pdfrwt beam="1">  1       21 0.15406722E-01 0.17458306E+03</pdfrwt>
<pdfrwt beam="2">  1       21 0.46824205E-01 0.17458306E+03</pdfrwt>
<totfact> 0.16406358E+05</totfact>
</mgrwt>
</event>
<event>
 4    1  0.4439578E+000  0.1830155E+03  0.7546771E-02  0.1164916E+00
         21   -1    0    0  501  502  0.00000000000E+00  0.00000000000E+00  0.20689471825E+03  0.20689471825E+03  0.00000000000E+00 0. -1.
         21   -1    0    0  502  503 -0.00000000000E+00 -0.00000000000E+00 -0.19792625877E+03  0.19792625877E+03  0.00000000000E+00 0.  1.
          6    1    1    2  501    0  0.42766266196E+02  0.41674146777E+02  0.90848981604E+02  0.20432382507E+03  0.17300000000E+03 0. -1.
         -6    1    1    2    0  503 -0.42766266196E+02 -0.41674146777E+02 -0.81880522133E+02  0.20049715195E+03  0.17300000000E+03 0.  1.
<mgrwt>
<rscale>  2 0.18301554E+03</rscale>
<asrwt>0</asrwt>
<pdfrwt beam="1">  1       21 0.31829957E-01 0.18301554E+03</pdfrwt>
<pdfrwt beam="2">  1       21 0.30450194E-01 0.18301554E+03</pdfrwt>
<totfact> 0.98598365E+04</totfact>
</mgrwt>
</event>
<event>
 4    1  0.4439578E+000  0.3471859E+03  0.7546771E-02  0.1063776E+00
         21   -1    0    0  503  502  0.00000000000E+00  0.00000000000E+00  0.67894161890E+03  0.67894161890E+03  0.00000000000E+00 0.  1.
         21   -1    0    0  501  503 -0.00000000000E+00 -0.00000000000E+00 -0.23279783395E+03  0.23279783395E+03  0.00000000000E+00 0. -1.
          6    1    1    2  501    0 -0.10905916349E+03  0.28056224151E+03  0.96845041115E+00  0.34718728433E+03  0.17300000000E+03 0. -1.
         -6    1    1    2    0  502  0.10905916349E+03 -0.28056224151E+03  0.44517533454E+03  0.56455216852E+03  0.17300000000E+03 0.  1.
<mgrwt>
<rscale>  2 0.34718593E+03</rscale>
<asrwt>0</asrwt>
<pdfrwt beam="1">  1       21 0.10445256E+00 0.34718593E+03</pdfrwt>
<pdfrwt beam="2">  1       21 0.35815052E-01 0.34718593E+03</pdfrwt>
<totfact> 0.50756266E+03</totfact>
</mgrwt>
</event>
<event>
 4    1  0.4439578E+000  0.2576315E+03  0.7546771E-02  0.1108575E+00
         21   -1    0    0  503  502  0.00000000000E+00  0.00000000000E+00  0.13214482760E+04  0.13214482760E+04  0.00000000000E+00 0.  1.
         21   -1    0    0  501  503 -0.00000000000E+00 -0.00000000000E+00 -0.51781071240E+02  0.51781071240E+02  0.00000000000E+00 0. -1.
          6    1    1    2  501    0 -0.19006180567E+03  0.17930546564E+02  0.51593068299E+03  0.57667882233E+03  0.17300000000E+03 0. -1.
         -6    1    1    2    0  502  0.19006180567E+03 -0.17930546564E+02  0.75373652173E+03  0.79655052487E+03  0.17300000000E+03 0.  1.
<mgrwt>
<rscale>  2 0.25763151E+03</rscale>
<asrwt>0</asrwt>
<pdfrwt beam="1">  1       21 0.20329971E+00 0.25763151E+03</pdfrwt>
<pdfrwt beam="2">  1       21 0.79663196E-02 0.25763151E+03</pdfrwt>
<totfact> 0.14764392E+04</totfact>
</mgrwt>
</event>
<event>
 4    1  0.4439578E+000  0.1907024E+03  0.7546771E-02  0.1157829E+00
         21   -1    0    0  501  502  0.00000000000E+00  0.00000000000E+00  0.14267440223E+03  0.14267440223E+03  0.00000000000E+00 0. -1.
         21   -1    0    0  502  503 -0.00000000000E+00 -0.00000000000E+00 -0.44912926895E+03  0.44912926895E+03  0.00000000000E+00 0.  1.
          6    1    1    2  501    0  0.28198201640E+02 -0.75121596678E+02  0.41363125265E+02  0.19513662136E+03  0.17300000000E+03 0. -1.
         -6    1    1    2    0  503 -0.28198201640E+02  0.75121596678E+02 -0.34781799198E+03  0.39666704982E+03  0.17300000000E+03 0.  1.
<mgrwt>
<rscale>  2 0.19070237E+03</rscale>
<asrwt>0</asrwt>
<pdfrwt beam="1">  1       21 0.21949908E-01 0.19070237E+03</pdfrwt>
<pdfrwt beam="2">  1       21 0.69096811E-01 0.19070237E+03</pdfrwt>
<totfact> 0.37001466E+04</totfact>
</mgrwt>
</event>
<event>
 4    1  0.4439578E+000  0.2212835E+03  0.7546771E-02  0.1132930E+00
         21   -1    0    0  503  502  0.00000000000E+00  0.00000000000E+00  0.11996015626E+04  0.11996015626E+04  0.00000000000E+00 0.  1.
         21   -1    0    0  501  503 -0.00000000000E+00 -0.00000000000E+00 -0.10281075215E+03  0.10281075215E+03  0.00000000000E+00 0. -1.
          6    1    1    2  501    0  0.82775171004E+02  0.11038859153E+03  0.10540648021E+04  0.10770417713E+04  0.17300000000E+03 0.  1.
         -6    1    1    2    0  502 -0.82775171004E+02 -0.11038859153E+03  0.42726008357E+02  0.22537054347E+03  0.17300000000E+03 0. -1.
<mgrwt>
<rscale>  2 0.22128346E+03</rscale>
<asrwt>0</asrwt>
<pdfrwt beam="1">  1       21 0.18455408E+00 0.22128346E+03</pdfrwt>
<pdfrwt beam="2">  1       21 0.15817040E-01 0.22128346E+03</pdfrwt>
<totfact> 0.58931158E+03</totfact>
</mgrwt>
</event>
<event>
 4    1  0.4439578E+000  0.2456753E+03  0.7546771E-02  0.1116069E+00
         21   -1    0    0  503  502  0.00000000000E+00  0.00000000000E+00  0.82081430677E+02  0.82081430677E+02  0.00000000000E+00 0.  1.
         21   -1    0    0  501  503 -0.00000000000E+00 -0.00000000000E+00 -0.10059423940E+04  0.10059423940E+04  0.00000000000E+00 0. -1.
          6    1    1    2  501    0 -0.17433441930E+03  0.59061204288E+01 -0.74409424097E+03  0.78360232992E+03  0.17300000000E+03 0.  1.
         -6    1    1    2    0  502  0.17433441930E+03 -0.59061204288E+01 -0.17976672239E+03  0.30442149479E+03  0.17300000000E+03 0. -1.
<mgrwt>
<rscale>  2 0.24567534E+03</rscale>
<asrwt>0</asrwt>
<pdfrwt beam="1">  1       21 0.12627912E-01 0.24567534E+03</pdfrwt>
<pdfrwt beam="2">  1       21 0.15476037E+00 0.24567534E+03</pdfrwt>
<totfact> 0.14232758E+04</totfact>
</mgrwt>
</event>
<event>
 4    1  0.4439578E+000  0.1944021E+03  0.7546771E-02  0.1154550E+00
         21   -1    0    0  501  502  0.00000000000E+00  0.00000000000E+00  0.54078244505E+03  0.54078244505E+03  0.00000000000E+00 0. -1.
         21   -1    0    0  502  503 -0.00000000000E+00 -0.00000000000E+00 -0.11664442633E+03  0.11664442633E+03  0.00000000000E+00 0. -1.
          6    1    1    2  501    0 -0.66727174766E+02 -0.58400982944E+02  0.42019360183E+03  0.46298472294E+03  0.17300000000E+03 0. -1.
         -6    1    1    2    0  503  0.66727174766E+02  0.58400982944E+02  0.39444168917E+01  0.19444214843E+03  0.17300000000E+03 0. -1.
<mgrwt>
<rscale>  2 0.19440214E+03</rscale>
<asrwt>0</asrwt>
<pdfrwt beam="1">  1       21 0.83197298E-01 0.19440214E+03</pdfrwt>
<pdfrwt beam="2">  1       21 0.17945297E-01 0.19440214E+03</pdfrwt>
<totfact> 0.35496446E+04</totfact>
</mgrwt>
</event>
<event>
 4    1  0.4439578E+000  0.3226420E+03  0.7546771E-02  0.1074440E+00
         21   -1    0    0  501  502  0.00000000000E+00  0.00000000000E+00  0.10192688589E+04  0.10192688589E+04  0.00000000000E+00 0.  1.
         21   -1    0    0  502  503 -0.00000000000E+00 -0.00000000000E+00 -0.10936577019E+03  0.10936577019E+03  0.00000000000E+00 0.  1.
          6    1    1    2  501    0  0.24519040633E+03  0.11853497374E+03  0.60010474507E+03  0.68133954854E+03  0.17300000000E+03 0.  1.
         -6    1    1    2    0  503 -0.24519040633E+03 -0.11853497374E+03  0.30979834360E+03  0.44729508051E+03  0.17300000000E+03 0.  1.
<mgrwt>
<rscale>  2 0.32264202E+03</rscale>
<asrwt>0</asrwt>
<pdfrwt beam="1">  1       21 0.15681059E+00 0.32264202E+03</pdfrwt>
<pdfrwt beam="2">  1       21 0.16825504E-01 0.32264202E+03</pdfrwt>
<totfact> 0.77919383E+03</totfact>
</mgrwt>
</event>
<event>
 4    1  0.4439578E+000  0.1993290E+03  0.7546771E-02  0.1150306E+00
         21   -1    0    0  503  502  0.00000000000E+00  0.00000000000E+00  0.29740586143E+03  0.29740586143E+03  0.00000000000E+00 0. -1.
         21   -1    0    0  501  503 -0.00000000000E+00 -0.00000000000E+00 -0.17283511189E+03  0.17283511189E+03  0.00000000000E+00 0. -1.
          6    1    1    2  501    0 -0.63383489039E+02 -0.76063126192E+02 -0.49745360918E+02  0.20544261189E+03  0.17300000000E+03 0. -1.
         -6    1    1    2    0  502  0.63383489039E+02  0.76063126192E+02  0.17431611045E+03  0.26479836142E+03  0.17300000000E+03 0. -1.
<mgrwt>
<rscale>  2 0.19932904E+03</rscale>
<asrwt>0</asrwt>
<pdfrwt beam="1">  1       21 0.45754748E-01 0.19932904E+03</pdfrwt>
<pdfrwt beam="2">  1       21 0.26590017E-01 0.19932904E+03</pdfrwt>
<totfact> 0.61445801E+04</totfact>
</mgrwt>
</event>
<event>
 4    1  0.4439578E+000  0.2052841E+03  0.7546771E-02  0.1145356E+00
         21   -1    0    0  503  502  0.00000000000E+00  0.00000000000E+00  0.39592162264E+03  0.39592162264E+03  0.00000000000E+00 0.  1.
         21   -1    0    0  501  503 -0.00000000000E+00 -0.00000000000E+00 -0.12023884449E+03  0.12023884449E+03  0.00000000000E+00 0.  1.
          6    1    1    2  501    0 -0.10856026578E+03  0.20669637025E+02  0.22527268470E+03  0.30477753801E+03  0.17300000000E+03 0.  1.
         -6    1    1    2    0  502  0.10856026578E+03 -0.20669637025E+02  0.50410093451E+02  0.21138292912E+03  0.17300000000E+03 0.  1.
<mgrwt>
<rscale>  2 0.20528411E+03</rscale>
<asrwt>0</asrwt>
<pdfrwt beam="1">  1       21 0.60911018E-01 0.20528411E+03</pdfrwt>
<pdfrwt beam="2">  1       21 0.18498284E-01 0.20528411E+03</pdfrwt>
<totfact> 0.66574129E+04</totfact>
</mgrwt>
</event>
<event>
 4    1  0.4439578E+000  0.2046850E+03  0.7546771E-02  0.1145845E+00
         21   -1    0    0  501  502  0.00000000000E+00  0.00000000000E+00  0.69212547142E+03  0.69212547142E+03  0.00000000000E+00 0.  1.
         21   -1    0    0  502  503 -0.00000000000E+00 -0.00000000000E+00 -0.12388019224E+03  0.12388019224E+03  0.00000000000E+00 0. -1.
          6    1    1    2  501    0 -0.36625884739E+02  0.10308003839E+03  0.57588436023E+03  0.61117816232E+03  0.17300000000E+03 0.  1.
         -6    1    1    2    0  503  0.36625884739E+02 -0.10308003839E+03 -0.76390810460E+01  0.20482750134E+03  0.17300000000E+03 0. -1.
<mgrwt>
<rscale>  2 0.20468500E+03</rscale>
<asrwt>0</asrwt>
<pdfrwt beam="1">  1       21 0.10648084E+00 0.20468500E+03</pdfrwt>
<pdfrwt beam="2">  1       21 0.19058491E-01 0.20468500E+03</pdfrwt>
<totfact> 0.17702944E+04</totfact>
</mgrwt>
</event>
<event>
 4    1  0.4439578E+000  0.2228606E+03  0.7546771E-02  0.1131768E+00
         21   -1    0    0  501  502  0.00000000000E+00  0.00000000000E+00  0.13586614730E+03  0.13586614730E+03  0.00000000000E+00 0.  1.
         21   -1    0    0  502  503 -0.00000000000E+00 -0.00000000000E+00 -0.39181133252E+03  0.39181133252E+03  0.00000000000E+00 0. -1.
          6    1    1    2  501    0 -0.55413399421E+01  0.14038207180E+03 -0.59675869124E+02  0.23071203238E+03  0.17300000000E+03 0.  1.
         -6    1    1    2    0  503  0.55413399421E+01 -0.14038207180E+03 -0.19626931609E+03  0.29696544744E+03  0.17300000000E+03 0. -1.
<mgrwt>
<rscale>  2 0.22286057E+03</rscale>
<asrwt>0</asrwt>
<pdfrwt beam="1">  1       21 0.20902484E-01 0.22286057E+03</pdfrwt>
<pdfrwt beam="2">  1       21 0.60278666E-01 0.22286057E+03</pdfrwt>
<totfact> 0.53762733E+04</totfact>
</mgrwt>
</event>
<event>
 4    1  0.4439578E+000  0.1902595E+03  0.7546771E-02  0.1158227E+00
         21   -1    0    0  503  502  0.00000000000E+00  0.00000000000E+00  0.16178584878E+03  0.16178584878E+03  0.00000000000E+00 0.  1.
         21   -1    0    0  501  503 -0.00000000000E+00 -0.00000000000E+00 -0.38426427100E+03  0.38426427100E+03  0.00000000000E+00 0.  1.
          6    1    1    2  501    0 -0.24650826263E+02  0.75246439913E+02 -0.28770145871E+03  0.34492146831E+03  0.17300000000E+03 0. -1.
         -6    1    1    2    0  502  0.24650826263E+02 -0.75246439913E+02  0.65223036491E+02  0.20112865147E+03  0.17300000000E+03 0. -1.
<mgrwt>
<rscale>  2 0.19025953E+03</rscale>
<asrwt>0</asrwt>
<pdfrwt beam="1">  1       21 0.24890131E-01 0.19025953E+03</pdfrwt>
<pdfrwt beam="2">  1       21 0.59117580E-01 0.19025953E+03</pdfrwt>
<totfact> 0.40907299E+04</totfact>
</mgrwt>
</event>
<event>
 4    1  0.4439578E+000  0.1920976E+03  0.7546771E-02  0.1156583E+00
         21   -1    0    0  503  502  0.00000000000E+00  0.00000000000E+00  0.10625543649E+03  0.10625543649E+03  0.00000000000E+00 0.  1.
         21   -1    0    0  501  503 -0.00000000000E+00 -0.00000000000E+00 -0.35806477951E+03  0.35806477951E+03  0.00000000000E+00 0.  1.
          6    1    1    2  501    0  0.80432670460E+02  0.22429061293E+02 -0.85632419017E+02  0.21031972911E+03  0.17300000000E+03 0.  1.
         -6    1    1    2    0  502 -0.80432670460E+02 -0.22429061293E+02 -0.16617692400E+03  0.25400048688E+03  0.17300000000E+03 0.  1.
<mgrwt>
<rscale>  2 0.19209757E+03</rscale>
<asrwt>0</asrwt>
<pdfrwt beam="1">  1       21 0.16346990E-01 0.19209757E+03</pdfrwt>
<pdfrwt beam="2">  1       21 0.55086889E-01 0.19209757E+03</pdfrwt>
<totfact> 0.10424647E+05</totfact>
</mgrwt>
</event>
<event>
 4    1  0.4439578E+000  0.2029818E+03  0.7546771E-02  0.1147247E+00
         21   -1    0    0  503  502  0.00000000000E+00  0.00000000000E+00  0.91939308104E+03  0.91939308104E+03  0.00000000000E+00 0. -1.
         21   -1    0    0  501  503 -0.00000000000E+00 -0.00000000000E+00 -0.12947826131E+03  0.12947826131E+03  0.00000000000E+00 0. -1.
          6    1    1    2  501    0 -0.38604284849E+02  0.98905544537E+02 -0.29118976550E+02  0.20505977749E+03  0.17300000000E+03 0. -1.
         -6    1    1    2    0  502  0.38604284849E+02 -0.98905544537E+02  0.81903379628E+03  0.84381156486E+03  0.17300000000E+03 0. -1.
<mgrwt>
<rscale>  2 0.20298177E+03</rscale>
<asrwt>0</asrwt>
<pdfrwt beam="1">  1       21 0.14144509E+00 0.20298177E+03</pdfrwt>
<pdfrwt beam="2">  1       21 0.19919733E-01 0.20298177E+03</pdfrwt>
<totfact> 0.80396053E+03</totfact>
</mgrwt>
</event>
<event>
 4    1  0.4439578E+000  0.2968245E+03  0.7546771E-02  0.1086839E+00
         21   -1    0    0  503  502  0.00000000000E+00  0.00000000000E+00  0.12284639093E+04  0.12284639093E+04  0.00000000000E+00 0. -1.
         21   -1    0    0  501  503 -0.00000000000E+00 -0.00000000000E+00 -0.14329725716E+03  0.14329725716E+03  0.00000000000E+00 0. -1.
          6    1    1    2  501    0 -0.42765585337E+01 -0.24115866616E+03  0.57832366855E+02  0.30240597526E+03  0.17300000000E+03 0. -1.
         -6    1    1    2    0  502  0.42765585337E+01  0.24115866616E+03  0.10273342853E+04  0.10693551912E+04  0.17300000000E+03 0. -1.
<mgrwt>
<rscale>  2 0.29682451E+03</rscale>
<asrwt>0</asrwt>
<pdfrwt beam="1">  1       21 0.18899444E+00 0.29682451E+03</pdfrwt>
<pdfrwt beam="2">  1       21 0.22045733E-01 0.29682451E+03</pdfrwt>
<totfact> 0.28043361E+03</totfact>
</mgrwt>
</event>
<event>
 4    1  0.4439578E+000  0.2229230E+03  0.7546771E-02  0.1131722E+00
         21   -1    0    0  503  502  0.00000000000E+00  0.00000000000E+00  0.55409108735E+03  0.55409108735E+03  0.00000000000E+00 0.  1.
         21   -1    0    0  501  503 -0.00000000000E+00 -0.00000000000E+00 -0.89698789789E+02  0.89698789789E+02  0.00000000000E+00 0.  1.
          6    1    1    2  501    0  0.76806632660E+02  0.11775573720E+03  0.23591325741E+03  0.32457624295E+03  0.17300000000E+03 0.  1.
         -6    1    1    2    0  502 -0.76806632660E+02 -0.11775573720E+03  0.22847904015E+03  0.31921363419E+03  0.17300000000E+03 0.  1.
<mgrwt>
<rscale>  2 0.22292302E+03</rscale>
<asrwt>0</asrwt>
<pdfrwt beam="1">  1       21 0.85244781E-01 0.22292302E+03</pdfrwt>
<pdfrwt beam="2">  1       21 0.13799814E-01 0.22292302E+03</pdfrwt>
<totfact> 0.53547836E+04</totfact>
</mgrwt>
</event>
<event>
 4    1  0.4439578E+000  0.1914651E+03  0.7546771E-02  0.1157146E+00
         21   -1    0    0  503  502  0.00000000000E+00  0.00000000000E+00  0.26458101173E+03  0.26458101173E+03  0.00000000000E+00 0. -1.
         21   -1    0    0  501  503 -0.00000000000E+00 -0.00000000000E+00 -0.23649232621E+03  0.23649232621E+03  0.00000000000E+00 0. -1.
          6    1    1    2  501    0 -0.16181617768E+02  0.80424243149E+02  0.17527138488E+03  0.25957457887E+03  0.17300000000E+03 0. -1.
         -6    1    1    2    0  502  0.16181617768E+02 -0.80424243149E+02 -0.14718269936E+03  0.24149875906E+03  0.17300000000E+03 0. -1.
<mgrwt>
<rscale>  2 0.19146515E+03</rscale>
<asrwt>0</asrwt>
<pdfrwt beam="1">  1       21 0.40704771E-01 0.19146515E+03</pdfrwt>
<pdfrwt beam="2">  1       21 0.36383435E-01 0.19146515E+03</pdfrwt>
<totfact> 0.42385904E+04</totfact>
</mgrwt>
</event>
<event>
 4    1  0.4439578E+000  0.1818330E+03  0.7546771E-02  0.1166041E+00
         21   -1    0    0  503  502  0.00000000000E+00  0.00000000000E+00  0.22283928176E+03  0.22283928176E+03  0.00000000000E+00 0.  1.
         21   -1    0    0  501  503 -0.00000000000E+00 -0.00000000000E+00 -0.13139533686E+04  0.13139533686E+04  0.00000000000E+00 0.  1.
          6    1    1    2  501    0 -0.19671214766E+02 -0.52414370625E+02 -0.12692702648E+04  0.12822286177E+04  0.17300000000E+03 0.  1.
         -6    1    1    2    0  502  0.19671214766E+02  0.52414370625E+02  0.17815617801E+03  0.25456403262E+03  0.17300000000E+03 0.  1.
<mgrwt>
<rscale>  2 0.18183295E+03</rscale>
<asrwt>0</asrwt>
<pdfrwt beam="1">  1       21 0.34282967E-01 0.18183295E+03</pdfrwt>
<pdfrwt beam="2">  1       21 0.20214667E+00 0.18183295E+03</pdfrwt>
<totfact> 0.10799929E+03</totfact>
</mgrwt>
</event>
<event>
 4    1  0.4439578E+000  0.3164242E+03  0.7546771E-02  0.1077307E+00
         21   -1    0    0  503  502  0.00000000000E+00  0.00000000000E+00  0.45578543645E+03  0.45578543645E+03  0.00000000000E+00 0.  1.
         21   -1    0    0  501  503 -0.00000000000E+00 -0.00000000000E+00 -0.22352572862E+03  0.22352572862E+03  0.00000000000E+00 0. -1.
          6    1    1    2  501    0  0.71707381585E+02  0.25505551657E+03  0.71544109996E+02  0.32441150532E+03  0.17300000000E+03 0.  1.
         -6    1    1    2    0  502 -0.71707381585E+02 -0.25505551657E+03  0.16071559783E+03  0.35489965975E+03  0.17300000000E+03 0. -1.
<mgrwt>
<rscale>  2 0.31642419E+03</rscale>
<asrwt>0</asrwt>
<pdfrwt beam="1">  1       21 0.70120836E-01 0.31642419E+03</pdfrwt>
<pdfrwt beam="2">  1       21 0.34388574E-01 0.31642419E+03</pdfrwt>
<totfact> 0.14114916E+04</totfact>
</mgrwt>
</event>
<event>
 4    1  0.4439578E+000  0.2005876E+03  0.7546771E-02  0.1149244E+00
         21   -1    0    0  503  502  0.00000000000E+00  0.00000000000E+00  0.19692330952E+03  0.19692330952E+03  0.00000000000E+00 0.  1.
         21   -1    0    0  501  503 -0.00000000000E+00 -0.00000000000E+00 -0.29516698964E+03  0.29516698964E+03  0.00000000000E+00 0. -1.
          6    1    1    2  501    0  0.94515536516E+02  0.37056690921E+02 -0.18562289594E+03  0.27329698952E+03  0.17300000000E+03 0. -1.
         -6    1    1    2    0  502 -0.94515536516E+02 -0.37056690921E+02  0.87379215819E+02  0.21879330964E+03  0.17300000000E+03 0.  1.
<mgrwt>
<rscale>  2 0.20058760E+03</rscale>
<asrwt>0</asrwt>
<pdfrwt beam="1">  1       21 0.30295894E-01 0.20058760E+03</pdfrwt>
<pdfrwt beam="2">  1       21 0.45410306E-01 0.20058760E+03</pdfrwt>
<totfact> 0.48433737E+04</totfact>
</mgrwt>
</event>
<event>
 4    1  0.4439578E+000  0.2109307E+03  0.7546771E-02  0.1140831E+00
         21   -1    0    0  503  502  0.00000000000E+00  0.00000000000E+00  0.16200829955E+03  0.16200829955E+03  0.00000000000E+00 0.  1.
         21   -1    0    0  501  503 -0.00000000000E+00 -0.00000000000E+00 -0.39129674002E+03  0.39129674002E+03  0.00000000000E+00 0.  1.
          6    1    1    2  501    0 -0.11115968237E+03 -0.46971041089E+02 -0.26570849657E+03  0.33925323703E+03  0.17300000000E+03 0.  1.
         -6    1    1    2    0  502  0.11115968237E+03  0.46971041089E+02  0.36420056092E+02  0.21405180254E+03  0.17300000000E+03 0.  1.
<mgrwt>
<rscale>  2 0.21093068E+03</rscale>
<asrwt>0</asrwt>
<pdfrwt beam="1">  1       21 0.24924354E-01 0.21093068E+03</pdfrwt>
<pdfrwt beam="2">  1       21 0.60199499E-01 0.21093068E+03</pdfrwt>
<totfact> 0.38827923E+04</totfact>
</mgrwt>
</event>
<event>
 4    1  0.4439578E+000  0.1978854E+03  0.7546771E-02  0.1151535E+00
         21   -1    0    0  503  502  0.00000000000E+00  0.00000000000E+00  0.55623375802E+03  0.55623375802E+03  0.00000000000E+00 0.  1.
         21   -1    0    0  501  503 -0.00000000000E+00 -0.00000000000E+00 -0.70912799793E+02  0.70912799793E+02  0.00000000000E+00 0.  1.
          6    1    1    2  501    0 -0.57073648983E+02  0.77280231156E+02  0.26933636514E+03  0.33421656620E+03  0.17300000000E+03 0.  1.
         -6    1    1    2    0  502  0.57073648983E+02 -0.77280231156E+02  0.21598459309E+03  0.29292999161E+03  0.17300000000E+03 0.  1.
<mgrwt>
<rscale>  2 0.19788541E+03</rscale>
<asrwt>0</asrwt>
<pdfrwt beam="1">  1       21 0.85574421E-01 0.19788541E+03</pdfrwt>
<pdfrwt beam="2">  1       21 0.10909662E-01 0.19788541E+03</pdfrwt>
<totfact> 0.81867873E+04</totfact>
</mgrwt>
</event>
<event>
 4    1  0.4439578E+000  0.1918921E+03  0.7546771E-02  0.1156766E+00
         21   -1    0    0  501  502  0.00000000000E+00  0.00000000000E+00  0.58887728282E+03  0.58887728282E+03  0.00000000000E+00 0. -1.
         21   -1    0    0  502  503 -0.00000000000E+00 -0.00000000000E+00 -0.89138265404E+02  0.89138265404E+02  0.00000000000E+00 0. -1.
          6    1    1    2  501    0  0.86288238187E+01  0.82577943555E+02  0.43508818873E+03  0.47552529410E+03  0.17300000000E+03 0. -1.
         -6    1    1    2    0  503 -0.86288238187E+01 -0.82577943555E+02  0.64650828683E+02  0.20249025412E+03  0.17300000000E+03 0. -1.
<mgrwt>
<rscale>  2 0.19189209E+03</rscale>
<asrwt>0</asrwt>
<pdfrwt beam="1">  1       21 0.90596503E-01 0.19189209E+03</pdfrwt>
<pdfrwt beam="2">  1       21 0.13713580E-01 0.19189209E+03</pdfrwt>
<totfact> 0.47777532E+04</totfact>
</mgrwt>
</event>
<event>
 4    1  0.4439578E+000  0.1851314E+03  0.7546771E-02  0.1162927E+00
         21   -1    0    0  503  502  0.00000000000E+00  0.00000000000E+00  0.10223916740E+04  0.10223916740E+04  0.00000000000E+00 0.  1.
         21   -1    0    0  501  503 -0.00000000000E+00 -0.00000000000E+00 -0.47781093734E+02  0.47781093734E+02  0.00000000000E+00 0.  1.
          6    1    1    2  501    0 -0.65877005966E+01  0.65583705447E+02  0.19500662937E+03  0.26888883524E+03  0.17300000000E+03 0.  1.
         -6    1    1    2    0  502  0.65877005966E+01 -0.65583705447E+02  0.77960395090E+03  0.80128393249E+03  0.17300000000E+03 0.  1.
<mgrwt>
<rscale>  2 0.18513136E+03</rscale>
<asrwt>0</asrwt>
<pdfrwt beam="1">  1       21 0.15729101E+00 0.18513136E+03</pdfrwt>
<pdfrwt beam="2">  1       21 0.73509383E-02 0.18513136E+03</pdfrwt>
<totfact> 0.36796296E+04</totfact>
</mgrwt>
</event>
<event>
 4    1  0.4439578E+000  0.2569547E+03  0.7546771E-02  0.1108987E+00
         21   -1    0    0  503  502  0.00000000000E+00  0.00000000000E+00  0.38456494794E+03  0.38456494794E+03  0.00000000000E+00 0. -1.
         21   -1    0    0  501  503 -0.00000000000E+00 -0.00000000000E+00 -0.20876277165E+03  0.20876277165E+03  0.00000000000E+00 0.  1.
          6    1    1    2  501    0 -0.18626990178E+03 -0.37419637183E+02 -0.37116022399E+02  0.25962146420E+03  0.17300000000E+03 0.  1.
         -6    1    1    2    0  502  0.18626990178E+03  0.37419637183E+02  0.21291819868E+03  0.33370625539E+03  0.17300000000E+03 0. -1.
<mgrwt>
<rscale>  2 0.25695468E+03</rscale>
<asrwt>0</asrwt>
<pdfrwt beam="1">  1       21 0.59163838E-01 0.25695468E+03</pdfrwt>
<pdfrwt beam="2">  1       21 0.32117350E-01 0.25695468E+03</pdfrwt>
<totfact> 0.24085434E+04</totfact>
</mgrwt>
</event>
<event>
 4    1  0.4439578E+000  0.1748553E+03  0.7546771E-02  0.1172877E+00
         21   -1    0    0  501  502  0.00000000000E+00  0.00000000000E+00  0.17471764200E+03  0.17471764200E+03  0.00000000000E+00 0.  1.
         21   -1    0    0  502  503 -0.00000000000E+00 -0.00000000000E+00 -0.28814057997E+03  0.28814057997E+03  0.00000000000E+00 0.  1.
          6    1    1    2  501    0  0.88094006442E+01 -0.23828170127E+02  0.88311955902E+02  0.19589126776E+03  0.17300000000E+03 0.  1.
         -6    1    1    2    0  503 -0.88094006442E+01  0.23828170127E+02 -0.20173489388E+03  0.26696695421E+03  0.17300000000E+03 0.  1.
<mgrwt>
<rscale>  2 0.17485533E+03</rscale>
<asrwt>0</asrwt>
<pdfrwt beam="1">  1       21 0.26879637E-01 0.17485533E+03</pdfrwt>
<pdfrwt beam="2">  1       21 0.44329320E-01 0.17485533E+03</pdfrwt>
<totfact> 0.64925688E+04</totfact>
</mgrwt>
</event>
<event>
 4    1  0.4439578E+000  0.1732454E+03  0.7546771E-02  0.1174505E+00
         21   -1    0    0  501  502  0.00000000000E+00  0.00000000000E+00  0.20861250859E+04  0.20861250859E+04  0.00000000000E+00 0.  1.
         21   -1    0    0  502  503 -0.00000000000E+00 -0.00000000000E+00 -0.21048659858E+02  0.21048659858E+02  0.00000000000E+00 0.  1.
          6    1    1    2  501    0  0.69697476958E+00  0.91913976230E+01  0.16252390070E+04  0.16344466334E+04  0.17300000000E+03 0.  1.
         -6    1    1    2    0  503 -0.69697476958E+00 -0.91913976230E+01  0.43983741900E+03  0.47272711231E+03  0.17300000000E+03 0.  1.
<mgrwt>
<rscale>  2 0.17324540E+03</rscale>
<asrwt>0</asrwt>
<pdfrwt beam="1">  1       21 0.32094216E+00 0.17324540E+03</pdfrwt>
<pdfrwt beam="2">  1       21 0.32382570E-02 0.17324540E+03</pdfrwt>
<totfact> 0.14729362E+04</totfact>
</mgrwt>
</event>
<event>
 4    1  0.4439578E+000  0.1833291E+03  0.7546771E-02  0.1164619E+00
         21   -1    0    0  503  502  0.00000000000E+00  0.00000000000E+00  0.65692567057E+02  0.65692567057E+02  0.00000000000E+00 0. -1.
         21   -1    0    0  501  503 -0.00000000000E+00 -0.00000000000E+00 -0.56094393063E+03  0.56094393063E+03  0.00000000000E+00 0.  1.
          6    1    1    2  501    0  0.55824730802E+02  0.23752282472E+02 -0.34053489912E+03  0.38674744861E+03  0.17300000000E+03 0.  1.
         -6    1    1    2    0  502 -0.55824730802E+02 -0.23752282472E+02 -0.15471646445E+03  0.23988904907E+03  0.17300000000E+03 0. -1.
<mgrwt>
<rscale>  2 0.18332913E+03</rscale>
<asrwt>0</asrwt>
<pdfrwt beam="1">  1       21 0.10106549E-01 0.18332913E+03</pdfrwt>
<pdfrwt beam="2">  1       21 0.86299062E-01 0.18332913E+03</pdfrwt>
<totfact> 0.92519406E+04</totfact>
</mgrwt>
</event>
<event>
 4    1  0.4439578E+000  0.2000877E+03  0.7546771E-02  0.1149665E+00
         21   -1    0    0  503  502  0.00000000000E+00  0.00000000000E+00  0.10660428718E+04  0.10660428718E+04  0.00000000000E+00 0. -1.
         21   -1    0    0  501  503 -0.00000000000E+00 -0.00000000000E+00 -0.52951621996E+02  0.52951621996E+02  0.00000000000E+00 0. -1.
          6    1    1    2  501    0  0.68675381123E+02  0.73415003997E+02  0.20484703312E+03  0.28635184260E+03  0.17300000000E+03 0. -1.
         -6    1    1    2    0  502 -0.68675381123E+02 -0.73415003997E+02  0.80824421671E+03  0.83264265122E+03  0.17300000000E+03 0. -1.
<mgrwt>
<rscale>  2 0.20008766E+03</rscale>
<asrwt>0</asrwt>
<pdfrwt beam="1">  1       21 0.16400658E+00 0.20008766E+03</pdfrwt>
<pdfrwt beam="2">  1       21 0.81464042E-02 0.20008766E+03</pdfrwt>
<totfact> 0.27234799E+04</totfact>
</mgrwt>
</event>
<event>
 4    1  0.4439578E+000  0.1771036E+03  0.7546771E-02  0.1170636E+00
         21   -1    0    0  501  502  0.00000000000E+00  0.00000000000E+00  0.41646585549E+02  0.41646585549E+02  0.00000000000E+00 0. -1.
         21   -1    0    0  502  503 -0.00000000000E+00 -0.00000000000E+00 -0.10435607394E+04  0.10435607394E+04  0.00000000000E+00 0. -1.
          6    1    1    2  501    0 -0.37875990713E+02  0.14518746065E+01 -0.21471210765E+03  0.27832892014E+03  0.17300000000E+03 0. -1.
         -6    1    1    2    0  503  0.37875990713E+02 -0.14518746065E+01 -0.78720204620E+03  0.80687840481E+03  0.17300000000E+03 0. -1.
<mgrwt>
<rscale>  2 0.17710364E+03</rscale>
<asrwt>0</asrwt>
<pdfrwt beam="1">  1       21 0.64071677E-02 0.17710364E+03</pdfrwt>
<pdfrwt beam="2">  1       21 0.16054779E+00 0.17710364E+03</pdfrwt>
<totfact> 0.44346851E+04</totfact>
</mgrwt>
</event>
<event>
 4    1  0.4439578E+000  0.2268269E+03  0.7546771E-02  0.1128893E+00
         21   -1    0    0  503  502  0.00000000000E+00  0.00000000000E+00  0.28236255970E+03  0.28236255970E+03  0.00000000000E+00 0.  1.
         21   -1    0    0  501  503 -0.00000000000E+00 -0.00000000000E+00 -0.19738893855E+03  0.19738893855E+03  0.00000000000E+00 0.  1.
          6    1    1    2  501    0 -0.82432154884E+02 -0.12135237243E+03 -0.24023048405E+02  0.22809551795E+03  0.17300000000E+03 0.  1.
         -6    1    1    2    0  502  0.82432154884E+02  0.12135237243E+03  0.10899666956E+03  0.25165598031E+03  0.17300000000E+03 0.  1.
<mgrwt>
<rscale>  2 0.22682694E+03</rscale>
<asrwt>0</asrwt>
<pdfrwt beam="1">  1       21 0.43440394E-01 0.22682694E+03</pdfrwt>
<pdfrwt beam="2">  1       21 0.30367529E-01 0.22682694E+03</pdfrwt>
<totfact> 0.52176073E+04</totfact>
</mgrwt>
</event>
<event>
 4    1  0.4439578E+000  0.2977354E+03  0.7546771E-02  0.1086378E+00
         21   -1    0    0  503  502  0.00000000000E+00  0.00000000000E+00  0.17624813864E+03  0.17624813864E+03  0.00000000000E+00 0. -1.
         21   -1    0    0  501  503 -0.00000000000E+00 -0.00000000000E+00 -0.50301005376E+03  0.50301005376E+03  0.00000000000E+00 0. -1.
          6    1    1    2  501    0  0.15482818230E+03  0.18640174977E+03 -0.16011315688E+03  0.33805709778E+03  0.17300000000E+03 0. -1.
         -6    1    1    2    0  502 -0.15482818230E+03 -0.18640174977E+03 -0.16664875825E+03  0.34120109463E+03  0.17300000000E+03 0. -1.
<mgrwt>
<rscale>  2 0.29773542E+03</rscale>
<asrwt>0</asrwt>
<pdfrwt beam="1">  1       21 0.27115098E-01 0.29773542E+03</pdfrwt>
<pdfrwt beam="2">  1       21 0.77386162E-01 0.29773542E+03</pdfrwt>
<totfact> 0.18211394E+04</totfact>
</mgrwt>
</event>
<event>
 4    1  0.4439578E+000  0.1883827E+03  0.7546771E-02  0.1159928E+00
         21   -1    0    0  503  502  0.00000000000E+00  0.00000000000E+00  0.69273382736E+03  0.69273382736E+03  0.00000000000E+00 0. -1.
         21   -1    0    0  501  503 -0.00000000000E+00 -0.00000000000E+00 -0.51444971473E+02  0.51444971473E+02  0.00000000000E+00 0. -1.
          6    1    1    2  501    0  0.68601972978E+02 -0.29203225687E+02  0.29653554132E+03  0.35131380041E+03  0.17300000000E+03 0.  1.
         -6    1    1    2    0  502 -0.68601972978E+02  0.29203225687E+02  0.34475331456E+03  0.39286499843E+03  0.17300000000E+03 0.  1.
<mgrwt>
<rscale>  2 0.18838275E+03</rscale>
<asrwt>0</asrwt>
<pdfrwt beam="1">  1       21 0.10657443E+00 0.18838275E+03</pdfrwt>
<pdfrwt beam="2">  1       21 0.79146115E-02 0.18838275E+03</pdfrwt>
<totfact> 0.86348517E+04</totfact>
</mgrwt>
</event>
<event>
 4    1  0.4439578E+000  0.1813049E+03  0.7546771E-02  0.1166546E+00
         21   -1    0    0  503  502  0.00000000000E+00  0.00000000000E+00  0.18536942396E+04  0.18536942396E+04  0.00000000000E+00 0. -1.
         21   -1    0    0  501  503 -0.00000000000E+00 -0.00000000000E+00 -0.17836376583E+02  0.17836376583E+02  0.00000000000E+00 0. -1.
          6    1    1    2  501    0  0.34906864505E+02  0.41520656175E+02  0.98918873924E+03  0.10056668514E+04  0.17300000000E+03 0.  1.
         -6    1    1    2    0  502 -0.34906864505E+02 -0.41520656175E+02  0.84666912373E+03  0.86586376478E+03  0.17300000000E+03 0.  1.
<mgrwt>
<rscale>  2 0.18130487E+03</rscale>
<asrwt>0</asrwt>
<pdfrwt beam="1">  1       21 0.28518358E+00 0.18130487E+03</pdfrwt>
<pdfrwt beam="2">  1       21 0.27440594E-02 0.18130487E+03</pdfrwt>
<totfact> 0.30782982E+04</totfact>
</mgrwt>
</event>
<event>
 4    1  0.4439578E+000  0.1942006E+03  0.7546771E-02  0.1154726E+00
         21   -1    0    0  503  502  0.00000000000E+00  0.00000000000E+00  0.16003605972E+03  0.16003605972E+03  0.00000000000E+00 0. -1.
         21   -1    0    0  501  503 -0.00000000000E+00 -0.00000000000E+00 -0.73102086831E+03  0.73102086831E+03  0.00000000000E+00 0.  1.
          6    1    1    2  501    0  0.88096742192E+02 -0.48838892518E+01 -0.65224398124E+03  0.68054103434E+03  0.17300000000E+03 0.  1.
         -6    1    1    2    0  502 -0.88096742192E+02  0.48838892518E+01  0.81259172650E+02  0.21051589370E+03  0.17300000000E+03 0. -1.
<mgrwt>
<rscale>  2 0.19420064E+03</rscale>
<asrwt>0</asrwt>
<pdfrwt beam="1">  1       21 0.24620933E-01 0.19420064E+03</pdfrwt>
<pdfrwt beam="2">  1       21 0.11246475E+00 0.19420064E+03</pdfrwt>
<totfact> 0.96418957E+03</totfact>
</mgrwt>
</event>
<event>
 4    1  0.4439578E+000  0.1852186E+03  0.7546771E-02  0.1162846E+00
         21   -1    0    0  503  502  0.00000000000E+00  0.00000000000E+00  0.82480845104E+02  0.82480845104E+02  0.00000000000E+00 0.  1.
         21   -1    0    0  501  503 -0.00000000000E+00 -0.00000000000E+00 -0.43167231204E+03  0.43167231204E+03  0.00000000000E+00 0.  1.
          6    1    1    2  501    0  0.64314291500E+02  0.15511876758E+02 -0.22369463316E+03  0.29042251173E+03  0.17300000000E+03 0.  1.
         -6    1    1    2    0  502 -0.64314291500E+02 -0.15511876758E+02 -0.12549683377E+03  0.22373064542E+03  0.17300000000E+03 0.  1.
<mgrwt>
<rscale>  2 0.18521864E+03</rscale>
<asrwt>0</asrwt>
<pdfrwt beam="1">  1       21 0.12689361E-01 0.18521864E+03</pdfrwt>
<pdfrwt beam="2">  1       21 0.66411123E-01 0.18521864E+03</pdfrwt>
<totfact> 0.11072156E+05</totfact>
</mgrwt>
</event>
<event>
 4    1  0.4439578E+000  0.2012061E+03  0.7546771E-02  0.1148725E+00
         21   -1    0    0  503  502  0.00000000000E+00  0.00000000000E+00  0.14400306728E+03  0.14400306728E+03  0.00000000000E+00 0. -1.
         21   -1    0    0  501  503 -0.00000000000E+00 -0.00000000000E+00 -0.47852577455E+03  0.47852577455E+03  0.00000000000E+00 0.  1.
          6    1    1    2  501    0  0.10830188667E+02  0.10216451127E+03 -0.36717547070E+03  0.41869046638E+03  0.17300000000E+03 0.  1.
         -6    1    1    2    0  502 -0.10830188667E+02 -0.10216451127E+03  0.32652763435E+02  0.20383837546E+03  0.17300000000E+03 0. -1.
<mgrwt>
<rscale>  2 0.20120606E+03</rscale>
<asrwt>0</asrwt>
<pdfrwt beam="1">  1       21 0.22154319E-01 0.20120606E+03</pdfrwt>
<pdfrwt beam="2">  1       21 0.73619348E-01 0.20120606E+03</pdfrwt>
<totfact> 0.31420379E+04</totfact>
</mgrwt>
</event>
<event>
 4    1  0.4439578E+000  0.1986956E+03  0.7546771E-02  0.1150844E+00
         21   -1    0    0  501  502  0.00000000000E+00  0.00000000000E+00  0.72678287076E+03  0.72678287076E+03  0.00000000000E+00 0.  1.
         21   -1    0    0  502  503 -0.00000000000E+00 -0.00000000000E+00 -0.62322103396E+02  0.62322103396E+02  0.00000000000E+00 0. -1.
          6    1    1    2  501    0  0.51198434045E+02 -0.83244700449E+02  0.19086463238E+03  0.27551636557E+03  0.17300000000E+03 0. -1.
         -6    1    1    2    0  503 -0.51198434045E+02  0.83244700449E+02  0.47359613498E+03  0.51358860858E+03  0.17300000000E+03 0.  1.
<mgrwt>
<rscale>  2 0.19869565E+03</rscale>
<asrwt>0</asrwt>
<pdfrwt beam="1">  1       21 0.11181274E+00 0.19869565E+03</pdfrwt>
<pdfrwt beam="2">  1       21 0.95880164E-02 0.19869565E+03</pdfrwt>
<totfact> 0.54692530E+04</totfact>
</mgrwt>
</event>
<event>
 4    1  0.4439578E+000  0.2010689E+03  0.7546771E-02  0.1148840E+00
         21   -1    0    0  501  502  0.00000000000E+00  0.00000000000E+00  0.82588649685E+02  0.82588649685E+02  0.00000000000E+00 0. -1.
         21   -1    0    0  502  503 -0.00000000000E+00 -0.00000000000E+00 -0.11020192787E+04  0.11020192787E+04  0.00000000000E+00 0.  1.
          6    1    1    2  501    0  0.76066251660E+02  0.68655784953E+02 -0.68141530191E+02  0.21230157697E+03  0.17300000000E+03 0. -1.
         -6    1    1    2    0  503 -0.76066251660E+02 -0.68655784953E+02 -0.95128909878E+03  0.97230635137E+03  0.17300000000E+03 0.  1.
<mgrwt>
<rscale>  2 0.20106887E+03</rscale>
<asrwt>0</asrwt>
<pdfrwt beam="1">  1       21 0.12705946E-01 0.20106887E+03</pdfrwt>
<pdfrwt beam="2">  1       21 0.16954143E+00 0.20106887E+03</pdfrwt>
<totfact> 0.11312519E+04</totfact>
</mgrwt>
</event>
<event>
 4    1  0.4439578E+000  0.2274773E+03  0.7546771E-02  0.1128428E+00
         21   -1    0    0  501  502  0.00000000000E+00  0.00000000000E+00  0.41171642518E+03  0.41171642518E+03  0.00000000000E+00 0.  1.
         21   -1    0    0  502  503 -0.00000000000E+00 -0.00000000000E+00 -0.13948906356E+03  0.13948906356E+03  0.00000000000E+00 0.  1.
          6    1    1    2  501    0  0.21433104409E+02 -0.14614218749E+03  0.49409063774E+02  0.23278138352E+03  0.17300000000E+03 0.  1.
         -6    1    1    2    0  503 -0.21433104409E+02  0.14614218749E+03  0.22281829785E+03  0.31842410522E+03  0.17300000000E+03 0.  1.
<mgrwt>
<rscale>  2 0.22747729E+03</rscale>
<asrwt>0</asrwt>
<pdfrwt beam="1">  1       21 0.63340988E-01 0.22747729E+03</pdfrwt>
<pdfrwt beam="2">  1       21 0.21459856E-01 0.22747729E+03</pdfrwt>
<totfact> 0.45858944E+04</totfact>
</mgrwt>
</event>
<event>
 4    1  0.4439578E+000  0.1958202E+03  0.7546771E-02  0.1153314E+00
         21   -1    0    0  501  502  0.00000000000E+00  0.00000000000E+00  0.14620340670E+04  0.14620340670E+04  0.00000000000E+00 0. -1.
         21   -1    0    0  502  503 -0.00000000000E+00 -0.00000000000E+00 -0.34361863447E+02  0.34361863447E+02  0.00000000000E+00 0. -1.
          6    1    1    2  501    0 -0.90499479670E+02 -0.15046913305E+02  0.10778674075E+04  0.10955107090E+04  0.17300000000E+03 0. -1.
         -6    1    1    2    0  503  0.90499479670E+02  0.15046913305E+02  0.34980479608E+03  0.40088522145E+03  0.17300000000E+03 0. -1.
<mgrwt>
<rscale>  2 0.19582024E+03</rscale>
<asrwt>0</asrwt>
<pdfrwt beam="1">  1       21 0.22492827E+00 0.19582024E+03</pdfrwt>
<pdfrwt beam="2">  1       21 0.52864417E-02 0.19582024E+03</pdfrwt>
<totfact> 0.22911289E+04</totfact>
</mgrwt>
</event>
<event>
 4    1  0.4439578E+000  0.2738059E+03  0.7546771E-02  0.1099121E+00
         21   -1    0    0  503  502  0.00000000000E+00  0.00000000000E+00  0.21599919008E+03  0.21599919008E+03  0.00000000000E+00 0. -1.
         21   -1    0    0  501  503 -0.00000000000E+00 -0.00000000000E+00 -0.10525752537E+04  0.10525752537E+04  0.00000000000E+00 0.  1.
          6    1    1    2  501    0  0.18740266172E+03 -0.99603800591E+02 -0.93757266355E+03  0.97673546785E+03  0.17300000000E+03 0.  1.
         -6    1    1    2    0  502 -0.18740266172E+03  0.99603800591E+02  0.10099659989E+03  0.29183897598E+03  0.17300000000E+03 0. -1.
<mgrwt>
<rscale>  2 0.27380591E+03</rscale>
<asrwt>0</asrwt>
<pdfrwt beam="1">  1       21 0.33230645E-01 0.27380591E+03</pdfrwt>
<pdfrwt beam="2">  1       21 0.16193465E+00 0.27380591E+03</pdfrwt>
<totfact> 0.19865359E+03</totfact>
</mgrwt>
</event>
<event>
 4    1  0.4439578E+000  0.1980904E+03  0.7546771E-02  0.1151360E+00
         21   -1    0    0  501  502  0.00000000000E+00  0.00000000000E+00  0.14995175241E+04  0.14995175241E+04  0.00000000000E+00 0.  1.
         21   -1    0    0  502  503 -0.00000000000E+00 -0.00000000000E+00 -0.53043839770E+02  0.53043839770E+02  0.00000000000E+00 0. -1.
          6    1    1    2  501    0 -0.91725280935E+02 -0.29954711338E+02  0.17067617588E+03  0.26147689937E+03  0.17300000000E+03 0. -1.
         -6    1    1    2    0  503  0.91725280935E+02  0.29954711338E+02  0.12757975085E+04  0.12910844645E+04  0.17300000000E+03 0.  1.
<mgrwt>
<rscale>  2 0.19809041E+03</rscale>
<asrwt>0</asrwt>
<pdfrwt beam="1">  1       21 0.23069497E+00 0.19809041E+03</pdfrwt>
<pdfrwt beam="2">  1       21 0.81605919E-02 0.19809041E+03</pdfrwt>
<totfact> 0.99908854E+03</totfact>
</mgrwt>
</event>
<event>
 4    1  0.4439578E+000  0.2382572E+03  0.7546771E-02  0.1120959E+00
         21   -1    0    0  501  502  0.00000000000E+00  0.00000000000E+00  0.23712991749E+03  0.23712991749E+03  0.00000000000E+00 0.  1.
         21   -1    0    0  502  503 -0.00000000000E+00 -0.00000000000E+00 -0.62776236961E+03  0.62776236961E+03  0.00000000000E+00 0.  1.
          6    1    1    2  501    0  0.12689413200E+03  0.10361160465E+03  0.14482451925E+03  0.27882006156E+03  0.17300000000E+03 0.  1.
         -6    1    1    2    0  503 -0.12689413200E+03 -0.10361160465E+03 -0.53545697137E+03  0.58607222554E+03  0.17300000000E+03 0.  1.
<mgrwt>
<rscale>  2 0.23825718E+03</rscale>
<asrwt>0</asrwt>
<pdfrwt beam="1">  1       21 0.36481525E-01 0.23825718E+03</pdfrwt>
<pdfrwt beam="2">  1       21 0.96578827E-01 0.23825718E+03</pdfrwt>
<totfact> 0.62533357E+03</totfact>
</mgrwt>
</event>
<event>
 4    1  0.4439578E+000  0.2463154E+03  0.7546771E-02  0.1115656E+00
         21   -1    0    0  503  502  0.00000000000E+00  0.00000000000E+00  0.96868874436E+02  0.96868874436E+02  0.00000000000E+00 0. -1.
         21   -1    0    0  501  503 -0.00000000000E+00 -0.00000000000E+00 -0.62930111814E+03  0.62930111814E+03  0.00000000000E+00 0. -1.
          6    1    1    2  501    0 -0.13181168843E+03  0.11561982519E+03 -0.24124120864E+03  0.34477323842E+03  0.17300000000E+03 0. -1.
         -6    1    1    2    0  502  0.13181168843E+03 -0.11561982519E+03 -0.29119103506E+03  0.38139675416E+03  0.17300000000E+03 0. -1.
<mgrwt>
<rscale>  2 0.24631538E+03</rscale>
<asrwt>0</asrwt>
<pdfrwt beam="1">  1       21 0.14902904E-01 0.24631538E+03</pdfrwt>
<pdfrwt beam="2">  1       21 0.96815553E-01 0.24631538E+03</pdfrwt>
<totfact> 0.34226004E+04</totfact>
</mgrwt>
</event>
<event>
 4    1  0.4439578E+000  0.2214086E+03  0.7546771E-02  0.1132837E+00
         21   -1    0    0  503  502  0.00000000000E+00  0.00000000000E+00  0.14751864907E+03  0.14751864907E+03  0.00000000000E+00 0.  1.
         21   -1    0    0  501  503 -0.00000000000E+00 -0.00000000000E+00 -0.33257371325E+03  0.33257371325E+03  0.00000000000E+00 0. -1.
          6    1    1    2  501    0  0.87851619487E+02 -0.10665294486E+03 -0.85753713961E+02  0.23743516410E+03  0.17300000000E+03 0.  1.
         -6    1    1    2    0  502 -0.87851619487E+02  0.10665294486E+03 -0.99301350220E+02  0.24265719822E+03  0.17300000000E+03 0. -1.
<mgrwt>
<rscale>  2 0.22140858E+03</rscale>
<asrwt>0</asrwt>
<pdfrwt beam="1">  1       21 0.22695177E-01 0.22140858E+03</pdfrwt>
<pdfrwt beam="2">  1       21 0.51165187E-01 0.22140858E+03</pdfrwt>
<totfact> 0.65263710E+04</totfact>
</mgrwt>
</event>
<event>
 4    1  0.4439578E+000  0.2345913E+03  0.7546771E-02  0.1123449E+00
         21   -1    0    0  501  502  0.00000000000E+00  0.00000000000E+00  0.68362889125E+03  0.68362889125E+03  0.00000000000E+00 0. -1.
         21   -1    0    0  502  503 -0.00000000000E+00 -0.00000000000E+00 -0.14203941074E+03  0.14203941074E+03  0.00000000000E+00 0.  1.
          6    1    1    2  501    0  0.26789136909E+02  0.15616153264E+03  0.54252807317E+03  0.59107511562E+03  0.17300000000E+03 0. -1.
         -6    1    1    2    0  503 -0.26789136909E+02 -0.15616153264E+03 -0.93859266158E+00  0.23459318637E+03  0.17300000000E+03 0.  1.
<mgrwt>
<rscale>  2 0.23459131E+03</rscale>
<asrwt>0</asrwt>
<pdfrwt beam="1">  1       21 0.10517367E+00 0.23459131E+03</pdfrwt>
<pdfrwt beam="2">  1       21 0.21852217E-01 0.23459131E+03</pdfrwt>
<totfact> 0.13856536E+04</totfact>
</mgrwt>
</event>
<event>
 4    1  0.4439578E+000  0.1972898E+03  0.7546771E-02  0.1152046E+00
         21   -1    0    0  501  502  0.00000000000E+00  0.00000000000E+00  0.13966830885E+03  0.13966830885E+03  0.00000000000E+00 0. -1.
         21   -1    0    0  502  503 -0.00000000000E+00 -0.00000000000E+00 -0.37186102198E+03  0.37186102198E+03  0.00000000000E+00 0. -1.
          6    1    1    2  501    0 -0.94834357629E+02  0.84394336684E+00  0.11931817810E+02  0.19765028688E+03  0.17300000000E+03 0. -1.
         -6    1    1    2    0  503  0.94834357629E+02 -0.84394336684E+00 -0.24412453094E+03  0.31387904395E+03  0.17300000000E+03 0. -1.
<mgrwt>
<rscale>  2 0.19728981E+03</rscale>
<asrwt>0</asrwt>
<pdfrwt beam="1">  1       21 0.21487432E-01 0.19728981E+03</pdfrwt>
<pdfrwt beam="2">  1       21 0.57209388E-01 0.19728981E+03</pdfrwt>
<totfact> 0.57769574E+04</totfact>
</mgrwt>
</event>
<event>
 4    1  0.4439578E+000  0.1890878E+03  0.7546771E-02  0.1159287E+00
         21   -1    0    0  503  502  0.00000000000E+00  0.00000000000E+00  0.13019016467E+03  0.13019016467E+03  0.00000000000E+00 0. -1.
         21   -1    0    0  501  503 -0.00000000000E+00 -0.00000000000E+00 -0.87865326811E+03  0.87865326811E+03  0.00000000000E+00 0.  1.
          6    1    1    2  501    0 -0.53997677848E+02  0.53939426034E+02 -0.79245811022E+03  0.81470489587E+03  0.17300000000E+03 0.  1.
         -6    1    1    2    0  502  0.53997677848E+02 -0.53939426034E+02  0.43995006783E+02  0.19413853692E+03  0.17300000000E+03 0. -1.
<mgrwt>
<rscale>  2 0.18908784E+03</rscale>
<asrwt>0</asrwt>
<pdfrwt beam="1">  1       21 0.20029257E-01 0.18908784E+03</pdfrwt>
<pdfrwt beam="2">  1       21 0.13517742E+00 0.18908784E+03</pdfrwt>
<totfact> 0.90372440E+03</totfact>
</mgrwt>
</event>
<event>
 4    1  0.4439578E+000  0.1794693E+03  0.7546771E-02  0.1168318E+00
         21   -1    0    0  501  502  0.00000000000E+00  0.00000000000E+00  0.13135872697E+03  0.13135872697E+03  0.00000000000E+00 0. -1.
         21   -1    0    0  502  503 -0.00000000000E+00 -0.00000000000E+00 -0.45172244056E+03  0.45172244056E+03  0.00000000000E+00 0. -1.
          6    1    1    2  501    0  0.28520598213E+02 -0.38299008257E+02  0.36945174014E+02  0.18323259655E+03  0.17300000000E+03 0. -1.
         -6    1    1    2    0  503 -0.28520598213E+02  0.38299008257E+02 -0.35730888761E+03  0.39984857098E+03  0.17300000000E+03 0. -1.
<mgrwt>
<rscale>  2 0.17946932E+03</rscale>
<asrwt>0</asrwt>
<pdfrwt beam="1">  1       21 0.20209035E-01 0.17946932E+03</pdfrwt>
<pdfrwt beam="2">  1       21 0.69495760E-01 0.17946932E+03</pdfrwt>
<totfact> 0.42902753E+04</totfact>
</mgrwt>
</event>
<event>
 4    1  0.4439578E+000  0.1788690E+03  0.7546771E-02  0.1168902E+00
         21   -1    0    0  501  502  0.00000000000E+00  0.00000000000E+00  0.44402603405E+02  0.44402603405E+02  0.00000000000E+00 0. -1.
         21   -1    0    0  502  503 -0.00000000000E+00 -0.00000000000E+00 -0.99049970424E+03  0.99049970424E+03  0.00000000000E+00 0. -1.
          6    1    1    2  501    0  0.43997570901E+02 -0.11371956228E+02 -0.20290971523E+03  0.27049299468E+03  0.17300000000E+03 0. -1.
         -6    1    1    2    0  503 -0.43997570901E+02  0.11371956228E+02 -0.74318738560E+03  0.76440931297E+03  0.17300000000E+03 0. -1.
<mgrwt>
<rscale>  2 0.17886897E+03</rscale>
<asrwt>0</asrwt>
<pdfrwt beam="1">  1       21 0.68311697E-02 0.17886897E+03</pdfrwt>
<pdfrwt beam="2">  1       21 0.15238457E+00 0.17886897E+03</pdfrwt>
<totfact> 0.45600135E+04</totfact>
</mgrwt>
</event>
<event>
 4    1  0.4439578E+000  0.1919615E+03  0.7546771E-02  0.1156704E+00
         21   -1    0    0  501  502  0.00000000000E+00  0.00000000000E+00  0.47274677151E+02  0.47274677151E+02  0.00000000000E+00 0. -1.
         21   -1    0    0  502  503 -0.00000000000E+00 -0.00000000000E+00 -0.83826188505E+03  0.83826188505E+03  0.00000000000E+00 0. -1.
          6    1    1    2  501    0  0.81011846053E+02  0.18901976324E+02 -0.51275213535E+03  0.54750703760E+03  0.17300000000E+03 0. -1.
         -6    1    1    2    0  503 -0.81011846053E+02 -0.18901976324E+02 -0.27823507255E+03  0.33802952461E+03  0.17300000000E+03 0. -1.
<mgrwt>
<rscale>  2 0.19196146E+03</rscale>
<asrwt>0</asrwt>
<pdfrwt beam="1">  1       21 0.72730278E-02 0.19196146E+03</pdfrwt>
<pdfrwt beam="2">  1       21 0.12896336E+00 0.19196146E+03</pdfrwt>
<totfact> 0.62471136E+04</totfact>
</mgrwt>
</event>
<event>
 4    1  0.4439578E+000  0.2094435E+03  0.7546771E-02  0.1142007E+00
         21   -1    0    0  503  502  0.00000000000E+00  0.00000000000E+00  0.19075156254E+03  0.19075156254E+03  0.00000000000E+00 0.  1.
         21   -1    0    0  501  503 -0.00000000000E+00 -0.00000000000E+00 -0.24060218575E+03  0.24060218575E+03  0.00000000000E+00 0.  1.
          6    1    1    2  501    0 -0.92542959992E+02 -0.73303456293E+02 -0.70269638279E+02  0.22091722027E+03  0.17300000000E+03 0.  1.
         -6    1    1    2    0  502  0.92542959992E+02  0.73303456293E+02  0.20419015061E+02  0.21043652802E+03  0.17300000000E+03 0.  1.
<mgrwt>
<rscale>  2 0.20944354E+03</rscale>
<asrwt>0</asrwt>
<pdfrwt beam="1">  1       21 0.29346395E-01 0.20944354E+03</pdfrwt>
<pdfrwt beam="2">  1       21 0.37015721E-01 0.20944354E+03</pdfrwt>
<totfact> 0.77730977E+04</totfact>
</mgrwt>
</event>
<event>
 4    1  0.4439578E+000  0.2821523E+03  0.7546771E-02  0.1094519E+00
         21   -1    0    0  503  502  0.00000000000E+00  0.00000000000E+00  0.29950528756E+03  0.29950528756E+03  0.00000000000E+00 0.  1.
         21   -1    0    0  501  503 -0.00000000000E+00 -0.00000000000E+00 -0.28190714839E+03  0.28190714839E+03  0.00000000000E+00 0. -1.
          6    1    1    2  501    0 -0.10535732735E+03  0.19641989971E+03 -0.60678700235E+02  0.28860327110E+03  0.17300000000E+03 0. -1.
         -6    1    1    2    0  502  0.10535732735E+03 -0.19641989971E+03  0.78276839411E+02  0.29280916484E+03  0.17300000000E+03 0.  1.
<mgrwt>
<rscale>  2 0.28215234E+03</rscale>
<asrwt>0</asrwt>
<pdfrwt beam="1">  1       21 0.46077736E-01 0.28215234E+03</pdfrwt>
<pdfrwt beam="2">  1       21 0.43370331E-01 0.28215234E+03</pdfrwt>
<totfact> 0.22056927E+04</totfact>
</mgrwt>
</event>
<event>
 4    1  0.4439578E+000  0.2482643E+03  0.7546771E-02  0.1114407E+00
         21   -1    0    0  501  502  0.00000000000E+00  0.00000000000E+00  0.43993606757E+03  0.43993606757E+03  0.00000000000E+00 0. -1.
         21   -1    0    0  502  503 -0.00000000000E+00 -0.00000000000E+00 -0.30009802417E+03  0.30009802417E+03  0.00000000000E+00 0.  1.
          6    1    1    2  501    0 -0.12520972621E+03 -0.12660451615E+03  0.34009519973E+03  0.42106997510E+03  0.17300000000E+03 0. -1.
         -6    1    1    2    0  503  0.12520972621E+03  0.12660451615E+03 -0.20025715633E+03  0.31896411664E+03  0.17300000000E+03 0.  1.
<mgrwt>
<rscale>  2 0.24826433E+03</rscale>
<asrwt>0</asrwt>
<pdfrwt beam="1">  1       21 0.67682472E-01 0.24826433E+03</pdfrwt>
<pdfrwt beam="2">  1       21 0.46168927E-01 0.24826433E+03</pdfrwt>
<totfact> 0.86540168E+03</totfact>
</mgrwt>
</event>
<event>
 4    1  0.4439578E+000  0.2507990E+03  0.7546771E-02  0.1112801E+00
         21   -1    0    0  501  502  0.00000000000E+00  0.00000000000E+00  0.51971003193E+02  0.51971003193E+02  0.00000000000E+00 0.  1.
         21   -1    0    0  502  503 -0.00000000000E+00 -0.00000000000E+00 -0.12773635213E+04  0.12773635213E+04  0.00000000000E+00 0. -1.
          6    1    1    2  501    0  0.10177282165E+02 -0.18129408689E+03 -0.76500120895E+03  0.80506333460E+03  0.17300000000E+03 0. -1.
         -6    1    1    2    0  503 -0.10177282165E+02  0.18129408689E+03 -0.46039130919E+03  0.52427118993E+03  0.17300000000E+03 0.  1.
<mgrwt>
<rscale>  2 0.25079897E+03</rscale>
<asrwt>0</asrwt>
<pdfrwt beam="1">  1       21 0.79955394E-02 0.25079897E+03</pdfrwt>
<pdfrwt beam="2">  1       21 0.19651745E+00 0.25079897E+03</pdfrwt>
<totfact> 0.16307434E+04</totfact>
</mgrwt>
</event>
<event>
 4    1  0.4439578E+000  0.2207637E+03  0.7546771E-02  0.1133315E+00
         21   -1    0    0  501  502  0.00000000000E+00  0.00000000000E+00  0.46034091601E+03  0.46034091601E+03  0.00000000000E+00 0.  1.
         21   -1    0    0  502  503 -0.00000000000E+00 -0.00000000000E+00 -0.18335837109E+03  0.18335837109E+03  0.00000000000E+00 0.  1.
          6    1    1    2  501    0 -0.73889662491E+02  0.11553325210E+03  0.34771887001E+03  0.41187986977E+03  0.17300000000E+03 0.  1.
         -6    1    1    2    0  503  0.73889662491E+02 -0.11553325210E+03 -0.70736325089E+02  0.23181941733E+03  0.17300000000E+03 0.  1.
<mgrwt>
<rscale>  2 0.22076371E+03</rscale>
<asrwt>0</asrwt>
<pdfrwt beam="1">  1       21 0.70821679E-01 0.22076371E+03</pdfrwt>
<pdfrwt beam="2">  1       21 0.28208980E-01 0.22076371E+03</pdfrwt>
<totfact> 0.21336970E+04</totfact>
</mgrwt>
</event>
<event>
 4    1  0.4439578E+000  0.3083334E+03  0.7546771E-02  0.1081147E+00
         21   -1    0    0  503  502  0.00000000000E+00  0.00000000000E+00  0.18731504366E+03  0.18731504366E+03  0.00000000000E+00 0.  1.
         21   -1    0    0  501  503 -0.00000000000E+00 -0.00000000000E+00 -0.97090090981E+03  0.97090090981E+03  0.00000000000E+00 0. -1.
          6    1    1    2  501    0  0.20763052569E+03  0.14842527000E+03 -0.79185994581E+03  0.84977153974E+03  0.17300000000E+03 0. -1.
         -6    1    1    2    0  502 -0.20763052569E+03 -0.14842527000E+03  0.82740796574E+01  0.30844441374E+03  0.17300000000E+03 0.  1.
<mgrwt>
<rscale>  2 0.30833342E+03</rscale>
<asrwt>0</asrwt>
<pdfrwt beam="1">  1       21 0.28817699E-01 0.30833342E+03</pdfrwt>
<pdfrwt beam="2">  1       21 0.14936937E+00 0.30833342E+03</pdfrwt>
<totfact> 0.32068391E+03</totfact>
</mgrwt>
</event>
<event>
 4    1  0.4439578E+000  0.2033976E+03  0.7546771E-02  0.1146904E+00
         21   -1    0    0  501  502  0.00000000000E+00  0.00000000000E+00  0.42155215288E+03  0.42155215288E+03  0.00000000000E+00 0.  1.
         21   -1    0    0  502  503 -0.00000000000E+00 -0.00000000000E+00 -0.16103437547E+03  0.16103437547E+03  0.00000000000E+00 0.  1.
          6    1    1    2  501    0  0.82824011175E+01  0.10664429376E+03  0.31230497534E+03  0.37269961253E+03  0.17300000000E+03 0.  1.
         -6    1    1    2    0  503 -0.82824011175E+01 -0.10664429376E+03 -0.51787197926E+02  0.20988691581E+03  0.17300000000E+03 0.  1.
<mgrwt>
<rscale>  2 0.20339765E+03</rscale>
<asrwt>0</asrwt>
<pdfrwt beam="1">  1       21 0.64854177E-01 0.20339765E+03</pdfrwt>
<pdfrwt beam="2">  1       21 0.24774519E-01 0.20339765E+03</pdfrwt>
<totfact> 0.33556962E+04</totfact>
</mgrwt>
</event>
<event>
 4    1  0.4439578E+000  0.2122801E+03  0.7546771E-02  0.1139773E+00
         21   -1    0    0  501  502  0.00000000000E+00  0.00000000000E+00  0.31804184878E+03  0.31804184878E+03  0.00000000000E+00 0.  1.
         21   -1    0    0  502  503 -0.00000000000E+00 -0.00000000000E+00 -0.14172601103E+03  0.14172601103E+03  0.00000000000E+00 0. -1.
          6    1    1    2  501    0  0.11803939787E+03 -0.34648726385E+02  0.84411913043E+02  0.22844737852E+03  0.17300000000E+03 0.  1.
         -6    1    1    2    0  503 -0.11803939787E+03  0.34648726385E+02  0.91903924708E+02  0.23132048129E+03  0.17300000000E+03 0.  1.
<mgrwt>
<rscale>  2 0.21228008E+03</rscale>
<asrwt>0</asrwt>
<pdfrwt beam="1">  1       21 0.48929515E-01 0.21228008E+03</pdfrwt>
<pdfrwt beam="2">  1       21 0.21804002E-01 0.21228008E+03</pdfrwt>
<totfact> 0.77593589E+04</totfact>
</mgrwt>
</event>
<event>
 4    1  0.4439578E+000  0.1931015E+03  0.7546771E-02  0.1155693E+00
         21   -1    0    0  503  502  0.00000000000E+00  0.00000000000E+00  0.22234105998E+04  0.22234105998E+04  0.00000000000E+00 0.  1.
         21   -1    0    0  501  503 -0.00000000000E+00 -0.00000000000E+00 -0.17362709679E+02  0.17362709679E+02  0.00000000000E+00 0. -1.
          6    1    1    2  501    0 -0.41353529942E+01 -0.85686018933E+02  0.89614489576E+03  0.91671362441E+03  0.17300000000E+03 0. -1.
         -6    1    1    2    0  502  0.41353529942E+01  0.85686018933E+02  0.13099029944E+04  0.13240596851E+04  0.17300000000E+03 0.  1.
<mgrwt>
<rscale>  2 0.19310151E+03</rscale>
<asrwt>0</asrwt>
<pdfrwt beam="1">  1       21 0.34206294E+00 0.19310151E+03</pdfrwt>
<pdfrwt beam="2">  1       21 0.26711879E-02 0.19310151E+03</pdfrwt>
<totfact> 0.14914462E+04</totfact>
</mgrwt>
</event>
<event>
 4    1  0.4439578E+000  0.2096086E+03  0.7546771E-02  0.1141876E+00
         21   -1    0    0  501  502  0.00000000000E+00  0.00000000000E+00  0.96163249670E+02  0.96163249670E+02  0.00000000000E+00 0.  1.
         21   -1    0    0  502  503 -0.00000000000E+00 -0.00000000000E+00 -0.47314662878E+03  0.47314662878E+03  0.00000000000E+00 0.  1.
          6    1    1    2  501    0 -0.75427706366E+02  0.91199823167E+02 -0.24126022655E+03  0.31959700179E+03  0.17300000000E+03 0.  1.
         -6    1    1    2    0  503  0.75427706366E+02 -0.91199823167E+02 -0.13572315256E+03  0.24971287667E+03  0.17300000000E+03 0.  1.
<mgrwt>
<rscale>  2 0.20960856E+03</rscale>
<asrwt>0</asrwt>
<pdfrwt beam="1">  1       21 0.14794346E-01 0.20960856E+03</pdfrwt>
<pdfrwt beam="2">  1       21 0.72791789E-01 0.20960856E+03</pdfrwt>
<totfact> 0.67830653E+04</totfact>
</mgrwt>
</event>
<event>
 4    1  0.4439578E+000  0.1854295E+03  0.7546771E-02  0.1162649E+00
         21   -1    0    0  501  502  0.00000000000E+00  0.00000000000E+00  0.56764876216E+02  0.56764876216E+02  0.00000000000E+00 0. -1.
         21   -1    0    0  502  503 -0.00000000000E+00 -0.00000000000E+00 -0.61611717346E+03  0.61611717346E+03  0.00000000000E+00 0. -1.
          6    1    1    2  501    0 -0.65234135961E+02  0.14128506250E+02 -0.23598877706E+03  0.30012465757E+03  0.17300000000E+03 0. -1.
         -6    1    1    2    0  503  0.65234135961E+02 -0.14128506250E+02 -0.32336352018E+03  0.37275739210E+03  0.17300000000E+03 0. -1.
<mgrwt>
<rscale>  2 0.18542952E+03</rscale>
<asrwt>0</asrwt>
<pdfrwt beam="1">  1       21 0.87330581E-02 0.18542952E+03</pdfrwt>
<pdfrwt beam="2">  1       21 0.94787255E-01 0.18542952E+03</pdfrwt>
<totfact> 0.96175598E+04</totfact>
</mgrwt>
</event>
<event>
 4    1  0.4439578E+000  0.3440363E+03  0.7546771E-02  0.1065090E+00
         21   -1    0    0  503  502  0.00000000000E+00  0.00000000000E+00  0.21581917827E+03  0.21581917827E+03  0.00000000000E+00 0. -1.
         21   -1    0    0  501  503 -0.00000000000E+00 -0.00000000000E+00 -0.11771141368E+04  0.11771141368E+04  0.00000000000E+00 0. -1.
          6    1    1    2  501    0  0.28039102956E+03 -0.99059843323E+02 -0.98963655519E+03  0.10477315942E+04  0.17300000000E+03 0. -1.
         -6    1    1    2    0  502 -0.28039102956E+03  0.99059843323E+02  0.28341596667E+02  0.34520172091E+03  0.17300000000E+03 0. -1.
<mgrwt>
<rscale>  2 0.34403631E+03</rscale>
<asrwt>0</asrwt>
<pdfrwt beam="1">  1       21 0.33202950E-01 0.34403631E+03</pdfrwt>
<pdfrwt beam="2">  1       21 0.18109449E+00 0.34403631E+03</pdfrwt>
<totfact> 0.13888670E+03</totfact>
</mgrwt>
</event>
<event>
 4    1  0.4439578E+000  0.2543375E+03  0.7546771E-02  0.1110594E+00
         21   -1    0    0  503  502  0.00000000000E+00  0.00000000000E+00  0.46469525466E+03  0.46469525466E+03  0.00000000000E+00 0.  1.
         21   -1    0    0  501  503 -0.00000000000E+00 -0.00000000000E+00 -0.14391022495E+03  0.14391022495E+03  0.00000000000E+00 0. -1.
          6    1    1    2  501    0  0.75846527441E+02  0.17031105885E+03  0.10536434972E+03  0.27529838119E+03  0.17300000000E+03 0. -1.
         -6    1    1    2    0  502 -0.75846527441E+02 -0.17031105885E+03  0.21542067999E+03  0.33330709842E+03  0.17300000000E+03 0.  1.
<mgrwt>
<rscale>  2 0.25433748E+03</rscale>
<asrwt>0</asrwt>
<pdfrwt beam="1">  1       21 0.71491577E-01 0.25433748E+03</pdfrwt>
<pdfrwt beam="2">  1       21 0.22140035E-01 0.25433748E+03</pdfrwt>
<totfact> 0.32725001E+04</totfact>
</mgrwt>
</event>
<event>
 4    1  0.4439578E+000  0.2130947E+03  0.7546771E-02  0.1139138E+00
         21   -1    0    0  503  502  0.00000000000E+00  0.00000000000E+00  0.31597817090E+03  0.31597817090E+03  0.00000000000E+00 0.  1.
         21   -1    0    0  501  503 -0.00000000000E+00 -0.00000000000E+00 -0.19434596908E+03  0.19434596908E+03  0.00000000000E+00 0. -1.
          6    1    1    2  501    0  0.10860394739E+03  0.60708667370E+02 -0.69427398112E+02  0.22411943979E+03  0.17300000000E+03 0.  1.
         -6    1    1    2    0  502 -0.10860394739E+03 -0.60708667370E+02  0.19105959994E+03  0.28620470019E+03  0.17300000000E+03 0.  1.
<mgrwt>
<rscale>  2 0.21309472E+03</rscale>
<asrwt>0</asrwt>
<pdfrwt beam="1">  1       21 0.48612026E-01 0.21309472E+03</pdfrwt>
<pdfrwt beam="2">  1       21 0.29899380E-01 0.21309472E+03</pdfrwt>
<totfact> 0.42897173E+04</totfact>
</mgrwt>
</event>
<event>
 4    1  0.4439578E+000  0.2441612E+03  0.7546771E-02  0.1117051E+00
         21   -1    0    0  503  502  0.00000000000E+00  0.00000000000E+00  0.15609968982E+03  0.15609968982E+03  0.00000000000E+00 0. -1.
         21   -1    0    0  501  503 -0.00000000000E+00 -0.00000000000E+00 -0.64341717059E+03  0.64341717059E+03  0.00000000000E+00 0.  1.
          6    1    1    2  501    0 -0.16998922459E+03 -0.28095205066E+02 -0.49851794253E+03  0.55509892456E+03  0.17300000000E+03 0.  1.
         -6    1    1    2    0  502  0.16998922459E+03  0.28095205066E+02  0.11200461754E+02  0.24441793585E+03  0.17300000000E+03 0. -1.
<mgrwt>
<rscale>  2 0.24416117E+03</rscale>
<asrwt>0</asrwt>
<pdfrwt beam="1">  1       21 0.24015337E-01 0.24416117E+03</pdfrwt>
<pdfrwt beam="2">  1       21 0.98987257E-01 0.24416117E+03</pdfrwt>
<totfact> 0.13323112E+04</totfact>
</mgrwt>
</event>
<event>
 4    1  0.4439578E+000  0.1905890E+03  0.7546771E-02  0.1157931E+00
         21   -1    0    0  501  502  0.00000000000E+00  0.00000000000E+00  0.22538154949E+04  0.22538154949E+04  0.00000000000E+00 0.  1.
         21   -1    0    0  502  503 -0.00000000000E+00 -0.00000000000E+00 -0.10053281935E+03  0.10053281935E+03  0.00000000000E+00 0.  1.
          6    1    1    2  501    0 -0.13448381676E+02 -0.78830888704E+02  0.21553380776E+04  0.21637482286E+04  0.17300000000E+03 0.  1.
         -6    1    1    2    0  503  0.13448381676E+02  0.78830888704E+02 -0.20554020303E+01  0.19060008568E+03  0.17300000000E+03 0.  1.
<mgrwt>
<rscale>  2 0.19058900E+03</rscale>
<asrwt>0</asrwt>
<pdfrwt beam="1">  1       21 0.34674081E+00 0.19058900E+03</pdfrwt>
<pdfrwt beam="2">  1       21 0.15466589E-01 0.19058900E+03</pdfrwt>
<totfact> 0.68017411E+02</totfact>
</mgrwt>
</event>
<event>
 4    1  0.4439578E+000  0.1800851E+03  0.7546771E-02  0.1167721E+00
         21   -1    0    0  503  502  0.00000000000E+00  0.00000000000E+00  0.92812126764E+03  0.92812126764E+03  0.00000000000E+00 0.  1.
         21   -1    0    0  501  503 -0.00000000000E+00 -0.00000000000E+00 -0.34971135092E+02  0.34971135092E+02  0.00000000000E+00 0.  1.
          6    1    1    2  501    0 -0.12268287149E+02  0.48488502373E+02  0.43273567479E+03  0.46871186242E+03  0.17300000000E+03 0.  1.
         -6    1    1    2    0  502  0.12268287149E+02 -0.48488502373E+02  0.46041445776E+03  0.49438054032E+03  0.17300000000E+03 0.  1.
<mgrwt>
<rscale>  2 0.18008511E+03</rscale>
<asrwt>0</asrwt>
<pdfrwt beam="1">  1       21 0.14278787E+00 0.18008511E+03</pdfrwt>
<pdfrwt beam="2">  1       21 0.53801753E-02 0.18008511E+03</pdfrwt>
<totfact> 0.81253211E+04</totfact>
</mgrwt>
</event>
<event>
 4    1  0.4439578E+000  0.3101469E+03  0.7546771E-02  0.1080275E+00
         21   -1    0    0  503  502  0.00000000000E+00  0.00000000000E+00  0.31511341888E+03  0.31511341888E+03  0.00000000000E+00 0.  1.
         21   -1    0    0  501  503 -0.00000000000E+00 -0.00000000000E+00 -0.31071600999E+03  0.31071600999E+03  0.00000000000E+00 0.  1.
          6    1    1    2  501    0  0.23947456848E+03  0.94414266862E+02 -0.39271120473E+02  0.31262332549E+03  0.17300000000E+03 0.  1.
         -6    1    1    2    0  502 -0.23947456848E+03 -0.94414266862E+02  0.43668529366E+02  0.31320610338E+03  0.17300000000E+03 0.  1.
<mgrwt>
<rscale>  2 0.31014694E+03</rscale>
<asrwt>0</asrwt>
<pdfrwt beam="1">  1       21 0.48478988E-01 0.31014694E+03</pdfrwt>
<pdfrwt beam="2">  1       21 0.47802463E-01 0.31014694E+03</pdfrwt>
<totfact> 0.16019962E+04</totfact>
</mgrwt>
</event>
<event>
 4    1  0.4439578E+000  0.2377670E+03  0.7546771E-02  0.1121289E+00
         21   -1    0    0  501  502  0.00000000000E+00  0.00000000000E+00  0.75415216773E+03  0.75415216773E+03  0.00000000000E+00 0. -1.
         21   -1    0    0  502  503 -0.00000000000E+00 -0.00000000000E+00 -0.12139149133E+03  0.12139149133E+03  0.00000000000E+00 0.  1.
          6    1    1    2  501    0  0.13509871885E+03  0.91391950826E+02  0.45642981547E+02  0.24210831104E+03  0.17300000000E+03 0.  1.
         -6    1    1    2    0  503 -0.13509871885E+03 -0.91391950826E+02  0.58711769485E+03  0.63343534802E+03  0.17300000000E+03 0. -1.
<mgrwt>
<rscale>  2 0.23776701E+03</rscale>
<asrwt>0</asrwt>
<pdfrwt beam="1">  1       21 0.11602341E+00 0.23776701E+03</pdfrwt>
<pdfrwt beam="2">  1       21 0.18675615E-01 0.23776701E+03</pdfrwt>
<totfact> 0.14626118E+04</totfact>
</mgrwt>
</event>
<event>
 4    1  0.4439578E+000  0.2222696E+03  0.7546771E-02  0.1132202E+00
         21   -1    0    0  501  502  0.00000000000E+00  0.00000000000E+00  0.87214885246E+02  0.87214885246E+02  0.00000000000E+00 0.  1.
         21   -1    0    0  502  503 -0.00000000000E+00 -0.00000000000E+00 -0.57770826262E+03  0.57770826262E+03  0.00000000000E+00 0. -1.
          6    1    1    2  501    0  0.68505648644E+02 -0.12158031652E+03 -0.29163601634E+03  0.36668155570E+03  0.17300000000E+03 0.  1.
         -6    1    1    2    0  503 -0.68505648644E+02  0.12158031652E+03 -0.19885736104E+03  0.29824159217E+03  0.17300000000E+03 0.  1.
<mgrwt>
<rscale>  2 0.22226965E+03</rscale>
<asrwt>0</asrwt>
<pdfrwt beam="1">  1       21 0.13417675E-01 0.22226965E+03</pdfrwt>
<pdfrwt beam="2">  1       21 0.88878193E-01 0.22226965E+03</pdfrwt>
<totfact> 0.51185040E+04</totfact>
</mgrwt>
</event>
<event>
 4    1  0.4439578E+000  0.1779885E+03  0.7546771E-02  0.1169764E+00
         21   -1    0    0  503  502  0.00000000000E+00  0.00000000000E+00  0.40105222324E+03  0.40105222324E+03  0.00000000000E+00 0.  1.
         21   -1    0    0  501  503 -0.00000000000E+00 -0.00000000000E+00 -0.83447615866E+02  0.83447615866E+02  0.00000000000E+00 0. -1.
          6    1    1    2  501    0 -0.32833527209E+02 -0.25939620323E+02  0.10282498370E+03  0.20555505755E+03  0.17300000000E+03 0. -1.
         -6    1    1    2    0  502  0.32833527209E+02  0.25939620323E+02  0.21477962368E+03  0.27894478156E+03  0.17300000000E+03 0.  1.
<mgrwt>
<rscale>  2 0.17798850E+03</rscale>
<asrwt>0</asrwt>
<pdfrwt beam="1">  1       21 0.61700341E-01 0.17798850E+03</pdfrwt>
<pdfrwt beam="2">  1       21 0.12838095E-01 0.17798850E+03</pdfrwt>
<totfact> 0.12751217E+05</totfact>
</mgrwt>
</event>
<event>
 4    1  0.4439578E+000  0.1862726E+03  0.7546771E-02  0.1161867E+00
         21   -1    0    0  501  502  0.00000000000E+00  0.00000000000E+00  0.59488127091E+03  0.59488127091E+03  0.00000000000E+00 0.  1.
         21   -1    0    0  502  503 -0.00000000000E+00 -0.00000000000E+00 -0.81200388027E+02  0.81200388027E+02  0.00000000000E+00 0.  1.
          6    1    1    2  501    0  0.10007936174E+02  0.68325041333E+02  0.43625515882E+03  0.47435854968E+03  0.17300000000E+03 0.  1.
         -6    1    1    2    0  503 -0.10007936174E+02 -0.68325041333E+02  0.77425724060E+02  0.20172310925E+03  0.17300000000E+03 0.  1.
<mgrwt>
<rscale>  2 0.18627257E+03</rscale>
<asrwt>0</asrwt>
<pdfrwt beam="1">  1       21 0.91520193E-01 0.18627257E+03</pdfrwt>
<pdfrwt beam="2">  1       21 0.12492368E-01 0.18627257E+03</pdfrwt>
<totfact> 0.55347755E+04</totfact>
</mgrwt>
</event>
<event>
 4    1  0.4439578E+000  0.2402846E+03  0.7546771E-02  0.1119603E+00
         21   -1    0    0  501  502  0.00000000000E+00  0.00000000000E+00  0.48062560552E+03  0.48062560552E+03  0.00000000000E+00 0.  1.
         21   -1    0    0  502  503 -0.00000000000E+00 -0.00000000000E+00 -0.12563105046E+03  0.12563105046E+03  0.00000000000E+00 0. -1.
          6    1    1    2  501    0 -0.34387399100E+02 -0.16317221631E+03  0.24093883133E+03  0.34027663133E+03  0.17300000000E+03 0.  1.
         -6    1    1    2    0  503  0.34387399100E+02  0.16317221631E+03  0.11405572374E+03  0.26598002464E+03  0.17300000000E+03 0. -1.
<mgrwt>
<rscale>  2 0.24028455E+03</rscale>
<asrwt>0</asrwt>
<pdfrwt beam="1">  1       21 0.73942400E-01 0.24028455E+03</pdfrwt>
<pdfrwt beam="2">  1       21 0.19327854E-01 0.24028455E+03</pdfrwt>
<totfact> 0.39447609E+04</totfact>
</mgrwt>
</event>
<event>
 4    1  0.4439578E+000  0.1910647E+03  0.7546771E-02  0.1157505E+00
         21   -1    0    0  501  502  0.00000000000E+00  0.00000000000E+00  0.14474681631E+03  0.14474681631E+03  0.00000000000E+00 0. -1.
         21   -1    0    0  502  503 -0.00000000000E+00 -0.00000000000E+00 -0.27323526464E+03  0.27323526464E+03  0.00000000000E+00 0.  1.
          6    1    1    2  501    0  0.65123859120E+02  0.48327989149E+02 -0.12222620146E+03  0.22681480526E+03  0.17300000000E+03 0.  1.
         -6    1    1    2    0  503 -0.65123859120E+02 -0.48327989149E+02 -0.62622468730E+01  0.19116727570E+03  0.17300000000E+03 0. -1.
<mgrwt>
<rscale>  2 0.19106468E+03</rscale>
<asrwt>0</asrwt>
<pdfrwt beam="1">  1       21 0.22268741E-01 0.19106468E+03</pdfrwt>
<pdfrwt beam="2">  1       21 0.42036194E-01 0.19106468E+03</pdfrwt>
<totfact> 0.10282267E+05</totfact>
</mgrwt>
</event>
<event>
 4    1  0.4439578E+000  0.1946972E+03  0.7546771E-02  0.1154292E+00
         21   -1    0    0  501  502  0.00000000000E+00  0.00000000000E+00  0.64174289309E+02  0.64174289309E+02  0.00000000000E+00 0.  1.
         21   -1    0    0  502  503 -0.00000000000E+00 -0.00000000000E+00 -0.59414840392E+03  0.59414840392E+03  0.00000000000E+00 0.  1.
          6    1    1    2  501    0  0.80759330572E+02  0.38156423398E+02 -0.29010738105E+03  0.34938413625E+03  0.17300000000E+03 0.  1.
         -6    1    1    2    0  503 -0.80759330572E+02 -0.38156423398E+02 -0.23986673356E+03  0.30893855698E+03  0.17300000000E+03 0.  1.
<mgrwt>
<rscale>  2 0.19469715E+03</rscale>
<asrwt>0</asrwt>
<pdfrwt beam="1">  1       21 0.98729675E-02 0.19469715E+03</pdfrwt>
<pdfrwt beam="2">  1       21 0.91407448E-01 0.19469715E+03</pdfrwt>
<totfact> 0.84042321E+04</totfact>
</mgrwt>
</event>
<event>
 4    1  0.4439578E+000  0.1935137E+03  0.7546771E-02  0.1155330E+00
         21   -1    0    0  501  502  0.00000000000E+00  0.00000000000E+00  0.55361979489E+03  0.55361979489E+03  0.00000000000E+00 0. -1.
         21   -1    0    0  502  503 -0.00000000000E+00 -0.00000000000E+00 -0.16538259105E+03  0.16538259105E+03  0.00000000000E+00 0. -1.
          6    1    1    2  501    0 -0.44287054150E+02  0.74546700235E+02 -0.82253697303E+02  0.21026940910E+03  0.17300000000E+03 0. -1.
         -6    1    1    2    0  503  0.44287054150E+02 -0.74546700235E+02  0.47049090114E+03  0.50873297685E+03  0.17300000000E+03 0. -1.
<mgrwt>
<rscale>  2 0.19351370E+03</rscale>
<asrwt>0</asrwt>
<pdfrwt beam="1">  1       21 0.85172275E-01 0.19351370E+03</pdfrwt>
<pdfrwt beam="2">  1       21 0.25443476E-01 0.19351370E+03</pdfrwt>
<totfact> 0.17460524E+04</totfact>
</mgrwt>
</event>
<event>
 4    1  0.4439578E+000  0.1742426E+03  0.7546771E-02  0.1173494E+00
         21   -1    0    0  503  502  0.00000000000E+00  0.00000000000E+00  0.28015054529E+03  0.28015054529E+03  0.00000000000E+00 0.  1.
         21   -1    0    0  501  503 -0.00000000000E+00 -0.00000000000E+00 -0.11175968823E+03  0.11175968823E+03  0.00000000000E+00 0.  1.
          6    1    1    2  501    0  0.85476655098E+01 -0.18932139058E+02  0.50079073290E+02  0.18129644800E+03  0.17300000000E+03 0.  1.
         -6    1    1    2    0  502 -0.85476655098E+01  0.18932139058E+02  0.11831178376E+03  0.21061378552E+03  0.17300000000E+03 0.  1.
<mgrwt>
<rscale>  2 0.17424261E+03</rscale>
<asrwt>0</asrwt>
<pdfrwt beam="1">  1       21 0.43100084E-01 0.17424261E+03</pdfrwt>
<pdfrwt beam="2">  1       21 0.17193798E-01 0.17424261E+03</pdfrwt>
<totfact> 0.15907909E+05</totfact>
</mgrwt>
</event>
<event>
 4    1  0.4439578E+000  0.1919203E+03  0.7546771E-02  0.1156741E+00
         21   -1    0    0  503  502  0.00000000000E+00  0.00000000000E+00  0.15552281438E+03  0.15552281438E+03  0.00000000000E+00 0.  1.
         21   -1    0    0  501  503 -0.00000000000E+00 -0.00000000000E+00 -0.24159233289E+03  0.24159233289E+03  0.00000000000E+00 0.  1.
          6    1    1    2  501    0 -0.41602741929E+02  0.71927917585E+02 -0.70894522664E+02  0.20459581327E+03  0.17300000000E+03 0.  1.
         -6    1    1    2    0  502  0.41602741929E+02 -0.71927917585E+02 -0.15174995838E+02  0.19251933400E+03  0.17300000000E+03 0.  1.
<mgrwt>
<rscale>  2 0.19192033E+03</rscale>
<asrwt>0</asrwt>
<pdfrwt beam="1">  1       21 0.23926587E-01 0.19192033E+03</pdfrwt>
<pdfrwt beam="2">  1       21 0.37168051E-01 0.19192033E+03</pdfrwt>
<totfact> 0.11500040E+05</totfact>
</mgrwt>
</event>
<event>
 4    1  0.4439578E+000  0.2358980E+03  0.7546771E-02  0.1122556E+00
         21   -1    0    0  503  502  0.00000000000E+00  0.00000000000E+00  0.21304390362E+03  0.21304390362E+03  0.00000000000E+00 0.  1.
         21   -1    0    0  501  503 -0.00000000000E+00 -0.00000000000E+00 -0.45315437516E+03  0.45315437516E+03  0.00000000000E+00 0.  1.
          6    1    1    2  501    0  0.15591887183E+02  0.15961131283E+03 -0.33684817118E+03  0.41123541744E+03  0.17300000000E+03 0.  1.
         -6    1    1    2    0  502 -0.15591887183E+02 -0.15961131283E+03  0.96737699634E+02  0.25496286134E+03  0.17300000000E+03 0.  1.
<mgrwt>
<rscale>  2 0.23589802E+03</rscale>
<asrwt>0</asrwt>
<pdfrwt beam="1">  1       21 0.32775986E-01 0.23589802E+03</pdfrwt>
<pdfrwt beam="2">  1       21 0.69716057E-01 0.23589802E+03</pdfrwt>
<totfact> 0.16329799E+04</totfact>
</mgrwt>
</event>
<event>
 4    1  0.4439578E+000  0.2584406E+03  0.7546771E-02  0.1108084E+00
         21   -1    0    0  501  502  0.00000000000E+00  0.00000000000E+00  0.12006769941E+04  0.12006769941E+04  0.00000000000E+00 0. -1.
         21   -1    0    0  502  503 -0.00000000000E+00 -0.00000000000E+00 -0.13148054350E+03  0.13148054350E+03  0.00000000000E+00 0.  1.
          6    1    1    2  501    0 -0.17059188529E+03  0.88096373492E+02  0.10405151382E+04  0.10721302697E+04  0.17300000000E+03 0. -1.
         -6    1    1    2    0  503  0.17059188529E+03 -0.88096373492E+02  0.28681312327E+02  0.26002726785E+03  0.17300000000E+03 0.  1.
<mgrwt>
<rscale>  2 0.25844064E+03</rscale>
<asrwt>0</asrwt>
<pdfrwt beam="1">  1       21 0.18471953E+00 0.25844064E+03</pdfrwt>
<pdfrwt beam="2">  1       21 0.20227777E-01 0.25844064E+03</pdfrwt>
<totfact> 0.36199996E+03</totfact>
</mgrwt>
</event>
<event>
 4    1  0.4439578E+000  0.1847224E+03  0.7546771E-02  0.1163309E+00
         21   -1    0    0  503  502  0.00000000000E+00  0.00000000000E+00  0.10413823898E+03  0.10413823898E+03  0.00000000000E+00 0. -1.
         21   -1    0    0  501  503 -0.00000000000E+00 -0.00000000000E+00 -0.50223437777E+03  0.50223437777E+03  0.00000000000E+00 0. -1.
          6    1    1    2  501    0  0.46273555233E+02  0.45300521900E+02 -0.37779612114E+03  0.42053809381E+03  0.17300000000E+03 0. -1.
         -6    1    1    2    0  502 -0.46273555233E+02 -0.45300521900E+02 -0.20300017639E+02  0.18583452293E+03  0.17300000000E+03 0. -1.
<mgrwt>
<rscale>  2 0.18472244E+03</rscale>
<asrwt>0</asrwt>
<pdfrwt beam="1">  1       21 0.16021267E-01 0.18472244E+03</pdfrwt>
<pdfrwt beam="2">  1       21 0.77266828E-01 0.18472244E+03</pdfrwt>
<totfact> 0.51931371E+04</totfact>
</mgrwt>
</event>
<event>
 4    1  0.4439578E+000  0.2161372E+03  0.7546771E-02  0.1136796E+00
         21   -1    0    0  503  502  0.00000000000E+00  0.00000000000E+00  0.17494362333E+04  0.17494362333E+04  0.00000000000E+00 0. -1.
         21   -1    0    0  501  503 -0.00000000000E+00 -0.00000000000E+00 -0.28260556796E+02  0.28260556796E+02  0.00000000000E+00 0. -1.
          6    1    1    2  501    0 -0.11062268889E+03 -0.67445491591E+02  0.65192117381E+03  0.68681619848E+03  0.17300000000E+03 0. -1.
         -6    1    1    2    0  502  0.11062268889E+03  0.67445491591E+02  0.10692545027E+04  0.10908805917E+04  0.17300000000E+03 0. -1.
<mgrwt>
<rscale>  2 0.21613716E+03</rscale>
<asrwt>0</asrwt>
<pdfrwt beam="1">  1       21 0.26914395E+00 0.21613716E+03</pdfrwt>
<pdfrwt beam="2">  1       21 0.43477794E-02 0.21613716E+03</pdfrwt>
<totfact> 0.17148071E+04</totfact>
</mgrwt>
</event>
<event>
 4    1  0.4439578E+000  0.3365109E+03  0.7546771E-02  0.1068292E+00
         21   -1    0    0  501  502  0.00000000000E+00  0.00000000000E+00  0.16851136428E+04  0.16851136428E+04  0.00000000000E+00 0.  1.
         21   -1    0    0  502  503 -0.00000000000E+00 -0.00000000000E+00 -0.68222689637E+02  0.68222689637E+02  0.00000000000E+00 0.  1.
          6    1    1    2  501    0 -0.40517907544E+02  0.28577774223E+03  0.91578137977E+03  0.97565114376E+03  0.17300000000E+03 0.  1.
         -6    1    1    2    0  503  0.40517907544E+02 -0.28577774223E+03  0.70110957343E+03  0.77768518871E+03  0.17300000000E+03 0.  1.
<mgrwt>
<rscale>  2 0.33651095E+03</rscale>
<asrwt>0</asrwt>
<pdfrwt beam="1">  1       21 0.25924822E+00 0.33651095E+03</pdfrwt>
<pdfrwt beam="2">  1       21 0.10495800E-01 0.33651095E+03</pdfrwt>
<totfact> 0.38893512E+03</totfact>
</mgrwt>
</event>
<event>
 4    1  0.4439578E+000  0.2023397E+03  0.7546771E-02  0.1147780E+00
         21   -1    0    0  501  502  0.00000000000E+00  0.00000000000E+00  0.16528084127E+03  0.16528084127E+03  0.00000000000E+00 0.  1.
         21   -1    0    0  502  503 -0.00000000000E+00 -0.00000000000E+00 -0.25858154432E+03  0.25858154432E+03  0.00000000000E+00 0. -1.
          6    1    1    2  501    0 -0.11140754305E+02  0.10434668853E+03 -0.31906865113E+01  0.20236483957E+03  0.17300000000E+03 0.  1.
         -6    1    1    2    0  503  0.11140754305E+02 -0.10434668853E+03 -0.90110016534E+02  0.22149754602E+03  0.17300000000E+03 0. -1.
<mgrwt>
<rscale>  2 0.20233968E+03</rscale>
<asrwt>0</asrwt>
<pdfrwt beam="1">  1       21 0.25427822E-01 0.20233968E+03</pdfrwt>
<pdfrwt beam="2">  1       21 0.39781776E-01 0.20233968E+03</pdfrwt>
<totfact> 0.88947207E+04</totfact>
</mgrwt>
</event>
<event>
 4    1  0.4439578E+000  0.2189826E+03  0.7546771E-02  0.1134644E+00
         21   -1    0    0  503  502  0.00000000000E+00  0.00000000000E+00  0.24047498086E+03  0.24047498086E+03  0.00000000000E+00 0.  1.
         21   -1    0    0  501  503 -0.00000000000E+00 -0.00000000000E+00 -0.26272259574E+03  0.26272259574E+03  0.00000000000E+00 0.  1.
          6    1    1    2  501    0  0.12167453940E+03  0.56742154239E+02 -0.13463358250E+03  0.25705946227E+03  0.17300000000E+03 0.  1.
         -6    1    1    2    0  502 -0.12167453940E+03 -0.56742154239E+02  0.11238596762E+03  0.24613811432E+03  0.17300000000E+03 0.  1.
<mgrwt>
<rscale>  2 0.21898257E+03</rscale>
<asrwt>0</asrwt>
<pdfrwt beam="1">  1       21 0.36996151E-01 0.21898257E+03</pdfrwt>
<pdfrwt beam="2">  1       21 0.40418861E-01 0.21898257E+03</pdfrwt>
<totfact> 0.41018326E+04</totfact>
</mgrwt>
</event>
<event>
 4    1  0.4439578E+000  0.1758113E+03  0.7546771E-02  0.1171920E+00
         21   -1    0    0  501  502  0.00000000000E+00  0.00000000000E+00  0.31621799495E+03  0.31621799495E+03  0.00000000000E+00 0.  1.
         21   -1    0    0  502  503 -0.00000000000E+00 -0.00000000000E+00 -0.14713859448E+03  0.14713859448E+03  0.00000000000E+00 0.  1.
          6    1    1    2  501    0  0.19084753811E+02  0.24826950097E+02  0.21876833228E+03  0.28065849085E+03  0.17300000000E+03 0. -1.
         -6    1    1    2    0  503 -0.19084753811E+02 -0.24826950097E+02 -0.49688931814E+02  0.18269809858E+03  0.17300000000E+03 0. -1.
<mgrwt>
<rscale>  2 0.17581128E+03</rscale>
<asrwt>0</asrwt>
<pdfrwt beam="1">  1       21 0.48648922E-01 0.17581128E+03</pdfrwt>
<pdfrwt beam="2">  1       21 0.22636707E-01 0.17581128E+03</pdfrwt>
<totfact> 0.74310959E+04</totfact>
</mgrwt>
</event>
<event>
 4    1  0.4439578E+000  0.2476977E+03  0.7546771E-02  0.1114768E+00
         21   -1    0    0  501  502  0.00000000000E+00  0.00000000000E+00  0.66212112173E+03  0.66212112173E+03  0.00000000000E+00 0. -1.
         21   -1    0    0  502  503 -0.00000000000E+00 -0.00000000000E+00 -0.10605505432E+03  0.10605505432E+03  0.00000000000E+00 0.  1.
          6    1    1    2  501    0  0.32677332680E+02 -0.17423364418E+03  0.14154714817E+03  0.28528891670E+03  0.17300000000E+03 0.  1.
         -6    1    1    2    0  503 -0.32677332680E+02  0.17423364418E+03  0.41451891924E+03  0.48288725935E+03  0.17300000000E+03 0. -1.
<mgrwt>
<rscale>  2 0.24769774E+03</rscale>
<asrwt>0</asrwt>
<pdfrwt beam="1">  1       21 0.10186479E+00 0.24769774E+03</pdfrwt>
<pdfrwt beam="2">  1       21 0.16316163E-01 0.24769774E+03</pdfrwt>
<totfact> 0.25652121E+04</totfact>
</mgrwt>
</event>
<event>
 4    1  0.4439578E+000  0.2520280E+03  0.7546771E-02  0.1112030E+00
         21   -1    0    0  503  502  0.00000000000E+00  0.00000000000E+00  0.38866542796E+02  0.38866542796E+02  0.00000000000E+00 0. -1.
         21   -1    0    0  501  503 -0.00000000000E+00 -0.00000000000E+00 -0.27034592343E+04  0.27034592343E+04  0.00000000000E+00 0. -1.
          6    1    1    2  501    0 -0.10195535216E+03  0.15229653615E+03 -0.21945955269E+04  0.22090196141E+04  0.17300000000E+03 0. -1.
         -6    1    1    2    0  502  0.10195535216E+03 -0.15229653615E+03 -0.46999716457E+03  0.53330616297E+03  0.17300000000E+03 0. -1.
<mgrwt>
<rscale>  2 0.25202803E+03</rscale>
<asrwt>0</asrwt>
<pdfrwt beam="1">  1       21 0.59794679E-02 0.25202803E+03</pdfrwt>
<pdfrwt beam="2">  1       21 0.41591682E+00 0.25202803E+03</pdfrwt>
<totfact> 0.12680002E+03</totfact>
</mgrwt>
</event>
<event>
 4    1  0.4439578E+000  0.3374324E+03  0.7546771E-02  0.1067895E+00
         21   -1    0    0  503  502  0.00000000000E+00  0.00000000000E+00  0.44971841355E+03  0.44971841355E+03  0.00000000000E+00 0. -1.
         21   -1    0    0  501  503 -0.00000000000E+00 -0.00000000000E+00 -0.30372697644E+03  0.30372697644E+03  0.00000000000E+00 0.  1.
          6    1    1    2  501    0 -0.26286764030E+03  0.12178751158E+03 -0.80684944306E+02  0.34694474277E+03  0.17300000000E+03 0.  1.
         -6    1    1    2    0  502  0.26286764030E+03 -0.12178751158E+03  0.22667638142E+03  0.40650064722E+03  0.17300000000E+03 0. -1.
<mgrwt>
<rscale>  2 0.33743236E+03</rscale>
<asrwt>0</asrwt>
<pdfrwt beam="1">  1       21 0.69187449E-01 0.33743236E+03</pdfrwt>
<pdfrwt beam="2">  1       21 0.46727227E-01 0.33743236E+03</pdfrwt>
<totfact> 0.76975251E+03</totfact>
</mgrwt>
</event>
<event>
 4    1  0.4439578E+000  0.1794366E+03  0.7546771E-02  0.1168349E+00
         21   -1    0    0  501  502  0.00000000000E+00  0.00000000000E+00  0.12230799892E+03  0.12230799892E+03  0.00000000000E+00 0. -1.
         21   -1    0    0  502  503 -0.00000000000E+00 -0.00000000000E+00 -0.26539622609E+03  0.26539622609E+03  0.00000000000E+00 0. -1.
          6    1    1    2  501    0 -0.17931523868E+02 -0.44124183356E+02 -0.88979903743E+02  0.20028705993E+03  0.17300000000E+03 0. -1.
         -6    1    1    2    0  503  0.17931523868E+02  0.44124183356E+02 -0.54108323426E+02  0.18741716509E+03  0.17300000000E+03 0. -1.
<mgrwt>
<rscale>  2 0.17943657E+03</rscale>
<asrwt>0</asrwt>
<pdfrwt beam="1">  1       21 0.18816615E-01 0.17943657E+03</pdfrwt>
<pdfrwt beam="2">  1       21 0.40830189E-01 0.17943657E+03</pdfrwt>
<totfact> 0.15006596E+05</totfact>
</mgrwt>
</event>
<event>
 4    1  0.4439578E+000  0.2465298E+03  0.7546771E-02  0.1115518E+00
         21   -1    0    0  503  502  0.00000000000E+00  0.00000000000E+00  0.24514358579E+04  0.24514358579E+04  0.00000000000E+00 0.  1.
         21   -1    0    0  501  503 -0.00000000000E+00 -0.00000000000E+00 -0.26795601197E+02  0.26795601197E+02  0.00000000000E+00 0. -1.
          6    1    1    2  501    0  0.11343325480E+03  0.13409259942E+03  0.87351918793E+03  0.90764128388E+03  0.17300000000E+03 0. -1.
         -6    1    1    2    0  502 -0.11343325480E+03 -0.13409259942E+03  0.15511210688E+04  0.15705901753E+04  0.17300000000E+03 0. -1.
<mgrwt>
<rscale>  2 0.24652977E+03</rscale>
<asrwt>0</asrwt>
<pdfrwt beam="1">  1       21 0.37714380E+00 0.24652977E+03</pdfrwt>
<pdfrwt beam="2">  1       21 0.41224021E-02 0.24652977E+03</pdfrwt>
<totfact> 0.42055419E+03</totfact>
</mgrwt>
</event>
<event>
 4    1  0.4439578E+000  0.2029736E+03  0.7546771E-02  0.1147254E+00
         21   -1    0    0  501  502  0.00000000000E+00  0.00000000000E+00  0.10310732271E+03  0.10310732271E+03  0.00000000000E+00 0. -1.
         21   -1    0    0  502  503 -0.00000000000E+00 -0.00000000000E+00 -0.68496684988E+03  0.68496684988E+03  0.00000000000E+00 0. -1.
          6    1    1    2  501    0  0.54244928037E+01  0.10601810211E+03 -0.36581168109E+02  0.20624365434E+03  0.17300000000E+03 0. -1.
         -6    1    1    2    0  503 -0.54244928037E+01 -0.10601810211E+03 -0.54527835906E+03  0.58183051824E+03  0.17300000000E+03 0. -1.
<mgrwt>
<rscale>  2 0.20297355E+03</rscale>
<asrwt>0</asrwt>
<pdfrwt beam="1">  1       21 0.15862665E-01 0.20297355E+03</pdfrwt>
<pdfrwt beam="2">  1       21 0.10537951E+00 0.20297355E+03</pdfrwt>
<totfact> 0.25499228E+04</totfact>
</mgrwt>
</event>
<event>
 4    1  0.4439578E+000  0.1803213E+03  0.7546771E-02  0.1167492E+00
         21   -1    0    0  501  502  0.00000000000E+00  0.00000000000E+00  0.42009856231E+02  0.42009856231E+02  0.00000000000E+00 0.  1.
         21   -1    0    0  502  503 -0.00000000000E+00 -0.00000000000E+00 -0.88098075046E+03  0.88098075046E+03  0.00000000000E+00 0.  1.
          6    1    1    2  501    0  0.28273748364E+02  0.42277069036E+02 -0.25866888462E+03  0.31531785120E+03  0.17300000000E+03 0.  1.
         -6    1    1    2    0  503 -0.28273748364E+02 -0.42277069036E+02 -0.58030200961E+03  0.60767275549E+03  0.17300000000E+03 0.  1.
<mgrwt>
<rscale>  2 0.18032126E+03</rscale>
<asrwt>0</asrwt>
<pdfrwt beam="1">  1       21 0.64630547E-02 0.18032126E+03</pdfrwt>
<pdfrwt beam="2">  1       21 0.13553550E+00 0.18032126E+03</pdfrwt>
<totfact> 0.67918873E+04</totfact>
</mgrwt>
</event>
<event>
 4    1  0.4439578E+000  0.1827618E+03  0.7546771E-02  0.1165157E+00
         21   -1    0    0  501  502  0.00000000000E+00  0.00000000000E+00  0.11673750114E+03  0.11673750114E+03  0.00000000000E+00 0.  1.
         21   -1    0    0  502  503 -0.00000000000E+00 -0.00000000000E+00 -0.34493017853E+03  0.34493017853E+03  0.00000000000E+00 0.  1.
          6    1    1    2  501    0  0.38233476350E+02 -0.44845097637E+02 -0.20940451332E+03  0.27794267700E+03  0.17300000000E+03 0.  1.
         -6    1    1    2    0  503 -0.38233476350E+02  0.44845097637E+02 -0.18788164069E+02  0.18372500267E+03  0.17300000000E+03 0.  1.
<mgrwt>
<rscale>  2 0.18276182E+03</rscale>
<asrwt>0</asrwt>
<pdfrwt beam="1">  1       21 0.17959616E-01 0.18276182E+03</pdfrwt>
<pdfrwt beam="2">  1       21 0.53066181E-01 0.18276182E+03</pdfrwt>
<totfact> 0.95197082E+04</totfact>
</mgrwt>
</event>
<event>
 4    1  0.4439578E+000  0.2708839E+03  0.7546771E-02  0.1100775E+00
         21   -1    0    0  501  502  0.00000000000E+00  0.00000000000E+00  0.13918702523E+03  0.13918702523E+03  0.00000000000E+00 0.  1.
         21   -1    0    0  502  503 -0.00000000000E+00 -0.00000000000E+00 -0.62873974376E+03  0.62873974376E+03  0.00000000000E+00 0.  1.
          6    1    1    2  501    0 -0.20824715422E+03  0.90669351765E+01 -0.90466895928E+02  0.28559122152E+03  0.17300000000E+03 0.  1.
         -6    1    1    2    0  503  0.20824715422E+03 -0.90669351765E+01 -0.39908582260E+03  0.48233554747E+03  0.17300000000E+03 0.  1.
<mgrwt>
<rscale>  2 0.27088390E+03</rscale>
<asrwt>0</asrwt>
<pdfrwt beam="1">  1       21 0.21413388E-01 0.27088390E+03</pdfrwt>
<pdfrwt beam="2">  1       21 0.96729194E-01 0.27088390E+03</pdfrwt>
<totfact> 0.17271857E+04</totfact>
</mgrwt>
</event>
<event>
 4    1  0.4439578E+000  0.2481027E+03  0.7546771E-02  0.1114510E+00
         21   -1    0    0  501  502  0.00000000000E+00  0.00000000000E+00  0.16753448643E+03  0.16753448643E+03  0.00000000000E+00 0. -1.
         21   -1    0    0  502  503 -0.00000000000E+00 -0.00000000000E+00 -0.41946930544E+03  0.41946930544E+03  0.00000000000E+00 0.  1.
          6    1    1    2  501    0 -0.17605500997E+03  0.25111374069E+02 -0.22576450371E+02  0.24912776592E+03  0.17300000000E+03 0.  1.
         -6    1    1    2    0  503  0.17605500997E+03 -0.25111374069E+02 -0.22935836863E+03  0.33787602594E+03  0.17300000000E+03 0.  1.
<mgrwt>
<rscale>  2 0.24810270E+03</rscale>
<asrwt>0</asrwt>
<pdfrwt beam="1">  1       21 0.25774537E-01 0.24810270E+03</pdfrwt>
<pdfrwt beam="2">  1       21 0.64533739E-01 0.24810270E+03</pdfrwt>
<totfact> 0.30763074E+04</totfact>
</mgrwt>
</event>
<event>
 4    1  0.4439578E+000  0.2396208E+03  0.7546771E-02  0.1120046E+00
         21   -1    0    0  503  502  0.00000000000E+00  0.00000000000E+00  0.96428717675E+02  0.96428717675E+02  0.00000000000E+00 0.  1.
         21   -1    0    0  501  503 -0.00000000000E+00 -0.00000000000E+00 -0.83835688184E+03  0.83835688184E+03  0.00000000000E+00 0.  1.
          6    1    1    2  501    0 -0.15042445812E+03 -0.69725218526E+02 -0.62255256884E+03  0.66707557643E+03  0.17300000000E+03 0.  1.
         -6    1    1    2    0  502  0.15042445812E+03  0.69725218526E+02 -0.11937559533E+03  0.26771002308E+03  0.17300000000E+03 0.  1.
<mgrwt>
<rscale>  2 0.23962079E+03</rscale>
<asrwt>0</asrwt>
<pdfrwt beam="1">  1       21 0.14835187E-01 0.23962079E+03</pdfrwt>
<pdfrwt beam="2">  1       21 0.12897798E+00 0.23962079E+03</pdfrwt>
<totfact> 0.17143540E+04</totfact>
</mgrwt>
</event>
<event>
 4    1  0.4439578E+000  0.1953414E+03  0.7546771E-02  0.1153730E+00
         21   -1    0    0  503  502  0.00000000000E+00  0.00000000000E+00  0.62425645999E+03  0.62425645999E+03  0.00000000000E+00 0. -1.
         21   -1    0    0  501  503 -0.00000000000E+00 -0.00000000000E+00 -0.62468248780E+02  0.62468248780E+02  0.00000000000E+00 0. -1.
          6    1    1    2  501    0  0.12936311558E+02 -0.89788056931E+02  0.23056093302E+03  0.30218634509E+03  0.17300000000E+03 0. -1.
         -6    1    1    2    0  502 -0.12936311558E+02  0.89788056931E+02  0.33122727818E+03  0.38453836367E+03  0.17300000000E+03 0. -1.
<mgrwt>
<rscale>  2 0.19534135E+03</rscale>
<asrwt>0</asrwt>
<pdfrwt beam="1">  1       21 0.96039451E-01 0.19534135E+03</pdfrwt>
<pdfrwt beam="2">  1       21 0.96105002E-02 0.19534135E+03</pdfrwt>
<totfact> 0.78501898E+04</totfact>
</mgrwt>
</event>
<event>
 4    1  0.4439578E+000  0.1810122E+03  0.7546771E-02  0.1166827E+00
         21   -1    0    0  503  502  0.00000000000E+00  0.00000000000E+00  0.10166933888E+04  0.10166933888E+04  0.00000000000E+00 0.  1.
         21   -1    0    0  501  503 -0.00000000000E+00 -0.00000000000E+00 -0.18857666458E+03  0.18857666458E+03  0.00000000000E+00 0.  1.
          6    1    1    2  501    0  0.51570223208E+02  0.13301451554E+02 -0.13467109282E+03  0.22561409481E+03  0.17300000000E+03 0.  1.
         -6    1    1    2    0  502 -0.51570223208E+02 -0.13301451554E+02  0.96278781709E+03  0.97965595862E+03  0.17300000000E+03 0.  1.
<mgrwt>
<rscale>  2 0.18101220E+03</rscale>
<asrwt>0</asrwt>
<pdfrwt beam="1">  1       21 0.15641436E+00 0.18101220E+03</pdfrwt>
<pdfrwt beam="2">  1       21 0.29011795E-01 0.18101220E+03</pdfrwt>
<totfact> 0.30756930E+03</totfact>
</mgrwt>
</event>
<event>
 4    1  0.4439578E+000  0.2019146E+03  0.7546771E-02  0.1148134E+00
         21   -1    0    0  503  502  0.00000000000E+00  0.00000000000E+00  0.40233663211E+02  0.40233663211E+02  0.00000000000E+00 0.  1.
         21   -1    0    0  501  503 -0.00000000000E+00 -0.00000000000E+00 -0.11468774367E+04  0.11468774367E+04  0.00000000000E+00 0.  1.
          6    1    1    2  501    0 -0.26158158991E+02 -0.10077833858E+03 -0.75587505322E+03  0.78237882058E+03  0.17300000000E+03 0.  1.
         -6    1    1    2    0  502  0.26158158991E+02  0.10077833858E+03 -0.35076872023E+03  0.40473227929E+03  0.17300000000E+03 0.  1.
<mgrwt>
<rscale>  2 0.20191464E+03</rscale>
<asrwt>0</asrwt>
<pdfrwt beam="1">  1       21 0.61897947E-02 0.20191464E+03</pdfrwt>
<pdfrwt beam="2">  1       21 0.17644267E+00 0.20191464E+03</pdfrwt>
<totfact> 0.35761224E+04</totfact>
</mgrwt>
</event>
<event>
 4    1  0.4439578E+000  0.1751906E+03  0.7546771E-02  0.1172540E+00
         21   -1    0    0  503  502  0.00000000000E+00  0.00000000000E+00  0.32600543281E+03  0.32600543281E+03  0.00000000000E+00 0. -1.
         21   -1    0    0  501  503 -0.00000000000E+00 -0.00000000000E+00 -0.95874732340E+02  0.95874732340E+02  0.00000000000E+00 0. -1.
          6    1    1    2  501    0  0.10628064745E+02 -0.25490861329E+02  0.86731046875E+02  0.19548405117E+03  0.17300000000E+03 0. -1.
         -6    1    1    2    0  502 -0.10628064745E+02  0.25490861329E+02  0.14339965359E+03  0.22639611397E+03  0.17300000000E+03 0. -1.
<mgrwt>
<rscale>  2 0.17519058E+03</rscale>
<asrwt>0</asrwt>
<pdfrwt beam="1">  1       21 0.50154681E-01 0.17519058E+03</pdfrwt>
<pdfrwt beam="2">  1       21 0.14749959E-01 0.17519058E+03</pdfrwt>
<totfact> 0.15400152E+05</totfact>
</mgrwt>
</event>
<event>
 4    1  0.4439578E+000  0.1778751E+03  0.7546771E-02  0.1169876E+00
         21   -1    0    0  503  502  0.00000000000E+00  0.00000000000E+00  0.43804636384E+03  0.43804636384E+03  0.00000000000E+00 0. -1.
         21   -1    0    0  501  503 -0.00000000000E+00 -0.00000000000E+00 -0.75829530489E+02  0.75829530489E+02  0.00000000000E+00 0. -1.
          6    1    1    2  501    0 -0.34573185072E+02 -0.22698956968E+02  0.12511892831E+03  0.21747251319E+03  0.17300000000E+03 0. -1.
         -6    1    1    2    0  502  0.34573185072E+02  0.22698956968E+02  0.23709790504E+03  0.29640338114E+03  0.17300000000E+03 0. -1.
<mgrwt>
<rscale>  2 0.17787509E+03</rscale>
<asrwt>0</asrwt>
<pdfrwt beam="1">  1       21 0.67391747E-01 0.17787509E+03</pdfrwt>
<pdfrwt beam="2">  1       21 0.11666082E-01 0.17787509E+03</pdfrwt>
<totfact> 0.12497030E+05</totfact>
</mgrwt>
</event>
<event>
 4    1  0.4439578E+000  0.1837625E+03  0.7546771E-02  0.1164211E+00
         21   -1    0    0  503  502  0.00000000000E+00  0.00000000000E+00  0.23085352137E+03  0.23085352137E+03  0.00000000000E+00 0. -1.
         21   -1    0    0  501  503 -0.00000000000E+00 -0.00000000000E+00 -0.21328790370E+03  0.21328790370E+03  0.00000000000E+00 0. -1.
          6    1    1    2  501    0  0.42821599599E+02  0.44787984706E+02  0.13325708608E+03  0.22699362096E+03  0.17300000000E+03 0. -1.
         -6    1    1    2    0  502 -0.42821599599E+02 -0.44787984706E+02 -0.11569146842E+03  0.21714780411E+03  0.17300000000E+03 0. -1.
<mgrwt>
<rscale>  2 0.18376249E+03</rscale>
<asrwt>0</asrwt>
<pdfrwt beam="1">  1       21 0.35515926E-01 0.18376249E+03</pdfrwt>
<pdfrwt beam="2">  1       21 0.32813524E-01 0.18376249E+03</pdfrwt>
<totfact> 0.68593681E+04</totfact>
</mgrwt>
</event>
<event>
 4    1  0.4439578E+000  0.3324494E+03  0.7546771E-02  0.1070058E+00
         21   -1    0    0  503  502  0.00000000000E+00  0.00000000000E+00  0.27450526123E+03  0.27450526123E+03  0.00000000000E+00 0.  1.
         21   -1    0    0  501  503 -0.00000000000E+00 -0.00000000000E+00 -0.40937067609E+03  0.40937067609E+03  0.00000000000E+00 0. -1.
          6    1    1    2  501    0 -0.27390656771E+03 -0.74624479466E+02 -0.11132706971E+03  0.35059426296E+03  0.17300000000E+03 0. -1.
         -6    1    1    2    0  502  0.27390656771E+03  0.74624479466E+02 -0.23538345148E+02  0.33328167436E+03  0.17300000000E+03 0.  1.
<mgrwt>
<rscale>  2 0.33244943E+03</rscale>
<asrwt>0</asrwt>
<pdfrwt beam="1">  1       21 0.42231579E-01 0.33244943E+03</pdfrwt>
<pdfrwt beam="2">  1       21 0.62980104E-01 0.33244943E+03</pdfrwt>
<totfact> 0.11717812E+04</totfact>
</mgrwt>
</event>
<event>
 4    1  0.4439578E+000  0.1826785E+03  0.7546771E-02  0.1165236E+00
         21   -1    0    0  503  502  0.00000000000E+00  0.00000000000E+00  0.62451508380E+03  0.62451508380E+03  0.00000000000E+00 0. -1.
         21   -1    0    0  501  503 -0.00000000000E+00 -0.00000000000E+00 -0.54385450723E+02  0.54385450723E+02  0.00000000000E+00 0. -1.
          6    1    1    2  501    0  0.36669766427E+02  0.45801454797E+02  0.24020852543E+03  0.30178068315E+03  0.17300000000E+03 0. -1.
         -6    1    1    2    0  502 -0.36669766427E+02 -0.45801454797E+02  0.32992110764E+03  0.37711985137E+03  0.17300000000E+03 0. -1.
<mgrwt>
<rscale>  2 0.18267853E+03</rscale>
<asrwt>0</asrwt>
<pdfrwt beam="1">  1       21 0.96079239E-01 0.18267853E+03</pdfrwt>
<pdfrwt beam="2">  1       21 0.83669929E-02 0.18267853E+03</pdfrwt>
<totfact> 0.10052266E+05</totfact>
</mgrwt>
</event>
<event>
 4    1  0.4439578E+000  0.2549152E+03  0.7546771E-02  0.1110237E+00
         21   -1    0    0  503  502  0.00000000000E+00  0.00000000000E+00  0.50267760228E+03  0.50267760228E+03  0.00000000000E+00 0.  1.
         21   -1    0    0  501  503 -0.00000000000E+00 -0.00000000000E+00 -0.15486236876E+03  0.15486236876E+03  0.00000000000E+00 0.  1.
          6    1    1    2  501    0 -0.17292577983E+03 -0.71759595613E+02  0.40259205401E+02  0.25807473435E+03  0.17300000000E+03 0.  1.
         -6    1    1    2    0  502  0.17292577983E+03  0.71759595613E+02  0.30755602811E+03  0.39946523669E+03  0.17300000000E+03 0.  1.
<mgrwt>
<rscale>  2 0.25491521E+03</rscale>
<asrwt>0</asrwt>
<pdfrwt beam="1">  1       21 0.77335015E-01 0.25491521E+03</pdfrwt>
<pdfrwt beam="2">  1       21 0.23824980E-01 0.25491521E+03</pdfrwt>
<totfact> 0.23847772E+04</totfact>
</mgrwt>
</event>
<event>
 4    1  0.4439578E+000  0.2110321E+03  0.7546771E-02  0.1140751E+00
         21   -1    0    0  501  502  0.00000000000E+00  0.00000000000E+00  0.65278488093E+02  0.65278488093E+02  0.00000000000E+00 0.  1.
         21   -1    0    0  502  503 -0.00000000000E+00 -0.00000000000E+00 -0.69406445798E+03  0.69406445798E+03  0.00000000000E+00 0. -1.
          6    1    1    2  501    0  0.11085335349E+03 -0.48136044462E+02 -0.26480298106E+03  0.33860768381E+03  0.17300000000E+03 0.  1.
         -6    1    1    2    0  503 -0.11085335349E+03  0.48136044462E+02 -0.36398298883E+03  0.42073526227E+03  0.17300000000E+03 0. -1.
<mgrwt>
<rscale>  2 0.21103209E+03</rscale>
<asrwt>0</asrwt>
<pdfrwt beam="1">  1       21 0.10042845E-01 0.21103209E+03</pdfrwt>
<pdfrwt beam="2">  1       21 0.10677914E+00 0.21103209E+03</pdfrwt>
<totfact> 0.55992493E+04</totfact>
</mgrwt>
</event>
<event>
 4    1  0.4439578E+000  0.2001179E+03  0.7546771E-02  0.1149640E+00
         21   -1    0    0  501  502  0.00000000000E+00  0.00000000000E+00  0.55422880401E+03  0.55422880401E+03  0.00000000000E+00 0.  1.
         21   -1    0    0  502  503 -0.00000000000E+00 -0.00000000000E+00 -0.94376860424E+02  0.94376860424E+02  0.00000000000E+00 0. -1.
          6    1    1    2  501    0  0.98790108590E+02  0.18939287060E+02  0.38692767412E+03  0.43561474625E+03  0.17300000000E+03 0.  1.
         -6    1    1    2    0  503 -0.98790108590E+02 -0.18939287060E+02  0.72924269457E+02  0.21299091818E+03  0.17300000000E+03 0. -1.
<mgrwt>
<rscale>  2 0.20011792E+03</rscale>
<asrwt>0</asrwt>
<pdfrwt beam="1">  1       21 0.85265968E-01 0.20011792E+03</pdfrwt>
<pdfrwt beam="2">  1       21 0.14519517E-01 0.20011792E+03</pdfrwt>
<totfact> 0.49330875E+04</totfact>
</mgrwt>
</event>
<event>
 4    1  0.4439578E+000  0.1768752E+03  0.7546771E-02  0.1170862E+00
         21   -1    0    0  501  502  0.00000000000E+00  0.00000000000E+00  0.65066388396E+02  0.65066388396E+02  0.00000000000E+00 0. -1.
         21   -1    0    0  502  503 -0.00000000000E+00 -0.00000000000E+00 -0.73364973877E+03  0.73364973877E+03  0.00000000000E+00 0. -1.
          6    1    1    2  501    0 -0.27764587536E+02 -0.24186203580E+02 -0.99848758014E+02  0.20311233158E+03  0.17300000000E+03 0. -1.
         -6    1    1    2    0  503  0.27764587536E+02  0.24186203580E+02 -0.56873459236E+03  0.59560379558E+03  0.17300000000E+03 0. -1.
<mgrwt>
<rscale>  2 0.17687522E+03</rscale>
<asrwt>0</asrwt>
<pdfrwt beam="1">  1       21 0.10010213E-01 0.17687522E+03</pdfrwt>
<pdfrwt beam="2">  1       21 0.11286919E+00 0.17687522E+03</pdfrwt>
<totfact> 0.50103827E+04</totfact>
</mgrwt>
</event>
<event>
 4    1  0.4439578E+000  0.2006803E+03  0.7546771E-02  0.1149166E+00
         21   -1    0    0  501  502  0.00000000000E+00  0.00000000000E+00  0.37027271928E+03  0.37027271928E+03  0.00000000000E+00 0.  1.
         21   -1    0    0  502  503 -0.00000000000E+00 -0.00000000000E+00 -0.60488643326E+03  0.60488643326E+03  0.00000000000E+00 0.  1.
          6    1    1    2  501    0  0.27488123404E+02 -0.97918234580E+02  0.32426637392E+03  0.38134139409E+03  0.17300000000E+03 0.  1.
         -6    1    1    2    0  503 -0.27488123404E+02  0.97918234580E+02 -0.55888008790E+03  0.59381775844E+03  0.17300000000E+03 0.  1.
<mgrwt>
<rscale>  2 0.20068029E+03</rscale>
<asrwt>0</asrwt>
<pdfrwt beam="1">  1       21 0.56965034E-01 0.20068029E+03</pdfrwt>
<pdfrwt beam="2">  1       21 0.93059451E-01 0.20068029E+03</pdfrwt>
<totfact> 0.27951458E+03</totfact>
</mgrwt>
</event>
<event>
 4    1  0.4439578E+000  0.2295654E+03  0.7546771E-02  0.1126946E+00
         21   -1    0    0  503  502  0.00000000000E+00  0.00000000000E+00  0.33618616286E+03  0.33618616286E+03  0.00000000000E+00 0.  1.
         21   -1    0    0  501  503 -0.00000000000E+00 -0.00000000000E+00 -0.15703101987E+03  0.15703101987E+03  0.00000000000E+00 0.  1.
          6    1    1    2  501    0 -0.39212256897E+00 -0.15090096924E+03  0.79316373995E+02  0.24288133617E+03  0.17300000000E+03 0.  1.
         -6    1    1    2    0  502  0.39212256897E+00  0.15090096924E+03  0.99838768985E+02  0.25033584656E+03  0.17300000000E+03 0.  1.
<mgrwt>
<rscale>  2 0.22956536E+03</rscale>
<asrwt>0</asrwt>
<pdfrwt beam="1">  1       21 0.51720948E-01 0.22956536E+03</pdfrwt>
<pdfrwt beam="2">  1       21 0.24158619E-01 0.22956536E+03</pdfrwt>
<totfact> 0.56450178E+04</totfact>
</mgrwt>
</event>
<event>
 4    1  0.4439578E+000  0.1965967E+03  0.7546771E-02  0.1152643E+00
         21   -1    0    0  501  502  0.00000000000E+00  0.00000000000E+00  0.29819234812E+03  0.29819234812E+03  0.00000000000E+00 0.  1.
         21   -1    0    0  502  503 -0.00000000000E+00 -0.00000000000E+00 -0.13224421798E+03  0.13224421798E+03  0.00000000000E+00 0.  1.
          6    1    1    2  501    0  0.92690139800E+02  0.11392660660E+02  0.52628915241E+02  0.20351918203E+03  0.17300000000E+03 0.  1.
         -6    1    1    2    0  503 -0.92690139800E+02 -0.11392660660E+02  0.11331921490E+03  0.22691738408E+03  0.17300000000E+03 0.  1.
<mgrwt>
<rscale>  2 0.19659668E+03</rscale>
<asrwt>0</asrwt>
<pdfrwt beam="1">  1       21 0.45875746E-01 0.19659668E+03</pdfrwt>
<pdfrwt beam="2">  1       21 0.20345264E-01 0.19659668E+03</pdfrwt>
<totfact> 0.10166292E+05</totfact>
</mgrwt>
</event>
<event>
 4    1  0.4439578E+000  0.2027690E+03  0.7546771E-02  0.1147424E+00
         21   -1    0    0  501  502  0.00000000000E+00  0.00000000000E+00  0.58721774735E+03  0.58721774735E+03  0.00000000000E+00 0. -1.
         21   -1    0    0  502  503 -0.00000000000E+00 -0.00000000000E+00 -0.28122212539E+03  0.28122212539E+03  0.00000000000E+00 0. -1.
          6    1    1    2  501    0 -0.98993549083E+02  0.37236383628E+02  0.52930036184E+03  0.56681050102E+03  0.17300000000E+03 0. -1.
         -6    1    1    2    0  503  0.98993549083E+02 -0.37236383628E+02 -0.22330473989E+03  0.30162937172E+03  0.17300000000E+03 0. -1.
<mgrwt>
<rscale>  2 0.20276901E+03</rscale>
<asrwt>0</asrwt>
<pdfrwt beam="1">  1       21 0.90341192E-01 0.20276901E+03</pdfrwt>
<pdfrwt beam="2">  1       21 0.43264942E-01 0.20276901E+03</pdfrwt>
<totfact> 0.53068644E+03</totfact>
</mgrwt>
</event>
<event>
 4    1  0.4439578E+000  0.1854410E+03  0.7546771E-02  0.1162639E+00
         21   -1    0    0  501  502  0.00000000000E+00  0.00000000000E+00  0.49520791945E+02  0.49520791945E+02  0.00000000000E+00 0. -1.
         21   -1    0    0  502  503 -0.00000000000E+00 -0.00000000000E+00 -0.70027040740E+03  0.70027040740E+03  0.00000000000E+00 0. -1.
          6    1    1    2  501    0 -0.44318233326E+01 -0.66631304617E+02 -0.29111673311E+03  0.34516275018E+03  0.17300000000E+03 0. -1.
         -6    1    1    2    0  503  0.44318233326E+01  0.66631304617E+02 -0.35963288235E+03  0.40462844917E+03  0.17300000000E+03 0. -1.
<mgrwt>
<rscale>  2 0.18544102E+03</rscale>
<asrwt>0</asrwt>
<pdfrwt beam="1">  1       21 0.76185837E-02 0.18544102E+03</pdfrwt>
<pdfrwt beam="2">  1       21 0.10773390E+00 0.18544102E+03</pdfrwt>
<totfact> 0.89998954E+04</totfact>
</mgrwt>
</event>
<event>
 4    1  0.4439578E+000  0.1860363E+03  0.7546771E-02  0.1162086E+00
         21   -1    0    0  501  502  0.00000000000E+00  0.00000000000E+00  0.19326813243E+03  0.19326813243E+03  0.00000000000E+00 0. -1.
         21   -1    0    0  502  503 -0.00000000000E+00 -0.00000000000E+00 -0.19053263014E+03  0.19053263014E+03  0.00000000000E+00 0. -1.
          6    1    1    2  501    0  0.37392374794E+02 -0.57291578526E+02  0.48426049311E+02  0.19223578469E+03  0.17300000000E+03 0. -1.
         -6    1    1    2    0  503 -0.37392374794E+02  0.57291578526E+02 -0.45690547020E+02  0.19156497788E+03  0.17300000000E+03 0. -1.
<mgrwt>
<rscale>  2 0.18603633E+03</rscale>
<asrwt>0</asrwt>
<pdfrwt beam="1">  1       21 0.29733559E-01 0.18603633E+03</pdfrwt>
<pdfrwt beam="2">  1       21 0.29312712E-01 0.18603633E+03</pdfrwt>
<totfact> 0.12115568E+05</totfact>
</mgrwt>
</event>
<event>
 4    1  0.4439578E+000  0.2075053E+03  0.7546771E-02  0.1143557E+00
         21   -1    0    0  503  502  0.00000000000E+00  0.00000000000E+00  0.27033245986E+03  0.27033245986E+03  0.00000000000E+00 0. -1.
         21   -1    0    0  501  503 -0.00000000000E+00 -0.00000000000E+00 -0.20587302155E+03  0.20587302155E+03  0.00000000000E+00 0. -1.
          6    1    1    2  501    0 -0.11303531043E+03 -0.18774003458E+02 -0.81043437178E+02  0.22277002339E+03  0.17300000000E+03 0. -1.
         -6    1    1    2    0  502  0.11303531043E+03  0.18774003458E+02  0.14550287549E+03  0.25343545803E+03  0.17300000000E+03 0. -1.
<mgrwt>
<rscale>  2 0.20750529E+03</rscale>
<asrwt>0</asrwt>
<pdfrwt beam="1">  1       21 0.41589609E-01 0.20750529E+03</pdfrwt>
<pdfrwt beam="2">  1       21 0.31672772E-01 0.20750529E+03</pdfrwt>
<totfact> 0.52967601E+04</totfact>
</mgrwt>
</event>
<event>
 4    1  0.4439578E+000  0.1797015E+03  0.7546771E-02  0.1168092E+00
         21   -1    0    0  503  502  0.00000000000E+00  0.00000000000E+00  0.25704867355E+04  0.25704867355E+04  0.00000000000E+00 0.  1.
         21   -1    0    0  501  503 -0.00000000000E+00 -0.00000000000E+00 -0.61233738565E+02  0.61233738565E+02  0.00000000000E+00 0. -1.
          6    1    1    2  501    0 -0.21031543243E+02 -0.43832590205E+02  0.81488657783E+02  0.19731452841E+03  0.17300000000E+03 0. -1.
         -6    1    1    2    0  502  0.21031543243E+02  0.43832590205E+02  0.24277643391E+04  0.24344059457E+04  0.17300000000E+03 0.  1.
<mgrwt>
<rscale>  2 0.17970148E+03</rscale>
<asrwt>0</asrwt>
<pdfrwt beam="1">  1       21 0.39545941E+00 0.17970148E+03</pdfrwt>
<pdfrwt beam="2">  1       21 0.94205771E-02 0.17970148E+03</pdfrwt>
<totfact> 0.85597600E+02</totfact>
</mgrwt>
</event>
<event>
 4    1  0.4439578E+000  0.1775197E+03  0.7546771E-02  0.1170225E+00
         21   -1    0    0  501  502  0.00000000000E+00  0.00000000000E+00  0.10022373242E+04  0.10022373242E+04  0.00000000000E+00 0.  1.
         21   -1    0    0  502  503 -0.00000000000E+00 -0.00000000000E+00 -0.43734396541E+02  0.43734396541E+02  0.00000000000E+00 0.  1.
          6    1    1    2  501    0 -0.35845280554E+02 -0.17302117124E+02  0.75650734660E+03  0.77705637689E+03  0.17300000000E+03 0.  1.
         -6    1    1    2    0  503  0.35845280554E+02  0.17302117124E+02  0.20199558106E+03  0.26891534386E+03  0.17300000000E+03 0.  1.
<mgrwt>
<rscale>  2 0.17751971E+03</rscale>
<asrwt>0</asrwt>
<pdfrwt beam="1">  1       21 0.15419034E+00 0.17751971E+03</pdfrwt>
<pdfrwt beam="2">  1       21 0.67283694E-02 0.17751971E+03</pdfrwt>
<totfact> 0.45409072E+04</totfact>
</mgrwt>
</event>
<event>
 4    1  0.4439578E+000  0.1989969E+03  0.7546771E-02  0.1150588E+00
         21   -1    0    0  503  502  0.00000000000E+00  0.00000000000E+00  0.22277239252E+03  0.22277239252E+03  0.00000000000E+00 0.  1.
         21   -1    0    0  501  503 -0.00000000000E+00 -0.00000000000E+00 -0.21168244971E+03  0.21168244971E+03  0.00000000000E+00 0.  1.
          6    1    1    2  501    0 -0.18990144145E+02 -0.96489037770E+02 -0.81415785096E+02  0.21500765114E+03  0.17300000000E+03 0.  1.
         -6    1    1    2    0  502  0.18990144145E+02  0.96489037770E+02  0.92505727907E+02  0.21944719110E+03  0.17300000000E+03 0.  1.
<mgrwt>
<rscale>  2 0.19899688E+03</rscale>
<asrwt>0</asrwt>
<pdfrwt beam="1">  1       21 0.34272676E-01 0.19899688E+03</pdfrwt>
<pdfrwt beam="2">  1       21 0.32566531E-01 0.19899688E+03</pdfrwt>
<totfact> 0.74234052E+04</totfact>
</mgrwt>
</event>
<event>
 4    1  0.4439578E+000  0.2020251E+03  0.7546771E-02  0.1148042E+00
         21   -1    0    0  503  502  0.00000000000E+00  0.00000000000E+00  0.57269793462E+03  0.57269793462E+03  0.00000000000E+00 0.  1.
         21   -1    0    0  501  503 -0.00000000000E+00 -0.00000000000E+00 -0.72092520916E+02  0.72092520916E+02  0.00000000000E+00 0. -1.
          6    1    1    2  501    0 -0.10430372333E+03 -0.24267397889E+01  0.28481302249E+03  0.34918850718E+03  0.17300000000E+03 0. -1.
         -6    1    1    2    0  502  0.10430372333E+03  0.24267397889E+01  0.21579239122E+03  0.29560194836E+03  0.17300000000E+03 0.  1.
<mgrwt>
<rscale>  2 0.20202514E+03</rscale>
<asrwt>0</asrwt>
<pdfrwt beam="1">  1       21 0.88107372E-01 0.20202514E+03</pdfrwt>
<pdfrwt beam="2">  1       21 0.11091157E-01 0.20202514E+03</pdfrwt>
<totfact> 0.74200401E+04</totfact>
</mgrwt>
</event>
<event>
 4    1  0.4439578E+000  0.1754618E+03  0.7546771E-02  0.1172269E+00
         21   -1    0    0  503  502  0.00000000000E+00  0.00000000000E+00  0.74037712865E+02  0.74037712865E+02  0.00000000000E+00 0.  1.
         21   -1    0    0  501  503 -0.00000000000E+00 -0.00000000000E+00 -0.48250916466E+03  0.48250916466E+03  0.00000000000E+00 0.  1.
          6    1    1    2  501    0 -0.64909743370E+01  0.28560926755E+02 -0.10078709944E+03  0.20234845860E+03  0.17300000000E+03 0.  1.
         -6    1    1    2    0  502  0.64909743370E+01 -0.28560926755E+02 -0.30768435235E+03  0.35419841892E+03  0.17300000000E+03 0.  1.
<mgrwt>
<rscale>  2 0.17546185E+03</rscale>
<asrwt>0</asrwt>
<pdfrwt beam="1">  1       21 0.11390417E-01 0.17546185E+03</pdfrwt>
<pdfrwt beam="2">  1       21 0.74232182E-01 0.17546185E+03</pdfrwt>
<totfact> 0.10547992E+05</totfact>
</mgrwt>
</event>
<event>
 4    1  0.4439578E+000  0.1914607E+03  0.7546771E-02  0.1157150E+00
         21   -1    0    0  503  502  0.00000000000E+00  0.00000000000E+00  0.41635017297E+03  0.41635017297E+03  0.00000000000E+00 0.  1.
         21   -1    0    0  501  503 -0.00000000000E+00 -0.00000000000E+00 -0.10347671384E+03  0.10347671384E+03  0.00000000000E+00 0.  1.
          6    1    1    2  501    0  0.44096403516E+02 -0.69164328813E+02  0.56061519643E+02  0.19949960192E+03  0.17300000000E+03 0.  1.
         -6    1    1    2    0  502 -0.44096403516E+02  0.69164328813E+02  0.25681193948E+03  0.32032728489E+03  0.17300000000E+03 0.  1.
<mgrwt>
<rscale>  2 0.19146069E+03</rscale>
<asrwt>0</asrwt>
<pdfrwt beam="1">  1       21 0.64053872E-01 0.19146069E+03</pdfrwt>
<pdfrwt beam="2">  1       21 0.15919495E-01 0.19146069E+03</pdfrwt>
<totfact> 0.79226167E+04</totfact>
</mgrwt>
</event>
<event>
 4    1  0.4439578E+000  0.1871642E+03  0.7546771E-02  0.1161044E+00
         21   -1    0    0  501  502  0.00000000000E+00  0.00000000000E+00  0.11453361705E+03  0.11453361705E+03  0.00000000000E+00 0.  1.
         21   -1    0    0  502  503 -0.00000000000E+00 -0.00000000000E+00 -0.35804757433E+03  0.35804757433E+03  0.00000000000E+00 0.  1.
          6    1    1    2  501    0 -0.25749835845E+02  0.66621115550E+02 -0.31539726454E+02  0.18980300690E+03  0.17300000000E+03 0.  1.
         -6    1    1    2    0  503  0.25749835845E+02 -0.66621115550E+02 -0.21197423083E+03  0.28277818448E+03  0.17300000000E+03 0.  1.
<mgrwt>
<rscale>  2 0.18716417E+03</rscale>
<asrwt>0</asrwt>
<pdfrwt beam="1">  1       21 0.17620557E-01 0.18716417E+03</pdfrwt>
<pdfrwt beam="2">  1       21 0.55084242E-01 0.18716417E+03</pdfrwt>
<totfact> 0.90989485E+04</totfact>
</mgrwt>
</event>
<event>
 4    1  0.4439578E+000  0.2006184E+03  0.7546771E-02  0.1149218E+00
         21   -1    0    0  501  502  0.00000000000E+00  0.00000000000E+00  0.40084414003E+03  0.40084414003E+03  0.00000000000E+00 0.  1.
         21   -1    0    0  502  503 -0.00000000000E+00 -0.00000000000E+00 -0.10044275670E+03  0.10044275670E+03  0.00000000000E+00 0.  1.
          6    1    1    2  501    0 -0.77050510710E+02  0.66196336648E+02  0.15490020207E+03  0.25345967882E+03  0.17300000000E+03 0.  1.
         -6    1    1    2    0  503  0.77050510710E+02 -0.66196336648E+02  0.14550118127E+03  0.24782721791E+03  0.17300000000E+03 0.  1.
<mgrwt>
<rscale>  2 0.20061838E+03</rscale>
<asrwt>0</asrwt>
<pdfrwt beam="1">  1       21 0.61668328E-01 0.20061838E+03</pdfrwt>
<pdfrwt beam="2">  1       21 0.15452732E-01 0.20061838E+03</pdfrwt>
<totfact> 0.90461932E+04</totfact>
</mgrwt>
</event>
<event>
 4    1  0.4439578E+000  0.3272324E+03  0.7546771E-02  0.1072368E+00
         21   -1    0    0  503  502  0.00000000000E+00  0.00000000000E+00  0.72068563045E+03  0.72068563045E+03  0.00000000000E+00 0. -1.
         21   -1    0    0  501  503 -0.00000000000E+00 -0.00000000000E+00 -0.18647547773E+03  0.18647547773E+03  0.00000000000E+00 0.  1.
          6    1    1    2  501    0 -0.24218763661E+03  0.13600448850E+03  0.62637464602E+02  0.33317341459E+03  0.17300000000E+03 0.  1.
         -6    1    1    2    0  502  0.24218763661E+03 -0.13600448850E+03  0.47157268812E+03  0.57398769359E+03  0.17300000000E+03 0. -1.
<mgrwt>
<rscale>  2 0.32723244E+03</rscale>
<asrwt>0</asrwt>
<pdfrwt beam="1">  1       21 0.11087471E+00 0.32723244E+03</pdfrwt>
<pdfrwt beam="2">  1       21 0.28688535E-01 0.32723244E+03</pdfrwt>
<totfact> 0.68801453E+03</totfact>
</mgrwt>
</event>
<event>
 4    1  0.4439578E+000  0.1801219E+03  0.7546771E-02  0.1167685E+00
         21   -1    0    0  501  502  0.00000000000E+00  0.00000000000E+00  0.54427215120E+03  0.54427215120E+03  0.00000000000E+00 0. -1.
         21   -1    0    0  502  503 -0.00000000000E+00 -0.00000000000E+00 -0.89348963254E+02  0.89348963254E+02  0.00000000000E+00 0. -1.
          6    1    1    2  501    0 -0.31384912309E+02  0.39113768330E+02  0.41023793962E+03  0.44803913523E+03  0.17300000000E+03 0. -1.
         -6    1    1    2    0  503  0.31384912309E+02 -0.39113768330E+02  0.44685248321E+02  0.18558197922E+03  0.17300000000E+03 0. -1.
<mgrwt>
<rscale>  2 0.18012190E+03</rscale>
<asrwt>0</asrwt>
<pdfrwt beam="1">  1       21 0.83734175E-01 0.18012190E+03</pdfrwt>
<pdfrwt beam="2">  1       21 0.13745995E-01 0.18012190E+03</pdfrwt>
<totfact> 0.57330177E+04</totfact>
</mgrwt>
</event>
<event>
 4    1  0.4439578E+000  0.3030710E+03  0.7546771E-02  0.1083715E+00
         21   -1    0    0  503  502  0.00000000000E+00  0.00000000000E+00  0.55680669017E+03  0.55680669017E+03  0.00000000000E+00 0.  1.
         21   -1    0    0  501  503 -0.00000000000E+00 -0.00000000000E+00 -0.29325753197E+03  0.29325753197E+03  0.00000000000E+00 0.  1.
          6    1    1    2  501    0  0.24274886835E+03 -0.54736056633E+02 -0.14935245126E+03  0.33787305853E+03  0.17300000000E+03 0.  1.
         -6    1    1    2    0  502 -0.24274886835E+03  0.54736056633E+02  0.41290160947E+03  0.51219116361E+03  0.17300000000E+03 0.  1.
<mgrwt>
<rscale>  2 0.30307103E+03</rscale>
<asrwt>0</asrwt>
<pdfrwt beam="1">  1       21 0.85662568E-01 0.30307103E+03</pdfrwt>
<pdfrwt beam="2">  1       21 0.45116543E-01 0.30307103E+03</pdfrwt>
<totfact> 0.51758582E+03</totfact>
</mgrwt>
</event>
<event>
 4    1  0.4439578E+000  0.1869015E+03  0.7546771E-02  0.1161286E+00
         21   -1    0    0  503  502  0.00000000000E+00  0.00000000000E+00  0.83137622330E+02  0.83137622330E+02  0.00000000000E+00 0. -1.
         21   -1    0    0  501  503 -0.00000000000E+00 -0.00000000000E+00 -0.11821247004E+04  0.11821247004E+04  0.00000000000E+00 0. -1.
          6    1    1    2  501    0  0.54242045789E+02  0.45397728951E+02 -0.10573988582E+04  0.10737897833E+04  0.17300000000E+03 0. -1.
         -6    1    1    2    0  502 -0.54242045789E+02 -0.45397728951E+02 -0.41588219832E+02  0.19147253943E+03  0.17300000000E+03 0. -1.
<mgrwt>
<rscale>  2 0.18690145E+03</rscale>
<asrwt>0</asrwt>
<pdfrwt beam="1">  1       21 0.12790404E-01 0.18690145E+03</pdfrwt>
<pdfrwt beam="2">  1       21 0.18186533E+00 0.18690145E+03</pdfrwt>
<totfact> 0.92940376E+03</totfact>
</mgrwt>
</event>
<event>
 4    1  0.4439578E+000  0.1863967E+03  0.7546771E-02  0.1161752E+00
         21   -1    0    0  503  502  0.00000000000E+00  0.00000000000E+00  0.94570523261E+03  0.94570523261E+03  0.00000000000E+00 0. -1.
         21   -1    0    0  501  503 -0.00000000000E+00 -0.00000000000E+00 -0.41187536204E+02  0.41187536204E+02  0.00000000000E+00 0. -1.
          6    1    1    2  501    0 -0.68159126757E+02  0.13001734644E+02  0.61443767867E+03  0.64208829037E+03  0.17300000000E+03 0. -1.
         -6    1    1    2    0  502  0.68159126757E+02 -0.13001734644E+02  0.29008001773E+03  0.34480447844E+03  0.17300000000E+03 0. -1.
<mgrwt>
<rscale>  2 0.18639665E+03</rscale>
<asrwt>0</asrwt>
<pdfrwt beam="1">  1       21 0.14549310E+00 0.18639665E+03</pdfrwt>
<pdfrwt beam="2">  1       21 0.63365447E-02 0.18639665E+03</pdfrwt>
<totfact> 0.58334422E+04</totfact>
</mgrwt>
</event>
<event>
 4    1  0.4439578E+000  0.1849055E+03  0.7546771E-02  0.1163138E+00
         21   -1    0    0  503  502  0.00000000000E+00  0.00000000000E+00  0.20433302590E+03  0.20433302590E+03  0.00000000000E+00 0. -1.
         21   -1    0    0  501  503 -0.00000000000E+00 -0.00000000000E+00 -0.17624915643E+03  0.17624915643E+03  0.00000000000E+00 0. -1.
          6    1    1    2  501    0  0.35373662989E+01  0.65180625157E+02 -0.28777223705E+02  0.18713138556E+03  0.17300000000E+03 0. -1.
         -6    1    1    2    0  502 -0.35373662989E+01 -0.65180625157E+02  0.56861093180E+02  0.19345079678E+03  0.17300000000E+03 0. -1.
<mgrwt>
<rscale>  2 0.18490545E+03</rscale>
<asrwt>0</asrwt>
<pdfrwt beam="1">  1       21 0.31435850E-01 0.18490545E+03</pdfrwt>
<pdfrwt beam="2">  1       21 0.27115255E-01 0.18490545E+03</pdfrwt>
<totfact> 0.12640528E+05</totfact>
</mgrwt>
</event>
<event>
 4    1  0.4439578E+000  0.1961181E+03  0.7546771E-02  0.1153056E+00
         21   -1    0    0  503  502  0.00000000000E+00  0.00000000000E+00  0.74114371920E+03  0.74114371920E+03  0.00000000000E+00 0. -1.
         21   -1    0    0  501  503 -0.00000000000E+00 -0.00000000000E+00 -0.57414097246E+02  0.57414097246E+02  0.00000000000E+00 0. -1.
          6    1    1    2  501    0  0.76365587544E+02 -0.51977157178E+02  0.21808058330E+03  0.29329416742E+03  0.17300000000E+03 0.  1.
         -6    1    1    2    0  502 -0.76365587544E+02  0.51977157178E+02  0.46564903865E+03  0.50526364903E+03  0.17300000000E+03 0.  1.
<mgrwt>
<rscale>  2 0.19611815E+03</rscale>
<asrwt>0</asrwt>
<pdfrwt beam="1">  1       21 0.11402210E+00 0.19611815E+03</pdfrwt>
<pdfrwt beam="2">  1       21 0.88329386E-02 0.19611815E+03</pdfrwt>
<totfact> 0.60319629E+04</totfact>
</mgrwt>
</event>
<event>
 4    1  0.4439578E+000  0.2629352E+03  0.7546771E-02  0.1105392E+00
         21   -1    0    0  503  502  0.00000000000E+00  0.00000000000E+00  0.44472853855E+03  0.44472853855E+03  0.00000000000E+00 0. -1.
         21   -1    0    0  501  503 -0.00000000000E+00 -0.00000000000E+00 -0.19529472285E+03  0.19529472285E+03  0.00000000000E+00 0.  1.
          6    1    1    2  501    0 -0.17127634560E+03 -0.99349650449E+02 -0.19821335783E+02  0.26368129429E+03  0.17300000000E+03 0.  1.
         -6    1    1    2    0  502  0.17127634560E+03  0.99349650449E+02  0.26925515148E+03  0.37634196711E+03  0.17300000000E+03 0. -1.
<mgrwt>
<rscale>  2 0.26293524E+03</rscale>
<asrwt>0</asrwt>
<pdfrwt beam="1">  1       21 0.68419775E-01 0.26293524E+03</pdfrwt>
<pdfrwt beam="2">  1       21 0.30045342E-01 0.26293524E+03</pdfrwt>
<totfact> 0.19938897E+04</totfact>
</mgrwt>
</event>
<event>
 4    1  0.4439578E+000  0.2109902E+03  0.7546771E-02  0.1140784E+00
         21   -1    0    0  501  502  0.00000000000E+00  0.00000000000E+00  0.20235302003E+03  0.20235302003E+03  0.00000000000E+00 0. -1.
         21   -1    0    0  502  503 -0.00000000000E+00 -0.00000000000E+00 -0.23263010880E+03  0.23263010880E+03  0.00000000000E+00 0.  1.
          6    1    1    2  501    0  0.11484018770E+03 -0.37411263378E+02  0.35546563284E+02  0.21396361723E+03  0.17300000000E+03 0.  1.
         -6    1    1    2    0  503 -0.11484018770E+03  0.37411263378E+02 -0.65823652049E+02  0.22101951160E+03  0.17300000000E+03 0.  1.
<mgrwt>
<rscale>  2 0.21099022E+03</rscale>
<asrwt>0</asrwt>
<pdfrwt beam="1">  1       21 0.31131234E-01 0.21099022E+03</pdfrwt>
<pdfrwt beam="2">  1       21 0.35789248E-01 0.21099022E+03</pdfrwt>
<totfact> 0.74035122E+04</totfact>
</mgrwt>
</event>
<event>
 4    1  0.4439578E+000  0.2050503E+03  0.7546771E-02  0.1145547E+00
         21   -1    0    0  501  502  0.00000000000E+00  0.00000000000E+00  0.54493267336E+02  0.54493267336E+02  0.00000000000E+00 0. -1.
         21   -1    0    0  502  503 -0.00000000000E+00 -0.00000000000E+00 -0.10374526941E+04  0.10374526941E+04  0.00000000000E+00 0.  1.
          6    1    1    2  501    0  0.41878668879E+02 -0.10179787285E+03 -0.21508601015E+03  0.29716598322E+03  0.17300000000E+03 0. -1.
         -6    1    1    2    0  503 -0.41878668879E+02  0.10179787285E+03 -0.76787341661E+03  0.79477997821E+03  0.17300000000E+03 0.  1.
<mgrwt>
<rscale>  2 0.20505031E+03</rscale>
<asrwt>0</asrwt>
<pdfrwt beam="1">  1       21 0.83835797E-02 0.20505031E+03</pdfrwt>
<pdfrwt beam="2">  1       21 0.15960811E+00 0.20505031E+03</pdfrwt>
<totfact> 0.27796588E+04</totfact>
</mgrwt>
</event>
<event>
 4    1  0.4439578E+000  0.2076040E+03  0.7546771E-02  0.1143478E+00
         21   -1    0    0  501  502  0.00000000000E+00  0.00000000000E+00  0.34153455692E+03  0.34153455692E+03  0.00000000000E+00 0. -1.
         21   -1    0    0  502  503 -0.00000000000E+00 -0.00000000000E+00 -0.13340630601E+03  0.13340630601E+03  0.00000000000E+00 0. -1.
          6    1    1    2  501    0 -0.10243745542E+03  0.51739464425E+02  0.48846628099E+02  0.21327305861E+03  0.17300000000E+03 0. -1.
         -6    1    1    2    0  503  0.10243745542E+03 -0.51739464425E+02  0.15928162281E+03  0.26166780432E+03  0.17300000000E+03 0. -1.
<mgrwt>
<rscale>  2 0.20760396E+03</rscale>
<asrwt>0</asrwt>
<pdfrwt beam="1">  1       21 0.52543778E-01 0.20760396E+03</pdfrwt>
<pdfrwt beam="2">  1       21 0.20524047E-01 0.20760396E+03</pdfrwt>
<totfact> 0.75042886E+04</totfact>
</mgrwt>
</event>
<event>
 4    1  0.4439578E+000  0.1916256E+03  0.7546771E-02  0.1157003E+00
         21   -1    0    0  501  502  0.00000000000E+00  0.00000000000E+00  0.53671638952E+02  0.53671638952E+02  0.00000000000E+00 0.  1.
         21   -1    0    0  502  503 -0.00000000000E+00 -0.00000000000E+00 -0.95838604840E+03  0.95838604840E+03  0.00000000000E+00 0. -1.
          6    1    1    2  501    0 -0.39645978108E+02 -0.72246555899E+02 -0.18167869392E+03  0.26405968311E+03  0.17300000000E+03 0.  1.
         -6    1    1    2    0  503  0.39645978108E+02  0.72246555899E+02 -0.72303571553E+03  0.74799800424E+03  0.17300000000E+03 0. -1.
<mgrwt>
<rscale>  2 0.19162559E+03</rscale>
<asrwt>0</asrwt>
<pdfrwt beam="1">  1       21 0.82571756E-02 0.19162559E+03</pdfrwt>
<pdfrwt beam="2">  1       21 0.14744400E+00 0.19162559E+03</pdfrwt>
<totfact> 0.35534740E+04</totfact>
</mgrwt>
</event>
<event>
 4    1  0.4439578E+000  0.1812200E+03  0.7546771E-02  0.1166628E+00
         21   -1    0    0  501  502  0.00000000000E+00  0.00000000000E+00  0.43692194912E+02  0.43692194912E+02  0.00000000000E+00 0.  1.
         21   -1    0    0  502  503 -0.00000000000E+00 -0.00000000000E+00 -0.10223259360E+04  0.10223259360E+04  0.00000000000E+00 0.  1.
          6    1    1    2  501    0 -0.41184771474E+01 -0.53802645198E+02 -0.21504904606E+03  0.28122371645E+03  0.17300000000E+03 0.  1.
         -6    1    1    2    0  503  0.41184771474E+01  0.53802645198E+02 -0.76358469504E+03  0.78479441447E+03  0.17300000000E+03 0.  1.
<mgrwt>
<rscale>  2 0.18121999E+03</rscale>
<asrwt>0</asrwt>
<pdfrwt beam="1">  1       21 0.67218764E-02 0.18121999E+03</pdfrwt>
<pdfrwt beam="2">  1       21 0.15728091E+00 0.18121999E+03</pdfrwt>
<totfact> 0.43047969E+04</totfact>
</mgrwt>
</event>
<event>
 4    1  0.4439578E+000  0.1992628E+03  0.7546771E-02  0.1150362E+00
         21   -1    0    0  501  502  0.00000000000E+00  0.00000000000E+00  0.12967734824E+03  0.12967734824E+03  0.00000000000E+00 0.  1.
         21   -1    0    0  502  503 -0.00000000000E+00 -0.00000000000E+00 -0.69260986018E+03  0.69260986018E+03  0.00000000000E+00 0. -1.
          6    1    1    2  501    0  0.64736584912E+02 -0.74738579491E+02  0.25633806689E+02  0.20090488480E+03  0.17300000000E+03 0.  1.
         -6    1    1    2    0  503 -0.64736584912E+02  0.74738579491E+02 -0.58856631863E+03  0.62138232363E+03  0.17300000000E+03 0. -1.
<mgrwt>
<rscale>  2 0.19926284E+03</rscale>
<asrwt>0</asrwt>
<pdfrwt beam="1">  1       21 0.19950361E-01 0.19926284E+03</pdfrwt>
<pdfrwt beam="2">  1       21 0.10655536E+00 0.19926284E+03</pdfrwt>
<totfact> 0.16284302E+04</totfact>
</mgrwt>
</event>
<event>
 4    1  0.4439578E+000  0.1756309E+03  0.7546771E-02  0.1172100E+00
         21   -1    0    0  501  502  0.00000000000E+00  0.00000000000E+00  0.43430268004E+03  0.43430268004E+03  0.00000000000E+00 0. -1.
         21   -1    0    0  502  503 -0.00000000000E+00 -0.00000000000E+00 -0.23292349673E+03  0.23292349673E+03  0.00000000000E+00 0. -1.
          6    1    1    2  501    0  0.28320941714E+02  0.10729710042E+02  0.37882628505E+03  0.41755904572E+03  0.17300000000E+03 0. -1.
         -6    1    1    2    0  503 -0.28320941714E+02 -0.10729710042E+02 -0.17744710173E+03  0.24966713106E+03  0.17300000000E+03 0. -1.
<mgrwt>
<rscale>  2 0.17563087E+03</rscale>
<asrwt>0</asrwt>
<pdfrwt beam="1">  1       21 0.66815796E-01 0.17563087E+03</pdfrwt>
<pdfrwt beam="2">  1       21 0.35834384E-01 0.17563087E+03</pdfrwt>
<totfact> 0.15580643E+04</totfact>
</mgrwt>
</event>
<event>
 4    1  0.4439578E+000  0.1799983E+03  0.7546771E-02  0.1167805E+00
         21   -1    0    0  503  502  0.00000000000E+00  0.00000000000E+00  0.14999754648E+03  0.14999754648E+03  0.00000000000E+00 0.  1.
         21   -1    0    0  501  503 -0.00000000000E+00 -0.00000000000E+00 -0.22883983048E+03  0.22883983048E+03  0.00000000000E+00 0.  1.
          6    1    1    2  501    0 -0.15442012300E+02 -0.47243439324E+02 -0.84289972471E+02  0.19875662948E+03  0.17300000000E+03 0.  1.
         -6    1    1    2    0  502  0.15442012300E+02  0.47243439324E+02  0.54476884740E+01  0.18008074748E+03  0.17300000000E+03 0.  1.
<mgrwt>
<rscale>  2 0.17999833E+03</rscale>
<asrwt>0</asrwt>
<pdfrwt beam="1">  1       21 0.23076546E-01 0.17999833E+03</pdfrwt>
<pdfrwt beam="2">  1       21 0.35206127E-01 0.17999833E+03</pdfrwt>
<totfact> 0.13776327E+05</totfact>
</mgrwt>
</event>
<event>
 4    1  0.4439578E+000  0.2080284E+03  0.7546771E-02  0.1143137E+00
         21   -1    0    0  501  502  0.00000000000E+00  0.00000000000E+00  0.98083902820E+03  0.98083902820E+03  0.00000000000E+00 0. -1.
         21   -1    0    0  502  503 -0.00000000000E+00 -0.00000000000E+00 -0.12391421269E+03  0.12391421269E+03  0.00000000000E+00 0. -1.
          6    1    1    2  501    0  0.11432460414E+03 -0.16634623927E+02  0.87172090865E+03  0.89619929056E+03  0.17300000000E+03 0. -1.
         -6    1    1    2    0  503 -0.11432460414E+03  0.16634623927E+02 -0.14796093138E+02  0.20855395033E+03  0.17300000000E+03 0. -1.
<mgrwt>
<rscale>  2 0.20802843E+03</rscale>
<asrwt>0</asrwt>
<pdfrwt beam="1">  1       21 0.15089831E+00 0.20802843E+03</pdfrwt>
<pdfrwt beam="2">  1       21 0.19063726E-01 0.20802843E+03</pdfrwt>
<totfact> 0.73375171E+03</totfact>
</mgrwt>
</event>
<event>
 4    1  0.4439578E+000  0.2751793E+03  0.7546771E-02  0.1098351E+00
         21   -1    0    0  503  502  0.00000000000E+00  0.00000000000E+00  0.10629853754E+04  0.10629853754E+04  0.00000000000E+00 0. -1.
         21   -1    0    0  501  503 -0.00000000000E+00 -0.00000000000E+00 -0.78319035764E+02  0.78319035764E+02  0.00000000000E+00 0.  1.
          6    1    1    2  501    0  0.21068096086E+03 -0.37525915419E+02  0.32073073058E+03  0.42260130518E+03  0.17300000000E+03 0.  1.
         -6    1    1    2    0  502 -0.21068096086E+03  0.37525915419E+02  0.66393560910E+03  0.71870310603E+03  0.17300000000E+03 0. -1.
<mgrwt>
<rscale>  2 0.27517933E+03</rscale>
<asrwt>0</asrwt>
<pdfrwt beam="1">  1       21 0.16353620E+00 0.27517933E+03</pdfrwt>
<pdfrwt beam="2">  1       21 0.12049083E-01 0.27517933E+03</pdfrwt>
<totfact> 0.13110412E+04</totfact>
</mgrwt>
</event>
<event>
 4    1  0.4439578E+000  0.1771259E+03  0.7546771E-02  0.1170614E+00
         21   -1    0    0  501  502  0.00000000000E+00  0.00000000000E+00  0.20847137739E+04  0.20847137739E+04  0.00000000000E+00 0. -1.
         21   -1    0    0  502  503 -0.00000000000E+00 -0.00000000000E+00 -0.28399803964E+02  0.28399803964E+02  0.00000000000E+00 0. -1.
          6    1    1    2  501    0 -0.37885780275E+02  0.30402010640E+01  0.17525650632E+04  0.17614930814E+04  0.17300000000E+03 0. -1.
         -6    1    1    2    0  503  0.37885780275E+02 -0.30402010640E+01  0.30374890673E+03  0.35162049643E+03  0.17300000000E+03 0. -1.
<mgrwt>
<rscale>  2 0.17712587E+03</rscale>
<asrwt>0</asrwt>
<pdfrwt beam="1">  1       21 0.32072508E+00 0.17712587E+03</pdfrwt>
<pdfrwt beam="2">  1       21 0.43692022E-02 0.17712587E+03</pdfrwt>
<totfact> 0.89200857E+03</totfact>
</mgrwt>
</event>
<event>
 4    1  0.4439578E+000  0.2138086E+03  0.7546771E-02  0.1138585E+00
         21   -1    0    0  501  502  0.00000000000E+00  0.00000000000E+00  0.20443202949E+04  0.20443202949E+04  0.00000000000E+00 0.  1.
         21   -1    0    0  502  503 -0.00000000000E+00 -0.00000000000E+00 -0.24651651901E+02  0.24651651901E+02  0.00000000000E+00 0.  1.
          6    1    1    2  501    0  0.11414064189E+03  0.52507630411E+02  0.69452955766E+03  0.72669487672E+03  0.17300000000E+03 0.  1.
         -6    1    1    2    0  503 -0.11414064189E+03 -0.52507630411E+02  0.13251390854E+04  0.13422770701E+04  0.17300000000E+03 0.  1.
<mgrwt>
<rscale>  2 0.21380865E+03</rscale>
<asrwt>0</asrwt>
<pdfrwt beam="1">  1       21 0.31451068E+00 0.21380865E+03</pdfrwt>
<pdfrwt beam="2">  1       21 0.37925634E-02 0.21380865E+03</pdfrwt>
<totfact> 0.11797846E+04</totfact>
</mgrwt>
</event>
<event>
 4    1  0.4439578E+000  0.2470857E+03  0.7546771E-02  0.1115161E+00
         21   -1    0    0  503  502  0.00000000000E+00  0.00000000000E+00  0.14616643452E+04  0.14616643452E+04  0.00000000000E+00 0.  1.
         21   -1    0    0  501  503 -0.00000000000E+00 -0.00000000000E+00 -0.44325909407E+02  0.44325909407E+02  0.00000000000E+00 0.  1.
          6    1    1    2  501    0 -0.16696199857E+03 -0.56974002689E+02  0.52779611180E+03  0.58276932107E+03  0.17300000000E+03 0.  1.
         -6    1    1    2    0  502  0.16696199857E+03  0.56974002689E+02  0.88954232397E+03  0.92322093352E+03  0.17300000000E+03 0.  1.
<mgrwt>
<rscale>  2 0.24708571E+03</rscale>
<asrwt>0</asrwt>
<pdfrwt beam="1">  1       21 0.22487140E+00 0.24708571E+03</pdfrwt>
<pdfrwt beam="2">  1       21 0.68193718E-02 0.24708571E+03</pdfrwt>
<totfact> 0.14254375E+04</totfact>
</mgrwt>
</event>
<event>
 4    1  0.4439578E+000  0.2893461E+03  0.7546771E-02  0.1090691E+00
         21   -1    0    0  503  502  0.00000000000E+00  0.00000000000E+00  0.33681713273E+03  0.33681713273E+03  0.00000000000E+00 0.  1.
         21   -1    0    0  501  503 -0.00000000000E+00 -0.00000000000E+00 -0.24857758485E+03  0.24857758485E+03  0.00000000000E+00 0.  1.
          6    1    1    2  501    0 -0.19728911306E+03  0.12193923960E+03  0.42092337190E+02  0.29239175285E+03  0.17300000000E+03 0.  1.
         -6    1    1    2    0  502  0.19728911306E+03 -0.12193923960E+03  0.46147210684E+02  0.29300296473E+03  0.17300000000E+03 0.  1.
<mgrwt>
<rscale>  2 0.28934611E+03</rscale>
<asrwt>0</asrwt>
<pdfrwt beam="1">  1       21 0.51818020E-01 0.28934611E+03</pdfrwt>
<pdfrwt beam="2">  1       21 0.38242705E-01 0.28934611E+03</pdfrwt>
<totfact> 0.22233445E+04</totfact>
</mgrwt>
</event>
<event>
 4    1  0.4439578E+000  0.2057500E+03  0.7546771E-02  0.1144976E+00
         21   -1    0    0  501  502  0.00000000000E+00  0.00000000000E+00  0.38576419786E+03  0.38576419786E+03  0.00000000000E+00 0. -1.
         21   -1    0    0  502  503 -0.00000000000E+00 -0.00000000000E+00 -0.21772701955E+03  0.21772701955E+03  0.00000000000E+00 0.  1.
          6    1    1    2  501    0 -0.32655078033E+02  0.10647860741E+03  0.29652610756E+03  0.36091658375E+03  0.17300000000E+03 0. -1.
         -6    1    1    2    0  503  0.32655078033E+02 -0.10647860741E+03 -0.12848892925E+03  0.24257463366E+03  0.17300000000E+03 0.  1.
<mgrwt>
<rscale>  2 0.20574996E+03</rscale>
<asrwt>0</asrwt>
<pdfrwt beam="1">  1       21 0.59348338E-01 0.20574996E+03</pdfrwt>
<pdfrwt beam="2">  1       21 0.33496465E-01 0.20574996E+03</pdfrwt>
<totfact> 0.22596231E+04</totfact>
</mgrwt>
</event>
<event>
 4    1  0.4439578E+000  0.1822189E+03  0.7546771E-02  0.1165673E+00
         21   -1    0    0  503  502  0.00000000000E+00  0.00000000000E+00  0.58608273030E+03  0.58608273030E+03  0.00000000000E+00 0.  1.
         21   -1    0    0  501  503 -0.00000000000E+00 -0.00000000000E+00 -0.56743369465E+02  0.56743369465E+02  0.00000000000E+00 0. -1.
          6    1    1    2  501    0  0.49115923438E+02 -0.29365945711E+02  0.25188996802E+03  0.31088951204E+03  0.17300000000E+03 0. -1.
         -6    1    1    2    0  502 -0.49115923438E+02  0.29365945711E+02  0.27744939281E+03  0.33193658773E+03  0.17300000000E+03 0.  1.
<mgrwt>
<rscale>  2 0.18221891E+03</rscale>
<asrwt>0</asrwt>
<pdfrwt beam="1">  1       21 0.90166570E-01 0.18221891E+03</pdfrwt>
<pdfrwt beam="2">  1       21 0.87297495E-02 0.18221891E+03</pdfrwt>
<totfact> 0.10823313E+05</totfact>
</mgrwt>
</event>
<event>
 4    1  0.4439578E+000  0.3426318E+03  0.7546771E-02  0.1065681E+00
         21   -1    0    0  503  502  0.00000000000E+00  0.00000000000E+00  0.28495375914E+03  0.28495375914E+03  0.00000000000E+00 0.  1.
         21   -1    0    0  501  503 -0.00000000000E+00 -0.00000000000E+00 -0.76677185979E+03  0.76677185979E+03  0.00000000000E+00 0.  1.
          6    1    1    2  501    0 -0.26035117757E+03  0.14030247257E+03 -0.59861278167E+03  0.68973457348E+03  0.17300000000E+03 0.  1.
         -6    1    1    2    0  502  0.26035117757E+03 -0.14030247257E+03  0.11679468102E+03  0.36199104545E+03  0.17300000000E+03 0.  1.
<mgrwt>
<rscale>  2 0.34263175E+03</rscale>
<asrwt>0</asrwt>
<pdfrwt beam="1">  1       21 0.43839041E-01 0.34263175E+03</pdfrwt>
<pdfrwt beam="2">  1       21 0.11796490E+00 0.34263175E+03</pdfrwt>
<totfact> 0.24915317E+03</totfact>
</mgrwt>
</event>
<event>
 4    1  0.4439578E+000  0.1736183E+03  0.7546771E-02  0.1174126E+00
         21   -1    0    0  503  502  0.00000000000E+00  0.00000000000E+00  0.50632593072E+02  0.50632593072E+02  0.00000000000E+00 0. -1.
         21   -1    0    0  501  503 -0.00000000000E+00 -0.00000000000E+00 -0.65091836561E+03  0.65091836561E+03  0.00000000000E+00 0. -1.
          6    1    1    2  501    0  0.12274669131E+02  0.79776498433E+01 -0.19763865105E+03  0.26306719063E+03  0.17300000000E+03 0.  1.
         -6    1    1    2    0  502 -0.12274669131E+02 -0.79776498433E+01 -0.40264712148E+03  0.43848376805E+03  0.17300000000E+03 0.  1.
<mgrwt>
<rscale>  2 0.17361829E+03</rscale>
<asrwt>0</asrwt>
<pdfrwt beam="1">  1       21 0.77896299E-02 0.17361829E+03</pdfrwt>
<pdfrwt beam="2">  1       21 0.10014128E+00 0.17361829E+03</pdfrwt>
<totfact> 0.10365599E+05</totfact>
</mgrwt>
</event>
<event>
 4    1  0.4439578E+000  0.1732000E+03  0.7546771E-02  0.1174551E+00
         21   -1    0    0  503  502  0.00000000000E+00  0.00000000000E+00  0.74874016190E+03  0.74874016190E+03  0.00000000000E+00 0. -1.
         21   -1    0    0  501  503 -0.00000000000E+00 -0.00000000000E+00 -0.71193305007E+02  0.71193305007E+02  0.00000000000E+00 0. -1.
          6    1    1    2  501    0 -0.83165281992E+01 -0.26231107837E+00  0.67687384325E+02  0.18595648804E+03  0.17300000000E+03 0. -1.
         -6    1    1    2    0  502  0.83165281992E+01  0.26231107837E+00  0.60985947256E+03  0.63397697886E+03  0.17300000000E+03 0. -1.
<mgrwt>
<rscale>  2 0.17319998E+03</rscale>
<asrwt>0</asrwt>
<pdfrwt beam="1">  1       21 0.11519079E+00 0.17319998E+03</pdfrwt>
<pdfrwt beam="2">  1       21 0.10952817E-01 0.17319998E+03</pdfrwt>
<totfact> 0.40755989E+04</totfact>
</mgrwt>
</event>
<event>
 4    1  0.4439578E+000  0.1845646E+03  0.7546771E-02  0.1163457E+00
         21   -1    0    0  501  502  0.00000000000E+00  0.00000000000E+00  0.10512350179E+04  0.10512350179E+04  0.00000000000E+00 0. -1.
         21   -1    0    0  502  503 -0.00000000000E+00 -0.00000000000E+00 -0.80149592898E+02  0.80149592898E+02  0.00000000000E+00 0. -1.
          6    1    1    2  501    0  0.53973985782E+02 -0.34955574282E+02  0.92215589661E+03  0.94044435293E+03  0.17300000000E+03 0. -1.
         -6    1    1    2    0  503 -0.53973985782E+02  0.34955574282E+02  0.48929528359E+02  0.19094025783E+03  0.17300000000E+03 0. -1.
<mgrwt>
<rscale>  2 0.18456458E+03</rscale>
<asrwt>0</asrwt>
<pdfrwt beam="1">  1       21 0.16172846E+00 0.18456458E+03</pdfrwt>
<pdfrwt beam="2">  1       21 0.12330707E-01 0.18456458E+03</pdfrwt>
<totfact> 0.13747503E+04</totfact>
</mgrwt>
</event>
<event>
 4    1  0.4439578E+000  0.1733009E+03  0.7546771E-02  0.1174449E+00
         21   -1    0    0  503  502  0.00000000000E+00  0.00000000000E+00  0.10494222137E+04  0.10494222137E+04  0.00000000000E+00 0. -1.
         21   -1    0    0  501  503 -0.00000000000E+00 -0.00000000000E+00 -0.59827381757E+02  0.59827381757E+02  0.00000000000E+00 0. -1.
          6    1    1    2  501    0  0.30303945801E+01 -0.97469342996E+01  0.94220034310E+02  0.19725770171E+03  0.17300000000E+03 0. -1.
         -6    1    1    2    0  502 -0.30303945801E+01  0.97469342996E+01  0.89537479766E+03  0.91199189377E+03  0.17300000000E+03 0. -1.
<mgrwt>
<rscale>  2 0.17330085E+03</rscale>
<asrwt>0</asrwt>
<pdfrwt beam="1">  1       21 0.16144956E+00 0.17330085E+03</pdfrwt>
<pdfrwt beam="2">  1       21 0.92042134E-02 0.17330085E+03</pdfrwt>
<totfact> 0.23376333E+04</totfact>
</mgrwt>
</event>
<event>
 4    1  0.4439578E+000  0.1917478E+03  0.7546771E-02  0.1156894E+00
         21   -1    0    0  503  502  0.00000000000E+00  0.00000000000E+00  0.37427784918E+03  0.37427784918E+03  0.00000000000E+00 0. -1.
         21   -1    0    0  501  503 -0.00000000000E+00 -0.00000000000E+00 -0.12412203085E+03  0.12412203085E+03  0.00000000000E+00 0. -1.
          6    1    1    2  501    0  0.61018775764E+01  0.82468192076E+02  0.11272351188E+02  0.19207889399E+03  0.17300000000E+03 0. -1.
         -6    1    1    2    0  502 -0.61018775764E+01 -0.82468192076E+02  0.23888346714E+03  0.30632098604E+03  0.17300000000E+03 0. -1.
<mgrwt>
<rscale>  2 0.19174784E+03</rscale>
<asrwt>0</asrwt>
<pdfrwt beam="1">  1       21 0.57581207E-01 0.19174784E+03</pdfrwt>
<pdfrwt beam="2">  1       21 0.19095697E-01 0.19174784E+03</pdfrwt>
<totfact> 0.71232733E+04</totfact>
</mgrwt>
</event>
<event>
 4    1  0.4439578E+000  0.3048932E+03  0.7546771E-02  0.1082820E+00
         21   -1    0    0  501  502  0.00000000000E+00  0.00000000000E+00  0.10409573131E+04  0.10409573131E+04  0.00000000000E+00 0.  1.
         21   -1    0    0  502  503 -0.00000000000E+00 -0.00000000000E+00 -0.12324062255E+03  0.12324062255E+03  0.00000000000E+00 0.  1.
          6    1    1    2  501    0  0.14018884179E+03  0.20827375736E+03  0.76432594553E+03  0.82289368717E+03  0.17300000000E+03 0.  1.
         -6    1    1    2    0  503 -0.14018884179E+03 -0.20827375736E+03  0.15339074498E+03  0.34130424845E+03  0.17300000000E+03 0.  1.
<mgrwt>
<rscale>  2 0.30489321E+03</rscale>
<asrwt>0</asrwt>
<pdfrwt beam="1">  1       21 0.16014727E+00 0.30489321E+03</pdfrwt>
<pdfrwt beam="2">  1       21 0.18960096E-01 0.30489321E+03</pdfrwt>
<totfact> 0.59371311E+03</totfact>
</mgrwt>
</event>
<event>
 4    1  0.4439578E+000  0.1801177E+03  0.7546771E-02  0.1167689E+00
         21   -1    0    0  503  502  0.00000000000E+00  0.00000000000E+00  0.91533586776E+03  0.91533586776E+03  0.00000000000E+00 0. -1.
         21   -1    0    0  501  503 -0.00000000000E+00 -0.00000000000E+00 -0.41369795397E+02  0.41369795397E+02  0.00000000000E+00 0.  1.
          6    1    1    2  501    0 -0.30401278346E+02  0.39864265102E+02  0.25592796309E+03  0.31295609859E+03  0.17300000000E+03 0.  1.
         -6    1    1    2    0  502  0.30401278346E+02 -0.39864265102E+02  0.61803810928E+03  0.64374956457E+03  0.17300000000E+03 0. -1.
<mgrwt>
<rscale>  2 0.18011773E+03</rscale>
<asrwt>0</asrwt>
<pdfrwt beam="1">  1       21 0.14082089E+00 0.18011773E+03</pdfrwt>
<pdfrwt beam="2">  1       21 0.63645846E-02 0.18011773E+03</pdfrwt>
<totfact> 0.63220806E+04</totfact>
</mgrwt>
</event>
<event>
 4    1  0.4439578E+000  0.2947231E+03  0.7546771E-02  0.1087909E+00
         21   -1    0    0  501  502  0.00000000000E+00  0.00000000000E+00  0.38536655110E+03  0.38536655110E+03  0.00000000000E+00 0.  1.
         21   -1    0    0  502  503 -0.00000000000E+00 -0.00000000000E+00 -0.25625648945E+03  0.25625648945E+03  0.00000000000E+00 0. -1.
          6    1    1    2  501    0 -0.22741434637E+03 -0.72217748417E+02  0.17587793914E+03  0.34321237973E+03  0.17300000000E+03 0.  1.
         -6    1    1    2    0  503  0.22741434637E+03  0.72217748417E+02 -0.46767877492E+02  0.29841066081E+03  0.17300000000E+03 0. -1.
<mgrwt>
<rscale>  2 0.29472307E+03</rscale>
<asrwt>0</asrwt>
<pdfrwt beam="1">  1       21 0.59287162E-01 0.29472307E+03</pdfrwt>
<pdfrwt beam="2">  1       21 0.39424075E-01 0.29472307E+03</pdfrwt>
<totfact> 0.15631987E+04</totfact>
</mgrwt>
</event>
<event>
 4    1  0.4439578E+000  0.1746135E+03  0.7546771E-02  0.1173120E+00
         21   -1    0    0  501  502  0.00000000000E+00  0.00000000000E+00  0.13884288195E+04  0.13884288195E+04  0.00000000000E+00 0.  1.
         21   -1    0    0  502  503 -0.00000000000E+00 -0.00000000000E+00 -0.24628714169E+02  0.24628714169E+02  0.00000000000E+00 0.  1.
          6    1    1    2  501    0 -0.13417206196E+02  0.19515170004E+02  0.91447449015E+03  0.93099594866E+03  0.17300000000E+03 0. -1.
         -6    1    1    2    0  503  0.13417206196E+02 -0.19515170004E+02  0.44932561513E+03  0.48206158496E+03  0.17300000000E+03 0. -1.
<mgrwt>
<rscale>  2 0.17461347E+03</rscale>
<asrwt>0</asrwt>
<pdfrwt beam="1">  1       21 0.21360437E+00 0.17461347E+03</pdfrwt>
<pdfrwt beam="2">  1       21 0.37890340E-02 0.17461347E+03</pdfrwt>
<totfact> 0.47878686E+04</totfact>
</mgrwt>
</event>
<event>
 4    1  0.4439578E+000  0.2503127E+03  0.7546771E-02  0.1113107E+00
         21   -1    0    0  501  502  0.00000000000E+00  0.00000000000E+00  0.27236180082E+03  0.27236180082E+03  0.00000000000E+00 0. -1.
         21   -1    0    0  502  503 -0.00000000000E+00 -0.00000000000E+00 -0.27193875241E+03  0.27193875241E+03  0.00000000000E+00 0.  1.
          6    1    1    2  501    0  0.12877653938E+03  0.12705930013E+03  0.10702571974E+03  0.27223329614E+03  0.17300000000E+03 0. -1.
         -6    1    1    2    0  503 -0.12877653938E+03 -0.12705930013E+03 -0.10660267134E+03  0.27206725709E+03  0.17300000000E+03 0.  1.
<mgrwt>
<rscale>  2 0.25031273E+03</rscale>
<asrwt>0</asrwt>
<pdfrwt beam="1">  1       21 0.41901815E-01 0.25031273E+03</pdfrwt>
<pdfrwt beam="2">  1       21 0.41836731E-01 0.25031273E+03</pdfrwt>
<totfact> 0.29290203E+04</totfact>
</mgrwt>
</event>
<event>
 4    1  0.4439578E+000  0.1814162E+03  0.7546771E-02  0.1166439E+00
         21   -1    0    0  503  502  0.00000000000E+00  0.00000000000E+00  0.16117295604E+03  0.16117295604E+03  0.00000000000E+00 0. -1.
         21   -1    0    0  501  503 -0.00000000000E+00 -0.00000000000E+00 -0.20657732048E+03  0.20657732048E+03  0.00000000000E+00 0.  1.
          6    1    1    2  501    0  0.54234856580E+02  0.64359247406E+01 -0.29851143886E+01  0.18144076638E+03  0.17300000000E+03 0.  1.
         -6    1    1    2    0  502 -0.54234856580E+02 -0.64359247406E+01 -0.42419250044E+02  0.18630951014E+03  0.17300000000E+03 0.  1.
<mgrwt>
<rscale>  2 0.18141621E+03</rscale>
<asrwt>0</asrwt>
<pdfrwt beam="1">  1       21 0.24795840E-01 0.18141621E+03</pdfrwt>
<pdfrwt beam="2">  1       21 0.31781126E-01 0.18141621E+03</pdfrwt>
<totfact> 0.14699829E+05</totfact>
</mgrwt>
</event>
<event>
 4    1  0.4439578E+000  0.3161434E+03  0.7546771E-02  0.1077438E+00
         21   -1    0    0  501  502  0.00000000000E+00  0.00000000000E+00  0.11632725513E+04  0.11632725513E+04  0.00000000000E+00 0. -1.
         21   -1    0    0  502  503 -0.00000000000E+00 -0.00000000000E+00 -0.98527724280E+02  0.98527724280E+02  0.00000000000E+00 0.  1.
          6    1    1    2  501    0  0.25709953922E+03 -0.62589666682E+02  0.30667557208E+03  0.44045038989E+03  0.17300000000E+03 0.  1.
         -6    1    1    2    0  503 -0.25709953922E+03  0.62589666682E+02  0.75806925494E+03  0.82134988569E+03  0.17300000000E+03 0. -1.
<mgrwt>
<rscale>  2 0.31614338E+03</rscale>
<asrwt>0</asrwt>
<pdfrwt beam="1">  1       21 0.17896500E+00 0.31614338E+03</pdfrwt>
<pdfrwt beam="2">  1       21 0.15158112E-01 0.31614338E+03</pdfrwt>
<totfact> 0.65514383E+03</totfact>
</mgrwt>
</event>
<event>
 4    1  0.4439578E+000  0.2438661E+03  0.7546771E-02  0.1117244E+00
         21   -1    0    0  501  502  0.00000000000E+00  0.00000000000E+00  0.34468357168E+03  0.34468357168E+03  0.00000000000E+00 0. -1.
         21   -1    0    0  502  503 -0.00000000000E+00 -0.00000000000E+00 -0.20785764502E+03  0.20785764502E+03  0.00000000000E+00 0.  1.
          6    1    1    2  501    0  0.16822563686E+03 -0.35239556617E+02 -0.45471795430E+02  0.24806929562E+03  0.17300000000E+03 0.  1.
         -6    1    1    2    0  503 -0.16822563686E+03  0.35239556617E+02  0.18229772210E+03  0.30447192109E+03  0.17300000000E+03 0. -1.
<mgrwt>
<rscale>  2 0.24386613E+03</rscale>
<asrwt>0</asrwt>
<pdfrwt beam="1">  1       21 0.53028242E-01 0.24386613E+03</pdfrwt>
<pdfrwt beam="2">  1       21 0.31978099E-01 0.24386613E+03</pdfrwt>
<totfact> 0.30876363E+04</totfact>
</mgrwt>
</event>
<event>
 4    1  0.4439578E+000  0.2151486E+03  0.7546771E-02  0.1137553E+00
         21   -1    0    0  501  502  0.00000000000E+00  0.00000000000E+00  0.68263493860E+03  0.68263493860E+03  0.00000000000E+00 0.  1.
         21   -1    0    0  502  503 -0.00000000000E+00 -0.00000000000E+00 -0.67831525357E+02  0.67831525357E+02  0.00000000000E+00 0. -1.
          6    1    1    2  501    0 -0.94978264562E+02 -0.85668200537E+02  0.31421312500E+03  0.38081333911E+03  0.17300000000E+03 0.  1.
         -6    1    1    2    0  503  0.94978264562E+02  0.85668200537E+02  0.30059028824E+03  0.36965312485E+03  0.17300000000E+03 0. -1.
<mgrwt>
<rscale>  2 0.21514858E+03</rscale>
<asrwt>0</asrwt>
<pdfrwt beam="1">  1       21 0.10502075E+00 0.21514858E+03</pdfrwt>
<pdfrwt beam="2">  1       21 0.10435620E-01 0.21514858E+03</pdfrwt>
<totfact> 0.54339376E+04</totfact>
</mgrwt>
</event>
<event>
 4    1  0.4439578E+000  0.1778203E+03  0.7546771E-02  0.1169929E+00
         21   -1    0    0  501  502  0.00000000000E+00  0.00000000000E+00  0.77829346122E+02  0.77829346122E+02  0.00000000000E+00 0.  1.
         21   -1    0    0  502  503 -0.00000000000E+00 -0.00000000000E+00 -0.40847652084E+03  0.40847652084E+03  0.00000000000E+00 0. -1.
          6    1    1    2  501    0  0.27321258646E+02 -0.30734659454E+02 -0.14747034563E+03  0.23101422750E+03  0.17300000000E+03 0. -1.
         -6    1    1    2    0  503 -0.27321258646E+02  0.30734659454E+02 -0.18317682908E+03  0.25529163946E+03  0.17300000000E+03 0.  1.
<mgrwt>
<rscale>  2 0.17782033E+03</rscale>
<asrwt>0</asrwt>
<pdfrwt beam="1">  1       21 0.11973746E-01 0.17782033E+03</pdfrwt>
<pdfrwt beam="2">  1       21 0.62842540E-01 0.17782033E+03</pdfrwt>
<totfact> 0.13886219E+05</totfact>
</mgrwt>
</event>
<event>
 4    1  0.4439578E+000  0.2900513E+03  0.7546771E-02  0.1090322E+00
         21   -1    0    0  503  502  0.00000000000E+00  0.00000000000E+00  0.17803873480E+04  0.17803873480E+04  0.00000000000E+00 0.  1.
         21   -1    0    0  501  503 -0.00000000000E+00 -0.00000000000E+00 -0.71515738785E+02  0.71515738785E+02  0.00000000000E+00 0. -1.
          6    1    1    2  501    0 -0.18621246396E+03  0.13973430092E+03  0.31510930427E+03  0.42827985036E+03  0.17300000000E+03 0. -1.
         -6    1    1    2    0  502  0.18621246396E+03 -0.13973430092E+03  0.13937623049E+04  0.14236232364E+04  0.17300000000E+03 0.  1.
<mgrwt>
<rscale>  2 0.29005130E+03</rscale>
<asrwt>0</asrwt>
<pdfrwt beam="1">  1       21 0.27390571E+00 0.29005130E+03</pdfrwt>
<pdfrwt beam="2">  1       21 0.11002423E-01 0.29005130E+03</pdfrwt>
<totfact> 0.30170683E+03</totfact>
</mgrwt>
</event>
<event>
 4    1  0.4439578E+000  0.1993394E+03  0.7546771E-02  0.1150298E+00
         21   -1    0    0  501  502  0.00000000000E+00  0.00000000000E+00  0.33604926497E+03  0.33604926497E+03  0.00000000000E+00 0. -1.
         21   -1    0    0  502  503 -0.00000000000E+00 -0.00000000000E+00 -0.18169556229E+03  0.18169556229E+03  0.00000000000E+00 0. -1.
          6    1    1    2  501    0  0.98875592039E+02  0.55520141510E+01  0.23015546350E+03  0.30447946555E+03  0.17300000000E+03 0. -1.
         -6    1    1    2    0  503 -0.98875592039E+02 -0.55520141510E+01 -0.75801760828E+02  0.21326536171E+03  0.17300000000E+03 0. -1.
<mgrwt>
<rscale>  2 0.19933943E+03</rscale>
<asrwt>0</asrwt>
<pdfrwt beam="1">  1       21 0.51699887E-01 0.19933943E+03</pdfrwt>
<pdfrwt beam="2">  1       21 0.27953163E-01 0.19933943E+03</pdfrwt>
<totfact> 0.43284241E+04</totfact>
</mgrwt>
</event>
<event>
 4    1  0.4439578E+000  0.1780862E+03  0.7546771E-02  0.1169668E+00
         21   -1    0    0  503  502  0.00000000000E+00  0.00000000000E+00  0.22245725378E+03  0.22245725378E+03  0.00000000000E+00 0.  1.
         21   -1    0    0  501  503 -0.00000000000E+00 -0.00000000000E+00 -0.16744688213E+03  0.16744688213E+03  0.00000000000E+00 0. -1.
          6    1    1    2  501    0  0.10659515310E+02 -0.40890991538E+02 -0.47644606819E+02  0.18434941555E+03  0.17300000000E+03 0. -1.
         -6    1    1    2    0  502 -0.10659515310E+02  0.40890991538E+02  0.10265497848E+03  0.20555472036E+03  0.17300000000E+03 0.  1.
<mgrwt>
<rscale>  2 0.17808621E+03</rscale>
<asrwt>0</asrwt>
<pdfrwt beam="1">  1       21 0.34224193E-01 0.17808621E+03</pdfrwt>
<pdfrwt beam="2">  1       21 0.25761059E-01 0.17808621E+03</pdfrwt>
<totfact> 0.11827511E+05</totfact>
</mgrwt>
</event>
<event>
 4    1  0.4439578E+000  0.2205014E+03  0.7546771E-02  0.1133510E+00
         21   -1    0    0  501  502  0.00000000000E+00  0.00000000000E+00  0.82424681731E+02  0.82424681731E+02  0.00000000000E+00 0.  1.
         21   -1    0    0  502  503 -0.00000000000E+00 -0.00000000000E+00 -0.84097096795E+03  0.84097096795E+03  0.00000000000E+00 0.  1.
          6    1    1    2  501    0 -0.11873618520E+03 -0.67776110980E+02 -0.12699440399E+03  0.25445718999E+03  0.17300000000E+03 0.  1.
         -6    1    1    2    0  503  0.11873618520E+03  0.67776110980E+02 -0.63155188224E+03  0.66893845969E+03  0.17300000000E+03 0.  1.
<mgrwt>
<rscale>  2 0.22050144E+03</rscale>
<asrwt>0</asrwt>
<pdfrwt beam="1">  1       21 0.12680721E-01 0.22050144E+03</pdfrwt>
<pdfrwt beam="2">  1       21 0.12938014E+00 0.22050144E+03</pdfrwt>
<totfact> 0.22861933E+04</totfact>
</mgrwt>
</event>
<event>
 4    1  0.4439578E+000  0.2556954E+03  0.7546771E-02  0.1109757E+00
         21   -1    0    0  501  502  0.00000000000E+00  0.00000000000E+00  0.27506094523E+03  0.27506094523E+03  0.00000000000E+00 0. -1.
         21   -1    0    0  502  503 -0.00000000000E+00 -0.00000000000E+00 -0.23919661376E+03  0.23919661376E+03  0.00000000000E+00 0. -1.
          6    1    1    2  501    0 -0.14192072107E+03  0.12373213902E+03  0.38316826756E+02  0.25855040613E+03  0.17300000000E+03 0. -1.
         -6    1    1    2    0  503  0.14192072107E+03 -0.12373213902E+03 -0.24524952881E+01  0.25570715287E+03  0.17300000000E+03 0. -1.
<mgrwt>
<rscale>  2 0.25569539E+03</rscale>
<asrwt>0</asrwt>
<pdfrwt beam="1">  1       21 0.42317068E-01 0.25569539E+03</pdfrwt>
<pdfrwt beam="2">  1       21 0.36799479E-01 0.25569539E+03</pdfrwt>
<totfact> 0.37149381E+04</totfact>
</mgrwt>
</event>
<event>
 4    1  0.4439578E+000  0.2886677E+03  0.7546771E-02  0.1091047E+00
         21   -1    0    0  503  502  0.00000000000E+00  0.00000000000E+00  0.32116069412E+03  0.32116069412E+03  0.00000000000E+00 0.  1.
         21   -1    0    0  501  503 -0.00000000000E+00 -0.00000000000E+00 -0.31505681773E+03  0.31505681773E+03  0.00000000000E+00 0. -1.
          6    1    1    2  501    0 -0.37649602354E+02  0.22799683523E+03 -0.13057612934E+03  0.31682672707E+03  0.17300000000E+03 0. -1.
         -6    1    1    2    0  502  0.37649602354E+02 -0.22799683523E+03  0.13668000573E+03  0.31939078478E+03  0.17300000000E+03 0.  1.
<mgrwt>
<rscale>  2 0.28866771E+03</rscale>
<asrwt>0</asrwt>
<pdfrwt beam="1">  1       21 0.49409338E-01 0.28866771E+03</pdfrwt>
<pdfrwt beam="2">  1       21 0.48470279E-01 0.28866771E+03</pdfrwt>
<totfact> 0.15086035E+04</totfact>
</mgrwt>
</event>
<event>
 4    1  0.4439578E+000  0.2251584E+03  0.7546771E-02  0.1130095E+00
         21   -1    0    0  501  502  0.00000000000E+00  0.00000000000E+00  0.40277508341E+02  0.40277508341E+02  0.00000000000E+00 0. -1.
         21   -1    0    0  502  503 -0.00000000000E+00 -0.00000000000E+00 -0.13258555818E+04  0.13258555818E+04  0.00000000000E+00 0. -1.
          6    1    1    2  501    0 -0.11222115488E+03 -0.90408572344E+02 -0.48903150310E+03  0.53837543460E+03  0.17300000000E+03 0. -1.
         -6    1    1    2    0  503  0.11222115488E+03  0.90408572344E+02 -0.79654657033E+03  0.82775765551E+03  0.17300000000E+03 0. -1.
<mgrwt>
<rscale>  2 0.22515838E+03</rscale>
<asrwt>0</asrwt>
<pdfrwt beam="1">  1       21 0.61965403E-02 0.22515838E+03</pdfrwt>
<pdfrwt beam="2">  1       21 0.20397776E+00 0.22515838E+03</pdfrwt>
<totfact> 0.23084229E+04</totfact>
</mgrwt>
</event>
<event>
 4    1  0.4439578E+000  0.2237106E+03  0.7546771E-02  0.1131147E+00
         21   -1    0    0  501  502  0.00000000000E+00  0.00000000000E+00  0.10504286195E+03  0.10504286195E+03  0.00000000000E+00 0.  1.
         21   -1    0    0  502  503 -0.00000000000E+00 -0.00000000000E+00 -0.60395314995E+03  0.60395314995E+03  0.00000000000E+00 0. -1.
          6    1    1    2  501    0 -0.13380833090E+03 -0.47039967791E+02 -0.86565756647E+02  0.23987508877E+03  0.17300000000E+03 0.  1.
         -6    1    1    2    0  503  0.13380833090E+03  0.47039967791E+02 -0.41234453135E+03  0.46912092314E+03  0.17300000000E+03 0. -1.
<mgrwt>
<rscale>  2 0.22371059E+03</rscale>
<asrwt>0</asrwt>
<pdfrwt beam="1">  1       21 0.16160441E-01 0.22371059E+03</pdfrwt>
<pdfrwt beam="2">  1       21 0.92915868E-01 0.22371059E+03</pdfrwt>
<totfact> 0.32849426E+04</totfact>
</mgrwt>
</event>
<event>
 4    1  0.4439578E+000  0.2242012E+03  0.7546771E-02  0.1130789E+00
         21   -1    0    0  503  502  0.00000000000E+00  0.00000000000E+00  0.90497018724E+02  0.90497018724E+02  0.00000000000E+00 0. -1.
         21   -1    0    0  501  503 -0.00000000000E+00 -0.00000000000E+00 -0.62268238364E+03  0.62268238364E+03  0.00000000000E+00 0.  1.
          6    1    1    2  501    0  0.14080328053E+03 -0.22618698615E+02 -0.38326877892E+03  0.44402829440E+03  0.17300000000E+03 0. -1.
         -6    1    1    2    0  502 -0.14080328053E+03  0.22618698615E+02 -0.14891658600E+03  0.26915110797E+03  0.17300000000E+03 0. -1.
<mgrwt>
<rscale>  2 0.22420118E+03</rscale>
<asrwt>0</asrwt>
<pdfrwt beam="1">  1       21 0.13922619E-01 0.22420118E+03</pdfrwt>
<pdfrwt beam="2">  1       21 0.95797286E-01 0.22420118E+03</pdfrwt>
<totfact> 0.40139391E+04</totfact>
</mgrwt>
</event>
<event>
 4    1  0.4439578E+000  0.1950020E+03  0.7546771E-02  0.1154026E+00
         21   -1    0    0  501  502  0.00000000000E+00  0.00000000000E+00  0.14098244388E+03  0.14098244388E+03  0.00000000000E+00 0. -1.
         21   -1    0    0  502  503 -0.00000000000E+00 -0.00000000000E+00 -0.27815118739E+03  0.27815118739E+03  0.00000000000E+00 0. -1.
          6    1    1    2  501    0 -0.18225235214E+02  0.88117100358E+02 -0.10507041985E+03  0.22150750710E+03  0.17300000000E+03 0. -1.
         -6    1    1    2    0  503  0.18225235214E+02 -0.88117100358E+02 -0.32098323666E+02  0.19762612417E+03  0.17300000000E+03 0. -1.
<mgrwt>
<rscale>  2 0.19500201E+03</rscale>
<asrwt>0</asrwt>
<pdfrwt beam="1">  1       21 0.21689607E-01 0.19500201E+03</pdfrwt>
<pdfrwt beam="2">  1       21 0.42792491E-01 0.19500201E+03</pdfrwt>
<totfact> 0.10404589E+05</totfact>
</mgrwt>
</event>
<event>
 4    1  0.4439578E+000  0.2277648E+03  0.7546771E-02  0.1128223E+00
         21   -1    0    0  501  502  0.00000000000E+00  0.00000000000E+00  0.74195517121E+02  0.74195517121E+02  0.00000000000E+00 0. -1.
         21   -1    0    0  502  503 -0.00000000000E+00 -0.00000000000E+00 -0.90842177552E+03  0.90842177552E+03  0.00000000000E+00 0.  1.
          6    1    1    2  501    0  0.11898442065E+03 -0.88263932622E+02 -0.18132401421E+03  0.29112748460E+03  0.17300000000E+03 0. -1.
         -6    1    1    2    0  503 -0.11898442065E+03  0.88263932622E+02 -0.65290224419E+03  0.69148980804E+03  0.17300000000E+03 0. -1.
<mgrwt>
<rscale>  2 0.22776482E+03</rscale>
<asrwt>0</asrwt>
<pdfrwt beam="1">  1       21 0.11414696E-01 0.22776482E+03</pdfrwt>
<pdfrwt beam="2">  1       21 0.13975719E+00 0.22776482E+03</pdfrwt>
<totfact> 0.22568722E+04</totfact>
</mgrwt>
</event>
<event>
 4    1  0.4439578E+000  0.1739200E+03  0.7546771E-02  0.1173820E+00
         21   -1    0    0  501  502  0.00000000000E+00  0.00000000000E+00  0.27663294494E+03  0.27663294494E+03  0.00000000000E+00 0. -1.
         21   -1    0    0  502  503 -0.00000000000E+00 -0.00000000000E+00 -0.11226697987E+03  0.11226697987E+03  0.00000000000E+00 0. -1.
          6    1    1    2  501    0 -0.50822720745E+00 -0.17858431573E+02  0.11355821339E+03  0.20771049492E+03  0.17300000000E+03 0. -1.
         -6    1    1    2    0  503  0.50822720745E+00  0.17858431573E+02  0.50807751682E+02  0.18118942989E+03  0.17300000000E+03 0. -1.
<mgrwt>
<rscale>  2 0.17392004E+03</rscale>
<asrwt>0</asrwt>
<pdfrwt beam="1">  1       21 0.42558915E-01 0.17392004E+03</pdfrwt>
<pdfrwt beam="2">  1       21 0.17271843E-01 0.17392004E+03</pdfrwt>
<totfact> 0.16188563E+05</totfact>
</mgrwt>
</event>
<event>
 4    1  0.4439578E+000  0.1765585E+03  0.7546771E-02  0.1171176E+00
         21   -1    0    0  501  502  0.00000000000E+00  0.00000000000E+00  0.25173550670E+03  0.25173550670E+03  0.00000000000E+00 0.  1.
         21   -1    0    0  502  503 -0.00000000000E+00 -0.00000000000E+00 -0.14163950696E+03  0.14163950696E+03  0.00000000000E+00 0.  1.
          6    1    1    2  501    0 -0.25604996600E+02  0.24254660715E+02 -0.14692726325E+02  0.17716879134E+03  0.17300000000E+03 0.  1.
         -6    1    1    2    0  503  0.25604996600E+02 -0.24254660715E+02  0.12478872606E+03  0.21620622232E+03  0.17300000000E+03 0.  1.
<mgrwt>
<rscale>  2 0.17655850E+03</rscale>
<asrwt>0</asrwt>
<pdfrwt beam="1">  1       21 0.38728539E-01 0.17655850E+03</pdfrwt>
<pdfrwt beam="2">  1       21 0.21790693E-01 0.17655850E+03</pdfrwt>
<totfact> 0.12705545E+05</totfact>
</mgrwt>
</event>
<event>
 4    1  0.4439578E+000  0.1765333E+03  0.7546771E-02  0.1171201E+00
         21   -1    0    0  503  502  0.00000000000E+00  0.00000000000E+00  0.15345259505E+03  0.15345259505E+03  0.00000000000E+00 0. -1.
         21   -1    0    0  501  503 -0.00000000000E+00 -0.00000000000E+00 -0.23937549401E+03  0.23937549401E+03  0.00000000000E+00 0.  1.
          6    1    1    2  501    0 -0.26217592981E+02 -0.23401720738E+02  0.33514683541E+02  0.17968649568E+03  0.17300000000E+03 0. -1.
         -6    1    1    2    0  502  0.26217592981E+02  0.23401720738E+02 -0.11943758251E+03  0.21314159338E+03  0.17300000000E+03 0.  1.
<mgrwt>
<rscale>  2 0.17653329E+03</rscale>
<asrwt>0</asrwt>
<pdfrwt beam="1">  1       21 0.23608092E-01 0.17653329E+03</pdfrwt>
<pdfrwt beam="2">  1       21 0.36826999E-01 0.17653329E+03</pdfrwt>
<totfact> 0.12080551E+05</totfact>
</mgrwt>
</event>
<event>
 4    1  0.4439578E+000  0.3013750E+03  0.7546771E-02  0.1084555E+00
         21   -1    0    0  501  502  0.00000000000E+00  0.00000000000E+00  0.56731442064E+02  0.56731442064E+02  0.00000000000E+00 0. -1.
         21   -1    0    0  502  503 -0.00000000000E+00 -0.00000000000E+00 -0.19671383494E+04  0.19671383494E+04  0.00000000000E+00 0.  1.
          6    1    1    2  501    0 -0.18536715515E+03  0.16290151916E+03 -0.51862799962E+03  0.59983488490E+03  0.17300000000E+03 0. -1.
         -6    1    1    2    0  503  0.18536715515E+03 -0.16290151916E+03 -0.13917789077E+04  0.14240349066E+04  0.17300000000E+03 0.  1.
<mgrwt>
<rscale>  2 0.30137499E+03</rscale>
<asrwt>0</asrwt>
<pdfrwt beam="1">  1       21 0.87279142E-02 0.30137499E+03</pdfrwt>
<pdfrwt beam="2">  1       21 0.30263667E+00 0.30137499E+03</pdfrwt>
<totfact> 0.30591654E+03</totfact>
</mgrwt>
</event>
<event>
 4    1  0.4439578E+000  0.1803470E+03  0.7546771E-02  0.1167468E+00
         21   -1    0    0  501  502  0.00000000000E+00  0.00000000000E+00  0.63845584933E+03  0.63845584933E+03  0.00000000000E+00 0. -1.
         21   -1    0    0  502  503 -0.00000000000E+00 -0.00000000000E+00 -0.52596255261E+02  0.52596255261E+02  0.00000000000E+00 0. -1.
          6    1    1    2  501    0 -0.48027116243E+02 -0.17012328310E+02  0.35418443953E+03  0.39745646355E+03  0.17300000000E+03 0. -1.
         -6    1    1    2    0  503  0.48027116243E+02  0.17012328310E+02  0.23167515453E+03  0.29359564104E+03  0.17300000000E+03 0. -1.
<mgrwt>
<rscale>  2 0.18034695E+03</rscale>
<asrwt>0</asrwt>
<pdfrwt beam="1">  1       21 0.98223971E-01 0.18034695E+03</pdfrwt>
<pdfrwt beam="2">  1       21 0.80917320E-02 0.18034695E+03</pdfrwt>
<totfact> 0.10126610E+05</totfact>
</mgrwt>
</event>
<event>
 4    1  0.4439578E+000  0.2339431E+03  0.7546771E-02  0.1123895E+00
         21   -1    0    0  503  502  0.00000000000E+00  0.00000000000E+00  0.69864703555E+03  0.69864703555E+03  0.00000000000E+00 0.  1.
         21   -1    0    0  501  503 -0.00000000000E+00 -0.00000000000E+00 -0.16035742883E+03  0.16035742883E+03  0.00000000000E+00 0.  1.
          6    1    1    2  501    0  0.12997512488E+03  0.88920386561E+02 -0.38028851159E+02  0.23701384296E+03  0.17300000000E+03 0.  1.
         -6    1    1    2    0  502 -0.12997512488E+03 -0.88920386561E+02  0.57631845788E+03  0.62199062141E+03  0.17300000000E+03 0.  1.
<mgrwt>
<rscale>  2 0.23394309E+03</rscale>
<asrwt>0</asrwt>
<pdfrwt beam="1">  1       21 0.10748416E+00 0.23394309E+03</pdfrwt>
<pdfrwt beam="2">  1       21 0.24670374E-01 0.23394309E+03</pdfrwt>
<totfact> 0.10439473E+04</totfact>
</mgrwt>
</event>
<event>
 4    1  0.4439578E+000  0.1923011E+03  0.7546771E-02  0.1156402E+00
         21   -1    0    0  503  502  0.00000000000E+00  0.00000000000E+00  0.38174049993E+03  0.38174049993E+03  0.00000000000E+00 0.  1.
         21   -1    0    0  501  503 -0.00000000000E+00 -0.00000000000E+00 -0.32379180419E+03  0.32379180419E+03  0.00000000000E+00 0. -1.
          6    1    1    2  501    0 -0.53863570343E+01  0.83795560653E+02 -0.26634426921E+03  0.32851024119E+03  0.17300000000E+03 0. -1.
         -6    1    1    2    0  502  0.53863570343E+01 -0.83795560653E+02  0.32429296495E+03  0.37702206294E+03  0.17300000000E+03 0.  1.
<mgrwt>
<rscale>  2 0.19230109E+03</rscale>
<asrwt>0</asrwt>
<pdfrwt beam="1">  1       21 0.58729307E-01 0.19230109E+03</pdfrwt>
<pdfrwt beam="2">  1       21 0.49814124E-01 0.19230109E+03</pdfrwt>
<totfact> 0.10420816E+04</totfact>
</mgrwt>
</event>
<event>
 4    1  0.4439578E+000  0.2588483E+03  0.7546771E-02  0.1107837E+00
         21   -1    0    0  503  502  0.00000000000E+00  0.00000000000E+00  0.16399525230E+03  0.16399525230E+03  0.00000000000E+00 0. -1.
         21   -1    0    0  501  503 -0.00000000000E+00 -0.00000000000E+00 -0.43187762787E+03  0.43187762787E+03  0.00000000000E+00 0. -1.
          6    1    1    2  501    0  0.18054345083E+03 -0.66913986838E+02 -0.20316507462E+03  0.32905693553E+03  0.17300000000E+03 0. -1.
         -6    1    1    2    0  502 -0.18054345083E+03  0.66913986838E+02 -0.64717300944E+02  0.26681594464E+03  0.17300000000E+03 0. -1.
<mgrwt>
<rscale>  2 0.25884826E+03</rscale>
<asrwt>0</asrwt>
<pdfrwt beam="1">  1       21 0.25230039E-01 0.25884826E+03</pdfrwt>
<pdfrwt beam="2">  1       21 0.66442713E-01 0.25884826E+03</pdfrwt>
<totfact> 0.29926609E+04</totfact>
</mgrwt>
</event>
<event>
 4    1  0.4439578E+000  0.2160596E+03  0.7546771E-02  0.1136855E+00
         21   -1    0    0  501  502  0.00000000000E+00  0.00000000000E+00  0.25437790486E+03  0.25437790486E+03  0.00000000000E+00 0.  1.
         21   -1    0    0  502  503 -0.00000000000E+00 -0.00000000000E+00 -0.22766996024E+03  0.22766996024E+03  0.00000000000E+00 0. -1.
          6    1    1    2  501    0 -0.34352710992E+02  0.12479034316E+03  0.11950036103E+03  0.24690499142E+03  0.17300000000E+03 0.  1.
         -6    1    1    2    0  503  0.34352710992E+02 -0.12479034316E+03 -0.92792416414E+02  0.23514287368E+03  0.17300000000E+03 0. -1.
<mgrwt>
<rscale>  2 0.21605957E+03</rscale>
<asrwt>0</asrwt>
<pdfrwt beam="1">  1       21 0.39135062E-01 0.21605957E+03</pdfrwt>
<pdfrwt beam="2">  1       21 0.35026148E-01 0.21605957E+03</pdfrwt>
<totfact> 0.48913053E+04</totfact>
</mgrwt>
</event>
<event>
 4    1  0.4439578E+000  0.1774852E+03  0.7546771E-02  0.1170259E+00
         21   -1    0    0  503  502  0.00000000000E+00  0.00000000000E+00  0.93257783122E+03  0.93257783122E+03  0.00000000000E+00 0.  1.
         21   -1    0    0  501  503 -0.00000000000E+00 -0.00000000000E+00 -0.92049151334E+02  0.92049151334E+02  0.00000000000E+00 0.  1.
          6    1    1    2  501    0 -0.37652637301E+02 -0.12420928108E+02  0.12648405345E+02  0.17793533294E+03  0.17300000000E+03 0.  1.
         -6    1    1    2    0  502  0.37652637301E+02  0.12420928108E+02  0.82788027454E+03  0.84669164961E+03  0.17300000000E+03 0.  1.
<mgrwt>
<rscale>  2 0.17748521E+03</rscale>
<asrwt>0</asrwt>
<pdfrwt beam="1">  1       21 0.14347351E+00 0.17748521E+03</pdfrwt>
<pdfrwt beam="2">  1       21 0.14161409E-01 0.17748521E+03</pdfrwt>
<totfact> 0.14782665E+04</totfact>
</mgrwt>
</event>
<event>
 4    1  0.4439578E+000  0.1903370E+03  0.7546771E-02  0.1158158E+00
         21   -1    0    0  503  502  0.00000000000E+00  0.00000000000E+00  0.14351318170E+04  0.14351318170E+04  0.00000000000E+00 0.  1.
         21   -1    0    0  501  503 -0.00000000000E+00 -0.00000000000E+00 -0.46286665413E+02  0.46286665413E+02  0.00000000000E+00 0.  1.
          6    1    1    2  501    0 -0.23458029686E+02  0.75821522383E+02  0.19499531845E+03  0.27249102119E+03  0.17300000000E+03 0.  1.
         -6    1    1    2    0  502  0.23458029686E+02 -0.75821522383E+02  0.11938498332E+04  0.12089274613E+04  0.17300000000E+03 0.  1.
<mgrwt>
<rscale>  2 0.19033702E+03</rscale>
<asrwt>0</asrwt>
<pdfrwt beam="1">  1       21 0.22078948E+00 0.19033702E+03</pdfrwt>
<pdfrwt beam="2">  1       21 0.71210266E-02 0.19033702E+03</pdfrwt>
<totfact> 0.14637757E+04</totfact>
</mgrwt>
</event>
<event>
 4    1  0.4439578E+000  0.2371524E+03  0.7546771E-02  0.1121705E+00
         21   -1    0    0  501  502  0.00000000000E+00  0.00000000000E+00  0.12710513868E+03  0.12710513868E+03  0.00000000000E+00 0. -1.
         21   -1    0    0  502  503 -0.00000000000E+00 -0.00000000000E+00 -0.44252244637E+03  0.44252244637E+03  0.00000000000E+00 0. -1.
          6    1    1    2  501    0  0.13978384080E+03 -0.82296513502E+02 -0.15485698803E+03  0.28323475250E+03  0.17300000000E+03 0. -1.
         -6    1    1    2    0  503 -0.13978384080E+03  0.82296513502E+02 -0.16056031966E+03  0.28639283255E+03  0.17300000000E+03 0. -1.
<mgrwt>
<rscale>  2 0.23715235E+03</rscale>
<asrwt>0</asrwt>
<pdfrwt beam="1">  1       21 0.19554637E-01 0.23715235E+03</pdfrwt>
<pdfrwt beam="2">  1       21 0.68080375E-01 0.23715235E+03</pdfrwt>
<totfact> 0.46436263E+04</totfact>
</mgrwt>
</event>
<event>
 4    1  0.4439578E+000  0.2647254E+03  0.7546771E-02  0.1104337E+00
         21   -1    0    0  501  502  0.00000000000E+00  0.00000000000E+00  0.39331921181E+03  0.39331921181E+03  0.00000000000E+00 0.  1.
         21   -1    0    0  502  503 -0.00000000000E+00 -0.00000000000E+00 -0.18670279124E+03  0.18670279124E+03  0.00000000000E+00 0.  1.
          6    1    1    2  501    0  0.16786904992E+03 -0.10940981873E+03  0.16529018223E+03  0.31209032458E+03  0.17300000000E+03 0.  1.
         -6    1    1    2    0  503 -0.16786904992E+03  0.10940981873E+03  0.41326238334E+02  0.26793167847E+03  0.17300000000E+03 0.  1.
<mgrwt>
<rscale>  2 0.26472538E+03</rscale>
<asrwt>0</asrwt>
<pdfrwt beam="1">  1       21 0.60510648E-01 0.26472538E+03</pdfrwt>
<pdfrwt beam="2">  1       21 0.28723506E-01 0.26472538E+03</pdfrwt>
<totfact> 0.28476738E+04</totfact>
</mgrwt>
</event>
<event>
 4    1  0.4439578E+000  0.2562278E+03  0.7546771E-02  0.1109431E+00
         21   -1    0    0  503  502  0.00000000000E+00  0.00000000000E+00  0.57838032386E+03  0.57838032386E+03  0.00000000000E+00 0.  1.
         21   -1    0    0  501  503 -0.00000000000E+00 -0.00000000000E+00 -0.13752323116E+04  0.13752323116E+04  0.00000000000E+00 0.  1.
          6    1    1    2  501    0 -0.77011972834E+02  0.17260605988E+03 -0.13340515928E+04  0.13584352572E+04  0.17300000000E+03 0.  1.
         -6    1    1    2    0  502  0.77011972834E+02 -0.17260605988E+03  0.53719960506E+03  0.59517737822E+03  0.17300000000E+03 0.  1.
<mgrwt>
<rscale>  2 0.25622782E+03</rscale>
<asrwt>0</asrwt>
<pdfrwt beam="1">  1       21 0.88981589E-01 0.25622782E+03</pdfrwt>
<pdfrwt beam="2">  1       21 0.21157420E+00 0.25622782E+03</pdfrwt>
<totfact> 0.11299206E+02</totfact>
</mgrwt>
</event>
<event>
 4    1  0.4439578E+000  0.1944276E+03  0.7546771E-02  0.1154527E+00
         21   -1    0    0  503  502  0.00000000000E+00  0.00000000000E+00  0.11309370638E+03  0.11309370638E+03  0.00000000000E+00 0.  1.
         21   -1    0    0  501  503 -0.00000000000E+00 -0.00000000000E+00 -0.40388018930E+03  0.40388018930E+03  0.00000000000E+00 0.  1.
          6    1    1    2  501    0  0.81468288671E+02  0.35157078881E+02 -0.25271715256E+03  0.31885429502E+03  0.17300000000E+03 0.  1.
         -6    1    1    2    0  502 -0.81468288671E+02 -0.35157078881E+02 -0.38069330363E+02  0.19811960067E+03  0.17300000000E+03 0.  1.
<mgrwt>
<rscale>  2 0.19442763E+03</rscale>
<asrwt>0</asrwt>
<pdfrwt beam="1">  1       21 0.17399032E-01 0.19442763E+03</pdfrwt>
<pdfrwt beam="2">  1       21 0.62135414E-01 0.19442763E+03</pdfrwt>
<totfact> 0.71784114E+04</totfact>
</mgrwt>
</event>
<event>
 4    1  0.4439578E+000  0.1961008E+03  0.7546771E-02  0.1153071E+00
         21   -1    0    0  503  502  0.00000000000E+00  0.00000000000E+00  0.38638523195E+03  0.38638523195E+03  0.00000000000E+00 0. -1.
         21   -1    0    0  501  503 -0.00000000000E+00 -0.00000000000E+00 -0.19970987181E+03  0.19970987181E+03  0.00000000000E+00 0. -1.
          6    1    1    2  501    0 -0.65598479213E+02 -0.64987362300E+02 -0.11421887095E+03  0.22693934920E+03  0.17300000000E+03 0. -1.
         -6    1    1    2    0  502  0.65598479213E+02  0.64987362300E+02  0.30089423109E+03  0.35915575456E+03  0.17300000000E+03 0. -1.
<mgrwt>
<rscale>  2 0.19610078E+03</rscale>
<asrwt>0</asrwt>
<pdfrwt beam="1">  1       21 0.59443882E-01 0.19610078E+03</pdfrwt>
<pdfrwt beam="2">  1       21 0.30724596E-01 0.19610078E+03</pdfrwt>
<totfact> 0.26835769E+04</totfact>
</mgrwt>
</event>
<event>
 4    1  0.4439578E+000  0.1975813E+03  0.7546771E-02  0.1151796E+00
         21   -1    0    0  503  502  0.00000000000E+00  0.00000000000E+00  0.87754661739E+02  0.87754661739E+02  0.00000000000E+00 0.  1.
         21   -1    0    0  501  503 -0.00000000000E+00 -0.00000000000E+00 -0.55164546854E+03  0.55164546854E+03  0.00000000000E+00 0. -1.
          6    1    1    2  501    0 -0.91061693564E+02 -0.28585701294E+02 -0.37260604275E+03  0.42175068162E+03  0.17300000000E+03 0. -1.
         -6    1    1    2    0  502  0.91061693564E+02  0.28585701294E+02 -0.91284764049E+02  0.21764944866E+03  0.17300000000E+03 0.  1.
<mgrwt>
<rscale>  2 0.19758131E+03</rscale>
<asrwt>0</asrwt>
<pdfrwt beam="1">  1       21 0.13500717E-01 0.19758131E+03</pdfrwt>
<pdfrwt beam="2">  1       21 0.84868532E-01 0.19758131E+03</pdfrwt>
<totfact> 0.56961216E+04</totfact>
</mgrwt>
</event>
<event>
 4    1  0.4439578E+000  0.2205200E+03  0.7546771E-02  0.1133496E+00
         21   -1    0    0  503  502  0.00000000000E+00  0.00000000000E+00  0.52052878868E+02  0.52052878868E+02  0.00000000000E+00 0. -1.
         21   -1    0    0  501  503 -0.00000000000E+00 -0.00000000000E+00 -0.93607454655E+03  0.93607454655E+03  0.00000000000E+00 0. -1.
          6    1    1    2  501    0  0.10653322058E+03  0.85736587715E+02 -0.42004813884E+03  0.47441493284E+03  0.17300000000E+03 0. -1.
         -6    1    1    2    0  502 -0.10653322058E+03 -0.85736587715E+02 -0.46397352884E+03  0.51371249258E+03  0.17300000000E+03 0. -1.
<mgrwt>
<rscale>  2 0.22052004E+03</rscale>
<asrwt>0</asrwt>
<pdfrwt beam="1">  1       21 0.80081353E-02 0.22052004E+03</pdfrwt>
<pdfrwt beam="2">  1       21 0.14401147E+00 0.22052004E+03</pdfrwt>
<totfact> 0.39207557E+04</totfact>
</mgrwt>
</event>
<event>
 4    1  0.4439578E+000  0.2952791E+03  0.7546771E-02  0.1087625E+00
         21   -1    0    0  501  502  0.00000000000E+00  0.00000000000E+00  0.28669422303E+03  0.28669422303E+03  0.00000000000E+00 0. -1.
         21   -1    0    0  502  503 -0.00000000000E+00 -0.00000000000E+00 -0.32337717722E+03  0.32337717722E+03  0.00000000000E+00 0.  1.
          6    1    1    2  501    0  0.92461250316E+02 -0.22070718954E+03  0.56094095243E+02  0.30055996714E+03  0.17300000000E+03 0. -1.
         -6    1    1    2    0  503 -0.92461250316E+02  0.22070718954E+03 -0.92777049441E+02  0.30951143311E+03  0.17300000000E+03 0.  1.
<mgrwt>
<rscale>  2 0.29527910E+03</rscale>
<asrwt>0</asrwt>
<pdfrwt beam="1">  1       21 0.44106804E-01 0.29527910E+03</pdfrwt>
<pdfrwt beam="2">  1       21 0.49750335E-01 0.29527910E+03</pdfrwt>
<totfact> 0.18046894E+04</totfact>
</mgrwt>
</event>
<event>
 4    1  0.4439578E+000  0.2553443E+03  0.7546771E-02  0.1109973E+00
         21   -1    0    0  503  502  0.00000000000E+00  0.00000000000E+00  0.53341442875E+03  0.53341442875E+03  0.00000000000E+00 0.  1.
         21   -1    0    0  501  503 -0.00000000000E+00 -0.00000000000E+00 -0.13683988045E+03  0.13683988045E+03  0.00000000000E+00 0.  1.
          6    1    1    2  501    0 -0.11754138652E+03  0.14647774604E+03  0.30778015087E+03  0.39991165137E+03  0.17300000000E+03 0.  1.
         -6    1    1    2    0  502  0.11754138652E+03 -0.14647774604E+03  0.88794397435E+02  0.27034265783E+03  0.17300000000E+03 0.  1.
<mgrwt>
<rscale>  2 0.25534429E+03</rscale>
<asrwt>0</asrwt>
<pdfrwt beam="1">  1       21 0.82063758E-01 0.25534429E+03</pdfrwt>
<pdfrwt beam="2">  1       21 0.21052289E-01 0.25534429E+03</pdfrwt>
<totfact> 0.26353862E+04</totfact>
</mgrwt>
</event>
<event>
 4    1  0.4439578E+000  0.2218019E+03  0.7546771E-02  0.1132547E+00
         21   -1    0    0  501  502  0.00000000000E+00  0.00000000000E+00  0.85380273961E+03  0.85380273961E+03  0.00000000000E+00 0. -1.
         21   -1    0    0  502  503 -0.00000000000E+00 -0.00000000000E+00 -0.68494739779E+02  0.68494739779E+02  0.00000000000E+00 0.  1.
          6    1    1    2  501    0 -0.27025776883E+02  0.13614952284E+03  0.57640195872E+03  0.61760448768E+03  0.17300000000E+03 0. -1.
         -6    1    1    2    0  503  0.27025776883E+02 -0.13614952284E+03  0.20890604111E+03  0.30469299171E+03  0.17300000000E+03 0.  1.
<mgrwt>
<rscale>  2 0.22180191E+03</rscale>
<asrwt>0</asrwt>
<pdfrwt beam="1">  1       21 0.13135426E+00 0.22180191E+03</pdfrwt>
<pdfrwt beam="2">  1       21 0.10537653E-01 0.22180191E+03</pdfrwt>
<totfact> 0.30621820E+04</totfact>
</mgrwt>
</event>
<event>
 4    1  0.4439578E+000  0.2162074E+03  0.7546771E-02  0.1136743E+00
         21   -1    0    0  501  502  0.00000000000E+00  0.00000000000E+00  0.42029726353E+03  0.42029726353E+03  0.00000000000E+00 0. -1.
         21   -1    0    0  502  503 -0.00000000000E+00 -0.00000000000E+00 -0.11322924399E+03  0.11322924399E+03  0.00000000000E+00 0. -1.
          6    1    1    2  501    0 -0.42143593663E+02  0.12263989704E+03  0.18906608410E+03  0.28721352856E+03  0.17300000000E+03 0. -1.
         -6    1    1    2    0  503  0.42143593663E+02 -0.12263989704E+03  0.11800193545E+03  0.24631297896E+03  0.17300000000E+03 0. -1.
<mgrwt>
<rscale>  2 0.21620737E+03</rscale>
<asrwt>0</asrwt>
<pdfrwt beam="1">  1       21 0.64661117E-01 0.21620737E+03</pdfrwt>
<pdfrwt beam="2">  1       21 0.17419884E-01 0.21620737E+03</pdfrwt>
<totfact> 0.65053289E+04</totfact>
</mgrwt>
</event>
<event>
 4    1  0.4439578E+000  0.1762883E+03  0.7546771E-02  0.1171444E+00
         21   -1    0    0  501  502  0.00000000000E+00  0.00000000000E+00  0.23292658698E+02  0.23292658698E+02  0.00000000000E+00 0.  1.
         21   -1    0    0  502  503 -0.00000000000E+00 -0.00000000000E+00 -0.16313635971E+04  0.16313635971E+04  0.00000000000E+00 0.  1.
          6    1    1    2  501    0 -0.28540655326E+02  0.18275849991E+02 -0.45094646345E+03  0.48418001673E+03  0.17300000000E+03 0.  1.
         -6    1    1    2    0  503  0.28540655326E+02 -0.18275849991E+02 -0.11571244749E+04  0.11704762391E+04  0.17300000000E+03 0.  1.
<mgrwt>
<rscale>  2 0.17628833E+03</rscale>
<asrwt>0</asrwt>
<pdfrwt beam="1">  1       21 0.35834863E-02 0.17628833E+03</pdfrwt>
<pdfrwt beam="2">  1       21 0.25097899E+00 0.17628833E+03</pdfrwt>
<totfact> 0.31335909E+04</totfact>
</mgrwt>
</event>
<event>
 4    1  0.4439578E+000  0.2239695E+03  0.7546771E-02  0.1130958E+00
         21   -1    0    0  503  502  0.00000000000E+00  0.00000000000E+00  0.13389789649E+04  0.13389789649E+04  0.00000000000E+00 0.  1.
         21   -1    0    0  501  503 -0.00000000000E+00 -0.00000000000E+00 -0.54452514055E+02  0.54452514055E+02  0.00000000000E+00 0.  1.
          6    1    1    2  501    0 -0.89772639169E+02 -0.11033687677E+03  0.25309679172E+03  0.33796499685E+03  0.17300000000E+03 0.  1.
         -6    1    1    2    0  502  0.89772639169E+02  0.11033687677E+03  0.10314296591E+04  0.10554664821E+04  0.17300000000E+03 0.  1.
<mgrwt>
<rscale>  2 0.22396954E+03</rscale>
<asrwt>0</asrwt>
<pdfrwt beam="1">  1       21 0.20599674E+00 0.22396954E+03</pdfrwt>
<pdfrwt beam="2">  1       21 0.83773109E-02 0.22396954E+03</pdfrwt>
<totfact> 0.13287182E+04</totfact>
</mgrwt>
</event>
<event>
 4    1  0.4439578E+000  0.1872093E+03  0.7546771E-02  0.1161003E+00
         21   -1    0    0  503  502  0.00000000000E+00  0.00000000000E+00  0.62505905540E+02  0.62505905540E+02  0.00000000000E+00 0. -1.
         21   -1    0    0  501  503 -0.00000000000E+00 -0.00000000000E+00 -0.79127133849E+03  0.79127133849E+03  0.00000000000E+00 0. -1.
          6    1    1    2  501    0  0.49999460401E+02  0.51170101010E+02 -0.59481883115E+03  0.62358380926E+03  0.17300000000E+03 0.  1.
         -6    1    1    2    0  502 -0.49999460401E+02 -0.51170101010E+02 -0.13394660179E+03  0.23019343477E+03  0.17300000000E+03 0.  1.
<mgrwt>
<rscale>  2 0.18720931E+03</rscale>
<asrwt>0</asrwt>
<pdfrwt beam="1">  1       21 0.96162931E-02 0.18720931E+03</pdfrwt>
<pdfrwt beam="2">  1       21 0.12173405E+00 0.18720931E+03</pdfrwt>
<totfact> 0.44436232E+04</totfact>
</mgrwt>
</event>
<event>
 4    1  0.4439578E+000  0.1926261E+03  0.7546771E-02  0.1156114E+00
         21   -1    0    0  501  502  0.00000000000E+00  0.00000000000E+00  0.70123891273E+02  0.70123891273E+02  0.00000000000E+00 0. -1.
         21   -1    0    0  502  503 -0.00000000000E+00 -0.00000000000E+00 -0.52921336231E+03  0.52921336231E+03  0.00000000000E+00 0. -1.
          6    1    1    2  501    0 -0.23943118537E+02 -0.81256114023E+02 -0.23324927047E+03  0.30250628286E+03  0.17300000000E+03 0. -1.
         -6    1    1    2    0  503  0.23943118537E+02  0.81256114023E+02 -0.22584020056E+03  0.29683097072E+03  0.17300000000E+03 0. -1.
<mgrwt>
<rscale>  2 0.19262614E+03</rscale>
<asrwt>0</asrwt>
<pdfrwt beam="1">  1       21 0.10788291E-01 0.19262614E+03</pdfrwt>
<pdfrwt beam="2">  1       21 0.81417442E-01 0.19262614E+03</pdfrwt>
<totfact> 0.93772238E+04</totfact>
</mgrwt>
</event>
<event>
 4    1  0.4439578E+000  0.1809391E+03  0.7546771E-02  0.1166897E+00
         21   -1    0    0  501  502  0.00000000000E+00  0.00000000000E+00  0.15894705916E+03  0.15894705916E+03  0.00000000000E+00 0. -1.
         21   -1    0    0  502  503 -0.00000000000E+00 -0.00000000000E+00 -0.56972161867E+03  0.56972161867E+03  0.00000000000E+00 0. -1.
          6    1    1    2  501    0  0.49676133809E+01 -0.52775674974E+02  0.85730602002E+02  0.20022159017E+03  0.17300000000E+03 0. -1.
         -6    1    1    2    0  503 -0.49676133809E+01  0.52775674974E+02 -0.49650516151E+03  0.52844708766E+03  0.17300000000E+03 0. -1.
<mgrwt>
<rscale>  2 0.18093908E+03</rscale>
<asrwt>0</asrwt>
<pdfrwt beam="1">  1       21 0.24453394E-01 0.18093908E+03</pdfrwt>
<pdfrwt beam="2">  1       21 0.87649480E-01 0.18093908E+03</pdfrwt>
<totfact> 0.17773186E+04</totfact>
</mgrwt>
</event>
<event>
 4    1  0.4439578E+000  0.2221436E+03  0.7546771E-02  0.1132295E+00
         21   -1    0    0  503  502  0.00000000000E+00  0.00000000000E+00  0.11129954399E+03  0.11129954399E+03  0.00000000000E+00 0.  1.
         21   -1    0    0  501  503 -0.00000000000E+00 -0.00000000000E+00 -0.46459947025E+03  0.46459947025E+03  0.00000000000E+00 0.  1.
          6    1    1    2  501    0 -0.83672817933E+02  0.11143449199E+03 -0.23819076246E+03  0.32570327875E+03  0.17300000000E+03 0.  1.
         -6    1    1    2    0  502  0.83672817933E+02 -0.11143449199E+03 -0.11510916380E+03  0.25019573549E+03  0.17300000000E+03 0.  1.
<mgrwt>
<rscale>  2 0.22214362E+03</rscale>
<asrwt>0</asrwt>
<pdfrwt beam="1">  1       21 0.17123006E-01 0.22214362E+03</pdfrwt>
<pdfrwt beam="2">  1       21 0.71476843E-01 0.22214362E+03</pdfrwt>
<totfact> 0.53720842E+04</totfact>
</mgrwt>
</event>
<event>
 4    1  0.4439578E+000  0.1767256E+03  0.7546771E-02  0.1171010E+00
         21   -1    0    0  501  502  0.00000000000E+00  0.00000000000E+00  0.38170189109E+03  0.38170189109E+03  0.00000000000E+00 0. -1.
         21   -1    0    0  502  503 -0.00000000000E+00 -0.00000000000E+00 -0.88701108095E+02  0.88701108095E+02  0.00000000000E+00 0. -1.
          6    1    1    2  501    0  0.28839338310E+02 -0.21707636089E+02  0.21199649037E+03  0.27599717540E+03  0.17300000000E+03 0. -1.
         -6    1    1    2    0  503 -0.28839338310E+02  0.21707636089E+02  0.81004292626E+02  0.19440582379E+03  0.17300000000E+03 0. -1.
<mgrwt>
<rscale>  2 0.17672558E+03</rscale>
<asrwt>0</asrwt>
<pdfrwt beam="1">  1       21 0.58723367E-01 0.17672558E+03</pdfrwt>
<pdfrwt beam="2">  1       21 0.13646325E-01 0.17672558E+03</pdfrwt>
<totfact> 0.12707998E+05</totfact>
</mgrwt>
</event>
<event>
 4    1  0.4439578E+000  0.1761684E+03  0.7546771E-02  0.1171564E+00
         21   -1    0    0  501  502  0.00000000000E+00  0.00000000000E+00  0.18432275842E+03  0.18432275842E+03  0.00000000000E+00 0. -1.
         21   -1    0    0  502  503 -0.00000000000E+00 -0.00000000000E+00 -0.17993649920E+03  0.17993649920E+03  0.00000000000E+00 0. -1.
          6    1    1    2  501    0 -0.87407123283E+01 -0.32092395748E+02  0.48359990079E+02  0.18268555104E+03  0.17300000000E+03 0. -1.
         -6    1    1    2    0  503  0.87407123283E+01  0.32092395748E+02 -0.43973730860E+02  0.18157370658E+03  0.17300000000E+03 0. -1.
<mgrwt>
<rscale>  2 0.17616845E+03</rscale>
<asrwt>0</asrwt>
<pdfrwt beam="1">  1       21 0.28357348E-01 0.17616845E+03</pdfrwt>
<pdfrwt beam="2">  1       21 0.27682538E-01 0.17616845E+03</pdfrwt>
<totfact> 0.14885888E+05</totfact>
</mgrwt>
</event>
<event>
 4    1  0.4439578E+000  0.1768545E+03  0.7546771E-02  0.1170882E+00
         21   -1    0    0  503  502  0.00000000000E+00  0.00000000000E+00  0.12144429111E+03  0.12144429111E+03  0.00000000000E+00 0.  1.
         21   -1    0    0  501  503 -0.00000000000E+00 -0.00000000000E+00 -0.34446332400E+03  0.34446332400E+03  0.00000000000E+00 0.  1.
          6    1    1    2  501    0 -0.23227882337E+02  0.28442657244E+02 -0.22852704441E+03  0.28896734988E+03  0.17300000000E+03 0.  1.
         -6    1    1    2    0  502  0.23227882337E+02 -0.28442657244E+02  0.55080115267E+01  0.17694026523E+03  0.17300000000E+03 0.  1.
<mgrwt>
<rscale>  2 0.17685451E+03</rscale>
<asrwt>0</asrwt>
<pdfrwt beam="1">  1       21 0.18683737E-01 0.17685451E+03</pdfrwt>
<pdfrwt beam="2">  1       21 0.52994357E-01 0.17685451E+03</pdfrwt>
<totfact> 0.88950351E+04</totfact>
</mgrwt>
</event>
<event>
 4    1  0.4439578E+000  0.1736567E+03  0.7546771E-02  0.1174087E+00
         21   -1    0    0  503  502  0.00000000000E+00  0.00000000000E+00  0.16995431907E+03  0.16995431907E+03  0.00000000000E+00 0. -1.
         21   -1    0    0  501  503 -0.00000000000E+00 -0.00000000000E+00 -0.30084435746E+03  0.30084435746E+03  0.00000000000E+00 0. -1.
          6    1    1    2  501    0  0.70357128250E+01 -0.13347611958E+02 -0.21620980184E+03  0.27731451172E+03  0.17300000000E+03 0. -1.
         -6    1    1    2    0  502 -0.70357128250E+01  0.13347611958E+02  0.85319763443E+02  0.19348416481E+03  0.17300000000E+03 0. -1.
<mgrwt>
<rscale>  2 0.17365673E+03</rscale>
<asrwt>0</asrwt>
<pdfrwt beam="1">  1       21 0.26146819E-01 0.17365673E+03</pdfrwt>
<pdfrwt beam="2">  1       21 0.46283747E-01 0.17365673E+03</pdfrwt>
<totfact> 0.62696496E+04</totfact>
</mgrwt>
</event>
<event>
 4    1  0.4439578E+000  0.1967749E+03  0.7546771E-02  0.1152489E+00
         21   -1    0    0  503  502  0.00000000000E+00  0.00000000000E+00  0.21838735893E+04  0.21838735893E+04  0.00000000000E+00 0. -1.
         21   -1    0    0  501  503 -0.00000000000E+00 -0.00000000000E+00 -0.19009441692E+02  0.19009441692E+02  0.00000000000E+00 0.  1.
          6    1    1    2  501    0 -0.85053677357E+02 -0.39461962591E+02  0.79669669148E+03  0.82063755260E+03  0.17300000000E+03 0.  1.
         -6    1    1    2    0  502  0.85053677357E+02  0.39461962591E+02  0.13681674561E+04  0.13822454783E+04  0.17300000000E+03 0.  1.
<mgrwt>
<rscale>  2 0.19677493E+03</rscale>
<asrwt>0</asrwt>
<pdfrwt beam="1">  1       21 0.33598035E+00 0.19677493E+03</pdfrwt>
<pdfrwt beam="2">  1       21 0.29245312E-02 0.19677493E+03</pdfrwt>
<totfact> 0.13884247E+04</totfact>
</mgrwt>
</event>
<event>
 4    1  0.4439578E+000  0.2770307E+03  0.7546771E-02  0.1097322E+00
         21   -1    0    0  503  502  0.00000000000E+00  0.00000000000E+00  0.16090201371E+04  0.16090201371E+04  0.00000000000E+00 0.  1.
         21   -1    0    0  501  503 -0.00000000000E+00 -0.00000000000E+00 -0.56986824680E+02  0.56986824680E+02  0.00000000000E+00 0.  1.
          6    1    1    2  501    0 -0.88539784826E+02  0.19742780976E+03  0.43969515873E+03  0.51969016363E+03  0.17300000000E+03 0.  1.
         -6    1    1    2    0  502  0.88539784826E+02 -0.19742780976E+03  0.11123381537E+04  0.11463167981E+04  0.17300000000E+03 0.  1.
<mgrwt>
<rscale>  2 0.27703074E+03</rscale>
<asrwt>0</asrwt>
<pdfrwt beam="1">  1       21 0.24754152E+00 0.27703074E+03</pdfrwt>
<pdfrwt beam="2">  1       21 0.87672050E-02 0.27703074E+03</pdfrwt>
<totfact> 0.65497253E+03</totfact>
</mgrwt>
</event>
<event>
 4    1  0.4439578E+000  0.2048304E+03  0.7546771E-02  0.1145726E+00
         21   -1    0    0  501  502  0.00000000000E+00  0.00000000000E+00  0.41954708900E+03  0.41954708900E+03  0.00000000000E+00 0.  1.
         21   -1    0    0  502  503 -0.00000000000E+00 -0.00000000000E+00 -0.12217145737E+03  0.12217145737E+03  0.00000000000E+00 0. -1.
          6    1    1    2  501    0 -0.97491309441E+02 -0.50218874068E+02  0.33305912159E+02  0.20752053998E+03  0.17300000000E+03 0. -1.
         -6    1    1    2    0  503  0.97491309441E+02  0.50218874068E+02  0.26406971947E+03  0.33419800639E+03  0.17300000000E+03 0.  1.
<mgrwt>
<rscale>  2 0.20483040E+03</rscale>
<asrwt>0</asrwt>
<pdfrwt beam="1">  1       21 0.64545705E-01 0.20483040E+03</pdfrwt>
<pdfrwt beam="2">  1       21 0.18795609E-01 0.20483040E+03</pdfrwt>
<totfact> 0.57015747E+04</totfact>
</mgrwt>
</event>
<event>
 4    1  0.4439578E+000  0.1769047E+03  0.7546771E-02  0.1170833E+00
         21   -1    0    0  501  502  0.00000000000E+00  0.00000000000E+00  0.67795510683E+02  0.67795510683E+02  0.00000000000E+00 0. -1.
         21   -1    0    0  502  503 -0.00000000000E+00 -0.00000000000E+00 -0.46689055676E+03  0.46689055676E+03  0.00000000000E+00 0. -1.
          6    1    1    2  501    0  0.69756433052E+01  0.36298806669E+02 -0.17112297110E+03  0.24612666292E+03  0.17300000000E+03 0. -1.
         -6    1    1    2    0  503 -0.69756433052E+01 -0.36298806669E+02 -0.22797207498E+03  0.28855940452E+03  0.17300000000E+03 0. -1.
<mgrwt>
<rscale>  2 0.17690467E+03</rscale>
<asrwt>0</asrwt>
<pdfrwt beam="1">  1       21 0.10430078E-01 0.17690467E+03</pdfrwt>
<pdfrwt beam="2">  1       21 0.71829319E-01 0.17690467E+03</pdfrwt>
<totfact> 0.13256530E+05</totfact>
</mgrwt>
</event>
<event>
 4    1  0.4439578E+000  0.1790252E+03  0.7546771E-02  0.1168750E+00
         21   -1    0    0  501  502  0.00000000000E+00  0.00000000000E+00  0.84868588101E+02  0.84868588101E+02  0.00000000000E+00 0. -1.
         21   -1    0    0  502  503 -0.00000000000E+00 -0.00000000000E+00 -0.41708994507E+03  0.41708994507E+03  0.00000000000E+00 0. -1.
          6    1    1    2  501    0  0.45816340022E+02 -0.46768181776E+01 -0.24329531765E+03  0.30206393567E+03  0.17300000000E+03 0. -1.
         -6    1    1    2    0  503 -0.45816340022E+02  0.46768181776E+01 -0.88926039320E+02  0.19989459750E+03  0.17300000000E+03 0. -1.
<mgrwt>
<rscale>  2 0.17902516E+03</rscale>
<asrwt>0</asrwt>
<pdfrwt beam="1">  1       21 0.13056706E-01 0.17902516E+03</pdfrwt>
<pdfrwt beam="2">  1       21 0.64167683E-01 0.17902516E+03</pdfrwt>
<totfact> 0.11361358E+05</totfact>
</mgrwt>
</event>
<event>
 4    1  0.4439578E+000  0.1799207E+03  0.7546771E-02  0.1167880E+00
         21   -1    0    0  501  502  0.00000000000E+00  0.00000000000E+00  0.10576577355E+03  0.10576577355E+03  0.00000000000E+00 0.  1.
         21   -1    0    0  502  503 -0.00000000000E+00 -0.00000000000E+00 -0.40811517370E+03  0.40811517370E+03  0.00000000000E+00 0.  1.
          6    1    1    2  501    0  0.41528939965E+02 -0.26791900354E+02 -0.22692534850E+02  0.18134610533E+03  0.17300000000E+03 0.  1.
         -6    1    1    2    0  503 -0.41528939965E+02  0.26791900354E+02 -0.27965686530E+03  0.33253484192E+03  0.17300000000E+03 0.  1.
<mgrwt>
<rscale>  2 0.17992070E+03</rscale>
<asrwt>0</asrwt>
<pdfrwt beam="1">  1       21 0.16271658E-01 0.17992070E+03</pdfrwt>
<pdfrwt beam="2">  1       21 0.62786950E-01 0.17992070E+03</pdfrwt>
<totfact> 0.79858930E+04</totfact>
</mgrwt>
</event>
<event>
 4    1  0.4439578E+000  0.2058444E+03  0.7546771E-02  0.1144900E+00
         21   -1    0    0  501  502  0.00000000000E+00  0.00000000000E+00  0.42518526271E+03  0.42518526271E+03  0.00000000000E+00 0. -1.
         21   -1    0    0  502  503 -0.00000000000E+00 -0.00000000000E+00 -0.25276957275E+03  0.25276957275E+03  0.00000000000E+00 0. -1.
          6    1    1    2  501    0  0.71803160361E+02 -0.85365332962E+02  0.35003306632E+03  0.40607275386E+03  0.17300000000E+03 0. -1.
         -6    1    1    2    0  503 -0.71803160361E+02  0.85365332962E+02 -0.17761737636E+03  0.27188208160E+03  0.17300000000E+03 0. -1.
<mgrwt>
<rscale>  2 0.20584444E+03</rscale>
<asrwt>0</asrwt>
<pdfrwt beam="1">  1       21 0.65413117E-01 0.20584444E+03</pdfrwt>
<pdfrwt beam="2">  1       21 0.38887627E-01 0.20584444E+03</pdfrwt>
<totfact> 0.13589151E+04</totfact>
</mgrwt>
</event>
<event>
 4    1  0.4439578E+000  0.1908095E+03  0.7546771E-02  0.1157733E+00
         21   -1    0    0  503  502  0.00000000000E+00  0.00000000000E+00  0.14157691970E+03  0.14157691970E+03  0.00000000000E+00 0.  1.
         21   -1    0    0  501  503 -0.00000000000E+00 -0.00000000000E+00 -0.48356877124E+03  0.48356877124E+03  0.00000000000E+00 0. -1.
          6    1    1    2  501    0  0.79846985463E+02 -0.10183616662E+02 -0.38487413312E+03  0.42957693779E+03  0.17300000000E+03 0. -1.
         -6    1    1    2    0  502 -0.79846985463E+02  0.10183616662E+02  0.42882281579E+02  0.19556875315E+03  0.17300000000E+03 0.  1.
<mgrwt>
<rscale>  2 0.19080945E+03</rscale>
<asrwt>0</asrwt>
<pdfrwt beam="1">  1       21 0.21781064E-01 0.19080945E+03</pdfrwt>
<pdfrwt beam="2">  1       21 0.74395196E-01 0.19080945E+03</pdfrwt>
<totfact> 0.31876895E+04</totfact>
</mgrwt>
</event>
<event>
 4    1  0.4439578E+000  0.3113984E+03  0.7546771E-02  0.1079678E+00
         21   -1    0    0  501  502  0.00000000000E+00  0.00000000000E+00  0.27891205910E+03  0.27891205910E+03  0.00000000000E+00 0.  1.
         21   -1    0    0  502  503 -0.00000000000E+00 -0.00000000000E+00 -0.37285843339E+03  0.37285843339E+03  0.00000000000E+00 0.  1.
          6    1    1    2  501    0 -0.24771627534E+03 -0.75343369238E+02 -0.13167740054E+03  0.33809453437E+03  0.17300000000E+03 0.  1.
         -6    1    1    2    0  503  0.24771627534E+03  0.75343369238E+02  0.37731026247E+02  0.31367595812E+03  0.17300000000E+03 0.  1.
<mgrwt>
<rscale>  2 0.31139842E+03</rscale>
<asrwt>0</asrwt>
<pdfrwt beam="1">  1       21 0.42909547E-01 0.31139842E+03</pdfrwt>
<pdfrwt beam="2">  1       21 0.57362836E-01 0.31139842E+03</pdfrwt>
<totfact> 0.14013060E+04</totfact>
</mgrwt>
</event>
<event>
 4    1  0.4439578E+000  0.2690775E+03  0.7546771E-02  0.1101809E+00
         21   -1    0    0  501  502  0.00000000000E+00  0.00000000000E+00  0.96785062953E+03  0.96785062953E+03  0.00000000000E+00 0.  1.
         21   -1    0    0  502  503 -0.00000000000E+00 -0.00000000000E+00 -0.87084072532E+02  0.87084072532E+02  0.00000000000E+00 0. -1.
          6    1    1    2  501    0  0.21211406335E+02 -0.20499698167E+03  0.63842702080E+03  0.69281436702E+03  0.17300000000E+03 0. -1.
         -6    1    1    2    0  503 -0.21211406335E+02  0.20499698167E+03  0.24233953619E+03  0.36212033504E+03  0.17300000000E+03 0.  1.
<mgrwt>
<rscale>  2 0.26907747E+03</rscale>
<asrwt>0</asrwt>
<pdfrwt beam="1">  1       21 0.14890009E+00 0.26907747E+03</pdfrwt>
<pdfrwt beam="2">  1       21 0.13397550E-01 0.26907747E+03</pdfrwt>
<totfact> 0.13990859E+04</totfact>
</mgrwt>
</event>
<event>
 4    1  0.4439578E+000  0.1822239E+03  0.7546771E-02  0.1165668E+00
         21   -1    0    0  503  502  0.00000000000E+00  0.00000000000E+00  0.29383932882E+03  0.29383932882E+03  0.00000000000E+00 0.  1.
         21   -1    0    0  501  503 -0.00000000000E+00 -0.00000000000E+00 -0.14267759877E+03  0.14267759877E+03  0.00000000000E+00 0.  1.
          6    1    1    2  501    0 -0.68287564929E+00 -0.57237132057E+02 -0.23951645138E+02  0.18379128627E+03  0.17300000000E+03 0. -1.
         -6    1    1    2    0  502  0.68287564929E+00  0.57237132057E+02  0.17511337519E+03  0.25272564131E+03  0.17300000000E+03 0. -1.
<mgrwt>
<rscale>  2 0.18222392E+03</rscale>
<asrwt>0</asrwt>
<pdfrwt beam="1">  1       21 0.45206051E-01 0.18222392E+03</pdfrwt>
<pdfrwt beam="2">  1       21 0.21950400E-01 0.18222392E+03</pdfrwt>
<totfact> 0.91371816E+04</totfact>
</mgrwt>
</event>
<event>
 4    1  0.4439578E+000  0.1889600E+03  0.7546771E-02  0.1159403E+00
         21   -1    0    0  501  502  0.00000000000E+00  0.00000000000E+00  0.20925971190E+04  0.20925971190E+04  0.00000000000E+00 0. -1.
         21   -1    0    0  502  503 -0.00000000000E+00 -0.00000000000E+00 -0.26831084496E+02  0.26831084496E+02  0.00000000000E+00 0. -1.
          6    1    1    2  501    0  0.66920795683E+02  0.36034619871E+02  0.16722870105E+04  0.16829289147E+04  0.17300000000E+03 0. -1.
         -6    1    1    2    0  503 -0.66920795683E+02 -0.36034619871E+02  0.39347902410E+03  0.43649928881E+03  0.17300000000E+03 0. -1.
<mgrwt>
<rscale>  2 0.18896001E+03</rscale>
<asrwt>0</asrwt>
<pdfrwt beam="1">  1       21 0.32193789E+00 0.18896001E+03</pdfrwt>
<pdfrwt beam="2">  1       21 0.41278608E-02 0.18896001E+03</pdfrwt>
<totfact> 0.95207289E+03</totfact>
</mgrwt>
</event>
<event>
 4    1  0.4439578E+000  0.1887711E+03  0.7546771E-02  0.1159574E+00
         21   -1    0    0  503  502  0.00000000000E+00  0.00000000000E+00  0.18566344595E+03  0.18566344595E+03  0.00000000000E+00 0.  1.
         21   -1    0    0  501  503 -0.00000000000E+00 -0.00000000000E+00 -0.23547818911E+03  0.23547818911E+03  0.00000000000E+00 0.  1.
          6    1    1    2  501    0  0.13360184610E+02 -0.74344063353E+02 -0.11546058887E+03  0.22128190588E+03  0.17300000000E+03 0.  1.
         -6    1    1    2    0  502 -0.13360184610E+02  0.74344063353E+02  0.65645845704E+02  0.19985972918E+03  0.17300000000E+03 0.  1.
<mgrwt>
<rscale>  2 0.18877112E+03</rscale>
<asrwt>0</asrwt>
<pdfrwt beam="1">  1       21 0.28563607E-01 0.18877112E+03</pdfrwt>
<pdfrwt beam="2">  1       21 0.36227414E-01 0.18877112E+03</pdfrwt>
<totfact> 0.86268543E+04</totfact>
</mgrwt>
</event>
<event>
 4    1  0.4439578E+000  0.1781970E+03  0.7546771E-02  0.1169559E+00
         21   -1    0    0  501  502  0.00000000000E+00  0.00000000000E+00  0.27231897491E+03  0.27231897491E+03  0.00000000000E+00 0. -1.
         21   -1    0    0  502  503 -0.00000000000E+00 -0.00000000000E+00 -0.92414691939E+03  0.92414691939E+03  0.00000000000E+00 0. -1.
          6    1    1    2  501    0  0.32183725398E+02  0.28095842854E+02  0.23330506342E+03  0.29357353624E+03  0.17300000000E+03 0. -1.
         -6    1    1    2    0  503 -0.32183725398E+02 -0.28095842854E+02 -0.88513300789E+03  0.90289235805E+03  0.17300000000E+03 0. -1.
<mgrwt>
<rscale>  2 0.17819699E+03</rscale>
<asrwt>0</asrwt>
<pdfrwt beam="1">  1       21 0.41895227E-01 0.17819699E+03</pdfrwt>
<pdfrwt beam="2">  1       21 0.14217645E+00 0.17819699E+03</pdfrwt>
<totfact> 0.19124915E+03</totfact>
</mgrwt>
</event>
<event>
 4    1  0.4439578E+000  0.2011426E+03  0.7546771E-02  0.1148779E+00
         21   -1    0    0  501  502  0.00000000000E+00  0.00000000000E+00  0.14606449894E+04  0.14606449894E+04  0.00000000000E+00 0. -1.
         21   -1    0    0  502  503 -0.00000000000E+00 -0.00000000000E+00 -0.27698953527E+02  0.27698953527E+02  0.00000000000E+00 0. -1.
          6    1    1    2  501    0 -0.66756030403E+02  0.77929247822E+02  0.71665498393E+03  0.74434716447E+03  0.17300000000E+03 0. -1.
         -6    1    1    2    0  503  0.66756030403E+02 -0.77929247822E+02  0.71629105192E+03  0.74399677843E+03  0.17300000000E+03 0. -1.
<mgrwt>
<rscale>  2 0.20114257E+03</rscale>
<asrwt>0</asrwt>
<pdfrwt beam="1">  1       21 0.22471455E+00 0.20114257E+03</pdfrwt>
<pdfrwt beam="2">  1       21 0.42613786E-02 0.20114257E+03</pdfrwt>
<totfact> 0.32959099E+04</totfact>
</mgrwt>
</event>
<event>
 4    1  0.4439578E+000  0.2158207E+03  0.7546771E-02  0.1137038E+00
         21   -1    0    0  503  502  0.00000000000E+00  0.00000000000E+00  0.34592652705E+03  0.34592652705E+03  0.00000000000E+00 0. -1.
         21   -1    0    0  501  503 -0.00000000000E+00 -0.00000000000E+00 -0.15291836033E+03  0.15291836033E+03  0.00000000000E+00 0. -1.
          6    1    1    2  501    0 -0.12499880647E+03 -0.32013941242E+02  0.18271647289E+03  0.28277889511E+03  0.17300000000E+03 0. -1.
         -6    1    1    2    0  502  0.12499880647E+03  0.32013941242E+02  0.10291693828E+02  0.21606599227E+03  0.17300000000E+03 0. -1.
<mgrwt>
<rscale>  2 0.21582075E+03</rscale>
<asrwt>0</asrwt>
<pdfrwt beam="1">  1       21 0.53219465E-01 0.21582075E+03</pdfrwt>
<pdfrwt beam="2">  1       21 0.23525902E-01 0.21582075E+03</pdfrwt>
<totfact> 0.56243015E+04</totfact>
</mgrwt>
</event>
<event>
 4    1  0.4439578E+000  0.2351138E+03  0.7546771E-02  0.1123091E+00
         21   -1    0    0  503  502  0.00000000000E+00  0.00000000000E+00  0.11454274834E+03  0.11454274834E+03  0.00000000000E+00 0.  1.
         21   -1    0    0  501  503 -0.00000000000E+00 -0.00000000000E+00 -0.50475787555E+03  0.50475787555E+03  0.00000000000E+00 0.  1.
          6    1    1    2  501    0 -0.14320410912E+03 -0.69585082125E+02 -0.25998287707E+03  0.35052759791E+03  0.17300000000E+03 0.  1.
         -6    1    1    2    0  502  0.14320410912E+03  0.69585082125E+02 -0.13023225014E+03  0.26877302599E+03  0.17300000000E+03 0.  1.
<mgrwt>
<rscale>  2 0.23511380E+03</rscale>
<asrwt>0</asrwt>
<pdfrwt beam="1">  1       21 0.17621961E-01 0.23511380E+03</pdfrwt>
<pdfrwt beam="2">  1       21 0.77655058E-01 0.23511380E+03</pdfrwt>
<totfact> 0.42062070E+04</totfact>
</mgrwt>
</event>
<event>
 4    1  0.4439578E+000  0.2010012E+03  0.7546771E-02  0.1148897E+00
         21   -1    0    0  501  502  0.00000000000E+00  0.00000000000E+00  0.17100041733E+03  0.17100041733E+03  0.00000000000E+00 0. -1.
         21   -1    0    0  502  503 -0.00000000000E+00 -0.00000000000E+00 -0.26390823434E+03  0.26390823434E+03  0.00000000000E+00 0.  1.
          6    1    1    2  501    0  0.15520005217E+02 -0.10115147100E+03  0.23923370108E+02  0.20241990585E+03  0.17300000000E+03 0. -1.
         -6    1    1    2    0  503 -0.15520005217E+02  0.10115147100E+03 -0.11683118712E+03  0.23248874581E+03  0.17300000000E+03 0.  1.
<mgrwt>
<rscale>  2 0.20100122E+03</rscale>
<asrwt>0</asrwt>
<pdfrwt beam="1">  1       21 0.26307757E-01 0.20100122E+03</pdfrwt>
<pdfrwt beam="2">  1       21 0.40601267E-01 0.20100122E+03</pdfrwt>
<totfact> 0.80004795E+04</totfact>
</mgrwt>
</event>
<event>
 4    1  0.4439578E+000  0.2271160E+03  0.7546771E-02  0.1128686E+00
         21   -1    0    0  501  502  0.00000000000E+00  0.00000000000E+00  0.52577458044E+03  0.52577458044E+03  0.00000000000E+00 0.  1.
         21   -1    0    0  502  503 -0.00000000000E+00 -0.00000000000E+00 -0.20536750385E+03  0.20536750385E+03  0.00000000000E+00 0. -1.
          6    1    1    2  501    0 -0.11088835987E+03  0.96728796780E+02  0.42440041705E+03  0.48134956370E+03  0.17300000000E+03 0. -1.
         -6    1    1    2    0  503  0.11088835987E+03 -0.96728796780E+02 -0.10399334046E+03  0.24979252059E+03  0.17300000000E+03 0. -1.
<mgrwt>
<rscale>  2 0.22711602E+03</rscale>
<asrwt>0</asrwt>
<pdfrwt beam="1">  1       21 0.80888397E-01 0.22711602E+03</pdfrwt>
<pdfrwt beam="2">  1       21 0.31595001E-01 0.22711602E+03</pdfrwt>
<totfact> 0.12638233E+04</totfact>
</mgrwt>
</event>
<event>
 4    1  0.4439578E+000  0.1794173E+03  0.7546771E-02  0.1168368E+00
         21   -1    0    0  501  502  0.00000000000E+00  0.00000000000E+00  0.46328400928E+03  0.46328400928E+03  0.00000000000E+00 0. -1.
         21   -1    0    0  502  503 -0.00000000000E+00 -0.00000000000E+00 -0.74321473768E+02  0.74321473768E+02  0.00000000000E+00 0. -1.
          6    1    1    2  501    0 -0.41623048790E+02 -0.23002104268E+02  0.26306327282E+03  0.31842245602E+03  0.17300000000E+03 0. -1.
         -6    1    1    2    0  503  0.41623048790E+02  0.23002104268E+02  0.12589926270E+03  0.21918302703E+03  0.17300000000E+03 0. -1.
<mgrwt>
<rscale>  2 0.17941732E+03</rscale>
<asrwt>0</asrwt>
<pdfrwt beam="1">  1       21 0.71274461E-01 0.17941732E+03</pdfrwt>
<pdfrwt beam="2">  1       21 0.11434073E-01 0.17941732E+03</pdfrwt>
<totfact> 0.11446173E+05</totfact>
</mgrwt>
</event>
<event>
 4    1  0.4439578E+000  0.2686135E+03  0.7546771E-02  0.1102076E+00
         21   -1    0    0  501  502  0.00000000000E+00  0.00000000000E+00  0.26421240455E+03  0.26421240455E+03  0.00000000000E+00 0.  1.
         21   -1    0    0  502  503 -0.00000000000E+00 -0.00000000000E+00 -0.27935133452E+03  0.27935133452E+03  0.00000000000E+00 0. -1.
          6    1    1    2  501    0  0.20412986011E+03  0.23562434610E+02  0.33126780323E+02  0.27064842820E+03  0.17300000000E+03 0. -1.
         -6    1    1    2    0  503 -0.20412986011E+03 -0.23562434610E+02 -0.48265710292E+02  0.27291531087E+03  0.17300000000E+03 0. -1.
<mgrwt>
<rscale>  2 0.26861345E+03</rscale>
<asrwt>0</asrwt>
<pdfrwt beam="1">  1       21 0.40648062E-01 0.26861345E+03</pdfrwt>
<pdfrwt beam="2">  1       21 0.42977128E-01 0.26861345E+03</pdfrwt>
<totfact> 0.29263614E+04</totfact>
</mgrwt>
</event>
<event>
 4    1  0.4439578E+000  0.1740832E+03  0.7546771E-02  0.1173655E+00
         21   -1    0    0  503  502  0.00000000000E+00  0.00000000000E+00  0.10218987308E+03  0.10218987308E+03  0.00000000000E+00 0. -1.
         21   -1    0    0  501  503 -0.00000000000E+00 -0.00000000000E+00 -0.38522598664E+03  0.38522598664E+03  0.00000000000E+00 0. -1.
          6    1    1    2  501    0 -0.18945562334E+02 -0.41250374592E+01 -0.25844157243E+03  0.31160390983E+03  0.17300000000E+03 0. -1.
         -6    1    1    2    0  502  0.18945562334E+02  0.41250374592E+01 -0.24594541132E+02  0.17581194988E+03  0.17300000000E+03 0. -1.
<mgrwt>
<rscale>  2 0.17408317E+03</rscale>
<asrwt>0</asrwt>
<pdfrwt beam="1">  1       21 0.15721519E-01 0.17408317E+03</pdfrwt>
<pdfrwt beam="2">  1       21 0.59265537E-01 0.17408317E+03</pdfrwt>
<totfact> 0.96496593E+04</totfact>
</mgrwt>
</event>
<event>
 4    1  0.4439578E+000  0.1858158E+03  0.7546771E-02  0.1162290E+00
         21   -1    0    0  501  502  0.00000000000E+00  0.00000000000E+00  0.32820384252E+03  0.32820384252E+03  0.00000000000E+00 0.  1.
         21   -1    0    0  502  503 -0.00000000000E+00 -0.00000000000E+00 -0.17420422500E+03  0.17420422500E+03  0.00000000000E+00 0. -1.
          6    1    1    2  501    0 -0.48285472492E+02  0.47613357599E+02  0.23509933161E+03  0.29966517048E+03  0.17300000000E+03 0.  1.
         -6    1    1    2    0  503  0.48285472492E+02 -0.47613357599E+02 -0.81099714090E+02  0.20274289704E+03  0.17300000000E+03 0. -1.
<mgrwt>
<rscale>  2 0.18581582E+03</rscale>
<asrwt>0</asrwt>
<pdfrwt beam="1">  1       21 0.50492899E-01 0.18581582E+03</pdfrwt>
<pdfrwt beam="2">  1       21 0.26800650E-01 0.18581582E+03</pdfrwt>
<totfact> 0.49650167E+04</totfact>
</mgrwt>
</event>
<event>
 4    1  0.4439578E+000  0.1906194E+03  0.7546771E-02  0.1157904E+00
         21   -1    0    0  501  502  0.00000000000E+00  0.00000000000E+00  0.17114739163E+03  0.17114739163E+03  0.00000000000E+00 0.  1.
         21   -1    0    0  502  503 -0.00000000000E+00 -0.00000000000E+00 -0.23505568316E+03  0.23505568316E+03  0.00000000000E+00 0. -1.
          6    1    1    2  501    0 -0.76430633096E+02  0.23771930322E+02  0.31230034891E+02  0.19316071398E+03  0.17300000000E+03 0.  1.
         -6    1    1    2    0  503  0.76430633096E+02 -0.23771930322E+02 -0.95138326424E+02  0.21304236081E+03  0.17300000000E+03 0. -1.
<mgrwt>
<rscale>  2 0.19061938E+03</rscale>
<asrwt>0</asrwt>
<pdfrwt beam="1">  1       21 0.26330368E-01 0.19061938E+03</pdfrwt>
<pdfrwt beam="2">  1       21 0.36162413E-01 0.19061938E+03</pdfrwt>
<totfact> 0.10122323E+05</totfact>
</mgrwt>
</event>
<event>
 4    1  0.4439578E+000  0.1741494E+03  0.7546771E-02  0.1173589E+00
         21   -1    0    0  501  502  0.00000000000E+00  0.00000000000E+00  0.10203945896E+04  0.10203945896E+04  0.00000000000E+00 0. -1.
         21   -1    0    0  502  503 -0.00000000000E+00 -0.00000000000E+00 -0.54603943795E+02  0.54603943795E+02  0.00000000000E+00 0. -1.
          6    1    1    2  501    0  0.11144208121E+02  0.16577423304E+02  0.84573053095E+03  0.86347445551E+03  0.17300000000E+03 0. -1.
         -6    1    1    2    0  503 -0.11144208121E+02 -0.16577423304E+02  0.12006011481E+03  0.21152407784E+03  0.17300000000E+03 0. -1.
<mgrwt>
<rscale>  2 0.17414937E+03</rscale>
<asrwt>0</asrwt>
<pdfrwt beam="1">  1       21 0.15698377E+00 0.17414937E+03</pdfrwt>
<pdfrwt beam="2">  1       21 0.84006075E-02 0.17414937E+03</pdfrwt>
<totfact> 0.29545971E+04</totfact>
</mgrwt>
</event>
<event>
 4    1  0.4439578E+000  0.1851028E+03  0.7546771E-02  0.1162954E+00
         21   -1    0    0  503  502  0.00000000000E+00  0.00000000000E+00  0.44360204338E+03  0.44360204338E+03  0.00000000000E+00 0. -1.
         21   -1    0    0  501  503 -0.00000000000E+00 -0.00000000000E+00 -0.23049804071E+03  0.23049804071E+03  0.00000000000E+00 0.  1.
          6    1    1    2  501    0  0.64099187381E+02  0.15011252728E+02 -0.16828480104E+03  0.25016558075E+03  0.17300000000E+03 0.  1.
         -6    1    1    2    0  502 -0.64099187381E+02 -0.15011252728E+02  0.38138880371E+03  0.42393450334E+03  0.17300000000E+03 0. -1.
<mgrwt>
<rscale>  2 0.18510279E+03</rscale>
<asrwt>0</asrwt>
<pdfrwt beam="1">  1       21 0.68246468E-01 0.18510279E+03</pdfrwt>
<pdfrwt beam="2">  1       21 0.35461237E-01 0.18510279E+03</pdfrwt>
<totfact> 0.15094404E+04</totfact>
</mgrwt>
</event>
<event>
 4    1  0.4439578E+000  0.2496264E+03  0.7546771E-02  0.1113541E+00
         21   -1    0    0  501  502  0.00000000000E+00  0.00000000000E+00  0.75611604294E+02  0.75611604294E+02  0.00000000000E+00 0. -1.
         21   -1    0    0  502  503 -0.00000000000E+00 -0.00000000000E+00 -0.92719447533E+03  0.92719447533E+03  0.00000000000E+00 0. -1.
          6    1    1    2  501    0 -0.35343406990E+02  0.17645160094E+03 -0.25861730569E+03  0.35943877739E+03  0.17300000000E+03 0. -1.
         -6    1    1    2    0  503  0.35343406990E+02 -0.17645160094E+03 -0.59296556535E+03  0.64336730223E+03  0.17300000000E+03 0. -1.
<mgrwt>
<rscale>  2 0.24962637E+03</rscale>
<asrwt>0</asrwt>
<pdfrwt beam="1">  1       21 0.11632554E-01 0.24962637E+03</pdfrwt>
<pdfrwt beam="2">  1       21 0.14264531E+00 0.24962637E+03</pdfrwt>
<totfact> 0.20435904E+04</totfact>
</mgrwt>
</event>
<event>
 4    1  0.4439578E+000  0.2455201E+03  0.7546771E-02  0.1116169E+00
         21   -1    0    0  503  502  0.00000000000E+00  0.00000000000E+00  0.29896667247E+03  0.29896667247E+03  0.00000000000E+00 0.  1.
         21   -1    0    0  501  503 -0.00000000000E+00 -0.00000000000E+00 -0.33648835362E+03  0.33648835362E+03  0.00000000000E+00 0.  1.
          6    1    1    2  501    0  0.78122594909E+02  0.15571763424E+03 -0.21990692325E+03  0.32960457573E+03  0.17300000000E+03 0.  1.
         -6    1    1    2    0  502 -0.78122594909E+02 -0.15571763424E+03  0.18238524210E+03  0.30585045036E+03  0.17300000000E+03 0.  1.
<mgrwt>
<rscale>  2 0.24552010E+03</rscale>
<asrwt>0</asrwt>
<pdfrwt beam="1">  1       21 0.45994873E-01 0.24552010E+03</pdfrwt>
<pdfrwt beam="2">  1       21 0.51767439E-01 0.24552010E+03</pdfrwt>
<totfact> 0.15569411E+04</totfact>
</mgrwt>
</event>
<event>
 4    1  0.4439578E+000  0.2374255E+03  0.7546771E-02  0.1121520E+00
         21   -1    0    0  501  502  0.00000000000E+00  0.00000000000E+00  0.47532140794E+03  0.47532140794E+03  0.00000000000E+00 0.  1.
         21   -1    0    0  502  503 -0.00000000000E+00 -0.00000000000E+00 -0.11948281065E+03  0.11948281065E+03  0.00000000000E+00 0. -1.
          6    1    1    2  501    0  0.15430786796E+03  0.51292649666E+02  0.20355198039E+03  0.31273673072E+03  0.17300000000E+03 0.  1.
         -6    1    1    2    0  503 -0.15430786796E+03 -0.51292649666E+02  0.15228661691E+03  0.28206748787E+03  0.17300000000E+03 0. -1.
<mgrwt>
<rscale>  2 0.23742547E+03</rscale>
<asrwt>0</asrwt>
<pdfrwt beam="1">  1       21 0.73126369E-01 0.23742547E+03</pdfrwt>
<pdfrwt beam="2">  1       21 0.18381971E-01 0.23742547E+03</pdfrwt>
<totfact> 0.44465314E+04</totfact>
</mgrwt>
</event>
<event>
 4    1  0.4439578E+000  0.2020439E+03  0.7546771E-02  0.1148026E+00
         21   -1    0    0  503  502  0.00000000000E+00  0.00000000000E+00  0.45262905040E+02  0.45262905040E+02  0.00000000000E+00 0.  1.
         21   -1    0    0  501  503 -0.00000000000E+00 -0.00000000000E+00 -0.14069800473E+04  0.14069800473E+04  0.00000000000E+00 0. -1.
          6    1    1    2  501    0  0.10248386679E+03  0.19742795224E+02 -0.11159233260E+04  0.11340663960E+04  0.17300000000E+03 0. -1.
         -6    1    1    2    0  502 -0.10248386679E+03 -0.19742795224E+02 -0.24579381620E+03  0.31817655633E+03  0.17300000000E+03 0.  1.
<mgrwt>
<rscale>  2 0.20204386E+03</rscale>
<asrwt>0</asrwt>
<pdfrwt beam="1">  1       21 0.69635244E-02 0.20204386E+03</pdfrwt>
<pdfrwt beam="2">  1       21 0.21645845E+00 0.20204386E+03</pdfrwt>
<totfact> 0.16022614E+04</totfact>
</mgrwt>
</event>
<event>
 4    1  0.4439578E+000  0.1740568E+03  0.7546771E-02  0.1173682E+00
         21   -1    0    0  503  502  0.00000000000E+00  0.00000000000E+00  0.96124858902E+03  0.96124858902E+03  0.00000000000E+00 0.  1.
         21   -1    0    0  501  503 -0.00000000000E+00 -0.00000000000E+00 -0.32061281237E+02  0.32061281237E+02  0.00000000000E+00 0.  1.
          6    1    1    2  501    0 -0.17267057838E+02 -0.82831990543E+01  0.39988858974E+03  0.43612687016E+03  0.17300000000E+03 0.  1.
         -6    1    1    2    0  502  0.17267057838E+02  0.82831990543E+01  0.52929871804E+03  0.55718300009E+03  0.17300000000E+03 0.  1.
<mgrwt>
<rscale>  2 0.17405678E+03</rscale>
<asrwt>0</asrwt>
<pdfrwt beam="1">  1       21 0.14788438E+00 0.17405678E+03</pdfrwt>
<pdfrwt beam="2">  1       21 0.49325055E-02 0.17405678E+03</pdfrwt>
<totfact> 0.86196420E+04</totfact>
</mgrwt>
</event>
<event>
 4    1  0.4439578E+000  0.1957482E+03  0.7546771E-02  0.1153377E+00
         21   -1    0    0  501  502  0.00000000000E+00  0.00000000000E+00  0.10709851655E+03  0.10709851655E+03  0.00000000000E+00 0.  1.
         21   -1    0    0  502  503 -0.00000000000E+00 -0.00000000000E+00 -0.45779582504E+03  0.45779582504E+03  0.00000000000E+00 0.  1.
          6    1    1    2  501    0 -0.77595888609E+02  0.48654242316E+02 -0.30736957934E+03  0.36440830881E+03  0.17300000000E+03 0.  1.
         -6    1    1    2    0  503  0.77595888609E+02 -0.48654242316E+02 -0.43327729151E+02  0.20048603277E+03  0.17300000000E+03 0.  1.
<mgrwt>
<rscale>  2 0.19574820E+03</rscale>
<asrwt>0</asrwt>
<pdfrwt beam="1">  1       21 0.16476695E-01 0.19574820E+03</pdfrwt>
<pdfrwt beam="2">  1       21 0.70430127E-01 0.19574820E+03</pdfrwt>
<totfact> 0.60315090E+04</totfact>
</mgrwt>
</event>
<event>
 4    1  0.4439578E+000  0.1988528E+03  0.7546771E-02  0.1150711E+00
         21   -1    0    0  503  502  0.00000000000E+00  0.00000000000E+00  0.46769800912E+03  0.46769800912E+03  0.00000000000E+00 0. -1.
         21   -1    0    0  501  503 -0.00000000000E+00 -0.00000000000E+00 -0.93953986967E+02  0.93953986967E+02  0.00000000000E+00 0. -1.
          6    1    1    2  501    0  0.97937028183E+02 -0.46672593825E+01  0.27573192779E+03  0.33995667489E+03  0.17300000000E+03 0. -1.
         -6    1    1    2    0  502 -0.97937028183E+02  0.46672593825E+01  0.98012094363E+02  0.22169532120E+03  0.17300000000E+03 0. -1.
<mgrwt>
<rscale>  2 0.19885282E+03</rscale>
<asrwt>0</asrwt>
<pdfrwt beam="1">  1       21 0.71953538E-01 0.19885282E+03</pdfrwt>
<pdfrwt beam="2">  1       21 0.14454460E-01 0.19885282E+03</pdfrwt>
<totfact> 0.72957966E+04</totfact>
</mgrwt>
</event>
<event>
 4    1  0.4439578E+000  0.2026903E+03  0.7546771E-02  0.1147489E+00
         21   -1    0    0  503  502  0.00000000000E+00  0.00000000000E+00  0.86120099521E+02  0.86120099521E+02  0.00000000000E+00 0. -1.
         21   -1    0    0  501  503 -0.00000000000E+00 -0.00000000000E+00 -0.57553371704E+03  0.57553371704E+03  0.00000000000E+00 0. -1.
          6    1    1    2  501    0 -0.53285158951E+02 -0.91186845739E+02 -0.38155968063E+03  0.43205455545E+03  0.17300000000E+03 0. -1.
         -6    1    1    2    0  502  0.53285158951E+02  0.91186845739E+02 -0.10785393688E+03  0.22959926111E+03  0.17300000000E+03 0. -1.
<mgrwt>
<rscale>  2 0.20269028E+03</rscale>
<asrwt>0</asrwt>
<pdfrwt beam="1">  1       21 0.13249246E-01 0.20269028E+03</pdfrwt>
<pdfrwt beam="2">  1       21 0.88543650E-01 0.20269028E+03</pdfrwt>
<totfact> 0.53321035E+04</totfact>
</mgrwt>
</event>
<event>
 4    1  0.4439578E+000  0.2188100E+03  0.7546771E-02  0.1134773E+00
         21   -1    0    0  503  502  0.00000000000E+00  0.00000000000E+00  0.15349041008E+03  0.15349041008E+03  0.00000000000E+00 0.  1.
         21   -1    0    0  501  503 -0.00000000000E+00 -0.00000000000E+00 -0.31229331639E+03  0.31229331639E+03  0.00000000000E+00 0. -1.
          6    1    1    2  501    0 -0.10975209311E+03  0.76832914679E+02 -0.87376642206E+02  0.23561090027E+03  0.17300000000E+03 0. -1.
         -6    1    1    2    0  502  0.10975209311E+03 -0.76832914679E+02 -0.71426264105E+02  0.23017282621E+03  0.17300000000E+03 0.  1.
<mgrwt>
<rscale>  2 0.21881001E+03</rscale>
<asrwt>0</asrwt>
<pdfrwt beam="1">  1       21 0.23613909E-01 0.21881001E+03</pdfrwt>
<pdfrwt beam="2">  1       21 0.48045125E-01 0.21881001E+03</pdfrwt>
<totfact> 0.69101369E+04</totfact>
</mgrwt>
</event>
<event>
 4    1  0.4439578E+000  0.2432263E+03  0.7546771E-02  0.1117662E+00
         21   -1    0    0  503  502  0.00000000000E+00  0.00000000000E+00  0.43421015807E+03  0.43421015807E+03  0.00000000000E+00 0. -1.
         21   -1    0    0  501  503 -0.00000000000E+00 -0.00000000000E+00 -0.24847530647E+03  0.24847530647E+03  0.00000000000E+00 0. -1.
          6    1    1    2  501    0 -0.15277439676E+03  0.76746432551E+02 -0.13653806759E+03  0.27892951639E+03  0.17300000000E+03 0. -1.
         -6    1    1    2    0  502  0.15277439676E+03 -0.76746432551E+02  0.32227291919E+03  0.40375594814E+03  0.17300000000E+03 0. -1.
<mgrwt>
<rscale>  2 0.24322630E+03</rscale>
<asrwt>0</asrwt>
<pdfrwt beam="1">  1       21 0.66801563E-01 0.24322630E+03</pdfrwt>
<pdfrwt beam="2">  1       21 0.38226970E-01 0.24322630E+03</pdfrwt>
<totfact> 0.13143455E+04</totfact>
</mgrwt>
</event>
<event>
 4    1  0.4439578E+000  0.2445687E+03  0.7546771E-02  0.1116786E+00
         21   -1    0    0  501  502  0.00000000000E+00  0.00000000000E+00  0.31344703133E+03  0.31344703133E+03  0.00000000000E+00 0. -1.
         21   -1    0    0  502  503 -0.00000000000E+00 -0.00000000000E+00 -0.47534148592E+03  0.47534148592E+03  0.00000000000E+00 0. -1.
          6    1    1    2  501    0 -0.65848343141E+02  0.15984008984E+03  0.22417977452E+03  0.33176863914E+03  0.17300000000E+03 0. -1.
         -6    1    1    2    0  503  0.65848343141E+02 -0.15984008984E+03 -0.38607422910E+03  0.45701987811E+03  0.17300000000E+03 0. -1.
<mgrwt>
<rscale>  2 0.24456872E+03</rscale>
<asrwt>0</asrwt>
<pdfrwt beam="1">  1       21 0.48222620E-01 0.24456872E+03</pdfrwt>
<pdfrwt beam="2">  1       21 0.73129459E-01 0.24456872E+03</pdfrwt>
<totfact> 0.66706531E+03</totfact>
</mgrwt>
</event>
<event>
 4    1  0.4439578E+000  0.1895340E+03  0.7546771E-02  0.1158882E+00
         21   -1    0    0  503  502  0.00000000000E+00  0.00000000000E+00  0.39021286659E+03  0.39021286659E+03  0.00000000000E+00 0. -1.
         21   -1    0    0  501  503 -0.00000000000E+00 -0.00000000000E+00 -0.96898614061E+02  0.96898614061E+02  0.00000000000E+00 0. -1.
          6    1    1    2  501    0 -0.19657293937E+02 -0.74884776036E+02  0.20108027966E+03  0.27632665046E+03  0.17300000000E+03 0. -1.
         -6    1    1    2    0  502  0.19657293937E+02  0.74884776036E+02  0.92233972867E+02  0.21078483019E+03  0.17300000000E+03 0. -1.
<mgrwt>
<rscale>  2 0.18953400E+03</rscale>
<asrwt>0</asrwt>
<pdfrwt beam="1">  1       21 0.60032748E-01 0.18953400E+03</pdfrwt>
<pdfrwt beam="2">  1       21 0.14907479E-01 0.18953400E+03</pdfrwt>
<totfact> 0.10280272E+05</totfact>
</mgrwt>
</event>
<event>
 4    1  0.4439578E+000  0.2743480E+03  0.7546771E-02  0.1098817E+00
         21   -1    0    0  501  502  0.00000000000E+00  0.00000000000E+00  0.38642763742E+02  0.38642763742E+02  0.00000000000E+00 0. -1.
         21   -1    0    0  502  503 -0.00000000000E+00 -0.00000000000E+00 -0.19492351101E+04  0.19492351101E+04  0.00000000000E+00 0.  1.
          6    1    1    2  501    0 -0.15680267489E+03 -0.14405115125E+03 -0.98264272524E+03  0.10202222986E+04  0.17300000000E+03 0.  1.
         -6    1    1    2    0  503  0.15680267489E+03  0.14405115125E+03 -0.92794962112E+03  0.96765557528E+03  0.17300000000E+03 0. -1.
<mgrwt>
<rscale>  2 0.27434798E+03</rscale>
<asrwt>0</asrwt>
<pdfrwt beam="1">  1       21 0.59450418E-02 0.27434798E+03</pdfrwt>
<pdfrwt beam="2">  1       21 0.29988226E+00 0.27434798E+03</pdfrwt>
<totfact> 0.63377923E+03</totfact>
</mgrwt>
</event>
<event>
 4    1  0.4439578E+000  0.1852379E+03  0.7546771E-02  0.1162828E+00
         21   -1    0    0  501  502  0.00000000000E+00  0.00000000000E+00  0.16259685038E+03  0.16259685038E+03  0.00000000000E+00 0.  1.
         21   -1    0    0  502  503 -0.00000000000E+00 -0.00000000000E+00 -0.21972672481E+03  0.21972672481E+03  0.00000000000E+00 0. -1.
          6    1    1    2  501    0  0.57224540269E+02  0.33308012115E+02  0.94625676131E+01  0.18547941089E+03  0.17300000000E+03 0. -1.
         -6    1    1    2    0  503 -0.57224540269E+02 -0.33308012115E+02 -0.66592442041E+02  0.19684416429E+03  0.17300000000E+03 0.  1.
<mgrwt>
<rscale>  2 0.18523788E+03</rscale>
<asrwt>0</asrwt>
<pdfrwt beam="1">  1       21 0.25014900E-01 0.18523788E+03</pdfrwt>
<pdfrwt beam="2">  1       21 0.33804111E-01 0.18523788E+03</pdfrwt>
<totfact> 0.12787041E+05</totfact>
</mgrwt>
</event>
<event>
 4    1  0.4439578E+000  0.2320703E+03  0.7546771E-02  0.1125191E+00
         21   -1    0    0  503  502  0.00000000000E+00  0.00000000000E+00  0.38970035710E+03  0.38970035710E+03  0.00000000000E+00 0.  1.
         21   -1    0    0  501  503 -0.00000000000E+00 -0.00000000000E+00 -0.14418790583E+03  0.14418790583E+03  0.00000000000E+00 0. -1.
          6    1    1    2  501    0  0.96308112040E+02 -0.12104707567E+03  0.68357580976E+02  0.24192851393E+03  0.17300000000E+03 0. -1.
         -6    1    1    2    0  502 -0.96308112040E+02  0.12104707567E+03  0.17715487030E+03  0.29195974901E+03  0.17300000000E+03 0.  1.
<mgrwt>
<rscale>  2 0.23207035E+03</rscale>
<asrwt>0</asrwt>
<pdfrwt beam="1">  1       21 0.59953901E-01 0.23207035E+03</pdfrwt>
<pdfrwt beam="2">  1       21 0.22182755E-01 0.23207035E+03</pdfrwt>
<totfact> 0.48422388E+04</totfact>
</mgrwt>
</event>
<event>
 4    1  0.4439578E+000  0.1750626E+03  0.7546771E-02  0.1172669E+00
         21   -1    0    0  503  502  0.00000000000E+00  0.00000000000E+00  0.60236180819E+02  0.60236180819E+02  0.00000000000E+00 0.  1.
         21   -1    0    0  501  503 -0.00000000000E+00 -0.00000000000E+00 -0.50971231014E+03  0.50971231014E+03  0.00000000000E+00 0.  1.
          6    1    1    2  501    0  0.26414218172E+02 -0.44934759270E+01 -0.23693251413E+03  0.29459110391E+03  0.17300000000E+03 0.  1.
         -6    1    1    2    0  502 -0.26414218172E+02  0.44934759270E+01 -0.21254361519E+03  0.27535738705E+03  0.17300000000E+03 0.  1.
<mgrwt>
<rscale>  2 0.17506257E+03</rscale>
<asrwt>0</asrwt>
<pdfrwt beam="1">  1       21 0.92671051E-02 0.17506257E+03</pdfrwt>
<pdfrwt beam="2">  1       21 0.78417276E-01 0.17506257E+03</pdfrwt>
<totfact> 0.13435162E+05</totfact>
</mgrwt>
</event>
<event>
 4    1  0.4439578E+000  0.3291843E+03  0.7546771E-02  0.1071498E+00
         21   -1    0    0  503  502  0.00000000000E+00  0.00000000000E+00  0.13390308217E+03  0.13390308217E+03  0.00000000000E+00 0. -1.
         21   -1    0    0  501  503 -0.00000000000E+00 -0.00000000000E+00 -0.11334230512E+04  0.11334230512E+04  0.00000000000E+00 0. -1.
          6    1    1    2  501    0 -0.15262526314E+03  0.23481653363E+03 -0.83863909214E+03  0.90093163019E+03  0.17300000000E+03 0. -1.
         -6    1    1    2    0  502  0.15262526314E+03 -0.23481653363E+03 -0.16088087689E+03  0.36639450318E+03  0.17300000000E+03 0. -1.
<mgrwt>
<rscale>  2 0.32918426E+03</rscale>
<asrwt>0</asrwt>
<pdfrwt beam="1">  1       21 0.20600475E-01 0.32918426E+03</pdfrwt>
<pdfrwt beam="2">  1       21 0.17437277E+00 0.32918426E+03</pdfrwt>
<totfact> 0.39508364E+03</totfact>
</mgrwt>
</event>
<event>
 4    1  0.4439578E+000  0.2108432E+03  0.7546771E-02  0.1140900E+00
         21   -1    0    0  503  502  0.00000000000E+00  0.00000000000E+00  0.84528617046E+03  0.84528617046E+03  0.00000000000E+00 0.  1.
         21   -1    0    0  501  503 -0.00000000000E+00 -0.00000000000E+00 -0.52953844649E+02  0.52953844649E+02  0.00000000000E+00 0.  1.
          6    1    1    2  501    0  0.99227248512E+02 -0.68409265363E+02  0.35901522706E+03  0.41634938176E+03  0.17300000000E+03 0.  1.
         -6    1    1    2    0  502 -0.99227248512E+02  0.68409265363E+02  0.43331709876E+03  0.48189063335E+03  0.17300000000E+03 0.  1.
<mgrwt>
<rscale>  2 0.21084325E+03</rscale>
<asrwt>0</asrwt>
<pdfrwt beam="1">  1       21 0.13004402E+00 0.21084325E+03</pdfrwt>
<pdfrwt beam="2">  1       21 0.81467460E-02 0.21084325E+03</pdfrwt>
<totfact> 0.49724019E+04</totfact>
</mgrwt>
</event>
<event>
 4    1  0.4439578E+000  0.1779356E+03  0.7546771E-02  0.1169816E+00
         21   -1    0    0  503  502  0.00000000000E+00  0.00000000000E+00  0.72592615491E+03  0.72592615491E+03  0.00000000000E+00 0. -1.
         21   -1    0    0  501  503 -0.00000000000E+00 -0.00000000000E+00 -0.67490252633E+02  0.67490252633E+02  0.00000000000E+00 0. -1.
          6    1    1    2  501    0 -0.12692393340E+02  0.39635436628E+02  0.93264026458E+02  0.20089610080E+03  0.17300000000E+03 0. -1.
         -6    1    1    2    0  502  0.12692393340E+02 -0.39635436628E+02  0.56517187582E+03  0.59252030674E+03  0.17300000000E+03 0. -1.
<mgrwt>
<rscale>  2 0.17793556E+03</rscale>
<asrwt>0</asrwt>
<pdfrwt beam="1">  1       21 0.11168094E+00 0.17793556E+03</pdfrwt>
<pdfrwt beam="2">  1       21 0.10383116E-01 0.17793556E+03</pdfrwt>
<totfact> 0.48163093E+04</totfact>
</mgrwt>
</event>
<event>
 4    1  0.4439578E+000  0.1883292E+03  0.7546771E-02  0.1159977E+00
         21   -1    0    0  501  502  0.00000000000E+00  0.00000000000E+00  0.50610668798E+03  0.50610668798E+03  0.00000000000E+00 0. -1.
         21   -1    0    0  502  503 -0.00000000000E+00 -0.00000000000E+00 -0.18155614918E+03  0.18155614918E+03  0.00000000000E+00 0. -1.
          6    1    1    2  501    0  0.72476027946E+02  0.16915425563E+02  0.43169614975E+03  0.47098776200E+03  0.17300000000E+03 0. -1.
         -6    1    1    2    0  503 -0.72476027946E+02 -0.16915425563E+02 -0.10714561094E+03  0.21667507516E+03  0.17300000000E+03 0. -1.
<mgrwt>
<rscale>  2 0.18832925E+03</rscale>
<asrwt>0</asrwt>
<pdfrwt beam="1">  1       21 0.77862567E-01 0.18832925E+03</pdfrwt>
<pdfrwt beam="2">  1       21 0.27931715E-01 0.18832925E+03</pdfrwt>
<totfact> 0.17943476E+04</totfact>
</mgrwt>
</event>
<event>
 4    1  0.4439578E+000  0.1821859E+03  0.7546771E-02  0.1165704E+00
         21   -1    0    0  501  502  0.00000000000E+00  0.00000000000E+00  0.18228503212E+03  0.18228503212E+03  0.00000000000E+00 0. -1.
         21   -1    0    0  502  503 -0.00000000000E+00 -0.00000000000E+00 -0.60335354881E+03  0.60335354881E+03  0.00000000000E+00 0. -1.
          6    1    1    2  501    0  0.15967772110E+02 -0.54842920424E+02  0.11770113751E+03  0.21689922415E+03  0.17300000000E+03 0. -1.
         -6    1    1    2    0  503 -0.15967772110E+02  0.54842920424E+02 -0.53876965420E+03  0.56873935678E+03  0.17300000000E+03 0. -1.
<mgrwt>
<rscale>  2 0.18218594E+03</rscale>
<asrwt>0</asrwt>
<pdfrwt beam="1">  1       21 0.28043851E-01 0.18218594E+03</pdfrwt>
<pdfrwt beam="2">  1       21 0.92823622E-01 0.18218594E+03</pdfrwt>
<totfact> 0.11962631E+04</totfact>
</mgrwt>
</event>
<event>
 4    1  0.4439578E+000  0.2058538E+03  0.7546771E-02  0.1144892E+00
         21   -1    0    0  501  502  0.00000000000E+00  0.00000000000E+00  0.62158189525E+02  0.62158189525E+02  0.00000000000E+00 0.  1.
         21   -1    0    0  502  503 -0.00000000000E+00 -0.00000000000E+00 -0.99987790407E+03  0.99987790407E+03  0.00000000000E+00 0. -1.
          6    1    1    2  501    0 -0.10919900095E+03  0.22855463620E+02 -0.16932819574E+03  0.26654799174E+03  0.17300000000E+03 0. -1.
         -6    1    1    2    0  503  0.10919900095E+03 -0.22855463620E+02 -0.76839151881E+03  0.79548810186E+03  0.17300000000E+03 0. -1.
<mgrwt>
<rscale>  2 0.20585382E+03</rscale>
<asrwt>0</asrwt>
<pdfrwt beam="1">  1       21 0.95627983E-02 0.20585382E+03</pdfrwt>
<pdfrwt beam="2">  1       21 0.15382737E+00 0.20585382E+03</pdfrwt>
<totfact> 0.24343785E+04</totfact>
</mgrwt>
</event>
<event>
 4    1  0.4439578E+000  0.2355720E+03  0.7546771E-02  0.1122778E+00
         21   -1    0    0  503  502  0.00000000000E+00  0.00000000000E+00  0.17427576398E+03  0.17427576398E+03  0.00000000000E+00 0.  1.
         21   -1    0    0  501  503 -0.00000000000E+00 -0.00000000000E+00 -0.37604955988E+03  0.37604955988E+03  0.00000000000E+00 0.  1.
          6    1    1    2  501    0  0.10770438426E+03 -0.11817332071E+03 -0.20859836694E+03  0.31465448798E+03  0.17300000000E+03 0.  1.
         -6    1    1    2    0  502 -0.10770438426E+03  0.11817332071E+03  0.68245710405E+01  0.23567083588E+03  0.17300000000E+03 0.  1.
<mgrwt>
<rscale>  2 0.23557200E+03</rscale>
<asrwt>0</asrwt>
<pdfrwt beam="1">  1       21 0.26811656E-01 0.23557200E+03</pdfrwt>
<pdfrwt beam="2">  1       21 0.57853777E-01 0.23557200E+03</pdfrwt>
<totfact> 0.36325632E+04</totfact>
</mgrwt>
</event>
<event>
 4    1  0.4439578E+000  0.2136893E+03  0.7546771E-02  0.1138677E+00
         21   -1    0    0  501  502  0.00000000000E+00  0.00000000000E+00  0.22354390182E+03  0.22354390182E+03  0.00000000000E+00 0. -1.
         21   -1    0    0  502  503 -0.00000000000E+00 -0.00000000000E+00 -0.21994316908E+03  0.21994316908E+03  0.00000000000E+00 0. -1.
          6    1    1    2  501    0  0.92864446341E+02 -0.84322721366E+02 -0.57394721690E+02  0.22126292236E+03  0.17300000000E+03 0. -1.
         -6    1    1    2    0  503 -0.92864446341E+02  0.84322721366E+02  0.60995454431E+02  0.22222414854E+03  0.17300000000E+03 0. -1.
<mgrwt>
<rscale>  2 0.21368932E+03</rscale>
<asrwt>0</asrwt>
<pdfrwt beam="1">  1       21 0.34391370E-01 0.21368932E+03</pdfrwt>
<pdfrwt beam="2">  1       21 0.33837411E-01 0.21368932E+03</pdfrwt>
<totfact> 0.67921137E+04</totfact>
</mgrwt>
</event>
<event>
 4    1  0.4439578E+000  0.1853154E+03  0.7546771E-02  0.1162756E+00
         21   -1    0    0  503  502  0.00000000000E+00  0.00000000000E+00  0.26511429399E+03  0.26511429399E+03  0.00000000000E+00 0.  1.
         21   -1    0    0  501  503 -0.00000000000E+00 -0.00000000000E+00 -0.13475327932E+03  0.13475327932E+03  0.00000000000E+00 0.  1.
          6    1    1    2  501    0  0.64476033720E+02 -0.15989220096E+02  0.25839683796E+02  0.18710826637E+03  0.17300000000E+03 0. -1.
         -6    1    1    2    0  502 -0.64476033720E+02  0.15989220096E+02  0.10452133087E+03  0.21275930694E+03  0.17300000000E+03 0. -1.
<mgrwt>
<rscale>  2 0.18531544E+03</rscale>
<asrwt>0</asrwt>
<pdfrwt beam="1">  1       21 0.40786814E-01 0.18531544E+03</pdfrwt>
<pdfrwt beam="2">  1       21 0.20731274E-01 0.18531544E+03</pdfrwt>
<totfact> 0.12529856E+05</totfact>
</mgrwt>
</event>
<event>
 4    1  0.4439578E+000  0.1902667E+03  0.7546771E-02  0.1158221E+00
         21   -1    0    0  503  502  0.00000000000E+00  0.00000000000E+00  0.16793510405E+03  0.16793510405E+03  0.00000000000E+00 0. -1.
         21   -1    0    0  501  503 -0.00000000000E+00 -0.00000000000E+00 -0.34367557374E+03  0.34367557374E+03  0.00000000000E+00 0. -1.
          6    1    1    2  501    0 -0.35149667629E+01 -0.79120463194E+02 -0.24404936346E+03  0.30945354174E+03  0.17300000000E+03 0. -1.
         -6    1    1    2    0  502  0.35149667629E+01  0.79120463194E+02  0.68308893775E+02  0.20215713605E+03  0.17300000000E+03 0. -1.
<mgrwt>
<rscale>  2 0.19026666E+03</rscale>
<asrwt>0</asrwt>
<pdfrwt beam="1">  1       21 0.25836170E-01 0.19026666E+03</pdfrwt>
<pdfrwt beam="2">  1       21 0.52873164E-01 0.19026666E+03</pdfrwt>
<totfact> 0.48268445E+04</totfact>
</mgrwt>
</event>
<event>
 4    1  0.4439578E+000  0.2850644E+03  0.7546771E-02  0.1092955E+00
         21   -1    0    0  501  502  0.00000000000E+00  0.00000000000E+00  0.29748251803E+03  0.29748251803E+03  0.00000000000E+00 0.  1.
         21   -1    0    0  502  503 -0.00000000000E+00 -0.00000000000E+00 -0.27328113157E+03  0.27328113157E+03  0.00000000000E+00 0.  1.
          6    1    1    2  501    0 -0.21247133934E+03  0.78667890811E+02  0.62087939806E+01  0.28513199787E+03  0.17300000000E+03 0.  1.
         -6    1    1    2    0  503  0.21247133934E+03 -0.78667890811E+02  0.17992592481E+02  0.28563165173E+03  0.17300000000E+03 0.  1.
<mgrwt>
<rscale>  2 0.28506439E+03</rscale>
<asrwt>0</asrwt>
<pdfrwt beam="1">  1       21 0.45766541E-01 0.28506439E+03</pdfrwt>
<pdfrwt beam="2">  1       21 0.42043251E-01 0.28506439E+03</pdfrwt>
<totfact> 0.23819019E+04</totfact>
</mgrwt>
</event>
<event>
 4    1  0.4439578E+000  0.4318800E+03  0.7546771E-02  0.1033268E+00
         21   -1    0    0  501  502  0.00000000000E+00  0.00000000000E+00  0.12295526746E+04  0.12295526746E+04  0.00000000000E+00 0.  1.
         21   -1    0    0  502  503 -0.00000000000E+00 -0.00000000000E+00 -0.55715515939E+03  0.55715515939E+03  0.00000000000E+00 0. -1.
          6    1    1    2  501    0  0.17679427582E+03 -0.35402699616E+03  0.10982919945E+04  0.11801549200E+04  0.17300000000E+03 0.  1.
         -6    1    1    2    0  503 -0.17679427582E+03  0.35402699616E+03 -0.42589447931E+03  0.60655291400E+03  0.17300000000E+03 0. -1.
<mgrwt>
<rscale>  2 0.43187999E+03</rscale>
<asrwt>0</asrwt>
<pdfrwt beam="1">  1       21 0.18916195E+00 0.43187999E+03</pdfrwt>
<pdfrwt beam="2">  1       21 0.85716179E-01 0.43187999E+03</pdfrwt>
<totfact> 0.15105133E+02</totfact>
</mgrwt>
</event>
<event>
 4    1  0.4439578E+000  0.1985800E+03  0.7546771E-02  0.1150943E+00
         21   -1    0    0  503  502  0.00000000000E+00  0.00000000000E+00  0.34370814997E+03  0.34370814997E+03  0.00000000000E+00 0. -1.
         21   -1    0    0  501  503 -0.00000000000E+00 -0.00000000000E+00 -0.87304051750E+03  0.87304051750E+03  0.00000000000E+00 0. -1.
          6    1    1    2  501    0 -0.83043769062E+02  0.51076009848E+02 -0.83165814089E+03  0.85503759547E+03  0.17300000000E+03 0. -1.
         -6    1    1    2    0  502  0.83043769062E+02 -0.51076009848E+02  0.30232577337E+03  0.36171107200E+03  0.17300000000E+03 0. -1.
<mgrwt>
<rscale>  2 0.19858003E+03</rscale>
<asrwt>0</asrwt>
<pdfrwt beam="1">  1       21 0.52878177E-01 0.19858003E+03</pdfrwt>
<pdfrwt beam="2">  1       21 0.13431392E+00 0.19858003E+03</pdfrwt>
<totfact> 0.13408342E+03</totfact>
</mgrwt>
</event>
<event>
 4    1  0.4439578E+000  0.2583825E+03  0.7546771E-02  0.1108119E+00
         21   -1    0    0  503  502  0.00000000000E+00  0.00000000000E+00  0.24226166973E+03  0.24226166973E+03  0.00000000000E+00 0. -1.
         21   -1    0    0  501  503 -0.00000000000E+00 -0.00000000000E+00 -0.29798937383E+03  0.29798937383E+03  0.00000000000E+00 0. -1.
          6    1    1    2  501    0 -0.18524868291E+03 -0.50153979397E+02 -0.10194694001E+03  0.27776730323E+03  0.17300000000E+03 0. -1.
         -6    1    1    2    0  502  0.18524868291E+03  0.50153979397E+02  0.46219235912E+02  0.26248374033E+03  0.17300000000E+03 0. -1.
<mgrwt>
<rscale>  2 0.25838246E+03</rscale>
<asrwt>0</asrwt>
<pdfrwt beam="1">  1       21 0.37271026E-01 0.25838246E+03</pdfrwt>
<pdfrwt beam="2">  1       21 0.45844519E-01 0.25838246E+03</pdfrwt>
<totfact> 0.30664284E+04</totfact>
</mgrwt>
</event>
<event>
 4    1  0.4439578E+000  0.2428559E+03  0.7546771E-02  0.1117905E+00
         21   -1    0    0  501  502  0.00000000000E+00  0.00000000000E+00  0.28825703784E+03  0.28825703784E+03  0.00000000000E+00 0. -1.
         21   -1    0    0  502  503 -0.00000000000E+00 -0.00000000000E+00 -0.20524379939E+03  0.20524379939E+03  0.00000000000E+00 0. -1.
          6    1    1    2  501    0  0.56763035914E+02  0.16071068569E+03  0.27745769306E+02  0.24443566527E+03  0.17300000000E+03 0. -1.
         -6    1    1    2    0  503 -0.56763035914E+02 -0.16071068569E+03  0.55267469141E+02  0.24906517196E+03  0.17300000000E+03 0. -1.
<mgrwt>
<rscale>  2 0.24285586E+03</rscale>
<asrwt>0</asrwt>
<pdfrwt beam="1">  1       21 0.44347237E-01 0.24285586E+03</pdfrwt>
<pdfrwt beam="2">  1       21 0.31575969E-01 0.24285586E+03</pdfrwt>
<totfact> 0.46002319E+04</totfact>
</mgrwt>
</event>
<event>
 4    1  0.4439578E+000  0.2517440E+03  0.7546771E-02  0.1112208E+00
         21   -1    0    0  503  502  0.00000000000E+00  0.00000000000E+00  0.40997301420E+03  0.40997301420E+03  0.00000000000E+00 0.  1.
         21   -1    0    0  501  503 -0.00000000000E+00 -0.00000000000E+00 -0.34735550767E+03  0.34735550767E+03  0.00000000000E+00 0.  1.
          6    1    1    2  501    0 -0.55337675358E+02  0.17430942572E+03 -0.25078228437E+03  0.35534038380E+03  0.17300000000E+03 0.  1.
         -6    1    1    2    0  502  0.55337675358E+02 -0.17430942572E+03  0.31339979090E+03  0.40198813806E+03  0.17300000000E+03 0.  1.
<mgrwt>
<rscale>  2 0.25174399E+03</rscale>
<asrwt>0</asrwt>
<pdfrwt beam="1">  1       21 0.63072771E-01 0.25174399E+03</pdfrwt>
<pdfrwt beam="2">  1       21 0.53439309E-01 0.25174399E+03</pdfrwt>
<totfact> 0.74195016E+03</totfact>
</mgrwt>
</event>
<event>
 4    1  0.4439578E+000  0.1838737E+03  0.7546771E-02  0.1164106E+00
         21   -1    0    0  503  502  0.00000000000E+00  0.00000000000E+00  0.46422715968E+03  0.46422715968E+03  0.00000000000E+00 0. -1.
         21   -1    0    0  501  503 -0.00000000000E+00 -0.00000000000E+00 -0.72905621588E+02  0.72905621588E+02  0.00000000000E+00 0. -1.
          6    1    1    2  501    0  0.22660918245E+02 -0.58026065444E+02  0.20432541433E+03  0.27487891230E+03  0.17300000000E+03 0. -1.
         -6    1    1    2    0  502 -0.22660918245E+02  0.58026065444E+02  0.18699612376E+03  0.26225386897E+03  0.17300000000E+03 0. -1.
<mgrwt>
<rscale>  2 0.18387371E+03</rscale>
<asrwt>0</asrwt>
<pdfrwt beam="1">  1       21 0.71419561E-01 0.18387371E+03</pdfrwt>
<pdfrwt beam="2">  1       21 0.11216250E-01 0.18387371E+03</pdfrwt>
<totfact> 0.11771973E+05</totfact>
</mgrwt>
</event>
<event>
 4    1  0.4439578E+000  0.1815422E+03  0.7546771E-02  0.1166319E+00
         21   -1    0    0  501  502  0.00000000000E+00  0.00000000000E+00  0.13669791878E+03  0.13669791878E+03  0.00000000000E+00 0. -1.
         21   -1    0    0  502  503 -0.00000000000E+00 -0.00000000000E+00 -0.54603430366E+03  0.54603430366E+03  0.00000000000E+00 0. -1.
          6    1    1    2  501    0 -0.55008570652E+02  0.16247706608E+01  0.50434516200E+02  0.18841768269E+03  0.17300000000E+03 0. -1.
         -6    1    1    2    0  503  0.55008570652E+02 -0.16247706608E+01 -0.45977090108E+03  0.49431453975E+03  0.17300000000E+03 0. -1.
<mgrwt>
<rscale>  2 0.18154223E+03</rscale>
<asrwt>0</asrwt>
<pdfrwt beam="1">  1       21 0.21030449E-01 0.18154223E+03</pdfrwt>
<pdfrwt beam="2">  1       21 0.84005277E-01 0.18154223E+03</pdfrwt>
<totfact> 0.26027271E+04</totfact>
</mgrwt>
</event>
<event>
 4    1  0.4439578E+000  0.2791760E+03  0.7546771E-02  0.1096140E+00
         21   -1    0    0  501  502  0.00000000000E+00  0.00000000000E+00  0.95147361357E+03  0.95147361357E+03  0.00000000000E+00 0. -1.
         21   -1    0    0  502  503 -0.00000000000E+00 -0.00000000000E+00 -0.14910047799E+03  0.14910047799E+03  0.00000000000E+00 0. -1.
          6    1    1    2  501    0 -0.21804202982E+03 -0.21630671794E+02  0.77058072262E+03  0.81959371813E+03  0.17300000000E+03 0. -1.
         -6    1    1    2    0  503  0.21804202982E+03  0.21630671794E+02  0.31792412966E+02  0.28098037343E+03  0.17300000000E+03 0. -1.
<mgrwt>
<rscale>  2 0.27917595E+03</rscale>
<asrwt>0</asrwt>
<pdfrwt beam="1">  1       21 0.14638055E+00 0.27917595E+03</pdfrwt>
<pdfrwt beam="2">  1       21 0.22938536E-01 0.27917595E+03</pdfrwt>
<totfact> 0.53498894E+03</totfact>
</mgrwt>
</event>
<event>
 4    1  0.4439578E+000  0.2556412E+03  0.7546771E-02  0.1109791E+00
         21   -1    0    0  503  502  0.00000000000E+00  0.00000000000E+00  0.10908478776E+03  0.10908478776E+03  0.00000000000E+00 0. -1.
         21   -1    0    0  501  503 -0.00000000000E+00 -0.00000000000E+00 -0.19058440227E+04  0.19058440227E+04  0.00000000000E+00 0.  1.
          6    1    1    2  501    0  0.16218672952E+03  0.95492820853E+02 -0.17326017829E+04  0.17513598580E+04  0.17300000000E+03 0.  1.
         -6    1    1    2    0  502 -0.16218672952E+03 -0.95492820853E+02 -0.64157452058E+02  0.26356895250E+03  0.17300000000E+03 0. -1.
<mgrwt>
<rscale>  2 0.25564118E+03</rscale>
<asrwt>0</asrwt>
<pdfrwt beam="1">  1       21 0.16782275E-01 0.25564118E+03</pdfrwt>
<pdfrwt beam="2">  1       21 0.29320678E+00 0.25564118E+03</pdfrwt>
<totfact> 0.11099015E+03</totfact>
</mgrwt>
</event>
<event>
 4    1  0.4439578E+000  0.1859918E+03  0.7546771E-02  0.1162127E+00
         21   -1    0    0  501  502  0.00000000000E+00  0.00000000000E+00  0.59974949718E+02  0.59974949718E+02  0.00000000000E+00 0. -1.
         21   -1    0    0  502  503 -0.00000000000E+00 -0.00000000000E+00 -0.57825563045E+03  0.57825563045E+03  0.00000000000E+00 0.  1.
          6    1    1    2  501    0 -0.54549139975E+02 -0.41089419319E+02 -0.24307442989E+03  0.30606882808E+03  0.17300000000E+03 0.  1.
         -6    1    1    2    0  503  0.54549139975E+02  0.41089419319E+02 -0.27520625084E+03  0.33216175209E+03  0.17300000000E+03 0.  1.
<mgrwt>
<rscale>  2 0.18599180E+03</rscale>
<asrwt>0</asrwt>
<pdfrwt beam="1">  1       21 0.92269158E-02 0.18599180E+03</pdfrwt>
<pdfrwt beam="2">  1       21 0.88962400E-01 0.18599180E+03</pdfrwt>
<totfact> 0.10117019E+05</totfact>
</mgrwt>
</event>
<event>
 4    1  0.4439578E+000  0.2020613E+03  0.7546771E-02  0.1148011E+00
         21   -1    0    0  501  502  0.00000000000E+00  0.00000000000E+00  0.13909592862E+03  0.13909592862E+03  0.00000000000E+00 0. -1.
         21   -1    0    0  502  503 -0.00000000000E+00 -0.00000000000E+00 -0.29353425785E+03  0.29353425785E+03  0.00000000000E+00 0.  1.
          6    1    1    2  501    0 -0.20825866607E+02  0.10230371129E+03 -0.78084982321E+02  0.21662416884E+03  0.17300000000E+03 0.  1.
         -6    1    1    2    0  503  0.20825866607E+02 -0.10230371129E+03 -0.76353346911E+02  0.21600601762E+03  0.17300000000E+03 0.  1.
<mgrwt>
<rscale>  2 0.20206129E+03</rscale>
<asrwt>0</asrwt>
<pdfrwt beam="1">  1       21 0.21399374E-01 0.20206129E+03</pdfrwt>
<pdfrwt beam="2">  1       21 0.45159116E-01 0.20206129E+03</pdfrwt>
<totfact> 0.95298605E+04</totfact>
</mgrwt>
</event>
<event>
 4    1  0.4439578E+000  0.2139926E+03  0.7546771E-02  0.1138443E+00
         21   -1    0    0  503  502  0.00000000000E+00  0.00000000000E+00  0.14191843349E+04  0.14191843349E+04  0.00000000000E+00 0. -1.
         21   -1    0    0  501  503 -0.00000000000E+00 -0.00000000000E+00 -0.90936127447E+02  0.90936127447E+02  0.00000000000E+00 0.  1.
          6    1    1    2  501    0  0.80790974603E+02  0.96626406679E+02  0.57641814086E+02  0.22161999634E+03  0.17300000000E+03 0.  1.
         -6    1    1    2    0  502 -0.80790974603E+02 -0.96626406679E+02  0.12706063934E+04  0.12885004660E+04  0.17300000000E+03 0. -1.
<mgrwt>
<rscale>  2 0.21399263E+03</rscale>
<asrwt>0</asrwt>
<pdfrwt beam="1">  1       21 0.21833604E+00 0.21399263E+03</pdfrwt>
<pdfrwt beam="2">  1       21 0.13990174E-01 0.21399263E+03</pdfrwt>
<totfact> 0.44938690E+03</totfact>
</mgrwt>
</event>
<event>
 4    1  0.4439578E+000  0.2302291E+03  0.7546771E-02  0.1126479E+00
         21   -1    0    0  501  502  0.00000000000E+00  0.00000000000E+00  0.78040388794E+02  0.78040388794E+02  0.00000000000E+00 0. -1.
         21   -1    0    0  502  503 -0.00000000000E+00 -0.00000000000E+00 -0.80631052346E+03  0.80631052346E+03  0.00000000000E+00 0.  1.
          6    1    1    2  501    0  0.10739743242E+03 -0.10743466737E+03 -0.18857497031E+03  0.29760029515E+03  0.17300000000E+03 0. -1.
         -6    1    1    2    0  503 -0.10739743242E+03  0.10743466737E+03 -0.53969516436E+03  0.58675061711E+03  0.17300000000E+03 0.  1.
<mgrwt>
<rscale>  2 0.23022905E+03</rscale>
<asrwt>0</asrwt>
<pdfrwt beam="1">  1       21 0.12006214E-01 0.23022905E+03</pdfrwt>
<pdfrwt beam="2">  1       21 0.12404777E+00 0.23022905E+03</pdfrwt>
<totfact> 0.27899180E+04</totfact>
</mgrwt>
</event>
<event>
 4    1  0.4439578E+000  0.1762165E+03  0.7546771E-02  0.1171516E+00
         21   -1    0    0  503  502  0.00000000000E+00  0.00000000000E+00  0.29864954348E+03  0.29864954348E+03  0.00000000000E+00 0.  1.
         21   -1    0    0  501  503 -0.00000000000E+00 -0.00000000000E+00 -0.13523766806E+03  0.13523766806E+03  0.00000000000E+00 0.  1.
          6    1    1    2  501    0 -0.28863921493E+02  0.17033531251E+02 -0.22599471343E+02  0.17765979640E+03  0.17300000000E+03 0.  1.
         -6    1    1    2    0  502  0.28863921493E+02 -0.17033531251E+02  0.18601134676E+03  0.25622741515E+03  0.17300000000E+03 0.  1.
<mgrwt>
<rscale>  2 0.17621653E+03</rscale>
<asrwt>0</asrwt>
<pdfrwt beam="1">  1       21 0.45946083E-01 0.17621653E+03</pdfrwt>
<pdfrwt beam="2">  1       21 0.20805795E-01 0.17621653E+03</pdfrwt>
<totfact> 0.97948574E+04</totfact>
</mgrwt>
</event>
<event>
 4    1  0.4439578E+000  0.2043705E+03  0.7546771E-02  0.1146103E+00
         21   -1    0    0  503  502  0.00000000000E+00  0.00000000000E+00  0.33275658781E+03  0.33275658781E+03  0.00000000000E+00 0.  1.
         21   -1    0    0  501  503 -0.00000000000E+00 -0.00000000000E+00 -0.13813246696E+03  0.13813246696E+03  0.00000000000E+00 0.  1.
          6    1    1    2  501    0 -0.75256642906E+02 -0.78579528303E+02  0.26165095343E+02  0.20603862935E+03  0.17300000000E+03 0.  1.
         -6    1    1    2    0  502  0.75256642906E+02  0.78579528303E+02  0.16845902551E+03  0.26485042542E+03  0.17300000000E+03 0.  1.
<mgrwt>
<rscale>  2 0.20437051E+03</rscale>
<asrwt>0</asrwt>
<pdfrwt beam="1">  1       21 0.51193321E-01 0.20437051E+03</pdfrwt>
<pdfrwt beam="2">  1       21 0.21251149E-01 0.20437051E+03</pdfrwt>
<totfact> 0.74346950E+04</totfact>
</mgrwt>
</event>
<event>
 4    1  0.4439578E+000  0.3571368E+03  0.7546771E-02  0.1059723E+00
         21   -1    0    0  501  502  0.00000000000E+00  0.00000000000E+00  0.27738396653E+03  0.27738396653E+03  0.00000000000E+00 0. -1.
         21   -1    0    0  502  503 -0.00000000000E+00 -0.00000000000E+00 -0.61127024712E+03  0.61127024712E+03  0.00000000000E+00 0.  1.
          6    1    1    2  501    0  0.28482587653E+03 -0.12842086886E+03  0.54224280070E+02  0.36122980504E+03  0.17300000000E+03 0.  1.
         -6    1    1    2    0  503 -0.28482587653E+03  0.12842086886E+03 -0.38811056066E+03  0.52742440861E+03  0.17300000000E+03 0.  1.
<mgrwt>
<rscale>  2 0.35713681E+03</rscale>
<asrwt>0</asrwt>
<pdfrwt beam="1">  1       21 0.42674457E-01 0.35713681E+03</pdfrwt>
<pdfrwt beam="2">  1       21 0.94041576E-01 0.35713681E+03</pdfrwt>
<totfact> 0.45498081E+03</totfact>
</mgrwt>
</event>
<event>
 4    1  0.4439578E+000  0.2898059E+03  0.7546771E-02  0.1090451E+00
         21   -1    0    0  501  502  0.00000000000E+00  0.00000000000E+00  0.90110678227E+02  0.90110678227E+02  0.00000000000E+00 0. -1.
         21   -1    0    0  502  503 -0.00000000000E+00 -0.00000000000E+00 -0.95474688561E+03  0.95474688561E+03  0.00000000000E+00 0. -1.
          6    1    1    2  501    0 -0.23113245310E+03 -0.25224131011E+02 -0.35176425882E+03  0.45576919756E+03  0.17300000000E+03 0. -1.
         -6    1    1    2    0  503  0.23113245310E+03  0.25224131011E+02 -0.51287194856E+03  0.58908836628E+03  0.17300000000E+03 0. -1.
<mgrwt>
<rscale>  2 0.28980591E+03</rscale>
<asrwt>0</asrwt>
<pdfrwt beam="1">  1       21 0.13863181E-01 0.28980591E+03</pdfrwt>
<pdfrwt beam="2">  1       21 0.14688414E+00 0.28980591E+03</pdfrwt>
<totfact> 0.13488476E+04</totfact>
</mgrwt>
</event>
<event>
 4    1  0.4439578E+000  0.1859712E+03  0.7546771E-02  0.1162146E+00
         21   -1    0    0  503  502  0.00000000000E+00  0.00000000000E+00  0.44984742344E+03  0.44984742344E+03  0.00000000000E+00 0.  1.
         21   -1    0    0  501  503 -0.00000000000E+00 -0.00000000000E+00 -0.78238605038E+02  0.78238605038E+02  0.00000000000E+00 0.  1.
          6    1    1    2  501    0 -0.67831250675E+02  0.74313100404E+01  0.22056950247E+03  0.28850686016E+03  0.17300000000E+03 0. -1.
         -6    1    1    2    0  502  0.67831250675E+02 -0.74313100404E+01  0.15103931593E+03  0.23957916832E+03  0.17300000000E+03 0. -1.
<mgrwt>
<rscale>  2 0.18597124E+03</rscale>
<asrwt>0</asrwt>
<pdfrwt beam="1">  1       21 0.69207294E-01 0.18597124E+03</pdfrwt>
<pdfrwt beam="2">  1       21 0.12036709E-01 0.18597124E+03</pdfrwt>
<totfact> 0.11116313E+05</totfact>
</mgrwt>
</event>
<event>
 4    1  0.4439578E+000  0.2097757E+03  0.7546771E-02  0.1141744E+00
         21   -1    0    0  501  502  0.00000000000E+00  0.00000000000E+00  0.81216292673E+03  0.81216292673E+03  0.00000000000E+00 0. -1.
         21   -1    0    0  502  503 -0.00000000000E+00 -0.00000000000E+00 -0.54539472838E+02  0.54539472838E+02  0.00000000000E+00 0.  1.
          6    1    1    2  501    0  0.76803770024E+02  0.90432380143E+02  0.41382152174E+03  0.46395483220E+03  0.17300000000E+03 0. -1.
         -6    1    1    2    0  503 -0.76803770024E+02 -0.90432380143E+02  0.34380193216E+03  0.40274756737E+03  0.17300000000E+03 0. -1.
<mgrwt>
<rscale>  2 0.20977568E+03</rscale>
<asrwt>0</asrwt>
<pdfrwt beam="1">  1       21 0.12494813E+00 0.20977568E+03</pdfrwt>
<pdfrwt beam="2">  1       21 0.83906887E-02 0.20977568E+03</pdfrwt>
<totfact> 0.52259721E+04</totfact>
</mgrwt>
</event>
<event>
 4    1  0.4439578E+000  0.1935378E+03  0.7546771E-02  0.1155309E+00
         21   -1    0    0  501  502  0.00000000000E+00  0.00000000000E+00  0.19451953709E+03  0.19451953709E+03  0.00000000000E+00 0. -1.
         21   -1    0    0  502  503 -0.00000000000E+00 -0.00000000000E+00 -0.20471021218E+03  0.20471021218E+03  0.00000000000E+00 0. -1.
          6    1    1    2  501    0 -0.27563533257E+02  0.82268740941E+02  0.43533691091E+02  0.19837357778E+03  0.17300000000E+03 0. -1.
         -6    1    1    2    0  503  0.27563533257E+02 -0.82268740941E+02 -0.53724366185E+02  0.20085617148E+03  0.17300000000E+03 0. -1.
<mgrwt>
<rscale>  2 0.19353784E+03</rscale>
<asrwt>0</asrwt>
<pdfrwt beam="1">  1       21 0.29926083E-01 0.19353784E+03</pdfrwt>
<pdfrwt beam="2">  1       21 0.31493879E-01 0.19353784E+03</pdfrwt>
<totfact> 0.10373468E+05</totfact>
</mgrwt>
</event>
<event>
 4    1  0.4439578E+000  0.2177469E+03  0.7546771E-02  0.1135574E+00
         21   -1    0    0  501  502  0.00000000000E+00  0.00000000000E+00  0.40201467418E+03  0.40201467418E+03  0.00000000000E+00 0. -1.
         21   -1    0    0  502  503 -0.00000000000E+00 -0.00000000000E+00 -0.11965721682E+03  0.11965721682E+03  0.00000000000E+00 0.  1.
          6    1    1    2  501    0 -0.13188034849E+03 -0.96062547497E+01  0.17242372167E+03  0.27774745047E+03  0.17300000000E+03 0. -1.
         -6    1    1    2    0  503  0.13188034849E+03  0.96062547497E+01  0.10993373569E+03  0.24392444053E+03  0.17300000000E+03 0.  1.
<mgrwt>
<rscale>  2 0.21774689E+03</rscale>
<asrwt>0</asrwt>
<pdfrwt beam="1">  1       21 0.61848411E-01 0.21774689E+03</pdfrwt>
<pdfrwt beam="2">  1       21 0.18408803E-01 0.21774689E+03</pdfrwt>
<totfact> 0.64641232E+04</totfact>
</mgrwt>
</event>
<event>
 4    1  0.4439578E+000  0.1773877E+03  0.7546771E-02  0.1170355E+00
         21   -1    0    0  501  502  0.00000000000E+00  0.00000000000E+00  0.12792755379E+03  0.12792755379E+03  0.00000000000E+00 0. -1.
         21   -1    0    0  502  503 -0.00000000000E+00 -0.00000000000E+00 -0.24931952401E+03  0.24931952401E+03  0.00000000000E+00 0. -1.
          6    1    1    2  501    0  0.11121867625E+02  0.37599068615E+02 -0.82557801159E+02  0.19565831552E+03  0.17300000000E+03 0. -1.
         -6    1    1    2    0  503 -0.11121867625E+02 -0.37599068615E+02 -0.38834169065E+02  0.18158876228E+03  0.17300000000E+03 0. -1.
<mgrwt>
<rscale>  2 0.17738767E+03</rscale>
<asrwt>0</asrwt>
<pdfrwt beam="1">  1       21 0.19681162E-01 0.17738767E+03</pdfrwt>
<pdfrwt beam="2">  1       21 0.38356850E-01 0.17738767E+03</pdfrwt>
<totfact> 0.15666218E+05</totfact>
</mgrwt>
</event>
<event>
 4    1  0.4439578E+000  0.2404181E+03  0.7546771E-02  0.1119515E+00
         21   -1    0    0  501  502  0.00000000000E+00  0.00000000000E+00  0.26069950804E+03  0.26069950804E+03  0.00000000000E+00 0. -1.
         21   -1    0    0  502  503 -0.00000000000E+00 -0.00000000000E+00 -0.29206383010E+03  0.29206383010E+03  0.00000000000E+00 0.  1.
          6    1    1    2  501    0 -0.16262070041E+03 -0.37767288054E+02  0.11996176146E+03  0.26868510279E+03  0.17300000000E+03 0. -1.
         -6    1    1    2    0  503  0.16262070041E+03  0.37767288054E+02 -0.15132608352E+03  0.28407823535E+03  0.17300000000E+03 0.  1.
<mgrwt>
<rscale>  2 0.24041809E+03</rscale>
<asrwt>0</asrwt>
<pdfrwt beam="1">  1       21 0.40107616E-01 0.24041809E+03</pdfrwt>
<pdfrwt beam="2">  1       21 0.44932897E-01 0.24041809E+03</pdfrwt>
<totfact> 0.27778522E+04</totfact>
</mgrwt>
</event>
<event>
 4    1  0.4439578E+000  0.2162540E+03  0.7546771E-02  0.1136707E+00
         21   -1    0    0  501  502  0.00000000000E+00  0.00000000000E+00  0.24733318540E+04  0.24733318540E+04  0.00000000000E+00 0. -1.
         21   -1    0    0  502  503 -0.00000000000E+00 -0.00000000000E+00 -0.49260585166E+02  0.49260585166E+02  0.00000000000E+00 0.  1.
          6    1    1    2  501    0 -0.12530238332E+03 -0.33706105721E+02  0.22021037322E+04  0.22126966887E+04  0.17300000000E+03 0. -1.
         -6    1    1    2    0  503  0.12530238332E+03  0.33706105721E+02  0.22196753659E+03  0.30989575042E+03  0.17300000000E+03 0.  1.
<mgrwt>
<rscale>  2 0.21625399E+03</rscale>
<asrwt>0</asrwt>
<pdfrwt beam="1">  1       21 0.38051250E+00 0.21625399E+03</pdfrwt>
<pdfrwt beam="2">  1       21 0.75785535E-02 0.21625399E+03</pdfrwt>
<totfact> 0.14647626E+03</totfact>
</mgrwt>
</event>
<event>
 4    1  0.4439578E+000  0.3341173E+03  0.7546771E-02  0.1069329E+00
         21   -1    0    0  503  502  0.00000000000E+00  0.00000000000E+00  0.16383924245E+04  0.16383924245E+04  0.00000000000E+00 0. -1.
         21   -1    0    0  501  503 -0.00000000000E+00 -0.00000000000E+00 -0.68869563960E+02  0.68869563960E+02  0.00000000000E+00 0. -1.
          6    1    1    2  501    0 -0.26060840888E+03  0.11742503503E+03  0.69669360303E+03  0.77266833643E+03  0.17300000000E+03 0. -1.
         -6    1    1    2    0  502  0.26060840888E+03 -0.11742503503E+03  0.87282925747E+03  0.93459365198E+03  0.17300000000E+03 0. -1.
<mgrwt>
<rscale>  2 0.33411732E+03</rscale>
<asrwt>0</asrwt>
<pdfrwt beam="1">  1       21 0.25206034E+00 0.33411732E+03</pdfrwt>
<pdfrwt beam="2">  1       21 0.10595319E-01 0.33411732E+03</pdfrwt>
<totfact> 0.42313837E+03</totfact>
</mgrwt>
</event>
<event>
 4    1  0.4439578E+000  0.2389692E+03  0.7546771E-02  0.1120481E+00
         21   -1    0    0  501  502  0.00000000000E+00  0.00000000000E+00  0.55074697889E+03  0.55074697889E+03  0.00000000000E+00 0.  1.
         21   -1    0    0  502  503 -0.00000000000E+00 -0.00000000000E+00 -0.11008161100E+03  0.11008161100E+03  0.00000000000E+00 0.  1.
          6    1    1    2  501    0  0.15601095996E+03 -0.53271456579E+02  0.29995759369E+03  0.38351118071E+03  0.17300000000E+03 0.  1.
         -6    1    1    2    0  503 -0.15601095996E+03  0.53271456579E+02  0.14070777420E+03  0.27731740918E+03  0.17300000000E+03 0.  1.
<mgrwt>
<rscale>  2 0.23896918E+03</rscale>
<asrwt>0</asrwt>
<pdfrwt beam="1">  1       21 0.84730303E-01 0.23896918E+03</pdfrwt>
<pdfrwt beam="2">  1       21 0.16935633E-01 0.23896918E+03</pdfrwt>
<totfact> 0.37048074E+04</totfact>
</mgrwt>
</event>
<event>
 4    1  0.4439578E+000  0.1823588E+03  0.7546771E-02  0.1165540E+00
         21   -1    0    0  501  502  0.00000000000E+00  0.00000000000E+00  0.83056440105E+03  0.83056440105E+03  0.00000000000E+00 0.  1.
         21   -1    0    0  502  503 -0.00000000000E+00 -0.00000000000E+00 -0.40244460312E+02  0.40244460312E+02  0.00000000000E+00 0.  1.
          6    1    1    2  501    0 -0.50643071805E+02  0.27586408915E+02  0.42629186902E+03  0.46365880588E+03  0.17300000000E+03 0. -1.
         -6    1    1    2    0  503  0.50643071805E+02 -0.27586408915E+02  0.36402807172E+03  0.40715005548E+03  0.17300000000E+03 0. -1.
<mgrwt>
<rscale>  2 0.18235880E+03</rscale>
<asrwt>0</asrwt>
<pdfrwt beam="1">  1       21 0.12777913E+00 0.18235880E+03</pdfrwt>
<pdfrwt beam="2">  1       21 0.61914561E-02 0.18235880E+03</pdfrwt>
<totfact> 0.84750044E+04</totfact>
</mgrwt>
</event>
<event>
 4    1  0.4439578E+000  0.2982251E+03  0.7546771E-02  0.1086131E+00
         21   -1    0    0  501  502  0.00000000000E+00  0.00000000000E+00  0.46024602275E+03  0.46024602275E+03  0.00000000000E+00 0.  1.
         21   -1    0    0  502  503 -0.00000000000E+00 -0.00000000000E+00 -0.23194667173E+03  0.23194667173E+03  0.00000000000E+00 0. -1.
          6    1    1    2  501    0 -0.54641958288E+02 -0.23669278776E+03  0.25553113800E+03  0.39272685402E+03  0.17300000000E+03 0.  1.
         -6    1    1    2    0  503  0.54641958288E+02  0.23669278776E+03 -0.27231786971E+02  0.29946584046E+03  0.17300000000E+03 0.  1.
<mgrwt>
<rscale>  2 0.29822512E+03</rscale>
<asrwt>0</asrwt>
<pdfrwt beam="1">  1       21 0.70807080E-01 0.29822512E+03</pdfrwt>
<pdfrwt beam="2">  1       21 0.35684103E-01 0.29822512E+03</pdfrwt>
<totfact> 0.12921323E+04</totfact>
</mgrwt>
</event>
<event>
 4    1  0.4439578E+000  0.2330751E+03  0.7546771E-02  0.1124494E+00
         21   -1    0    0  503  502  0.00000000000E+00  0.00000000000E+00  0.31817082099E+03  0.31817082099E+03  0.00000000000E+00 0. -1.
         21   -1    0    0  501  503 -0.00000000000E+00 -0.00000000000E+00 -0.20098810727E+03  0.20098810727E+03  0.00000000000E+00 0.  1.
          6    1    1    2  501    0 -0.12036570255E+03 -0.99534449676E+02 -0.42112247448E+02  0.23684900339E+03  0.17300000000E+03 0.  1.
         -6    1    1    2    0  502  0.12036570255E+03  0.99534449676E+02  0.15929496117E+03  0.28230992486E+03  0.17300000000E+03 0. -1.
<mgrwt>
<rscale>  2 0.23307511E+03</rscale>
<asrwt>0</asrwt>
<pdfrwt beam="1">  1       21 0.48949357E-01 0.23307511E+03</pdfrwt>
<pdfrwt beam="2">  1       21 0.30921247E-01 0.23307511E+03</pdfrwt>
<totfact> 0.39223482E+04</totfact>
</mgrwt>
</event>
<event>
 4    1  0.4439578E+000  0.2209162E+03  0.7546771E-02  0.1133202E+00
         21   -1    0    0  503  502  0.00000000000E+00  0.00000000000E+00  0.91599463511E+02  0.91599463511E+02  0.00000000000E+00 0.  1.
         21   -1    0    0  501  503 -0.00000000000E+00 -0.00000000000E+00 -0.16994858451E+04  0.16994858451E+04  0.00000000000E+00 0. -1.
          6    1    1    2  501    0  0.94745872986E+02 -0.99489593240E+02 -0.15459449604E+04  0.15616496983E+04  0.17300000000E+03 0. -1.
         -6    1    1    2    0  502 -0.94745872986E+02  0.99489593240E+02 -0.61941421161E+02  0.22943561028E+03  0.17300000000E+03 0.  1.
<mgrwt>
<rscale>  2 0.22091618E+03</rscale>
<asrwt>0</asrwt>
<pdfrwt beam="1">  1       21 0.14092227E-01 0.22091618E+03</pdfrwt>
<pdfrwt beam="2">  1       21 0.26145933E+00 0.22091618E+03</pdfrwt>
<totfact> 0.24277158E+03</totfact>
</mgrwt>
</event>
<event>
 4    1  0.4439578E+000  0.2184527E+03  0.7546771E-02  0.1135042E+00
         21   -1    0    0  501  502  0.00000000000E+00  0.00000000000E+00  0.16884155029E+04  0.16884155029E+04  0.00000000000E+00 0.  1.
         21   -1    0    0  502  503 -0.00000000000E+00 -0.00000000000E+00 -0.55633835799E+02  0.55633835799E+02  0.00000000000E+00 0.  1.
          6    1    1    2  501    0  0.21829071931E+02 -0.13159054728E+03  0.14280287538E+04  0.14446410289E+04  0.17300000000E+03 0.  1.
         -6    1    1    2    0  503 -0.21829071931E+02  0.13159054728E+03  0.20475291332E+03  0.29940830988E+03  0.17300000000E+03 0.  1.
<mgrwt>
<rscale>  2 0.21845270E+03</rscale>
<asrwt>0</asrwt>
<pdfrwt beam="1">  1       21 0.25975619E+00 0.21845270E+03</pdfrwt>
<pdfrwt beam="2">  1       21 0.85590530E-02 0.21845270E+03</pdfrwt>
<totfact> 0.60615956E+03</totfact>
</mgrwt>
</event>
<event>
 4    1  0.4439578E+000  0.3539482E+03  0.7546771E-02  0.1061006E+00
         21   -1    0    0  503  502  0.00000000000E+00  0.00000000000E+00  0.33038208778E+03  0.33038208778E+03  0.00000000000E+00 0.  1.
         21   -1    0    0  501  503 -0.00000000000E+00 -0.00000000000E+00 -0.93161871158E+03  0.93161871158E+03  0.00000000000E+00 0. -1.
          6    1    1    2  501    0 -0.29863394829E+03 -0.78537304146E+02 -0.78651793349E+03  0.86249046540E+03  0.17300000000E+03 0. -1.
         -6    1    1    2    0  502  0.29863394829E+03  0.78537304146E+02  0.18528130969E+03  0.39951033395E+03  0.17300000000E+03 0.  1.
<mgrwt>
<rscale>  2 0.35394822E+03</rscale>
<asrwt>0</asrwt>
<pdfrwt beam="1">  1       21 0.50828014E-01 0.35394822E+03</pdfrwt>
<pdfrwt beam="2">  1       21 0.14332595E+00 0.35394822E+03</pdfrwt>
<totfact> 0.10990664E+03</totfact>
</mgrwt>
</event>
<event>
 4    1  0.4439578E+000  0.2634143E+03  0.7546771E-02  0.1105109E+00
         21   -1    0    0  501  502  0.00000000000E+00  0.00000000000E+00  0.54863141979E+02  0.54863141979E+02  0.00000000000E+00 0. -1.
         21   -1    0    0  502  503 -0.00000000000E+00 -0.00000000000E+00 -0.14574375643E+04  0.14574375643E+04  0.00000000000E+00 0. -1.
          6    1    1    2  501    0 -0.10658292850E+03 -0.16762506725E+03 -0.97624251630E+03  0.10111560386E+04  0.17300000000E+03 0. -1.
         -6    1    1    2    0  503  0.10658292850E+03  0.16762506725E+03 -0.42633190598E+03  0.50114466761E+03  0.17300000000E+03 0. -1.
<mgrwt>
<rscale>  2 0.26341428E+03</rscale>
<asrwt>0</asrwt>
<pdfrwt beam="1">  1       21 0.84404842E-02 0.26341428E+03</pdfrwt>
<pdfrwt beam="2">  1       21 0.22422114E+00 0.26341428E+03</pdfrwt>
<totfact> 0.98048717E+03</totfact>
</mgrwt>
</event>
<event>
 4    1  0.4439578E+000  0.2394863E+03  0.7546771E-02  0.1120135E+00
         21   -1    0    0  501  502  0.00000000000E+00  0.00000000000E+00  0.14021098827E+03  0.14021098827E+03  0.00000000000E+00 0.  1.
         21   -1    0    0  502  503 -0.00000000000E+00 -0.00000000000E+00 -0.51849598264E+03  0.51849598264E+03  0.00000000000E+00 0. -1.
          6    1    1    2  501    0 -0.62308760342E+02  0.15343509828E+03 -0.37826888336E+02  0.24245532471E+03  0.17300000000E+03 0.  1.
         -6    1    1    2    0  503  0.62308760342E+02 -0.15343509828E+03 -0.34045810604E+03  0.41625164620E+03  0.17300000000E+03 0. -1.
<mgrwt>
<rscale>  2 0.23948635E+03</rscale>
<asrwt>0</asrwt>
<pdfrwt beam="1">  1       21 0.21570921E-01 0.23948635E+03</pdfrwt>
<pdfrwt beam="2">  1       21 0.79768613E-01 0.23948635E+03</pdfrwt>
<totfact> 0.27049691E+04</totfact>
</mgrwt>
</event>
<event>
 4    1  0.4439578E+000  0.1757219E+03  0.7546771E-02  0.1172009E+00
         21   -1    0    0  501  502  0.00000000000E+00  0.00000000000E+00  0.59088026905E+03  0.59088026905E+03  0.00000000000E+00 0. -1.
         21   -1    0    0  502  503 -0.00000000000E+00 -0.00000000000E+00 -0.80839200117E+02  0.80839200117E+02  0.00000000000E+00 0.  1.
          6    1    1    2  501    0  0.29405274822E+02 -0.91940566463E+01  0.45472483954E+03  0.48749654416E+03  0.17300000000E+03 0. -1.
         -6    1    1    2    0  503 -0.29405274822E+02  0.91940566463E+01  0.55316229385E+02  0.18422292501E+03  0.17300000000E+03 0.  1.
<mgrwt>
<rscale>  2 0.17572194E+03</rscale>
<asrwt>0</asrwt>
<pdfrwt beam="1">  1       21 0.90904654E-01 0.17572194E+03</pdfrwt>
<pdfrwt beam="2">  1       21 0.12436800E-01 0.17572194E+03</pdfrwt>
<totfact> 0.56961169E+04</totfact>
</mgrwt>
</event>
<event>
 4    1  0.4439578E+000  0.2166551E+03  0.7546771E-02  0.1136402E+00
         21   -1    0    0  501  502  0.00000000000E+00  0.00000000000E+00  0.35313340086E+03  0.35313340086E+03  0.00000000000E+00 0. -1.
         21   -1    0    0  502  503 -0.00000000000E+00 -0.00000000000E+00 -0.29346022133E+03  0.29346022133E+03  0.00000000000E+00 0.  1.
          6    1    1    2  501    0 -0.12368439803E+03 -0.41383439772E+02  0.26895618978E+03  0.34536480919E+03  0.17300000000E+03 0. -1.
         -6    1    1    2    0  503  0.12368439803E+03  0.41383439772E+02 -0.20928301025E+03  0.30122881300E+03  0.17300000000E+03 0.  1.
<mgrwt>
<rscale>  2 0.21665507E+03</rscale>
<asrwt>0</asrwt>
<pdfrwt beam="1">  1       21 0.54328215E-01 0.21665507E+03</pdfrwt>
<pdfrwt beam="2">  1       21 0.45147727E-01 0.21665507E+03</pdfrwt>
<totfact> 0.14844343E+04</totfact>
</mgrwt>
</event>
<event>
 4    1  0.4439578E+000  0.1860751E+03  0.7546771E-02  0.1162050E+00
         21   -1    0    0  501  502  0.00000000000E+00  0.00000000000E+00  0.85054751255E+02  0.85054751255E+02  0.00000000000E+00 0.  1.
         21   -1    0    0  502  503 -0.00000000000E+00 -0.00000000000E+00 -0.45283537428E+03  0.45283537428E+03  0.00000000000E+00 0.  1.
          6    1    1    2  501    0  0.68510072905E+02  0.11425672466E+01 -0.98398804353E+02  0.21049052294E+03  0.17300000000E+03 0.  1.
         -6    1    1    2    0  503 -0.68510072905E+02 -0.11425672466E+01 -0.26938181867E+03  0.32739960260E+03  0.17300000000E+03 0.  1.
<mgrwt>
<rscale>  2 0.18607508E+03</rscale>
<asrwt>0</asrwt>
<pdfrwt beam="1">  1       21 0.13085346E-01 0.18607508E+03</pdfrwt>
<pdfrwt beam="2">  1       21 0.69666980E-01 0.18607508E+03</pdfrwt>
<totfact> 0.94308968E+04</totfact>
</mgrwt>
</event>
<event>
 4    1  0.4439578E+000  0.1790297E+03  0.7546771E-02  0.1168745E+00
         21   -1    0    0  503  502  0.00000000000E+00  0.00000000000E+00  0.89895363521E+02  0.89895363521E+02  0.00000000000E+00 0.  1.
         21   -1    0    0  501  503 -0.00000000000E+00 -0.00000000000E+00 -0.62897692765E+03  0.62897692765E+03  0.00000000000E+00 0.  1.
          6    1    1    2  501    0 -0.43926918215E+02 -0.13894358162E+02 -0.50609702440E+03  0.53682941931E+03  0.17300000000E+03 0.  1.
         -6    1    1    2    0  502  0.43926918215E+02  0.13894358162E+02 -0.32984539726E+02  0.18204287186E+03  0.17300000000E+03 0.  1.
<mgrwt>
<rscale>  2 0.17902968E+03</rscale>
<asrwt>0</asrwt>
<pdfrwt beam="1">  1       21 0.13830055E-01 0.17902968E+03</pdfrwt>
<pdfrwt beam="2">  1       21 0.96765686E-01 0.17902968E+03</pdfrwt>
<totfact> 0.40618793E+04</totfact>
</mgrwt>
</event>
<event>
 4    1  0.4439578E+000  0.2161465E+03  0.7546771E-02  0.1136789E+00
         21   -1    0    0  503  502  0.00000000000E+00  0.00000000000E+00  0.11410502093E+04  0.11410502093E+04  0.00000000000E+00 0. -1.
         21   -1    0    0  501  503 -0.00000000000E+00 -0.00000000000E+00 -0.41300083161E+02  0.41300083161E+02  0.00000000000E+00 0. -1.
          6    1    1    2  501    0 -0.12329822809E+03  0.39847981234E+02  0.49499259565E+03  0.54012682252E+03  0.17300000000E+03 0. -1.
         -6    1    1    2    0  502  0.12329822809E+03 -0.39847981234E+02  0.60475753046E+03  0.64222346991E+03  0.17300000000E+03 0. -1.
<mgrwt>
<rscale>  2 0.21614651E+03</rscale>
<asrwt>0</asrwt>
<pdfrwt beam="1">  1       21 0.17554616E+00 0.21614651E+03</pdfrwt>
<pdfrwt beam="2">  1       21 0.63538598E-02 0.21614651E+03</pdfrwt>
<totfact> 0.34372912E+04</totfact>
</mgrwt>
</event>
<event>
 4    1  0.4439578E+000  0.1769023E+03  0.7546771E-02  0.1170835E+00
         21   -1    0    0  501  502  0.00000000000E+00  0.00000000000E+00  0.22259655315E+03  0.22259655315E+03  0.00000000000E+00 0.  1.
         21   -1    0    0  502  503 -0.00000000000E+00 -0.00000000000E+00 -0.16759086768E+03  0.16759086768E+03  0.00000000000E+00 0.  1.
          6    1    1    2  501    0  0.11915171938E+02 -0.34977644934E+02  0.10581387315E+03  0.20613341000E+03  0.17300000000E+03 0.  1.
         -6    1    1    2    0  503 -0.11915171938E+02  0.34977644934E+02 -0.50808187686E+02  0.18405401083E+03  0.17300000000E+03 0.  1.
<mgrwt>
<rscale>  2 0.17690225E+03</rscale>
<asrwt>0</asrwt>
<pdfrwt beam="1">  1       21 0.34245624E-01 0.17690225E+03</pdfrwt>
<pdfrwt beam="2">  1       21 0.25783210E-01 0.17690225E+03</pdfrwt>
<totfact> 0.11798596E+05</totfact>
</mgrwt>
</event>
<event>
 4    1  0.4439578E+000  0.1942147E+03  0.7546771E-02  0.1154714E+00
         21   -1    0    0  503  502  0.00000000000E+00  0.00000000000E+00  0.19855446073E+03  0.19855446073E+03  0.00000000000E+00 0.  1.
         21   -1    0    0  501  503 -0.00000000000E+00 -0.00000000000E+00 -0.59423202311E+03  0.59423202311E+03  0.00000000000E+00 0.  1.
          6    1    1    2  501    0  0.49497844956E+02  0.73077334192E+02 -0.52478765335E+03  0.55957252839E+03  0.17300000000E+03 0.  1.
         -6    1    1    2    0  502 -0.49497844956E+02 -0.73077334192E+02  0.12911009097E+03  0.23321395545E+03  0.17300000000E+03 0.  1.
<mgrwt>
<rscale>  2 0.19421466E+03</rscale>
<asrwt>0</asrwt>
<pdfrwt beam="1">  1       21 0.30546841E-01 0.19421466E+03</pdfrwt>
<pdfrwt beam="2">  1       21 0.91420310E-01 0.19421466E+03</pdfrwt>
<totfact> 0.10411457E+04</totfact>
</mgrwt>
</event>
<event>
 4    1  0.4439578E+000  0.1858241E+03  0.7546771E-02  0.1162283E+00
         21   -1    0    0  501  502  0.00000000000E+00  0.00000000000E+00  0.47192098641E+02  0.47192098641E+02  0.00000000000E+00 0. -1.
         21   -1    0    0  502  503 -0.00000000000E+00 -0.00000000000E+00 -0.12333652101E+04  0.12333652101E+04  0.00000000000E+00 0. -1.
          6    1    1    2  501    0 -0.61642498402E+02  0.28315884476E+02 -0.18473991101E+03  0.26202942896E+03  0.17300000000E+03 0. -1.
         -6    1    1    2    0  503  0.61642498402E+02 -0.28315884476E+02 -0.10014332004E+04  0.10185278798E+04  0.17300000000E+03 0. -1.
<mgrwt>
<rscale>  2 0.18582408E+03</rscale>
<asrwt>0</asrwt>
<pdfrwt beam="1">  1       21 0.72603238E-02 0.18582408E+03</pdfrwt>
<pdfrwt beam="2">  1       21 0.18974847E+00 0.18582408E+03</pdfrwt>
<totfact> 0.22345177E+04</totfact>
</mgrwt>
</event>
<event>
 4    1  0.4439578E+000  0.1792498E+03  0.7546771E-02  0.1168531E+00
         21   -1    0    0  501  502  0.00000000000E+00  0.00000000000E+00  0.36623767306E+03  0.36623767306E+03  0.00000000000E+00 0. -1.
         21   -1    0    0  502  503 -0.00000000000E+00 -0.00000000000E+00 -0.13475805820E+03  0.13475805820E+03  0.00000000000E+00 0. -1.
          6    1    1    2  501    0 -0.84663622958E+01 -0.46149713342E+02  0.26371863421E+03  0.31886986901E+03  0.17300000000E+03 0. -1.
         -6    1    1    2    0  503  0.84663622958E+01  0.46149713342E+02 -0.32239019357E+02  0.18212586225E+03  0.17300000000E+03 0. -1.
<mgrwt>
<rscale>  2 0.17924976E+03</rscale>
<asrwt>0</asrwt>
<pdfrwt beam="1">  1       21 0.56344257E-01 0.17924976E+03</pdfrwt>
<pdfrwt beam="2">  1       21 0.20732009E-01 0.17924976E+03</pdfrwt>
<totfact> 0.64336493E+04</totfact>
</mgrwt>
</event>
<event>
 4    1  0.4439578E+000  0.2159787E+03  0.7546771E-02  0.1136917E+00
         21   -1    0    0  503  502  0.00000000000E+00  0.00000000000E+00  0.71820380281E+03  0.71820380281E+03  0.00000000000E+00 0.  1.
         21   -1    0    0  501  503 -0.00000000000E+00 -0.00000000000E+00 -0.71354615340E+02  0.71354615340E+02  0.00000000000E+00 0.  1.
          6    1    1    2  501    0 -0.99294215861E+02 -0.82815894314E+02  0.44170545218E+03  0.49168131970E+03  0.17300000000E+03 0.  1.
         -6    1    1    2    0  502  0.99294215861E+02  0.82815894314E+02  0.20514373529E+03  0.29787709846E+03  0.17300000000E+03 0.  1.
<mgrwt>
<rscale>  2 0.21597873E+03</rscale>
<asrwt>0</asrwt>
<pdfrwt beam="1">  1       21 0.11049289E+00 0.21597873E+03</pdfrwt>
<pdfrwt beam="2">  1       21 0.10977634E-01 0.21597873E+03</pdfrwt>
<totfact> 0.43896092E+04</totfact>
</mgrwt>
</event>
<event>
 4    1  0.4439578E+000  0.1750230E+03  0.7546771E-02  0.1172709E+00
         21   -1    0    0  503  502  0.00000000000E+00  0.00000000000E+00  0.17075576466E+04  0.17075576466E+04  0.00000000000E+00 0. -1.
         21   -1    0    0  501  503 -0.00000000000E+00 -0.00000000000E+00 -0.23577479560E+02  0.23577479560E+02  0.00000000000E+00 0. -1.
          6    1    1    2  501    0  0.27150209877E+01  0.26394737051E+02  0.41873055331E+03  0.45383733843E+03  0.17300000000E+03 0. -1.
         -6    1    1    2    0  502 -0.27150209877E+01 -0.26394737051E+02  0.12652496137E+04  0.12772977877E+04  0.17300000000E+03 0. -1.
<mgrwt>
<rscale>  2 0.17502301E+03</rscale>
<asrwt>0</asrwt>
<pdfrwt beam="1">  1       21 0.26270108E+00 0.17502301E+03</pdfrwt>
<pdfrwt beam="2">  1       21 0.36273059E-02 0.17502301E+03</pdfrwt>
<totfact> 0.26279811E+04</totfact>
</mgrwt>
</event>
<event>
 4    1  0.4439578E+000  0.1928834E+03  0.7546771E-02  0.1155886E+00
         21   -1    0    0  501  502  0.00000000000E+00  0.00000000000E+00  0.10751444906E+03  0.10751444906E+03  0.00000000000E+00 0. -1.
         21   -1    0    0  502  503 -0.00000000000E+00 -0.00000000000E+00 -0.69978803024E+03  0.69978803024E+03  0.00000000000E+00 0. -1.
          6    1    1    2  501    0  0.19184900039E+02  0.83107948810E+02 -0.91434551103E+01  0.19309995939E+03  0.17300000000E+03 0. -1.
         -6    1    1    2    0  503 -0.19184900039E+02 -0.83107948810E+02 -0.58313012607E+03  0.61420251992E+03  0.17300000000E+03 0. -1.
<mgrwt>
<rscale>  2 0.19288336E+03</rscale>
<asrwt>0</asrwt>
<pdfrwt beam="1">  1       21 0.16540685E-01 0.19288336E+03</pdfrwt>
<pdfrwt beam="2">  1       21 0.10765969E+00 0.19288336E+03</pdfrwt>
<totfact> 0.22567526E+04</totfact>
</mgrwt>
</event>
<event>
 4    1  0.4439578E+000  0.1938384E+03  0.7546771E-02  0.1155044E+00
         21   -1    0    0  501  502  0.00000000000E+00  0.00000000000E+00  0.25554084702E+03  0.25554084702E+03  0.00000000000E+00 0.  1.
         21   -1    0    0  502  503 -0.00000000000E+00 -0.00000000000E+00 -0.20030638033E+03  0.20030638033E+03  0.00000000000E+00 0.  1.
          6    1    1    2  501    0 -0.32292476056E+02 -0.81249690116E+02  0.14515867568E+03  0.24216597052E+03  0.17300000000E+03 0.  1.
         -6    1    1    2    0  503  0.32292476056E+02  0.81249690116E+02 -0.89924208989E+02  0.21368125682E+03  0.17300000000E+03 0.  1.
<mgrwt>
<rscale>  2 0.19383838E+03</rscale>
<asrwt>0</asrwt>
<pdfrwt beam="1">  1       21 0.39313976E-01 0.19383838E+03</pdfrwt>
<pdfrwt beam="2">  1       21 0.30816366E-01 0.19383838E+03</pdfrwt>
<totfact> 0.63044471E+04</totfact>
</mgrwt>
</event>
<event>
 4    1  0.4439578E+000  0.2333257E+03  0.7546771E-02  0.1124321E+00
         21   -1    0    0  501  502  0.00000000000E+00  0.00000000000E+00  0.63230240801E+03  0.63230240801E+03  0.00000000000E+00 0. -1.
         21   -1    0    0  502  503 -0.00000000000E+00 -0.00000000000E+00 -0.93132655758E+02  0.93132655758E+02  0.00000000000E+00 0.  1.
          6    1    1    2  501    0  0.13787905628E+03  0.74170284048E+02  0.16990777359E+03  0.28863388007E+03  0.17300000000E+03 0.  1.
         -6    1    1    2    0  503 -0.13787905628E+03 -0.74170284048E+02  0.36926197866E+03  0.43680118370E+03  0.17300000000E+03 0. -1.
<mgrwt>
<rscale>  2 0.23332566E+03</rscale>
<asrwt>0</asrwt>
<pdfrwt beam="1">  1       21 0.97277291E-01 0.23332566E+03</pdfrwt>
<pdfrwt beam="2">  1       21 0.14328101E-01 0.23332566E+03</pdfrwt>
<totfact> 0.36581379E+04</totfact>
</mgrwt>
</event>
<event>
 4    1  0.4439578E+000  0.1854112E+03  0.7546771E-02  0.1162666E+00
         21   -1    0    0  501  502  0.00000000000E+00  0.00000000000E+00  0.14050537109E+04  0.14050537109E+04  0.00000000000E+00 0. -1.
         21   -1    0    0  502  503 -0.00000000000E+00 -0.00000000000E+00 -0.25985190839E+02  0.25985190839E+02  0.00000000000E+00 0. -1.
          6    1    1    2  501    0  0.48700777923E+02 -0.45569304637E+02  0.86248963993E+03  0.88219368977E+03  0.17300000000E+03 0. -1.
         -6    1    1    2    0  503 -0.48700777923E+02  0.45569304637E+02  0.51657888012E+03  0.54884521195E+03  0.17300000000E+03 0. -1.
<mgrwt>
<rscale>  2 0.18541124E+03</rscale>
<asrwt>0</asrwt>
<pdfrwt beam="1">  1       21 0.21616205E+00 0.18541124E+03</pdfrwt>
<pdfrwt beam="2">  1       21 0.39977228E-02 0.18541124E+03</pdfrwt>
<totfact> 0.41880513E+04</totfact>
</mgrwt>
</event>
<event>
 4    1  0.4439578E+000  0.1994596E+03  0.7546771E-02  0.1150196E+00
         21   -1    0    0  503  502  0.00000000000E+00  0.00000000000E+00  0.20465050799E+04  0.20465050799E+04  0.00000000000E+00 0. -1.
         21   -1    0    0  501  503 -0.00000000000E+00 -0.00000000000E+00 -0.21466161561E+02  0.21466161561E+02  0.00000000000E+00 0. -1.
          6    1    1    2  501    0  0.98869834117E+02 -0.89381309749E+01  0.69485371629E+03  0.72291480918E+03  0.17300000000E+03 0. -1.
         -6    1    1    2    0  502 -0.98869834117E+02  0.89381309749E+01  0.13301852020E+04  0.13450564323E+04  0.17300000000E+03 0. -1.
<mgrwt>
<rscale>  2 0.19945961E+03</rscale>
<asrwt>0</asrwt>
<pdfrwt beam="1">  1       21 0.31484678E+00 0.19945961E+03</pdfrwt>
<pdfrwt beam="2">  1       21 0.33024880E-02 0.19945961E+03</pdfrwt>
<totfact> 0.15015876E+04</totfact>
</mgrwt>
</event>
<event>
 4    1  0.4439578E+000  0.2294713E+03  0.7546771E-02  0.1127012E+00
         21   -1    0    0  503  502  0.00000000000E+00  0.00000000000E+00  0.60266108539E+02  0.60266108539E+02  0.00000000000E+00 0. -1.
         21   -1    0    0  501  503 -0.00000000000E+00 -0.00000000000E+00 -0.10748557869E+04  0.10748557869E+04  0.00000000000E+00 0.  1.
          6    1    1    2  501    0  0.18484379713E+02 -0.14962089828E+03 -0.75279814076E+03  0.78699563292E+03  0.17300000000E+03 0.  1.
         -6    1    1    2    0  502 -0.18484379713E+02  0.14962089828E+03 -0.26179153758E+03  0.34812626250E+03  0.17300000000E+03 0. -1.
<mgrwt>
<rscale>  2 0.22947132E+03</rscale>
<asrwt>0</asrwt>
<pdfrwt beam="1">  1       21 0.92717088E-02 0.22947132E+03</pdfrwt>
<pdfrwt beam="2">  1       21 0.16536243E+00 0.22947132E+03</pdfrwt>
<totfact> 0.20828609E+04</totfact>
</mgrwt>
</event>
<event>
 4    1  0.4439578E+000  0.2435930E+03  0.7546771E-02  0.1117422E+00
         21   -1    0    0  503  502  0.00000000000E+00  0.00000000000E+00  0.36135345984E+03  0.36135345984E+03  0.00000000000E+00 0.  1.
         21   -1    0    0  501  503 -0.00000000000E+00 -0.00000000000E+00 -0.16795099308E+03  0.16795099308E+03  0.00000000000E+00 0. -1.
          6    1    1    2  501    0 -0.71251626601E+02 -0.15598645558E+03  0.13620360538E+03  0.27908599165E+03  0.17300000000E+03 0.  1.
         -6    1    1    2    0  502  0.71251626601E+02  0.15598645558E+03  0.57198861374E+02  0.25021846127E+03  0.17300000000E+03 0. -1.
<mgrwt>
<rscale>  2 0.24359304E+03</rscale>
<asrwt>0</asrwt>
<pdfrwt beam="1">  1       21 0.55592840E-01 0.24359304E+03</pdfrwt>
<pdfrwt beam="2">  1       21 0.25838615E-01 0.24359304E+03</pdfrwt>
<totfact> 0.42334106E+04</totfact>
</mgrwt>
</event>
<event>
 4    1  0.4439578E+000  0.2115265E+03  0.7546771E-02  0.1140363E+00
         21   -1    0    0  503  502  0.00000000000E+00  0.00000000000E+00  0.30230521015E+03  0.30230521015E+03  0.00000000000E+00 0.  1.
         21   -1    0    0  501  503 -0.00000000000E+00 -0.00000000000E+00 -0.31686406400E+03  0.31686406400E+03  0.00000000000E+00 0.  1.
          6    1    1    2  501    0  0.10919773565E+03  0.53761719055E+02 -0.23327594877E+03  0.31489861254E+03  0.17300000000E+03 0.  1.
         -6    1    1    2    0  502 -0.10919773565E+03 -0.53761719055E+02  0.21871709491E+03  0.30427066161E+03  0.17300000000E+03 0.  1.
<mgrwt>
<rscale>  2 0.21152652E+03</rscale>
<asrwt>0</asrwt>
<pdfrwt beam="1">  1       21 0.46508494E-01 0.21152652E+03</pdfrwt>
<pdfrwt beam="2">  1       21 0.48748318E-01 0.21152652E+03</pdfrwt>
<totfact> 0.17582501E+04</totfact>
</mgrwt>
</event>
<event>
 4    1  0.4439578E+000  0.1981126E+03  0.7546771E-02  0.1151341E+00
         21   -1    0    0  503  502  0.00000000000E+00  0.00000000000E+00  0.66599477849E+03  0.66599477849E+03  0.00000000000E+00 0. -1.
         21   -1    0    0  501  503 -0.00000000000E+00 -0.00000000000E+00 -0.79754890395E+02  0.79754890395E+02  0.00000000000E+00 0. -1.
          6    1    1    2  501    0 -0.14829657484E+02 -0.95392337146E+02  0.10259510985E+03  0.22310171064E+03  0.17300000000E+03 0. -1.
         -6    1    1    2    0  502  0.14829657484E+02  0.95392337146E+02  0.48364477825E+03  0.52264795824E+03  0.17300000000E+03 0. -1.
<mgrwt>
<rscale>  2 0.19811264E+03</rscale>
<asrwt>0</asrwt>
<pdfrwt beam="1">  1       21 0.10246073E+00 0.19811264E+03</pdfrwt>
<pdfrwt beam="2">  1       21 0.12269984E-01 0.19811264E+03</pdfrwt>
<totfact> 0.43561371E+04</totfact>
</mgrwt>
</event>
<event>
 4    1  0.4439578E+000  0.1895149E+03  0.7546771E-02  0.1158900E+00
         21   -1    0    0  501  502  0.00000000000E+00  0.00000000000E+00  0.19870057141E+02  0.19870057141E+02  0.00000000000E+00 0.  1.
         21   -1    0    0  502  503 -0.00000000000E+00 -0.00000000000E+00 -0.26067622334E+04  0.26067622334E+04  0.00000000000E+00 0.  1.
          6    1    1    2  501    0 -0.14463537334E+02 -0.76011238704E+02 -0.56624815555E+03  0.59712048699E+03  0.17300000000E+03 0.  1.
         -6    1    1    2    0  503  0.14463537334E+02  0.76011238704E+02 -0.20206440207E+04  0.20295118035E+04  0.17300000000E+03 0.  1.
<mgrwt>
<rscale>  2 0.18951491E+03</rscale>
<asrwt>0</asrwt>
<pdfrwt beam="1">  1       21 0.30569296E-02 0.18951491E+03</pdfrwt>
<pdfrwt beam="2">  1       21 0.40104064E+00 0.18951491E+03</pdfrwt>
<totfact> 0.52872367E+03</totfact>
</mgrwt>
</event>
<event>
 4    1  0.4439578E+000  0.1935422E+03  0.7546771E-02  0.1155305E+00
         21   -1    0    0  501  502  0.00000000000E+00  0.00000000000E+00  0.43682052915E+03  0.43682052915E+03  0.00000000000E+00 0. -1.
         21   -1    0    0  502  503 -0.00000000000E+00 -0.00000000000E+00 -0.85857594603E+02  0.85857594603E+02  0.00000000000E+00 0. -1.
          6    1    1    2  501    0 -0.73875346716E+02 -0.45519322096E+02  0.18461254556E+03  0.26747031146E+03  0.17300000000E+03 0. -1.
         -6    1    1    2    0  503  0.73875346716E+02  0.45519322096E+02  0.16635038899E+03  0.25520781229E+03  0.17300000000E+03 0. -1.
<mgrwt>
<rscale>  2 0.19354218E+03</rscale>
<asrwt>0</asrwt>
<pdfrwt beam="1">  1       21 0.67203157E-01 0.19354218E+03</pdfrwt>
<pdfrwt beam="2">  1       21 0.13208861E-01 0.19354218E+03</pdfrwt>
<totfact> 0.10006587E+05</totfact>
</mgrwt>
</event>
<event>
 4    1  0.4439578E+000  0.2030717E+03  0.7546771E-02  0.1147173E+00
         21   -1    0    0  503  502  0.00000000000E+00  0.00000000000E+00  0.15572892028E+04  0.15572892028E+04  0.00000000000E+00 0.  1.
         21   -1    0    0  501  503 -0.00000000000E+00 -0.00000000000E+00 -0.40762729310E+02  0.40762729310E+02  0.00000000000E+00 0. -1.
          6    1    1    2  501    0  0.27484275355E+02  0.10273134256E+03  0.28530350355E+03  0.35019452205E+03  0.17300000000E+03 0. -1.
         -6    1    1    2    0  502 -0.27484275355E+02 -0.10273134256E+03  0.12312229699E+04  0.12478574100E+04  0.17300000000E+03 0.  1.
<mgrwt>
<rscale>  2 0.20307170E+03</rscale>
<asrwt>0</asrwt>
<pdfrwt beam="1">  1       21 0.23958291E+00 0.20307170E+03</pdfrwt>
<pdfrwt beam="2">  1       21 0.62711903E-02 0.20307170E+03</pdfrwt>
<totfact> 0.13878237E+04</totfact>
</mgrwt>
</event>
<event>
 4    1  0.4439578E+000  0.2397933E+03  0.7546771E-02  0.1119931E+00
         21   -1    0    0  501  502  0.00000000000E+00  0.00000000000E+00  0.75660945348E+02  0.75660945348E+02  0.00000000000E+00 0. -1.
         21   -1    0    0  502  503 -0.00000000000E+00 -0.00000000000E+00 -0.83461965597E+03  0.83461965597E+03  0.00000000000E+00 0.  1.
          6    1    1    2  501    0 -0.13886836299E+03  0.91035192501E+02 -0.24337096193E+03  0.34165809462E+03  0.17300000000E+03 0. -1.
         -6    1    1    2    0  503  0.13886836299E+03 -0.91035192501E+02 -0.51558774870E+03  0.56862250670E+03  0.17300000000E+03 0.  1.
<mgrwt>
<rscale>  2 0.23979330E+03</rscale>
<asrwt>0</asrwt>
<pdfrwt beam="1">  1       21 0.11640146E-01 0.23979330E+03</pdfrwt>
<pdfrwt beam="2">  1       21 0.12840302E+00 0.23979330E+03</pdfrwt>
<totfact> 0.26899640E+04</totfact>
</mgrwt>
</event>
<event>
 4    1  0.4439578E+000  0.2439338E+03  0.7546771E-02  0.1117200E+00
         21   -1    0    0  501  502  0.00000000000E+00  0.00000000000E+00  0.73339336086E+02  0.73339336086E+02  0.00000000000E+00 0.  1.
         21   -1    0    0  502  503 -0.00000000000E+00 -0.00000000000E+00 -0.82321278679E+03  0.82321278679E+03  0.00000000000E+00 0. -1.
          6    1    1    2  501    0 -0.35684083815E+02 -0.16823010397E+03 -0.32111966824E+03  0.40326363963E+03  0.17300000000E+03 0.  1.
         -6    1    1    2    0  503  0.35684083815E+02  0.16823010397E+03 -0.42875378247E+03  0.49328848324E+03  0.17300000000E+03 0. -1.
<mgrwt>
<rscale>  2 0.24393385E+03</rscale>
<asrwt>0</asrwt>
<pdfrwt beam="1">  1       21 0.11282974E-01 0.24393385E+03</pdfrwt>
<pdfrwt beam="2">  1       21 0.12664813E+00 0.24393385E+03</pdfrwt>
<totfact> 0.29393079E+04</totfact>
</mgrwt>
</event>
<event>
 4    1  0.4439578E+000  0.2024915E+03  0.7546771E-02  0.1147654E+00
         21   -1    0    0  503  502  0.00000000000E+00  0.00000000000E+00  0.12246935286E+04  0.12246935286E+04  0.00000000000E+00 0. -1.
         21   -1    0    0  501  503 -0.00000000000E+00 -0.00000000000E+00 -0.42605064582E+02  0.42605064582E+02  0.00000000000E+00 0. -1.
          6    1    1    2  501    0 -0.70928655485E+02  0.77736289391E+02  0.29779624241E+03  0.36011860109E+03  0.17300000000E+03 0. -1.
         -6    1    1    2    0  502  0.70928655485E+02 -0.77736289391E+02  0.88429222165E+03  0.90717999214E+03  0.17300000000E+03 0. -1.
<mgrwt>
<rscale>  2 0.20249149E+03</rscale>
<asrwt>0</asrwt>
<pdfrwt beam="1">  1       21 0.18841436E+00 0.20249149E+03</pdfrwt>
<pdfrwt beam="2">  1       21 0.65546263E-02 0.20249149E+03</pdfrwt>
<totfact> 0.26882637E+04</totfact>
</mgrwt>
</event>
<event>
 4    1  0.4439578E+000  0.1953829E+03  0.7546771E-02  0.1153694E+00
         21   -1    0    0  503  502  0.00000000000E+00  0.00000000000E+00  0.61487456645E+03  0.61487456645E+03  0.00000000000E+00 0. -1.
         21   -1    0    0  501  503 -0.00000000000E+00 -0.00000000000E+00 -0.97653466846E+02  0.97653466846E+02  0.00000000000E+00 0. -1.
          6    1    1    2  501    0 -0.52671273646E+02  0.73967634222E+02  0.43599473285E+02  0.20018838141E+03  0.17300000000E+03 0. -1.
         -6    1    1    2    0  502  0.52671273646E+02 -0.73967634222E+02  0.47362162632E+03  0.51233965188E+03  0.17300000000E+03 0. -1.
<mgrwt>
<rscale>  2 0.19538289E+03</rscale>
<asrwt>0</asrwt>
<pdfrwt beam="1">  1       21 0.94596085E-01 0.19538289E+03</pdfrwt>
<pdfrwt beam="2">  1       21 0.15023611E-01 0.19538289E+03</pdfrwt>
<totfact> 0.36544828E+04</totfact>
</mgrwt>
</event>
<event>
 4    1  0.4439578E+000  0.2737649E+03  0.7546771E-02  0.1099144E+00
         21   -1    0    0  501  502  0.00000000000E+00  0.00000000000E+00  0.30319347216E+03  0.30319347216E+03  0.00000000000E+00 0.  1.
         21   -1    0    0  502  503 -0.00000000000E+00 -0.00000000000E+00 -0.24897129223E+03  0.24897129223E+03  0.00000000000E+00 0. -1.
          6    1    1    2  501    0  0.84701503907E+02  0.19453500234E+03  0.50445815603E+02  0.27837383535E+03  0.17300000000E+03 0.  1.
         -6    1    1    2    0  503 -0.84701503907E+02 -0.19453500234E+03  0.37763643255E+01  0.27379092904E+03  0.17300000000E+03 0.  1.
<mgrwt>
<rscale>  2 0.27376488E+03</rscale>
<asrwt>0</asrwt>
<pdfrwt beam="1">  1       21 0.46645150E-01 0.27376488E+03</pdfrwt>
<pdfrwt beam="2">  1       21 0.38303276E-01 0.27376488E+03</pdfrwt>
<totfact> 0.27813535E+04</totfact>
</mgrwt>
</event>
<event>
 4    1  0.4439578E+000  0.2236940E+03  0.7546771E-02  0.1131159E+00
         21   -1    0    0  503  502  0.00000000000E+00  0.00000000000E+00  0.29510535987E+03  0.29510535987E+03  0.00000000000E+00 0. -1.
         21   -1    0    0  501  503 -0.00000000000E+00 -0.00000000000E+00 -0.17951915865E+03  0.17951915865E+03  0.00000000000E+00 0. -1.
          6    1    1    2  501    0 -0.82219091494E+02  0.11554222081E+03  0.19064363477E+01  0.22370207486E+03  0.17300000000E+03 0. -1.
         -6    1    1    2    0  502  0.82219091494E+02 -0.11554222081E+03  0.11367976486E+03  0.25092244366E+03  0.17300000000E+03 0. -1.
<mgrwt>
<rscale>  2 0.22369395E+03</rscale>
<asrwt>0</asrwt>
<pdfrwt beam="1">  1       21 0.45400825E-01 0.22369395E+03</pdfrwt>
<pdfrwt beam="2">  1       21 0.27618332E-01 0.22369395E+03</pdfrwt>
<totfact> 0.57399918E+04</totfact>
</mgrwt>
</event>
<event>
 4    1  0.4439578E+000  0.2853642E+03  0.7546771E-02  0.1092795E+00
         21   -1    0    0  503  502  0.00000000000E+00  0.00000000000E+00  0.11905847452E+04  0.11905847452E+04  0.00000000000E+00 0. -1.
         21   -1    0    0  501  503 -0.00000000000E+00 -0.00000000000E+00 -0.76939151883E+02  0.76939151883E+02  0.00000000000E+00 0.  1.
          6    1    1    2  501    0  0.87908466826E+02  0.20922672624E+03  0.34565398664E+03  0.44822918245E+03  0.17300000000E+03 0.  1.
         -6    1    1    2    0  502 -0.87908466826E+02 -0.20922672624E+03  0.76799160671E+03  0.81929471468E+03  0.17300000000E+03 0. -1.
<mgrwt>
<rscale>  2 0.28536419E+03</rscale>
<asrwt>0</asrwt>
<pdfrwt beam="1">  1       21 0.18316687E+00 0.28536419E+03</pdfrwt>
<pdfrwt beam="2">  1       21 0.11836793E-01 0.28536419E+03</pdfrwt>
<totfact> 0.97786607E+03</totfact>
</mgrwt>
</event>
<event>
 4    1  0.4439578E+000  0.2067847E+03  0.7546771E-02  0.1144138E+00
         21   -1    0    0  501  502  0.00000000000E+00  0.00000000000E+00  0.86781058306E+03  0.86781058306E+03  0.00000000000E+00 0. -1.
         21   -1    0    0  502  503 -0.00000000000E+00 -0.00000000000E+00 -0.85804272399E+02  0.85804272399E+02  0.00000000000E+00 0.  1.
          6    1    1    2  501    0  0.11291407986E+03 -0.90179603548E+01  0.70211677414E+03  0.73193433966E+03  0.17300000000E+03 0. -1.
         -6    1    1    2    0  503 -0.11291407986E+03  0.90179603548E+01  0.79889536521E+02  0.22168051580E+03  0.17300000000E+03 0.  1.
<mgrwt>
<rscale>  2 0.20678470E+03</rscale>
<asrwt>0</asrwt>
<pdfrwt beam="1">  1       21 0.13350931E+00 0.20678470E+03</pdfrwt>
<pdfrwt beam="2">  1       21 0.13200658E-01 0.20678470E+03</pdfrwt>
<totfact> 0.19797864E+04</totfact>
</mgrwt>
</event>
<event>
 4    1  0.4439578E+000  0.2023888E+03  0.7546771E-02  0.1147739E+00
         21   -1    0    0  503  502  0.00000000000E+00  0.00000000000E+00  0.11519904533E+03  0.11519904533E+03  0.00000000000E+00 0. -1.
         21   -1    0    0  501  503 -0.00000000000E+00 -0.00000000000E+00 -0.40548307900E+03  0.40548307900E+03  0.00000000000E+00 0. -1.
          6    1    1    2  501    0  0.92952783445E+02  0.48908266281E+02 -0.23648322175E+03  0.31126444164E+03  0.17300000000E+03 0. -1.
         -6    1    1    2    0  502 -0.92952783445E+02 -0.48908266281E+02 -0.53800811922E+02  0.20941768269E+03  0.17300000000E+03 0. -1.
<mgrwt>
<rscale>  2 0.20238883E+03</rscale>
<asrwt>0</asrwt>
<pdfrwt beam="1">  1       21 0.17722930E-01 0.20238883E+03</pdfrwt>
<pdfrwt beam="2">  1       21 0.62382012E-01 0.20238883E+03</pdfrwt>
<totfact> 0.68538221E+04</totfact>
</mgrwt>
</event>
<event>
 4    1  0.4439578E+000  0.1749173E+03  0.7546771E-02  0.1172815E+00
         21   -1    0    0  501  502  0.00000000000E+00  0.00000000000E+00  0.27015064211E+03  0.27015064211E+03  0.00000000000E+00 0.  1.
         21   -1    0    0  502  503 -0.00000000000E+00 -0.00000000000E+00 -0.17085064476E+03  0.17085064476E+03  0.00000000000E+00 0.  1.
          6    1    1    2  501    0  0.50665866736E+00 -0.25822339784E+02  0.17767489502E+03  0.24932793317E+03  0.17300000000E+03 0.  1.
         -6    1    1    2    0  503 -0.50665866736E+00  0.25822339784E+02 -0.78374897672E+02  0.19167335370E+03  0.17300000000E+03 0.  1.
<mgrwt>
<rscale>  2 0.17491727E+03</rscale>
<asrwt>0</asrwt>
<pdfrwt beam="1">  1       21 0.41561637E-01 0.17491727E+03</pdfrwt>
<pdfrwt beam="2">  1       21 0.26284715E-01 0.17491727E+03</pdfrwt>
<totfact> 0.77270870E+04</totfact>
</mgrwt>
</event>
<event>
 4    1  0.4439578E+000  0.1856900E+03  0.7546771E-02  0.1162407E+00
         21   -1    0    0  501  502  0.00000000000E+00  0.00000000000E+00  0.73219845732E+03  0.73219845732E+03  0.00000000000E+00 0.  1.
         21   -1    0    0  502  503 -0.00000000000E+00 -0.00000000000E+00 -0.49977993628E+02  0.49977993628E+02  0.00000000000E+00 0.  1.
          6    1    1    2  501    0  0.60106308999E+02  0.30643008306E+02  0.24713237066E+03  0.30911999445E+03  0.17300000000E+03 0.  1.
         -6    1    1    2    0  503 -0.60106308999E+02 -0.30643008306E+02  0.43508809303E+03  0.47305645650E+03  0.17300000000E+03 0.  1.
<mgrwt>
<rscale>  2 0.18568996E+03</rscale>
<asrwt>0</asrwt>
<pdfrwt beam="1">  1       21 0.11264591E+00 0.18568996E+03</pdfrwt>
<pdfrwt beam="2">  1       21 0.76889226E-02 0.18568996E+03</pdfrwt>
<totfact> 0.79515492E+04</totfact>
</mgrwt>
</event>
<event>
 4    1  0.4439578E+000  0.1870399E+03  0.7546771E-02  0.1161159E+00
         21   -1    0    0  503  502  0.00000000000E+00  0.00000000000E+00  0.39559032299E+03  0.39559032299E+03  0.00000000000E+00 0.  1.
         21   -1    0    0  501  503 -0.00000000000E+00 -0.00000000000E+00 -0.16171290347E+03  0.16171290347E+03  0.00000000000E+00 0.  1.
          6    1    1    2  501    0  0.54858498042E+02  0.45226725070E+02 -0.70637014312E+02  0.19993373717E+03  0.17300000000E+03 0.  1.
         -6    1    1    2    0  502 -0.54858498042E+02 -0.45226725070E+02  0.30451443383E+03  0.35736948929E+03  0.17300000000E+03 0.  1.
<mgrwt>
<rscale>  2 0.18703987E+03</rscale>
<asrwt>0</asrwt>
<pdfrwt beam="1">  1       21 0.60860049E-01 0.18703987E+03</pdfrwt>
<pdfrwt beam="2">  1       21 0.24878908E-01 0.18703987E+03</pdfrwt>
<totfact> 0.38529369E+04</totfact>
</mgrwt>
</event>
<event>
 4    1  0.4439578E+000  0.1897455E+03  0.7546771E-02  0.1158691E+00
         21   -1    0    0  501  502  0.00000000000E+00  0.00000000000E+00  0.53948544102E+03  0.53948544102E+03  0.00000000000E+00 0. -1.
         21   -1    0    0  502  503 -0.00000000000E+00 -0.00000000000E+00 -0.10965791327E+03  0.10965791327E+03  0.00000000000E+00 0. -1.
          6    1    1    2  501    0  0.77013179936E+02 -0.11971106775E+02  0.41797543028E+03  0.45902810110E+03  0.17300000000E+03 0. -1.
         -6    1    1    2    0  503 -0.77013179936E+02  0.11971106775E+02  0.11852097468E+02  0.19011525319E+03  0.17300000000E+03 0. -1.
<mgrwt>
<rscale>  2 0.18974545E+03</rscale>
<asrwt>0</asrwt>
<pdfrwt beam="1">  1       21 0.82997759E-01 0.18974545E+03</pdfrwt>
<pdfrwt beam="2">  1       21 0.16870449E-01 0.18974545E+03</pdfrwt>
<totfact> 0.40091613E+04</totfact>
</mgrwt>
</event>
<event>
 4    1  0.4439578E+000  0.2500410E+03  0.7546771E-02  0.1113279E+00
         21   -1    0    0  501  502  0.00000000000E+00  0.00000000000E+00  0.13666188027E+03  0.13666188027E+03  0.00000000000E+00 0. -1.
         21   -1    0    0  502  503 -0.00000000000E+00 -0.00000000000E+00 -0.51710062186E+03  0.51710062186E+03  0.00000000000E+00 0. -1.
          6    1    1    2  501    0  0.10093195086E+02 -0.18024875724E+03 -0.79227849832E+02  0.26229285019E+03  0.17300000000E+03 0. -1.
         -6    1    1    2    0  503 -0.10093195086E+02  0.18024875724E+03 -0.30121089176E+03  0.39146965194E+03  0.17300000000E+03 0. -1.
<mgrwt>
<rscale>  2 0.25004097E+03</rscale>
<asrwt>0</asrwt>
<pdfrwt beam="1">  1       21 0.21024904E-01 0.25004097E+03</pdfrwt>
<pdfrwt beam="2">  1       21 0.79553943E-01 0.25004097E+03</pdfrwt>
<totfact> 0.28426860E+04</totfact>
</mgrwt>
</event>
<event>
 4    1  0.4439578E+000  0.3355515E+03  0.7546771E-02  0.1068707E+00
         21   -1    0    0  501  502  0.00000000000E+00  0.00000000000E+00  0.49509647503E+03  0.49509647503E+03  0.00000000000E+00 0.  1.
         21   -1    0    0  502  503 -0.00000000000E+00 -0.00000000000E+00 -0.34370985779E+03  0.34370985779E+03  0.00000000000E+00 0. -1.
          6    1    1    2  501    0 -0.19990565279E+03  0.20664836702E+03  0.31964661938E+03  0.46343152557E+03  0.17300000000E+03 0.  1.
         -6    1    1    2    0  503  0.19990565279E+03 -0.20664836702E+03 -0.16826000214E+03  0.37537480726E+03  0.17300000000E+03 0. -1.
<mgrwt>
<rscale>  2 0.33555151E+03</rscale>
<asrwt>0</asrwt>
<pdfrwt beam="1">  1       21 0.76168688E-01 0.33555151E+03</pdfrwt>
<pdfrwt beam="2">  1       21 0.52878440E-01 0.33555151E+03</pdfrwt>
<totfact> 0.47784759E+03</totfact>
</mgrwt>
</event>
<event>
 4    1  0.4439578E+000  0.2256023E+03  0.7546771E-02  0.1129774E+00
         21   -1    0    0  503  502  0.00000000000E+00  0.00000000000E+00  0.15847425690E+03  0.15847425690E+03  0.00000000000E+00 0.  1.
         21   -1    0    0  501  503 -0.00000000000E+00 -0.00000000000E+00 -0.34994474866E+03  0.34994474866E+03  0.00000000000E+00 0.  1.
          6    1    1    2  501    0  0.14045694868E+02 -0.14411838022E+03 -0.16863655584E+03  0.28166412095E+03  0.17300000000E+03 0.  1.
         -6    1    1    2    0  502 -0.14045694868E+02  0.14411838022E+03 -0.22833935913E+02  0.22675488460E+03  0.17300000000E+03 0.  1.
<mgrwt>
<rscale>  2 0.22560228E+03</rscale>
<asrwt>0</asrwt>
<pdfrwt beam="1">  1       21 0.24380655E-01 0.22560228E+03</pdfrwt>
<pdfrwt beam="2">  1       21 0.53837653E-01 0.22560228E+03</pdfrwt>
<totfact> 0.51054846E+04</totfact>
</mgrwt>
</event>
<event>
 4    1  0.4439578E+000  0.1789575E+03  0.7546771E-02  0.1168816E+00
         21   -1    0    0  503  502  0.00000000000E+00  0.00000000000E+00  0.61315349914E+03  0.61315349914E+03  0.00000000000E+00 0.  1.
         21   -1    0    0  501  503 -0.00000000000E+00 -0.00000000000E+00 -0.10461371976E+03  0.10461371976E+03  0.00000000000E+00 0.  1.
          6    1    1    2  501    0 -0.36570057346E+02 -0.27557340537E+02  0.31751921370E+00  0.17895775180E+03  0.17300000000E+03 0.  1.
         -6    1    1    2    0  502  0.36570057346E+02  0.27557340537E+02  0.50822226016E+03  0.53880946710E+03  0.17300000000E+03 0.  1.
<mgrwt>
<rscale>  2 0.17895747E+03</rscale>
<asrwt>0</asrwt>
<pdfrwt beam="1">  1       21 0.94331305E-01 0.17895747E+03</pdfrwt>
<pdfrwt beam="2">  1       21 0.16094419E-01 0.17895747E+03</pdfrwt>
<totfact> 0.32732398E+04</totfact>
</mgrwt>
</event>
<event>
 4    1  0.4439578E+000  0.1925885E+03  0.7546771E-02  0.1156147E+00
         21   -1    0    0  501  502  0.00000000000E+00  0.00000000000E+00  0.49090904261E+03  0.49090904261E+03  0.00000000000E+00 0.  1.
         21   -1    0    0  502  503 -0.00000000000E+00 -0.00000000000E+00 -0.75556365862E+02  0.75556365862E+02  0.00000000000E+00 0.  1.
          6    1    1    2  501    0 -0.66952860966E+02  0.51755454481E+02  0.20914002969E+03  0.28430593500E+03  0.17300000000E+03 0.  1.
         -6    1    1    2    0  503  0.66952860966E+02 -0.51755454481E+02  0.20621264706E+03  0.28215947347E+03  0.17300000000E+03 0.  1.
<mgrwt>
<rscale>  2 0.19258845E+03</rscale>
<asrwt>0</asrwt>
<pdfrwt beam="1">  1       21 0.75524466E-01 0.19258845E+03</pdfrwt>
<pdfrwt beam="2">  1       21 0.11624057E-01 0.19258845E+03</pdfrwt>
<totfact> 0.97242989E+04</totfact>
</mgrwt>
</event>
<event>
 4    1  0.4439578E+000  0.1740650E+03  0.7546771E-02  0.1173674E+00
         21   -1    0    0  501  502  0.00000000000E+00  0.00000000000E+00  0.17276149325E+03  0.17276149325E+03  0.00000000000E+00 0. -1.
         21   -1    0    0  502  503 -0.00000000000E+00 -0.00000000000E+00 -0.21924172048E+03  0.21924172048E+03  0.00000000000E+00 0. -1.
          6    1    1    2  501    0  0.34035447960E+01  0.18921881085E+02  0.64429510329E+02  0.18560652872E+03  0.17300000000E+03 0. -1.
         -6    1    1    2    0  503 -0.34035447960E+01 -0.18921881085E+02 -0.11090973756E+03  0.20639668502E+03  0.17300000000E+03 0. -1.
<mgrwt>
<rscale>  2 0.17406499E+03</rscale>
<asrwt>0</asrwt>
<pdfrwt beam="1">  1       21 0.26578691E-01 0.17406499E+03</pdfrwt>
<pdfrwt beam="2">  1       21 0.33729495E-01 0.17406499E+03</pdfrwt>
<totfact> 0.11482682E+05</totfact>
</mgrwt>
</event>
<event>
 4    1  0.4439578E+000  0.2190155E+03  0.7546771E-02  0.1134619E+00
         21   -1    0    0  503  502  0.00000000000E+00  0.00000000000E+00  0.69058785352E+02  0.69058785352E+02  0.00000000000E+00 0. -1.
         21   -1    0    0  501  503 -0.00000000000E+00 -0.00000000000E+00 -0.76682645004E+03  0.76682645004E+03  0.00000000000E+00 0.  1.
          6    1    1    2  501    0  0.10824379102E+03  0.79511391342E+02 -0.22061062421E+03  0.31086464444E+03  0.17300000000E+03 0.  1.
         -6    1    1    2    0  502 -0.10824379102E+03 -0.79511391342E+02 -0.47715704048E+03  0.52502059096E+03  0.17300000000E+03 0. -1.
<mgrwt>
<rscale>  2 0.21901548E+03</rscale>
<asrwt>0</asrwt>
<pdfrwt beam="1">  1       21 0.10624429E-01 0.21901548E+03</pdfrwt>
<pdfrwt beam="2">  1       21 0.11797329E+00 0.21901548E+03</pdfrwt>
<totfact> 0.39582156E+04</totfact>
</mgrwt>
</event>
<event>
 4    1  0.4439578E+000  0.1961604E+03  0.7546771E-02  0.1153020E+00
         21   -1    0    0  501  502  0.00000000000E+00  0.00000000000E+00  0.40872057821E+02  0.40872057821E+02  0.00000000000E+00 0.  1.
         21   -1    0    0  502  503 -0.00000000000E+00 -0.00000000000E+00 -0.97908799635E+03  0.97908799635E+03  0.00000000000E+00 0.  1.
          6    1    1    2  501    0 -0.92429068821E+02 -0.26023858586E+01 -0.56910077921E+03  0.60195897042E+03  0.17300000000E+03 0. -1.
         -6    1    1    2    0  503  0.92429068821E+02  0.26023858586E+01 -0.36911515932E+03  0.41800108375E+03  0.17300000000E+03 0. -1.
<mgrwt>
<rscale>  2 0.19616041E+03</rscale>
<asrwt>0</asrwt>
<pdfrwt beam="1">  1       21 0.62880091E-02 0.19616041E+03</pdfrwt>
<pdfrwt beam="2">  1       21 0.15062892E+00 0.19616041E+03</pdfrwt>
<totfact> 0.53684489E+04</totfact>
</mgrwt>
</event>
<event>
 4    1  0.4439578E+000  0.1749235E+03  0.7546771E-02  0.1172809E+00
         21   -1    0    0  503  502  0.00000000000E+00  0.00000000000E+00  0.49319773486E+03  0.49319773486E+03  0.00000000000E+00 0.  1.
         21   -1    0    0  501  503 -0.00000000000E+00 -0.00000000000E+00 -0.97930995756E+02  0.97930995756E+02  0.00000000000E+00 0.  1.
          6    1    1    2  501    0  0.16410626383E+02 -0.19998332112E+02  0.18704005230E+02  0.17592066893E+03  0.17300000000E+03 0.  1.
         -6    1    1    2    0  502 -0.16410626383E+02  0.19998332112E+02  0.37656273387E+03  0.41520806168E+03  0.17300000000E+03 0.  1.
<mgrwt>
<rscale>  2 0.17492353E+03</rscale>
<asrwt>0</asrwt>
<pdfrwt beam="1">  1       21 0.75876573E-01 0.17492353E+03</pdfrwt>
<pdfrwt beam="2">  1       21 0.15066307E-01 0.17492353E+03</pdfrwt>
<totfact> 0.60779374E+04</totfact>
</mgrwt>
</event>
<event>
 4    1  0.4439578E+000  0.2487027E+03  0.7546771E-02  0.1114127E+00
         21   -1    0    0  501  502  0.00000000000E+00  0.00000000000E+00  0.50943139255E+03  0.50943139255E+03  0.00000000000E+00 0. -1.
         21   -1    0    0  502  503 -0.00000000000E+00 -0.00000000000E+00 -0.13802407902E+03  0.13802407902E+03  0.00000000000E+00 0. -1.
          6    1    1    2  501    0  0.12898867894E+03 -0.12363633850E+03  0.29799976594E+03  0.38814544181E+03  0.17300000000E+03 0. -1.
         -6    1    1    2    0  503 -0.12898867894E+03  0.12363633850E+03  0.73407547585E+02  0.25931002976E+03  0.17300000000E+03 0. -1.
<mgrwt>
<rscale>  2 0.24870268E+03</rscale>
<asrwt>0</asrwt>
<pdfrwt beam="1">  1       21 0.78374060E-01 0.24870268E+03</pdfrwt>
<pdfrwt beam="2">  1       21 0.21234474E-01 0.24870268E+03</pdfrwt>
<totfact> 0.28879382E+04</totfact>
</mgrwt>
</event>
<event>
 4    1  0.4439578E+000  0.2376210E+03  0.7546771E-02  0.1121388E+00
         21   -1    0    0  503  502  0.00000000000E+00  0.00000000000E+00  0.92047467379E+02  0.92047467379E+02  0.00000000000E+00 0. -1.
         21   -1    0    0  501  503 -0.00000000000E+00 -0.00000000000E+00 -0.93166797697E+03  0.93166797697E+03  0.00000000000E+00 0. -1.
          6    1    1    2  501    0 -0.15547438569E+03 -0.48604874085E+02 -0.71896906052E+03  0.75721874539E+03  0.17300000000E+03 0. -1.
         -6    1    1    2    0  502  0.15547438569E+03  0.48604874085E+02 -0.12065144907E+03  0.26649669896E+03  0.17300000000E+03 0. -1.
<mgrwt>
<rscale>  2 0.23762096E+03</rscale>
<asrwt>0</asrwt>
<pdfrwt beam="1">  1       21 0.14161149E-01 0.23762096E+03</pdfrwt>
<pdfrwt beam="2">  1       21 0.14333353E+00 0.23762096E+03</pdfrwt>
<totfact> 0.14234735E+04</totfact>
</mgrwt>
</event>
<event>
 4    1  0.4439578E+000  0.3557098E+03  0.7546771E-02  0.1060296E+00
         21   -1    0    0  501  502  0.00000000000E+00  0.00000000000E+00  0.34878366979E+03  0.34878366979E+03  0.00000000000E+00 0.  1.
         21   -1    0    0  502  503 -0.00000000000E+00 -0.00000000000E+00 -0.49702520923E+03  0.49702520923E+03  0.00000000000E+00 0. -1.
          6    1    1    2  501    0  0.31049513612E+03 -0.13899907208E+02  0.14567185384E+03  0.38438226543E+03  0.17300000000E+03 0.  1.
         -6    1    1    2    0  503 -0.31049513612E+03  0.13899907208E+02 -0.29391339329E+03  0.46142661359E+03  0.17300000000E+03 0. -1.
<mgrwt>
<rscale>  2 0.35570977E+03</rscale>
<asrwt>0</asrwt>
<pdfrwt beam="1">  1       21 0.53659026E-01 0.35570977E+03</pdfrwt>
<pdfrwt beam="2">  1       21 0.76465417E-01 0.35570977E+03</pdfrwt>
<totfact> 0.45500766E+03</totfact>
</mgrwt>
</event>
<event>
 4    1  0.4439578E+000  0.2757583E+03  0.7546771E-02  0.1098028E+00
         21   -1    0    0  501  502  0.00000000000E+00  0.00000000000E+00  0.35528479845E+03  0.35528479845E+03  0.00000000000E+00 0. -1.
         21   -1    0    0  502  503 -0.00000000000E+00 -0.00000000000E+00 -0.43402381592E+03  0.43402381592E+03  0.00000000000E+00 0. -1.
          6    1    1    2  501    0  0.86906870999E+02 -0.19636908922E+03  0.24160212365E+03  0.36662543499E+03  0.17300000000E+03 0. -1.
         -6    1    1    2    0  503 -0.86906870999E+02  0.19636908922E+03 -0.32034114113E+03  0.42268317938E+03  0.17300000000E+03 0. -1.
<mgrwt>
<rscale>  2 0.27575827E+03</rscale>
<asrwt>0</asrwt>
<pdfrwt beam="1">  1       21 0.54659200E-01 0.27575827E+03</pdfrwt>
<pdfrwt beam="2">  1       21 0.66772895E-01 0.27575827E+03</pdfrwt>
<totfact> 0.61577807E+03</totfact>
</mgrwt>
</event>
<event>
 4    1  0.4439578E+000  0.1796535E+03  0.7546771E-02  0.1168139E+00
         21   -1    0    0  501  502  0.00000000000E+00  0.00000000000E+00  0.69293032289E+02  0.69293032289E+02  0.00000000000E+00 0. -1.
         21   -1    0    0  502  503 -0.00000000000E+00 -0.00000000000E+00 -0.82649662126E+03  0.82649662126E+03  0.00000000000E+00 0. -1.
          6    1    1    2  501    0  0.40691345490E+02 -0.26279363437E+02 -0.82706628468E+02  0.19777708900E+03  0.17300000000E+03 0. -1.
         -6    1    1    2    0  503 -0.40691345490E+02  0.26279363437E+02 -0.67449696050E+03  0.69801256455E+03  0.17300000000E+03 0. -1.
<mgrwt>
<rscale>  2 0.17965353E+03</rscale>
<asrwt>0</asrwt>
<pdfrwt beam="1">  1       21 0.10660467E-01 0.17965353E+03</pdfrwt>
<pdfrwt beam="2">  1       21 0.12715332E+00 0.17965353E+03</pdfrwt>
<totfact> 0.33366351E+04</totfact>
</mgrwt>
</event>
<event>
 4    1  0.4439578E+000  0.2884343E+03  0.7546771E-02  0.1091169E+00
         21   -1    0    0  503  502  0.00000000000E+00  0.00000000000E+00  0.59324158785E+03  0.59324158785E+03  0.00000000000E+00 0. -1.
         21   -1    0    0  501  503 -0.00000000000E+00 -0.00000000000E+00 -0.57935481466E+03  0.57935481466E+03  0.00000000000E+00 0. -1.
          6    1    1    2  501    0  0.36146924658E+02 -0.22794462570E+03 -0.50348737123E+03  0.58025329429E+03  0.17300000000E+03 0. -1.
         -6    1    1    2    0  502 -0.36146924658E+02  0.22794462570E+03  0.51737414441E+03  0.59234310822E+03  0.17300000000E+03 0. -1.
<mgrwt>
<rscale>  2 0.28843431E+03</rscale>
<asrwt>0</asrwt>
<pdfrwt beam="1">  1       21 0.91267937E-01 0.28843431E+03</pdfrwt>
<pdfrwt beam="2">  1       21 0.89131509E-01 0.28843431E+03</pdfrwt>
<totfact> 0.10096677E+03</totfact>
</mgrwt>
</event>
<event>
 4    1  0.4439578E+000  0.1807847E+03  0.7546771E-02  0.1167046E+00
         21   -1    0    0  503  502  0.00000000000E+00  0.00000000000E+00  0.46842718984E+03  0.46842718984E+03  0.00000000000E+00 0.  1.
         21   -1    0    0  501  503 -0.00000000000E+00 -0.00000000000E+00 -0.83817467657E+02  0.83817467657E+02  0.00000000000E+00 0.  1.
          6    1    1    2  501    0 -0.37034830088E+02 -0.37182364354E+02  0.79272656632E+02  0.19740126886E+03  0.17300000000E+03 0.  1.
         -6    1    1    2    0  502  0.37034830088E+02  0.37182364354E+02  0.30533706555E+03  0.35484338863E+03  0.17300000000E+03 0.  1.
<mgrwt>
<rscale>  2 0.18078470E+03</rscale>
<asrwt>0</asrwt>
<pdfrwt beam="1">  1       21 0.72065720E-01 0.18078470E+03</pdfrwt>
<pdfrwt beam="2">  1       21 0.12894995E-01 0.18078470E+03</pdfrwt>
<totfact> 0.90047875E+04</totfact>
</mgrwt>
</event>
<event>
 4    1  0.4439578E+000  0.2358049E+03  0.7546771E-02  0.1122619E+00
         21   -1    0    0  501  502  0.00000000000E+00  0.00000000000E+00  0.36438205986E+02  0.36438205986E+02  0.00000000000E+00 0. -1.
         21   -1    0    0  502  503 -0.00000000000E+00 -0.00000000000E+00 -0.15266349934E+04  0.15266349934E+04  0.00000000000E+00 0.  1.
          6    1    1    2  501    0 -0.77015032079E+02 -0.14051197324E+03 -0.72889529218E+03  0.76608894833E+03  0.17300000000E+03 0. -1.
         -6    1    1    2    0  503  0.77015032079E+02  0.14051197324E+03 -0.76130149525E+03  0.79698425107E+03  0.17300000000E+03 0. -1.
<mgrwt>
<rscale>  2 0.23580486E+03</rscale>
<asrwt>0</asrwt>
<pdfrwt beam="1">  1       21 0.56058792E-02 0.23580486E+03</pdfrwt>
<pdfrwt beam="2">  1       21 0.23486686E+00 0.23580486E+03</pdfrwt>
<totfact> 0.17495969E+04</totfact>
</mgrwt>
</event>
<event>
 4    1  0.4439578E+000  0.2351212E+03  0.7546771E-02  0.1123086E+00
         21   -1    0    0  501  502  0.00000000000E+00  0.00000000000E+00  0.13402598389E+03  0.13402598389E+03  0.00000000000E+00 0. -1.
         21   -1    0    0  502  503 -0.00000000000E+00 -0.00000000000E+00 -0.42382782431E+03  0.42382782431E+03  0.00000000000E+00 0.  1.
          6    1    1    2  501    0  0.14647574178E+03  0.62432824067E+02 -0.19055714921E+03  0.30264505211E+03  0.17300000000E+03 0. -1.
         -6    1    1    2    0  503 -0.14647574178E+03 -0.62432824067E+02 -0.99244691201E+02  0.25520875609E+03  0.17300000000E+03 0.  1.
<mgrwt>
<rscale>  2 0.23512125E+03</rscale>
<asrwt>0</asrwt>
<pdfrwt beam="1">  1       21 0.20619382E-01 0.23512125E+03</pdfrwt>
<pdfrwt beam="2">  1       21 0.65204281E-01 0.23512125E+03</pdfrwt>
<totfact> 0.46258551E+04</totfact>
</mgrwt>
</event>
<event>
 4    1  0.4439578E+000  0.1843668E+03  0.7546771E-02  0.1163643E+00
         21   -1    0    0  503  502  0.00000000000E+00  0.00000000000E+00  0.37056934973E+02  0.37056934973E+02  0.00000000000E+00 0. -1.
         21   -1    0    0  501  503 -0.00000000000E+00 -0.00000000000E+00 -0.19091676693E+04  0.19091676693E+04  0.00000000000E+00 0. -1.
          6    1    1    2  501    0 -0.54287870296E+02 -0.33390506450E+02 -0.16374703642E+04  0.16478168261E+04  0.17300000000E+03 0. -1.
         -6    1    1    2    0  502  0.54287870296E+02  0.33390506450E+02 -0.23464037019E+03  0.29840777822E+03  0.17300000000E+03 0. -1.
<mgrwt>
<rscale>  2 0.18436675E+03</rscale>
<asrwt>0</asrwt>
<pdfrwt beam="1">  1       21 0.57010651E-02 0.18436675E+03</pdfrwt>
<pdfrwt beam="2">  1       21 0.29371820E+00 0.18436675E+03</pdfrwt>
<totfact> 0.80566719E+03</totfact>
</mgrwt>
</event>
<event>
 4    1  0.4439578E+000  0.1896975E+03  0.7546771E-02  0.1158734E+00
         21   -1    0    0  501  502  0.00000000000E+00  0.00000000000E+00  0.17692064709E+02  0.17692064709E+02  0.00000000000E+00 0. -1.
         21   -1    0    0  502  503 -0.00000000000E+00 -0.00000000000E+00 -0.20477092242E+04  0.20477092242E+04  0.00000000000E+00 0. -1.
          6    1    1    2  501    0  0.40742797362E+02 -0.66303523378E+02 -0.93041879258E+03  0.94956003620E+03  0.17300000000E+03 0. -1.
         -6    1    1    2    0  503 -0.40742797362E+02  0.66303523378E+02 -0.10995983669E+04  0.11158412527E+04  0.17300000000E+03 0. -1.
<mgrwt>
<rscale>  2 0.18969748E+03</rscale>
<asrwt>0</asrwt>
<pdfrwt beam="1">  1       21 0.27218561E-02 0.18969748E+03</pdfrwt>
<pdfrwt beam="2">  1       21 0.31503219E+00 0.18969748E+03</pdfrwt>
<totfact> 0.20840183E+04</totfact>
</mgrwt>
</event>
<event>
 4    1  0.4439578E+000  0.3022883E+03  0.7546771E-02  0.1084102E+00
         21   -1    0    0  503  502  0.00000000000E+00  0.00000000000E+00  0.13821424136E+03  0.13821424136E+03  0.00000000000E+00 0.  1.
         21   -1    0    0  501  503 -0.00000000000E+00 -0.00000000000E+00 -0.72374168566E+03  0.72374168566E+03  0.00000000000E+00 0.  1.
          6    1    1    2  501    0 -0.18676430011E+03  0.16299790423E+03 -0.41952159115E+03  0.51708469908E+03  0.17300000000E+03 0.  1.
         -6    1    1    2    0  502  0.18676430011E+03 -0.16299790423E+03 -0.16600585315E+03  0.34487122794E+03  0.17300000000E+03 0.  1.
<mgrwt>
<rscale>  2 0.30228831E+03</rscale>
<asrwt>0</asrwt>
<pdfrwt beam="1">  1       21 0.21263730E-01 0.30228831E+03</pdfrwt>
<pdfrwt beam="2">  1       21 0.11134487E+00 0.30228831E+03</pdfrwt>
<totfact> 0.12272212E+04</totfact>
</mgrwt>
</event>
<event>
 4    1  0.4439578E+000  0.1929926E+03  0.7546771E-02  0.1155790E+00
         21   -1    0    0  503  502  0.00000000000E+00  0.00000000000E+00  0.96549104577E+03  0.96549104577E+03  0.00000000000E+00 0. -1.
         21   -1    0    0  501  503 -0.00000000000E+00 -0.00000000000E+00 -0.45660032952E+02  0.45660032952E+02  0.00000000000E+00 0. -1.
          6    1    1    2  501    0  0.65244092567E+02  0.55320386454E+02  0.26079534672E+03  0.32443851443E+03  0.17300000000E+03 0. -1.
         -6    1    1    2    0  502 -0.65244092567E+02 -0.55320386454E+02  0.65903566609E+03  0.68671256429E+03  0.17300000000E+03 0. -1.
<mgrwt>
<rscale>  2 0.19299258E+03</rscale>
<asrwt>0</asrwt>
<pdfrwt beam="1">  1       21 0.14853707E+00 0.19299258E+03</pdfrwt>
<pdfrwt beam="2">  1       21 0.70246212E-02 0.19299258E+03</pdfrwt>
<totfact> 0.46106472E+04</totfact>
</mgrwt>
</event>
<event>
 4    1  0.4439578E+000  0.2107777E+03  0.7546771E-02  0.1140952E+00
         21   -1    0    0  503  502  0.00000000000E+00  0.00000000000E+00  0.31680869697E+03  0.31680869697E+03  0.00000000000E+00 0. -1.
         21   -1    0    0  501  503 -0.00000000000E+00 -0.00000000000E+00 -0.17460374030E+03  0.17460374030E+03  0.00000000000E+00 0. -1.
          6    1    1    2  501    0  0.67254233105E+02 -0.99875455527E+02 -0.37910885815E+02  0.21415992564E+03  0.17300000000E+03 0. -1.
         -6    1    1    2    0  502 -0.67254233105E+02  0.99875455527E+02  0.18011584249E+03  0.27725251162E+03  0.17300000000E+03 0. -1.
<mgrwt>
<rscale>  2 0.21077770E+03</rscale>
<asrwt>0</asrwt>
<pdfrwt beam="1">  1       21 0.48739800E-01 0.21077770E+03</pdfrwt>
<pdfrwt beam="2">  1       21 0.26862114E-01 0.21077770E+03</pdfrwt>
<totfact> 0.52580070E+04</totfact>
</mgrwt>
</event>
<event>
 4    1  0.4439578E+000  0.1752741E+03  0.7546771E-02  0.1172457E+00
         21   -1    0    0  503  502  0.00000000000E+00  0.00000000000E+00  0.22370755127E+03  0.22370755127E+03  0.00000000000E+00 0.  1.
         21   -1    0    0  501  503 -0.00000000000E+00 -0.00000000000E+00 -0.80345971129E+03  0.80345971129E+03  0.00000000000E+00 0.  1.
          6    1    1    2  501    0 -0.10805787941E+02  0.25985340786E+02 -0.75751389657E+03  0.77752704550E+03  0.17300000000E+03 0.  1.
         -6    1    1    2    0  502  0.10805787941E+02 -0.25985340786E+02  0.17776173656E+03  0.24964021706E+03  0.17300000000E+03 0.  1.
<mgrwt>
<rscale>  2 0.17527408E+03</rscale>
<asrwt>0</asrwt>
<pdfrwt beam="1">  1       21 0.34416547E-01 0.17527408E+03</pdfrwt>
<pdfrwt beam="2">  1       21 0.12360918E+00 0.17527408E+03</pdfrwt>
<totfact> 0.40516406E+03</totfact>
</mgrwt>
</event>
<event>
 4    1  0.4439578E+000  0.1875928E+03  0.7546771E-02  0.1160651E+00
         21   -1    0    0  501  502  0.00000000000E+00  0.00000000000E+00  0.73363355796E+02  0.73363355796E+02  0.00000000000E+00 0. -1.
         21   -1    0    0  502  503 -0.00000000000E+00 -0.00000000000E+00 -0.79968707001E+03  0.79968707001E+03  0.00000000000E+00 0.  1.
          6    1    1    2  501    0 -0.56260158872E+02 -0.45791496852E+02 -0.87022785643E+02  0.20679466115E+03  0.17300000000E+03 0. -1.
         -6    1    1    2    0  503  0.56260158872E+02  0.45791496852E+02 -0.63930092857E+03  0.66625576465E+03  0.17300000000E+03 0.  1.
<mgrwt>
<rscale>  2 0.18759282E+03</rscale>
<asrwt>0</asrwt>
<pdfrwt beam="1">  1       21 0.11286670E-01 0.18759282E+03</pdfrwt>
<pdfrwt beam="2">  1       21 0.12302878E+00 0.18759282E+03</pdfrwt>
<totfact> 0.32588649E+04</totfact>
</mgrwt>
</event>
<event>
 4    1  0.4439578E+000  0.2016070E+03  0.7546771E-02  0.1148390E+00
         21   -1    0    0  501  502  0.00000000000E+00  0.00000000000E+00  0.51196059273E+03  0.51196059273E+03  0.00000000000E+00 0. -1.
         21   -1    0    0  502  503 -0.00000000000E+00 -0.00000000000E+00 -0.32124150252E+03  0.32124150252E+03  0.00000000000E+00 0. -1.
          6    1    1    2  501    0  0.59270929431E+02 -0.84872530949E+02  0.45683387267E+03  0.49934214403E+03  0.17300000000E+03 0. -1.
         -6    1    1    2    0  503 -0.59270929431E+02  0.84872530949E+02 -0.26611478245E+03  0.33385995122E+03  0.17300000000E+03 0. -1.
<mgrwt>
<rscale>  2 0.20160702E+03</rscale>
<asrwt>0</asrwt>
<pdfrwt beam="1">  1       21 0.78763168E-01 0.20160702E+03</pdfrwt>
<pdfrwt beam="2">  1       21 0.49421770E-01 0.20160702E+03</pdfrwt>
<totfact> 0.55232480E+03</totfact>
</mgrwt>
</event>
<event>
 4    1  0.4439578E+000  0.2769231E+03  0.7546771E-02  0.1097381E+00
         21   -1    0    0  501  502  0.00000000000E+00  0.00000000000E+00  0.49069161809E+03  0.49069161809E+03  0.00000000000E+00 0. -1.
         21   -1    0    0  502  503 -0.00000000000E+00 -0.00000000000E+00 -0.18412385455E+03  0.18412385455E+03  0.00000000000E+00 0.  1.
          6    1    1    2  501    0  0.19601333145E+03 -0.91302798849E+02  0.28448772256E+03  0.39701346510E+03  0.17300000000E+03 0. -1.
         -6    1    1    2    0  503 -0.19601333145E+03  0.91302798849E+02  0.22080040972E+02  0.27780200754E+03  0.17300000000E+03 0.  1.
<mgrwt>
<rscale>  2 0.27692314E+03</rscale>
<asrwt>0</asrwt>
<pdfrwt beam="1">  1       21 0.75491018E-01 0.27692314E+03</pdfrwt>
<pdfrwt beam="2">  1       21 0.28326747E-01 0.27692314E+03</pdfrwt>
<totfact> 0.17847207E+04</totfact>
</mgrwt>
</event>
<event>
 4    1  0.4439578E+000  0.1949731E+03  0.7546771E-02  0.1154051E+00
         21   -1    0    0  501  502  0.00000000000E+00  0.00000000000E+00  0.53514278142E+03  0.53514278142E+03  0.00000000000E+00 0. -1.
         21   -1    0    0  502  503 -0.00000000000E+00 -0.00000000000E+00 -0.10801084409E+03  0.10801084409E+03  0.00000000000E+00 0. -1.
          6    1    1    2  501    0 -0.89917870344E+02  0.53095057155E+00  0.40171548018E+03  0.44653088621E+03  0.17300000000E+03 0. -1.
         -6    1    1    2    0  503  0.89917870344E+02 -0.53095057155E+00  0.25416457145E+02  0.19662273930E+03  0.17300000000E+03 0. -1.
<mgrwt>
<rscale>  2 0.19497309E+03</rscale>
<asrwt>0</asrwt>
<pdfrwt beam="1">  1       21 0.82329657E-01 0.19497309E+03</pdfrwt>
<pdfrwt beam="2">  1       21 0.16617053E-01 0.19497309E+03</pdfrwt>
<totfact> 0.41874687E+04</totfact>
</mgrwt>
</event>
<event>
 4    1  0.4439578E+000  0.2698565E+03  0.7546771E-02  0.1101362E+00
         21   -1    0    0  501  502  0.00000000000E+00  0.00000000000E+00  0.10750745189E+04  0.10750745189E+04  0.00000000000E+00 0.  1.
         21   -1    0    0  502  503 -0.00000000000E+00 -0.00000000000E+00 -0.96078310018E+02  0.96078310018E+02  0.00000000000E+00 0.  1.
          6    1    1    2  501    0 -0.20412488713E+03 -0.35022614995E+02  0.80753625298E+03  0.85143252991E+03  0.17300000000E+03 0.  1.
         -6    1    1    2    0  503  0.20412488713E+03  0.35022614995E+02  0.17145995586E+03  0.31972029897E+03  0.17300000000E+03 0.  1.
<mgrwt>
<rscale>  2 0.26985654E+03</rscale>
<asrwt>0</asrwt>
<pdfrwt beam="1">  1       21 0.16539607E+00 0.26985654E+03</pdfrwt>
<pdfrwt beam="2">  1       21 0.14781279E-01 0.26985654E+03</pdfrwt>
<totfact> 0.87895402E+03</totfact>
</mgrwt>
</event>
<event>
 4    1  0.4439578E+000  0.2611686E+03  0.7546771E-02  0.1106443E+00
         21   -1    0    0  501  502  0.00000000000E+00  0.00000000000E+00  0.20565893971E+03  0.20565893971E+03  0.00000000000E+00 0. -1.
         21   -1    0    0  502  503 -0.00000000000E+00 -0.00000000000E+00 -0.34220165579E+03  0.34220165579E+03  0.00000000000E+00 0. -1.
          6    1    1    2  501    0  0.79527866663E+02  0.17876057727E+03 -0.20194592694E+02  0.26194817643E+03  0.17300000000E+03 0. -1.
         -6    1    1    2    0  503 -0.79527866663E+02 -0.17876057727E+03 -0.11634812339E+03  0.28591241907E+03  0.17300000000E+03 0. -1.
<mgrwt>
<rscale>  2 0.26116858E+03</rscale>
<asrwt>0</asrwt>
<pdfrwt beam="1">  1       21 0.31639837E-01 0.26116858E+03</pdfrwt>
<pdfrwt beam="2">  1       21 0.52646408E-01 0.26116858E+03</pdfrwt>
<totfact> 0.31778366E+04</totfact>
</mgrwt>
</event>
<event>
 4    1  0.4439578E+000  0.1825002E+03  0.7546771E-02  0.1165405E+00
         21   -1    0    0  501  502  0.00000000000E+00  0.00000000000E+00  0.28368366404E+03  0.28368366404E+03  0.00000000000E+00 0.  1.
         21   -1    0    0  502  503 -0.00000000000E+00 -0.00000000000E+00 -0.12121571427E+03  0.12121571427E+03  0.00000000000E+00 0.  1.
          6    1    1    2  501    0 -0.51676117552E+02  0.26587961096E+02  0.11712190254E+03  0.21684990398E+03  0.17300000000E+03 0.  1.
         -6    1    1    2    0  503  0.51676117552E+02 -0.26587961096E+02  0.45346047233E+02  0.18804947434E+03  0.17300000000E+03 0.  1.
<mgrwt>
<rscale>  2 0.18250025E+03</rscale>
<asrwt>0</asrwt>
<pdfrwt beam="1">  1       21 0.43643640E-01 0.18250025E+03</pdfrwt>
<pdfrwt beam="2">  1       21 0.18648572E-01 0.18250025E+03</pdfrwt>
<totfact> 0.13312059E+05</totfact>
</mgrwt>
</event>
<event>
 4    1  0.4439578E+000  0.1736179E+03  0.7546771E-02  0.1174127E+00
         21   -1    0    0  501  502  0.00000000000E+00  0.00000000000E+00  0.59601152585E+02  0.59601152585E+02  0.00000000000E+00 0. -1.
         21   -1    0    0  502  503 -0.00000000000E+00 -0.00000000000E+00 -0.61829777740E+03  0.61829777740E+03  0.00000000000E+00 0. -1.
          6    1    1    2  501    0  0.88769783080E+01  0.11635714463E+02 -0.13473523763E+03  0.21976527218E+03  0.17300000000E+03 0. -1.
         -6    1    1    2    0  503 -0.88769783080E+01 -0.11635714463E+02 -0.42396138718E+03  0.45813365781E+03  0.17300000000E+03 0. -1.
<mgrwt>
<rscale>  2 0.17361794E+03</rscale>
<asrwt>0</asrwt>
<pdfrwt beam="1">  1       21 0.91694079E-02 0.17361794E+03</pdfrwt>
<pdfrwt beam="2">  1       21 0.95122737E-01 0.17361794E+03</pdfrwt>
<totfact> 0.88023765E+04</totfact>
</mgrwt>
</event>
<event>
 4    1  0.4439578E+000  0.1802680E+03  0.7546771E-02  0.1167544E+00
         21   -1    0    0  503  502  0.00000000000E+00  0.00000000000E+00  0.40012078652E+02  0.40012078652E+02  0.00000000000E+00 0.  1.
         21   -1    0    0  501  503 -0.00000000000E+00 -0.00000000000E+00 -0.81860869623E+03  0.81860869623E+03  0.00000000000E+00 0.  1.
          6    1    1    2  501    0 -0.40854730864E+02  0.29974123936E+02 -0.42737653151E+03  0.46383968871E+03  0.17300000000E+03 0.  1.
         -6    1    1    2    0  502  0.40854730864E+02 -0.29974123936E+02 -0.35122008607E+03  0.39478108617E+03  0.17300000000E+03 0.  1.
<mgrwt>
<rscale>  2 0.18026801E+03</rscale>
<asrwt>0</asrwt>
<pdfrwt beam="1">  1       21 0.61557045E-02 0.18026801E+03</pdfrwt>
<pdfrwt beam="2">  1       21 0.12593980E+00 0.18026801E+03</pdfrwt>
<totfact> 0.88847147E+04</totfact>
</mgrwt>
</event>
<event>
 4    1  0.4439578E+000  0.2787465E+03  0.7546771E-02  0.1096376E+00
         21   -1    0    0  503  502  0.00000000000E+00  0.00000000000E+00  0.12513474429E+03  0.12513474429E+03  0.00000000000E+00 0. -1.
         21   -1    0    0  501  503 -0.00000000000E+00 -0.00000000000E+00 -0.69520780988E+03  0.69520780988E+03  0.00000000000E+00 0.  1.
          6    1    1    2  501    0  0.64764794937E+02  0.20874899224E+03 -0.41911047893E+03  0.50334204471E+03  0.17300000000E+03 0. -1.
         -6    1    1    2    0  502 -0.64764794937E+02 -0.20874899224E+03 -0.15096258666E+03  0.31700050946E+03  0.17300000000E+03 0. -1.
<mgrwt>
<rscale>  2 0.27874652E+03</rscale>
<asrwt>0</asrwt>
<pdfrwt beam="1">  1       21 0.19251499E-01 0.27874652E+03</pdfrwt>
<pdfrwt beam="2">  1       21 0.10695505E+00 0.27874652E+03</pdfrwt>
<totfact> 0.16513090E+04</totfact>
</mgrwt>
</event>
<event>
 4    1  0.4439578E+000  0.2566120E+03  0.7546771E-02  0.1109196E+00
         21   -1    0    0  503  502  0.00000000000E+00  0.00000000000E+00  0.12530099751E+03  0.12530099751E+03  0.00000000000E+00 0.  1.
         21   -1    0    0  501  503 -0.00000000000E+00 -0.00000000000E+00 -0.91628815978E+03  0.91628815978E+03  0.00000000000E+00 0. -1.
          6    1    1    2  501    0 -0.10979205966E+03  0.15448758066E+03 -0.73559091108E+03  0.77906591339E+03  0.17300000000E+03 0. -1.
         -6    1    1    2    0  502  0.10979205966E+03 -0.15448758066E+03 -0.55396251180E+02  0.26252324390E+03  0.17300000000E+03 0.  1.
<mgrwt>
<rscale>  2 0.25661198E+03</rscale>
<asrwt>0</asrwt>
<pdfrwt beam="1">  1       21 0.19277078E-01 0.25661198E+03</pdfrwt>
<pdfrwt beam="2">  1       21 0.14096740E+00 0.25661198E+03</pdfrwt>
<totfact> 0.83194308E+03</totfact>
</mgrwt>
</event>
<event>
 4    1  0.4439578E+000  0.2071387E+03  0.7546771E-02  0.1143852E+00
         21   -1    0    0  501  502  0.00000000000E+00  0.00000000000E+00  0.14632408732E+03  0.14632408732E+03  0.00000000000E+00 0.  1.
         21   -1    0    0  502  503 -0.00000000000E+00 -0.00000000000E+00 -0.29331749724E+03  0.29331749724E+03  0.00000000000E+00 0.  1.
          6    1    1    2  501    0 -0.11053767709E+02  0.11338109483E+03 -0.69677367964E+02  0.21854380351E+03  0.17300000000E+03 0.  1.
         -6    1    1    2    0  503  0.11053767709E+02 -0.11338109483E+03 -0.77316041952E+02  0.22109778106E+03  0.17300000000E+03 0.  1.
<mgrwt>
<rscale>  2 0.20713874E+03</rscale>
<asrwt>0</asrwt>
<pdfrwt beam="1">  1       21 0.22511398E-01 0.20713874E+03</pdfrwt>
<pdfrwt beam="2">  1       21 0.45125768E-01 0.20713874E+03</pdfrwt>
<totfact> 0.86560523E+04</totfact>
</mgrwt>
</event>
<event>
 4    1  0.4439578E+000  0.2317587E+03  0.7546771E-02  0.1125408E+00
         21   -1    0    0  503  502  0.00000000000E+00  0.00000000000E+00  0.46180474172E+03  0.46180474172E+03  0.00000000000E+00 0.  1.
         21   -1    0    0  501  503 -0.00000000000E+00 -0.00000000000E+00 -0.12279571381E+03  0.12279571381E+03  0.00000000000E+00 0.  1.
          6    1    1    2  501    0  0.10094506107E+03 -0.11658993225E+03  0.10232376400E+03  0.25334220007E+03  0.17300000000E+03 0.  1.
         -6    1    1    2    0  502 -0.10094506107E+03  0.11658993225E+03  0.23668526391E+03  0.33125825546E+03  0.17300000000E+03 0.  1.
<mgrwt>
<rscale>  2 0.23175875E+03</rscale>
<asrwt>0</asrwt>
<pdfrwt beam="1">  1       21 0.71046883E-01 0.23175875E+03</pdfrwt>
<pdfrwt beam="2">  1       21 0.18891648E-01 0.23175875E+03</pdfrwt>
<totfact> 0.45172678E+04</totfact>
</mgrwt>
</event>
<event>
 4    1  0.4439578E+000  0.2373773E+03  0.7546771E-02  0.1121552E+00
         21   -1    0    0  501  502  0.00000000000E+00  0.00000000000E+00  0.82584541969E+03  0.82584541969E+03  0.00000000000E+00 0.  1.
         21   -1    0    0  502  503 -0.00000000000E+00 -0.00000000000E+00 -0.97225310996E+02  0.97225310996E+02  0.00000000000E+00 0. -1.
          6    1    1    2  501    0  0.12798853083E+03 -0.10018940872E+03  0.61635281293E+03  0.66048374064E+03  0.17300000000E+03 0. -1.
         -6    1    1    2    0  503 -0.12798853083E+03  0.10018940872E+03  0.11226729577E+03  0.26258699005E+03  0.17300000000E+03 0. -1.
<mgrwt>
<rscale>  2 0.23737730E+03</rscale>
<asrwt>0</asrwt>
<pdfrwt beam="1">  1       21 0.12705314E+00 0.23737730E+03</pdfrwt>
<pdfrwt beam="2">  1       21 0.14957741E-01 0.23737730E+03</pdfrwt>
<totfact> 0.17565001E+04</totfact>
</mgrwt>
</event>
<event>
 4    1  0.4439578E+000  0.1735512E+03  0.7546771E-02  0.1174194E+00
         21   -1    0    0  503  502  0.00000000000E+00  0.00000000000E+00  0.12238768421E+03  0.12238768421E+03  0.00000000000E+00 0. -1.
         21   -1    0    0  501  503 -0.00000000000E+00 -0.00000000000E+00 -0.24648294457E+03  0.24648294457E+03  0.00000000000E+00 0. -1.
          6    1    1    2  501    0  0.84103271486E+01 -0.10966690150E+02 -0.54808423860E+02  0.18199990445E+03  0.17300000000E+03 0.  1.
         -6    1    1    2    0  502 -0.84103271486E+01  0.10966690150E+02 -0.69286836507E+02  0.18687072432E+03  0.17300000000E+03 0.  1.
<mgrwt>
<rscale>  2 0.17355115E+03</rscale>
<asrwt>0</asrwt>
<pdfrwt beam="1">  1       21 0.18828875E-01 0.17355115E+03</pdfrwt>
<pdfrwt beam="2">  1       21 0.37920452E-01 0.17355115E+03</pdfrwt>
<totfact> 0.17424152E+05</totfact>
</mgrwt>
</event>
<event>
 4    1  0.4439578E+000  0.1848301E+03  0.7546771E-02  0.1163209E+00
         21   -1    0    0  503  502  0.00000000000E+00  0.00000000000E+00  0.30359276311E+03  0.30359276311E+03  0.00000000000E+00 0. -1.
         21   -1    0    0  501  503 -0.00000000000E+00 -0.00000000000E+00 -0.11626593257E+03  0.11626593257E+03  0.00000000000E+00 0. -1.
          6    1    1    2  501    0  0.49552453469E+02  0.42163096311E+02  0.56013760204E+02  0.19313133787E+03  0.17300000000E+03 0. -1.
         -6    1    1    2    0  502 -0.49552453469E+02 -0.42163096311E+02  0.13131307034E+03  0.22672735780E+03  0.17300000000E+03 0. -1.
<mgrwt>
<rscale>  2 0.18483012E+03</rscale>
<asrwt>0</asrwt>
<pdfrwt beam="1">  1       21 0.46706579E-01 0.18483012E+03</pdfrwt>
<pdfrwt beam="2">  1       21 0.17887067E-01 0.18483012E+03</pdfrwt>
<totfact> 0.12500594E+05</totfact>
</mgrwt>
</event>
<event>
 4    1  0.4439578E+000  0.2185070E+03  0.7546771E-02  0.1135001E+00
         21   -1    0    0  503  502  0.00000000000E+00  0.00000000000E+00  0.66514700590E+03  0.66514700590E+03  0.00000000000E+00 0.  1.
         21   -1    0    0  501  503 -0.00000000000E+00 -0.00000000000E+00 -0.17904931348E+04  0.17904931348E+04  0.00000000000E+00 0.  1.
          6    1    1    2  501    0  0.17076751249E+02  0.13238084829E+03 -0.17656294900E+04  0.17790988731E+04  0.17300000000E+03 0.  1.
         -6    1    1    2    0  502 -0.17076751249E+02 -0.13238084829E+03  0.64028336102E+03  0.67654126764E+03  0.17300000000E+03 0.  1.
<mgrwt>
<rscale>  2 0.21850699E+03</rscale>
<asrwt>0</asrwt>
<pdfrwt beam="1">  1       21 0.10233031E+00 0.21850699E+03</pdfrwt>
<pdfrwt beam="2">  1       21 0.27546048E+00 0.21850699E+03</pdfrwt>
<totfact> 0.35205102E+01</totfact>
</mgrwt>
</event>
<event>
 4    1  0.4439578E+000  0.1853012E+03  0.7546771E-02  0.1162769E+00
         21   -1    0    0  501  502  0.00000000000E+00  0.00000000000E+00  0.97128712162E+03  0.97128712162E+03  0.00000000000E+00 0.  1.
         21   -1    0    0  502  503 -0.00000000000E+00 -0.00000000000E+00 -0.66938247654E+02  0.66938247654E+02  0.00000000000E+00 0.  1.
          6    1    1    2  501    0  0.66241259681E+02  0.44299731614E+01  0.80877039331E+03  0.82972650810E+03  0.17300000000E+03 0.  1.
         -6    1    1    2    0  503 -0.66241259681E+02 -0.44299731614E+01  0.95578480654E+02  0.20849886117E+03  0.17300000000E+03 0.  1.
<mgrwt>
<rscale>  2 0.18530118E+03</rscale>
<asrwt>0</asrwt>
<pdfrwt beam="1">  1       21 0.14942878E+00 0.18530118E+03</pdfrwt>
<pdfrwt beam="2">  1       21 0.10298193E-01 0.18530118E+03</pdfrwt>
<totfact> 0.23370254E+04</totfact>
</mgrwt>
</event>
<event>
 4    1  0.4439578E+000  0.1839943E+03  0.7546771E-02  0.1163992E+00
         21   -1    0    0  501  502  0.00000000000E+00  0.00000000000E+00  0.16372850767E+03  0.16372850767E+03  0.00000000000E+00 0.  1.
         21   -1    0    0  502  503 -0.00000000000E+00 -0.00000000000E+00 -0.44431145700E+03  0.44431145700E+03  0.00000000000E+00 0. -1.
          6    1    1    2  501    0 -0.14713995623E+02 -0.60896760240E+02  0.82003346887E+02  0.20144097392E+03  0.17300000000E+03 0.  1.
         -6    1    1    2    0  503  0.14713995623E+02  0.60896760240E+02 -0.36258629622E+03  0.40659899075E+03  0.17300000000E+03 0. -1.
<mgrwt>
<rscale>  2 0.18399434E+03</rscale>
<asrwt>0</asrwt>
<pdfrwt beam="1">  1       21 0.25189001E-01 0.18399434E+03</pdfrwt>
<pdfrwt beam="2">  1       21 0.68355609E-01 0.18399434E+03</pdfrwt>
<totfact> 0.29288225E+04</totfact>
</mgrwt>
</event>
<event>
 4    1  0.4439578E+000  0.2179204E+03  0.7546771E-02  0.1135443E+00
         21   -1    0    0  503  502  0.00000000000E+00  0.00000000000E+00  0.44375186576E+02  0.44375186576E+02  0.00000000000E+00 0. -1.
         21   -1    0    0  501  503 -0.00000000000E+00 -0.00000000000E+00 -0.16037084363E+04  0.16037084363E+04  0.00000000000E+00 0. -1.
          6    1    1    2  501    0  0.11117194789E+03 -0.72118661469E+02 -0.12549652462E+04  0.12737452935E+04  0.17300000000E+03 0. -1.
         -6    1    1    2    0  502 -0.11117194789E+03  0.72118661469E+02 -0.30436800349E+03  0.37433832943E+03  0.17300000000E+03 0. -1.
<mgrwt>
<rscale>  2 0.21792041E+03</rscale>
<asrwt>0</asrwt>
<pdfrwt beam="1">  1       21 0.68269520E-02 0.21792041E+03</pdfrwt>
<pdfrwt beam="2">  1       21 0.24672437E+00 0.21792041E+03</pdfrwt>
<totfact> 0.10732781E+04</totfact>
</mgrwt>
</event>
<event>
 4    1  0.4439578E+000  0.2337871E+03  0.7546771E-02  0.1124002E+00
         21   -1    0    0  503  502  0.00000000000E+00  0.00000000000E+00  0.27540432773E+03  0.27540432773E+03  0.00000000000E+00 0.  1.
         21   -1    0    0  501  503 -0.00000000000E+00 -0.00000000000E+00 -0.33747881251E+03  0.33747881251E+03  0.00000000000E+00 0.  1.
          6    1    1    2  501    0 -0.94122935685E+02 -0.12596931090E+03 -0.22771859526E+03  0.32636199678E+03  0.17300000000E+03 0.  1.
         -6    1    1    2    0  502  0.94122935685E+02  0.12596931090E+03  0.16564411049E+03  0.28652114346E+03  0.17300000000E+03 0.  1.
<mgrwt>
<rscale>  2 0.23378707E+03</rscale>
<asrwt>0</asrwt>
<pdfrwt beam="1">  1       21 0.42369897E-01 0.23378707E+03</pdfrwt>
<pdfrwt beam="2">  1       21 0.51919817E-01 0.23378707E+03</pdfrwt>
<totfact> 0.18434324E+04</totfact>
</mgrwt>
</event>
<event>
 4    1  0.4439578E+000  0.2047974E+03  0.7546771E-02  0.1145753E+00
         21   -1    0    0  503  502  0.00000000000E+00  0.00000000000E+00  0.32697002916E+03  0.32697002916E+03  0.00000000000E+00 0. -1.
         21   -1    0    0  501  503 -0.00000000000E+00 -0.00000000000E+00 -0.12952159222E+03  0.12952159222E+03  0.00000000000E+00 0. -1.
          6    1    1    2  501    0  0.69576845180E+00 -0.10960148440E+03  0.76329115229E+02  0.21855915288E+03  0.17300000000E+03 0. -1.
         -6    1    1    2    0  502 -0.69576845180E+00  0.10960148440E+03  0.12111932171E+03  0.23793246850E+03  0.17300000000E+03 0. -1.
<mgrwt>
<rscale>  2 0.20479739E+03</rscale>
<asrwt>0</asrwt>
<pdfrwt beam="1">  1       21 0.50303081E-01 0.20479739E+03</pdfrwt>
<pdfrwt beam="2">  1       21 0.19926399E-01 0.20479739E+03</pdfrwt>
<totfact> 0.87007816E+04</totfact>
</mgrwt>
</event>
<event>
 4    1  0.4439578E+000  0.1800451E+03  0.7546771E-02  0.1167759E+00
         21   -1    0    0  503  502  0.00000000000E+00  0.00000000000E+00  0.14805771537E+03  0.14805771537E+03  0.00000000000E+00 0.  1.
         21   -1    0    0  501  503 -0.00000000000E+00 -0.00000000000E+00 -0.33246325883E+03  0.33246325883E+03  0.00000000000E+00 0.  1.
          6    1    1    2  501    0 -0.16597246726E+01 -0.49844681017E+02 -0.23259614516E+03  0.29413808603E+03  0.17300000000E+03 0.  1.
         -6    1    1    2    0  502  0.16597246726E+01  0.49844681017E+02  0.48190601702E+02  0.18638288817E+03  0.17300000000E+03 0.  1.
<mgrwt>
<rscale>  2 0.18004512E+03</rscale>
<asrwt>0</asrwt>
<pdfrwt beam="1">  1       21 0.22778110E-01 0.18004512E+03</pdfrwt>
<pdfrwt beam="2">  1       21 0.51148193E-01 0.18004512E+03</pdfrwt>
<totfact> 0.66051639E+04</totfact>
</mgrwt>
</event>
<event>
 4    1  0.4439578E+000  0.2261298E+03  0.7546771E-02  0.1129394E+00
         21   -1    0    0  501  502  0.00000000000E+00  0.00000000000E+00  0.31024059199E+03  0.31024059199E+03  0.00000000000E+00 0.  1.
         21   -1    0    0  502  503 -0.00000000000E+00 -0.00000000000E+00 -0.58864689339E+03  0.58864689339E+03  0.00000000000E+00 0.  1.
          6    1    1    2  501    0  0.35092105344E+02 -0.14133016197E+03  0.24216183602E+03  0.33132616161E+03  0.17300000000E+03 0.  1.
         -6    1    1    2    0  503 -0.35092105344E+02  0.14133016197E+03 -0.52056813743E+03  0.56756132377E+03  0.17300000000E+03 0.  1.
<mgrwt>
<rscale>  2 0.22612976E+03</rscale>
<asrwt>0</asrwt>
<pdfrwt beam="1">  1       21 0.47729322E-01 0.22612976E+03</pdfrwt>
<pdfrwt beam="2">  1       21 0.90561061E-01 0.22612976E+03</pdfrwt>
<totfact> 0.42356675E+03</totfact>
</mgrwt>
</event>
<event>
 4    1  0.4439578E+000  0.2183431E+03  0.7546771E-02  0.1135124E+00
         21   -1    0    0  501  502  0.00000000000E+00  0.00000000000E+00  0.41113741870E+03  0.41113741870E+03  0.00000000000E+00 0. -1.
         21   -1    0    0  502  503 -0.00000000000E+00 -0.00000000000E+00 -0.11596800782E+03  0.11596800782E+03  0.00000000000E+00 0. -1.
          6    1    1    2  501    0  0.11721937989E+03  0.63279773908E+02  0.15030367850E+03  0.26507528851E+03  0.17300000000E+03 0. -1.
         -6    1    1    2    0  503 -0.11721937989E+03 -0.63279773908E+02  0.14486573238E+03  0.26203013801E+03  0.17300000000E+03 0. -1.
<mgrwt>
<rscale>  2 0.21834311E+03</rscale>
<asrwt>0</asrwt>
<pdfrwt beam="1">  1       21 0.63251910E-01 0.21834311E+03</pdfrwt>
<pdfrwt beam="2">  1       21 0.17841232E-01 0.21834311E+03</pdfrwt>
<totfact> 0.65237165E+04</totfact>
</mgrwt>
</event>
<event>
 4    1  0.4439578E+000  0.2562598E+03  0.7546771E-02  0.1109411E+00
         21   -1    0    0  503  502  0.00000000000E+00  0.00000000000E+00  0.15184238235E+03  0.15184238235E+03  0.00000000000E+00 0.  1.
         21   -1    0    0  501  503 -0.00000000000E+00 -0.00000000000E+00 -0.73294294843E+03  0.73294294843E+03  0.00000000000E+00 0.  1.
          6    1    1    2  501    0 -0.16151794320E+03 -0.98244813635E+02 -0.57379830566E+03  0.62842150262E+03  0.17300000000E+03 0.  1.
         -6    1    1    2    0  502  0.16151794320E+03  0.98244813635E+02 -0.73022604268E+01  0.25636382816E+03  0.17300000000E+03 0.  1.
<mgrwt>
<rscale>  2 0.25625981E+03</rscale>
<asrwt>0</asrwt>
<pdfrwt beam="1">  1       21 0.23360367E-01 0.25625981E+03</pdfrwt>
<pdfrwt beam="2">  1       21 0.11276045E+00 0.25625981E+03</pdfrwt>
<totfact> 0.10178271E+04</totfact>
</mgrwt>
</event>
<event>
 4    1  0.4439578E+000  0.1744006E+03  0.7546771E-02  0.1173335E+00
         21   -1    0    0  503  502  0.00000000000E+00  0.00000000000E+00  0.31566964667E+03  0.31566964667E+03  0.00000000000E+00 0. -1.
         21   -1    0    0  501  503 -0.00000000000E+00 -0.00000000000E+00 -0.96370301889E+02  0.96370301889E+02  0.00000000000E+00 0. -1.
          6    1    1    2  501    0  0.11168225934E+02 -0.19022329626E+02  0.11244510055E+03  0.20750778041E+03  0.17300000000E+03 0.  1.
         -6    1    1    2    0  502 -0.11168225934E+02  0.19022329626E+02  0.10685424423E+03  0.20453216814E+03  0.17300000000E+03 0.  1.
<mgrwt>
<rscale>  2 0.17440063E+03</rscale>
<asrwt>0</asrwt>
<pdfrwt beam="1">  1       21 0.48564561E-01 0.17440063E+03</pdfrwt>
<pdfrwt beam="2">  1       21 0.14826200E-01 0.17440063E+03</pdfrwt>
<totfact> 0.16316312E+05</totfact>
</mgrwt>
</event>
<event>
 4    1  0.4439578E+000  0.2375240E+03  0.7546771E-02  0.1121453E+00
         21   -1    0    0  503  502  0.00000000000E+00  0.00000000000E+00  0.30285242010E+03  0.30285242010E+03  0.00000000000E+00 0. -1.
         21   -1    0    0  501  503 -0.00000000000E+00 -0.00000000000E+00 -0.19085832159E+03  0.19085832159E+03  0.00000000000E+00 0. -1.
          6    1    1    2  501    0  0.15614867520E+03  0.45893760626E+02  0.17795575757E+02  0.23818969026E+03  0.17300000000E+03 0. -1.
         -6    1    1    2    0  502 -0.15614867520E+03 -0.45893760626E+02  0.94198522749E+02  0.25552105142E+03  0.17300000000E+03 0. -1.
<mgrwt>
<rscale>  2 0.23752399E+03</rscale>
<asrwt>0</asrwt>
<pdfrwt beam="1">  1       21 0.46592680E-01 0.23752399E+03</pdfrwt>
<pdfrwt beam="2">  1       21 0.29362819E-01 0.23752399E+03</pdfrwt>
<totfact> 0.48009267E+04</totfact>
</mgrwt>
</event>
<event>
 4    1  0.4439578E+000  0.1832751E+03  0.7546771E-02  0.1164671E+00
         21   -1    0    0  501  502  0.00000000000E+00  0.00000000000E+00  0.20474758867E+02  0.20474758867E+02  0.00000000000E+00 0. -1.
         21   -1    0    0  502  503 -0.00000000000E+00 -0.00000000000E+00 -0.16452491631E+04  0.16452491631E+04  0.00000000000E+00 0. -1.
          6    1    1    2  501    0 -0.60191502430E+02 -0.61430824055E+01 -0.76785047013E+03  0.78942010293E+03  0.17300000000E+03 0. -1.
         -6    1    1    2    0  503  0.60191502430E+02  0.61430824055E+01 -0.85692393410E+03  0.87630381904E+03  0.17300000000E+03 0. -1.
<mgrwt>
<rscale>  2 0.18327508E+03</rscale>
<asrwt>0</asrwt>
<pdfrwt beam="1">  1       21 0.31499622E-02 0.18327508E+03</pdfrwt>
<pdfrwt beam="2">  1       21 0.25311531E+00 0.18327508E+03</pdfrwt>
<totfact> 0.37493790E+04</totfact>
</mgrwt>
</event>
<event>
 4    1  0.4439578E+000  0.1985304E+03  0.7546771E-02  0.1150985E+00
         21   -1    0    0  503  502  0.00000000000E+00  0.00000000000E+00  0.35269764633E+03  0.35269764633E+03  0.00000000000E+00 0.  1.
         21   -1    0    0  501  503 -0.00000000000E+00 -0.00000000000E+00 -0.11290781414E+03  0.11290781414E+03  0.00000000000E+00 0.  1.
          6    1    1    2  501    0 -0.80424866605E+02 -0.54928866219E+02  0.96331153175E+02  0.22066723949E+03  0.17300000000E+03 0.  1.
         -6    1    1    2    0  502  0.80424866605E+02  0.54928866219E+02  0.14345867901E+03  0.24493822098E+03  0.17300000000E+03 0.  1.
<mgrwt>
<rscale>  2 0.19853045E+03</rscale>
<asrwt>0</asrwt>
<pdfrwt beam="1">  1       21 0.54261176E-01 0.19853045E+03</pdfrwt>
<pdfrwt beam="2">  1       21 0.17370433E-01 0.19853045E+03</pdfrwt>
<totfact> 0.96002104E+04</totfact>
</mgrwt>
</event>
<event>
 4    1  0.4439578E+000  0.1732831E+03  0.7546771E-02  0.1174467E+00
         21   -1    0    0  503  502  0.00000000000E+00  0.00000000000E+00  0.12512836600E+03  0.12512836600E+03  0.00000000000E+00 0. -1.
         21   -1    0    0  501  503 -0.00000000000E+00 -0.00000000000E+00 -0.31804543491E+03  0.31804543491E+03  0.00000000000E+00 0. -1.
          6    1    1    2  501    0 -0.88865729363E+01 -0.43648134660E+01 -0.20624717295E+03  0.26937876517E+03  0.17300000000E+03 0. -1.
         -6    1    1    2    0  502  0.88865729363E+01  0.43648134660E+01  0.13330104042E+02  0.17379503574E+03  0.17300000000E+03 0. -1.
<mgrwt>
<rscale>  2 0.17328307E+03</rscale>
<asrwt>0</asrwt>
<pdfrwt beam="1">  1       21 0.19250518E-01 0.17328307E+03</pdfrwt>
<pdfrwt beam="2">  1       21 0.48930067E-01 0.17328307E+03</pdfrwt>
<totfact> 0.99537548E+04</totfact>
</mgrwt>
</event>
<event>
 4    1  0.4439578E+000  0.1749200E+03  0.7546771E-02  0.1172812E+00
         21   -1    0    0  503  502  0.00000000000E+00  0.00000000000E+00  0.26724028124E+03  0.26724028124E+03  0.00000000000E+00 0. -1.
         21   -1    0    0  501  503 -0.00000000000E+00 -0.00000000000E+00 -0.48739340284E+03  0.48739340284E+03  0.00000000000E+00 0. -1.
          6    1    1    2  501    0 -0.83605280994E+01  0.24456496872E+02 -0.44011388826E+03  0.47360030966E+03  0.17300000000E+03 0. -1.
         -6    1    1    2    0  502  0.83605280994E+01 -0.24456496872E+02  0.21996076666E+03  0.28103337442E+03  0.17300000000E+03 0. -1.
<mgrwt>
<rscale>  2 0.17492004E+03</rscale>
<asrwt>0</asrwt>
<pdfrwt beam="1">  1       21 0.41113890E-01 0.17492004E+03</pdfrwt>
<pdfrwt beam="2">  1       21 0.74983600E-01 0.17492004E+03</pdfrwt>
<totfact> 0.91794350E+03</totfact>
</mgrwt>
</event>
<event>
 4    1  0.4439578E+000  0.1806783E+03  0.7546771E-02  0.1167148E+00
         21   -1    0    0  501  502  0.00000000000E+00  0.00000000000E+00  0.61133685059E+03  0.61133685059E+03  0.00000000000E+00 0.  1.
         21   -1    0    0  502  503 -0.00000000000E+00 -0.00000000000E+00 -0.56428360229E+02  0.56428360229E+02  0.00000000000E+00 0.  1.
          6    1    1    2  501    0  0.44653997860E+02 -0.26863803654E+02  0.35481774957E+03  0.39817116782E+03  0.17300000000E+03 0.  1.
         -6    1    1    2    0  503 -0.44653997860E+02  0.26863803654E+02  0.20009074079E+03  0.26959404300E+03  0.17300000000E+03 0.  1.
<mgrwt>
<rscale>  2 0.18067829E+03</rscale>
<asrwt>0</asrwt>
<pdfrwt beam="1">  1       21 0.94051819E-01 0.18067829E+03</pdfrwt>
<pdfrwt beam="2">  1       21 0.86812866E-02 0.18067829E+03</pdfrwt>
<totfact> 0.99156678E+04</totfact>
</mgrwt>
</event>
<event>
 4    1  0.4439578E+000  0.2091807E+03  0.7546771E-02  0.1142216E+00
         21   -1    0    0  503  502  0.00000000000E+00  0.00000000000E+00  0.20717774694E+03  0.20717774694E+03  0.00000000000E+00 0. -1.
         21   -1    0    0  501  503 -0.00000000000E+00 -0.00000000000E+00 -0.27875578537E+03  0.27875578537E+03  0.00000000000E+00 0.  1.
          6    1    1    2  501    0  0.86565458314E+02  0.79586223624E+02 -0.15539607749E+03  0.26058489301E+03  0.17300000000E+03 0. -1.
         -6    1    1    2    0  502 -0.86565458314E+02 -0.79586223624E+02  0.83818039062E+02  0.22534863930E+03  0.17300000000E+03 0. -1.
<mgrwt>
<rscale>  2 0.20918065E+03</rscale>
<asrwt>0</asrwt>
<pdfrwt beam="1">  1       21 0.31873500E-01 0.20918065E+03</pdfrwt>
<pdfrwt beam="2">  1       21 0.42885505E-01 0.20918065E+03</pdfrwt>
<totfact> 0.49101750E+04</totfact>
</mgrwt>
</event>
<event>
 4    1  0.4439578E+000  0.4558318E+03  0.7546771E-02  0.1025997E+00
         21   -1    0    0  501  502  0.00000000000E+00  0.00000000000E+00  0.18312008893E+04  0.18312008893E+04  0.00000000000E+00 0. -1.
         21   -1    0    0  502  503 -0.00000000000E+00 -0.00000000000E+00 -0.19275199176E+03  0.19275199176E+03  0.00000000000E+00 0.  1.
          6    1    1    2  501    0 -0.37180833748E+03 -0.19902812693E+03  0.14682530258E+04  0.15373840063E+04  0.17300000000E+03 0.  1.
         -6    1    1    2    0  503  0.37180833748E+03  0.19902812693E+03  0.17019587178E+03  0.48656887478E+03  0.17300000000E+03 0.  1.
<mgrwt>
<rscale>  2 0.45583181E+03</rscale>
<asrwt>0</asrwt>
<pdfrwt beam="1">  1       21 0.28172320E+00 0.45583181E+03</pdfrwt>
<pdfrwt beam="2">  1       21 0.29654154E-01 0.45583181E+03</pdfrwt>
<totfact> 0.37698381E+02</totfact>
</mgrwt>
</event>
<event>
 4    1  0.4439578E+000  0.1849396E+03  0.7546771E-02  0.1163106E+00
         21   -1    0    0  503  502  0.00000000000E+00  0.00000000000E+00  0.16308939458E+03  0.16308939458E+03  0.00000000000E+00 0.  1.
         21   -1    0    0  501  503 -0.00000000000E+00 -0.00000000000E+00 -0.47712826442E+03  0.47712826442E+03  0.00000000000E+00 0.  1.
          6    1    1    2  501    0 -0.62466402662E+02 -0.19277130597E+02 -0.39666518278E+03  0.43765960112E+03  0.17300000000E+03 0.  1.
         -6    1    1    2    0  502  0.62466402662E+02  0.19277130597E+02  0.82626312938E+02  0.20255805789E+03  0.17300000000E+03 0.  1.
<mgrwt>
<rscale>  2 0.18493961E+03</rscale>
<asrwt>0</asrwt>
<pdfrwt beam="1">  1       21 0.25090676E-01 0.18493961E+03</pdfrwt>
<pdfrwt beam="2">  1       21 0.73404348E-01 0.18493961E+03</pdfrwt>
<totfact> 0.25200209E+04</totfact>
</mgrwt>
</event>
<event>
 4    1  0.4439578E+000  0.1917879E+03  0.7546771E-02  0.1156859E+00
         21   -1    0    0  501  502  0.00000000000E+00  0.00000000000E+00  0.21922711009E+03  0.21922711009E+03  0.00000000000E+00 0. -1.
         21   -1    0    0  502  503 -0.00000000000E+00 -0.00000000000E+00 -0.24657656900E+03  0.24657656900E+03  0.00000000000E+00 0. -1.
          6    1    1    2  501    0 -0.66026311597E+02  0.49941132987E+02  0.11798176800E+03  0.22517168598E+03  0.17300000000E+03 0. -1.
         -6    1    1    2    0  503  0.66026311597E+02 -0.49941132987E+02 -0.14533122691E+03  0.24063199310E+03  0.17300000000E+03 0. -1.
<mgrwt>
<rscale>  2 0.19178788E+03</rscale>
<asrwt>0</asrwt>
<pdfrwt beam="1">  1       21 0.33727248E-01 0.19178788E+03</pdfrwt>
<pdfrwt beam="2">  1       21 0.37934857E-01 0.19178788E+03</pdfrwt>
<totfact> 0.56776753E+04</totfact>
</mgrwt>
</event>
<event>
 4    1  0.4439578E+000  0.2015184E+03  0.7546771E-02  0.1148464E+00
         21   -1    0    0  503  502  0.00000000000E+00  0.00000000000E+00  0.65987400573E+02  0.65987400573E+02  0.00000000000E+00 0. -1.
         21   -1    0    0  501  503 -0.00000000000E+00 -0.00000000000E+00 -0.14536330969E+04  0.14536330969E+04  0.00000000000E+00 0. -1.
          6    1    1    2  501    0  0.99545475422E+02  0.27773240835E+02 -0.11684891882E+03  0.23294489566E+03  0.17300000000E+03 0. -1.
         -6    1    1    2    0  502 -0.99545475422E+02 -0.27773240835E+02 -0.12707967775E+04  0.12866756018E+04  0.17300000000E+03 0. -1.
<mgrwt>
<rscale>  2 0.20151837E+03</rscale>
<asrwt>0</asrwt>
<pdfrwt beam="1">  1       21 0.10151908E-01 0.20151837E+03</pdfrwt>
<pdfrwt beam="2">  1       21 0.22363585E+00 0.20151837E+03</pdfrwt>
<totfact> 0.74903653E+03</totfact>
</mgrwt>
</event>
<event>
 4    1  0.4439578E+000  0.2438799E+03  0.7546771E-02  0.1117235E+00
         21   -1    0    0  501  502  0.00000000000E+00  0.00000000000E+00  0.61578783265E+03  0.61578783265E+03  0.00000000000E+00 0. -1.
         21   -1    0    0  502  503 -0.00000000000E+00 -0.00000000000E+00 -0.99139084442E+02  0.99139084442E+02  0.00000000000E+00 0. -1.
          6    1    1    2  501    0 -0.15113413932E+02 -0.17123079894E+03  0.31567193267E+03  0.39890621813E+03  0.17300000000E+03 0. -1.
         -6    1    1    2    0  503  0.15113413932E+02  0.17123079894E+03  0.20097681554E+03  0.31602069896E+03  0.17300000000E+03 0. -1.
<mgrwt>
<rscale>  2 0.24387989E+03</rscale>
<asrwt>0</asrwt>
<pdfrwt beam="1">  1       21 0.94736588E-01 0.24387989E+03</pdfrwt>
<pdfrwt beam="2">  1       21 0.15252167E-01 0.24387989E+03</pdfrwt>
<totfact> 0.34567728E+04</totfact>
</mgrwt>
</event>
<event>
 4    1  0.4439578E+000  0.2057900E+03  0.7546771E-02  0.1144944E+00
         21   -1    0    0  501  502  0.00000000000E+00  0.00000000000E+00  0.17843116277E+03  0.17843116277E+03  0.00000000000E+00 0. -1.
         21   -1    0    0  502  503 -0.00000000000E+00 -0.00000000000E+00 -0.32473599939E+03  0.32473599939E+03  0.00000000000E+00 0. -1.
          6    1    1    2  501    0 -0.46232423488E+02 -0.10140563209E+03  0.57360435484E+02  0.21363463849E+03  0.17300000000E+03 0. -1.
         -6    1    1    2    0  503  0.46232423488E+02  0.10140563209E+03 -0.20366527211E+03  0.28953252367E+03  0.17300000000E+03 0. -1.
<mgrwt>
<rscale>  2 0.20579004E+03</rscale>
<asrwt>0</asrwt>
<pdfrwt beam="1">  1       21 0.27450948E-01 0.20579004E+03</pdfrwt>
<pdfrwt beam="2">  1       21 0.49959384E-01 0.20579004E+03</pdfrwt>
<totfact> 0.48005203E+04</totfact>
</mgrwt>
</event>
<event>
 4    1  0.4439578E+000  0.2143274E+03  0.7546771E-02  0.1138184E+00
         21   -1    0    0  503  502  0.00000000000E+00  0.00000000000E+00  0.37414117870E+03  0.37414117870E+03  0.00000000000E+00 0. -1.
         21   -1    0    0  501  503 -0.00000000000E+00 -0.00000000000E+00 -0.20843355015E+03  0.20843355015E+03  0.00000000000E+00 0. -1.
          6    1    1    2  501    0 -0.92048093901E+02  0.86800747614E+02 -0.10387707202E+03  0.23817360783E+03  0.17300000000E+03 0. -1.
         -6    1    1    2    0  502  0.92048093901E+02 -0.86800747614E+02  0.26958470057E+03  0.34440112102E+03  0.17300000000E+03 0. -1.
<mgrwt>
<rscale>  2 0.21432737E+03</rscale>
<asrwt>0</asrwt>
<pdfrwt beam="1">  1       21 0.57560181E-01 0.21432737E+03</pdfrwt>
<pdfrwt beam="2">  1       21 0.32066700E-01 0.21432737E+03</pdfrwt>
<totfact> 0.26171218E+04</totfact>
</mgrwt>
</event>
<event>
 4    1  0.4439578E+000  0.1918217E+03  0.7546771E-02  0.1156828E+00
         21   -1    0    0  503  502  0.00000000000E+00  0.00000000000E+00  0.97843791453E+03  0.97843791453E+03  0.00000000000E+00 0. -1.
         21   -1    0    0  501  503 -0.00000000000E+00 -0.00000000000E+00 -0.38671961707E+02  0.38671961707E+02  0.00000000000E+00 0.  1.
          6    1    1    2  501    0 -0.82581833409E+02 -0.68424339300E+01  0.55429776823E+03  0.58655058944E+03  0.17300000000E+03 0.  1.
         -6    1    1    2    0  502  0.82581833409E+02  0.68424339300E+01  0.38546818459E+03  0.43055928680E+03  0.17300000000E+03 0.  1.
<mgrwt>
<rscale>  2 0.19182174E+03</rscale>
<asrwt>0</asrwt>
<pdfrwt beam="1">  1       21 0.15052889E+00 0.19182174E+03</pdfrwt>
<pdfrwt beam="2">  1       21 0.59495333E-02 0.19182174E+03</pdfrwt>
<totfact> 0.59271768E+04</totfact>
</mgrwt>
</event>
<event>
 4    1  0.4439578E+000  0.2655157E+03  0.7546771E-02  0.1103874E+00
         21   -1    0    0  503  502  0.00000000000E+00  0.00000000000E+00  0.28251495192E+03  0.28251495192E+03  0.00000000000E+00 0. -1.
         21   -1    0    0  501  503 -0.00000000000E+00 -0.00000000000E+00 -0.24993576562E+03  0.24993576562E+03  0.00000000000E+00 0.  1.
          6    1    1    2  501    0 -0.14125094120E+03 -0.14358883909E+03  0.26892829769E+02  0.26687414148E+03  0.17300000000E+03 0. -1.
         -6    1    1    2    0  502  0.14125094120E+03  0.14358883909E+03  0.56863565300E+01  0.26557657606E+03  0.17300000000E+03 0. -1.
<mgrwt>
<rscale>  2 0.26551569E+03</rscale>
<asrwt>0</asrwt>
<pdfrwt beam="1">  1       21 0.43463839E-01 0.26551569E+03</pdfrwt>
<pdfrwt beam="2">  1       21 0.38451656E-01 0.26551569E+03</pdfrwt>
<totfact> 0.32052015E+04</totfact>
</mgrwt>
</event>
<event>
 4    1  0.4439578E+000  0.1773502E+03  0.7546771E-02  0.1170392E+00
         21   -1    0    0  503  502  0.00000000000E+00  0.00000000000E+00  0.13071742717E+04  0.13071742717E+04  0.00000000000E+00 0.  1.
         21   -1    0    0  501  503 -0.00000000000E+00 -0.00000000000E+00 -0.33437552588E+02  0.33437552588E+02  0.00000000000E+00 0.  1.
          6    1    1    2  501    0  0.10426215882E+02  0.37621838736E+02  0.28192721358E+03  0.33307065690E+03  0.17300000000E+03 0.  1.
         -6    1    1    2    0  502 -0.10426215882E+02 -0.37621838736E+02  0.99180950557E+03  0.10075411674E+04  0.17300000000E+03 0.  1.
<mgrwt>
<rscale>  2 0.17735024E+03</rscale>
<asrwt>0</asrwt>
<pdfrwt beam="1">  1       21 0.20110369E+00 0.17735024E+03</pdfrwt>
<pdfrwt beam="2">  1       21 0.51442399E-02 0.17735024E+03</pdfrwt>
<totfact> 0.34230599E+04</totfact>
</mgrwt>
</event>
<event>
 4    1  0.4439578E+000  0.1954377E+03  0.7546771E-02  0.1153646E+00
         21   -1    0    0  503  502  0.00000000000E+00  0.00000000000E+00  0.73503725455E+03  0.73503725455E+03  0.00000000000E+00 0. -1.
         21   -1    0    0  501  503 -0.00000000000E+00 -0.00000000000E+00 -0.57052103441E+02  0.57052103441E+02  0.00000000000E+00 0. -1.
          6    1    1    2  501    0 -0.21349736372E+02 -0.88380397125E+02  0.22072618198E+03  0.29481511707E+03  0.17300000000E+03 0. -1.
         -6    1    1    2    0  502  0.21349736372E+02  0.88380397125E+02  0.45725896912E+03  0.49727424092E+03  0.17300000000E+03 0. -1.
<mgrwt>
<rscale>  2 0.19543773E+03</rscale>
<asrwt>0</asrwt>
<pdfrwt beam="1">  1       21 0.11308265E+00 0.19543773E+03</pdfrwt>
<pdfrwt beam="2">  1       21 0.87772472E-02 0.19543773E+03</pdfrwt>
<totfact> 0.62254132E+04</totfact>
</mgrwt>
</event>
<event>
 4    1  0.4439578E+000  0.2065321E+03  0.7546771E-02  0.1144342E+00
         21   -1    0    0  503  502  0.00000000000E+00  0.00000000000E+00  0.29374479326E+03  0.29374479326E+03  0.00000000000E+00 0. -1.
         21   -1    0    0  501  503 -0.00000000000E+00 -0.00000000000E+00 -0.38020930921E+03  0.38020930921E+03  0.00000000000E+00 0.  1.
          6    1    1    2  501    0  0.71185333859E+02 -0.87516616309E+02 -0.30815524267E+03  0.37096517825E+03  0.17300000000E+03 0.  1.
         -6    1    1    2    0  502 -0.71185333859E+02  0.87516616309E+02  0.22169072672E+03  0.30298892422E+03  0.17300000000E+03 0. -1.
<mgrwt>
<rscale>  2 0.20653210E+03</rscale>
<asrwt>0</asrwt>
<pdfrwt beam="1">  1       21 0.45191507E-01 0.20653210E+03</pdfrwt>
<pdfrwt beam="2">  1       21 0.58493740E-01 0.20653210E+03</pdfrwt>
<totfact> 0.12737423E+04</totfact>
</mgrwt>
</event>
<event>
 4    1  0.4439578E+000  0.1829261E+03  0.7546771E-02  0.1165001E+00
         21   -1    0    0  503  502  0.00000000000E+00  0.00000000000E+00  0.62562478986E+03  0.62562478986E+03  0.00000000000E+00 0.  1.
         21   -1    0    0  501  503 -0.00000000000E+00 -0.00000000000E+00 -0.77890416279E+02  0.77890416279E+02  0.00000000000E+00 0.  1.
          6    1    1    2  501    0 -0.37336349511E+02 -0.46248700248E+02  0.76970298015E+02  0.19846000112E+03  0.17300000000E+03 0.  1.
         -6    1    1    2    0  502  0.37336349511E+02  0.46248700248E+02  0.47076407556E+03  0.50505520501E+03  0.17300000000E+03 0.  1.
<mgrwt>
<rscale>  2 0.18292607E+03</rscale>
<asrwt>0</asrwt>
<pdfrwt beam="1">  1       21 0.96249964E-01 0.18292607E+03</pdfrwt>
<pdfrwt beam="2">  1       21 0.11983141E-01 0.18292607E+03</pdfrwt>
<totfact> 0.53102549E+04</totfact>
</mgrwt>
</event>
<event>
 4    1  0.4439578E+000  0.2447087E+03  0.7546771E-02  0.1116695E+00
         21   -1    0    0  503  502  0.00000000000E+00  0.00000000000E+00  0.18338269713E+03  0.18338269713E+03  0.00000000000E+00 0.  1.
         21   -1    0    0  501  503 -0.00000000000E+00 -0.00000000000E+00 -0.32667532188E+03  0.32667532188E+03  0.00000000000E+00 0. -1.
          6    1    1    2  501    0  0.13331460636E+03 -0.11036556744E+03 -0.66514302272E+02  0.25358725353E+03  0.17300000000E+03 0. -1.
         -6    1    1    2    0  502 -0.13331460636E+03  0.11036556744E+03 -0.76778322474E+02  0.25647076548E+03  0.17300000000E+03 0.  1.
<mgrwt>
<rscale>  2 0.24470869E+03</rscale>
<asrwt>0</asrwt>
<pdfrwt beam="1">  1       21 0.28212723E-01 0.24470869E+03</pdfrwt>
<pdfrwt beam="2">  1       21 0.50257741E-01 0.24470869E+03</pdfrwt>
<totfact> 0.44182350E+04</totfact>
</mgrwt>
</event>
<event>
 4    1  0.4439578E+000  0.1754505E+03  0.7546771E-02  0.1172280E+00
         21   -1    0    0  503  502  0.00000000000E+00  0.00000000000E+00  0.67286236307E+02  0.67286236307E+02  0.00000000000E+00 0.  1.
         21   -1    0    0  501  503 -0.00000000000E+00 -0.00000000000E+00 -0.46230510784E+03  0.46230510784E+03  0.00000000000E+00 0.  1.
          6    1    1    2  501    0  0.21947213329E+02 -0.19292805931E+02 -0.22452874712E+03  0.28494920743E+03  0.17300000000E+03 0.  1.
         -6    1    1    2    0  502 -0.21947213329E+02  0.19292805931E+02 -0.17049012441E+03  0.24464213671E+03  0.17300000000E+03 0.  1.
<mgrwt>
<rscale>  2 0.17545054E+03</rscale>
<asrwt>0</asrwt>
<pdfrwt beam="1">  1       21 0.10351729E-01 0.17545054E+03</pdfrwt>
<pdfrwt beam="2">  1       21 0.71123864E-01 0.17545054E+03</pdfrwt>
<totfact> 0.13737579E+05</totfact>
</mgrwt>
</event>
<event>
 4    1  0.4439578E+000  0.2166441E+03  0.7546771E-02  0.1136410E+00
         21   -1    0    0  503  502  0.00000000000E+00  0.00000000000E+00  0.12537399407E+03  0.12537399407E+03  0.00000000000E+00 0.  1.
         21   -1    0    0  501  503 -0.00000000000E+00 -0.00000000000E+00 -0.51504607409E+03  0.51504607409E+03  0.00000000000E+00 0. -1.
          6    1    1    2  501    0  0.28994723596E+02 -0.12714156455E+03 -0.36219216064E+03  0.42204008419E+03  0.17300000000E+03 0. -1.
         -6    1    1    2    0  502 -0.28994723596E+02  0.12714156455E+03 -0.27479919378E+02  0.21837998397E+03  0.17300000000E+03 0.  1.
<mgrwt>
<rscale>  2 0.21664411E+03</rscale>
<asrwt>0</asrwt>
<pdfrwt beam="1">  1       21 0.19288307E-01 0.21664411E+03</pdfrwt>
<pdfrwt beam="2">  1       21 0.79237855E-01 0.21664411E+03</pdfrwt>
<totfact> 0.34268952E+04</totfact>
</mgrwt>
</event>
<event>
 4    1  0.4439578E+000  0.2040023E+03  0.7546771E-02  0.1146406E+00
         21   -1    0    0  503  502  0.00000000000E+00  0.00000000000E+00  0.19928620081E+03  0.19928620081E+03  0.00000000000E+00 0. -1.
         21   -1    0    0  501  503 -0.00000000000E+00 -0.00000000000E+00 -0.21476831672E+03  0.21476831672E+03  0.00000000000E+00 0. -1.
          6    1    1    2  501    0  0.89699223967E+02  0.60348978982E+02 -0.42165885084E+02  0.20831445439E+03  0.17300000000E+03 0. -1.
         -6    1    1    2    0  502 -0.89699223967E+02 -0.60348978982E+02  0.26683769172E+02  0.20574006314E+03  0.17300000000E+03 0. -1.
<mgrwt>
<rscale>  2 0.20400233E+03</rscale>
<asrwt>0</asrwt>
<pdfrwt beam="1">  1       21 0.30659416E-01 0.20400233E+03</pdfrwt>
<pdfrwt beam="2">  1       21 0.33041279E-01 0.20400233E+03</pdfrwt>
<totfact> 0.89647652E+04</totfact>
</mgrwt>
</event>
<event>
 4    1  0.4439578E+000  0.1990645E+03  0.7546771E-02  0.1150531E+00
         21   -1    0    0  503  502  0.00000000000E+00  0.00000000000E+00  0.20870203348E+03  0.20870203348E+03  0.00000000000E+00 0. -1.
         21   -1    0    0  501  503 -0.00000000000E+00 -0.00000000000E+00 -0.21480773784E+03  0.21480773784E+03  0.00000000000E+00 0.  1.
          6    1    1    2  501    0  0.85962697449E+02 -0.48042424312E+02 -0.75200157756E+02  0.21279502723E+03  0.17300000000E+03 0.  1.
         -6    1    1    2    0  502 -0.85962697449E+02  0.48042424312E+02  0.69094453396E+02  0.21071474409E+03  0.17300000000E+03 0. -1.
<mgrwt>
<rscale>  2 0.19906446E+03</rscale>
<asrwt>0</asrwt>
<pdfrwt beam="1">  1       21 0.32108005E-01 0.19906446E+03</pdfrwt>
<pdfrwt beam="2">  1       21 0.33047344E-01 0.19906446E+03</pdfrwt>
<totfact> 0.82028770E+04</totfact>
</mgrwt>
</event>
<event>
 4    1  0.4439578E+000  0.2007835E+03  0.7546771E-02  0.1149080E+00
         21   -1    0    0  501  502  0.00000000000E+00  0.00000000000E+00  0.22912239755E+04  0.22912239755E+04  0.00000000000E+00 0.  1.
         21   -1    0    0  502  503 -0.00000000000E+00 -0.00000000000E+00 -0.24902724947E+02  0.24902724947E+02  0.00000000000E+00 0.  1.
          6    1    1    2  501    0  0.69389996527E+02  0.74632822815E+02  0.17604973384E+04  0.17719099606E+04  0.17300000000E+03 0.  1.
         -6    1    1    2    0  503 -0.69389996527E+02 -0.74632822815E+02  0.50582391221E+03  0.54421673994E+03  0.17300000000E+03 0.  1.
<mgrwt>
<rscale>  2 0.20078354E+03</rscale>
<asrwt>0</asrwt>
<pdfrwt beam="1">  1       21 0.35249583E+00 0.20078354E+03</pdfrwt>
<pdfrwt beam="2">  1       21 0.38311903E-02 0.20078354E+03</pdfrwt>
<totfact> 0.70496819E+03</totfact>
</mgrwt>
</event>
<event>
 4    1  0.4439578E+000  0.1832243E+03  0.7546771E-02  0.1164719E+00
         21   -1    0    0  503  502  0.00000000000E+00  0.00000000000E+00  0.53405258705E+02  0.53405258705E+02  0.00000000000E+00 0. -1.
         21   -1    0    0  501  503 -0.00000000000E+00 -0.00000000000E+00 -0.10506141512E+04  0.10506141512E+04  0.00000000000E+00 0. -1.
          6    1    1    2  501    0  0.33231496260E+02 -0.50376733420E+02 -0.84845518638E+03  0.86801345088E+03  0.17300000000E+03 0. -1.
         -6    1    1    2    0  502 -0.33231496260E+02  0.50376733420E+02 -0.14875370612E+03  0.23600595903E+03  0.17300000000E+03 0. -1.
<mgrwt>
<rscale>  2 0.18322431E+03</rscale>
<asrwt>0</asrwt>
<pdfrwt beam="1">  1       21 0.82161946E-02 0.18322431E+03</pdfrwt>
<pdfrwt beam="2">  1       21 0.16163293E+00 0.18322431E+03</pdfrwt>
<totfact> 0.28225013E+04</totfact>
</mgrwt>
</event>
<event>
 4    1  0.4439578E+000  0.3490952E+03  0.7546771E-02  0.1062987E+00
         21   -1    0    0  501  502  0.00000000000E+00  0.00000000000E+00  0.43363742150E+03  0.43363742150E+03  0.00000000000E+00 0.  1.
         21   -1    0    0  502  503 -0.00000000000E+00 -0.00000000000E+00 -0.60295260477E+03  0.60295260477E+03  0.00000000000E+00 0.  1.
          6    1    1    2  501    0 -0.30237853266E+03 -0.22486754000E+02  0.29405312167E+03  0.45643692826E+03  0.17300000000E+03 0.  1.
         -6    1    1    2    0  503  0.30237853266E+03  0.22486754000E+02 -0.46336830493E+03  0.58015309801E+03  0.17300000000E+03 0.  1.
<mgrwt>
<rscale>  2 0.34909516E+03</rscale>
<asrwt>0</asrwt>
<pdfrwt beam="1">  1       21 0.66713449E-01 0.34909516E+03</pdfrwt>
<pdfrwt beam="2">  1       21 0.92761939E-01 0.34909516E+03</pdfrwt>
<totfact> 0.18136389E+03</totfact>
</mgrwt>
</event>
<event>
 4    1  0.4439578E+000  0.2557160E+03  0.7546771E-02  0.1109745E+00
         21   -1    0    0  501  502  0.00000000000E+00  0.00000000000E+00  0.19751833854E+03  0.19751833854E+03  0.00000000000E+00 0.  1.
         21   -1    0    0  502  503 -0.00000000000E+00 -0.00000000000E+00 -0.42497637433E+03  0.42497637433E+03  0.00000000000E+00 0. -1.
          6    1    1    2  501    0  0.10967587079E+03  0.15307801012E+03  0.32586698955E+02  0.25778395366E+03  0.17300000000E+03 0.  1.
         -6    1    1    2    0  503 -0.10967587079E+03 -0.15307801012E+03 -0.26004473474E+03  0.36471075921E+03  0.17300000000E+03 0. -1.
<mgrwt>
<rscale>  2 0.25571600E+03</rscale>
<asrwt>0</asrwt>
<pdfrwt beam="1">  1       21 0.30387437E-01 0.25571600E+03</pdfrwt>
<pdfrwt beam="2">  1       21 0.65380981E-01 0.25571600E+03</pdfrwt>
<totfact> 0.21626103E+04</totfact>
</mgrwt>
</event>
<event>
 4    1  0.4439578E+000  0.2499461E+03  0.7546771E-02  0.1113339E+00
         21   -1    0    0  501  502  0.00000000000E+00  0.00000000000E+00  0.24547655707E+04  0.24547655707E+04  0.00000000000E+00 0.  1.
         21   -1    0    0  502  503 -0.00000000000E+00 -0.00000000000E+00 -0.25636624884E+02  0.25636624884E+02  0.00000000000E+00 0.  1.
          6    1    1    2  501    0  0.53623847984E+02  0.17224561989E+03  0.11086673354E+04  0.11364929966E+04  0.17300000000E+03 0.  1.
         -6    1    1    2    0  503 -0.53623847984E+02 -0.17224561989E+03  0.13204616104E+04  0.13439091990E+04  0.17300000000E+03 0.  1.
<mgrwt>
<rscale>  2 0.24994614E+03</rscale>
<asrwt>0</asrwt>
<pdfrwt beam="1">  1       21 0.37765606E+00 0.24994614E+03</pdfrwt>
<pdfrwt beam="2">  1       21 0.39440981E-02 0.24994614E+03</pdfrwt>
<totfact> 0.44827975E+03</totfact>
</mgrwt>
</event>
<event>
 4    1  0.4439578E+000  0.2384416E+03  0.7546771E-02  0.1120835E+00
         21   -1    0    0  503  502  0.00000000000E+00  0.00000000000E+00  0.91059039902E+02  0.91059039902E+02  0.00000000000E+00 0. -1.
         21   -1    0    0  501  503 -0.00000000000E+00 -0.00000000000E+00 -0.69055853667E+03  0.69055853667E+03  0.00000000000E+00 0.  1.
          6    1    1    2  501    0  0.12156037099E+03 -0.11022011843E+03 -0.42074276526E+03  0.48361024888E+03  0.17300000000E+03 0.  1.
         -6    1    1    2    0  502 -0.12156037099E+03  0.11022011843E+03 -0.17875673151E+03  0.29800732769E+03  0.17300000000E+03 0. -1.
<mgrwt>
<rscale>  2 0.23844160E+03</rscale>
<asrwt>0</asrwt>
<pdfrwt beam="1">  1       21 0.14009083E-01 0.23844160E+03</pdfrwt>
<pdfrwt beam="2">  1       21 0.10623978E+00 0.23844160E+03</pdfrwt>
<totfact> 0.30779474E+04</totfact>
</mgrwt>
</event>
<event>
 4    1  0.4439578E+000  0.1928475E+03  0.7546771E-02  0.1155918E+00
         21   -1    0    0  503  502  0.00000000000E+00  0.00000000000E+00  0.30656818215E+03  0.30656818215E+03  0.00000000000E+00 0. -1.
         21   -1    0    0  501  503 -0.00000000000E+00 -0.00000000000E+00 -0.18906186414E+03  0.18906186414E+03  0.00000000000E+00 0. -1.
          6    1    1    2  501    0  0.15917920911E+02 -0.83712496254E+02 -0.89595066533E+02  0.21264392345E+03  0.17300000000E+03 0. -1.
         -6    1    1    2    0  502 -0.15917920911E+02  0.83712496254E+02  0.20710138454E+03  0.28298612283E+03  0.17300000000E+03 0. -1.
<mgrwt>
<rscale>  2 0.19284751E+03</rscale>
<asrwt>0</asrwt>
<pdfrwt beam="1">  1       21 0.47164336E-01 0.19284751E+03</pdfrwt>
<pdfrwt beam="2">  1       21 0.29086441E-01 0.19284751E+03</pdfrwt>
<totfact> 0.48678910E+04</totfact>
</mgrwt>
</event>
<event>
 4    1  0.4439578E+000  0.3210239E+03  0.7546771E-02  0.1075179E+00
         21   -1    0    0  503  502  0.00000000000E+00  0.00000000000E+00  0.13797633767E+03  0.13797633767E+03  0.00000000000E+00 0.  1.
         21   -1    0    0  501  503 -0.00000000000E+00 -0.00000000000E+00 -0.13217042539E+04  0.13217042539E+04  0.00000000000E+00 0. -1.
          6    1    1    2  501    0 -0.10749821743E+03  0.24813604559E+03 -0.10731637239E+04  0.11201503212E+04  0.17300000000E+03 0. -1.
         -6    1    1    2    0  502  0.10749821743E+03 -0.24813604559E+03 -0.11056419240E+03  0.33953027039E+03  0.17300000000E+03 0.  1.
<mgrwt>
<rscale>  2 0.32102393E+03</rscale>
<asrwt>0</asrwt>
<pdfrwt beam="1">  1       21 0.21227129E-01 0.32102393E+03</pdfrwt>
<pdfrwt beam="2">  1       21 0.20333912E+00 0.32102393E+03</pdfrwt>
<totfact> 0.23848733E+03</totfact>
</mgrwt>
</event>
<event>
 4    1  0.4439578E+000  0.1960507E+03  0.7546771E-02  0.1153114E+00
         21   -1    0    0  501  502  0.00000000000E+00  0.00000000000E+00  0.88539115867E+02  0.88539115867E+02  0.00000000000E+00 0.  1.
         21   -1    0    0  502  503 -0.00000000000E+00 -0.00000000000E+00 -0.45649286784E+03  0.45649286784E+03  0.00000000000E+00 0.  1.
          6    1    1    2  501    0 -0.57083618081E+01 -0.92055839968E+02 -0.12363529296E+03  0.23177909468E+03  0.17300000000E+03 0.  1.
         -6    1    1    2    0  503  0.57083618081E+01  0.92055839968E+02 -0.24431845902E+03  0.31325288902E+03  0.17300000000E+03 0.  1.
<mgrwt>
<rscale>  2 0.19605066E+03</rscale>
<asrwt>0</asrwt>
<pdfrwt beam="1">  1       21 0.13621402E-01 0.19605066E+03</pdfrwt>
<pdfrwt beam="2">  1       21 0.70229673E-01 0.19605066E+03</pdfrwt>
<totfact> 0.85830760E+04</totfact>
</mgrwt>
</event>
<event>
 4    1  0.4439578E+000  0.1897212E+03  0.7546771E-02  0.1158713E+00
         21   -1    0    0  501  502  0.00000000000E+00  0.00000000000E+00  0.40334542451E+03  0.40334542451E+03  0.00000000000E+00 0. -1.
         21   -1    0    0  502  503 -0.00000000000E+00 -0.00000000000E+00 -0.20863637933E+03  0.20863637933E+03  0.00000000000E+00 0.  1.
          6    1    1    2  501    0 -0.69923896760E+02 -0.34289548734E+02  0.32883318959E+03  0.37963850051E+03  0.17300000000E+03 0. -1.
         -6    1    1    2    0  503  0.69923896760E+02  0.34289548734E+02 -0.13412414441E+03  0.23234330333E+03  0.17300000000E+03 0.  1.
<mgrwt>
<rscale>  2 0.18972118E+03</rscale>
<asrwt>0</asrwt>
<pdfrwt beam="1">  1       21 0.62053142E-01 0.18972118E+03</pdfrwt>
<pdfrwt beam="2">  1       21 0.32097905E-01 0.18972118E+03</pdfrwt>
<totfact> 0.22539582E+04</totfact>
</mgrwt>
</event>
<event>
 4    1  0.4439578E+000  0.2208579E+03  0.7546771E-02  0.1133245E+00
         21   -1    0    0  503  502  0.00000000000E+00  0.00000000000E+00  0.11208477062E+03  0.11208477062E+03  0.00000000000E+00 0.  1.
         21   -1    0    0  501  503 -0.00000000000E+00 -0.00000000000E+00 -0.43648505332E+03  0.43648505332E+03  0.00000000000E+00 0. -1.
          6    1    1    2  501    0  0.87802975583E+02 -0.10554549852E+03 -0.17713826466E+03  0.28311866697E+03  0.17300000000E+03 0. -1.
         -6    1    1    2    0  502 -0.87802975583E+02  0.10554549852E+03 -0.14726201804E+03  0.26545115697E+03  0.17300000000E+03 0.  1.
<mgrwt>
<rscale>  2 0.22085791E+03</rscale>
<asrwt>0</asrwt>
<pdfrwt beam="1">  1       21 0.17243811E-01 0.22085791E+03</pdfrwt>
<pdfrwt beam="2">  1       21 0.67151547E-01 0.22085791E+03</pdfrwt>
<totfact> 0.60901616E+04</totfact>
</mgrwt>
</event>
<event>
 4    1  0.4439578E+000  0.1859115E+03  0.7546771E-02  0.1162201E+00
         21   -1    0    0  503  502  0.00000000000E+00  0.00000000000E+00  0.11630188805E+02  0.11630188805E+02  0.00000000000E+00 0. -1.
         21   -1    0    0  501  503 -0.00000000000E+00 -0.00000000000E+00 -0.29719914139E+04  0.29719914139E+04  0.00000000000E+00 0. -1.
          6    1    1    2  501    0 -0.67755649173E+02 -0.65780082008E+01 -0.14696476664E+04  0.14813599703E+04  0.17300000000E+03 0. -1.
         -6    1    1    2    0  502  0.67755649173E+02  0.65780082008E+01 -0.14907135587E+04  0.15022616324E+04  0.17300000000E+03 0. -1.
<mgrwt>
<rscale>  2 0.18591153E+03</rscale>
<asrwt>0</asrwt>
<pdfrwt beam="1">  1       21 0.17892585E-02 0.18591153E+03</pdfrwt>
<pdfrwt beam="2">  1       21 0.45722979E+00 0.18591153E+03</pdfrwt>
<totfact> 0.55469695E+03</totfact>
</mgrwt>
</event>
<event>
 4    1  0.4439578E+000  0.4350214E+03  0.7546771E-02  0.1032285E+00
         21   -1    0    0  501  502  0.00000000000E+00  0.00000000000E+00  0.14579708349E+04  0.14579708349E+04  0.00000000000E+00 0. -1.
         21   -1    0    0  502  503 -0.00000000000E+00 -0.00000000000E+00 -0.31834192136E+03  0.31834192136E+03  0.00000000000E+00 0.  1.
          6    1    1    2  501    0  0.33781578359E+03  0.21259135343E+03  0.12533282736E+04  0.13266783139E+04  0.17300000000E+03 0. -1.
         -6    1    1    2    0  503 -0.33781578359E+03 -0.21259135343E+03 -0.11369936012E+03  0.44963444229E+03  0.17300000000E+03 0.  1.
<mgrwt>
<rscale>  2 0.43502136E+03</rscale>
<asrwt>0</asrwt>
<pdfrwt beam="1">  1       21 0.22430320E+00 0.43502136E+03</pdfrwt>
<pdfrwt beam="2">  1       21 0.48975681E-01 0.43502136E+03</pdfrwt>
<totfact> 0.30743833E+02</totfact>
</mgrwt>
</event>
<event>
 4    1  0.4439578E+000  0.1834845E+03  0.7546771E-02  0.1164473E+00
         21   -1    0    0  501  502  0.00000000000E+00  0.00000000000E+00  0.11299727869E+03  0.11299727869E+03  0.00000000000E+00 0.  1.
         21   -1    0    0  502  503 -0.00000000000E+00 -0.00000000000E+00 -0.56211539127E+03  0.56211539127E+03  0.00000000000E+00 0.  1.
          6    1    1    2  501    0  0.92339573908E+01  0.60434304409E+02  0.68490276387E+01  0.18361230977E+03  0.17300000000E+03 0.  1.
         -6    1    1    2    0  503 -0.92339573908E+01 -0.60434304409E+02 -0.45596714021E+03  0.49150036019E+03  0.17300000000E+03 0.  1.
<mgrwt>
<rscale>  2 0.18348453E+03</rscale>
<asrwt>0</asrwt>
<pdfrwt beam="1">  1       21 0.17384197E-01 0.18348453E+03</pdfrwt>
<pdfrwt beam="2">  1       21 0.86479291E-01 0.18348453E+03</pdfrwt>
<totfact> 0.34652993E+04</totfact>
</mgrwt>
</event>
<event>
 4    1  0.4439578E+000  0.1809770E+03  0.7546771E-02  0.1166861E+00
         21   -1    0    0  501  502  0.00000000000E+00  0.00000000000E+00  0.79097814083E+02  0.79097814083E+02  0.00000000000E+00 0.  1.
         21   -1    0    0  502  503 -0.00000000000E+00 -0.00000000000E+00 -0.72508522486E+03  0.72508522486E+03  0.00000000000E+00 0.  1.
          6    1    1    2  501    0 -0.49226082690E+02  0.20011678037E+02 -0.59654489507E+02  0.19055532686E+03  0.17300000000E+03 0.  1.
         -6    1    1    2    0  503  0.49226082690E+02 -0.20011678037E+02 -0.58633292127E+03  0.61362771208E+03  0.17300000000E+03 0.  1.
<mgrwt>
<rscale>  2 0.18097700E+03</rscale>
<asrwt>0</asrwt>
<pdfrwt beam="1">  1       21 0.12168895E-01 0.18097700E+03</pdfrwt>
<pdfrwt beam="2">  1       21 0.11155157E+00 0.18097700E+03</pdfrwt>
<totfact> 0.36364471E+04</totfact>
</mgrwt>
</event>
<event>
 4    1  0.4439578E+000  0.2080528E+03  0.7546771E-02  0.1143117E+00
         21   -1    0    0  501  502  0.00000000000E+00  0.00000000000E+00  0.46333939990E+02  0.46333939990E+02  0.00000000000E+00 0. -1.
         21   -1    0    0  502  503 -0.00000000000E+00 -0.00000000000E+00 -0.94219692255E+03  0.94219692255E+03  0.00000000000E+00 0. -1.
          6    1    1    2  501    0 -0.91606746549E+02  0.70464034212E+02 -0.49341730634E+03  0.53548726813E+03  0.17300000000E+03 0. -1.
         -6    1    1    2    0  503  0.91606746549E+02 -0.70464034212E+02 -0.40244567622E+03  0.45304359441E+03  0.17300000000E+03 0. -1.
<mgrwt>
<rscale>  2 0.20805282E+03</rscale>
<asrwt>0</asrwt>
<pdfrwt beam="1">  1       21 0.71282990E-02 0.20805282E+03</pdfrwt>
<pdfrwt beam="2">  1       21 0.14495336E+00 0.20805282E+03</pdfrwt>
<totfact> 0.47513247E+04</totfact>
</mgrwt>
</event>
<event>
 4    1  0.4439578E+000  0.1845837E+03  0.7546771E-02  0.1163439E+00
         21   -1    0    0  503  502  0.00000000000E+00  0.00000000000E+00  0.76736273968E+02  0.76736273968E+02  0.00000000000E+00 0.  1.
         21   -1    0    0  501  503 -0.00000000000E+00 -0.00000000000E+00 -0.20989074963E+04  0.20989074963E+04  0.00000000000E+00 0.  1.
          6    1    1    2  501    0  0.63612041225E+02 -0.97794641276E+01 -0.19770199845E+04  0.19856180773E+04  0.17300000000E+03 0.  1.
         -6    1    1    2    0  502 -0.63612041225E+02  0.97794641276E+01 -0.45151237795E+02  0.19002569295E+03  0.17300000000E+03 0.  1.
<mgrwt>
<rscale>  2 0.18458367E+03</rscale>
<asrwt>0</asrwt>
<pdfrwt beam="1">  1       21 0.11805581E-01 0.18458367E+03</pdfrwt>
<pdfrwt beam="2">  1       21 0.32290883E+00 0.18458367E+03</pdfrwt>
<totfact> 0.15384005E+03</totfact>
</mgrwt>
</event>
<event>
 4    1  0.4439578E+000  0.1965318E+03  0.7546771E-02  0.1152699E+00
         21   -1    0    0  503  502  0.00000000000E+00  0.00000000000E+00  0.36532193823E+03  0.36532193823E+03  0.00000000000E+00 0. -1.
         21   -1    0    0  501  503 -0.00000000000E+00 -0.00000000000E+00 -0.14211045787E+03  0.14211045787E+03  0.00000000000E+00 0. -1.
          6    1    1    2  501    0  0.49699435435E+02 -0.78903203763E+02 -0.16769518251E+02  0.19724595354E+03  0.17300000000E+03 0. -1.
         -6    1    1    2    0  502 -0.49699435435E+02  0.78903203763E+02  0.23998099862E+03  0.31018644256E+03  0.17300000000E+03 0. -1.
<mgrwt>
<rscale>  2 0.19653180E+03</rscale>
<asrwt>0</asrwt>
<pdfrwt beam="1">  1       21 0.56203375E-01 0.19653180E+03</pdfrwt>
<pdfrwt beam="2">  1       21 0.21863147E-01 0.19653180E+03</pdfrwt>
<totfact> 0.58085813E+04</totfact>
</mgrwt>
</event>
<event>
 4    1  0.4439578E+000  0.1945684E+03  0.7546771E-02  0.1154404E+00
         21   -1    0    0  503  502  0.00000000000E+00  0.00000000000E+00  0.53532357115E+03  0.53532357115E+03  0.00000000000E+00 0.  1.
         21   -1    0    0  501  503 -0.00000000000E+00 -0.00000000000E+00 -0.13363789805E+03  0.13363789805E+03  0.00000000000E+00 0.  1.
          6    1    1    2  501    0 -0.33393383684E+02  0.82539455445E+02 -0.28666918686E+02  0.19666894011E+03  0.17300000000E+03 0.  1.
         -6    1    1    2    0  502  0.33393383684E+02 -0.82539455445E+02  0.43035259178E+03  0.47229252909E+03  0.17300000000E+03 0.  1.
<mgrwt>
<rscale>  2 0.19456844E+03</rscale>
<asrwt>0</asrwt>
<pdfrwt beam="1">  1       21 0.82357471E-01 0.19456844E+03</pdfrwt>
<pdfrwt beam="2">  1       21 0.20559677E-01 0.19456844E+03</pdfrwt>
<totfact> 0.28199969E+04</totfact>
</mgrwt>
</event>
<event>
 4    1  0.4439578E+000  0.2195063E+03  0.7546771E-02  0.1134252E+00
         21   -1    0    0  503  502  0.00000000000E+00  0.00000000000E+00  0.61637642636E+02  0.61637642636E+02  0.00000000000E+00 0.  1.
         21   -1    0    0  501  503 -0.00000000000E+00 -0.00000000000E+00 -0.10435554149E+04  0.10435554149E+04  0.00000000000E+00 0.  1.
          6    1    1    2  501    0 -0.77176973639E+02 -0.11089520040E+03 -0.76776090966E+03  0.79852354075E+03  0.17300000000E+03 0.  1.
         -6    1    1    2    0  502  0.77176973639E+02  0.11089520040E+03 -0.21415686265E+03  0.30666951683E+03  0.17300000000E+03 0.  1.
<mgrwt>
<rscale>  2 0.21950633E+03</rscale>
<asrwt>0</asrwt>
<pdfrwt beam="1">  1       21 0.94827144E-02 0.21950633E+03</pdfrwt>
<pdfrwt beam="2">  1       21 0.16054698E+00 0.21950633E+03</pdfrwt>
<totfact> 0.21834057E+04</totfact>
</mgrwt>
</event>
<event>
 4    1  0.4439578E+000  0.1940138E+03  0.7546771E-02  0.1154890E+00
         21   -1    0    0  501  502  0.00000000000E+00  0.00000000000E+00  0.81915104401E+03  0.81915104401E+03  0.00000000000E+00 0. -1.
         21   -1    0    0  502  503 -0.00000000000E+00 -0.00000000000E+00 -0.67601717108E+02  0.67601717108E+02  0.00000000000E+00 0. -1.
          6    1    1    2  501    0  0.58584575428E+02 -0.65423140221E+02  0.12486156011E+03  0.23072006620E+03  0.17300000000E+03 0. -1.
         -6    1    1    2    0  503 -0.58584575428E+02  0.65423140221E+02  0.62668776679E+03  0.65603269491E+03  0.17300000000E+03 0. -1.
<mgrwt>
<rscale>  2 0.19401376E+03</rscale>
<asrwt>0</asrwt>
<pdfrwt beam="1">  1       21 0.12602323E+00 0.19401376E+03</pdfrwt>
<pdfrwt beam="2">  1       21 0.10400265E-01 0.19401376E+03</pdfrwt>
<totfact> 0.35355905E+04</totfact>
</mgrwt>
</event>
<event>
 4    1  0.4439578E+000  0.2024347E+03  0.7546771E-02  0.1147701E+00
         21   -1    0    0  503  502  0.00000000000E+00  0.00000000000E+00  0.21834399172E+04  0.21834399172E+04  0.00000000000E+00 0. -1.
         21   -1    0    0  501  503 -0.00000000000E+00 -0.00000000000E+00 -0.36316337060E+02  0.36316337060E+02  0.00000000000E+00 0.  1.
          6    1    1    2  501    0 -0.88063832991E+02  0.57406944324E+02  0.30206057390E+03  0.36362121259E+03  0.17300000000E+03 0.  1.
         -6    1    1    2    0  502  0.88063832991E+02 -0.57406944324E+02  0.18450630062E+04  0.18561350417E+04  0.17300000000E+03 0. -1.
<mgrwt>
<rscale>  2 0.20243467E+03</rscale>
<asrwt>0</asrwt>
<pdfrwt beam="1">  1       21 0.33591373E+00 0.20243467E+03</pdfrwt>
<pdfrwt beam="2">  1       21 0.55871305E-02 0.20243467E+03</pdfrwt>
<totfact> 0.46553713E+03</totfact>
</mgrwt>
</event>
<event>
 4    1  0.4439578E+000  0.2625276E+03  0.7546771E-02  0.1105634E+00
         21   -1    0    0  503  502  0.00000000000E+00  0.00000000000E+00  0.19255217945E+03  0.19255217945E+03  0.00000000000E+00 0. -1.
         21   -1    0    0  501  503 -0.00000000000E+00 -0.00000000000E+00 -0.36299628728E+03  0.36299628728E+03  0.00000000000E+00 0.  1.
          6    1    1    2  501    0 -0.18514167710E+03 -0.68660673457E+02 -0.11802919700E+03  0.28783957342E+03  0.17300000000E+03 0. -1.
         -6    1    1    2    0  502  0.18514167710E+03  0.68660673457E+02 -0.52414910825E+02  0.26770889331E+03  0.17300000000E+03 0. -1.
<mgrwt>
<rscale>  2 0.26252758E+03</rscale>
<asrwt>0</asrwt>
<pdfrwt beam="1">  1       21 0.29623413E-01 0.26252758E+03</pdfrwt>
<pdfrwt beam="2">  1       21 0.55845582E-01 0.26252758E+03</pdfrwt>
<totfact> 0.31891106E+04</totfact>
</mgrwt>
</event>
<event>
 4    1  0.4439578E+000  0.1785124E+03  0.7546771E-02  0.1169251E+00
         21   -1    0    0  501  502  0.00000000000E+00  0.00000000000E+00  0.14713384118E+03  0.14713384118E+03  0.00000000000E+00 0.  1.
         21   -1    0    0  502  503 -0.00000000000E+00 -0.00000000000E+00 -0.59458394789E+03  0.59458394789E+03  0.00000000000E+00 0.  1.
          6    1    1    2  501    0  0.40651026724E+02 -0.16886523510E+02  0.71973134708E+02  0.19247543420E+03  0.17300000000E+03 0.  1.
         -6    1    1    2    0  503 -0.40651026724E+02  0.16886523510E+02 -0.51942324142E+03  0.54924235487E+03  0.17300000000E+03 0.  1.
<mgrwt>
<rscale>  2 0.17851235E+03</rscale>
<asrwt>0</asrwt>
<pdfrwt beam="1">  1       21 0.22635976E-01 0.17851235E+03</pdfrwt>
<pdfrwt beam="2">  1       21 0.91474454E-01 0.17851235E+03</pdfrwt>
<totfact> 0.18670987E+04</totfact>
</mgrwt>
</event>
<event>
 4    1  0.4439578E+000  0.1859986E+03  0.7546771E-02  0.1162121E+00
         21   -1    0    0  501  502  0.00000000000E+00  0.00000000000E+00  0.18349170659E+03  0.18349170659E+03  0.00000000000E+00 0. -1.
         21   -1    0    0  502  503 -0.00000000000E+00 -0.00000000000E+00 -0.99674521575E+03  0.99674521575E+03  0.00000000000E+00 0. -1.
          6    1    1    2  501    0  0.51295166238E+02  0.45113943036E+02  0.12475671497E+03  0.22396361282E+03  0.17300000000E+03 0. -1.
         -6    1    1    2    0  503 -0.51295166238E+02 -0.45113943036E+02 -0.93801022413E+03  0.95627330952E+03  0.17300000000E+03 0. -1.
<mgrwt>
<rscale>  2 0.18599855E+03</rscale>
<asrwt>0</asrwt>
<pdfrwt beam="1">  1       21 0.28229493E-01 0.18599855E+03</pdfrwt>
<pdfrwt beam="2">  1       21 0.15334542E+00 0.18599855E+03</pdfrwt>
<totfact> 0.34022751E+03</totfact>
</mgrwt>
</event>
<event>
 4    1  0.4439578E+000  0.2729398E+03  0.7546771E-02  0.1099609E+00
         21   -1    0    0  501  502  0.00000000000E+00  0.00000000000E+00  0.27411542226E+03  0.27411542226E+03  0.00000000000E+00 0. -1.
         21   -1    0    0  502  503 -0.00000000000E+00 -0.00000000000E+00 -0.31514869238E+03  0.31514869238E+03  0.00000000000E+00 0. -1.
          6    1    1    2  501    0 -0.20387906358E+03 -0.54776390053E+02  0.88794534515E+02  0.28702019935E+03  0.17300000000E+03 0. -1.
         -6    1    1    2    0  503  0.20387906358E+03  0.54776390053E+02 -0.12982780463E+03  0.30224391529E+03  0.17300000000E+03 0. -1.
<mgrwt>
<rscale>  2 0.27293978E+03</rscale>
<asrwt>0</asrwt>
<pdfrwt beam="1">  1       21 0.42171603E-01 0.27293978E+03</pdfrwt>
<pdfrwt beam="2">  1       21 0.48484414E-01 0.27293978E+03</pdfrwt>
<totfact> 0.21093862E+04</totfact>
</mgrwt>
</event>
<event>
 4    1  0.4439578E+000  0.1769494E+03  0.7546771E-02  0.1170789E+00
         21   -1    0    0  503  502  0.00000000000E+00  0.00000000000E+00  0.39643481256E+02  0.39643481256E+02  0.00000000000E+00 0. -1.
         21   -1    0    0  501  503 -0.00000000000E+00 -0.00000000000E+00 -0.94598168521E+03  0.94598168521E+03  0.00000000000E+00 0. -1.
          6    1    1    2  501    0 -0.37157172145E+02  0.11938293060E+01 -0.65340058185E+03  0.67693677772E+03  0.17300000000E+03 0. -1.
         -6    1    1    2    0  502  0.37157172145E+02 -0.11938293060E+01 -0.25293762211E+03  0.30868838875E+03  0.17300000000E+03 0. -1.
<mgrwt>
<rscale>  2 0.17694937E+03</rscale>
<asrwt>0</asrwt>
<pdfrwt beam="1">  1       21 0.60989972E-02 0.17694937E+03</pdfrwt>
<pdfrwt beam="2">  1       21 0.14553564E+00 0.17694937E+03</pdfrwt>
<totfact> 0.62550822E+04</totfact>
</mgrwt>
</event>
<event>
 4    1  0.4439578E+000  0.2091395E+03  0.7546771E-02  0.1142249E+00
         21   -1    0    0  501  502  0.00000000000E+00  0.00000000000E+00  0.46852880695E+03  0.46852880695E+03  0.00000000000E+00 0. -1.
         21   -1    0    0  502  503 -0.00000000000E+00 -0.00000000000E+00 -0.11597051879E+03  0.11597051879E+03  0.00000000000E+00 0. -1.
          6    1    1    2  501    0 -0.98033648173E+02 -0.64805377480E+02  0.30533777533E+03  0.37009524473E+03  0.17300000000E+03 0. -1.
         -6    1    1    2    0  503  0.98033648173E+02  0.64805377480E+02  0.47220512821E+02  0.21440408101E+03  0.17300000000E+03 0. -1.
<mgrwt>
<rscale>  2 0.20913951E+03</rscale>
<asrwt>0</asrwt>
<pdfrwt beam="1">  1       21 0.72081354E-01 0.20913951E+03</pdfrwt>
<pdfrwt beam="2">  1       21 0.17841618E-01 0.20913951E+03</pdfrwt>
<totfact> 0.49160149E+04</totfact>
</mgrwt>
</event>
<event>
 4    1  0.4439578E+000  0.1931661E+03  0.7546771E-02  0.1155636E+00
         21   -1    0    0  501  502  0.00000000000E+00  0.00000000000E+00  0.13757927673E+04  0.13757927673E+04  0.00000000000E+00 0. -1.
         21   -1    0    0  502  503 -0.00000000000E+00 -0.00000000000E+00 -0.60800383668E+02  0.60800383668E+02  0.00000000000E+00 0. -1.
          6    1    1    2  501    0 -0.26332586639E+01  0.85890634172E+02  0.12289307331E+03  0.22894506450E+03  0.17300000000E+03 0. -1.
         -6    1    1    2    0  503  0.26332586639E+01 -0.85890634172E+02  0.11920993103E+04  0.12076480865E+04  0.17300000000E+03 0. -1.
<mgrwt>
<rscale>  2 0.19316608E+03</rscale>
<asrwt>0</asrwt>
<pdfrwt beam="1">  1       21 0.21166040E+00 0.19316608E+03</pdfrwt>
<pdfrwt beam="2">  1       21 0.93539062E-02 0.19316608E+03</pdfrwt>
<totfact> 0.10337916E+04</totfact>
</mgrwt>
</event>
<event>
 4    1  0.4439578E+000  0.2475209E+03  0.7546771E-02  0.1114882E+00
         21   -1    0    0  501  502  0.00000000000E+00  0.00000000000E+00  0.28287797243E+03  0.28287797243E+03  0.00000000000E+00 0.  1.
         21   -1    0    0  502  503 -0.00000000000E+00 -0.00000000000E+00 -0.55890702253E+03  0.55890702253E+03  0.00000000000E+00 0. -1.
          6    1    1    2  501    0 -0.72968678549E+02  0.16128603074E+03  0.19138272810E+03  0.31288010544E+03  0.17300000000E+03 0.  1.
         -6    1    1    2    0  503  0.72968678549E+02 -0.16128603074E+03 -0.46741177820E+03  0.52890488952E+03  0.17300000000E+03 0. -1.
<mgrwt>
<rscale>  2 0.24752093E+03</rscale>
<asrwt>0</asrwt>
<pdfrwt beam="1">  1       21 0.43519688E-01 0.24752093E+03</pdfrwt>
<pdfrwt beam="2">  1       21 0.85985696E-01 0.24752093E+03</pdfrwt>
<totfact> 0.57005709E+03</totfact>
</mgrwt>
</event>
<event>
 4    1  0.4439578E+000  0.1817074E+03  0.7546771E-02  0.1166161E+00
         21   -1    0    0  501  502  0.00000000000E+00  0.00000000000E+00  0.65046113125E+03  0.65046113125E+03  0.00000000000E+00 0.  1.
         21   -1    0    0  502  503 -0.00000000000E+00 -0.00000000000E+00 -0.29556330115E+03  0.29556330115E+03  0.00000000000E+00 0.  1.
          6    1    1    2  501    0  0.36321648405E+02  0.42063059291E+02  0.60793143865E+03  0.63450626254E+03  0.17300000000E+03 0.  1.
         -6    1    1    2    0  503 -0.36321648405E+02 -0.42063059291E+02 -0.25303360855E+03  0.31151816987E+03  0.17300000000E+03 0.  1.
<mgrwt>
<rscale>  2 0.18170736E+03</rscale>
<asrwt>0</asrwt>
<pdfrwt beam="1">  1       21 0.10007094E+00 0.18170736E+03</pdfrwt>
<pdfrwt beam="2">  1       21 0.45471277E-01 0.18170736E+03</pdfrwt>
<totfact> 0.38365831E+03</totfact>
</mgrwt>
</event>
<event>
 4    1  0.4439578E+000  0.1996904E+03  0.7546771E-02  0.1150000E+00
         21   -1    0    0  501  502  0.00000000000E+00  0.00000000000E+00  0.18889119740E+03  0.18889119740E+03  0.00000000000E+00 0.  1.
         21   -1    0    0  502  503 -0.00000000000E+00 -0.00000000000E+00 -0.79033004242E+03  0.79033004242E+03  0.00000000000E+00 0.  1.
          6    1    1    2  501    0  0.68544299763E+02 -0.72449583553E+02  0.11843058752E+03  0.23216818742E+03  0.17300000000E+03 0.  1.
         -6    1    1    2    0  503 -0.68544299763E+02  0.72449583553E+02 -0.71986943254E+03  0.74705305240E+03  0.17300000000E+03 0.  1.
<mgrwt>
<rscale>  2 0.19969042E+03</rscale>
<asrwt>0</asrwt>
<pdfrwt beam="1">  1       21 0.29060184E-01 0.19969042E+03</pdfrwt>
<pdfrwt beam="2">  1       21 0.12158924E+00 0.19969042E+03</pdfrwt>
<totfact> 0.57622933E+03</totfact>
</mgrwt>
</event>
<event>
 4    1  0.4439578E+000  0.2211569E+03  0.7546771E-02  0.1133023E+00
         21   -1    0    0  501  502  0.00000000000E+00  0.00000000000E+00  0.57297717992E+03  0.57297717992E+03  0.00000000000E+00 0.  1.
         21   -1    0    0  502  503 -0.00000000000E+00 -0.00000000000E+00 -0.23427034607E+03  0.23427034607E+03  0.00000000000E+00 0. -1.
          6    1    1    2  501    0 -0.38427099166E+02 -0.13230543957E+03  0.49114735535E+03  0.53864282781E+03  0.17300000000E+03 0.  1.
         -6    1    1    2    0  503  0.38427099166E+02  0.13230543957E+03 -0.15244052149E+03  0.26860469818E+03  0.17300000000E+03 0. -1.
<mgrwt>
<rscale>  2 0.22115689E+03</rscale>
<asrwt>0</asrwt>
<pdfrwt beam="1">  1       21 0.88150335E-01 0.22115689E+03</pdfrwt>
<pdfrwt beam="2">  1       21 0.36041592E-01 0.22115689E+03</pdfrwt>
<totfact> 0.80207466E+03</totfact>
</mgrwt>
</event>
<event>
 4    1  0.4439578E+000  0.2038700E+03  0.7546771E-02  0.1146514E+00
         21   -1    0    0  503  502  0.00000000000E+00  0.00000000000E+00  0.14630224445E+04  0.14630224445E+04  0.00000000000E+00 0. -1.
         21   -1    0    0  501  503 -0.00000000000E+00 -0.00000000000E+00 -0.28584936658E+02  0.28584936658E+02  0.00000000000E+00 0. -1.
          6    1    1    2  501    0 -0.72349865803E+01  0.10761803365E+03  0.65870612284E+03  0.68953371380E+03  0.17300000000E+03 0. -1.
         -6    1    1    2    0  502  0.72349865803E+01 -0.10761803365E+03  0.77573138504E+03  0.80207366740E+03  0.17300000000E+03 0. -1.
<mgrwt>
<rscale>  2 0.20387002E+03</rscale>
<asrwt>0</asrwt>
<pdfrwt beam="1">  1       21 0.22508032E+00 0.20387002E+03</pdfrwt>
<pdfrwt beam="2">  1       21 0.43976837E-02 0.20387002E+03</pdfrwt>
<totfact> 0.31032784E+04</totfact>
</mgrwt>
</event>
<event>
 4    1  0.4439578E+000  0.1880144E+03  0.7546771E-02  0.1160264E+00
         21   -1    0    0  503  502  0.00000000000E+00  0.00000000000E+00  0.12360759281E+03  0.12360759281E+03  0.00000000000E+00 0. -1.
         21   -1    0    0  501  503 -0.00000000000E+00 -0.00000000000E+00 -0.28757641024E+03  0.28757641024E+03  0.00000000000E+00 0. -1.
          6    1    1    2  501    0 -0.34774044625E+02 -0.64893610009E+02 -0.97297920662E+02  0.21169860690E+03  0.17300000000E+03 0. -1.
         -6    1    1    2    0  502  0.34774044625E+02  0.64893610009E+02 -0.66670896770E+02  0.19948539615E+03  0.17300000000E+03 0. -1.
<mgrwt>
<rscale>  2 0.18801440E+03</rscale>
<asrwt>0</asrwt>
<pdfrwt beam="1">  1       21 0.19016553E-01 0.18801440E+03</pdfrwt>
<pdfrwt beam="2">  1       21 0.44242525E-01 0.18801440E+03</pdfrwt>
<totfact> 0.12461855E+05</totfact>
</mgrwt>
</event>
<event>
 4    1  0.4439578E+000  0.3834513E+03  0.7546771E-02  0.1049665E+00
         21   -1    0    0  501  502  0.00000000000E+00  0.00000000000E+00  0.16202316401E+03  0.16202316401E+03  0.00000000000E+00 0.  1.
         21   -1    0    0  502  503 -0.00000000000E+00 -0.00000000000E+00 -0.95615791745E+03  0.95615791745E+03  0.00000000000E+00 0. -1.
          6    1    1    2  501    0  0.31721756713E+03  0.12837018866E+03 -0.27093538809E+03  0.46951131483E+03  0.17300000000E+03 0.  1.
         -6    1    1    2    0  503 -0.31721756713E+03 -0.12837018866E+03 -0.52319936535E+03  0.64866976663E+03  0.17300000000E+03 0. -1.
<mgrwt>
<rscale>  2 0.38345129E+03</rscale>
<asrwt>0</asrwt>
<pdfrwt beam="1">  1       21 0.24926640E-01 0.38345129E+03</pdfrwt>
<pdfrwt beam="2">  1       21 0.14710122E+00 0.38345129E+03</pdfrwt>
<totfact> 0.42731197E+03</totfact>
</mgrwt>
</event>
<event>
 4    1  0.4439578E+000  0.1868155E+03  0.7546771E-02  0.1161365E+00
         21   -1    0    0  503  502  0.00000000000E+00  0.00000000000E+00  0.14713649350E+04  0.14713649350E+04  0.00000000000E+00 0. -1.
         21   -1    0    0  501  503 -0.00000000000E+00 -0.00000000000E+00 -0.23916161279E+02  0.23916161279E+02  0.00000000000E+00 0. -1.
          6    1    1    2  501    0  0.27562648000E+02  0.64894799761E+02  0.79152147215E+03  0.81326888265E+03  0.17300000000E+03 0. -1.
         -6    1    1    2    0  502 -0.27562648000E+02 -0.64894799761E+02  0.65592730153E+03  0.68201221360E+03  0.17300000000E+03 0. -1.
<mgrwt>
<rscale>  2 0.18681551E+03</rscale>
<asrwt>0</asrwt>
<pdfrwt beam="1">  1       21 0.22636377E+00 0.18681551E+03</pdfrwt>
<pdfrwt beam="2">  1       21 0.36794106E-02 0.18681551E+03</pdfrwt>
<totfact> 0.41636188E+04</totfact>
</mgrwt>
</event>
<event>
 4    1  0.4439578E+000  0.2097021E+03  0.7546771E-02  0.1141802E+00
         21   -1    0    0  503  502  0.00000000000E+00  0.00000000000E+00  0.64343256918E+03  0.64343256918E+03  0.00000000000E+00 0.  1.
         21   -1    0    0  501  503 -0.00000000000E+00 -0.00000000000E+00 -0.69293790550E+02  0.69293790550E+02  0.00000000000E+00 0.  1.
          6    1    1    2  501    0  0.46210840926E+02  0.10913537492E+03  0.24535530701E+03  0.32276028033E+03  0.17300000000E+03 0. -1.
         -6    1    1    2    0  502 -0.46210840926E+02 -0.10913537492E+03  0.32878347161E+03  0.38996607940E+03  0.17300000000E+03 0. -1.
<mgrwt>
<rscale>  2 0.20970210E+03</rscale>
<asrwt>0</asrwt>
<pdfrwt beam="1">  1       21 0.98989622E-01 0.20970210E+03</pdfrwt>
<pdfrwt beam="2">  1       21 0.10660584E-01 0.20970210E+03</pdfrwt>
<totfact> 0.60428063E+04</totfact>
</mgrwt>
</event>
<event>
 4    1  0.4439578E+000  0.1766787E+03  0.7546771E-02  0.1171057E+00
         21   -1    0    0  501  502  0.00000000000E+00  0.00000000000E+00  0.94666270778E+03  0.94666270778E+03  0.00000000000E+00 0. -1.
         21   -1    0    0  502  503 -0.00000000000E+00 -0.00000000000E+00 -0.36723166788E+02  0.36723166788E+02  0.00000000000E+00 0. -1.
          6    1    1    2  501    0  0.16872305732E+02  0.31649201733E+02  0.61207322994E+03  0.63706277986E+03  0.17300000000E+03 0.  1.
         -6    1    1    2    0  503 -0.16872305732E+02 -0.31649201733E+02  0.29786631106E+03  0.34632309472E+03  0.17300000000E+03 0.  1.
<mgrwt>
<rscale>  2 0.17667865E+03</rscale>
<asrwt>0</asrwt>
<pdfrwt beam="1">  1       21 0.14564040E+00 0.17667865E+03</pdfrwt>
<pdfrwt beam="2">  1       21 0.56497187E-02 0.17667865E+03</pdfrwt>
<totfact> 0.71151328E+04</totfact>
</mgrwt>
</event>
<event>
 4    1  0.4439578E+000  0.2028090E+03  0.7546771E-02  0.1147390E+00
         21   -1    0    0  503  502  0.00000000000E+00  0.00000000000E+00  0.33345699521E+02  0.33345699521E+02  0.00000000000E+00 0. -1.
         21   -1    0    0  501  503 -0.00000000000E+00 -0.00000000000E+00 -0.17077175867E+04  0.17077175867E+04  0.00000000000E+00 0. -1.
          6    1    1    2  501    0  0.90167858766E+02  0.55427827469E+02 -0.12959309163E+04  0.13117043975E+04  0.17300000000E+03 0. -1.
         -6    1    1    2    0  502 -0.90167858766E+02 -0.55427827469E+02 -0.37844097087E+03  0.42935888863E+03  0.17300000000E+03 0. -1.
<mgrwt>
<rscale>  2 0.20280899E+03</rscale>
<asrwt>0</asrwt>
<pdfrwt beam="1">  1       21 0.51301067E-02 0.20280899E+03</pdfrwt>
<pdfrwt beam="2">  1       21 0.26272583E+00 0.20280899E+03</pdfrwt>
<totfact> 0.14291616E+04</totfact>
</mgrwt>
</event>
<event>
 4    1  0.4439578E+000  0.1826935E+03  0.7546771E-02  0.1165221E+00
         21   -1    0    0  501  502  0.00000000000E+00  0.00000000000E+00  0.31808805366E+03  0.31808805366E+03  0.00000000000E+00 0.  1.
         21   -1    0    0  502  503 -0.00000000000E+00 -0.00000000000E+00 -0.20428423973E+03  0.20428423973E+03  0.00000000000E+00 0.  1.
          6    1    1    2  501    0  0.58714028790E+02  0.75373208591E+00  0.23905075075E+03  0.30086901921E+03  0.17300000000E+03 0.  1.
         -6    1    1    2    0  503 -0.58714028790E+02 -0.75373208591E+00 -0.12524693682E+03  0.22150327418E+03  0.17300000000E+03 0.  1.
<mgrwt>
<rscale>  2 0.18269347E+03</rscale>
<asrwt>0</asrwt>
<pdfrwt beam="1">  1       21 0.48936624E-01 0.18269347E+03</pdfrwt>
<pdfrwt beam="2">  1       21 0.31428345E-01 0.18269347E+03</pdfrwt>
<totfact> 0.38968133E+04</totfact>
</mgrwt>
</event>
<event>
 4    1  0.4439578E+000  0.2203882E+03  0.7546771E-02  0.1133594E+00
         21   -1    0    0  503  502  0.00000000000E+00  0.00000000000E+00  0.35754807152E+03  0.35754807152E+03  0.00000000000E+00 0.  1.
         21   -1    0    0  501  503 -0.00000000000E+00 -0.00000000000E+00 -0.21491547188E+03  0.21491547188E+03  0.00000000000E+00 0.  1.
          6    1    1    2  501    0 -0.36032437303E+02  0.13169520215E+03 -0.10230074250E+03  0.24297408241E+03  0.17300000000E+03 0.  1.
         -6    1    1    2    0  502  0.36032437303E+02 -0.13169520215E+03  0.24493334214E+03  0.32948946098E+03  0.17300000000E+03 0.  1.
<mgrwt>
<rscale>  2 0.22038821E+03</rscale>
<asrwt>0</asrwt>
<pdfrwt beam="1">  1       21 0.55007396E-01 0.22038821E+03</pdfrwt>
<pdfrwt beam="2">  1       21 0.33063919E-01 0.22038821E+03</pdfrwt>
<totfact> 0.27049280E+04</totfact>
</mgrwt>
</event>
<event>
 4    1  0.4439578E+000  0.2304444E+03  0.7546771E-02  0.1126327E+00
         21   -1    0    0  501  502  0.00000000000E+00  0.00000000000E+00  0.54576576603E+03  0.54576576603E+03  0.00000000000E+00 0.  1.
         21   -1    0    0  502  503 -0.00000000000E+00 -0.00000000000E+00 -0.12461014864E+03  0.12461014864E+03  0.00000000000E+00 0.  1.
          6    1    1    2  501    0 -0.15207678546E+03  0.69471019651E+01  0.53667891514E+02  0.23661118630E+03  0.17300000000E+03 0.  1.
         -6    1    1    2    0  503  0.15207678546E+03 -0.69471019651E+01  0.36748772588E+03  0.43376472837E+03  0.17300000000E+03 0.  1.
<mgrwt>
<rscale>  2 0.23044438E+03</rscale>
<asrwt>0</asrwt>
<pdfrwt beam="1">  1       21 0.83963963E-01 0.23044438E+03</pdfrwt>
<pdfrwt beam="2">  1       21 0.19170792E-01 0.23044438E+03</pdfrwt>
<totfact> 0.30167627E+04</totfact>
</mgrwt>
</event>
<event>
 4    1  0.4439578E+000  0.2441695E+03  0.7546771E-02  0.1117046E+00
         21   -1    0    0  501  502  0.00000000000E+00  0.00000000000E+00  0.26530343801E+03  0.26530343801E+03  0.00000000000E+00 0. -1.
         21   -1    0    0  502  503 -0.00000000000E+00 -0.00000000000E+00 -0.24694126400E+03  0.24694126400E+03  0.00000000000E+00 0.  1.
          6    1    1    2  501    0  0.72071971270E+01  0.17215631425E+03  0.86013447071E+02  0.25887652135E+03  0.17300000000E+03 0. -1.
         -6    1    1    2    0  503 -0.72071971270E+01 -0.17215631425E+03 -0.67651273055E+02  0.25336818066E+03  0.17300000000E+03 0.  1.
<mgrwt>
<rscale>  2 0.24416949E+03</rscale>
<asrwt>0</asrwt>
<pdfrwt beam="1">  1       21 0.40815913E-01 0.24416949E+03</pdfrwt>
<pdfrwt beam="2">  1       21 0.37990964E-01 0.24416949E+03</pdfrwt>
<totfact> 0.37691914E+04</totfact>
</mgrwt>
</event>
<event>
 4    1  0.4439578E+000  0.1868688E+03  0.7546771E-02  0.1161316E+00
         21   -1    0    0  501  502  0.00000000000E+00  0.00000000000E+00  0.73553828815E+03  0.73553828815E+03  0.00000000000E+00 0.  1.
         21   -1    0    0  502  503 -0.00000000000E+00 -0.00000000000E+00 -0.63483185439E+02  0.63483185439E+02  0.00000000000E+00 0.  1.
          6    1    1    2  501    0  0.53881864247E+02 -0.45691379221E+02  0.53664330852E+03  0.56824818346E+03  0.17300000000E+03 0.  1.
         -6    1    1    2    0  503 -0.53881864247E+02  0.45691379221E+02  0.13541179419E+03  0.23077329013E+03  0.17300000000E+03 0.  1.
<mgrwt>
<rscale>  2 0.18686882E+03</rscale>
<asrwt>0</asrwt>
<pdfrwt beam="1">  1       21 0.11315973E+00 0.18686882E+03</pdfrwt>
<pdfrwt beam="2">  1       21 0.97666444E-02 0.18686882E+03</pdfrwt>
<totfact> 0.51734412E+04</totfact>
</mgrwt>
</event>
<event>
 4    1  0.4439578E+000  0.1848309E+03  0.7546771E-02  0.1163208E+00
         21   -1    0    0  503  502  0.00000000000E+00  0.00000000000E+00  0.28572212982E+03  0.28572212982E+03  0.00000000000E+00 0. -1.
         21   -1    0    0  501  503 -0.00000000000E+00 -0.00000000000E+00 -0.12642340259E+03  0.12642340259E+03  0.00000000000E+00 0. -1.
          6    1    1    2  501    0  0.49507662726E+02  0.42218988747E+02  0.12764579039E+03  0.22462390675E+03  0.17300000000E+03 0.  1.
         -6    1    1    2    0  502 -0.49507662726E+02 -0.42218988747E+02  0.31652936832E+02  0.18752162566E+03  0.17300000000E+03 0.  1.
<mgrwt>
<rscale>  2 0.18483087E+03</rscale>
<asrwt>0</asrwt>
<pdfrwt beam="1">  1       21 0.43957250E-01 0.18483087E+03</pdfrwt>
<pdfrwt beam="2">  1       21 0.19449754E-01 0.18483087E+03</pdfrwt>
<totfact> 0.12123140E+05</totfact>
</mgrwt>
</event>
<event>
 4    1  0.4439578E+000  0.1822902E+03  0.7546771E-02  0.1165605E+00
         21   -1    0    0  503  502  0.00000000000E+00  0.00000000000E+00  0.23565239840E+02  0.23565239840E+02  0.00000000000E+00 0. -1.
         21   -1    0    0  501  503 -0.00000000000E+00 -0.00000000000E+00 -0.19382489037E+04  0.19382489037E+04  0.00000000000E+00 0. -1.
          6    1    1    2  501    0 -0.50629686557E+02  0.27153979118E+02 -0.14693713742E+04  0.14806356538E+04  0.17300000000E+03 0. -1.
         -6    1    1    2    0  502  0.50629686557E+02 -0.27153979118E+02 -0.44531228961E+03  0.48117848977E+03  0.17300000000E+03 0. -1.
<mgrwt>
<rscale>  2 0.18229016E+03</rscale>
<asrwt>0</asrwt>
<pdfrwt beam="1">  1       21 0.36254214E-02 0.18229016E+03</pdfrwt>
<pdfrwt beam="2">  1       21 0.29819215E+00 0.18229016E+03</pdfrwt>
<totfact> 0.16325225E+04</totfact>
</mgrwt>
</event>
<event>
 4    1  0.4439578E+000  0.2760477E+03  0.7546771E-02  0.1097867E+00
         21   -1    0    0  503  502  0.00000000000E+00  0.00000000000E+00  0.17776294184E+03  0.17776294184E+03  0.00000000000E+00 0.  1.
         21   -1    0    0  501  503 -0.00000000000E+00 -0.00000000000E+00 -0.43161038734E+03  0.43161038734E+03  0.00000000000E+00 0. -1.
          6    1    1    2  501    0 -0.20151626984E+03  0.75263008552E+02 -0.15205555206E+03  0.31515586363E+03  0.17300000000E+03 0.  1.
         -6    1    1    2    0  502  0.20151626984E+03 -0.75263008552E+02 -0.10179189344E+03  0.29421746556E+03  0.17300000000E+03 0. -1.
<mgrwt>
<rscale>  2 0.27604769E+03</rscale>
<asrwt>0</asrwt>
<pdfrwt beam="1">  1       21 0.27348146E-01 0.27604769E+03</pdfrwt>
<pdfrwt beam="2">  1       21 0.66401596E-01 0.27604769E+03</pdfrwt>
<totfact> 0.25454811E+04</totfact>
</mgrwt>
</event>
<event>
 4    1  0.4439578E+000  0.2658312E+03  0.7546771E-02  0.1103689E+00
         21   -1    0    0  501  502  0.00000000000E+00  0.00000000000E+00  0.18044035735E+04  0.18044035735E+04  0.00000000000E+00 0. -1.
         21   -1    0    0  502  503 -0.00000000000E+00 -0.00000000000E+00 -0.11969398009E+03  0.11969398009E+03  0.00000000000E+00 0.  1.
          6    1    1    2  501    0  0.40529908102E+02 -0.19772346221E+03  0.16314726266E+04  0.16529879529E+04  0.17300000000E+03 0. -1.
         -6    1    1    2    0  503 -0.40529908102E+02  0.19772346221E+03  0.53236966781E+02  0.27110960070E+03  0.17300000000E+03 0.  1.
<mgrwt>
<rscale>  2 0.26583123E+03</rscale>
<asrwt>0</asrwt>
<pdfrwt beam="1">  1       21 0.27760053E+00 0.26583123E+03</pdfrwt>
<pdfrwt beam="2">  1       21 0.18414460E-01 0.26583123E+03</pdfrwt>
<totfact> 0.11417267E+03</totfact>
</mgrwt>
</event>
<event>
 4    1  0.4439578E+000  0.1931134E+03  0.7546771E-02  0.1155683E+00
         21   -1    0    0  503  502  0.00000000000E+00  0.00000000000E+00  0.96600497209E+02  0.96600497209E+02  0.00000000000E+00 0. -1.
         21   -1    0    0  501  503 -0.00000000000E+00 -0.00000000000E+00 -0.38606920800E+03  0.38606920800E+03  0.00000000000E+00 0. -1.
          6    1    1    2  501    0  0.67492256910E+02  0.52995937891E+02 -0.14636530323E+03  0.24231297152E+03  0.17300000000E+03 0. -1.
         -6    1    1    2    0  502 -0.67492256910E+02 -0.52995937891E+02 -0.14310340756E+03  0.24035673369E+03  0.17300000000E+03 0. -1.
<mgrwt>
<rscale>  2 0.19311337E+03</rscale>
<asrwt>0</asrwt>
<pdfrwt beam="1">  1       21 0.14861615E-01 0.19311337E+03</pdfrwt>
<pdfrwt beam="2">  1       21 0.59395262E-01 0.19311337E+03</pdfrwt>
<totfact> 0.10563801E+05</totfact>
</mgrwt>
</event>
<event>
 4    1  0.4439578E+000  0.1947655E+03  0.7546771E-02  0.1154232E+00
         21   -1    0    0  503  502  0.00000000000E+00  0.00000000000E+00  0.35997160044E+02  0.35997160044E+02  0.00000000000E+00 0.  1.
         21   -1    0    0  501  503 -0.00000000000E+00 -0.00000000000E+00 -0.10641006993E+04  0.10641006993E+04  0.00000000000E+00 0.  1.
          6    1    1    2  501    0 -0.66444271742E+01  0.89221329257E+02 -0.56818552558E+03  0.60063997993E+03  0.17300000000E+03 0.  1.
         -6    1    1    2    0  502  0.66444271742E+01 -0.89221329257E+02 -0.45991801365E+03  0.49945787940E+03  0.17300000000E+03 0.  1.
<mgrwt>
<rscale>  2 0.19476548E+03</rscale>
<asrwt>0</asrwt>
<pdfrwt beam="1">  1       21 0.55380238E-02 0.19476548E+03</pdfrwt>
<pdfrwt beam="2">  1       21 0.16370782E+00 0.19476548E+03</pdfrwt>
<totfact> 0.53420004E+04</totfact>
</mgrwt>
</event>
<event>
 4    1  0.4439578E+000  0.1826790E+03  0.7546771E-02  0.1165235E+00
         21   -1    0    0  501  502  0.00000000000E+00  0.00000000000E+00  0.18122314292E+03  0.18122314292E+03  0.00000000000E+00 0.  1.
         21   -1    0    0  502  503 -0.00000000000E+00 -0.00000000000E+00 -0.21158269421E+03  0.21158269421E+03  0.00000000000E+00 0. -1.
          6    1    1    2  501    0  0.57359349061E+02 -0.12350036518E+02  0.55544633265E+02  0.19093670315E+03  0.17300000000E+03 0.  1.
         -6    1    1    2    0  503 -0.57359349061E+02  0.12350036518E+02 -0.85904184557E+02  0.20186913397E+03  0.17300000000E+03 0. -1.
<mgrwt>
<rscale>  2 0.18267900E+03</rscale>
<asrwt>0</asrwt>
<pdfrwt beam="1">  1       21 0.27880484E-01 0.18267900E+03</pdfrwt>
<pdfrwt beam="2">  1       21 0.32551184E-01 0.18267900E+03</pdfrwt>
<totfact> 0.11197239E+05</totfact>
</mgrwt>
</event>
<event>
 4    1  0.4439578E+000  0.2015322E+03  0.7546771E-02  0.1148453E+00
         21   -1    0    0  503  502  0.00000000000E+00  0.00000000000E+00  0.47652958260E+02  0.47652958260E+02  0.00000000000E+00 0. -1.
         21   -1    0    0  501  503 -0.00000000000E+00 -0.00000000000E+00 -0.96935023608E+03  0.96935023608E+03  0.00000000000E+00 0. -1.
          6    1    1    2  501    0 -0.99534330605E+02  0.27913031851E+02 -0.63753970578E+03  0.66863450162E+03  0.17300000000E+03 0. -1.
         -6    1    1    2    0  502  0.99534330605E+02 -0.27913031851E+02 -0.28415757204E+03  0.34836869271E+03  0.17300000000E+03 0. -1.
<mgrwt>
<rscale>  2 0.20153218E+03</rscale>
<asrwt>0</asrwt>
<pdfrwt beam="1">  1       21 0.73312243E-02 0.20153218E+03</pdfrwt>
<pdfrwt beam="2">  1       21 0.14913081E+00 0.20153218E+03</pdfrwt>
<totfact> 0.42161534E+04</totfact>
</mgrwt>
</event>
<event>
 4    1  0.4439578E+000  0.2141887E+03  0.7546771E-02  0.1138291E+00
         21   -1    0    0  503  502  0.00000000000E+00  0.00000000000E+00  0.19714485321E+02  0.19714485321E+02  0.00000000000E+00 0. -1.
         21   -1    0    0  501  503 -0.00000000000E+00 -0.00000000000E+00 -0.29154826720E+04  0.29154826720E+04  0.00000000000E+00 0. -1.
          6    1    1    2  501    0  0.68422710448E+02 -0.10614199587E+03 -0.21072048404E+04  0.21180625651E+04  0.17300000000E+03 0. -1.
         -6    1    1    2    0  502 -0.68422710448E+02  0.10614199587E+03 -0.78856334635E+03  0.81713459221E+03  0.17300000000E+03 0. -1.
<mgrwt>
<rscale>  2 0.21418868E+03</rscale>
<asrwt>0</asrwt>
<pdfrwt beam="1">  1       21 0.30329991E-02 0.21418868E+03</pdfrwt>
<pdfrwt beam="2">  1       21 0.44853560E+00 0.21418868E+03</pdfrwt>
<totfact> 0.25649081E+03</totfact>
</mgrwt>
</event>
<event>
 4    1  0.4439578E+000  0.2634286E+03  0.7546771E-02  0.1105101E+00
         21   -1    0    0  501  502  0.00000000000E+00  0.00000000000E+00  0.12098052276E+04  0.12098052276E+04  0.00000000000E+00 0. -1.
         21   -1    0    0  502  503 -0.00000000000E+00 -0.00000000000E+00 -0.74484002245E+02  0.74484002245E+02  0.00000000000E+00 0.  1.
          6    1    1    2  501    0 -0.55358727511E+02 -0.19079062621E+03  0.87555490187E+03  0.91432545516E+03  0.17300000000E+03 0. -1.
         -6    1    1    2    0  503  0.55358727511E+02  0.19079062621E+03  0.25976632347E+03  0.36996377468E+03  0.17300000000E+03 0.  1.
<mgrwt>
<rscale>  2 0.26342865E+03</rscale>
<asrwt>0</asrwt>
<pdfrwt beam="1">  1       21 0.18612387E+00 0.26342865E+03</pdfrwt>
<pdfrwt beam="2">  1       21 0.11459078E-01 0.26342865E+03</pdfrwt>
<totfact> 0.10025401E+04</totfact>
</mgrwt>
</event>
<event>
 4    1  0.4439578E+000  0.2117500E+03  0.7546771E-02  0.1140188E+00
         21   -1    0    0  503  502  0.00000000000E+00  0.00000000000E+00  0.25277773635E+03  0.25277773635E+03  0.00000000000E+00 0. -1.
         21   -1    0    0  501  503 -0.00000000000E+00 -0.00000000000E+00 -0.21278166042E+03  0.21278166042E+03  0.00000000000E+00 0.  1.
          6    1    1    2  501    0  0.11788598258E+03 -0.31811449096E+02 -0.74948935471E+02  0.22462283078E+03  0.17300000000E+03 0.  1.
         -6    1    1    2    0  502 -0.11788598258E+03  0.31811449096E+02  0.11494501141E+03  0.24093656599E+03  0.17300000000E+03 0. -1.
<mgrwt>
<rscale>  2 0.21175003E+03</rscale>
<asrwt>0</asrwt>
<pdfrwt beam="1">  1       21 0.38888882E-01 0.21175003E+03</pdfrwt>
<pdfrwt beam="2">  1       21 0.32735640E-01 0.21175003E+03</pdfrwt>
<totfact> 0.56756566E+04</totfact>
</mgrwt>
</event>
<event>
 4    1  0.4439578E+000  0.1939417E+03  0.7546771E-02  0.1154953E+00
         21   -1    0    0  503  502  0.00000000000E+00  0.00000000000E+00  0.11014259316E+03  0.11014259316E+03  0.00000000000E+00 0.  1.
         21   -1    0    0  501  503 -0.00000000000E+00 -0.00000000000E+00 -0.35190542526E+03  0.35190542526E+03  0.00000000000E+00 0.  1.
          6    1    1    2  501    0 -0.87414935183E+02  0.65574186546E+01 -0.81149856884E+02  0.21023479708E+03  0.17300000000E+03 0.  1.
         -6    1    1    2    0  502  0.87414935183E+02 -0.65574186546E+01 -0.16061297521E+03  0.25181322133E+03  0.17300000000E+03 0.  1.
<mgrwt>
<rscale>  2 0.19394167E+03</rscale>
<asrwt>0</asrwt>
<pdfrwt beam="1">  1       21 0.16945014E-01 0.19394167E+03</pdfrwt>
<pdfrwt beam="2">  1       21 0.54139296E-01 0.19394167E+03</pdfrwt>
<totfact> 0.10116199E+05</totfact>
</mgrwt>
</event>
<event>
 4    1  0.4439578E+000  0.2310547E+03  0.7546771E-02  0.1125900E+00
         21   -1    0    0  503  502  0.00000000000E+00  0.00000000000E+00  0.11054834836E+04  0.11054834836E+04  0.00000000000E+00 0.  1.
         21   -1    0    0  501  503 -0.00000000000E+00 -0.00000000000E+00 -0.34747981062E+03  0.34747981062E+03  0.00000000000E+00 0. -1.
          6    1    1    2  501    0 -0.12133202285E+03  0.93465544285E+02 -0.29510950951E+03  0.37480113439E+03  0.17300000000E+03 0. -1.
         -6    1    1    2    0  502  0.12133202285E+03 -0.93465544285E+02  0.10531131825E+04  0.10781621598E+04  0.17300000000E+03 0.  1.
<mgrwt>
<rscale>  2 0.23105469E+03</rscale>
<asrwt>0</asrwt>
<pdfrwt beam="1">  1       21 0.17007438E+00 0.23105469E+03</pdfrwt>
<pdfrwt beam="2">  1       21 0.53458433E-01 0.23105469E+03</pdfrwt>
<totfact> 0.67800636E+02</totfact>
</mgrwt>
</event>
<event>
 4    1  0.4439578E+000  0.1802187E+03  0.7546771E-02  0.1167592E+00
         21   -1    0    0  501  502  0.00000000000E+00  0.00000000000E+00  0.96634256493E+02  0.96634256493E+02  0.00000000000E+00 0. -1.
         21   -1    0    0  502  503 -0.00000000000E+00 -0.00000000000E+00 -0.35633212896E+03  0.35633212896E+03  0.00000000000E+00 0. -1.
          6    1    1    2  501    0  0.95827151502E+01  0.49577786387E+02 -0.75881973416E+02  0.19554247422E+03  0.17300000000E+03 0. -1.
         -6    1    1    2    0  503 -0.95827151502E+01 -0.49577786387E+02 -0.18381589905E+03  0.25742391124E+03  0.17300000000E+03 0. -1.
<mgrwt>
<rscale>  2 0.18021872E+03</rscale>
<asrwt>0</asrwt>
<pdfrwt beam="1">  1       21 0.14866808E-01 0.18021872E+03</pdfrwt>
<pdfrwt beam="2">  1       21 0.54820329E-01 0.18021872E+03</pdfrwt>
<totfact> 0.12577339E+05</totfact>
</mgrwt>
</event>
<event>
 4    1  0.4439578E+000  0.1967658E+03  0.7546771E-02  0.1152497E+00
         21   -1    0    0  501  502  0.00000000000E+00  0.00000000000E+00  0.75834757878E+03  0.75834757878E+03  0.00000000000E+00 0.  1.
         21   -1    0    0  502  503 -0.00000000000E+00 -0.00000000000E+00 -0.60504922082E+02  0.60504922082E+02  0.00000000000E+00 0. -1.
          6    1    1    2  501    0 -0.98530549062E+01  0.93223866977E+02  0.51073475350E+03  0.54732692287E+03  0.17300000000E+03 0.  1.
         -6    1    1    2    0  503  0.98530549062E+01 -0.93223866977E+02  0.18710790320E+03  0.27152557799E+03  0.17300000000E+03 0. -1.
<mgrwt>
<rscale>  2 0.19676578E+03</rscale>
<asrwt>0</asrwt>
<pdfrwt beam="1">  1       21 0.11666885E+00 0.19676578E+03</pdfrwt>
<pdfrwt beam="2">  1       21 0.93084501E-02 0.19676578E+03</pdfrwt>
<totfact> 0.51999430E+04</totfact>
</mgrwt>
</event>
<event>
 4    1  0.4439578E+000  0.2120813E+03  0.7546771E-02  0.1139928E+00
         21   -1    0    0  501  502  0.00000000000E+00  0.00000000000E+00  0.43044297920E+03  0.43044297920E+03  0.00000000000E+00 0. -1.
         21   -1    0    0  502  503 -0.00000000000E+00 -0.00000000000E+00 -0.14490309154E+03  0.14490309154E+03  0.00000000000E+00 0.  1.
          6    1    1    2  501    0  0.89577883615E+02 -0.83816842665E+02 -0.91458661880E+01  0.21227837199E+03  0.17300000000E+03 0.  1.
         -6    1    1    2    0  503 -0.89577883615E+02  0.83816842665E+02  0.29468575386E+03  0.36306769875E+03  0.17300000000E+03 0. -1.
<mgrwt>
<rscale>  2 0.21208126E+03</rscale>
<asrwt>0</asrwt>
<pdfrwt beam="1">  1       21 0.66221996E-01 0.21208126E+03</pdfrwt>
<pdfrwt beam="2">  1       21 0.22292784E-01 0.21208126E+03</pdfrwt>
<totfact> 0.39009293E+04</totfact>
</mgrwt>
</event>
<event>
 4    1  0.4439578E+000  0.1962022E+03  0.7546771E-02  0.1152983E+00
         21   -1    0    0  501  502  0.00000000000E+00  0.00000000000E+00  0.31107024811E+02  0.31107024811E+02  0.00000000000E+00 0.  1.
         21   -1    0    0  502  503 -0.00000000000E+00 -0.00000000000E+00 -0.12535385060E+04  0.12535385060E+04  0.00000000000E+00 0. -1.
          6    1    1    2  501    0  0.91444271721E+02 -0.14291097403E+02 -0.53858586357E+03  0.57321027794E+03  0.17300000000E+03 0.  1.
         -6    1    1    2    0  503 -0.91444271721E+02  0.14291097403E+02 -0.68384561764E+03  0.71143525289E+03  0.17300000000E+03 0. -1.
<mgrwt>
<rscale>  2 0.19620217E+03</rscale>
<asrwt>0</asrwt>
<pdfrwt beam="1">  1       21 0.47856969E-02 0.19620217E+03</pdfrwt>
<pdfrwt beam="2">  1       21 0.19285204E+00 0.19620217E+03</pdfrwt>
<totfact> 0.43177485E+04</totfact>
</mgrwt>
</event>
<event>
 4    1  0.4439578E+000  0.1823288E+03  0.7546771E-02  0.1165568E+00
         21   -1    0    0  501  502  0.00000000000E+00  0.00000000000E+00  0.20256829000E+03  0.20256829000E+03  0.00000000000E+00 0.  1.
         21   -1    0    0  502  503 -0.00000000000E+00 -0.00000000000E+00 -0.29835084987E+03  0.29835084987E+03  0.00000000000E+00 0.  1.
          6    1    1    2  501    0  0.54820051261E+02  0.17593844023E+02  0.12011052489E+03  0.21833533740E+03  0.17300000000E+03 0.  1.
         -6    1    1    2    0  503 -0.54820051261E+02 -0.17593844023E+02 -0.21589308477E+03  0.28258380247E+03  0.17300000000E+03 0.  1.
<mgrwt>
<rscale>  2 0.18232877E+03</rscale>
<asrwt>0</asrwt>
<pdfrwt beam="1">  1       21 0.31164353E-01 0.18232877E+03</pdfrwt>
<pdfrwt beam="2">  1       21 0.45900130E-01 0.18232877E+03</pdfrwt>
<totfact> 0.45230314E+04</totfact>
</mgrwt>
</event>
<event>
 4    1  0.4439578E+000  0.2386958E+03  0.7546771E-02  0.1120665E+00
         21   -1    0    0  503  502  0.00000000000E+00  0.00000000000E+00  0.23609991837E+03  0.23609991837E+03  0.00000000000E+00 0. -1.
         21   -1    0    0  501  503 -0.00000000000E+00 -0.00000000000E+00 -0.37865753793E+03  0.37865753793E+03  0.00000000000E+00 0.  1.
          6    1    1    2  501    0 -0.16325832685E+03 -0.19833871590E+02 -0.25639522179E+03  0.35030582853E+03  0.17300000000E+03 0.  1.
         -6    1    1    2    0  502  0.16325832685E+03  0.19833871590E+02  0.11383760223E+03  0.26445162777E+03  0.17300000000E+03 0. -1.
<mgrwt>
<rscale>  2 0.23869576E+03</rscale>
<asrwt>0</asrwt>
<pdfrwt beam="1">  1       21 0.36323064E-01 0.23869576E+03</pdfrwt>
<pdfrwt beam="2">  1       21 0.58255006E-01 0.23869576E+03</pdfrwt>
<totfact> 0.19660971E+04</totfact>
</mgrwt>
</event>
<event>
 4    1  0.4439578E+000  0.2207423E+03  0.7546771E-02  0.1133331E+00
         21   -1    0    0  501  502  0.00000000000E+00  0.00000000000E+00  0.43522683339E+02  0.43522683339E+02  0.00000000000E+00 0. -1.
         21   -1    0    0  502  503 -0.00000000000E+00 -0.00000000000E+00 -0.17398686993E+04  0.17398686993E+04  0.00000000000E+00 0. -1.
          6    1    1    2  501    0  0.11390877859E+03 -0.76308354249E+02 -0.31575225986E+03  0.38526181277E+03  0.17300000000E+03 0. -1.
         -6    1    1    2    0  503 -0.11390877859E+03  0.76308354249E+02 -0.13805937560E+04  0.13981295698E+04  0.17300000000E+03 0. -1.
<mgrwt>
<rscale>  2 0.22074233E+03</rscale>
<asrwt>0</asrwt>
<pdfrwt beam="1">  1       21 0.66957981E-02 0.22074233E+03</pdfrwt>
<pdfrwt beam="2">  1       21 0.26767208E+00 0.22074233E+03</pdfrwt>
<totfact> 0.83342364E+03</totfact>
</mgrwt>
</event>
<event>
 4    1  0.4439578E+000  0.3041349E+03  0.7546771E-02  0.1083192E+00
         21   -1    0    0  501  502  0.00000000000E+00  0.00000000000E+00  0.73986174174E+03  0.73986174174E+03  0.00000000000E+00 0.  1.
         21   -1    0    0  502  503 -0.00000000000E+00 -0.00000000000E+00 -0.15078071320E+03  0.15078071320E+03  0.00000000000E+00 0.  1.
          6    1    1    2  501    0  0.13192495551E+03  0.21252025733E+03  0.47860639976E+03  0.56706449329E+03  0.17300000000E+03 0.  1.
         -6    1    1    2    0  503 -0.13192495551E+03 -0.21252025733E+03  0.11047462879E+03  0.32357796165E+03  0.17300000000E+03 0.  1.
<mgrwt>
<rscale>  2 0.30413493E+03</rscale>
<asrwt>0</asrwt>
<pdfrwt beam="1">  1       21 0.11382488E+00 0.30413493E+03</pdfrwt>
<pdfrwt beam="2">  1       21 0.23197033E-01 0.30413493E+03</pdfrwt>
<totfact> 0.98386252E+03</totfact>
</mgrwt>
</event>
<event>
 4    1  0.4439578E+000  0.1912263E+03  0.7546771E-02  0.1157360E+00
         21   -1    0    0  503  502  0.00000000000E+00  0.00000000000E+00  0.38129301035E+02  0.38129301035E+02  0.00000000000E+00 0.  1.
         21   -1    0    0  501  503 -0.00000000000E+00 -0.00000000000E+00 -0.13658960144E+04  0.13658960144E+04  0.00000000000E+00 0.  1.
          6    1    1    2  501    0  0.81261834822E+02  0.59158885321E+01 -0.10470229841E+04  0.10643423382E+04  0.17300000000E+03 0.  1.
         -6    1    1    2    0  502 -0.81261834822E+02 -0.59158885321E+01 -0.28074372924E+03  0.33968297726E+03  0.17300000000E+03 0.  1.
<mgrwt>
<rscale>  2 0.19122626E+03</rscale>
<asrwt>0</asrwt>
<pdfrwt beam="1">  1       21 0.58660477E-02 0.19122626E+03</pdfrwt>
<pdfrwt beam="2">  1       21 0.21013780E+00 0.19122626E+03</pdfrwt>
<totfact> 0.23760699E+04</totfact>
</mgrwt>
</event>
<event>
 4    1  0.4439578E+000  0.1881237E+03  0.7546771E-02  0.1160165E+00
         21   -1    0    0  503  502  0.00000000000E+00  0.00000000000E+00  0.79760230226E+03  0.79760230226E+03  0.00000000000E+00 0. -1.
         21   -1    0    0  501  503 -0.00000000000E+00 -0.00000000000E+00 -0.44510101741E+02  0.44510101741E+02  0.00000000000E+00 0. -1.
          6    1    1    2  501    0  0.48837774619E+02  0.55465305574E+02  0.35302006572E+03  0.40001711857E+03  0.17300000000E+03 0. -1.
         -6    1    1    2    0  502 -0.48837774619E+02 -0.55465305574E+02  0.40007213480E+03  0.44209528543E+03  0.17300000000E+03 0. -1.
<mgrwt>
<rscale>  2 0.18812370E+03</rscale>
<asrwt>0</asrwt>
<pdfrwt beam="1">  1       21 0.12270804E+00 0.18812370E+03</pdfrwt>
<pdfrwt beam="2">  1       21 0.68477086E-02 0.18812370E+03</pdfrwt>
<totfact> 0.78660994E+04</totfact>
</mgrwt>
</event>
<event>
 4    1  0.4439578E+000  0.2357097E+03  0.7546771E-02  0.1122684E+00
         21   -1    0    0  501  502  0.00000000000E+00  0.00000000000E+00  0.32726797766E+03  0.32726797766E+03  0.00000000000E+00 0. -1.
         21   -1    0    0  502  503 -0.00000000000E+00 -0.00000000000E+00 -0.18617338907E+03  0.18617338907E+03  0.00000000000E+00 0. -1.
          6    1    1    2  501    0 -0.10421330893E+03  0.12153040438E+03  0.14675847043E+03  0.27766364830E+03  0.17300000000E+03 0. -1.
         -6    1    1    2    0  503  0.10421330893E+03 -0.12153040438E+03 -0.56638818387E+01  0.23577771842E+03  0.17300000000E+03 0. -1.
<mgrwt>
<rscale>  2 0.23570968E+03</rscale>
<asrwt>0</asrwt>
<pdfrwt beam="1">  1       21 0.50348920E-01 0.23570968E+03</pdfrwt>
<pdfrwt beam="2">  1       21 0.28642060E-01 0.23570968E+03</pdfrwt>
<totfact> 0.42901804E+04</totfact>
</mgrwt>
</event>
<event>
 4    1  0.4439578E+000  0.2744492E+03  0.7546771E-02  0.1098760E+00
         21   -1    0    0  503  502  0.00000000000E+00  0.00000000000E+00  0.14699150217E+03  0.14699150217E+03  0.00000000000E+00 0. -1.
         21   -1    0    0  501  503 -0.00000000000E+00 -0.00000000000E+00 -0.86548172630E+03  0.86548172630E+03  0.00000000000E+00 0.  1.
          6    1    1    2  501    0 -0.57447827742E+02 -0.20516610600E+03 -0.68257491988E+03  0.73568397102E+03  0.17300000000E+03 0.  1.
         -6    1    1    2    0  502  0.57447827742E+02  0.20516610600E+03 -0.35915304255E+02  0.27678925746E+03  0.17300000000E+03 0. -1.
<mgrwt>
<rscale>  2 0.27444924E+03</rscale>
<asrwt>0</asrwt>
<pdfrwt beam="1">  1       21 0.22614078E-01 0.27444924E+03</pdfrwt>
<pdfrwt beam="2">  1       21 0.13315103E+00 0.27444924E+03</pdfrwt>
<totfact> 0.70599303E+03</totfact>
</mgrwt>
</event>
<event>
 4    1  0.4439578E+000  0.2895029E+03  0.7546771E-02  0.1090609E+00
         21   -1    0    0  501  502  0.00000000000E+00  0.00000000000E+00  0.21461596455E+03  0.21461596455E+03  0.00000000000E+00 0.  1.
         21   -1    0    0  502  503 -0.00000000000E+00 -0.00000000000E+00 -0.39155371346E+03  0.39155371346E+03  0.00000000000E+00 0.  1.
          6    1    1    2  501    0 -0.20215646590E+03  0.11408624110E+03 -0.72898836182E+02  0.29854002652E+03  0.17300000000E+03 0.  1.
         -6    1    1    2    0  503  0.20215646590E+03 -0.11408624110E+03 -0.10403891273E+03  0.30762965149E+03  0.17300000000E+03 0.  1.
<mgrwt>
<rscale>  2 0.28950286E+03</rscale>
<asrwt>0</asrwt>
<pdfrwt beam="1">  1       21 0.33017840E-01 0.28950286E+03</pdfrwt>
<pdfrwt beam="2">  1       21 0.60239033E-01 0.28950286E+03</pdfrwt>
<totfact> 0.21623926E+04</totfact>
</mgrwt>
</event>
<event>
 4    1  0.4439578E+000  0.2103710E+03  0.7546771E-02  0.1141273E+00
         21   -1    0    0  503  502  0.00000000000E+00  0.00000000000E+00  0.36065141336E+03  0.36065141336E+03  0.00000000000E+00 0. -1.
         21   -1    0    0  501  503 -0.00000000000E+00 -0.00000000000E+00 -0.16074663089E+03  0.16074663089E+03  0.00000000000E+00 0.  1.
          6    1    1    2  501    0 -0.93179340465E+02  0.75130338534E+02 -0.26860323076E+02  0.21207883962E+03  0.17300000000E+03 0.  1.
         -6    1    1    2    0  502  0.93179340465E+02 -0.75130338534E+02  0.22676510555E+03  0.30931920463E+03  0.17300000000E+03 0.  1.
<mgrwt>
<rscale>  2 0.21037100E+03</rscale>
<asrwt>0</asrwt>
<pdfrwt beam="1">  1       21 0.55484833E-01 0.21037100E+03</pdfrwt>
<pdfrwt beam="2">  1       21 0.24730251E-01 0.21037100E+03</pdfrwt>
<totfact> 0.46934474E+04</totfact>
</mgrwt>
</event>
<event>
 4    1  0.4439578E+000  0.2773602E+03  0.7546771E-02  0.1097140E+00
         21   -1    0    0  503  502  0.00000000000E+00  0.00000000000E+00  0.69332224970E+03  0.69332224970E+03  0.00000000000E+00 0.  1.
         21   -1    0    0  501  503 -0.00000000000E+00 -0.00000000000E+00 -0.21222965968E+03  0.21222965968E+03  0.00000000000E+00 0. -1.
          6    1    1    2  501    0  0.21657472222E+03 -0.97504998974E+01 -0.72225276621E+02  0.28660979247E+03  0.17300000000E+03 0. -1.
         -6    1    1    2    0  502 -0.21657472222E+03  0.97504998974E+01  0.55331786664E+03  0.61894211692E+03  0.17300000000E+03 0.  1.
<mgrwt>
<rscale>  2 0.27736020E+03</rscale>
<asrwt>0</asrwt>
<pdfrwt beam="1">  1       21 0.10666496E+00 0.27736020E+03</pdfrwt>
<pdfrwt beam="2">  1       21 0.32650717E-01 0.27736020E+03</pdfrwt>
<totfact> 0.60062536E+03</totfact>
</mgrwt>
</event>
<event>
 4    1  0.4439578E+000  0.2409110E+03  0.7546771E-02  0.1119187E+00
         21   -1    0    0  501  502  0.00000000000E+00  0.00000000000E+00  0.48759468160E+03  0.48759468160E+03  0.00000000000E+00 0. -1.
         21   -1    0    0  502  503 -0.00000000000E+00 -0.00000000000E+00 -0.21344571236E+03  0.21344571236E+03  0.00000000000E+00 0.  1.
          6    1    1    2  501    0 -0.16765764077E+03 -0.88343702590E-01  0.37020165589E+03  0.44168694608E+03  0.17300000000E+03 0. -1.
         -6    1    1    2    0  503  0.16765764077E+03  0.88343702590E-01 -0.96052686653E+02  0.25935344788E+03  0.17300000000E+03 0. -1.
<mgrwt>
<rscale>  2 0.24091096E+03</rscale>
<asrwt>0</asrwt>
<pdfrwt beam="1">  1       21 0.75014566E-01 0.24091096E+03</pdfrwt>
<pdfrwt beam="2">  1       21 0.32837802E-01 0.24091096E+03</pdfrwt>
<totfact> 0.13779757E+04</totfact>
</mgrwt>
</event>
<event>
 4    1  0.4439578E+000  0.1823107E+03  0.7546771E-02  0.1165585E+00
         21   -1    0    0  501  502  0.00000000000E+00  0.00000000000E+00  0.55301369734E+02  0.55301369734E+02  0.00000000000E+00 0.  1.
         21   -1    0    0  502  503 -0.00000000000E+00 -0.00000000000E+00 -0.60602186574E+03  0.60602186574E+03  0.00000000000E+00 0.  1.
          6    1    1    2  501    0  0.47235399421E+02  0.32818002501E+02 -0.24531849495E+03  0.30564418563E+03  0.17300000000E+03 0. -1.
         -6    1    1    2    0  503 -0.47235399421E+02 -0.32818002501E+02 -0.30540200105E+03  0.35567904984E+03  0.17300000000E+03 0. -1.
<mgrwt>
<rscale>  2 0.18231074E+03</rscale>
<asrwt>0</asrwt>
<pdfrwt beam="1">  1       21 0.85079025E-02 0.18231074E+03</pdfrwt>
<pdfrwt beam="2">  1       21 0.93234139E-01 0.18231074E+03</pdfrwt>
<totfact> 0.10475278E+05</totfact>
</mgrwt>
</event>
<event>
 4    1  0.4439578E+000  0.2592576E+03  0.7546771E-02  0.1107590E+00
         21   -1    0    0  501  502  0.00000000000E+00  0.00000000000E+00  0.33315987402E+03  0.33315987402E+03  0.00000000000E+00 0. -1.
         21   -1    0    0  502  503 -0.00000000000E+00 -0.00000000000E+00 -0.47341827834E+03  0.47341827834E+03  0.00000000000E+00 0.  1.
          6    1    1    2  501    0  0.13357130127E+03  0.13944248912E+03  0.23537319530E+03  0.35016430624E+03  0.17300000000E+03 0. -1.
         -6    1    1    2    0  503 -0.13357130127E+03 -0.13944248912E+03 -0.37563159963E+03  0.45641384613E+03  0.17300000000E+03 0.  1.
<mgrwt>
<rscale>  2 0.25925759E+03</rscale>
<asrwt>0</asrwt>
<pdfrwt beam="1">  1       21 0.51255365E-01 0.25925759E+03</pdfrwt>
<pdfrwt beam="2">  1       21 0.72833581E-01 0.25925759E+03</pdfrwt>
<totfact> 0.58720986E+03</totfact>
</mgrwt>
</event>
<event>
 4    1  0.4439578E+000  0.2247289E+03  0.7546771E-02  0.1130406E+00
         21   -1    0    0  503  502  0.00000000000E+00  0.00000000000E+00  0.62140692714E+03  0.62140692714E+03  0.00000000000E+00 0. -1.
         21   -1    0    0  501  503 -0.00000000000E+00 -0.00000000000E+00 -0.81305481897E+02  0.81305481897E+02  0.00000000000E+00 0.  1.
          6    1    1    2  501    0 -0.69923831863E+01 -0.14326609481E+03  0.26293500222E+03  0.34588709536E+03  0.17300000000E+03 0.  1.
         -6    1    1    2    0  502  0.69923831863E+01  0.14326609481E+03  0.27716644302E+03  0.35682531368E+03  0.17300000000E+03 0. -1.
<mgrwt>
<rscale>  2 0.22472888E+03</rscale>
<asrwt>0</asrwt>
<pdfrwt beam="1">  1       21 0.95601062E-01 0.22472888E+03</pdfrwt>
<pdfrwt beam="2">  1       21 0.12508536E-01 0.22472888E+03</pdfrwt>
<totfact> 0.48943838E+04</totfact>
</mgrwt>
</event>
<event>
 4    1  0.4439578E+000  0.2319544E+03  0.7546771E-02  0.1125272E+00
         21   -1    0    0  501  502  0.00000000000E+00  0.00000000000E+00  0.88623974026E+03  0.88623974026E+03  0.00000000000E+00 0.  1.
         21   -1    0    0  502  503 -0.00000000000E+00 -0.00000000000E+00 -0.23884513851E+03  0.23884513851E+03  0.00000000000E+00 0. -1.
          6    1    1    2  501    0 -0.12567760578E+03 -0.89883079529E+02  0.80951459213E+03  0.84209067413E+03  0.17300000000E+03 0.  1.
         -6    1    1    2    0  503  0.12567760578E+03  0.89883079529E+02 -0.16211999038E+03  0.28299420464E+03  0.17300000000E+03 0. -1.
<mgrwt>
<rscale>  2 0.23195437E+03</rscale>
<asrwt>0</asrwt>
<pdfrwt beam="1">  1       21 0.13634457E+00 0.23195437E+03</pdfrwt>
<pdfrwt beam="2">  1       21 0.36745406E-01 0.23195437E+03</pdfrwt>
<totfact> 0.26463297E+03</totfact>
</mgrwt>
</event>
<event>
 4    1  0.4439578E+000  0.2145916E+03  0.7546771E-02  0.1137981E+00
         21   -1    0    0  503  502  0.00000000000E+00  0.00000000000E+00  0.91393979005E+02  0.91393979005E+02  0.00000000000E+00 0. -1.
         21   -1    0    0  501  503 -0.00000000000E+00 -0.00000000000E+00 -0.60586638163E+03  0.60586638163E+03  0.00000000000E+00 0.  1.
          6    1    1    2  501    0  0.29031598969E+02  0.12360315918E+03 -0.40028847976E+03  0.45418106711E+03  0.17300000000E+03 0.  1.
         -6    1    1    2    0  502 -0.29031598969E+02 -0.12360315918E+03 -0.11418392287E+03  0.24307929352E+03  0.17300000000E+03 0. -1.
<mgrwt>
<rscale>  2 0.21459165E+03</rscale>
<asrwt>0</asrwt>
<pdfrwt beam="1">  1       21 0.14060612E-01 0.21459165E+03</pdfrwt>
<pdfrwt beam="2">  1       21 0.93210212E-01 0.21459165E+03</pdfrwt>
<totfact> 0.42242313E+04</totfact>
</mgrwt>
</event>
<event>
 4    1  0.4439578E+000  0.2330953E+03  0.7546771E-02  0.1124480E+00
         21   -1    0    0  503  502  0.00000000000E+00  0.00000000000E+00  0.79505625415E+03  0.79505625415E+03  0.00000000000E+00 0. -1.
         21   -1    0    0  501  503 -0.00000000000E+00 -0.00000000000E+00 -0.82290055267E+02  0.82290055267E+02  0.00000000000E+00 0.  1.
          6    1    1    2  501    0 -0.42348802663E+02 -0.15036946075E+03  0.17576136809E+03  0.29193398967E+03  0.17300000000E+03 0.  1.
         -6    1    1    2    0  502  0.42348802663E+02  0.15036946075E+03  0.53700483080E+03  0.58541231975E+03  0.17300000000E+03 0. -1.
<mgrwt>
<rscale>  2 0.23309525E+03</rscale>
<asrwt>0</asrwt>
<pdfrwt beam="1">  1       21 0.12231634E+00 0.23309525E+03</pdfrwt>
<pdfrwt beam="2">  1       21 0.12660009E-01 0.23309525E+03</pdfrwt>
<totfact> 0.26230053E+04</totfact>
</mgrwt>
</event>
<event>
 4    1  0.4439578E+000  0.1780048E+03  0.7546771E-02  0.1169748E+00
         21   -1    0    0  503  502  0.00000000000E+00  0.00000000000E+00  0.98952147903E+02  0.98952147903E+02  0.00000000000E+00 0.  1.
         21   -1    0    0  501  503 -0.00000000000E+00 -0.00000000000E+00 -0.32541493730E+03  0.32541493730E+03  0.00000000000E+00 0.  1.
          6    1    1    2  501    0 -0.14923980124E+02  0.39165927877E+02 -0.14006040403E+03  0.22650079882E+03  0.17300000000E+03 0. -1.
         -6    1    1    2    0  502  0.14923980124E+02 -0.39165927877E+02 -0.86402385363E+02  0.19786628638E+03  0.17300000000E+03 0. -1.
<mgrwt>
<rscale>  2 0.17800476E+03</rscale>
<asrwt>0</asrwt>
<pdfrwt beam="1">  1       21 0.15223407E-01 0.17800476E+03</pdfrwt>
<pdfrwt beam="2">  1       21 0.50063836E-01 0.17800476E+03</pdfrwt>
<totfact> 0.14582144E+05</totfact>
</mgrwt>
</event>
<event>
 4    1  0.4439578E+000  0.1887998E+03  0.7546771E-02  0.1159548E+00
         21   -1    0    0  501  502  0.00000000000E+00  0.00000000000E+00  0.77622973449E+03  0.77622973449E+03  0.00000000000E+00 0. -1.
         21   -1    0    0  502  503 -0.00000000000E+00 -0.00000000000E+00 -0.47418777455E+02  0.47418777455E+02  0.00000000000E+00 0. -1.
          6    1    1    2  501    0 -0.71249619554E+02 -0.25295717762E+02  0.43759265462E+03  0.47658442379E+03  0.17300000000E+03 0. -1.
         -6    1    1    2    0  503  0.71249619554E+02  0.25295717762E+02  0.29121830241E+03  0.34706408815E+03  0.17300000000E+03 0. -1.
<mgrwt>
<rscale>  2 0.18879985E+03</rscale>
<asrwt>0</asrwt>
<pdfrwt beam="1">  1       21 0.11941995E+00 0.18879985E+03</pdfrwt>
<pdfrwt beam="2">  1       21 0.72951971E-02 0.18879985E+03</pdfrwt>
<totfact> 0.75411070E+04</totfact>
</mgrwt>
</event>
<event>
 4    1  0.4439578E+000  0.2474057E+03  0.7546771E-02  0.1114955E+00
         21   -1    0    0  501  502  0.00000000000E+00  0.00000000000E+00  0.24551069699E+04  0.24551069699E+04  0.00000000000E+00 0. -1.
         21   -1    0    0  502  503 -0.00000000000E+00 -0.00000000000E+00 -0.27893157413E+02  0.27893157413E+02  0.00000000000E+00 0. -1.
          6    1    1    2  501    0  0.72148217589E+02 -0.16147826616E+03  0.80906600195E+03  0.84604810221E+03  0.17300000000E+03 0. -1.
         -6    1    1    2    0  503 -0.72148217589E+02  0.16147826616E+03  0.16181478106E+04  0.16369520251E+04  0.17300000000E+03 0. -1.
<mgrwt>
<rscale>  2 0.24740573E+03</rscale>
<asrwt>0</asrwt>
<pdfrwt beam="1">  1       21 0.37770859E+00 0.24740573E+03</pdfrwt>
<pdfrwt beam="2">  1       21 0.42912569E-02 0.24740573E+03</pdfrwt>
<totfact> 0.38950184E+03</totfact>
</mgrwt>
</event>
<event>
 4    1  0.4439578E+000  0.1975808E+03  0.7546771E-02  0.1151796E+00
         21   -1    0    0  501  502  0.00000000000E+00  0.00000000000E+00  0.12352889224E+04  0.12352889224E+04  0.00000000000E+00 0.  1.
         21   -1    0    0  502  503 -0.00000000000E+00 -0.00000000000E+00 -0.36773139945E+02  0.36773139945E+02  0.00000000000E+00 0.  1.
          6    1    1    2  501    0 -0.37378916198E+01  0.95368713037E+02  0.83775711108E+03  0.86074104145E+03  0.17300000000E+03 0.  1.
         -6    1    1    2    0  503  0.37378916198E+01 -0.95368713037E+02  0.36075867134E+03  0.41132102087E+03  0.17300000000E+03 0.  1.
<mgrwt>
<rscale>  2 0.19758078E+03</rscale>
<asrwt>0</asrwt>
<pdfrwt beam="1">  1       21 0.19004442E+00 0.19758078E+03</pdfrwt>
<pdfrwt beam="2">  1       21 0.56574071E-02 0.19758078E+03</pdfrwt>
<totfact> 0.33867561E+04</totfact>
</mgrwt>
</event>
<event>
 4    1  0.4439578E+000  0.1819599E+03  0.7546771E-02  0.1165920E+00
         21   -1    0    0  501  502  0.00000000000E+00  0.00000000000E+00  0.24617776996E+02  0.24617776996E+02  0.00000000000E+00 0. -1.
         21   -1    0    0  502  503 -0.00000000000E+00 -0.00000000000E+00 -0.14913220202E+04  0.14913220202E+04  0.00000000000E+00 0.  1.
          6    1    1    2  501    0 -0.14634319646E+02  0.54463279138E+02 -0.49588068937E+03  0.52821119846E+03  0.17300000000E+03 0. -1.
         -6    1    1    2    0  503  0.14634319646E+02 -0.54463279138E+02 -0.97082355382E+03  0.98772859873E+03  0.17300000000E+03 0.  1.
<mgrwt>
<rscale>  2 0.18195992E+03</rscale>
<asrwt>0</asrwt>
<pdfrwt beam="1">  1       21 0.37873501E-02 0.18195992E+03</pdfrwt>
<pdfrwt beam="2">  1       21 0.22943417E+00 0.18195992E+03</pdfrwt>
<totfact> 0.38157243E+04</totfact>
</mgrwt>
</event>
<event>
 4    1  0.4439578E+000  0.1806622E+03  0.7546771E-02  0.1167164E+00
         21   -1    0    0  503  502  0.00000000000E+00  0.00000000000E+00  0.11524083126E+04  0.11524083126E+04  0.00000000000E+00 0. -1.
         21   -1    0    0  501  503 -0.00000000000E+00 -0.00000000000E+00 -0.30083815039E+02  0.30083815039E+02  0.00000000000E+00 0.  1.
          6    1    1    2  501    0  0.50529116953E+02  0.12515668504E+02  0.70423178209E+03  0.72703592520E+03  0.17300000000E+03 0. -1.
         -6    1    1    2    0  502 -0.50529116953E+02 -0.12515668504E+02  0.41809271551E+03  0.45545620248E+03  0.17300000000E+03 0.  1.
<mgrwt>
<rscale>  2 0.18066221E+03</rscale>
<asrwt>0</asrwt>
<pdfrwt beam="1">  1       21 0.17729355E+00 0.18066221E+03</pdfrwt>
<pdfrwt beam="2">  1       21 0.46282801E-02 0.18066221E+03</pdfrwt>
<totfact> 0.58623125E+04</totfact>
</mgrwt>
</event>
<event>
 4    1  0.4439578E+000  0.1852549E+03  0.7546771E-02  0.1162812E+00
         21   -1    0    0  503  502  0.00000000000E+00  0.00000000000E+00  0.10209431123E+03  0.10209431123E+03  0.00000000000E+00 0.  1.
         21   -1    0    0  501  503 -0.00000000000E+00 -0.00000000000E+00 -0.63602789578E+03  0.63602789578E+03  0.00000000000E+00 0.  1.
          6    1    1    2  501    0  0.65718120338E+02  0.84564223275E+01 -0.52038028126E+03  0.55237217484E+03  0.17300000000E+03 0.  1.
         -6    1    1    2    0  502 -0.65718120338E+02 -0.84564223275E+01 -0.13553303300E+02  0.18575003217E+03  0.17300000000E+03 0.  1.
<mgrwt>
<rscale>  2 0.18525491E+03</rscale>
<asrwt>0</asrwt>
<pdfrwt beam="1">  1       21 0.15706817E-01 0.18525491E+03</pdfrwt>
<pdfrwt beam="2">  1       21 0.97850448E-01 0.18525491E+03</pdfrwt>
<totfact> 0.31298224E+04</totfact>
</mgrwt>
</event>
<event>
 4    1  0.4439578E+000  0.1977286E+03  0.7546771E-02  0.1151670E+00
         21   -1    0    0  501  502  0.00000000000E+00  0.00000000000E+00  0.51054523799E+02  0.51054523799E+02  0.00000000000E+00 0. -1.
         21   -1    0    0  502  503 -0.00000000000E+00 -0.00000000000E+00 -0.86520781340E+03  0.86520781340E+03  0.00000000000E+00 0. -1.
          6    1    1    2  501    0 -0.84905561001E+02  0.44256481568E+02 -0.25177318887E+03  0.32013486078E+03  0.17300000000E+03 0. -1.
         -6    1    1    2    0  503  0.84905561001E+02 -0.44256481568E+02 -0.56238010074E+03  0.59612747643E+03  0.17300000000E+03 0. -1.
<mgrwt>
<rscale>  2 0.19772858E+03</rscale>
<asrwt>0</asrwt>
<pdfrwt beam="1">  1       21 0.78545430E-02 0.19772858E+03</pdfrwt>
<pdfrwt beam="2">  1       21 0.13310888E+00 0.19772858E+03</pdfrwt>
<totfact> 0.50306805E+04</totfact>
</mgrwt>
</event>
<event>
 4    1  0.4439578E+000  0.1804136E+03  0.7546771E-02  0.1167403E+00
         21   -1    0    0  501  502  0.00000000000E+00  0.00000000000E+00  0.49021819837E+03  0.49021819837E+03  0.00000000000E+00 0. -1.
         21   -1    0    0  502  503 -0.00000000000E+00 -0.00000000000E+00 -0.21506896843E+03  0.21506896843E+03  0.00000000000E+00 0. -1.
          6    1    1    2  501    0  0.13355533925E+02  0.49413437163E+02  0.43077297414E+03  0.46702720832E+03  0.17300000000E+03 0. -1.
         -6    1    1    2    0  503 -0.13355533925E+02 -0.49413437163E+02 -0.15562374420E+03  0.23825995849E+03  0.17300000000E+03 0. -1.
<mgrwt>
<rscale>  2 0.18041358E+03</rscale>
<asrwt>0</asrwt>
<pdfrwt beam="1">  1       21 0.75418184E-01 0.18041358E+03</pdfrwt>
<pdfrwt beam="2">  1       21 0.33087534E-01 0.18041358E+03</pdfrwt>
<totfact> 0.13920674E+04</totfact>
</mgrwt>
</event>
<event>
 4    1  0.4439578E+000  0.1924959E+03  0.7546771E-02  0.1156229E+00
         21   -1    0    0  503  502  0.00000000000E+00  0.00000000000E+00  0.34868359875E+03  0.34868359875E+03  0.00000000000E+00 0. -1.
         21   -1    0    0  501  503 -0.00000000000E+00 -0.00000000000E+00 -0.23693271213E+03  0.23693271213E+03  0.00000000000E+00 0.  1.
          6    1    1    2  501    0  0.71661804521E+02 -0.44612187417E+02 -0.16156795450E+03  0.25131427619E+03  0.17300000000E+03 0.  1.
         -6    1    1    2    0  502 -0.71661804521E+02  0.44612187417E+02  0.27331884111E+03  0.33430203469E+03  0.17300000000E+03 0. -1.
<mgrwt>
<rscale>  2 0.19249587E+03</rscale>
<asrwt>0</asrwt>
<pdfrwt beam="1">  1       21 0.53643631E-01 0.19249587E+03</pdfrwt>
<pdfrwt beam="2">  1       21 0.36451186E-01 0.19249587E+03</pdfrwt>
<totfact> 0.23869149E+04</totfact>
</mgrwt>
</event>
<event>
 4    1  0.4439578E+000  0.1759675E+03  0.7546771E-02  0.1171764E+00
         21   -1    0    0  501  502  0.00000000000E+00  0.00000000000E+00  0.35984084667E+03  0.35984084667E+03  0.00000000000E+00 0.  1.
         21   -1    0    0  502  503 -0.00000000000E+00 -0.00000000000E+00 -0.21287144862E+03  0.21287144862E+03  0.00000000000E+00 0.  1.
          6    1    1    2  501    0 -0.30870918838E+02 -0.90858129947E+01  0.29451047165E+03  0.34307576939E+03  0.17300000000E+03 0.  1.
         -6    1    1    2    0  503  0.30870918838E+02  0.90858129947E+01 -0.14754107360E+03  0.22963652590E+03  0.17300000000E+03 0.  1.
<mgrwt>
<rscale>  2 0.17596751E+03</rscale>
<asrwt>0</asrwt>
<pdfrwt beam="1">  1       21 0.55360130E-01 0.17596751E+03</pdfrwt>
<pdfrwt beam="2">  1       21 0.32749454E-01 0.17596751E+03</pdfrwt>
<totfact> 0.27866003E+04</totfact>
</mgrwt>
</event>
<event>
 4    1  0.4439578E+000  0.2133330E+03  0.7546771E-02  0.1138953E+00
         21   -1    0    0  503  502  0.00000000000E+00  0.00000000000E+00  0.41200733897E+03  0.41200733897E+03  0.00000000000E+00 0.  1.
         21   -1    0    0  501  503 -0.00000000000E+00 -0.00000000000E+00 -0.28107812175E+03  0.28107812175E+03  0.00000000000E+00 0.  1.
          6    1    1    2  501    0  0.80025885808E+02 -0.95800943860E+02 -0.20452925626E+03  0.29553879595E+03  0.17300000000E+03 0.  1.
         -6    1    1    2    0  502 -0.80025885808E+02  0.95800943860E+02  0.33545847348E+03  0.39754666478E+03  0.17300000000E+03 0.  1.
<mgrwt>
<rscale>  2 0.21333299E+03</rscale>
<asrwt>0</asrwt>
<pdfrwt beam="1">  1       21 0.63385744E-01 0.21333299E+03</pdfrwt>
<pdfrwt beam="2">  1       21 0.43242788E-01 0.21333299E+03</pdfrwt>
<totfact> 0.11674853E+04</totfact>
</mgrwt>
</event>
<event>
 4    1  0.4439578E+000  0.1771168E+03  0.7546771E-02  0.1170623E+00
         21   -1    0    0  503  502  0.00000000000E+00  0.00000000000E+00  0.13127967673E+03  0.13127967673E+03  0.00000000000E+00 0.  1.
         21   -1    0    0  501  503 -0.00000000000E+00 -0.00000000000E+00 -0.23895882543E+03  0.23895882543E+03  0.00000000000E+00 0.  1.
          6    1    1    2  501    0  0.33310489324E+02 -0.18214903235E+02 -0.54107997153E+02  0.18519731843E+03  0.17300000000E+03 0.  1.
         -6    1    1    2    0  502 -0.33310489324E+02  0.18214903235E+02 -0.53571151544E+02  0.18504118373E+03  0.17300000000E+03 0.  1.
<mgrwt>
<rscale>  2 0.17711683E+03</rscale>
<asrwt>0</asrwt>
<pdfrwt beam="1">  1       21 0.20196874E-01 0.17711683E+03</pdfrwt>
<pdfrwt beam="2">  1       21 0.36762896E-01 0.17711683E+03</pdfrwt>
<totfact> 0.16251835E+05</totfact>
</mgrwt>
</event>
<event>
 4    1  0.4439578E+000  0.2833947E+03  0.7546771E-02  0.1093849E+00
         21   -1    0    0  503  502  0.00000000000E+00  0.00000000000E+00  0.31676031819E+03  0.31676031819E+03  0.00000000000E+00 0.  1.
         21   -1    0    0  501  503 -0.00000000000E+00 -0.00000000000E+00 -0.29881585264E+03  0.29881585264E+03  0.00000000000E+00 0. -1.
          6    1    1    2  501    0 -0.13450561969E+03  0.17969924676E+03 -0.11083018734E+03  0.30429576310E+03  0.17300000000E+03 0. -1.
         -6    1    1    2    0  502  0.13450561969E+03 -0.17969924676E+03  0.12877465289E+03  0.31128040774E+03  0.17300000000E+03 0.  1.
<mgrwt>
<rscale>  2 0.28339474E+03</rscale>
<asrwt>0</asrwt>
<pdfrwt beam="1">  1       21 0.48732356E-01 0.28339474E+03</pdfrwt>
<pdfrwt beam="2">  1       21 0.45971670E-01 0.28339474E+03</pdfrwt>
<totfact> 0.17383278E+04</totfact>
</mgrwt>
</event>
<event>
 4    1  0.4439578E+000  0.1949990E+03  0.7546771E-02  0.1154028E+00
         21   -1    0    0  501  502  0.00000000000E+00  0.00000000000E+00  0.11166052724E+04  0.11166052724E+04  0.00000000000E+00 0.  1.
         21   -1    0    0  502  503 -0.00000000000E+00 -0.00000000000E+00 -0.37301150549E+02  0.37301150549E+02  0.00000000000E+00 0.  1.
          6    1    1    2  501    0  0.11858302267E+02 -0.89190692454E+02  0.70988644422E+03  0.73618160982E+03  0.17300000000E+03 0.  1.
         -6    1    1    2    0  503 -0.11858302267E+02  0.89190692454E+02  0.36941767760E+03  0.41772481310E+03  0.17300000000E+03 0.  1.
<mgrwt>
<rscale>  2 0.19499897E+03</rscale>
<asrwt>0</asrwt>
<pdfrwt beam="1">  1       21 0.17178540E+00 0.19499897E+03</pdfrwt>
<pdfrwt beam="2">  1       21 0.57386394E-02 0.19499897E+03</pdfrwt>
<totfact> 0.44050561E+04</totfact>
</mgrwt>
</event>
<event>
 4    1  0.4439578E+000  0.1854725E+03  0.7546771E-02  0.1162609E+00
         21   -1    0    0  501  502  0.00000000000E+00  0.00000000000E+00  0.13551775740E+03  0.13551775740E+03  0.00000000000E+00 0. -1.
         21   -1    0    0  502  503 -0.00000000000E+00 -0.00000000000E+00 -0.77068464879E+03  0.77068464879E+03  0.00000000000E+00 0. -1.
          6    1    1    2  501    0  0.47261688606E+02 -0.47300870776E+02  0.53469783743E+02  0.19302605358E+03  0.17300000000E+03 0. -1.
         -6    1    1    2    0  503 -0.47261688606E+02  0.47300870776E+02 -0.68863667514E+03  0.71317635262E+03  0.17300000000E+03 0. -1.
<mgrwt>
<rscale>  2 0.18547248E+03</rscale>
<asrwt>0</asrwt>
<pdfrwt beam="1">  1       21 0.20848885E-01 0.18547248E+03</pdfrwt>
<pdfrwt beam="2">  1       21 0.11856687E+00 0.18547248E+03</pdfrwt>
<totfact> 0.11677076E+04</totfact>
</mgrwt>
</event>
<event>
 4    1  0.4439578E+000  0.3778077E+03  0.7546771E-02  0.1051747E+00
         21   -1    0    0  503  502  0.00000000000E+00  0.00000000000E+00  0.40368105534E+03  0.40368105534E+03  0.00000000000E+00 0.  1.
         21   -1    0    0  501  503 -0.00000000000E+00 -0.00000000000E+00 -0.36131383716E+03  0.36131383716E+03  0.00000000000E+00 0. -1.
          6    1    1    2  501    0 -0.69931831210E+02 -0.32851058950E+03  0.77098474716E+02  0.38559414315E+03  0.17300000000E+03 0. -1.
         -6    1    1    2    0  502  0.69931831210E+02  0.32851058950E+03 -0.34731256530E+02  0.37940074935E+03  0.17300000000E+03 0.  1.
<mgrwt>
<rscale>  2 0.37780771E+03</rscale>
<asrwt>0</asrwt>
<pdfrwt beam="1">  1       21 0.62104778E-01 0.37780771E+03</pdfrwt>
<pdfrwt beam="2">  1       21 0.55586744E-01 0.37780771E+03</pdfrwt>
<totfact> 0.66556970E+03</totfact>
</mgrwt>
</event>
<event>
 4    1  0.4439578E+000  0.2099018E+03  0.7546771E-02  0.1141644E+00
         21   -1    0    0  503  502  0.00000000000E+00  0.00000000000E+00  0.12646037100E+03  0.12646037100E+03  0.00000000000E+00 0. -1.
         21   -1    0    0  501  503 -0.00000000000E+00 -0.00000000000E+00 -0.34963130216E+03  0.34963130216E+03  0.00000000000E+00 0. -1.
          6    1    1    2  501    0  0.68175144403E+01  0.11867305787E+03 -0.97457950783E+02  0.23142347621E+03  0.17300000000E+03 0. -1.
         -6    1    1    2    0  502 -0.68175144403E+01 -0.11867305787E+03 -0.12571298037E+03  0.24466819696E+03  0.17300000000E+03 0. -1.
<mgrwt>
<rscale>  2 0.20990182E+03</rscale>
<asrwt>0</asrwt>
<pdfrwt beam="1">  1       21 0.19455441E-01 0.20990182E+03</pdfrwt>
<pdfrwt beam="2">  1       21 0.53789432E-01 0.20990182E+03</pdfrwt>
<totfact> 0.78864961E+04</totfact>
</mgrwt>
</event>
<event>
 4    1  0.4439578E+000  0.1766953E+03  0.7546771E-02  0.1171040E+00
         21   -1    0    0  503  502  0.00000000000E+00  0.00000000000E+00  0.17240249917E+03  0.17240249917E+03  0.00000000000E+00 0.  1.
         21   -1    0    0  501  503 -0.00000000000E+00 -0.00000000000E+00 -0.35750167729E+03  0.35750167729E+03  0.00000000000E+00 0.  1.
          6    1    1    2  501    0 -0.35722493977E+02  0.40185190119E+01 -0.27866644672E+03  0.32996398834E+03  0.17300000000E+03 0.  1.
         -6    1    1    2    0  502  0.35722493977E+02 -0.40185190119E+01  0.93567268609E+02  0.19994018812E+03  0.17300000000E+03 0.  1.
<mgrwt>
<rscale>  2 0.17669535E+03</rscale>
<asrwt>0</asrwt>
<pdfrwt beam="1">  1       21 0.26523462E-01 0.17669535E+03</pdfrwt>
<pdfrwt beam="2">  1       21 0.55000257E-01 0.17669535E+03</pdfrwt>
<totfact> 0.42521400E+04</totfact>
</mgrwt>
</event>
<event>
 4    1  0.4439578E+000  0.1860429E+03  0.7546771E-02  0.1162080E+00
         21   -1    0    0  501  502  0.00000000000E+00  0.00000000000E+00  0.10519884535E+03  0.10519884535E+03  0.00000000000E+00 0. -1.
         21   -1    0    0  502  503 -0.00000000000E+00 -0.00000000000E+00 -0.33129834060E+03  0.33129834060E+03  0.00000000000E+00 0. -1.
          6    1    1    2  501    0  0.62778298716E+02  0.27236858908E+02 -0.13116984232E+03  0.22763455099E+03  0.17300000000E+03 0.  1.
         -6    1    1    2    0  503 -0.62778298716E+02 -0.27236858908E+02 -0.94929652940E+02  0.20886263495E+03  0.17300000000E+03 0.  1.
<mgrwt>
<rscale>  2 0.18604290E+03</rscale>
<asrwt>0</asrwt>
<pdfrwt beam="1">  1       21 0.16184438E-01 0.18604290E+03</pdfrwt>
<pdfrwt beam="2">  1       21 0.50968974E-01 0.18604290E+03</pdfrwt>
<totfact> 0.12527972E+05</totfact>
</mgrwt>
</event>
<event>
 4    1  0.4439578E+000  0.2043457E+03  0.7546771E-02  0.1146123E+00
         21   -1    0    0  503  502  0.00000000000E+00  0.00000000000E+00  0.79135706414E+03  0.79135706414E+03  0.00000000000E+00 0.  1.
         21   -1    0    0  501  503 -0.00000000000E+00 -0.00000000000E+00 -0.13463560676E+03  0.13463560676E+03  0.00000000000E+00 0. -1.
          6    1    1    2  501    0  0.60220858769E+01  0.10859047137E+03 -0.32681140180E+02  0.20694253530E+03  0.17300000000E+03 0. -1.
         -6    1    1    2    0  502 -0.60220858769E+01 -0.10859047137E+03  0.68940259756E+03  0.71905013561E+03  0.17300000000E+03 0.  1.
<mgrwt>
<rscale>  2 0.20434568E+03</rscale>
<asrwt>0</asrwt>
<pdfrwt beam="1">  1       21 0.12174724E+00 0.20434568E+03</pdfrwt>
<pdfrwt beam="2">  1       21 0.20713171E-01 0.20434568E+03</pdfrwt>
<totfact> 0.10922793E+04</totfact>
</mgrwt>
</event>
<event>
 4    1  0.4439578E+000  0.2193098E+03  0.7546771E-02  0.1134399E+00
         21   -1    0    0  501  502  0.00000000000E+00  0.00000000000E+00  0.55575736252E+03  0.55575736252E+03  0.00000000000E+00 0.  1.
         21   -1    0    0  502  503 -0.00000000000E+00 -0.00000000000E+00 -0.19308221603E+03  0.19308221603E+03  0.00000000000E+00 0.  1.
          6    1    1    2  501    0  0.73722414877E+02 -0.11283959897E+03  0.45946442415E+03  0.50912113157E+03  0.17300000000E+03 0.  1.
         -6    1    1    2    0  503 -0.73722414877E+02  0.11283959897E+03 -0.96789277656E+02  0.23971844698E+03  0.17300000000E+03 0.  1.
<mgrwt>
<rscale>  2 0.21930976E+03</rscale>
<asrwt>0</asrwt>
<pdfrwt beam="1">  1       21 0.85501132E-01 0.21930976E+03</pdfrwt>
<pdfrwt beam="2">  1       21 0.29704957E-01 0.21930976E+03</pdfrwt>
<totfact> 0.12623257E+04</totfact>
</mgrwt>
</event>
<event>
 4    1  0.4439578E+000  0.2215567E+03  0.7546771E-02  0.1132728E+00
         21   -1    0    0  503  502  0.00000000000E+00  0.00000000000E+00  0.41794654513E+03  0.41794654513E+03  0.00000000000E+00 0. -1.
         21   -1    0    0  501  503 -0.00000000000E+00 -0.00000000000E+00 -0.17727991190E+03  0.17727991190E+03  0.00000000000E+00 0.  1.
          6    1    1    2  501    0  0.13807213571E+03 -0.97195075787E+01 -0.52562885978E+02  0.22770647876E+03  0.17300000000E+03 0.  1.
         -6    1    1    2    0  502 -0.13807213571E+03  0.97195075787E+01  0.29322951922E+03  0.36751997827E+03  0.17300000000E+03 0. -1.
<mgrwt>
<rscale>  2 0.22155673E+03</rscale>
<asrwt>0</asrwt>
<pdfrwt beam="1">  1       21 0.64299468E-01 0.22155673E+03</pdfrwt>
<pdfrwt beam="2">  1       21 0.27273833E-01 0.22155673E+03</pdfrwt>
<totfact> 0.28156704E+04</totfact>
</mgrwt>
</event>
<event>
 4    1  0.4439578E+000  0.2454783E+03  0.7546771E-02  0.1116196E+00
         21   -1    0    0  501  502  0.00000000000E+00  0.00000000000E+00  0.73632428355E+03  0.73632428355E+03  0.00000000000E+00 0. -1.
         21   -1    0    0  502  503 -0.00000000000E+00 -0.00000000000E+00 -0.34869208524E+03  0.34869208524E+03  0.00000000000E+00 0.  1.
          6    1    1    2  501    0 -0.16953725562E+03  0.39846227636E+02  0.66840966941E+03  0.71206115542E+03  0.17300000000E+03 0. -1.
         -6    1    1    2    0  503  0.16953725562E+03 -0.39846227636E+02 -0.28077747110E+03  0.37295521336E+03  0.17300000000E+03 0.  1.
<mgrwt>
<rscale>  2 0.24547831E+03</rscale>
<asrwt>0</asrwt>
<pdfrwt beam="1">  1       21 0.11328066E+00 0.24547831E+03</pdfrwt>
<pdfrwt beam="2">  1       21 0.53644936E-01 0.24547831E+03</pdfrwt>
<totfact> 0.19130573E+03</totfact>
</mgrwt>
</event>
<event>
 4    1  0.4439578E+000  0.1900135E+03  0.7546771E-02  0.1158449E+00
         21   -1    0    0  503  502  0.00000000000E+00  0.00000000000E+00  0.24031550204E+03  0.24031550204E+03  0.00000000000E+00 0.  1.
         21   -1    0    0  501  503 -0.00000000000E+00 -0.00000000000E+00 -0.19878347429E+03  0.19878347429E+03  0.00000000000E+00 0.  1.
          6    1    1    2  501    0 -0.75035686845E+02 -0.23361542850E+02 -0.87727950499E+02  0.20928762334E+03  0.17300000000E+03 0.  1.
         -6    1    1    2    0  502  0.75035686845E+02  0.23361542850E+02  0.12925997826E+03  0.22981135299E+03  0.17300000000E+03 0.  1.
<mgrwt>
<rscale>  2 0.19001346E+03</rscale>
<asrwt>0</asrwt>
<pdfrwt beam="1">  1       21 0.36971616E-01 0.19001346E+03</pdfrwt>
<pdfrwt beam="2">  1       21 0.30582073E-01 0.19001346E+03</pdfrwt>
<totfact> 0.72501702E+04</totfact>
</mgrwt>
</event>
<event>
 4    1  0.4439578E+000  0.2592574E+03  0.7546771E-02  0.1107590E+00
         21   -1    0    0  503  502  0.00000000000E+00  0.00000000000E+00  0.14603544508E+03  0.14603544508E+03  0.00000000000E+00 0.  1.
         21   -1    0    0  501  503 -0.00000000000E+00 -0.00000000000E+00 -0.25600884286E+04  0.25600884286E+04  0.00000000000E+00 0.  1.
          6    1    1    2  501    0  0.71040240626E+02 -0.17955137566E+03 -0.24324381317E+04  0.24462153783E+04  0.17300000000E+03 0.  1.
         -6    1    1    2    0  502 -0.71040240626E+02  0.17955137566E+03  0.18385148231E+02  0.25990849537E+03  0.17300000000E+03 0.  1.
<mgrwt>
<rscale>  2 0.25925742E+03</rscale>
<asrwt>0</asrwt>
<pdfrwt beam="1">  1       21 0.22466994E-01 0.25925742E+03</pdfrwt>
<pdfrwt beam="2">  1       21 0.39385972E+00 0.25925742E+03</pdfrwt>
<totfact> 0.15965803E+02</totfact>
</mgrwt>
</event>
<event>
 4    1  0.4439578E+000  0.1939353E+03  0.7546771E-02  0.1154959E+00
         21   -1    0    0  503  502  0.00000000000E+00  0.00000000000E+00  0.13903795340E+03  0.13903795340E+03  0.00000000000E+00 0.  1.
         21   -1    0    0  501  503 -0.00000000000E+00 -0.00000000000E+00 -0.28331906143E+03  0.28331906143E+03  0.00000000000E+00 0. -1.
          6    1    1    2  501    0 -0.87270432138E+02 -0.81092345751E+01 -0.27234671017E+02  0.19583823763E+03  0.17300000000E+03 0. -1.
         -6    1    1    2    0  502  0.87270432138E+02  0.81092345751E+01 -0.11704643701E+03  0.22651877721E+03  0.17300000000E+03 0. -1.
<mgrwt>
<rscale>  2 0.19393527E+03</rscale>
<asrwt>0</asrwt>
<pdfrwt beam="1">  1       21 0.21390454E-01 0.19393527E+03</pdfrwt>
<pdfrwt beam="2">  1       21 0.43587548E-01 0.19393527E+03</pdfrwt>
<totfact> 0.10290524E+05</totfact>
</mgrwt>
</event>
<event>
 4    1  0.4439578E+000  0.2132017E+03  0.7546771E-02  0.1139055E+00
         21   -1    0    0  501  502  0.00000000000E+00  0.00000000000E+00  0.15858793763E+03  0.15858793763E+03  0.00000000000E+00 0. -1.
         21   -1    0    0  502  503 -0.00000000000E+00 -0.00000000000E+00 -0.30188805051E+03  0.30188805051E+03  0.00000000000E+00 0. -1.
          6    1    1    2  501    0  0.12165762916E+03  0.26932638279E+02 -0.12342308571E+03  0.24634975913E+03  0.17300000000E+03 0. -1.
         -6    1    1    2    0  503 -0.12165762916E+03 -0.26932638279E+02 -0.19877027167E+02  0.21412622900E+03  0.17300000000E+03 0. -1.
<mgrwt>
<rscale>  2 0.21320166E+03</rscale>
<asrwt>0</asrwt>
<pdfrwt beam="1">  1       21 0.24398144E-01 0.21320166E+03</pdfrwt>
<pdfrwt beam="2">  1       21 0.46444315E-01 0.21320166E+03</pdfrwt>
<totfact> 0.69819917E+04</totfact>
</mgrwt>
</event>
<event>
 4    1  0.4439578E+000  0.1792372E+03  0.7546771E-02  0.1168543E+00
         21   -1    0    0  503  502  0.00000000000E+00  0.00000000000E+00  0.81319619209E+02  0.81319619209E+02  0.00000000000E+00 0. -1.
         21   -1    0    0  501  503 -0.00000000000E+00 -0.00000000000E+00 -0.43516376950E+03  0.43516376950E+03  0.00000000000E+00 0.  1.
          6    1    1    2  501    0  0.46225655976E+02 -0.77572897506E+01 -0.25531954499E+03  0.31195201052E+03  0.17300000000E+03 0.  1.
         -6    1    1    2    0  502 -0.46225655976E+02  0.77572897506E+01 -0.98524605309E+02  0.20453137819E+03  0.17300000000E+03 0. -1.
<mgrwt>
<rscale>  2 0.17923724E+03</rscale>
<asrwt>0</asrwt>
<pdfrwt beam="1">  1       21 0.12510711E-01 0.17923724E+03</pdfrwt>
<pdfrwt beam="2">  1       21 0.66948272E-01 0.17923724E+03</pdfrwt>
<totfact> 0.11184347E+05</totfact>
</mgrwt>
</event>
<event>
 4    1  0.4439578E+000  0.2047387E+03  0.7546771E-02  0.1145801E+00
         21   -1    0    0  501  502  0.00000000000E+00  0.00000000000E+00  0.36936607198E+03  0.36936607198E+03  0.00000000000E+00 0. -1.
         21   -1    0    0  502  503 -0.00000000000E+00 -0.00000000000E+00 -0.11373007238E+03  0.11373007238E+03  0.00000000000E+00 0. -1.
          6    1    1    2  501    0 -0.95054725245E+02 -0.54346595738E+02  0.11663279366E+03  0.23562928896E+03  0.17300000000E+03 0. -1.
         -6    1    1    2    0  503  0.95054725245E+02  0.54346595738E+02  0.13900320594E+03  0.24746685540E+03  0.17300000000E+03 0. -1.
<mgrwt>
<rscale>  2 0.20473874E+03</rscale>
<asrwt>0</asrwt>
<pdfrwt beam="1">  1       21 0.56825549E-01 0.20473874E+03</pdfrwt>
<pdfrwt beam="2">  1       21 0.17496934E-01 0.20473874E+03</pdfrwt>
<totfact> 0.85662795E+04</totfact>
</mgrwt>
</event>
<event>
 4    1  0.4439578E+000  0.2365754E+03  0.7546771E-02  0.1122095E+00
         21   -1    0    0  503  502  0.00000000000E+00  0.00000000000E+00  0.60374237906E+02  0.60374237906E+02  0.00000000000E+00 0. -1.
         21   -1    0    0  501  503 -0.00000000000E+00 -0.00000000000E+00 -0.10300921206E+04  0.10300921206E+04  0.00000000000E+00 0.  1.
          6    1    1    2  501    0 -0.55667215998E+02 -0.15145979175E+03 -0.65733248092E+03  0.69860854413E+03  0.17300000000E+03 0.  1.
         -6    1    1    2    0  502  0.55667215998E+02  0.15145979175E+03 -0.31238540181E+03  0.39185781442E+03  0.17300000000E+03 0. -1.
<mgrwt>
<rscale>  2 0.23657537E+03</rscale>
<asrwt>0</asrwt>
<pdfrwt beam="1">  1       21 0.92883448E-02 0.23657537E+03</pdfrwt>
<pdfrwt beam="2">  1       21 0.15847570E+00 0.23657537E+03</pdfrwt>
<totfact> 0.23221441E+04</totfact>
</mgrwt>
</event>
<event>
 4    1  0.4439578E+000  0.3356516E+03  0.7546771E-02  0.1068663E+00
         21   -1    0    0  503  502  0.00000000000E+00  0.00000000000E+00  0.13613859114E+04  0.13613859114E+04  0.00000000000E+00 0.  1.
         21   -1    0    0  501  503 -0.00000000000E+00 -0.00000000000E+00 -0.82924770867E+02  0.82924770867E+02  0.00000000000E+00 0. -1.
          6    1    1    2  501    0  0.31118208024E+02 -0.28594518504E+03  0.60659064075E+03  0.69326343995E+03  0.17300000000E+03 0. -1.
         -6    1    1    2    0  502 -0.31118208024E+02  0.28594518504E+03  0.67187049979E+03  0.75104724233E+03  0.17300000000E+03 0. -1.
<mgrwt>
<rscale>  2 0.33565159E+03</rscale>
<asrwt>0</asrwt>
<pdfrwt beam="1">  1       21 0.20944397E+00 0.33565159E+03</pdfrwt>
<pdfrwt beam="2">  1       21 0.12757658E-01 0.33565159E+03</pdfrwt>
<totfact> 0.55612632E+03</totfact>
</mgrwt>
</event>
<event>
 4    1  0.4439578E+000  0.1893914E+03  0.7546771E-02  0.1159011E+00
         21   -1    0    0  501  502  0.00000000000E+00  0.00000000000E+00  0.76288452187E+02  0.76288452187E+02  0.00000000000E+00 0.  1.
         21   -1    0    0  502  503 -0.00000000000E+00 -0.00000000000E+00 -0.87988931471E+03  0.87988931471E+03  0.00000000000E+00 0.  1.
          6    1    1    2  501    0 -0.59574428279E+01 -0.76841588651E+02 -0.75562978164E+02  0.20390901044E+03  0.17300000000E+03 0.  1.
         -6    1    1    2    0  503  0.59574428279E+01  0.76841588651E+02 -0.72803788436E+03  0.75226875645E+03  0.17300000000E+03 0.  1.
<mgrwt>
<rscale>  2 0.18939145E+03</rscale>
<asrwt>0</asrwt>
<pdfrwt beam="1">  1       21 0.11736684E-01 0.18939145E+03</pdfrwt>
<pdfrwt beam="2">  1       21 0.13536760E+00 0.18939145E+03</pdfrwt>
<totfact> 0.23868760E+04</totfact>
</mgrwt>
</event>
<event>
 4    1  0.4439578E+000  0.1846197E+03  0.7546771E-02  0.1163406E+00
         21   -1    0    0  501  502  0.00000000000E+00  0.00000000000E+00  0.21455832130E+03  0.21455832130E+03  0.00000000000E+00 0. -1.
         21   -1    0    0  502  503 -0.00000000000E+00 -0.00000000000E+00 -0.16855665965E+03  0.16855665965E+03  0.00000000000E+00 0. -1.
          6    1    1    2  501    0 -0.37753134389E+01 -0.64351952732E+02  0.68949127124E+02  0.19707462785E+03  0.17300000000E+03 0.  1.
         -6    1    1    2    0  503  0.37753134389E+01  0.64351952732E+02 -0.22947465474E+02  0.18604035311E+03  0.17300000000E+03 0.  1.
<mgrwt>
<rscale>  2 0.18461968E+03</rscale>
<asrwt>0</asrwt>
<pdfrwt beam="1">  1       21 0.33008973E-01 0.18461968E+03</pdfrwt>
<pdfrwt beam="2">  1       21 0.25931794E-01 0.18461968E+03</pdfrwt>
<totfact> 0.12513218E+05</totfact>
</mgrwt>
</event>
<event>
 4    1  0.4439578E+000  0.2576613E+03  0.7546771E-02  0.1108557E+00
         21   -1    0    0  503  502  0.00000000000E+00  0.00000000000E+00  0.12153583078E+04  0.12153583078E+04  0.00000000000E+00 0. -1.
         21   -1    0    0  501  503 -0.00000000000E+00 -0.00000000000E+00 -0.57610624840E+02  0.57610624840E+02  0.00000000000E+00 0.  1.
          6    1    1    2  501    0  0.15021321918E+03  0.11788260848E+03  0.43398604442E+03  0.50471101370E+03  0.17300000000E+03 0. -1.
         -6    1    1    2    0  502 -0.15021321918E+03 -0.11788260848E+03  0.72376163858E+03  0.76825791898E+03  0.17300000000E+03 0. -1.
<mgrwt>
<rscale>  2 0.25766125E+03</rscale>
<asrwt>0</asrwt>
<pdfrwt beam="1">  1       21 0.18697818E+00 0.25766125E+03</pdfrwt>
<pdfrwt beam="2">  1       21 0.88631740E-02 0.25766125E+03</pdfrwt>
<totfact> 0.15681633E+04</totfact>
</mgrwt>
</event>
<event>
 4    1  0.4439578E+000  0.1903669E+03  0.7546771E-02  0.1158131E+00
         21   -1    0    0  503  502  0.00000000000E+00  0.00000000000E+00  0.44449026758E+03  0.44449026758E+03  0.00000000000E+00 0.  1.
         21   -1    0    0  501  503 -0.00000000000E+00 -0.00000000000E+00 -0.83247045928E+02  0.83247045928E+02  0.00000000000E+00 0.  1.
          6    1    1    2  501    0 -0.28090412689E+02 -0.74306577030E+02  0.21851155924E+03  0.28980483122E+03  0.17300000000E+03 0.  1.
         -6    1    1    2    0  502  0.28090412689E+02  0.74306577030E+02  0.14273166241E+03  0.23793248229E+03  0.17300000000E+03 0.  1.
<mgrwt>
<rscale>  2 0.19036685E+03</rscale>
<asrwt>0</asrwt>
<pdfrwt beam="1">  1       21 0.68383117E-01 0.19036685E+03</pdfrwt>
<pdfrwt beam="2">  1       21 0.12807238E-01 0.19036685E+03</pdfrwt>
<totfact> 0.10194807E+05</totfact>
</mgrwt>
</event>
<event>
 4    1  0.4439578E+000  0.2187230E+03  0.7546771E-02  0.1134839E+00
         21   -1    0    0  503  502  0.00000000000E+00  0.00000000000E+00  0.65234234407E+03  0.65234234407E+03  0.00000000000E+00 0.  1.
         21   -1    0    0  501  503 -0.00000000000E+00 -0.00000000000E+00 -0.73661868912E+02  0.73661868912E+02  0.00000000000E+00 0.  1.
          6    1    1    2  501    0 -0.92767751658E+02  0.96461967125E+02  0.26517289082E+03  0.34373889637E+03  0.17300000000E+03 0.  1.
         -6    1    1    2    0  502  0.92767751658E+02 -0.96461967125E+02  0.31350758434E+03  0.38226531662E+03  0.17300000000E+03 0.  1.
<mgrwt>
<rscale>  2 0.21872304E+03</rscale>
<asrwt>0</asrwt>
<pdfrwt beam="1">  1       21 0.10036036E+00 0.21872304E+03</pdfrwt>
<pdfrwt beam="2">  1       21 0.11332596E-01 0.21872304E+03</pdfrwt>
<totfact> 0.52225144E+04</totfact>
</mgrwt>
</event>
<event>
 4    1  0.4439578E+000  0.2983058E+03  0.7546771E-02  0.1086091E+00
         21   -1    0    0  501  502  0.00000000000E+00  0.00000000000E+00  0.14348990126E+03  0.14348990126E+03  0.00000000000E+00 0.  1.
         21   -1    0    0  502  503 -0.00000000000E+00 -0.00000000000E+00 -0.98661877455E+03  0.98661877455E+03  0.00000000000E+00 0. -1.
          6    1    1    2  501    0  0.21099897605E+03 -0.12056850095E+03 -0.77191036279E+02  0.30813112046E+03  0.17300000000E+03 0.  1.
         -6    1    1    2    0  503 -0.21099897605E+03  0.12056850095E+03 -0.76593783701E+03  0.82197755534E+03  0.17300000000E+03 0. -1.
<mgrwt>
<rscale>  2 0.29830577E+03</rscale>
<asrwt>0</asrwt>
<pdfrwt beam="1">  1       21 0.22075370E-01 0.29830577E+03</pdfrwt>
<pdfrwt beam="2">  1       21 0.15178750E+00 0.29830577E+03</pdfrwt>
<totfact> 0.51691425E+03</totfact>
</mgrwt>
</event>
<event>
 4    1  0.4439578E+000  0.1895336E+03  0.7546771E-02  0.1158883E+00
         21   -1    0    0  503  502  0.00000000000E+00  0.00000000000E+00  0.47637340147E+03  0.47637340147E+03  0.00000000000E+00 0. -1.
         21   -1    0    0  501  503 -0.00000000000E+00 -0.00000000000E+00 -0.13250624124E+03  0.13250624124E+03  0.00000000000E+00 0.  1.
          6    1    1    2  501    0  0.74296676237E+02 -0.21770925716E+02 -0.27909831856E+02  0.19157747263E+03  0.17300000000E+03 0.  1.
         -6    1    1    2    0  502 -0.74296676237E+02  0.21770925716E+02  0.37177699209E+03  0.41730217008E+03  0.17300000000E+03 0. -1.
<mgrwt>
<rscale>  2 0.18953356E+03</rscale>
<asrwt>0</asrwt>
<pdfrwt beam="1">  1       21 0.73288215E-01 0.18953356E+03</pdfrwt>
<pdfrwt beam="2">  1       21 0.20385576E-01 0.18953356E+03</pdfrwt>
<totfact> 0.37343202E+04</totfact>
</mgrwt>
</event>
<event>
 4    1  0.4439578E+000  0.1792583E+03  0.7546771E-02  0.1168523E+00
         21   -1    0    0  501  502  0.00000000000E+00  0.00000000000E+00  0.27066640524E+03  0.27066640524E+03  0.00000000000E+00 0.  1.
         21   -1    0    0  502  503 -0.00000000000E+00 -0.00000000000E+00 -0.15403737533E+03  0.15403737533E+03  0.00000000000E+00 0.  1.
          6    1    1    2  501    0  0.46800050986E+02 -0.37792127078E+01  0.15999486284E+03  0.24027459990E+03  0.17300000000E+03 0.  1.
         -6    1    1    2    0  503 -0.46800050986E+02  0.37792127078E+01 -0.43365832923E+02  0.18442918068E+03  0.17300000000E+03 0.  1.
<mgrwt>
<rscale>  2 0.17925827E+03</rscale>
<asrwt>0</asrwt>
<pdfrwt beam="1">  1       21 0.41640985E-01 0.17925827E+03</pdfrwt>
<pdfrwt beam="2">  1       21 0.23698058E-01 0.17925827E+03</pdfrwt>
<totfact> 0.93596320E+04</totfact>
</mgrwt>
</event>
<event>
 4    1  0.4439578E+000  0.2545399E+03  0.7546771E-02  0.1110469E+00
         21   -1    0    0  501  502  0.00000000000E+00  0.00000000000E+00  0.68578334100E+03  0.68578334100E+03  0.00000000000E+00 0.  1.
         21   -1    0    0  502  503 -0.00000000000E+00 -0.00000000000E+00 -0.14131705019E+03  0.14131705019E+03  0.00000000000E+00 0. -1.
          6    1    1    2  501    0 -0.12717954761E+03 -0.13670006072E+03  0.51032308018E+03  0.57028079933E+03  0.17300000000E+03 0.  1.
         -6    1    1    2    0  503  0.12717954761E+03  0.13670006072E+03  0.34143210629E+02  0.25681959186E+03  0.17300000000E+03 0. -1.
<mgrwt>
<rscale>  2 0.25453987E+03</rscale>
<asrwt>0</asrwt>
<pdfrwt beam="1">  1       21 0.10550513E+00 0.25453987E+03</pdfrwt>
<pdfrwt beam="2">  1       21 0.21741085E-01 0.25453987E+03</pdfrwt>
<totfact> 0.13734780E+04</totfact>
</mgrwt>
</event>
<event>
 4    1  0.4439578E+000  0.1895910E+03  0.7546771E-02  0.1158831E+00
         21   -1    0    0  501  502  0.00000000000E+00  0.00000000000E+00  0.60889044772E+02  0.60889044772E+02  0.00000000000E+00 0. -1.
         21   -1    0    0  502  503 -0.00000000000E+00 -0.00000000000E+00 -0.10314749938E+04  0.10314749938E+04  0.00000000000E+00 0.  1.
          6    1    1    2  501    0  0.61194279509E+02 -0.47655066592E+02 -0.12810420850E+03  0.22881309721E+03  0.17300000000E+03 0. -1.
         -6    1    1    2    0  503 -0.61194279509E+02  0.47655066592E+02 -0.84248174050E+03  0.86355094134E+03  0.17300000000E+03 0.  1.
<mgrwt>
<rscale>  2 0.18959099E+03</rscale>
<asrwt>0</asrwt>
<pdfrwt beam="1">  1       21 0.93675453E-02 0.18959099E+03</pdfrwt>
<pdfrwt beam="2">  1       21 0.15868846E+00 0.18959099E+03</pdfrwt>
<totfact> 0.23478505E+04</totfact>
</mgrwt>
</event>
<event>
 4    1  0.4439578E+000  0.1749773E+03  0.7546771E-02  0.1172755E+00
         21   -1    0    0  503  502  0.00000000000E+00  0.00000000000E+00  0.78515886829E+02  0.78515886829E+02  0.00000000000E+00 0.  1.
         21   -1    0    0  501  503 -0.00000000000E+00 -0.00000000000E+00 -0.58370966508E+03  0.58370966508E+03  0.00000000000E+00 0.  1.
          6    1    1    2  501    0 -0.24900925492E+02 -0.82459569505E+01 -0.44336786342E+03  0.47664673943E+03  0.17300000000E+03 0.  1.
         -6    1    1    2    0  502  0.24900925492E+02  0.82459569505E+01 -0.61825914832E+02  0.18557881248E+03  0.17300000000E+03 0.  1.
<mgrwt>
<rscale>  2 0.17497729E+03</rscale>
<asrwt>0</asrwt>
<pdfrwt beam="1">  1       21 0.12079367E-01 0.17497729E+03</pdfrwt>
<pdfrwt beam="2">  1       21 0.89801489E-01 0.17497729E+03</pdfrwt>
<totfact> 0.61748579E+04</totfact>
</mgrwt>
</event>
<event>
 4    1  0.4439578E+000  0.1948289E+03  0.7546771E-02  0.1154177E+00
         21   -1    0    0  501  502  0.00000000000E+00  0.00000000000E+00  0.17124743276E+03  0.17124743276E+03  0.00000000000E+00 0.  1.
         21   -1    0    0  502  503 -0.00000000000E+00 -0.00000000000E+00 -0.26201250711E+03  0.26201250711E+03  0.00000000000E+00 0.  1.
          6    1    1    2  501    0 -0.45593082845E+02  0.77139866901E+02  0.39634489854E+02  0.19881946850E+03  0.17300000000E+03 0.  1.
         -6    1    1    2    0  503  0.45593082845E+02 -0.77139866901E+02 -0.13039956421E+03  0.23444047137E+03  0.17300000000E+03 0.  1.
<mgrwt>
<rscale>  2 0.19482887E+03</rscale>
<asrwt>0</asrwt>
<pdfrwt beam="1">  1       21 0.26345759E-01 0.19482887E+03</pdfrwt>
<pdfrwt beam="2">  1       21 0.40309616E-01 0.19482887E+03</pdfrwt>
<totfact> 0.81175844E+04</totfact>
</mgrwt>
</event>
<event>
 4    1  0.4439578E+000  0.1799292E+03  0.7546771E-02  0.1167872E+00
         21   -1    0    0  503  502  0.00000000000E+00  0.00000000000E+00  0.18279183327E+03  0.18279183327E+03  0.00000000000E+00 0. -1.
         21   -1    0    0  501  503 -0.00000000000E+00 -0.00000000000E+00 -0.58917011625E+03  0.58917011625E+03  0.00000000000E+00 0. -1.
          6    1    1    2  501    0  0.48699889348E+02 -0.85937684908E+01 -0.52598284437E+03  0.55590690286E+03  0.17300000000E+03 0. -1.
         -6    1    1    2    0  502 -0.48699889348E+02  0.85937684908E+01  0.11960456139E+03  0.21605504666E+03  0.17300000000E+03 0. -1.
<mgrwt>
<rscale>  2 0.17992924E+03</rscale>
<asrwt>0</asrwt>
<pdfrwt beam="1">  1       21 0.28121821E-01 0.17992924E+03</pdfrwt>
<pdfrwt beam="2">  1       21 0.90641556E-01 0.17992924E+03</pdfrwt>
<totfact> 0.12593224E+04</totfact>
</mgrwt>
</event>
<event>
 4    1  0.4439578E+000  0.1870742E+03  0.7546771E-02  0.1161127E+00
         21   -1    0    0  501  502  0.00000000000E+00  0.00000000000E+00  0.18270466708E+03  0.18270466708E+03  0.00000000000E+00 0. -1.
         21   -1    0    0  502  503 -0.00000000000E+00 -0.00000000000E+00 -0.34652782176E+03  0.34652782176E+03  0.00000000000E+00 0. -1.
          6    1    1    2  501    0 -0.11275055595E+02  0.70289524242E+02  0.95052367737E+02  0.20983731010E+03  0.17300000000E+03 0. -1.
         -6    1    1    2    0  503  0.11275055595E+02 -0.70289524242E+02 -0.25887552241E+03  0.31939517874E+03  0.17300000000E+03 0. -1.
<mgrwt>
<rscale>  2 0.18707417E+03</rscale>
<asrwt>0</asrwt>
<pdfrwt beam="1">  1       21 0.28108410E-01 0.18707417E+03</pdfrwt>
<pdfrwt beam="2">  1       21 0.53311973E-01 0.18707417E+03</pdfrwt>
<totfact> 0.40396614E+04</totfact>
</mgrwt>
</event>
<event>
 4    1  0.4439578E+000  0.2042845E+03  0.7546771E-02  0.1146174E+00
         21   -1    0    0  501  502  0.00000000000E+00  0.00000000000E+00  0.34066535762E+03  0.34066535762E+03  0.00000000000E+00 0.  1.
         21   -1    0    0  502  503 -0.00000000000E+00 -0.00000000000E+00 -0.12274525340E+03  0.12274525340E+03  0.00000000000E+00 0. -1.
          6    1    1    2  501    0  0.10863299689E+03 -0.14194992750E+01  0.98642419918E+02  0.22685341082E+03  0.17300000000E+03 0.  1.
         -6    1    1    2    0  503 -0.10863299689E+03  0.14194992750E+01  0.11927768430E+03  0.23655720020E+03  0.17300000000E+03 0.  1.
<mgrwt>
<rscale>  2 0.20428447E+03</rscale>
<asrwt>0</asrwt>
<pdfrwt beam="1">  1       21 0.52410055E-01 0.20428447E+03</pdfrwt>
<pdfrwt beam="2">  1       21 0.18883885E-01 0.20428447E+03</pdfrwt>
<totfact> 0.88271588E+04</totfact>
</mgrwt>
</event>
<event>
 4    1  0.4439578E+000  0.2150795E+03  0.7546771E-02  0.1137606E+00
         21   -1    0    0  501  502  0.00000000000E+00  0.00000000000E+00  0.94477988770E+02  0.94477988770E+02  0.00000000000E+00 0.  1.
         21   -1    0    0  502  503 -0.00000000000E+00 -0.00000000000E+00 -0.66131655885E+03  0.66131655885E+03  0.00000000000E+00 0.  1.
          6    1    1    2  501    0  0.81915100023E+02  0.98082157001E+02 -0.90871701837E+02  0.23348845652E+03  0.17300000000E+03 0.  1.
         -6    1    1    2    0  503 -0.81915100023E+02 -0.98082157001E+02 -0.47596686825E+03  0.52230609110E+03  0.17300000000E+03 0.  1.
<mgrwt>
<rscale>  2 0.21507950E+03</rscale>
<asrwt>0</asrwt>
<pdfrwt beam="1">  1       21 0.14535075E-01 0.21507950E+03</pdfrwt>
<pdfrwt beam="2">  1       21 0.10174101E+00 0.21507950E+03</pdfrwt>
<totfact> 0.32324778E+04</totfact>
</mgrwt>
</event>
<event>
 4    1  0.4439578E+000  0.1958788E+03  0.7546771E-02  0.1153263E+00
         21   -1    0    0  503  502  0.00000000000E+00  0.00000000000E+00  0.74315080490E+03  0.74315080490E+03  0.00000000000E+00 0.  1.
         21   -1    0    0  501  503 -0.00000000000E+00 -0.00000000000E+00 -0.83144693280E+02  0.83144693280E+02  0.00000000000E+00 0.  1.
          6    1    1    2  501    0 -0.74238538023E+02  0.54112156785E+02  0.75643368940E+02  0.20997715424E+03  0.17300000000E+03 0.  1.
         -6    1    1    2    0  502  0.74238538023E+02 -0.54112156785E+02  0.58436274268E+03  0.61631834394E+03  0.17300000000E+03 0.  1.
<mgrwt>
<rscale>  2 0.19587875E+03</rscale>
<asrwt>0</asrwt>
<pdfrwt beam="1">  1       21 0.11433089E+00 0.19587875E+03</pdfrwt>
<pdfrwt beam="2">  1       21 0.12791492E-01 0.19587875E+03</pdfrwt>
<totfact> 0.31061416E+04</totfact>
</mgrwt>
</event>
<event>
 4    1  0.4439578E+000  0.2032890E+03  0.7546771E-02  0.1146993E+00
         21   -1    0    0  501  502  0.00000000000E+00  0.00000000000E+00  0.71562995154E+03  0.71562995154E+03  0.00000000000E+00 0. -1.
         21   -1    0    0  502  503 -0.00000000000E+00 -0.00000000000E+00 -0.60165128524E+02  0.60165128524E+02  0.00000000000E+00 0.  1.
          6    1    1    2  501    0  0.38473227145E+01  0.10668942628E+03  0.40547602138E+03  0.45358267106E+03  0.17300000000E+03 0. -1.
         -6    1    1    2    0  503 -0.38473227145E+01 -0.10668942628E+03  0.24998880164E+03  0.32221240901E+03  0.17300000000E+03 0.  1.
<mgrwt>
<rscale>  2 0.20328904E+03</rscale>
<asrwt>0</asrwt>
<pdfrwt beam="1">  1       21 0.11009691E+00 0.20328904E+03</pdfrwt>
<pdfrwt beam="2">  1       21 0.92561741E-02 0.20328904E+03</pdfrwt>
<totfact> 0.60277931E+04</totfact>
</mgrwt>
</event>
<event>
 4    1  0.4439578E+000  0.2495110E+03  0.7546771E-02  0.1113614E+00
         21   -1    0    0  501  502  0.00000000000E+00  0.00000000000E+00  0.12689343230E+04  0.12689343230E+04  0.00000000000E+00 0.  1.
         21   -1    0    0  502  503 -0.00000000000E+00 -0.00000000000E+00 -0.62718936294E+02  0.62718936294E+02  0.00000000000E+00 0.  1.
          6    1    1    2  501    0 -0.16648843325E+03  0.67884915834E+02  0.91381193036E+03  0.94726342919E+03  0.17300000000E+03 0.  1.
         -6    1    1    2    0  503  0.16648843325E+03 -0.67884915834E+02  0.29240345632E+03  0.38438983009E+03  0.17300000000E+03 0.  1.
<mgrwt>
<rscale>  2 0.24951104E+03</rscale>
<asrwt>0</asrwt>
<pdfrwt beam="1">  1       21 0.19522064E+00 0.24951104E+03</pdfrwt>
<pdfrwt beam="2">  1       21 0.96490681E-02 0.24951104E+03</pdfrwt>
<totfact> 0.11952111E+04</totfact>
</mgrwt>
</event>
<event>
 4    1  0.4439578E+000  0.2043981E+03  0.7546771E-02  0.1146080E+00
         21   -1    0    0  503  502  0.00000000000E+00  0.00000000000E+00  0.35853044348E+03  0.35853044348E+03  0.00000000000E+00 0. -1.
         21   -1    0    0  501  503 -0.00000000000E+00 -0.00000000000E+00 -0.12813167735E+03  0.12813167735E+03  0.00000000000E+00 0. -1.
          6    1    1    2  501    0 -0.85979989288E+02  0.66761042406E+02  0.41970965223E+02  0.20866278361E+03  0.17300000000E+03 0. -1.
         -6    1    1    2    0  502  0.85979989288E+02 -0.66761042406E+02  0.18842780091E+03  0.27799933722E+03  0.17300000000E+03 0. -1.
<mgrwt>
<rscale>  2 0.20439813E+03</rscale>
<asrwt>0</asrwt>
<pdfrwt beam="1">  1       21 0.55158529E-01 0.20439813E+03</pdfrwt>
<pdfrwt beam="2">  1       21 0.19712566E-01 0.20439813E+03</pdfrwt>
<totfact> 0.73140932E+04</totfact>
</mgrwt>
</event>
<event>
 4    1  0.4439578E+000  0.2079278E+03  0.7546771E-02  0.1143218E+00
         21   -1    0    0  501  502  0.00000000000E+00  0.00000000000E+00  0.42514130312E+03  0.42514130312E+03  0.00000000000E+00 0. -1.
         21   -1    0    0  502  503 -0.00000000000E+00 -0.00000000000E+00 -0.22713035775E+03  0.22713035775E+03  0.00000000000E+00 0.  1.
          6    1    1    2  501    0 -0.85798218087E+02  0.77094995998E+02  0.34137278829E+03  0.39971158754E+03  0.17300000000E+03 0. -1.
         -6    1    1    2    0  503  0.85798218087E+02 -0.77094995998E+02 -0.14336184292E+03  0.25256007333E+03  0.17300000000E+03 0.  1.
<mgrwt>
<rscale>  2 0.20792781E+03</rscale>
<asrwt>0</asrwt>
<pdfrwt beam="1">  1       21 0.65406354E-01 0.20792781E+03</pdfrwt>
<pdfrwt beam="2">  1       21 0.34943132E-01 0.20792781E+03</pdfrwt>
<totfact> 0.16814673E+04</totfact>
</mgrwt>
</event>
<event>
 4    1  0.4439578E+000  0.2096652E+03  0.7546771E-02  0.1141831E+00
         21   -1    0    0  503  502  0.00000000000E+00  0.00000000000E+00  0.13285033011E+04  0.13285033011E+04  0.00000000000E+00 0.  1.
         21   -1    0    0  501  503 -0.00000000000E+00 -0.00000000000E+00 -0.35207990817E+02  0.35207990817E+02  0.00000000000E+00 0. -1.
          6    1    1    2  501    0  0.11067823154E+03  0.42199946278E+02  0.47939023687E+03  0.52323465636E+03  0.17300000000E+03 0. -1.
         -6    1    1    2    0  502 -0.11067823154E+03 -0.42199946278E+02  0.81390507339E+03  0.84047663554E+03  0.17300000000E+03 0.  1.
<mgrwt>
<rscale>  2 0.20966522E+03</rscale>
<asrwt>0</asrwt>
<pdfrwt beam="1">  1       21 0.20438508E+00 0.20966522E+03</pdfrwt>
<pdfrwt beam="2">  1       21 0.54166150E-02 0.20966522E+03</pdfrwt>
<totfact> 0.29201275E+04</totfact>
</mgrwt>
</event>
<event>
 4    1  0.4439578E+000  0.2009792E+03  0.7546771E-02  0.1148915E+00
         21   -1    0    0  503  502  0.00000000000E+00  0.00000000000E+00  0.35773621353E+03  0.35773621353E+03  0.00000000000E+00 0.  1.
         21   -1    0    0  501  503 -0.00000000000E+00 -0.00000000000E+00 -0.15064454646E+03  0.15064454646E+03  0.00000000000E+00 0.  1.
          6    1    1    2  501    0 -0.98811805293E+02  0.26455278539E+02 -0.23670060200E+02  0.20236829390E+03  0.17300000000E+03 0.  1.
         -6    1    1    2    0  502  0.98811805293E+02 -0.26455278539E+02  0.23076172727E+03  0.30601246609E+03  0.17300000000E+03 0.  1.
<mgrwt>
<rscale>  2 0.20097924E+03</rscale>
<asrwt>0</asrwt>
<pdfrwt beam="1">  1       21 0.55036340E-01 0.20097924E+03</pdfrwt>
<pdfrwt beam="2">  1       21 0.23176084E-01 0.20097924E+03</pdfrwt>
<totfact> 0.54273015E+04</totfact>
</mgrwt>
</event>
<event>
 4    1  0.4439578E+000  0.1975749E+03  0.7546771E-02  0.1151801E+00
         21   -1    0    0  503  502  0.00000000000E+00  0.00000000000E+00  0.12109630459E+04  0.12109630459E+04  0.00000000000E+00 0.  1.
         21   -1    0    0  501  503 -0.00000000000E+00 -0.00000000000E+00 -0.38468197455E+03  0.38468197455E+03  0.00000000000E+00 0.  1.
          6    1    1    2  501    0  0.26420608106E+02 -0.91699463424E+02 -0.35052296440E+03  0.40237071054E+03  0.17300000000E+03 0.  1.
         -6    1    1    2    0  502 -0.26420608106E+02  0.91699463424E+02  0.11768040357E+04  0.11932743099E+04  0.17300000000E+03 0.  1.
<mgrwt>
<rscale>  2 0.19757490E+03</rscale>
<asrwt>0</asrwt>
<pdfrwt beam="1">  1       21 0.18630201E+00 0.19757490E+03</pdfrwt>
<pdfrwt beam="2">  1       21 0.59181843E-01 0.19757490E+03</pdfrwt>
<totfact> 0.43778586E+02</totfact>
</mgrwt>
</event>
<event>
 4    1  0.4439578E+000  0.2113628E+03  0.7546771E-02  0.1140491E+00
         21   -1    0    0  501  502  0.00000000000E+00  0.00000000000E+00  0.35254795512E+03  0.35254795512E+03  0.00000000000E+00 0. -1.
         21   -1    0    0  502  503 -0.00000000000E+00 -0.00000000000E+00 -0.16165062370E+03  0.16165062370E+03  0.00000000000E+00 0. -1.
          6    1    1    2  501    0  0.10586669995E+02 -0.12096760720E+03  0.21496481481E+03  0.30146991754E+03  0.17300000000E+03 0. -1.
         -6    1    1    2    0  503 -0.10586669995E+02  0.12096760720E+03 -0.24067483390E+02  0.21272866128E+03  0.17300000000E+03 0. -1.
<mgrwt>
<rscale>  2 0.21136282E+03</rscale>
<asrwt>0</asrwt>
<pdfrwt beam="1">  1       21 0.54238147E-01 0.21136282E+03</pdfrwt>
<pdfrwt beam="2">  1       21 0.24869327E-01 0.21136282E+03</pdfrwt>
<totfact> 0.48702450E+04</totfact>
</mgrwt>
</event>
<event>
 4    1  0.4439578E+000  0.2429432E+03  0.7546771E-02  0.1117848E+00
         21   -1    0    0  501  502  0.00000000000E+00  0.00000000000E+00  0.30975689553E+03  0.30975689553E+03  0.00000000000E+00 0.  1.
         21   -1    0    0  502  503 -0.00000000000E+00 -0.00000000000E+00 -0.28407806540E+03  0.28407806540E+03  0.00000000000E+00 0. -1.
          6    1    1    2  501    0  0.15973297998E+03 -0.59814641069E+02 -0.15753664833E+03  0.28955001597E+03  0.17300000000E+03 0. -1.
         -6    1    1    2    0  503 -0.15973297998E+03  0.59814641069E+02  0.18321547847E+03  0.30428494496E+03  0.17300000000E+03 0.  1.
<mgrwt>
<rscale>  2 0.24294324E+03</rscale>
<asrwt>0</asrwt>
<pdfrwt beam="1">  1       21 0.47654907E-01 0.24294324E+03</pdfrwt>
<pdfrwt beam="2">  1       21 0.43704318E-01 0.24294324E+03</pdfrwt>
<totfact> 0.20604683E+04</totfact>
</mgrwt>
</event>
<event>
 4    1  0.4439578E+000  0.1766682E+03  0.7546771E-02  0.1171067E+00
         21   -1    0    0  501  502  0.00000000000E+00  0.00000000000E+00  0.57441126491E+02  0.57441126491E+02  0.00000000000E+00 0.  1.
         21   -1    0    0  502  503 -0.00000000000E+00 -0.00000000000E+00 -0.65555976220E+03  0.65555976220E+03  0.00000000000E+00 0. -1.
          6    1    1    2  501    0 -0.82233734934E+00  0.35804496554E+02 -0.15157851691E+03  0.23278248431E+03  0.17300000000E+03 0.  1.
         -6    1    1    2    0  503  0.82233734934E+00 -0.35804496554E+02 -0.44654011880E+03  0.48021840438E+03  0.17300000000E+03 0. -1.
<mgrwt>
<rscale>  2 0.17666816E+03</rscale>
<asrwt>0</asrwt>
<pdfrwt beam="1">  1       21 0.88370966E-02 0.17666816E+03</pdfrwt>
<pdfrwt beam="2">  1       21 0.10085535E+00 0.17666816E+03</pdfrwt>
<totfact> 0.81715380E+04</totfact>
</mgrwt>
</event>
<event>
 4    1  0.4439578E+000  0.4112977E+03  0.7546771E-02  0.1039936E+00
         21   -1    0    0  501  502  0.00000000000E+00  0.00000000000E+00  0.19365392401E+03  0.19365392401E+03  0.00000000000E+00 0.  1.
         21   -1    0    0  502  503 -0.00000000000E+00 -0.00000000000E+00 -0.89361934797E+03  0.89361934797E+03  0.00000000000E+00 0. -1.
          6    1    1    2  501    0  0.95962439256E+02 -0.36059394543E+03 -0.43145927561E+03  0.59608966585E+03  0.17300000000E+03 0. -1.
         -6    1    1    2    0  503 -0.95962439256E+02  0.36059394543E+03 -0.26850614835E+03  0.49118360613E+03  0.17300000000E+03 0.  1.
<mgrwt>
<rscale>  2 0.41129768E+03</rscale>
<asrwt>0</asrwt>
<pdfrwt beam="1">  1       21 0.29792912E-01 0.41129768E+03</pdfrwt>
<pdfrwt beam="2">  1       21 0.13747990E+00 0.41129768E+03</pdfrwt>
<totfact> 0.35657786E+03</totfact>
</mgrwt>
</event>
<event>
 4    1  0.4439578E+000  0.2304374E+03  0.7546771E-02  0.1126332E+00
         21   -1    0    0  501  502  0.00000000000E+00  0.00000000000E+00  0.12689998945E+04  0.12689998945E+04  0.00000000000E+00 0.  1.
         21   -1    0    0  502  503 -0.00000000000E+00 -0.00000000000E+00 -0.20869250815E+03  0.20869250815E+03  0.00000000000E+00 0. -1.
          6    1    1    2  501    0  0.95094828472E+02 -0.11886706778E+03  0.11907868541E+04  0.12128786989E+04  0.17300000000E+03 0.  1.
         -6    1    1    2    0  503 -0.95094828472E+02  0.11886706778E+03 -0.13047946777E+03  0.26481370379E+03  0.17300000000E+03 0. -1.
<mgrwt>
<rscale>  2 0.23043742E+03</rscale>
<asrwt>0</asrwt>
<pdfrwt beam="1">  1       21 0.19523075E+00 0.23043742E+03</pdfrwt>
<pdfrwt beam="2">  1       21 0.32106540E-01 0.23043742E+03</pdfrwt>
<totfact> 0.12944945E+03</totfact>
</mgrwt>
</event>
<event>
 4    1  0.4439578E+000  0.2038161E+03  0.7546771E-02  0.1146559E+00
         21   -1    0    0  501  502  0.00000000000E+00  0.00000000000E+00  0.70463286091E+02  0.70463286091E+02  0.00000000000E+00 0. -1.
         21   -1    0    0  502  503 -0.00000000000E+00 -0.00000000000E+00 -0.97130511845E+03  0.97130511845E+03  0.00000000000E+00 0. -1.
          6    1    1    2  501    0 -0.93698455845E+02  0.53222191424E+02 -0.12386252229E+03  0.23850141869E+03  0.17300000000E+03 0. -1.
         -6    1    1    2    0  503  0.93698455845E+02 -0.53222191424E+02 -0.77697931007E+03  0.80326698585E+03  0.17300000000E+03 0. -1.
<mgrwt>
<rscale>  2 0.20381610E+03</rscale>
<asrwt>0</asrwt>
<pdfrwt beam="1">  1       21 0.10840507E-01 0.20381610E+03</pdfrwt>
<pdfrwt beam="2">  1       21 0.14943153E+00 0.20381610E+03</pdfrwt>
<totfact> 0.21077108E+04</totfact>
</mgrwt>
</event>
<event>
 4    1  0.4439578E+000  0.2417635E+03  0.7546771E-02  0.1118624E+00
         21   -1    0    0  503  502  0.00000000000E+00  0.00000000000E+00  0.39896057706E+03  0.39896057706E+03  0.00000000000E+00 0. -1.
         21   -1    0    0  501  503 -0.00000000000E+00 -0.00000000000E+00 -0.28388582415E+03  0.28388582415E+03  0.00000000000E+00 0.  1.
          6    1    1    2  501    0  0.15052443444E+03  0.76570152386E+02 -0.17997417297E+03  0.30139724042E+03  0.17300000000E+03 0.  1.
         -6    1    1    2    0  502 -0.15052443444E+03 -0.76570152386E+02  0.29504892587E+03  0.38144916078E+03  0.17300000000E+03 0. -1.
<mgrwt>
<rscale>  2 0.24176351E+03</rscale>
<asrwt>0</asrwt>
<pdfrwt beam="1">  1       21 0.61378550E-01 0.24176351E+03</pdfrwt>
<pdfrwt beam="2">  1       21 0.43674742E-01 0.24176351E+03</pdfrwt>
<totfact> 0.12062932E+04</totfact>
</mgrwt>
</event>
<event>
 4    1  0.4439578E+000  0.2568659E+03  0.7546771E-02  0.1109041E+00
         21   -1    0    0  501  502  0.00000000000E+00  0.00000000000E+00  0.68084557698E+03  0.68084557698E+03  0.00000000000E+00 0. -1.
         21   -1    0    0  502  503 -0.00000000000E+00 -0.00000000000E+00 -0.15564378442E+03  0.15564378442E+03  0.00000000000E+00 0.  1.
          6    1    1    2  501    0  0.83618175865E+02 -0.17046728993E+03  0.51952925918E+03  0.57956082287E+03  0.17300000000E+03 0.  1.
         -6    1    1    2    0  503 -0.83618175865E+02  0.17046728993E+03  0.56725333838E+01  0.25692853852E+03  0.17300000000E+03 0.  1.
<mgrwt>
<rscale>  2 0.25686591E+03</rscale>
<asrwt>0</asrwt>
<pdfrwt beam="1">  1       21 0.10474547E+00 0.25686591E+03</pdfrwt>
<pdfrwt beam="2">  1       21 0.23945198E-01 0.25686591E+03</pdfrwt>
<totfact> 0.11615199E+04</totfact>
</mgrwt>
</event>
<event>
 4    1  0.4439578E+000  0.1926474E+03  0.7546771E-02  0.1156095E+00
         21   -1    0    0  501  502  0.00000000000E+00  0.00000000000E+00  0.53119577617E+03  0.53119577617E+03  0.00000000000E+00 0. -1.
         21   -1    0    0  502  503 -0.00000000000E+00 -0.00000000000E+00 -0.13222352541E+03  0.13222352541E+03  0.00000000000E+00 0. -1.
          6    1    1    2  501    0 -0.27521802050E+02  0.80165816581E+02  0.42728155511E+03  0.46870303506E+03  0.17300000000E+03 0. -1.
         -6    1    1    2    0  503  0.27521802050E+02 -0.80165816581E+02 -0.28309304344E+02  0.19471626652E+03  0.17300000000E+03 0. -1.
<mgrwt>
<rscale>  2 0.19264737E+03</rscale>
<asrwt>0</asrwt>
<pdfrwt beam="1">  1       21 0.81722426E-01 0.19264737E+03</pdfrwt>
<pdfrwt beam="2">  1       21 0.20342081E-01 0.19264737E+03</pdfrwt>
<totfact> 0.29309963E+04</totfact>
</mgrwt>
</event>
<event>
 4    1  0.4439578E+000  0.3093782E+03  0.7546771E-02  0.1080644E+00
         21   -1    0    0  501  502  0.00000000000E+00  0.00000000000E+00  0.50762132040E+02  0.50762132040E+02  0.00000000000E+00 0. -1.
         21   -1    0    0  502  503 -0.00000000000E+00 -0.00000000000E+00 -0.19232394261E+04  0.19232394261E+04  0.00000000000E+00 0. -1.
          6    1    1    2  501    0  0.15530892462E+03  0.20412014871E+03 -0.79808262545E+03  0.85595021714E+03  0.17300000000E+03 0. -1.
         -6    1    1    2    0  503 -0.15530892462E+03 -0.20412014871E+03 -0.10743946686E+04  0.11180513410E+04  0.17300000000E+03 0. -1.
<mgrwt>
<rscale>  2 0.30937824E+03</rscale>
<asrwt>0</asrwt>
<pdfrwt beam="1">  1       21 0.78095611E-02 0.30937824E+03</pdfrwt>
<pdfrwt beam="2">  1       21 0.29588290E+00 0.30937824E+03</pdfrwt>
<totfact> 0.40546375E+03</totfact>
</mgrwt>
</event>
<event>
 4    1  0.4439578E+000  0.2011881E+03  0.7546771E-02  0.1148740E+00
         21   -1    0    0  503  502  0.00000000000E+00  0.00000000000E+00  0.14018755004E+04  0.14018755004E+04  0.00000000000E+00 0. -1.
         21   -1    0    0  501  503 -0.00000000000E+00 -0.00000000000E+00 -0.30108606574E+02  0.30108606574E+02  0.00000000000E+00 0. -1.
          6    1    1    2  501    0  0.33918164216E+02 -0.96939253916E+02  0.54085133295E+03  0.57705877099E+03  0.17300000000E+03 0. -1.
         -6    1    1    2    0  502 -0.33918164216E+02  0.96939253916E+02  0.83091556086E+03  0.85492533597E+03  0.17300000000E+03 0. -1.
<mgrwt>
<rscale>  2 0.20118812E+03</rscale>
<asrwt>0</asrwt>
<pdfrwt beam="1">  1       21 0.21567310E+00 0.20118812E+03</pdfrwt>
<pdfrwt beam="2">  1       21 0.46320944E-02 0.20118812E+03</pdfrwt>
<totfact> 0.32541581E+04</totfact>
</mgrwt>
</event>
<event>
 4    1  0.4439578E+000  0.1759024E+03  0.7546771E-02  0.1171829E+00
         21   -1    0    0  503  502  0.00000000000E+00  0.00000000000E+00  0.28788827816E+03  0.28788827816E+03  0.00000000000E+00 0.  1.
         21   -1    0    0  501  503 -0.00000000000E+00 -0.00000000000E+00 -0.18066796386E+03  0.18066796386E+03  0.00000000000E+00 0.  1.
          6    1    1    2  501    0 -0.29448981587E+02 -0.12058903858E+02 -0.95503317165E+02  0.20015629710E+03  0.17300000000E+03 0.  1.
         -6    1    1    2    0  502  0.29448981587E+02  0.12058903858E+02  0.20272363147E+03  0.26839994492E+03  0.17300000000E+03 0.  1.
<mgrwt>
<rscale>  2 0.17590242E+03</rscale>
<asrwt>0</asrwt>
<pdfrwt beam="1">  1       21 0.44290505E-01 0.17590242E+03</pdfrwt>
<pdfrwt beam="2">  1       21 0.27795071E-01 0.17590242E+03</pdfrwt>
<totfact> 0.60954481E+04</totfact>
</mgrwt>
</event>
<event>
 4    1  0.4439578E+000  0.2403989E+03  0.7546771E-02  0.1119527E+00
         21   -1    0    0  501  502  0.00000000000E+00  0.00000000000E+00  0.48578659204E+02  0.48578659204E+02  0.00000000000E+00 0. -1.
         21   -1    0    0  502  503 -0.00000000000E+00 -0.00000000000E+00 -0.14403217741E+04  0.14403217741E+04  0.00000000000E+00 0.  1.
          6    1    1    2  501    0 -0.11469961755E+02 -0.16652652902E+03 -0.38530273981E+03  0.45414738378E+03  0.17300000000E+03 0.  1.
         -6    1    1    2    0  503  0.11469961755E+02  0.16652652902E+03 -0.10064403751E+04  0.10347530495E+04  0.17300000000E+03 0.  1.
<mgrwt>
<rscale>  2 0.24039893E+03</rscale>
<asrwt>0</asrwt>
<pdfrwt beam="1">  1       21 0.74736404E-02 0.24039893E+03</pdfrwt>
<pdfrwt beam="2">  1       21 0.22158795E+00 0.24039893E+03</pdfrwt>
<totfact> 0.12795236E+04</totfact>
</mgrwt>
</event>
<event>
 4    1  0.4439578E+000  0.2431925E+03  0.7546771E-02  0.1117684E+00
         21   -1    0    0  501  502  0.00000000000E+00  0.00000000000E+00  0.11879641423E+04  0.11879641423E+04  0.00000000000E+00 0.  1.
         21   -1    0    0  502  503 -0.00000000000E+00 -0.00000000000E+00 -0.53240032153E+02  0.53240032153E+02  0.00000000000E+00 0. -1.
          6    1    1    2  501    0  0.13024517759E+02 -0.17042284758E+03  0.72546181933E+03  0.76513883468E+03  0.17300000000E+03 0.  1.
         -6    1    1    2    0  503 -0.13024517759E+02  0.17042284758E+03  0.40926229079E+03  0.47606533974E+03  0.17300000000E+03 0. -1.
<mgrwt>
<rscale>  2 0.24319249E+03</rscale>
<asrwt>0</asrwt>
<pdfrwt beam="1">  1       21 0.18276370E+00 0.24319249E+03</pdfrwt>
<pdfrwt beam="2">  1       21 0.81907750E-02 0.24319249E+03</pdfrwt>
<totfact> 0.19403786E+04</totfact>
</mgrwt>
</event>
<event>
 4    1  0.4439578E+000  0.1859452E+03  0.7546771E-02  0.1162170E+00
         21   -1    0    0  501  502  0.00000000000E+00  0.00000000000E+00  0.20657933632E+03  0.20657933632E+03  0.00000000000E+00 0. -1.
         21   -1    0    0  502  503 -0.00000000000E+00 -0.00000000000E+00 -0.20019010846E+03  0.20019010846E+03  0.00000000000E+00 0. -1.
          6    1    1    2  501    0  0.66140321947E+02  0.16494398257E+02 -0.79153460884E+02  0.20209126090E+03  0.17300000000E+03 0. -1.
         -6    1    1    2    0  503 -0.66140321947E+02 -0.16494398257E+02  0.85542688741E+02  0.20467818388E+03  0.17300000000E+03 0. -1.
<mgrwt>
<rscale>  2 0.18594517E+03</rscale>
<asrwt>0</asrwt>
<pdfrwt beam="1">  1       21 0.31781436E-01 0.18594517E+03</pdfrwt>
<pdfrwt beam="2">  1       21 0.30798478E-01 0.18594517E+03</pdfrwt>
<totfact> 0.96616309E+04</totfact>
</mgrwt>
</event>
<event>
 4    1  0.4439578E+000  0.2536006E+03  0.7546771E-02  0.1111050E+00
         21   -1    0    0  503  502  0.00000000000E+00  0.00000000000E+00  0.69918054523E+03  0.69918054523E+03  0.00000000000E+00 0. -1.
         21   -1    0    0  501  503 -0.00000000000E+00 -0.00000000000E+00 -0.51330332032E+03  0.51330332032E+03  0.00000000000E+00 0.  1.
          6    1    1    2  501    0  0.17712539099E+03  0.54871431194E+02 -0.45630463997E+03  0.52204138012E+03  0.17300000000E+03 0.  1.
         -6    1    1    2    0  502 -0.17712539099E+03 -0.54871431194E+02  0.64218186488E+03  0.69044248543E+03  0.17300000000E+03 0. -1.
<mgrwt>
<rscale>  2 0.25360063E+03</rscale>
<asrwt>0</asrwt>
<pdfrwt beam="1">  1       21 0.10756624E+00 0.25360063E+03</pdfrwt>
<pdfrwt beam="2">  1       21 0.78969741E-01 0.25360063E+03</pdfrwt>
<totfact> 0.92400254E+02</totfact>
</mgrwt>
</event>
<event>
 4    1  0.4439578E+000  0.3036588E+03  0.7546771E-02  0.1083426E+00
         21   -1    0    0  501  502  0.00000000000E+00  0.00000000000E+00  0.19797289426E+03  0.19797289426E+03  0.00000000000E+00 0.  1.
         21   -1    0    0  502  503 -0.00000000000E+00 -0.00000000000E+00 -0.48991556056E+03  0.48991556056E+03  0.00000000000E+00 0.  1.
          6    1    1    2  501    0 -0.12441473700E+03 -0.21633459389E+03 -0.69605628398E+02  0.31153431079E+03  0.17300000000E+03 0.  1.
         -6    1    1    2    0  503  0.12441473700E+03  0.21633459389E+03 -0.22233703790E+03  0.37635414402E+03  0.17300000000E+03 0.  1.
<mgrwt>
<rscale>  2 0.30365883E+03</rscale>
<asrwt>0</asrwt>
<pdfrwt beam="1">  1       21 0.30457369E-01 0.30365883E+03</pdfrwt>
<pdfrwt beam="2">  1       21 0.75371624E-01 0.30365883E+03</pdfrwt>
<totfact> 0.15356889E+04</totfact>
</mgrwt>
</event>
<event>
 4    1  0.4439578E+000  0.2174108E+03  0.7546771E-02  0.1135828E+00
         21   -1    0    0  503  502  0.00000000000E+00  0.00000000000E+00  0.68117455921E+03  0.68117455921E+03  0.00000000000E+00 0.  1.
         21   -1    0    0  501  503 -0.00000000000E+00 -0.00000000000E+00 -0.20195331247E+03  0.20195331247E+03  0.00000000000E+00 0.  1.
          6    1    1    2  501    0  0.13148345742E+03 -0.71094064343E+01 -0.11813802217E+03  0.24743491168E+03  0.17300000000E+03 0.  1.
         -6    1    1    2    0  502 -0.13148345742E+03  0.71094064343E+01  0.59735926891E+03  0.63569296000E+03  0.17300000000E+03 0.  1.
<mgrwt>
<rscale>  2 0.21741077E+03</rscale>
<asrwt>0</asrwt>
<pdfrwt beam="1">  1       21 0.10479608E+00 0.21741077E+03</pdfrwt>
<pdfrwt beam="2">  1       21 0.31069741E-01 0.21741077E+03</pdfrwt>
<totfact> 0.71740794E+03</totfact>
</mgrwt>
</event>
<event>
 4    1  0.4439578E+000  0.3124472E+03  0.7546771E-02  0.1079179E+00
         21   -1    0    0  503  502  0.00000000000E+00  0.00000000000E+00  0.37632381918E+03  0.37632381918E+03  0.00000000000E+00 0. -1.
         21   -1    0    0  501  503 -0.00000000000E+00 -0.00000000000E+00 -0.26844114567E+03  0.26844114567E+03  0.00000000000E+00 0.  1.
          6    1    1    2  501    0  0.19378193170E+03 -0.17361679485E+03 -0.51808052301E+01  0.31249011064E+03  0.17300000000E+03 0.  1.
         -6    1    1    2    0  502 -0.19378193170E+03  0.17361679485E+03  0.11306347874E+03  0.33227485420E+03  0.17300000000E+03 0. -1.
<mgrwt>
<rscale>  2 0.31244716E+03</rscale>
<asrwt>0</asrwt>
<pdfrwt beam="1">  1       21 0.57895972E-01 0.31244716E+03</pdfrwt>
<pdfrwt beam="2">  1       21 0.41298638E-01 0.31244716E+03</pdfrwt>
<totfact> 0.14855306E+04</totfact>
</mgrwt>
</event>
<event>
 4    1  0.4439578E+000  0.1767361E+03  0.7546771E-02  0.1171000E+00
         21   -1    0    0  503  502  0.00000000000E+00  0.00000000000E+00  0.61477267808E+02  0.61477267808E+02  0.00000000000E+00 0. -1.
         21   -1    0    0  501  503 -0.00000000000E+00 -0.00000000000E+00 -0.53849007197E+03  0.53849007197E+03  0.00000000000E+00 0. -1.
          6    1    1    2  501    0 -0.27478888981E+02 -0.23485428627E+02 -0.30978915171E+03  0.35665806203E+03  0.17300000000E+03 0. -1.
         -6    1    1    2    0  502  0.27478888981E+02  0.23485428627E+02 -0.16722365246E+03  0.24330927775E+03  0.17300000000E+03 0. -1.
<mgrwt>
<rscale>  2 0.17673612E+03</rscale>
<asrwt>0</asrwt>
<pdfrwt beam="1">  1       21 0.94580411E-02 0.17673612E+03</pdfrwt>
<pdfrwt beam="2">  1       21 0.82844627E-01 0.17673612E+03</pdfrwt>
<totfact> 0.11443784E+05</totfact>
</mgrwt>
</event>
<event>
 4    1  0.4439578E+000  0.1915767E+03  0.7546771E-02  0.1157047E+00
         21   -1    0    0  503  502  0.00000000000E+00  0.00000000000E+00  0.34734849452E+02  0.34734849452E+02  0.00000000000E+00 0.  1.
         21   -1    0    0  501  503 -0.00000000000E+00 -0.00000000000E+00 -0.18810279086E+04  0.18810279086E+04  0.00000000000E+00 0.  1.
          6    1    1    2  501    0 -0.53933001350E+02  0.62159868571E+02 -0.15572856845E+04  0.15690252774E+04  0.17300000000E+03 0.  1.
         -6    1    1    2    0  502  0.53933001350E+02 -0.62159868571E+02 -0.28900737457E+03  0.34673748059E+03  0.17300000000E+03 0.  1.
<mgrwt>
<rscale>  2 0.19157666E+03</rscale>
<asrwt>0</asrwt>
<pdfrwt beam="1">  1       21 0.53438214E-02 0.19157666E+03</pdfrwt>
<pdfrwt beam="2">  1       21 0.28938899E+00 0.19157666E+03</pdfrwt>
<totfact> 0.94504988E+03</totfact>
</mgrwt>
</event>
<event>
 4    1  0.4439578E+000  0.1831874E+03  0.7546771E-02  0.1164753E+00
         21   -1    0    0  503  502  0.00000000000E+00  0.00000000000E+00  0.20659249255E+03  0.20659249255E+03  0.00000000000E+00 0.  1.
         21   -1    0    0  501  503 -0.00000000000E+00 -0.00000000000E+00 -0.88502882651E+03  0.88502882651E+03  0.00000000000E+00 0.  1.
          6    1    1    2  501    0 -0.52409929042E+02  0.29695371149E+02 -0.83240420265E+03  0.85232292725E+03  0.17300000000E+03 0.  1.
         -6    1    1    2    0  502  0.52409929042E+02 -0.29695371149E+02  0.15396786870E+03  0.23929839181E+03  0.17300000000E+03 0.  1.
<mgrwt>
<rscale>  2 0.18318738E+03</rscale>
<asrwt>0</asrwt>
<pdfrwt beam="1">  1       21 0.31783459E-01 0.18318738E+03</pdfrwt>
<pdfrwt beam="2">  1       21 0.13615828E+00 0.18318738E+03</pdfrwt>
<totfact> 0.36891265E+03</totfact>
</mgrwt>
</event>
<event>
 4    1  0.4439578E+000  0.2043776E+03  0.7546771E-02  0.1146097E+00
         21   -1    0    0  503  502  0.00000000000E+00  0.00000000000E+00  0.98529239258E+03  0.98529239258E+03  0.00000000000E+00 0.  1.
         21   -1    0    0  501  503 -0.00000000000E+00 -0.00000000000E+00 -0.83703332108E+02  0.83703332108E+02  0.00000000000E+00 0.  1.
          6    1    1    2  501    0 -0.98488736882E+02 -0.46272797408E+02  0.75302958230E+02  0.21780894975E+03  0.17300000000E+03 0.  1.
         -6    1    1    2    0  502  0.98488736882E+02  0.46272797408E+02  0.82628610224E+03  0.85118677494E+03  0.17300000000E+03 0.  1.
<mgrwt>
<rscale>  2 0.20437760E+03</rscale>
<asrwt>0</asrwt>
<pdfrwt beam="1">  1       21 0.15158344E+00 0.20437760E+03</pdfrwt>
<pdfrwt beam="2">  1       21 0.12877436E-01 0.20437760E+03</pdfrwt>
<totfact> 0.14908382E+04</totfact>
</mgrwt>
</event>
<event>
 4    1  0.4439578E+000  0.1736298E+03  0.7546771E-02  0.1174115E+00
         21   -1    0    0  501  502  0.00000000000E+00  0.00000000000E+00  0.27464854420E+03  0.27464854420E+03  0.00000000000E+00 0.  1.
         21   -1    0    0  502  503 -0.00000000000E+00 -0.00000000000E+00 -0.25519739495E+03  0.25519739495E+03  0.00000000000E+00 0.  1.
          6    1    1    2  501    0  0.38236870647E+01  0.14272056490E+02  0.20971603301E+03  0.27226480985E+03  0.17300000000E+03 0.  1.
         -6    1    1    2    0  503 -0.38236870647E+01 -0.14272056490E+02 -0.19026488376E+03  0.25758112930E+03  0.17300000000E+03 0.  1.
<mgrwt>
<rscale>  2 0.17362981E+03</rscale>
<asrwt>0</asrwt>
<pdfrwt beam="1">  1       21 0.42253622E-01 0.17362981E+03</pdfrwt>
<pdfrwt beam="2">  1       21 0.39261138E-01 0.17362981E+03</pdfrwt>
<totfact> 0.34051647E+04</totfact>
</mgrwt>
</event>
<event>
 4    1  0.4439578E+000  0.3002672E+03  0.7546771E-02  0.1085107E+00
         21   -1    0    0  501  502  0.00000000000E+00  0.00000000000E+00  0.28490053474E+03  0.28490053474E+03  0.00000000000E+00 0. -1.
         21   -1    0    0  502  503 -0.00000000000E+00 -0.00000000000E+00 -0.32574169187E+03  0.32574169187E+03  0.00000000000E+00 0.  1.
          6    1    1    2  501    0 -0.30122935285E+02  0.24356519563E+03  0.31110625452E+02  0.30187458782E+03  0.17300000000E+03 0. -1.
         -6    1    1    2    0  503  0.30122935285E+02 -0.24356519563E+03 -0.71951782583E+02  0.30876763880E+03  0.17300000000E+03 0.  1.
<mgrwt>
<rscale>  2 0.30026721E+03</rscale>
<asrwt>0</asrwt>
<pdfrwt beam="1">  1       21 0.43830852E-01 0.30026721E+03</pdfrwt>
<pdfrwt beam="2">  1       21 0.50114106E-01 0.30026721E+03</pdfrwt>
<totfact> 0.17967689E+04</totfact>
</mgrwt>
</event>
<event>
 4    1  0.4439578E+000  0.1879902E+03  0.7546771E-02  0.1160287E+00
         21   -1    0    0  501  502  0.00000000000E+00  0.00000000000E+00  0.44336620810E+03  0.44336620810E+03  0.00000000000E+00 0.  1.
         21   -1    0    0  502  503 -0.00000000000E+00 -0.00000000000E+00 -0.93773355147E+02  0.93773355147E+02  0.00000000000E+00 0.  1.
          6    1    1    2  501    0  0.37280008075E+02  0.63415355981E+02  0.27880671728E+03  0.33626402123E+03  0.17300000000E+03 0. -1.
         -6    1    1    2    0  503 -0.37280008075E+02 -0.63415355981E+02  0.70786135679E+02  0.20087554202E+03  0.17300000000E+03 0. -1.
<mgrwt>
<rscale>  2 0.18799018E+03</rscale>
<asrwt>0</asrwt>
<pdfrwt beam="1">  1       21 0.68210185E-01 0.18799018E+03</pdfrwt>
<pdfrwt beam="2">  1       21 0.14426670E-01 0.18799018E+03</pdfrwt>
<totfact> 0.82756645E+04</totfact>
</mgrwt>
</event>
<event>
 4    1  0.4439578E+000  0.2565997E+03  0.7546771E-02  0.1109204E+00
         21   -1    0    0  503  502  0.00000000000E+00  0.00000000000E+00  0.13936721853E+03  0.13936721853E+03  0.00000000000E+00 0. -1.
         21   -1    0    0  501  503 -0.00000000000E+00 -0.00000000000E+00 -0.64611485831E+03  0.64611485831E+03  0.00000000000E+00 0.  1.
          6    1    1    2  501    0 -0.25848597937E+02 -0.18773987963E+03 -0.45699035600E+03  0.52410265969E+03  0.17300000000E+03 0.  1.
         -6    1    1    2    0  502  0.25848597937E+02  0.18773987963E+03 -0.49757283769E+02  0.26137941715E+03  0.17300000000E+03 0. -1.
<mgrwt>
<rscale>  2 0.25659971E+03</rscale>
<asrwt>0</asrwt>
<pdfrwt beam="1">  1       21 0.21441110E-01 0.25659971E+03</pdfrwt>
<pdfrwt beam="2">  1       21 0.99402286E-01 0.25659971E+03</pdfrwt>
<totfact> 0.16260227E+04</totfact>
</mgrwt>
</event>
<event>
 4    1  0.4439578E+000  0.2894771E+03  0.7546771E-02  0.1090622E+00
         21   -1    0    0  501  502  0.00000000000E+00  0.00000000000E+00  0.19172571288E+03  0.19172571288E+03  0.00000000000E+00 0. -1.
         21   -1    0    0  502  503 -0.00000000000E+00 -0.00000000000E+00 -0.18676294984E+04  0.18676294984E+04  0.00000000000E+00 0.  1.
          6    1    1    2  501    0  0.20066847653E+03 -0.11661978306E+03  0.63223449097E+02  0.29630088726E+03  0.17300000000E+03 0. -1.
         -6    1    1    2    0  503 -0.20066847653E+03  0.11661978306E+03 -0.17391272346E+04  0.17630543241E+04  0.17300000000E+03 0.  1.
<mgrwt>
<rscale>  2 0.28947713E+03</rscale>
<asrwt>0</asrwt>
<pdfrwt beam="1">  1       21 0.29496265E-01 0.28947713E+03</pdfrwt>
<pdfrwt beam="2">  1       21 0.28732760E+00 0.28947713E+03</pdfrwt>
<totfact> 0.39747783E+02</totfact>
</mgrwt>
</event>
<event>
 4    1  0.4439578E+000  0.3217021E+03  0.7546771E-02  0.1074869E+00
         21   -1    0    0  503  502  0.00000000000E+00  0.00000000000E+00  0.87794193788E+02  0.87794193788E+02  0.00000000000E+00 0. -1.
         21   -1    0    0  501  503 -0.00000000000E+00 -0.00000000000E+00 -0.11891408736E+04  0.11891408736E+04  0.00000000000E+00 0.  1.
          6    1    1    2  501    0 -0.91029962579E+02 -0.25549325615E+03 -0.49114960743E+03  0.58712877200E+03  0.17300000000E+03 0. -1.
         -6    1    1    2    0  502  0.91029962579E+02  0.25549325615E+03 -0.61019707241E+03  0.68980629542E+03  0.17300000000E+03 0.  1.
<mgrwt>
<rscale>  2 0.32170213E+03</rscale>
<asrwt>0</asrwt>
<pdfrwt beam="1">  1       21 0.13506800E-01 0.32170213E+03</pdfrwt>
<pdfrwt beam="2">  1       21 0.18294473E+00 0.32170213E+03</pdfrwt>
<totfact> 0.75753865E+03</totfact>
</mgrwt>
</event>
<event>
 4    1  0.4439578E+000  0.1820183E+03  0.7546771E-02  0.1165864E+00
         21   -1    0    0  501  502  0.00000000000E+00  0.00000000000E+00  0.83935639862E+02  0.83935639862E+02  0.00000000000E+00 0. -1.
         21   -1    0    0  502  503 -0.00000000000E+00 -0.00000000000E+00 -0.42032075716E+03  0.42032075716E+03  0.00000000000E+00 0. -1.
          6    1    1    2  501    0 -0.29169450235E+02  0.48485012609E+02 -0.10596251619E+03  0.21061507095E+03  0.17300000000E+03 0. -1.
         -6    1    1    2    0  503  0.29169450235E+02 -0.48485012609E+02 -0.23042260111E+03  0.29364132607E+03  0.17300000000E+03 0. -1.
<mgrwt>
<rscale>  2 0.18201828E+03</rscale>
<asrwt>0</asrwt>
<pdfrwt beam="1">  1       21 0.12913176E-01 0.18201828E+03</pdfrwt>
<pdfrwt beam="2">  1       21 0.64664730E-01 0.18201828E+03</pdfrwt>
<totfact> 0.11384250E+05</totfact>
</mgrwt>
</event>
<event>
 4    1  0.4439578E+000  0.2370977E+03  0.7546771E-02  0.1121742E+00
         21   -1    0    0  501  502  0.00000000000E+00  0.00000000000E+00  0.15894418055E+03  0.15894418055E+03  0.00000000000E+00 0. -1.
         21   -1    0    0  502  503 -0.00000000000E+00 -0.00000000000E+00 -0.45450223924E+03  0.45450223924E+03  0.00000000000E+00 0.  1.
          6    1    1    2  501    0  0.91907210422E+02  0.13356410098E+03 -0.33156430904E+01  0.23712085081E+03  0.17300000000E+03 0.  1.
         -6    1    1    2    0  503 -0.91907210422E+02 -0.13356410098E+03 -0.29224241559E+03  0.37632556898E+03  0.17300000000E+03 0.  1.
<mgrwt>
<rscale>  2 0.23709767E+03</rscale>
<asrwt>0</asrwt>
<pdfrwt beam="1">  1       21 0.24452952E-01 0.23709767E+03</pdfrwt>
<pdfrwt beam="2">  1       21 0.69923419E-01 0.23709767E+03</pdfrwt>
<totfact> 0.28668977E+04</totfact>
</mgrwt>
</event>
<event>
 4    1  0.4439578E+000  0.2532706E+03  0.7546771E-02  0.1111255E+00
         21   -1    0    0  501  502  0.00000000000E+00  0.00000000000E+00  0.59694138915E+03  0.59694138915E+03  0.00000000000E+00 0.  1.
         21   -1    0    0  502  503 -0.00000000000E+00 -0.00000000000E+00 -0.11130927241E+03  0.11130927241E+03  0.00000000000E+00 0.  1.
          6    1    1    2  501    0 -0.33815231436E+02 -0.18186133135E+03  0.30868856884E+03  0.39929268244E+03  0.17300000000E+03 0.  1.
         -6    1    1    2    0  503  0.33815231436E+02  0.18186133135E+03  0.17694354790E+03  0.30895797912E+03  0.17300000000E+03 0.  1.
<mgrwt>
<rscale>  2 0.25327063E+03</rscale>
<asrwt>0</asrwt>
<pdfrwt beam="1">  1       21 0.91837135E-01 0.25327063E+03</pdfrwt>
<pdfrwt beam="2">  1       21 0.17124504E-01 0.25327063E+03</pdfrwt>
<totfact> 0.29913521E+04</totfact>
</mgrwt>
</event>
<event>
 4    1  0.4439578E+000  0.2151245E+03  0.7546771E-02  0.1137571E+00
         21   -1    0    0  503  502  0.00000000000E+00  0.00000000000E+00  0.55723623527E+02  0.55723623527E+02  0.00000000000E+00 0. -1.
         21   -1    0    0  501  503 -0.00000000000E+00 -0.00000000000E+00 -0.15173664294E+04  0.15173664294E+04  0.00000000000E+00 0.  1.
          6    1    1    2  501    0  0.25985922983E+02  0.12519699589E+03 -0.12600143013E+04  0.12782466880E+04  0.17300000000E+03 0.  1.
         -6    1    1    2    0  502 -0.25985922983E+02 -0.12519699589E+03 -0.20162850459E+03  0.29484336492E+03  0.17300000000E+03 0. -1.
<mgrwt>
<rscale>  2 0.21512451E+03</rscale>
<asrwt>0</asrwt>
<pdfrwt beam="1">  1       21 0.85728651E-02 0.21512451E+03</pdfrwt>
<pdfrwt beam="2">  1       21 0.23344099E+00 0.21512451E+03</pdfrwt>
<totfact> 0.86912859E+03</totfact>
</mgrwt>
</event>
<event>
 4    1  0.4439578E+000  0.1743902E+03  0.7546771E-02  0.1173345E+00
         21   -1    0    0  501  502  0.00000000000E+00  0.00000000000E+00  0.10713691745E+04  0.10713691745E+04  0.00000000000E+00 0. -1.
         21   -1    0    0  502  503 -0.00000000000E+00 -0.00000000000E+00 -0.81374143677E+02  0.81374143677E+02  0.00000000000E+00 0. -1.
          6    1    1    2  501    0 -0.21975432215E+02 -0.10453306215E+00  0.96009991706E+03  0.97580929555E+03  0.17300000000E+03 0. -1.
         -6    1    1    2    0  503  0.21975432215E+02  0.10453306215E+00  0.29895113808E+02  0.17693402267E+03  0.17300000000E+03 0. -1.
<mgrwt>
<rscale>  2 0.17439017E+03</rscale>
<asrwt>0</asrwt>
<pdfrwt beam="1">  1       21 0.16482602E+00 0.17439017E+03</pdfrwt>
<pdfrwt beam="2">  1       21 0.12519100E-01 0.17439017E+03</pdfrwt>
<totfact> 0.12810021E+04</totfact>
</mgrwt>
</event>
<event>
 4    1  0.4439578E+000  0.1747788E+03  0.7546771E-02  0.1172954E+00
         21   -1    0    0  501  502  0.00000000000E+00  0.00000000000E+00  0.12692738491E+03  0.12692738491E+03  0.00000000000E+00 0. -1.
         21   -1    0    0  502  503 -0.00000000000E+00 -0.00000000000E+00 -0.24343716744E+03  0.24343716744E+03  0.00000000000E+00 0. -1.
          6    1    1    2  501    0 -0.18518878348E+02 -0.16603783017E+02 -0.38511994580E+02  0.17897152900E+03  0.17300000000E+03 0. -1.
         -6    1    1    2    0  503  0.18518878348E+02  0.16603783017E+02 -0.77997787951E+02  0.19139302336E+03  0.17300000000E+03 0. -1.
<mgrwt>
<rscale>  2 0.17477882E+03</rscale>
<asrwt>0</asrwt>
<pdfrwt beam="1">  1       21 0.19527290E-01 0.17477882E+03</pdfrwt>
<pdfrwt beam="2">  1       21 0.37451872E-01 0.17477882E+03</pdfrwt>
<totfact> 0.16688370E+05</totfact>
</mgrwt>
</event>
<event>
 4    1  0.4439578E+000  0.2427298E+03  0.7546771E-02  0.1117988E+00
         21   -1    0    0  503  502  0.00000000000E+00  0.00000000000E+00  0.14075691012E+03  0.14075691012E+03  0.00000000000E+00 0. -1.
         21   -1    0    0  501  503 -0.00000000000E+00 -0.00000000000E+00 -0.52016298406E+03  0.52016298406E+03  0.00000000000E+00 0.  1.
          6    1    1    2  501    0 -0.16450096918E+03 -0.43911321810E+02 -0.33574022224E+03  0.41429370002E+03  0.17300000000E+03 0.  1.
         -6    1    1    2    0  502  0.16450096918E+03  0.43911321810E+02 -0.43665851701E+02  0.24662619417E+03  0.17300000000E+03 0. -1.
<mgrwt>
<rscale>  2 0.24272984E+03</rscale>
<asrwt>0</asrwt>
<pdfrwt beam="1">  1       21 0.21654910E-01 0.24272984E+03</pdfrwt>
<pdfrwt beam="2">  1       21 0.80025073E-01 0.24272984E+03</pdfrwt>
<totfact> 0.26615272E+04</totfact>
</mgrwt>
</event>
<event>
 4    1  0.4439578E+000  0.2004960E+03  0.7546771E-02  0.1149321E+00
         21   -1    0    0  501  502  0.00000000000E+00  0.00000000000E+00  0.94402315859E+02  0.94402315859E+02  0.00000000000E+00 0. -1.
         21   -1    0    0  502  503 -0.00000000000E+00 -0.00000000000E+00 -0.46839333423E+03  0.46839333423E+03  0.00000000000E+00 0.  1.
          6    1    1    2  501    0  0.29688636687E+02  0.96892823332E+02 -0.10216125697E+03  0.22502345831E+03  0.17300000000E+03 0. -1.
         -6    1    1    2    0  503 -0.29688636687E+02 -0.96892823332E+02 -0.27182976140E+03  0.33777219179E+03  0.17300000000E+03 0.  1.
<mgrwt>
<rscale>  2 0.20049597E+03</rscale>
<asrwt>0</asrwt>
<pdfrwt beam="1">  1       21 0.14523433E-01 0.20049597E+03</pdfrwt>
<pdfrwt beam="2">  1       21 0.72060513E-01 0.20049597E+03</pdfrwt>
<totfact> 0.72037484E+04</totfact>
</mgrwt>
</event>
<event>
 4    1  0.4439578E+000  0.1850380E+03  0.7546771E-02  0.1163014E+00
         21   -1    0    0  501  502  0.00000000000E+00  0.00000000000E+00  0.68237318072E+02  0.68237318072E+02  0.00000000000E+00 0.  1.
         21   -1    0    0  502  503 -0.00000000000E+00 -0.00000000000E+00 -0.75315747847E+03  0.75315747847E+03  0.00000000000E+00 0.  1.
          6    1    1    2  501    0  0.43608669418E+02 -0.49075054796E+02 -0.10518318056E+03  0.21284402394E+03  0.17300000000E+03 0.  1.
         -6    1    1    2    0  503 -0.43608669418E+02  0.49075054796E+02 -0.57973697983E+03  0.60855077261E+03  0.17300000000E+03 0.  1.
<mgrwt>
<rscale>  2 0.18503804E+03</rscale>
<asrwt>0</asrwt>
<pdfrwt beam="1">  1       21 0.10498050E-01 0.18503804E+03</pdfrwt>
<pdfrwt beam="2">  1       21 0.11587037E+00 0.18503804E+03</pdfrwt>
<totfact> 0.43029554E+04</totfact>
</mgrwt>
</event>
<event>
 4    1  0.4439578E+000  0.2226356E+03  0.7546771E-02  0.1131933E+00
         21   -1    0    0  501  502  0.00000000000E+00  0.00000000000E+00  0.44209888485E+03  0.44209888485E+03  0.00000000000E+00 0.  1.
         21   -1    0    0  502  503 -0.00000000000E+00 -0.00000000000E+00 -0.11378260648E+03  0.11378260648E+03  0.00000000000E+00 0. -1.
          6    1    1    2  501    0  0.13999940395E+03  0.61479601371E+01  0.19778998094E+03  0.29780447794E+03  0.17300000000E+03 0.  1.
         -6    1    1    2    0  503 -0.13999940395E+03 -0.61479601371E+01  0.13052629743E+03  0.25807701339E+03  0.17300000000E+03 0. -1.
<mgrwt>
<rscale>  2 0.22263565E+03</rscale>
<asrwt>0</asrwt>
<pdfrwt beam="1">  1       21 0.68015212E-01 0.22263565E+03</pdfrwt>
<pdfrwt beam="2">  1       21 0.17505017E-01 0.22263565E+03</pdfrwt>
<totfact> 0.57545856E+04</totfact>
</mgrwt>
</event>
<event>
 4    1  0.4439578E+000  0.1889846E+03  0.7546771E-02  0.1159380E+00
         21   -1    0    0  501  502  0.00000000000E+00  0.00000000000E+00  0.66452103512E+03  0.66452103512E+03  0.00000000000E+00 0.  1.
         21   -1    0    0  502  503 -0.00000000000E+00 -0.00000000000E+00 -0.81388773989E+02  0.81388773989E+02  0.00000000000E+00 0.  1.
          6    1    1    2  501    0  0.65816819054E+02 -0.38135677608E+02  0.50891972136E+03  0.54287610591E+03  0.17300000000E+03 0.  1.
         -6    1    1    2    0  503 -0.65816819054E+02  0.38135677608E+02  0.74212539773E+02  0.20303370320E+03  0.17300000000E+03 0.  1.
<mgrwt>
<rscale>  2 0.18898461E+03</rscale>
<asrwt>0</asrwt>
<pdfrwt beam="1">  1       21 0.10223400E+00 0.18898461E+03</pdfrwt>
<pdfrwt beam="2">  1       21 0.12521350E-01 0.18898461E+03</pdfrwt>
<totfact> 0.42432415E+04</totfact>
</mgrwt>
</event>
<event>
 4    1  0.4439578E+000  0.2498985E+03  0.7546771E-02  0.1113369E+00
         21   -1    0    0  503  502  0.00000000000E+00  0.00000000000E+00  0.67473341173E+03  0.67473341173E+03  0.00000000000E+00 0.  1.
         21   -1    0    0  501  503 -0.00000000000E+00 -0.00000000000E+00 -0.97473294553E+02  0.97473294553E+02  0.00000000000E+00 0. -1.
          6    1    1    2  501    0 -0.13587985934E+03 -0.11856187808E+03  0.20189123182E+03  0.32126208086E+03  0.17300000000E+03 0. -1.
         -6    1    1    2    0  502  0.13587985934E+03  0.11856187808E+03  0.37536888535E+03  0.45094462543E+03  0.17300000000E+03 0.  1.
<mgrwt>
<rscale>  2 0.24989849E+03</rscale>
<asrwt>0</asrwt>
<pdfrwt beam="1">  1       21 0.10380514E+00 0.24989849E+03</pdfrwt>
<pdfrwt beam="2">  1       21 0.14995892E-01 0.24989849E+03</pdfrwt>
<totfact> 0.28593909E+04</totfact>
</mgrwt>
</event>
<event>
 4    1  0.4439578E+000  0.1797161E+03  0.7546771E-02  0.1168078E+00
         21   -1    0    0  501  502  0.00000000000E+00  0.00000000000E+00  0.38472289485E+02  0.38472289485E+02  0.00000000000E+00 0. -1.
         21   -1    0    0  502  503 -0.00000000000E+00 -0.00000000000E+00 -0.16570876557E+04  0.16570876557E+04  0.00000000000E+00 0. -1.
          6    1    1    2  501    0  0.37948908830E+02  0.30475361647E+02 -0.21381703013E+03  0.27931270956E+03  0.17300000000E+03 0. -1.
         -6    1    1    2    0  503 -0.37948908830E+02 -0.30475361647E+02 -0.14047983361E+04  0.14162472356E+04  0.17300000000E+03 0. -1.
<mgrwt>
<rscale>  2 0.17971607E+03</rscale>
<asrwt>0</asrwt>
<pdfrwt beam="1">  1       21 0.59188128E-02 0.17971607E+03</pdfrwt>
<pdfrwt beam="2">  1       21 0.25493660E+00 0.17971607E+03</pdfrwt>
<totfact> 0.12711937E+04</totfact>
</mgrwt>
</event>
<event>
 4    1  0.4439578E+000  0.2124458E+03  0.7546771E-02  0.1139644E+00
         21   -1    0    0  501  502  0.00000000000E+00  0.00000000000E+00  0.64561333191E+02  0.64561333191E+02  0.00000000000E+00 0. -1.
         21   -1    0    0  502  503 -0.00000000000E+00 -0.00000000000E+00 -0.93624606755E+03  0.93624606755E+03  0.00000000000E+00 0.  1.
          6    1    1    2  501    0  0.99011825659E+02 -0.73490761532E+02 -0.18398417320E+03  0.28103987197E+03  0.17300000000E+03 0.  1.
         -6    1    1    2    0  503 -0.99011825659E+02  0.73490761532E+02 -0.68770056116E+03  0.71976752877E+03  0.17300000000E+03 0. -1.
<mgrwt>
<rscale>  2 0.21244584E+03</rscale>
<asrwt>0</asrwt>
<pdfrwt beam="1">  1       21 0.99325128E-02 0.21244584E+03</pdfrwt>
<pdfrwt beam="2">  1       21 0.14403786E+00 0.21244584E+03</pdfrwt>
<totfact> 0.26962434E+04</totfact>
</mgrwt>
</event>
<event>
 4    1  0.4439578E+000  0.2878387E+03  0.7546771E-02  0.1091483E+00
         21   -1    0    0  501  502  0.00000000000E+00  0.00000000000E+00  0.14326168557E+03  0.14326168557E+03  0.00000000000E+00 0. -1.
         21   -1    0    0  502  503 -0.00000000000E+00 -0.00000000000E+00 -0.58334867264E+03  0.58334867264E+03  0.00000000000E+00 0. -1.
          6    1    1    2  501    0 -0.13540738372E+03 -0.18597564824E+03 -0.18631218664E+03  0.34287509707E+03  0.17300000000E+03 0. -1.
         -6    1    1    2    0  503  0.13540738372E+03  0.18597564824E+03 -0.25377480043E+03  0.38373526113E+03  0.17300000000E+03 0. -1.
<mgrwt>
<rscale>  2 0.28783867E+03</rscale>
<asrwt>0</asrwt>
<pdfrwt beam="1">  1       21 0.22040259E-01 0.28783867E+03</pdfrwt>
<pdfrwt beam="2">  1       21 0.89745951E-01 0.28783867E+03</pdfrwt>
<totfact> 0.19360982E+04</totfact>
</mgrwt>
</event>
<event>
 4    1  0.4439578E+000  0.1809078E+03  0.7546771E-02  0.1166927E+00
         21   -1    0    0  503  502  0.00000000000E+00  0.00000000000E+00  0.25448378109E+04  0.25448378109E+04  0.00000000000E+00 0.  1.
         21   -1    0    0  501  503 -0.00000000000E+00 -0.00000000000E+00 -0.20810255228E+02  0.20810255228E+02  0.00000000000E+00 0.  1.
          6    1    1    2  501    0  0.23842435431E+02 -0.47224861589E+02  0.46913314318E+03  0.50280568345E+03  0.17300000000E+03 0.  1.
         -6    1    1    2    0  502 -0.23842435431E+02  0.47224861589E+02  0.20548944125E+04  0.20628423827E+04  0.17300000000E+03 0.  1.
<mgrwt>
<rscale>  2 0.18090785E+03</rscale>
<asrwt>0</asrwt>
<pdfrwt beam="1">  1       21 0.39151326E+00 0.18090785E+03</pdfrwt>
<pdfrwt beam="2">  1       21 0.32015797E-02 0.18090785E+03</pdfrwt>
<totfact> 0.56777001E+03</totfact>
</mgrwt>
</event>
<event>
 4    1  0.4439578E+000  0.2557482E+03  0.7546771E-02  0.1109725E+00
         21   -1    0    0  501  502  0.00000000000E+00  0.00000000000E+00  0.17076695729E+03  0.17076695729E+03  0.00000000000E+00 0. -1.
         21   -1    0    0  502  503 -0.00000000000E+00 -0.00000000000E+00 -0.68285055465E+03  0.68285055465E+03  0.00000000000E+00 0.  1.
          6    1    1    2  501    0  0.18641430048E+03 -0.26978259747E+02  0.26777219064E+02  0.25714614013E+03  0.17300000000E+03 0. -1.
         -6    1    1    2    0  503 -0.18641430048E+03  0.26978259747E+02 -0.53886081642E+03  0.59647137181E+03  0.17300000000E+03 0.  1.
<mgrwt>
<rscale>  2 0.25574815E+03</rscale>
<asrwt>0</asrwt>
<pdfrwt beam="1">  1       21 0.26271839E-01 0.25574815E+03</pdfrwt>
<pdfrwt beam="2">  1       21 0.10505393E+00 0.25574815E+03</pdfrwt>
<totfact> 0.96553218E+03</totfact>
</mgrwt>
</event>
<event>
 4    1  0.4439578E+000  0.2202189E+03  0.7546771E-02  0.1133720E+00
         21   -1    0    0  503  502  0.00000000000E+00  0.00000000000E+00  0.80807532010E+03  0.80807532010E+03  0.00000000000E+00 0.  1.
         21   -1    0    0  501  503 -0.00000000000E+00 -0.00000000000E+00 -0.66146824288E+02  0.66146824288E+02  0.00000000000E+00 0.  1.
          6    1    1    2  501    0  0.64980437949E+02  0.11977025931E+03  0.23787471415E+03  0.32416161396E+03  0.17300000000E+03 0.  1.
         -6    1    1    2    0  502 -0.64980437949E+02 -0.11977025931E+03  0.50405378166E+03  0.55006053043E+03  0.17300000000E+03 0.  1.
<mgrwt>
<rscale>  2 0.22021892E+03</rscale>
<asrwt>0</asrwt>
<pdfrwt beam="1">  1       21 0.12431927E+00 0.22021892E+03</pdfrwt>
<pdfrwt beam="2">  1       21 0.10176435E-01 0.22021892E+03</pdfrwt>
<totfact> 0.37471042E+04</totfact>
</mgrwt>
</event>
<event>
 4    1  0.4439578E+000  0.2289919E+03  0.7546771E-02  0.1127351E+00
         21   -1    0    0  501  502  0.00000000000E+00  0.00000000000E+00  0.24372976735E+03  0.24372976735E+03  0.00000000000E+00 0. -1.
         21   -1    0    0  502  503 -0.00000000000E+00 -0.00000000000E+00 -0.23309323659E+03  0.23309323659E+03  0.00000000000E+00 0.  1.
          6    1    1    2  501    0  0.14435898485E+03  0.40850632356E+02  0.71474500901E+02  0.23988725466E+03  0.17300000000E+03 0. -1.
         -6    1    1    2    0  503 -0.14435898485E+03 -0.40850632356E+02 -0.60837970145E+02  0.23693574927E+03  0.17300000000E+03 0.  1.
<mgrwt>
<rscale>  2 0.22899190E+03</rscale>
<asrwt>0</asrwt>
<pdfrwt beam="1">  1       21 0.37496887E-01 0.22899190E+03</pdfrwt>
<pdfrwt beam="2">  1       21 0.35860498E-01 0.22899190E+03</pdfrwt>
<totfact> 0.50577016E+04</totfact>
</mgrwt>
</event>
<event>
 4    1  0.4439578E+000  0.2081692E+03  0.7546771E-02  0.1143024E+00
         21   -1    0    0  503  502  0.00000000000E+00  0.00000000000E+00  0.67104753321E+02  0.67104753321E+02  0.00000000000E+00 0. -1.
         21   -1    0    0  501  503 -0.00000000000E+00 -0.00000000000E+00 -0.15313760670E+04  0.15313760670E+04  0.00000000000E+00 0. -1.
          6    1    1    2  501    0  0.11339321596E+03 -0.23396774267E+02 -0.13399292100E+04  0.13560032147E+04  0.17300000000E+03 0. -1.
         -6    1    1    2    0  502 -0.11339321596E+03  0.23396774267E+02 -0.12434210365E+03  0.24247760559E+03  0.17300000000E+03 0. -1.
<mgrwt>
<rscale>  2 0.20816924E+03</rscale>
<asrwt>0</asrwt>
<pdfrwt beam="1">  1       21 0.10323808E-01 0.20816924E+03</pdfrwt>
<pdfrwt beam="2">  1       21 0.23559632E+00 0.20816924E+03</pdfrwt>
<totfact> 0.61163531E+03</totfact>
</mgrwt>
</event>
<event>
 4    1  0.4439578E+000  0.1827356E+03  0.7546771E-02  0.1165181E+00
         21   -1    0    0  503  502  0.00000000000E+00  0.00000000000E+00  0.29645550711E+02  0.29645550711E+02  0.00000000000E+00 0.  1.
         21   -1    0    0  501  503 -0.00000000000E+00 -0.00000000000E+00 -0.18852025592E+04  0.18852025592E+04  0.00000000000E+00 0.  1.
          6    1    1    2  501    0 -0.14601944245E+02  0.57009622405E+02 -0.15352052523E+04  0.15460425222E+04  0.17300000000E+03 0.  1.
         -6    1    1    2    0  502  0.14601944245E+02 -0.57009622405E+02 -0.32035175624E+03  0.36880558774E+03  0.17300000000E+03 0.  1.
<mgrwt>
<rscale>  2 0.18273564E+03</rscale>
<asrwt>0</asrwt>
<pdfrwt beam="1">  1       21 0.45608536E-02 0.18273564E+03</pdfrwt>
<pdfrwt beam="2">  1       21 0.29003119E+00 0.18273564E+03</pdfrwt>
<totfact> 0.12370569E+04</totfact>
</mgrwt>
</event>
<event>
 4    1  0.4439578E+000  0.1809499E+03  0.7546771E-02  0.1166887E+00
         21   -1    0    0  501  502  0.00000000000E+00  0.00000000000E+00  0.77545182795E+03  0.77545182795E+03  0.00000000000E+00 0.  1.
         21   -1    0    0  502  503 -0.00000000000E+00 -0.00000000000E+00 -0.12530201056E+03  0.12530201056E+03  0.00000000000E+00 0.  1.
          6    1    1    2  501    0  0.22230172997E+02 -0.48163067753E+02  0.69179907580E+03  0.71507259978E+03  0.17300000000E+03 0.  1.
         -6    1    1    2    0  503 -0.22230172997E+02  0.48163067753E+02 -0.41649258405E+02  0.18568123872E+03  0.17300000000E+03 0.  1.
<mgrwt>
<rscale>  2 0.18094989E+03</rscale>
<asrwt>0</asrwt>
<pdfrwt beam="1">  1       21 0.11930028E+00 0.18094989E+03</pdfrwt>
<pdfrwt beam="2">  1       21 0.19277233E-01 0.18094989E+03</pdfrwt>
<totfact> 0.13354126E+04</totfact>
</mgrwt>
</event>
<event>
 4    1  0.4439578E+000  0.1822313E+03  0.7546771E-02  0.1165661E+00
         21   -1    0    0  503  502  0.00000000000E+00  0.00000000000E+00  0.25267562788E+04  0.25267562788E+04  0.00000000000E+00 0. -1.
         21   -1    0    0  501  503 -0.00000000000E+00 -0.00000000000E+00 -0.17779799131E+02  0.17779799131E+02  0.00000000000E+00 0. -1.
          6    1    1    2  501    0  0.40368255261E+02 -0.40615690123E+02  0.60474537006E+03  0.63160525087E+03  0.17300000000E+03 0. -1.
         -6    1    1    2    0  502 -0.40368255261E+02  0.40615690123E+02  0.19042311096E+04  0.19129308270E+04  0.17300000000E+03 0. -1.
<mgrwt>
<rscale>  2 0.18223126E+03</rscale>
<asrwt>0</asrwt>
<pdfrwt beam="1">  1       21 0.38873145E+00 0.18223126E+03</pdfrwt>
<pdfrwt beam="2">  1       21 0.27353557E-02 0.18223126E+03</pdfrwt>
<totfact> 0.76441900E+03</totfact>
</mgrwt>
</event>
<event>
 4    1  0.4439578E+000  0.1917950E+03  0.7546771E-02  0.1156852E+00
         21   -1    0    0  501  502  0.00000000000E+00  0.00000000000E+00  0.42619303155E+03  0.42619303155E+03  0.00000000000E+00 0.  1.
         21   -1    0    0  502  503 -0.00000000000E+00 -0.00000000000E+00 -0.12546539184E+03  0.12546539184E+03  0.00000000000E+00 0.  1.
          6    1    1    2  501    0 -0.63607209007E+02  0.53013778560E+02  0.30445083428E+03  0.35982724778E+03  0.17300000000E+03 0.  1.
         -6    1    1    2    0  503  0.63607209007E+02 -0.53013778560E+02 -0.37231945699E+01  0.19183117560E+03  0.17300000000E+03 0.  1.
<mgrwt>
<rscale>  2 0.19179504E+03</rscale>
<asrwt>0</asrwt>
<pdfrwt beam="1">  1       21 0.65568158E-01 0.19179504E+03</pdfrwt>
<pdfrwt beam="2">  1       21 0.19302368E-01 0.19179504E+03</pdfrwt>
<totfact> 0.52767488E+04</totfact>
</mgrwt>
</event>
<event>
 4    1  0.4439578E+000  0.2241441E+03  0.7546771E-02  0.1130831E+00
         21   -1    0    0  503  502  0.00000000000E+00  0.00000000000E+00  0.61889442740E+03  0.61889442740E+03  0.00000000000E+00 0. -1.
         21   -1    0    0  501  503 -0.00000000000E+00 -0.00000000000E+00 -0.83069469035E+02  0.83069469035E+02  0.00000000000E+00 0. -1.
          6    1    1    2  501    0  0.12816872274E+03 -0.62324579628E+02  0.32087523383E+03  0.39140961971E+03  0.17300000000E+03 0. -1.
         -6    1    1    2    0  502 -0.12816872274E+03  0.62324579628E+02  0.21494972453E+03  0.31055427672E+03  0.17300000000E+03 0. -1.
<mgrwt>
<rscale>  2 0.22414409E+03</rscale>
<asrwt>0</asrwt>
<pdfrwt beam="1">  1       21 0.95214524E-01 0.22414409E+03</pdfrwt>
<pdfrwt beam="2">  1       21 0.12779919E-01 0.22414409E+03</pdfrwt>
<totfact> 0.47550792E+04</totfact>
</mgrwt>
</event>
<event>
 4    1  0.4439578E+000  0.2377464E+03  0.7546771E-02  0.1121303E+00
         21   -1    0    0  503  502  0.00000000000E+00  0.00000000000E+00  0.20869966758E+04  0.20869966758E+04  0.00000000000E+00 0.  1.
         21   -1    0    0  501  503 -0.00000000000E+00 -0.00000000000E+00 -0.27553270986E+02  0.27553270986E+02  0.00000000000E+00 0. -1.
          6    1    1    2  501    0  0.12675073133E+03 -0.10260904049E+03  0.89168242216E+03  0.92283308624E+03  0.17300000000E+03 0. -1.
         -6    1    1    2    0  502 -0.12675073133E+03  0.10260904049E+03  0.11677609826E+04  0.11917168605E+04  0.17300000000E+03 0. -1.
<mgrwt>
<rscale>  2 0.23774643E+03</rscale>
<asrwt>0</asrwt>
<pdfrwt beam="1">  1       21 0.32107629E+00 0.23774643E+03</pdfrwt>
<pdfrwt beam="2">  1       21 0.42389664E-02 0.23774643E+03</pdfrwt>
<totfact> 0.87507070E+03</totfact>
</mgrwt>
</event>
<event>
 4    1  0.4439578E+000  0.1945548E+03  0.7546771E-02  0.1154416E+00
         21   -1    0    0  501  502  0.00000000000E+00  0.00000000000E+00  0.12811751847E+04  0.12811751847E+04  0.00000000000E+00 0.  1.
         21   -1    0    0  502  503 -0.00000000000E+00 -0.00000000000E+00 -0.29901248116E+02  0.29901248116E+02  0.00000000000E+00 0.  1.
          6    1    1    2  501    0 -0.30309402756E+02 -0.83689433833E+02  0.55402572126E+03  0.58719339323E+03  0.17300000000E+03 0.  1.
         -6    1    1    2    0  503  0.30309402756E+02  0.83689433833E+02  0.69724821529E+03  0.72388303955E+03  0.17300000000E+03 0.  1.
<mgrwt>
<rscale>  2 0.19455483E+03</rscale>
<asrwt>0</asrwt>
<pdfrwt beam="1">  1       21 0.19710383E+00 0.19455483E+03</pdfrwt>
<pdfrwt beam="2">  1       21 0.46001930E-02 0.19455483E+03</pdfrwt>
<totfact> 0.43357875E+04</totfact>
</mgrwt>
</event>
<event>
 4    1  0.4439578E+000  0.1744584E+03  0.7546771E-02  0.1173277E+00
         21   -1    0    0  501  502  0.00000000000E+00  0.00000000000E+00  0.12939416703E+04  0.12939416703E+04  0.00000000000E+00 0. -1.
         21   -1    0    0  502  503 -0.00000000000E+00 -0.00000000000E+00 -0.23701291617E+02  0.23701291617E+02  0.00000000000E+00 0. -1.
          6    1    1    2  501    0 -0.11259019878E+02 -0.19492431432E+02  0.57777288929E+03  0.60353726646E+03  0.17300000000E+03 0. -1.
         -6    1    1    2    0  503  0.11259019878E+02  0.19492431432E+02  0.69246748938E+03  0.71410569544E+03  0.17300000000E+03 0. -1.
<mgrwt>
<rscale>  2 0.17445836E+03</rscale>
<asrwt>0</asrwt>
<pdfrwt beam="1">  1       21 0.19906789E+00 0.17445836E+03</pdfrwt>
<pdfrwt beam="2">  1       21 0.36463536E-02 0.17445836E+03</pdfrwt>
<totfact> 0.63004660E+04</totfact>
</mgrwt>
</event>
<event>
 4    1  0.4439578E+000  0.2821999E+03  0.7546771E-02  0.1094493E+00
         21   -1    0    0  501  502  0.00000000000E+00  0.00000000000E+00  0.32666597461E+03  0.32666597461E+03  0.00000000000E+00 0. -1.
         21   -1    0    0  502  503 -0.00000000000E+00 -0.00000000000E+00 -0.30897143603E+03  0.30897143603E+03  0.00000000000E+00 0. -1.
          6    1    1    2  501    0 -0.11411046366E+03 -0.19153748017E+03  0.15482728445E+03  0.32188241990E+03  0.17300000000E+03 0. -1.
         -6    1    1    2    0  503  0.11411046366E+03  0.19153748017E+03 -0.13713274588E+03  0.31375499075E+03  0.17300000000E+03 0. -1.
<mgrwt>
<rscale>  2 0.28219994E+03</rscale>
<asrwt>0</asrwt>
<pdfrwt beam="1">  1       21 0.50256304E-01 0.28219994E+03</pdfrwt>
<pdfrwt beam="2">  1       21 0.47534067E-01 0.28219994E+03</pdfrwt>
<totfact> 0.15205457E+04</totfact>
</mgrwt>
</event>
<event>
 4    1  0.4439578E+000  0.2038777E+03  0.7546771E-02  0.1146508E+00
         21   -1    0    0  501  502  0.00000000000E+00  0.00000000000E+00  0.22820913704E+03  0.22820913704E+03  0.00000000000E+00 0. -1.
         21   -1    0    0  502  503 -0.00000000000E+00 -0.00000000000E+00 -0.22541683792E+03  0.22541683792E+03  0.00000000000E+00 0.  1.
          6    1    1    2  501    0  0.10379202096E+03  0.29399787667E+02  0.10077635456E+03  0.22742472330E+03  0.17300000000E+03 0. -1.
         -6    1    1    2    0  503 -0.10379202096E+03 -0.29399787667E+02 -0.97984055443E+02  0.22620125166E+03  0.17300000000E+03 0. -1.
<mgrwt>
<rscale>  2 0.20387774E+03</rscale>
<asrwt>0</asrwt>
<pdfrwt beam="1">  1       21 0.35109098E-01 0.20387774E+03</pdfrwt>
<pdfrwt beam="2">  1       21 0.34679513E-01 0.20387774E+03</pdfrwt>
<totfact> 0.62356498E+04</totfact>
</mgrwt>
</event>
<event>
 4    1  0.4439578E+000  0.2043671E+03  0.7546771E-02  0.1146106E+00
         21   -1    0    0  501  502  0.00000000000E+00  0.00000000000E+00  0.39907062284E+02  0.39907062284E+02  0.00000000000E+00 0. -1.
         21   -1    0    0  502  503 -0.00000000000E+00 -0.00000000000E+00 -0.11212046841E+04  0.11212046841E+04  0.00000000000E+00 0.  1.
          6    1    1    2  501    0  0.74563036445E+02  0.79229305358E+02 -0.39087250435E+03  0.44107510006E+03  0.17300000000E+03 0.  1.
         -6    1    1    2    0  503 -0.74563036445E+02 -0.79229305358E+02 -0.69042511751E+03  0.72003664637E+03  0.17300000000E+03 0. -1.
<mgrwt>
<rscale>  2 0.20436714E+03</rscale>
<asrwt>0</asrwt>
<pdfrwt beam="1">  1       21 0.61395474E-02 0.20436714E+03</pdfrwt>
<pdfrwt beam="2">  1       21 0.17249305E+00 0.20436714E+03</pdfrwt>
<totfact> 0.38570809E+04</totfact>
</mgrwt>
</event>
<event>
 4    1  0.4439578E+000  0.1840833E+03  0.7546771E-02  0.1163909E+00
         21   -1    0    0  501  502  0.00000000000E+00  0.00000000000E+00  0.54058755873E+02  0.54058755873E+02  0.00000000000E+00 0. -1.
         21   -1    0    0  502  503 -0.00000000000E+00 -0.00000000000E+00 -0.72010342212E+03  0.72010342212E+03  0.00000000000E+00 0. -1.
          6    1    1    2  501    0  0.24762519041E+02  0.57831352038E+02 -0.19372573761E+03  0.26723830010E+03  0.17300000000E+03 0. -1.
         -6    1    1    2    0  503 -0.24762519041E+02 -0.57831352038E+02 -0.47231892864E+03  0.50692387789E+03  0.17300000000E+03 0. -1.
<mgrwt>
<rscale>  2 0.18408326E+03</rscale>
<asrwt>0</asrwt>
<pdfrwt beam="1">  1       21 0.83167322E-02 0.18408326E+03</pdfrwt>
<pdfrwt beam="2">  1       21 0.11078513E+00 0.18408326E+03</pdfrwt>
<totfact> 0.72280028E+04</totfact>
</mgrwt>
</event>
<event>
 4    1  0.4439578E+000  0.1872169E+03  0.7546771E-02  0.1160996E+00
         21   -1    0    0  503  502  0.00000000000E+00  0.00000000000E+00  0.44866027511E+03  0.44866027511E+03  0.00000000000E+00 0. -1.
         21   -1    0    0  501  503 -0.00000000000E+00 -0.00000000000E+00 -0.97210849613E+02  0.97210849613E+02  0.00000000000E+00 0. -1.
          6    1    1    2  501    0  0.59897256648E+02  0.39159915070E+02  0.54777991890E+02  0.19506616492E+03  0.17300000000E+03 0. -1.
         -6    1    1    2    0  502 -0.59897256648E+02 -0.39159915070E+02  0.29667143361E+03  0.35080495980E+03  0.17300000000E+03 0. -1.
<mgrwt>
<rscale>  2 0.18721693E+03</rscale>
<asrwt>0</asrwt>
<pdfrwt beam="1">  1       21 0.69024657E-01 0.18721693E+03</pdfrwt>
<pdfrwt beam="2">  1       21 0.14955516E-01 0.18721693E+03</pdfrwt>
<totfact> 0.75547272E+04</totfact>
</mgrwt>
</event>
<event>
 4    1  0.4439578E+000  0.1940905E+03  0.7546771E-02  0.1154823E+00
         21   -1    0    0  503  502  0.00000000000E+00  0.00000000000E+00  0.13561684026E+04  0.13561684026E+04  0.00000000000E+00 0.  1.
         21   -1    0    0  501  503 -0.00000000000E+00 -0.00000000000E+00 -0.44786392171E+02  0.44786392171E+02  0.00000000000E+00 0. -1.
          6    1    1    2  501    0 -0.86680428080E+02  0.15120550558E+02  0.10873666993E+04  0.11045530618E+04  0.17300000000E+03 0.  1.
         -6    1    1    2    0  502  0.86680428080E+02 -0.15120550558E+02  0.22401531109E+03  0.29640173290E+03  0.17300000000E+03 0. -1.
<mgrwt>
<rscale>  2 0.19409051E+03</rscale>
<asrwt>0</asrwt>
<pdfrwt beam="1">  1       21 0.20864126E+00 0.19409051E+03</pdfrwt>
<pdfrwt beam="2">  1       21 0.68902152E-02 0.19409051E+03</pdfrwt>
<totfact> 0.18375411E+04</totfact>
</mgrwt>
</event>
<event>
 4    1  0.4439578E+000  0.1804861E+03  0.7546771E-02  0.1167333E+00
         21   -1    0    0  501  502  0.00000000000E+00  0.00000000000E+00  0.72756016355E+02  0.72756016355E+02  0.00000000000E+00 0.  1.
         21   -1    0    0  502  503 -0.00000000000E+00 -0.00000000000E+00 -0.51460490854E+03  0.51460490854E+03  0.00000000000E+00 0. -1.
          6    1    1    2  501    0 -0.18740013994E+02 -0.47906727421E+02 -0.11505731383E+03  0.21404071604E+03  0.17300000000E+03 0.  1.
         -6    1    1    2    0  503  0.18740013994E+02  0.47906727421E+02 -0.32679157836E+03  0.37332020886E+03  0.17300000000E+03 0. -1.
<mgrwt>
<rscale>  2 0.18048613E+03</rscale>
<asrwt>0</asrwt>
<pdfrwt beam="1">  1       21 0.11193233E-01 0.18048613E+03</pdfrwt>
<pdfrwt beam="2">  1       21 0.79169986E-01 0.18048613E+03</pdfrwt>
<totfact> 0.94017322E+04</totfact>
</mgrwt>
</event>
<event>
 4    1  0.4439578E+000  0.2326188E+03  0.7546771E-02  0.1124810E+00
         21   -1    0    0  503  502  0.00000000000E+00  0.00000000000E+00  0.44237996035E+03  0.44237996035E+03  0.00000000000E+00 0. -1.
         21   -1    0    0  501  503 -0.00000000000E+00 -0.00000000000E+00 -0.19912004828E+03  0.19912004828E+03  0.00000000000E+00 0. -1.
          6    1    1    2  501    0  0.13699756674E+03 -0.73581120761E+02 -0.77571492930E+02  0.24521184951E+03  0.17300000000E+03 0. -1.
         -6    1    1    2    0  502 -0.13699756674E+03  0.73581120761E+02  0.32083140500E+03  0.39628815912E+03  0.17300000000E+03 0. -1.
<mgrwt>
<rscale>  2 0.23261882E+03</rscale>
<asrwt>0</asrwt>
<pdfrwt beam="1">  1       21 0.68058455E-01 0.23261882E+03</pdfrwt>
<pdfrwt beam="2">  1       21 0.30633854E-01 0.23261882E+03</pdfrwt>
<totfact> 0.19709345E+04</totfact>
</mgrwt>
</event>
<event>
 4    1  0.4439578E+000  0.2586297E+03  0.7546771E-02  0.1107969E+00
         21   -1    0    0  501  502  0.00000000000E+00  0.00000000000E+00  0.16430742083E+03  0.16430742083E+03  0.00000000000E+00 0. -1.
         21   -1    0    0  502  503 -0.00000000000E+00 -0.00000000000E+00 -0.70357367520E+03  0.70357367520E+03  0.00000000000E+00 0. -1.
          6    1    1    2  501    0 -0.44801141045E+02 -0.18695769332E+03  0.12055643648E+02  0.25891052484E+03  0.17300000000E+03 0. -1.
         -6    1    1    2    0  503  0.44801141045E+02  0.18695769332E+03 -0.55132189802E+03  0.60897057119E+03  0.17300000000E+03 0. -1.
<mgrwt>
<rscale>  2 0.25862970E+03</rscale>
<asrwt>0</asrwt>
<pdfrwt beam="1">  1       21 0.25278065E-01 0.25862970E+03</pdfrwt>
<pdfrwt beam="2">  1       21 0.10824210E+00 0.25862970E+03</pdfrwt>
<totfact> 0.96567760E+03</totfact>
</mgrwt>
</event>
<event>
 4    1  0.4439578E+000  0.2040267E+03  0.7546771E-02  0.1146385E+00
         21   -1    0    0  501  502  0.00000000000E+00  0.00000000000E+00  0.10025990966E+03  0.10025990966E+03  0.00000000000E+00 0. -1.
         21   -1    0    0  502  503 -0.00000000000E+00 -0.00000000000E+00 -0.59189644222E+03  0.59189644222E+03  0.00000000000E+00 0.  1.
          6    1    1    2  501    0 -0.17584074449E+02  0.10671776535E+03 -0.56724193044E+02  0.21176523603E+03  0.17300000000E+03 0. -1.
         -6    1    1    2    0  503  0.17584074449E+02 -0.10671776535E+03 -0.43491233952E+03  0.48039111585E+03  0.17300000000E+03 0.  1.
<mgrwt>
<rscale>  2 0.20402667E+03</rscale>
<asrwt>0</asrwt>
<pdfrwt beam="1">  1       21 0.15424601E-01 0.20402667E+03</pdfrwt>
<pdfrwt beam="2">  1       21 0.91060992E-01 0.20402667E+03</pdfrwt>
<totfact> 0.37885672E+04</totfact>
</mgrwt>
</event>
<event>
 4    1  0.4439578E+000  0.2851685E+03  0.7546771E-02  0.1092899E+00
         21   -1    0    0  503  502  0.00000000000E+00  0.00000000000E+00  0.18941114638E+03  0.18941114638E+03  0.00000000000E+00 0.  1.
         21   -1    0    0  501  503 -0.00000000000E+00 -0.00000000000E+00 -0.44544239500E+03  0.44544239500E+03  0.00000000000E+00 0. -1.
          6    1    1    2  501    0  0.81258532351E+02  0.21163446836E+03 -0.67656666930E+02  0.29308449611E+03  0.17300000000E+03 0.  1.
         -6    1    1    2    0  502 -0.81258532351E+02 -0.21163446836E+03 -0.18837458169E+03  0.34176904527E+03  0.17300000000E+03 0. -1.
<mgrwt>
<rscale>  2 0.28516854E+03</rscale>
<asrwt>0</asrwt>
<pdfrwt beam="1">  1       21 0.29140177E-01 0.28516854E+03</pdfrwt>
<pdfrwt beam="2">  1       21 0.68529599E-01 0.28516854E+03</pdfrwt>
<totfact> 0.20892134E+04</totfact>
</mgrwt>
</event>
<event>
 4    1  0.4439578E+000  0.2161757E+03  0.7546771E-02  0.1136767E+00
         21   -1    0    0  501  502  0.00000000000E+00  0.00000000000E+00  0.39461318189E+03  0.39461318189E+03  0.00000000000E+00 0.  1.
         21   -1    0    0  502  503 -0.00000000000E+00 -0.00000000000E+00 -0.12987700827E+03  0.12987700827E+03  0.00000000000E+00 0.  1.
          6    1    1    2  501    0 -0.12962506600E+03 -0.51395039297E+00  0.21024146063E+03  0.30155164341E+03  0.17300000000E+03 0.  1.
         -6    1    1    2    0  503  0.12962506600E+03  0.51395039297E+00  0.54494713001E+02  0.22293854674E+03  0.17300000000E+03 0.  1.
<mgrwt>
<rscale>  2 0.21617567E+03</rscale>
<asrwt>0</asrwt>
<pdfrwt beam="1">  1       21 0.60709720E-01 0.21617567E+03</pdfrwt>
<pdfrwt beam="2">  1       21 0.19981078E-01 0.21617567E+03</pdfrwt>
<totfact> 0.57788924E+04</totfact>
</mgrwt>
</event>
<event>
 4    1  0.4439578E+000  0.2445753E+03  0.7546771E-02  0.1116782E+00
         21   -1    0    0  503  502  0.00000000000E+00  0.00000000000E+00  0.94316840280E+03  0.94316840280E+03  0.00000000000E+00 0.  1.
         21   -1    0    0  501  503 -0.00000000000E+00 -0.00000000000E+00 -0.79182450820E+02  0.79182450820E+02  0.00000000000E+00 0.  1.
          6    1    1    2  501    0 -0.10052548205E+03 -0.14065101032E+03  0.20393366396E+03  0.31844311665E+03  0.17300000000E+03 0.  1.
         -6    1    1    2    0  502  0.10052548205E+03  0.14065101032E+03  0.66005228801E+03  0.70390773697E+03  0.17300000000E+03 0.  1.
<mgrwt>
<rscale>  2 0.24457530E+03</rscale>
<asrwt>0</asrwt>
<pdfrwt beam="1">  1       21 0.14510282E+00 0.24457530E+03</pdfrwt>
<pdfrwt beam="2">  1       21 0.12181916E-01 0.24457530E+03</pdfrwt>
<totfact> 0.18032258E+04</totfact>
</mgrwt>
</event>
<event>
 4    1  0.4439578E+000  0.2746914E+03  0.7546771E-02  0.1098624E+00
         21   -1    0    0  503  502  0.00000000000E+00  0.00000000000E+00  0.71408622410E+02  0.71408622410E+02  0.00000000000E+00 0. -1.
         21   -1    0    0  501  503 -0.00000000000E+00 -0.00000000000E+00 -0.14082828726E+04  0.14082828726E+04  0.00000000000E+00 0.  1.
          6    1    1    2  501    0 -0.20877761042E+03 -0.44025896401E+02 -0.10381192345E+04  0.10738467839E+04  0.17300000000E+03 0. -1.
         -6    1    1    2    0  502  0.20877761042E+03  0.44025896401E+02 -0.29875501568E+03  0.40584471114E+03  0.17300000000E+03 0.  1.
<mgrwt>
<rscale>  2 0.27469141E+03</rscale>
<asrwt>0</asrwt>
<pdfrwt beam="1">  1       21 0.10985943E-01 0.27469141E+03</pdfrwt>
<pdfrwt beam="2">  1       21 0.21665888E+00 0.27469141E+03</pdfrwt>
<totfact> 0.67936824E+03</totfact>
</mgrwt>
</event>
<event>
 4    1  0.4439578E+000  0.1876077E+03  0.7546771E-02  0.1160637E+00
         21   -1    0    0  503  502  0.00000000000E+00  0.00000000000E+00  0.78832620556E+03  0.78832620556E+03  0.00000000000E+00 0. -1.
         21   -1    0    0  501  503 -0.00000000000E+00 -0.00000000000E+00 -0.47105167159E+02  0.47105167159E+02  0.00000000000E+00 0. -1.
          6    1    1    2  501    0  0.57947889979E+02 -0.43699915859E+02  0.46602741087E+03  0.50237255924E+03  0.17300000000E+03 0. -1.
         -6    1    1    2    0  502 -0.57947889979E+02  0.43699915859E+02  0.27519362753E+03  0.33305881347E+03  0.17300000000E+03 0. -1.
<mgrwt>
<rscale>  2 0.18760768E+03</rscale>
<asrwt>0</asrwt>
<pdfrwt beam="1">  1       21 0.12128094E+00 0.18760768E+03</pdfrwt>
<pdfrwt beam="2">  1       21 0.72469494E-02 0.18760768E+03</pdfrwt>
<totfact> 0.73452093E+04</totfact>
</mgrwt>
</event>
<event>
 4    1  0.4439578E+000  0.2343589E+03  0.7546771E-02  0.1123609E+00
         21   -1    0    0  503  502  0.00000000000E+00  0.00000000000E+00  0.33101602845E+03  0.33101602845E+03  0.00000000000E+00 0. -1.
         21   -1    0    0  501  503 -0.00000000000E+00 -0.00000000000E+00 -0.41474603324E+03  0.41474603324E+03  0.00000000000E+00 0. -1.
          6    1    1    2  501    0  0.13957617722E+03  0.74253593484E+02 -0.33068150225E+03  0.40530773657E+03  0.17300000000E+03 0. -1.
         -6    1    1    2    0  502 -0.13957617722E+03 -0.74253593484E+02  0.24695149747E+03  0.34045432512E+03  0.17300000000E+03 0. -1.
<mgrwt>
<rscale>  2 0.23435892E+03</rscale>
<asrwt>0</asrwt>
<pdfrwt beam="1">  1       21 0.50925543E-01 0.23435892E+03</pdfrwt>
<pdfrwt beam="2">  1       21 0.63807082E-01 0.23435892E+03</pdfrwt>
<totfact> 0.80912321E+03</totfact>
</mgrwt>
</event>
<event>
 4    1  0.4439578E+000  0.2027293E+03  0.7546771E-02  0.1147457E+00
         21   -1    0    0  503  502  0.00000000000E+00  0.00000000000E+00  0.37039273572E+03  0.37039273572E+03  0.00000000000E+00 0.  1.
         21   -1    0    0  501  503 -0.00000000000E+00 -0.00000000000E+00 -0.12653085687E+03  0.12653085687E+03  0.00000000000E+00 0.  1.
          6    1    1    2  501    0  0.57555462787E+02 -0.88642738599E+02  0.34773788255E+02  0.20569001617E+03  0.17300000000E+03 0.  1.
         -6    1    1    2    0  502 -0.57555462787E+02  0.88642738599E+02  0.20908809059E+03  0.29123357641E+03  0.17300000000E+03 0.  1.
<mgrwt>
<rscale>  2 0.20272929E+03</rscale>
<asrwt>0</asrwt>
<pdfrwt beam="1">  1       21 0.56983497E-01 0.20272929E+03</pdfrwt>
<pdfrwt beam="2">  1       21 0.19466286E-01 0.20272929E+03</pdfrwt>
<totfact> 0.69925469E+04</totfact>
</mgrwt>
</event>
<event>
 4    1  0.4439578E+000  0.1760166E+03  0.7546771E-02  0.1171715E+00
         21   -1    0    0  501  502  0.00000000000E+00  0.00000000000E+00  0.33407525945E+03  0.33407525945E+03  0.00000000000E+00 0.  1.
         21   -1    0    0  502  503 -0.00000000000E+00 -0.00000000000E+00 -0.19044864971E+03  0.19044864971E+03  0.00000000000E+00 0.  1.
          6    1    1    2  501    0 -0.30053845293E+02  0.12231973320E+02  0.25966483843E+03  0.31369998901E+03  0.17300000000E+03 0.  1.
         -6    1    1    2    0  503  0.30053845293E+02 -0.12231973320E+02 -0.11603822869E+03  0.21082392015E+03  0.17300000000E+03 0.  1.
<mgrwt>
<rscale>  2 0.17601663E+03</rscale>
<asrwt>0</asrwt>
<pdfrwt beam="1">  1       21 0.51396194E-01 0.17601663E+03</pdfrwt>
<pdfrwt beam="2">  1       21 0.29299792E-01 0.17601663E+03</pdfrwt>
<totfact> 0.40475454E+04</totfact>
</mgrwt>
</event>
<event>
 4    1  0.4439578E+000  0.1838352E+03  0.7546771E-02  0.1164142E+00
         21   -1    0    0  501  502  0.00000000000E+00  0.00000000000E+00  0.38793928063E+02  0.38793928063E+02  0.00000000000E+00 0. -1.
         21   -1    0    0  502  503 -0.00000000000E+00 -0.00000000000E+00 -0.13595747399E+04  0.13595747399E+04  0.00000000000E+00 0. -1.
          6    1    1    2  501    0 -0.36795025673E+02 -0.50124735520E+02 -0.24131845026E+03  0.30336439715E+03  0.17300000000E+03 0. -1.
         -6    1    1    2    0  503  0.36795025673E+02  0.50124735520E+02 -0.10794623616E+04  0.10950042708E+04  0.17300000000E+03 0. -1.
<mgrwt>
<rscale>  2 0.18383515E+03</rscale>
<asrwt>0</asrwt>
<pdfrwt beam="1">  1       21 0.59682969E-02 0.18383515E+03</pdfrwt>
<pdfrwt beam="2">  1       21 0.20916534E+00 0.18383515E+03</pdfrwt>
<totfact> 0.23527503E+04</totfact>
</mgrwt>
</event>
<event>
 4    1  0.4439578E+000  0.2420427E+03  0.7546771E-02  0.1118439E+00
         21   -1    0    0  501  502  0.00000000000E+00  0.00000000000E+00  0.99536219718E+02  0.99536219718E+02  0.00000000000E+00 0.  1.
         21   -1    0    0  502  503 -0.00000000000E+00 -0.00000000000E+00 -0.80483809618E+03  0.80483809618E+03  0.00000000000E+00 0.  1.
          6    1    1    2  501    0  0.10759301605E+03  0.13068818696E+03 -0.11825295498E+03  0.26938526440E+03  0.17300000000E+03 0.  1.
         -6    1    1    2    0  503 -0.10759301605E+03 -0.13068818696E+03 -0.58704892148E+03  0.63498905150E+03  0.17300000000E+03 0.  1.
<mgrwt>
<rscale>  2 0.24204268E+03</rscale>
<asrwt>0</asrwt>
<pdfrwt beam="1">  1       21 0.15313264E-01 0.24204268E+03</pdfrwt>
<pdfrwt beam="2">  1       21 0.12382125E+00 0.24204268E+03</pdfrwt>
<totfact> 0.17909865E+04</totfact>
</mgrwt>
</event>
<event>
 4    1  0.4439578E+000  0.1846344E+03  0.7546771E-02  0.1163392E+00
         21   -1    0    0  503  502  0.00000000000E+00  0.00000000000E+00  0.29673382790E+03  0.29673382790E+03  0.00000000000E+00 0.  1.
         21   -1    0    0  501  503 -0.00000000000E+00 -0.00000000000E+00 -0.11780171828E+03  0.11780171828E+03  0.00000000000E+00 0.  1.
          6    1    1    2  501    0  0.30338596622E+02  0.56924940468E+02  0.56844837290E+02  0.19318699444E+03  0.17300000000E+03 0.  1.
         -6    1    1    2    0  502 -0.30338596622E+02 -0.56924940468E+02  0.12208727233E+03  0.22134855174E+03  0.17300000000E+03 0.  1.
<mgrwt>
<rscale>  2 0.18463445E+03</rscale>
<asrwt>0</asrwt>
<pdfrwt beam="1">  1       21 0.45651358E-01 0.18463445E+03</pdfrwt>
<pdfrwt beam="2">  1       21 0.18123341E-01 0.18463445E+03</pdfrwt>
<totfact> 0.12789888E+05</totfact>
</mgrwt>
</event>
<event>
 4    1  0.4439578E+000  0.1736338E+03  0.7546771E-02  0.1174110E+00
         21   -1    0    0  501  502  0.00000000000E+00  0.00000000000E+00  0.40995216280E+03  0.40995216280E+03  0.00000000000E+00 0. -1.
         21   -1    0    0  502  503 -0.00000000000E+00 -0.00000000000E+00 -0.41832150999E+03  0.41832150999E+03  0.00000000000E+00 0. -1.
          6    1    1    2  501    0  0.84445109631E+01 -0.12181918428E+02  0.37179076681E+03  0.41033776720E+03  0.17300000000E+03 0. -1.
         -6    1    1    2    0  503 -0.84445109631E+01  0.12181918428E+02 -0.38016011401E+03  0.41793590559E+03  0.17300000000E+03 0. -1.
<mgrwt>
<rscale>  2 0.17363384E+03</rscale>
<asrwt>0</asrwt>
<pdfrwt beam="1">  1       21 0.63069564E-01 0.17363384E+03</pdfrwt>
<pdfrwt beam="2">  1       21 0.64357155E-01 0.17363384E+03</pdfrwt>
<totfact> 0.52614610E+03</totfact>
</mgrwt>
</event>
<event>
 4    1  0.4439578E+000  0.4129022E+03  0.7546771E-02  0.1039401E+00
         21   -1    0    0  503  502  0.00000000000E+00  0.00000000000E+00  0.24668859418E+04  0.24668859418E+04  0.00000000000E+00 0. -1.
         21   -1    0    0  501  503 -0.00000000000E+00 -0.00000000000E+00 -0.69892785464E+02  0.69892785464E+02  0.00000000000E+00 0.  1.
          6    1    1    2  501    0 -0.28716659227E+03 -0.24102812558E+03  0.10643238928E+04  0.11416100726E+04  0.17300000000E+03 0.  1.
         -6    1    1    2    0  502  0.28716659227E+03  0.24102812558E+03  0.13326692635E+04  0.13951686547E+04  0.17300000000E+03 0.  1.
<mgrwt>
<rscale>  2 0.41290218E+03</rscale>
<asrwt>0</asrwt>
<pdfrwt beam="1">  1       21 0.37952085E+00 0.41290218E+03</pdfrwt>
<pdfrwt beam="2">  1       21 0.10752738E-01 0.41290218E+03</pdfrwt>
<totfact> 0.66575292E+02</totfact>
</mgrwt>
</event>
<event>
 4    1  0.4439578E+000  0.2127156E+03  0.7546771E-02  0.1139433E+00
         21   -1    0    0  503  502  0.00000000000E+00  0.00000000000E+00  0.55976354362E+03  0.55976354362E+03  0.00000000000E+00 0. -1.
         21   -1    0    0  501  503 -0.00000000000E+00 -0.00000000000E+00 -0.80854300463E+02  0.80854300463E+02  0.00000000000E+00 0.  1.
          6    1    1    2  501    0  0.98507066726E+02  0.74935121647E+02  0.23437662212E+03  0.31651274168E+03  0.17300000000E+03 0. -1.
         -6    1    1    2    0  502 -0.98507066726E+02 -0.74935121647E+02  0.24453262104E+03  0.32410510240E+03  0.17300000000E+03 0.  1.
<mgrwt>
<rscale>  2 0.21271557E+03</rscale>
<asrwt>0</asrwt>
<pdfrwt beam="1">  1       21 0.86117466E-01 0.21271557E+03</pdfrwt>
<pdfrwt beam="2">  1       21 0.12439123E-01 0.21271557E+03</pdfrwt>
<totfact> 0.63389323E+04</totfact>
</mgrwt>
</event>
<event>
 4    1  0.4439578E+000  0.2381471E+03  0.7546771E-02  0.1121033E+00
         21   -1    0    0  501  502  0.00000000000E+00  0.00000000000E+00  0.20133919968E+03  0.20133919968E+03  0.00000000000E+00 0.  1.
         21   -1    0    0  502  503 -0.00000000000E+00 -0.00000000000E+00 -0.33398169587E+03  0.33398169587E+03  0.00000000000E+00 0. -1.
          6    1    1    2  501    0 -0.11875287256E+03  0.11261801455E+03  0.39595224656E+02  0.24141632869E+03  0.17300000000E+03 0.  1.
         -6    1    1    2    0  503  0.11875287256E+03 -0.11261801455E+03 -0.17223772084E+03  0.29390456686E+03  0.17300000000E+03 0. -1.
<mgrwt>
<rscale>  2 0.23814714E+03</rscale>
<asrwt>0</asrwt>
<pdfrwt beam="1">  1       21 0.30975262E-01 0.23814714E+03</pdfrwt>
<pdfrwt beam="2">  1       21 0.51381799E-01 0.23814714E+03</pdfrwt>
<totfact> 0.35230111E+04</totfact>
</mgrwt>
</event>
<event>
 4    1  0.4439578E+000  0.1993902E+03  0.7546771E-02  0.1150255E+00
         21   -1    0    0  503  502  0.00000000000E+00  0.00000000000E+00  0.11594736237E+03  0.11594736237E+03  0.00000000000E+00 0.  1.
         21   -1    0    0  501  503 -0.00000000000E+00 -0.00000000000E+00 -0.35696498248E+03  0.35696498248E+03  0.00000000000E+00 0. -1.
          6    1    1    2  501    0  0.36615604695E+02  0.92123449562E+02 -0.16747255243E+03  0.26039102958E+03  0.17300000000E+03 0. -1.
         -6    1    1    2    0  502 -0.36615604695E+02 -0.92123449562E+02 -0.73545067674E+02  0.21252131527E+03  0.17300000000E+03 0.  1.
<mgrwt>
<rscale>  2 0.19939015E+03</rscale>
<asrwt>0</asrwt>
<pdfrwt beam="1">  1       21 0.17838056E-01 0.19939015E+03</pdfrwt>
<pdfrwt beam="2">  1       21 0.54917688E-01 0.19939015E+03</pdfrwt>
<totfact> 0.89078321E+04</totfact>
</mgrwt>
</event>
<event>
 4    1  0.4439578E+000  0.2579542E+03  0.7546771E-02  0.1108379E+00
         21   -1    0    0  501  502  0.00000000000E+00  0.00000000000E+00  0.53133540551E+02  0.53133540551E+02  0.00000000000E+00 0. -1.
         21   -1    0    0  502  503 -0.00000000000E+00 -0.00000000000E+00 -0.17175496561E+04  0.17175496561E+04  0.00000000000E+00 0.  1.
          6    1    1    2  501    0 -0.18383310203E+03 -0.53073233408E+02 -0.37143368554E+03  0.45222047749E+03  0.17300000000E+03 0. -1.
         -6    1    1    2    0  503  0.18383310203E+03  0.53073233408E+02 -0.12929824301E+04  0.13184627192E+04  0.17300000000E+03 0.  1.
<mgrwt>
<rscale>  2 0.25795422E+03</rscale>
<asrwt>0</asrwt>
<pdfrwt beam="1">  1       21 0.81743927E-02 0.25795422E+03</pdfrwt>
<pdfrwt beam="2">  1       21 0.26423835E+00 0.25795422E+03</pdfrwt>
<totfact> 0.59773068E+03</totfact>
</mgrwt>
</event>
<event>
 4    1  0.4439578E+000  0.1863112E+03  0.7546771E-02  0.1161831E+00
         21   -1    0    0  501  502  0.00000000000E+00  0.00000000000E+00  0.10744570585E+03  0.10744570585E+03  0.00000000000E+00 0. -1.
         21   -1    0    0  502  503 -0.00000000000E+00 -0.00000000000E+00 -0.32614513253E+03  0.32614513253E+03  0.00000000000E+00 0. -1.
          6    1    1    2  501    0 -0.13692112478E+02  0.67789263573E+02 -0.88278595105E+02  0.20616733144E+03  0.17300000000E+03 0. -1.
         -6    1    1    2    0  503  0.13692112478E+02 -0.67789263573E+02 -0.13042083157E+03  0.22742350694E+03  0.17300000000E+03 0. -1.
<mgrwt>
<rscale>  2 0.18631119E+03</rscale>
<asrwt>0</asrwt>
<pdfrwt beam="1">  1       21 0.16530109E-01 0.18631119E+03</pdfrwt>
<pdfrwt beam="2">  1       21 0.50176173E-01 0.18631119E+03</pdfrwt>
<totfact> 0.12451779E+05</totfact>
</mgrwt>
</event>
<event>
 4    1  0.4439578E+000  0.3089356E+03  0.7546771E-02  0.1080857E+00
         21   -1    0    0  501  502  0.00000000000E+00  0.00000000000E+00  0.74317583980E+02  0.74317583980E+02  0.00000000000E+00 0. -1.
         21   -1    0    0  502  503 -0.00000000000E+00 -0.00000000000E+00 -0.13269652711E+04  0.13269652711E+04  0.00000000000E+00 0.  1.
          6    1    1    2  501    0 -0.10029784723E+03 -0.23548365729E+03 -0.50059468491E+03  0.58824845904E+03  0.17300000000E+03 0. -1.
         -6    1    1    2    0  503  0.10029784723E+03  0.23548365729E+03 -0.75205300223E+03  0.81303439606E+03  0.17300000000E+03 0.  1.
<mgrwt>
<rscale>  2 0.30893561E+03</rscale>
<asrwt>0</asrwt>
<pdfrwt beam="1">  1       21 0.11433474E-01 0.30893561E+03</pdfrwt>
<pdfrwt beam="2">  1       21 0.20414851E+00 0.30893561E+03</pdfrwt>
<totfact> 0.74464690E+03</totfact>
</mgrwt>
</event>
<event>
 4    1  0.4439578E+000  0.1738773E+03  0.7546771E-02  0.1173864E+00
         21   -1    0    0  501  502  0.00000000000E+00  0.00000000000E+00  0.32102697500E+03  0.32102697500E+03  0.00000000000E+00 0. -1.
         21   -1    0    0  502  503 -0.00000000000E+00 -0.00000000000E+00 -0.40850283695E+03  0.40850283695E+03  0.00000000000E+00 0. -1.
          6    1    1    2  501    0 -0.12693182728E+02 -0.11966748766E+02  0.27622939412E+03  0.32639852656E+03  0.17300000000E+03 0. -1.
         -6    1    1    2    0  503  0.12693182728E+02  0.11966748766E+02 -0.36370525607E+03  0.40313128539E+03  0.17300000000E+03 0. -1.
<mgrwt>
<rscale>  2 0.17387731E+03</rscale>
<asrwt>0</asrwt>
<pdfrwt beam="1">  1       21 0.49388765E-01 0.17387731E+03</pdfrwt>
<pdfrwt beam="2">  1       21 0.62846590E-01 0.17387731E+03</pdfrwt>
<totfact> 0.92904477E+03</totfact>
</mgrwt>
</event>
<event>
 4    1  0.4439578E+000  0.1797862E+03  0.7546771E-02  0.1168010E+00
         21   -1    0    0  501  502  0.00000000000E+00  0.00000000000E+00  0.70211565260E+02  0.70211565260E+02  0.00000000000E+00 0. -1.
         21   -1    0    0  502  503 -0.00000000000E+00 -0.00000000000E+00 -0.46511556047E+03  0.46511556047E+03  0.00000000000E+00 0. -1.
          6    1    1    2  501    0  0.39707197668E+02 -0.28590634270E+02 -0.17040675098E+03  0.24771262926E+03  0.17300000000E+03 0. -1.
         -6    1    1    2    0  503 -0.39707197668E+02  0.28590634270E+02 -0.22449724423E+03  0.28761449648E+03  0.17300000000E+03 0. -1.
<mgrwt>
<rscale>  2 0.17978622E+03</rscale>
<asrwt>0</asrwt>
<pdfrwt beam="1">  1       21 0.10801779E-01 0.17978622E+03</pdfrwt>
<pdfrwt beam="2">  1       21 0.71556242E-01 0.17978622E+03</pdfrwt>
<totfact> 0.12551705E+05</totfact>
</mgrwt>
</event>
<event>
 4    1  0.4439578E+000  0.2362328E+03  0.7546771E-02  0.1122328E+00
         21   -1    0    0  501  502  0.00000000000E+00  0.00000000000E+00  0.22153019868E+03  0.22153019868E+03  0.00000000000E+00 0.  1.
         21   -1    0    0  502  503 -0.00000000000E+00 -0.00000000000E+00 -0.32156016144E+03  0.32156016144E+03  0.00000000000E+00 0. -1.
          6    1    1    2  501    0 -0.10218801329E+03  0.12423575350E+03  0.76362199509E+02  0.24826819777E+03  0.17300000000E+03 0.  1.
         -6    1    1    2    0  503  0.10218801329E+03 -0.12423575350E+03 -0.17639216226E+03  0.29482216236E+03  0.17300000000E+03 0. -1.
<mgrwt>
<rscale>  2 0.23623275E+03</rscale>
<asrwt>0</asrwt>
<pdfrwt beam="1">  1       21 0.34081569E-01 0.23623275E+03</pdfrwt>
<pdfrwt beam="2">  1       21 0.49470794E-01 0.23623275E+03</pdfrwt>
<totfact> 0.31606426E+04</totfact>
</mgrwt>
</event>
<event>
 4    1  0.4439578E+000  0.1816475E+03  0.7546771E-02  0.1166218E+00
         21   -1    0    0  503  502  0.00000000000E+00  0.00000000000E+00  0.41596769983E+03  0.41596769983E+03  0.00000000000E+00 0.  1.
         21   -1    0    0  501  503 -0.00000000000E+00 -0.00000000000E+00 -0.86007671310E+02  0.86007671310E+02  0.00000000000E+00 0.  1.
          6    1    1    2  501    0 -0.26191063014E+02  0.48793762105E+02  0.95008049187E+02  0.20499349359E+03  0.17300000000E+03 0. -1.
         -6    1    1    2    0  502  0.26191063014E+02 -0.48793762105E+02  0.23495197933E+03  0.29698187755E+03  0.17300000000E+03 0. -1.
<mgrwt>
<rscale>  2 0.18164747E+03</rscale>
<asrwt>0</asrwt>
<pdfrwt beam="1">  1       21 0.63995030E-01 0.18164747E+03</pdfrwt>
<pdfrwt beam="2">  1       21 0.13231950E-01 0.18164747E+03</pdfrwt>
<totfact> 0.11146029E+05</totfact>
</mgrwt>
</event>
<event>
 4    1  0.4439578E+000  0.1835270E+03  0.7546771E-02  0.1164433E+00
         21   -1    0    0  503  502  0.00000000000E+00  0.00000000000E+00  0.16764412001E+03  0.16764412001E+03  0.00000000000E+00 0. -1.
         21   -1    0    0  501  503 -0.00000000000E+00 -0.00000000000E+00 -0.21040761858E+03  0.21040761858E+03  0.00000000000E+00 0. -1.
          6    1    1    2  501    0  0.36174486289E+02 -0.49442695155E+02 -0.61532127731E+02  0.19356749806E+03  0.17300000000E+03 0. -1.
         -6    1    1    2    0  502 -0.36174486289E+02  0.49442695155E+02  0.18768629156E+02  0.18448424053E+03  0.17300000000E+03 0. -1.
<mgrwt>
<rscale>  2 0.18352704E+03</rscale>
<asrwt>0</asrwt>
<pdfrwt beam="1">  1       21 0.25791403E-01 0.18352704E+03</pdfrwt>
<pdfrwt beam="2">  1       21 0.32370402E-01 0.18352704E+03</pdfrwt>
<totfact> 0.13143895E+05</totfact>
</mgrwt>
</event>
<event>
 4    1  0.4439578E+000  0.2181542E+03  0.7546771E-02  0.1135267E+00
         21   -1    0    0  503  502  0.00000000000E+00  0.00000000000E+00  0.51025375735E+03  0.51025375735E+03  0.00000000000E+00 0.  1.
         21   -1    0    0  501  503 -0.00000000000E+00 -0.00000000000E+00 -0.12117403533E+03  0.12117403533E+03  0.00000000000E+00 0.  1.
          6    1    1    2  501    0 -0.27752857655E+02 -0.12996934673E+03  0.34604389074E+03  0.40906921971E+03  0.17300000000E+03 0.  1.
         -6    1    1    2    0  502  0.27752857655E+02  0.12996934673E+03  0.43035831281E+02  0.22235857296E+03  0.17300000000E+03 0.  1.
<mgrwt>
<rscale>  2 0.21815419E+03</rscale>
<asrwt>0</asrwt>
<pdfrwt beam="1">  1       21 0.78500577E-01 0.21815419E+03</pdfrwt>
<pdfrwt beam="2">  1       21 0.18642160E-01 0.21815419E+03</pdfrwt>
<totfact> 0.37267879E+04</totfact>
</mgrwt>
</event>
<event>
 4    1  0.4439578E+000  0.2038793E+03  0.7546771E-02  0.1146507E+00
         21   -1    0    0  503  502  0.00000000000E+00  0.00000000000E+00  0.13210418279E+03  0.13210418279E+03  0.00000000000E+00 0. -1.
         21   -1    0    0  501  503 -0.00000000000E+00 -0.00000000000E+00 -0.31745202681E+03  0.31745202681E+03  0.00000000000E+00 0. -1.
          6    1    1    2  501    0 -0.89110558209E+02  0.60803724823E+02 -0.11378603641E+03  0.23348243321E+03  0.17300000000E+03 0. -1.
         -6    1    1    2    0  502  0.89110558209E+02 -0.60803724823E+02 -0.71561807600E+02  0.21607377639E+03  0.17300000000E+03 0. -1.
<mgrwt>
<rscale>  2 0.20387934E+03</rscale>
<asrwt>0</asrwt>
<pdfrwt beam="1">  1       21 0.20323721E-01 0.20387934E+03</pdfrwt>
<pdfrwt beam="2">  1       21 0.48838773E-01 0.20387934E+03</pdfrwt>
<totfact> 0.89214017E+04</totfact>
</mgrwt>
</event>
<event>
 4    1  0.4439578E+000  0.2515589E+03  0.7546771E-02  0.1112324E+00
         21   -1    0    0  503  502  0.00000000000E+00  0.00000000000E+00  0.84158744667E+03  0.84158744667E+03  0.00000000000E+00 0.  1.
         21   -1    0    0  501  503 -0.00000000000E+00 -0.00000000000E+00 -0.28398876943E+03  0.28398876943E+03  0.00000000000E+00 0.  1.
          6    1    1    2  501    0  0.93831178870E+02 -0.15667984161E+03 -0.20376442763E+03  0.32373106873E+03  0.17300000000E+03 0.  1.
         -6    1    1    2    0  502 -0.93831178870E+02  0.15667984161E+03  0.76136310487E+03  0.80184514737E+03  0.17300000000E+03 0.  1.
<mgrwt>
<rscale>  2 0.25155887E+03</rscale>
<asrwt>0</asrwt>
<pdfrwt beam="1">  1       21 0.12947499E+00 0.25155887E+03</pdfrwt>
<pdfrwt beam="2">  1       21 0.43690580E-01 0.25155887E+03</pdfrwt>
<totfact> 0.20938136E+03</totfact>
</mgrwt>
</event>
<event>
 4    1  0.4439578E+000  0.1811435E+03  0.7546771E-02  0.1166701E+00
         21   -1    0    0  501  502  0.00000000000E+00  0.00000000000E+00  0.32113573485E+02  0.32113573485E+02  0.00000000000E+00 0. -1.
         21   -1    0    0  502  503 -0.00000000000E+00 -0.00000000000E+00 -0.13281316263E+04  0.13281316263E+04  0.00000000000E+00 0. -1.
          6    1    1    2  501    0  0.49665141702E+02 -0.20429363045E+02 -0.32136311508E+03  0.36890003647E+03  0.17300000000E+03 0. -1.
         -6    1    1    2    0  503 -0.49665141702E+02  0.20429363045E+02 -0.97465493773E+03  0.99134516331E+03  0.17300000000E+03 0. -1.
<mgrwt>
<rscale>  2 0.18114355E+03</rscale>
<asrwt>0</asrwt>
<pdfrwt beam="1">  1       21 0.49405502E-02 0.18114355E+03</pdfrwt>
<pdfrwt beam="2">  1       21 0.20432792E+00 0.18114355E+03</pdfrwt>
<totfact> 0.34870013E+04</totfact>
</mgrwt>
</event>
<event>
 4    1  0.4439578E+000  0.2191699E+03  0.7546771E-02  0.1134503E+00
         21   -1    0    0  501  502  0.00000000000E+00  0.00000000000E+00  0.30810322008E+02  0.30810322008E+02  0.00000000000E+00 0.  1.
         21   -1    0    0  502  503 -0.00000000000E+00 -0.00000000000E+00 -0.17854801525E+04  0.17854801525E+04  0.00000000000E+00 0.  1.
          6    1    1    2  501    0 -0.13437759869E+03 -0.70088532536E+01 -0.55394587381E+03  0.59572770136E+03  0.17300000000E+03 0.  1.
         -6    1    1    2    0  503  0.13437759869E+03  0.70088532536E+01 -0.12007239567E+04  0.12205627732E+04  0.17300000000E+03 0.  1.
<mgrwt>
<rscale>  2 0.21916994E+03</rscale>
<asrwt>0</asrwt>
<pdfrwt beam="1">  1       21 0.47400497E-02 0.21916994E+03</pdfrwt>
<pdfrwt beam="2">  1       21 0.27468925E+00 0.21916994E+03</pdfrwt>
<totfact> 0.13717528E+04</totfact>
</mgrwt>
</event>
<event>
 4    1  0.4439578E+000  0.1926790E+03  0.7546771E-02  0.1156067E+00
         21   -1    0    0  503  502  0.00000000000E+00  0.00000000000E+00  0.25247134152E+03  0.25247134152E+03  0.00000000000E+00 0. -1.
         21   -1    0    0  501  503 -0.00000000000E+00 -0.00000000000E+00 -0.20532441318E+03  0.20532441318E+03  0.00000000000E+00 0. -1.
          6    1    1    2  501    0  0.27324280470E+02 -0.80309394360E+02 -0.98373415325E+02  0.21633895620E+03  0.17300000000E+03 0. -1.
         -6    1    1    2    0  502 -0.27324280470E+02  0.80309394360E+02  0.14552034367E+03  0.24145679851E+03  0.17300000000E+03 0. -1.
<mgrwt>
<rscale>  2 0.19267905E+03</rscale>
<asrwt>0</asrwt>
<pdfrwt beam="1">  1       21 0.38841745E-01 0.19267905E+03</pdfrwt>
<pdfrwt beam="2">  1       21 0.31588371E-01 0.19267905E+03</pdfrwt>
<totfact> 0.61574778E+04</totfact>
</mgrwt>
</event>
<event>
 4    1  0.4439578E+000  0.2313840E+03  0.7546771E-02  0.1125669E+00
         21   -1    0    0  503  502  0.00000000000E+00  0.00000000000E+00  0.14417566525E+03  0.14417566525E+03  0.00000000000E+00 0. -1.
         21   -1    0    0  501  503 -0.00000000000E+00 -0.00000000000E+00 -0.42122367132E+03  0.42122367132E+03  0.00000000000E+00 0. -1.
          6    1    1    2  501    0  0.91166197331E+00  0.15365125449E+03 -0.23580715283E+03  0.33036881278E+03  0.17300000000E+03 0. -1.
         -6    1    1    2    0  502 -0.91166197331E+00 -0.15365125449E+03 -0.41240853245E+02  0.23503052378E+03  0.17300000000E+03 0. -1.
<mgrwt>
<rscale>  2 0.23138396E+03</rscale>
<asrwt>0</asrwt>
<pdfrwt beam="1">  1       21 0.22180872E-01 0.23138396E+03</pdfrwt>
<pdfrwt beam="2">  1       21 0.64803641E-01 0.23138396E+03</pdfrwt>
<totfact> 0.40916198E+04</totfact>
</mgrwt>
</event>
<event>
 4    1  0.4439578E+000  0.1788618E+03  0.7546771E-02  0.1168909E+00
         21   -1    0    0  501  502  0.00000000000E+00  0.00000000000E+00  0.23688505883E+03  0.23688505883E+03  0.00000000000E+00 0.  1.
         21   -1    0    0  502  503 -0.00000000000E+00 -0.00000000000E+00 -0.21814932226E+03  0.21814932226E+03  0.00000000000E+00 0.  1.
          6    1    1    2  501    0  0.41675371652E+01 -0.45223758325E+02  0.14978933069E+03  0.23329895043E+03  0.17300000000E+03 0.  1.
         -6    1    1    2    0  503 -0.41675371652E+01  0.45223758325E+02 -0.13105359411E+03  0.22173543067E+03  0.17300000000E+03 0.  1.
<mgrwt>
<rscale>  2 0.17886184E+03</rscale>
<asrwt>0</asrwt>
<pdfrwt beam="1">  1       21 0.36443855E-01 0.17886184E+03</pdfrwt>
<pdfrwt beam="2">  1       21 0.33561434E-01 0.17886184E+03</pdfrwt>
<totfact> 0.62469928E+04</totfact>
</mgrwt>
</event>
<event>
 4    1  0.4439578E+000  0.2289335E+03  0.7546771E-02  0.1127393E+00
         21   -1    0    0  501  502  0.00000000000E+00  0.00000000000E+00  0.50639978329E+02  0.50639978329E+02  0.00000000000E+00 0.  1.
         21   -1    0    0  502  503 -0.00000000000E+00 -0.00000000000E+00 -0.11316727092E+04  0.11316727092E+04  0.00000000000E+00 0. -1.
          6    1    1    2  501    0  0.59871016571E+02  0.13746642904E+03 -0.36770409179E+03  0.43314761555E+03  0.17300000000E+03 0.  1.
         -6    1    1    2    0  503 -0.59871016571E+02 -0.13746642904E+03 -0.71332863911E+03  0.74916507200E+03  0.17300000000E+03 0. -1.
<mgrwt>
<rscale>  2 0.22893352E+03</rscale>
<asrwt>0</asrwt>
<pdfrwt beam="1">  1       21 0.77907660E-02 0.22893352E+03</pdfrwt>
<pdfrwt beam="2">  1       21 0.17410349E+00 0.22893352E+03</pdfrwt>
<totfact> 0.24513653E+04</totfact>
</mgrwt>
</event>
<event>
 4    1  0.4439578E+000  0.2241006E+03  0.7546771E-02  0.1130862E+00
         21   -1    0    0  503  502  0.00000000000E+00  0.00000000000E+00  0.99642860288E+02  0.99642860288E+02  0.00000000000E+00 0. -1.
         21   -1    0    0  501  503 -0.00000000000E+00 -0.00000000000E+00 -0.55078635539E+03  0.55078635539E+03  0.00000000000E+00 0.  1.
          6    1    1    2  501    0 -0.21621760519E+01  0.14243389682E+03 -0.32034534466E+03  0.39095041861E+03  0.17300000000E+03 0.  1.
         -6    1    1    2    0  502  0.21621760519E+01 -0.14243389682E+03 -0.13079815044E+03  0.25947879707E+03  0.17300000000E+03 0. -1.
<mgrwt>
<rscale>  2 0.22410062E+03</rscale>
<asrwt>0</asrwt>
<pdfrwt beam="1">  1       21 0.15329670E-01 0.22410062E+03</pdfrwt>
<pdfrwt beam="2">  1       21 0.84736365E-01 0.22410062E+03</pdfrwt>
<totfact> 0.44797015E+04</totfact>
</mgrwt>
</event>
<event>
 4    1  0.4439578E+000  0.1789508E+03  0.7546771E-02  0.1168822E+00
         21   -1    0    0  501  502  0.00000000000E+00  0.00000000000E+00  0.22030930651E+03  0.22030930651E+03  0.00000000000E+00 0.  1.
         21   -1    0    0  502  503 -0.00000000000E+00 -0.00000000000E+00 -0.20477231008E+03  0.20477231008E+03  0.00000000000E+00 0.  1.
          6    1    1    2  501    0 -0.81218444077E+01  0.45037935762E+02  0.12225594898E+03  0.21672539555E+03  0.17300000000E+03 0.  1.
         -6    1    1    2    0  503  0.81218444077E+01 -0.45037935762E+02 -0.10671895255E+03  0.20835622105E+03  0.17300000000E+03 0.  1.
<mgrwt>
<rscale>  2 0.17895078E+03</rscale>
<asrwt>0</asrwt>
<pdfrwt beam="1">  1       21 0.33893739E-01 0.17895078E+03</pdfrwt>
<pdfrwt beam="2">  1       21 0.31503432E-01 0.17895078E+03</pdfrwt>
<totfact> 0.81671409E+04</totfact>
</mgrwt>
</event>
<event>
 4    1  0.4439578E+000  0.2672689E+03  0.7546771E-02  0.1102853E+00
         21   -1    0    0  503  502  0.00000000000E+00  0.00000000000E+00  0.63848158294E+03  0.63848158294E+03  0.00000000000E+00 0.  1.
         21   -1    0    0  501  503 -0.00000000000E+00 -0.00000000000E+00 -0.11278173863E+03  0.11278173863E+03  0.00000000000E+00 0.  1.
          6    1    1    2  501    0 -0.19589447230E+03 -0.55937719691E+02  0.22924314073E+03  0.35211516629E+03  0.17300000000E+03 0.  1.
         -6    1    1    2    0  502  0.19589447230E+03  0.55937719691E+02  0.29645670359E+03  0.39914815528E+03  0.17300000000E+03 0.  1.
<mgrwt>
<rscale>  2 0.26726891E+03</rscale>
<asrwt>0</asrwt>
<pdfrwt beam="1">  1       21 0.98227934E-01 0.26726891E+03</pdfrwt>
<pdfrwt beam="2">  1       21 0.17351037E-01 0.26726891E+03</pdfrwt>
<totfact> 0.24749099E+04</totfact>
</mgrwt>
</event>
<event>
 4    1  0.4439578E+000  0.1948155E+03  0.7546771E-02  0.1154188E+00
         21   -1    0    0  503  502  0.00000000000E+00  0.00000000000E+00  0.41989603153E+03  0.41989603153E+03  0.00000000000E+00 0.  1.
         21   -1    0    0  501  503 -0.00000000000E+00 -0.00000000000E+00 -0.99774934390E+02  0.99774934390E+02  0.00000000000E+00 0. -1.
          6    1    1    2  501    0  0.31996145080E+02 -0.83668051452E+02  0.80357429926E+02  0.21073778180E+03  0.17300000000E+03 0. -1.
         -6    1    1    2    0  502 -0.31996145080E+02  0.83668051452E+02  0.23976366721E+03  0.30893318412E+03  0.17300000000E+03 0. -1.
<mgrwt>
<rscale>  2 0.19481554E+03</rscale>
<asrwt>0</asrwt>
<pdfrwt beam="1">  1       21 0.64599389E-01 0.19481554E+03</pdfrwt>
<pdfrwt beam="2">  1       21 0.15349990E-01 0.19481554E+03</pdfrwt>
<totfact> 0.83014532E+04</totfact>
</mgrwt>
</event>
<event>
 4    1  0.4439578E+000  0.2213112E+03  0.7546771E-02  0.1132909E+00
         21   -1    0    0  501  502  0.00000000000E+00  0.00000000000E+00  0.68306763485E+02  0.68306763485E+02  0.00000000000E+00 0.  1.
         21   -1    0    0  502  503 -0.00000000000E+00 -0.00000000000E+00 -0.98245102033E+03  0.98245102033E+03  0.00000000000E+00 0.  1.
          6    1    1    2  501    0  0.13686509833E+03 -0.17821512783E+02 -0.73014394806E+03  0.76294747286E+03  0.17300000000E+03 0.  1.
         -6    1    1    2    0  503 -0.13686509833E+03  0.17821512783E+02 -0.18400030879E+03  0.28781031096E+03  0.17300000000E+03 0.  1.
<mgrwt>
<rscale>  2 0.22131123E+03</rscale>
<asrwt>0</asrwt>
<pdfrwt beam="1">  1       21 0.10508733E-01 0.22131123E+03</pdfrwt>
<pdfrwt beam="2">  1       21 0.15114630E+00 0.22131123E+03</pdfrwt>
<totfact> 0.21375219E+04</totfact>
</mgrwt>
</event>
<event>
 4    1  0.4439578E+000  0.1892364E+03  0.7546771E-02  0.1159152E+00
         21   -1    0    0  501  502  0.00000000000E+00  0.00000000000E+00  0.98306256742E+03  0.98306256742E+03  0.00000000000E+00 0.  1.
         21   -1    0    0  502  503 -0.00000000000E+00 -0.00000000000E+00 -0.41596187538E+02  0.41596187538E+02  0.00000000000E+00 0.  1.
          6    1    1    2  501    0 -0.68485424567E+02 -0.34513022490E+02  0.65133301186E+03  0.67826624156E+03  0.17300000000E+03 0.  1.
         -6    1    1    2    0  503  0.68485424567E+02  0.34513022490E+02  0.29013336802E+03  0.34639251340E+03  0.17300000000E+03 0.  1.
<mgrwt>
<rscale>  2 0.18923637E+03</rscale>
<asrwt>0</asrwt>
<pdfrwt beam="1">  1       21 0.15124038E+00 0.18923637E+03</pdfrwt>
<pdfrwt beam="2">  1       21 0.63994142E-02 0.18923637E+03</pdfrwt>
<totfact> 0.51735381E+04</totfact>
</mgrwt>
</event>
<event>
 4    1  0.4439578E+000  0.2115440E+03  0.7546771E-02  0.1140349E+00
         21   -1    0    0  501  502  0.00000000000E+00  0.00000000000E+00  0.24105734596E+03  0.24105734596E+03  0.00000000000E+00 0.  1.
         21   -1    0    0  502  503 -0.00000000000E+00 -0.00000000000E+00 -0.19026383214E+03  0.19026383214E+03  0.00000000000E+00 0.  1.
          6    1    1    2  501    0 -0.11486703508E+03  0.40341494571E+02  0.59001569353E+02  0.21961797995E+03  0.17300000000E+03 0.  1.
         -6    1    1    2    0  503  0.11486703508E+03 -0.40341494571E+02 -0.82080555251E+01  0.21170319815E+03  0.17300000000E+03 0.  1.
<mgrwt>
<rscale>  2 0.21154402E+03</rscale>
<asrwt>0</asrwt>
<pdfrwt beam="1">  1       21 0.37085746E-01 0.21154402E+03</pdfrwt>
<pdfrwt beam="2">  1       21 0.29271359E-01 0.21154402E+03</pdfrwt>
<totfact> 0.77756360E+04</totfact>
</mgrwt>
</event>
<event>
 4    1  0.4439578E+000  0.2053593E+03  0.7546771E-02  0.1145295E+00
         21   -1    0    0  501  502  0.00000000000E+00  0.00000000000E+00  0.51106310828E+02  0.51106310828E+02  0.00000000000E+00 0. -1.
         21   -1    0    0  502  503 -0.00000000000E+00 -0.00000000000E+00 -0.84068085769E+03  0.84068085769E+03  0.00000000000E+00 0. -1.
          6    1    1    2  501    0 -0.11034722005E+03  0.81807360341E+01 -0.33426032581E+03  0.39230396228E+03  0.17300000000E+03 0. -1.
         -6    1    1    2    0  503  0.11034722005E+03 -0.81807360341E+01 -0.45531422105E+03  0.49948320623E+03  0.17300000000E+03 0. -1.
<mgrwt>
<rscale>  2 0.20535928E+03</rscale>
<asrwt>0</asrwt>
<pdfrwt beam="1">  1       21 0.78625102E-02 0.20535928E+03</pdfrwt>
<pdfrwt beam="2">  1       21 0.12933550E+00 0.20535928E+03</pdfrwt>
<totfact> 0.53790240E+04</totfact>
</mgrwt>
</event>
<event>
 4    1  0.4439578E+000  0.3637664E+03  0.7546771E-02  0.1057102E+00
         21   -1    0    0  501  502  0.00000000000E+00  0.00000000000E+00  0.29282878335E+03  0.29282878335E+03  0.00000000000E+00 0.  1.
         21   -1    0    0  502  503 -0.00000000000E+00 -0.00000000000E+00 -0.73900705290E+03  0.73900705290E+03  0.00000000000E+00 0. -1.
          6    1    1    2  501    0 -0.66900279668E+01  0.31992539252E+03  0.98489220493E+02  0.37686355595E+03  0.17300000000E+03 0.  1.
         -6    1    1    2    0  503  0.66900279668E+01 -0.31992539252E+03 -0.54466749004E+03  0.65497228030E+03  0.17300000000E+03 0. -1.
<mgrwt>
<rscale>  2 0.36376643E+03</rscale>
<asrwt>0</asrwt>
<pdfrwt beam="1">  1       21 0.45050583E-01 0.36376643E+03</pdfrwt>
<pdfrwt beam="2">  1       21 0.11369339E+00 0.36376643E+03</pdfrwt>
<totfact> 0.25543859E+03</totfact>
</mgrwt>
</event>
<event>
 4    1  0.4439578E+000  0.3545933E+03  0.7546771E-02  0.1060745E+00
         21   -1    0    0  503  502  0.00000000000E+00  0.00000000000E+00  0.19202074846E+04  0.19202074846E+04  0.00000000000E+00 0.  1.
         21   -1    0    0  501  503 -0.00000000000E+00 -0.00000000000E+00 -0.69757504279E+02  0.69757504279E+02  0.00000000000E+00 0. -1.
          6    1    1    2  501    0 -0.14837674925E+03 -0.27164630529E+03  0.11715926896E+04  0.12240775323E+04  0.17300000000E+03 0. -1.
         -6    1    1    2    0  502  0.14837674925E+03  0.27164630529E+03  0.67885729076E+03  0.76588745656E+03  0.17300000000E+03 0.  1.
<mgrwt>
<rscale>  2 0.35459325E+03</rscale>
<asrwt>0</asrwt>
<pdfrwt beam="1">  1       21 0.29541650E+00 0.35459325E+03</pdfrwt>
<pdfrwt beam="2">  1       21 0.10731925E-01 0.35459325E+03</pdfrwt>
<totfact> 0.22486683E+03</totfact>
</mgrwt>
</event>
<event>
 4    1  0.4439578E+000  0.1915601E+03  0.7546771E-02  0.1157062E+00
         21   -1    0    0  503  502  0.00000000000E+00  0.00000000000E+00  0.32451638021E+03  0.32451638021E+03  0.00000000000E+00 0.  1.
         21   -1    0    0  501  503 -0.00000000000E+00 -0.00000000000E+00 -0.11616172554E+03  0.11616172554E+03  0.00000000000E+00 0.  1.
          6    1    1    2  501    0  0.26299163134E+02  0.77939805770E+02  0.14008484998E+03  0.23731629632E+03  0.17300000000E+03 0.  1.
         -6    1    1    2    0  502 -0.26299163134E+02 -0.77939805770E+02  0.68269804685E+02  0.20336180944E+03  0.17300000000E+03 0.  1.
<mgrwt>
<rscale>  2 0.19156007E+03</rscale>
<asrwt>0</asrwt>
<pdfrwt beam="1">  1       21 0.49925597E-01 0.19156007E+03</pdfrwt>
<pdfrwt beam="2">  1       21 0.17871035E-01 0.19156007E+03</pdfrwt>
<totfact> 0.10879738E+05</totfact>
</mgrwt>
</event>
<event>
 4    1  0.4439578E+000  0.1981809E+03  0.7546771E-02  0.1151283E+00
         21   -1    0    0  503  502  0.00000000000E+00  0.00000000000E+00  0.30369460339E+02  0.30369460339E+02  0.00000000000E+00 0.  1.
         21   -1    0    0  501  503 -0.00000000000E+00 -0.00000000000E+00 -0.14840278039E+04  0.14840278039E+04  0.00000000000E+00 0.  1.
          6    1    1    2  501    0  0.73140004285E+02 -0.63223426631E+02 -0.99831010420E+03  0.10177911014E+04  0.17300000000E+03 0.  1.
         -6    1    1    2    0  502 -0.73140004285E+02  0.63223426631E+02 -0.45534823938E+03  0.49660616288E+03  0.17300000000E+03 0.  1.
<mgrwt>
<rscale>  2 0.19818088E+03</rscale>
<asrwt>0</asrwt>
<pdfrwt beam="1">  1       21 0.46722261E-02 0.19818088E+03</pdfrwt>
<pdfrwt beam="2">  1       21 0.22831190E+00 0.19818088E+03</pdfrwt>
<totfact> 0.26894747E+04</totfact>
</mgrwt>
</event>
<event>
 4    1  0.4439578E+000  0.2108167E+03  0.7546771E-02  0.1140921E+00
         21   -1    0    0  501  502  0.00000000000E+00  0.00000000000E+00  0.21945925559E+03  0.21945925559E+03  0.00000000000E+00 0.  1.
         21   -1    0    0  502  503 -0.00000000000E+00 -0.00000000000E+00 -0.20369911036E+03  0.20369911036E+03  0.00000000000E+00 0.  1.
          6    1    1    2  501    0  0.56433084607E+02  0.10644234099E+03  0.24015476872E+02  0.21218013131E+03  0.17300000000E+03 0.  1.
         -6    1    1    2    0  503 -0.56433084607E+02 -0.10644234099E+03 -0.82553316476E+01  0.21097823464E+03  0.17300000000E+03 0.  1.
<mgrwt>
<rscale>  2 0.21081666E+03</rscale>
<asrwt>0</asrwt>
<pdfrwt beam="1">  1       21 0.33762962E-01 0.21081666E+03</pdfrwt>
<pdfrwt beam="2">  1       21 0.31338325E-01 0.21081666E+03</pdfrwt>
<totfact> 0.82059418E+04</totfact>
</mgrwt>
</event>
<event>
 4    1  0.4439578E+000  0.1942743E+03  0.7546771E-02  0.1154662E+00
         21   -1    0    0  501  502  0.00000000000E+00  0.00000000000E+00  0.18720381446E+03  0.18720381446E+03  0.00000000000E+00 0. -1.
         21   -1    0    0  502  503 -0.00000000000E+00 -0.00000000000E+00 -0.25946502673E+03  0.25946502673E+03  0.00000000000E+00 0. -1.
          6    1    1    2  501    0  0.17998214576E+02 -0.86542294218E+02 -0.14158869898E+03  0.24039522478E+03  0.17300000000E+03 0. -1.
         -6    1    1    2    0  503 -0.17998214576E+02  0.86542294218E+02  0.69327486714E+02  0.20627361642E+03  0.17300000000E+03 0. -1.
<mgrwt>
<rscale>  2 0.19427430E+03</rscale>
<asrwt>0</asrwt>
<pdfrwt beam="1">  1       21 0.28800587E-01 0.19427430E+03</pdfrwt>
<pdfrwt beam="2">  1       21 0.39917696E-01 0.19427430E+03</pdfrwt>
<totfact> 0.69731305E+04</totfact>
</mgrwt>
</event>
<event>
 4    1  0.4439578E+000  0.1741936E+03  0.7546771E-02  0.1173544E+00
         21   -1    0    0  503  502  0.00000000000E+00  0.00000000000E+00  0.85158294589E+02  0.85158294589E+02  0.00000000000E+00 0. -1.
         21   -1    0    0  501  503 -0.00000000000E+00 -0.00000000000E+00 -0.40624925446E+03  0.40624925446E+03  0.00000000000E+00 0. -1.
          6    1    1    2  501    0 -0.58086434214E+01  0.19511070063E+02 -0.24668497884E+03  0.30198824643E+03  0.17300000000E+03 0. -1.
         -6    1    1    2    0  502  0.58086434214E+01 -0.19511070063E+02 -0.74405981031E+02  0.18941930262E+03  0.17300000000E+03 0. -1.
<mgrwt>
<rscale>  2 0.17419363E+03</rscale>
<asrwt>0</asrwt>
<pdfrwt beam="1">  1       21 0.13101276E-01 0.17419363E+03</pdfrwt>
<pdfrwt beam="2">  1       21 0.62499886E-01 0.17419363E+03</pdfrwt>
<totfact> 0.11975290E+05</totfact>
</mgrwt>
</event>
<event>
 4    1  0.4439578E+000  0.1800316E+03  0.7546771E-02  0.1167773E+00
         21   -1    0    0  503  502  0.00000000000E+00  0.00000000000E+00  0.17094011626E+02  0.17094011626E+02  0.00000000000E+00 0.  1.
         21   -1    0    0  501  503 -0.00000000000E+00 -0.00000000000E+00 -0.18961086262E+04  0.18961086262E+04  0.00000000000E+00 0.  1.
          6    1    1    2  501    0  0.36458364725E+02 -0.33958064513E+02 -0.93493526820E+03  0.95211097999E+03  0.17300000000E+03 0.  1.
         -6    1    1    2    0  502 -0.36458364725E+02  0.33958064513E+02 -0.94407934640E+03  0.96109165786E+03  0.17300000000E+03 0.  1.
<mgrwt>
<rscale>  2 0.18003156E+03</rscale>
<asrwt>0</asrwt>
<pdfrwt beam="1">  1       21 0.26298476E-02 0.18003156E+03</pdfrwt>
<pdfrwt beam="2">  1       21 0.29170906E+00 0.18003156E+03</pdfrwt>
<totfact> 0.30323309E+04</totfact>
</mgrwt>
</event>
<event>
 4    1  0.4439578E+000  0.2156864E+03  0.7546771E-02  0.1137140E+00
         21   -1    0    0  503  502  0.00000000000E+00  0.00000000000E+00  0.93201347410E+03  0.93201347410E+03  0.00000000000E+00 0. -1.
         21   -1    0    0  501  503 -0.00000000000E+00 -0.00000000000E+00 -0.13555556494E+03  0.13555556494E+03  0.00000000000E+00 0.  1.
          6    1    1    2  501    0  0.88492825043E+02 -0.93598316404E+02 -0.26047872361E+02  0.21725357666E+03  0.17300000000E+03 0.  1.
         -6    1    1    2    0  502 -0.88492825043E+02  0.93598316404E+02  0.82250578152E+03  0.85031546237E+03  0.17300000000E+03 0. -1.
<mgrwt>
<rscale>  2 0.21568640E+03</rscale>
<asrwt>0</asrwt>
<pdfrwt beam="1">  1       21 0.14338668E+00 0.21568640E+03</pdfrwt>
<pdfrwt beam="2">  1       21 0.20854703E-01 0.21568640E+03</pdfrwt>
<totfact> 0.70525283E+03</totfact>
</mgrwt>
</event>
<event>
 4    1  0.4439578E+000  0.2521352E+03  0.7546771E-02  0.1111963E+00
         21   -1    0    0  503  502  0.00000000000E+00  0.00000000000E+00  0.60918226197E+03  0.60918226197E+03  0.00000000000E+00 0. -1.
         21   -1    0    0  501  503 -0.00000000000E+00 -0.00000000000E+00 -0.11626346744E+03  0.11626346744E+03  0.00000000000E+00 0. -1.
          6    1    1    2  501    0 -0.15148727839E+03  0.10341537874E+03  0.13038039678E+03  0.28385063667E+03  0.17300000000E+03 0. -1.
         -6    1    1    2    0  502  0.15148727839E+03 -0.10341537874E+03  0.36253839775E+03  0.44159509273E+03  0.17300000000E+03 0. -1.
<mgrwt>
<rscale>  2 0.25213515E+03</rscale>
<asrwt>0</asrwt>
<pdfrwt beam="1">  1       21 0.93720346E-01 0.25213515E+03</pdfrwt>
<pdfrwt beam="2">  1       21 0.17886688E-01 0.25213515E+03</pdfrwt>
<totfact> 0.26320672E+04</totfact>
</mgrwt>
</event>
<event>
 4    1  0.4439578E+000  0.2120046E+03  0.7546771E-02  0.1139988E+00
         21   -1    0    0  501  502  0.00000000000E+00  0.00000000000E+00  0.16360192013E+03  0.16360192013E+03  0.00000000000E+00 0. -1.
         21   -1    0    0  502  503 -0.00000000000E+00 -0.00000000000E+00 -0.27794523110E+03  0.27794523110E+03  0.00000000000E+00 0. -1.
          6    1    1    2  501    0 -0.11011937585E+03 -0.53765127473E+02 -0.33417785947E+02  0.21462225954E+03  0.17300000000E+03 0. -1.
         -6    1    1    2    0  503  0.11011937585E+03  0.53765127473E+02 -0.80925525022E+02  0.22692489170E+03  0.17300000000E+03 0. -1.
<mgrwt>
<rscale>  2 0.21200464E+03</rscale>
<asrwt>0</asrwt>
<pdfrwt beam="1">  1       21 0.25169526E-01 0.21200464E+03</pdfrwt>
<pdfrwt beam="2">  1       21 0.42760805E-01 0.21200464E+03</pdfrwt>
<totfact> 0.78006459E+04</totfact>
</mgrwt>
</event>
<event>
 4    1  0.4439578E+000  0.1817162E+03  0.7546771E-02  0.1166152E+00
         21   -1    0    0  503  502  0.00000000000E+00  0.00000000000E+00  0.26506159209E+03  0.26506159209E+03  0.00000000000E+00 0. -1.
         21   -1    0    0  501  503 -0.00000000000E+00 -0.00000000000E+00 -0.17727337144E+03  0.17727337144E+03  0.00000000000E+00 0. -1.
          6    1    1    2  501    0 -0.38861049389E+02  0.39769416541E+02 -0.76689037445E+02  0.19723588952E+03  0.17300000000E+03 0. -1.
         -6    1    1    2    0  502  0.38861049389E+02 -0.39769416541E+02  0.16447725810E+03  0.24509907401E+03  0.17300000000E+03 0. -1.
<mgrwt>
<rscale>  2 0.18171623E+03</rscale>
<asrwt>0</asrwt>
<pdfrwt beam="1">  1       21 0.40778707E-01 0.18171623E+03</pdfrwt>
<pdfrwt beam="2">  1       21 0.27272826E-01 0.18171623E+03</pdfrwt>
<totfact> 0.74596378E+04</totfact>
</mgrwt>
</event>
<event>
 4    1  0.4439578E+000  0.7022542E+03  0.7546771E-02  0.9713385E-01
         21   -1    0    0  501  502  0.00000000000E+00  0.00000000000E+00  0.33785256858E+03  0.33785256858E+03  0.00000000000E+00 0. -1.
         21   -1    0    0  502  503 -0.00000000000E+00 -0.00000000000E+00 -0.14737851218E+04  0.14737851218E+04  0.00000000000E+00 0.  1.
          6    1    1    2  501    0  0.20498535772E+03  0.64900927141E+03 -0.47939102853E+03  0.85028041815E+03  0.17300000000E+03 0. -1.
         -6    1    1    2    0  503 -0.20498535772E+03 -0.64900927141E+03 -0.65654152473E+03  0.96135727227E+03  0.17300000000E+03 0.  1.
<mgrwt>
<rscale>  2 0.70225425E+03</rscale>
<asrwt>0</asrwt>
<pdfrwt beam="1">  1       21 0.51977319E-01 0.70225425E+03</pdfrwt>
<pdfrwt beam="2">  1       21 0.22673617E+00 0.70225425E+03</pdfrwt>
<totfact> 0.23300464E+02</totfact>
</mgrwt>
</event>
<event>
 4    1  0.4439578E+000  0.1829929E+03  0.7546771E-02  0.1164938E+00
         21   -1    0    0  503  502  0.00000000000E+00  0.00000000000E+00  0.48166810811E+02  0.48166810811E+02  0.00000000000E+00 0. -1.
         21   -1    0    0  501  503 -0.00000000000E+00 -0.00000000000E+00 -0.74793194736E+03  0.74793194736E+03  0.00000000000E+00 0. -1.
          6    1    1    2  501    0  0.59629761014E+02 -0.13068457108E+01 -0.45555706451E+03  0.49093650839E+03  0.17300000000E+03 0. -1.
         -6    1    1    2    0  502 -0.59629761014E+02  0.13068457108E+01 -0.24420807205E+03  0.30516224979E+03  0.17300000000E+03 0. -1.
<mgrwt>
<rscale>  2 0.18299294E+03</rscale>
<asrwt>0</asrwt>
<pdfrwt beam="1">  1       21 0.74102788E-02 0.18299294E+03</pdfrwt>
<pdfrwt beam="2">  1       21 0.11506645E+00 0.18299294E+03</pdfrwt>
<totfact> 0.80597798E+04</totfact>
</mgrwt>
</event>
<event>
 4    1  0.4439578E+000  0.2259483E+03  0.7546771E-02  0.1129524E+00
         21   -1    0    0  503  502  0.00000000000E+00  0.00000000000E+00  0.41611450900E+03  0.41611450900E+03  0.00000000000E+00 0. -1.
         21   -1    0    0  501  503 -0.00000000000E+00 -0.00000000000E+00 -0.17781395163E+03  0.17781395163E+03  0.00000000000E+00 0.  1.
          6    1    1    2  501    0  0.92501600296E+02  0.11210293707E+03 -0.46196557110E+02  0.23062249770E+03  0.17300000000E+03 0.  1.
         -6    1    1    2    0  502 -0.92501600296E+02 -0.11210293707E+03  0.28449711448E+03  0.36330596293E+03  0.17300000000E+03 0. -1.
<mgrwt>
<rscale>  2 0.22594826E+03</rscale>
<asrwt>0</asrwt>
<pdfrwt beam="1">  1       21 0.64017617E-01 0.22594826E+03</pdfrwt>
<pdfrwt beam="2">  1       21 0.27355993E-01 0.22594826E+03</pdfrwt>
<totfact> 0.28199776E+04</totfact>
</mgrwt>
</event>
<event>
 4    1  0.4439578E+000  0.2124399E+03  0.7546771E-02  0.1139648E+00
         21   -1    0    0  503  502  0.00000000000E+00  0.00000000000E+00  0.24188047841E+03  0.24188047841E+03  0.00000000000E+00 0. -1.
         21   -1    0    0  501  503 -0.00000000000E+00 -0.00000000000E+00 -0.36820592938E+03  0.36820592938E+03  0.00000000000E+00 0.  1.
          6    1    1    2  501    0 -0.10919792434E+03  0.57249569477E+02 -0.27740330037E+03  0.34940419423E+03  0.17300000000E+03 0.  1.
         -6    1    1    2    0  502  0.10919792434E+03 -0.57249569477E+02  0.15107784940E+03  0.26068221356E+03  0.17300000000E+03 0. -1.
<mgrwt>
<rscale>  2 0.21243987E+03</rscale>
<asrwt>0</asrwt>
<pdfrwt beam="1">  1       21 0.37212382E-01 0.21243987E+03</pdfrwt>
<pdfrwt beam="2">  1       21 0.56647066E-01 0.21243987E+03</pdfrwt>
<totfact> 0.20169220E+04</totfact>
</mgrwt>
</event>
<event>
 4    1  0.4439578E+000  0.1939291E+03  0.7546771E-02  0.1154965E+00
         21   -1    0    0  503  502  0.00000000000E+00  0.00000000000E+00  0.15839992618E+03  0.15839992618E+03  0.00000000000E+00 0.  1.
         21   -1    0    0  501  503 -0.00000000000E+00 -0.00000000000E+00 -0.29114534149E+03  0.29114534149E+03  0.00000000000E+00 0. -1.
          6    1    1    2  501    0  0.29532359263E+02  0.82506473693E+02 -0.16292182319E+03  0.25328244889E+03  0.17300000000E+03 0.  1.
         -6    1    1    2    0  502 -0.29532359263E+02 -0.82506473693E+02  0.30176407882E+02  0.19626281879E+03  0.17300000000E+03 0.  1.
<mgrwt>
<rscale>  2 0.19392906E+03</rscale>
<asrwt>0</asrwt>
<pdfrwt beam="1">  1       21 0.24369220E-01 0.19392906E+03</pdfrwt>
<pdfrwt beam="2">  1       21 0.44791591E-01 0.19392906E+03</pdfrwt>
<totfact> 0.76043150E+04</totfact>
</mgrwt>
</event>
<event>
 4    1  0.4439578E+000  0.2482869E+03  0.7546771E-02  0.1114392E+00
         21   -1    0    0  503  502  0.00000000000E+00  0.00000000000E+00  0.10032643560E+04  0.10032643560E+04  0.00000000000E+00 0. -1.
         21   -1    0    0  501  503 -0.00000000000E+00 -0.00000000000E+00 -0.72532756030E+02  0.72532756030E+02  0.00000000000E+00 0. -1.
          6    1    1    2  501    0  0.12708772619E+03  0.12476407076E+03  0.25506554846E+03  0.35595617358E+03  0.17300000000E+03 0. -1.
         -6    1    1    2    0  502 -0.12708772619E+03 -0.12476407076E+03  0.67566605154E+03  0.71984093847E+03  0.17300000000E+03 0. -1.
<mgrwt>
<rscale>  2 0.24828686E+03</rscale>
<asrwt>0</asrwt>
<pdfrwt beam="1">  1       21 0.15434835E+00 0.24828686E+03</pdfrwt>
<pdfrwt beam="2">  1       21 0.11158886E-01 0.24828686E+03</pdfrwt>
<totfact> 0.17877778E+04</totfact>
</mgrwt>
</event>
<event>
 4    1  0.4439578E+000  0.2127893E+03  0.7546771E-02  0.1139376E+00
         21   -1    0    0  503  502  0.00000000000E+00  0.00000000000E+00  0.90990214823E+03  0.90990214823E+03  0.00000000000E+00 0. -1.
         21   -1    0    0  501  503 -0.00000000000E+00 -0.00000000000E+00 -0.12400609600E+03  0.12400609600E+03  0.00000000000E+00 0.  1.
          6    1    1    2  501    0  0.38458813669E+02  0.11777606175E+03 -0.70511522374E+01  0.21290608215E+03  0.17300000000E+03 0.  1.
         -6    1    1    2    0  502 -0.38458813669E+02 -0.11777606175E+03  0.79294720446E+03  0.82100216208E+03  0.17300000000E+03 0. -1.
<mgrwt>
<rscale>  2 0.21278929E+03</rscale>
<asrwt>0</asrwt>
<pdfrwt beam="1">  1       21 0.13998494E+00 0.21278929E+03</pdfrwt>
<pdfrwt beam="2">  1       21 0.19077861E-01 0.21278929E+03</pdfrwt>
<totfact> 0.88879909E+03</totfact>
</mgrwt>
</event>
<event>
 4    1  0.4439578E+000  0.2345086E+03  0.7546771E-02  0.1123506E+00
         21   -1    0    0  503  502  0.00000000000E+00  0.00000000000E+00  0.85881627037E+03  0.85881627037E+03  0.00000000000E+00 0.  1.
         21   -1    0    0  501  503 -0.00000000000E+00 -0.00000000000E+00 -0.81796795501E+02  0.81796795501E+02  0.00000000000E+00 0. -1.
          6    1    1    2  501    0  0.41502032329E+01 -0.15826578687E+03  0.16935213904E+03  0.28926532886E+03  0.17300000000E+03 0. -1.
         -6    1    1    2    0  502 -0.41502032329E+01  0.15826578687E+03  0.60766733583E+03  0.65134773702E+03  0.17300000000E+03 0.  1.
<mgrwt>
<rscale>  2 0.23450860E+03</rscale>
<asrwt>0</asrwt>
<pdfrwt beam="1">  1       21 0.13212557E+00 0.23450860E+03</pdfrwt>
<pdfrwt beam="2">  1       21 0.12584123E-01 0.23450860E+03</pdfrwt>
<totfact> 0.21801276E+04</totfact>
</mgrwt>
</event>
<event>
 4    1  0.4439578E+000  0.1904224E+03  0.7546771E-02  0.1158081E+00
         21   -1    0    0  501  502  0.00000000000E+00  0.00000000000E+00  0.70728741602E+03  0.70728741602E+03  0.00000000000E+00 0. -1.
         21   -1    0    0  502  503 -0.00000000000E+00 -0.00000000000E+00 -0.55167797946E+02  0.55167797946E+02  0.00000000000E+00 0. -1.
          6    1    1    2  501    0  0.48659300049E+01  0.79423092604E+02  0.22469144699E+03  0.29452835392E+03  0.17300000000E+03 0. -1.
         -6    1    1    2    0  503 -0.48659300049E+01 -0.79423092604E+02  0.42742817109E+03  0.46792686005E+03  0.17300000000E+03 0. -1.
<mgrwt>
<rscale>  2 0.19042244E+03</rscale>
<asrwt>0</asrwt>
<pdfrwt beam="1">  1       21 0.10881344E+00 0.19042244E+03</pdfrwt>
<pdfrwt beam="2">  1       21 0.84873540E-02 0.19042244E+03</pdfrwt>
<totfact> 0.72648596E+04</totfact>
</mgrwt>
</event>
<event>
 4    1  0.4439578E+000  0.2150963E+03  0.7546771E-02  0.1137593E+00
         21   -1    0    0  501  502  0.00000000000E+00  0.00000000000E+00  0.29158921129E+03  0.29158921129E+03  0.00000000000E+00 0.  1.
         21   -1    0    0  502  503 -0.00000000000E+00 -0.00000000000E+00 -0.16917094272E+03  0.16917094272E+03  0.00000000000E+00 0.  1.
          6    1    1    2  501    0  0.41331350486E+02 -0.12095101690E+03  0.38109192496E+01  0.21513008188E+03  0.17300000000E+03 0.  1.
         -6    1    1    2    0  503 -0.41331350486E+02  0.12095101690E+03  0.11860734932E+03  0.24563007213E+03  0.17300000000E+03 0.  1.
<mgrwt>
<rscale>  2 0.21509632E+03</rscale>
<asrwt>0</asrwt>
<pdfrwt beam="1">  1       21 0.44859879E-01 0.21509632E+03</pdfrwt>
<pdfrwt beam="2">  1       21 0.26026299E-01 0.21509632E+03</pdfrwt>
<totfact> 0.66219917E+04</totfact>
</mgrwt>
</event>
<event>
 4    1  0.4439578E+000  0.2551162E+03  0.7546771E-02  0.1110114E+00
         21   -1    0    0  503  502  0.00000000000E+00  0.00000000000E+00  0.38357222625E+03  0.38357222625E+03  0.00000000000E+00 0.  1.
         21   -1    0    0  501  503 -0.00000000000E+00 -0.00000000000E+00 -0.73385295531E+03  0.73385295531E+03  0.00000000000E+00 0. -1.
          6    1    1    2  501    0 -0.12908214288E+03 -0.13598922702E+03 -0.66502106851E+03  0.71227613398E+03  0.17300000000E+03 0. -1.
         -6    1    1    2    0  502  0.12908214288E+03  0.13598922702E+03  0.31474033945E+03  0.40514904758E+03  0.17300000000E+03 0.  1.
<mgrwt>
<rscale>  2 0.25511619E+03</rscale>
<asrwt>0</asrwt>
<pdfrwt beam="1">  1       21 0.59011112E-01 0.25511619E+03</pdfrwt>
<pdfrwt beam="2">  1       21 0.11290045E+00 0.25511619E+03</pdfrwt>
<totfact> 0.15621463E+03</totfact>
</mgrwt>
</event>
<event>
 4    1  0.4439578E+000  0.1918362E+03  0.7546771E-02  0.1156816E+00
         21   -1    0    0  503  502  0.00000000000E+00  0.00000000000E+00  0.12479134406E+04  0.12479134406E+04  0.00000000000E+00 0. -1.
         21   -1    0    0  501  503 -0.00000000000E+00 -0.00000000000E+00 -0.30049722719E+02  0.30049722719E+02  0.00000000000E+00 0. -1.
          6    1    1    2  501    0  0.26637823310E+02  0.78501850833E+02  0.69613033907E+03  0.72207933303E+03  0.17300000000E+03 0. -1.
         -6    1    1    2    0  502 -0.26637823310E+02 -0.78501850833E+02  0.52173337885E+03  0.55588383033E+03  0.17300000000E+03 0. -1.
<mgrwt>
<rscale>  2 0.19183617E+03</rscale>
<asrwt>0</asrwt>
<pdfrwt beam="1">  1       21 0.19198664E+00 0.19183617E+03</pdfrwt>
<pdfrwt beam="2">  1       21 0.46230352E-02 0.19183617E+03</pdfrwt>
<totfact> 0.46512196E+04</totfact>
</mgrwt>
</event>
<event>
 4    1  0.4439578E+000  0.1956100E+03  0.7546771E-02  0.1153497E+00
         21   -1    0    0  501  502  0.00000000000E+00  0.00000000000E+00  0.45560948813E+02  0.45560948813E+02  0.00000000000E+00 0.  1.
         21   -1    0    0  502  503 -0.00000000000E+00 -0.00000000000E+00 -0.89959341637E+03  0.89959341637E+03  0.00000000000E+00 0.  1.
          6    1    1    2  501    0 -0.25905766184E+02  0.87539419350E+02 -0.30520629863E+03  0.36251088726E+03  0.17300000000E+03 0.  1.
         -6    1    1    2    0  503  0.25905766184E+02 -0.87539419350E+02 -0.54882616893E+03  0.58264347792E+03  0.17300000000E+03 0.  1.
<mgrwt>
<rscale>  2 0.19560997E+03</rscale>
<asrwt>0</asrwt>
<pdfrwt beam="1">  1       21 0.70093775E-02 0.19560997E+03</pdfrwt>
<pdfrwt beam="2">  1       21 0.13839897E+00 0.19560997E+03</pdfrwt>
<totfact> 0.55541601E+04</totfact>
</mgrwt>
</event>
<event>
 4    1  0.4439578E+000  0.1814734E+03  0.7546771E-02  0.1166385E+00
         21   -1    0    0  501  502  0.00000000000E+00  0.00000000000E+00  0.11867492108E+04  0.11867492108E+04  0.00000000000E+00 0.  1.
         21   -1    0    0  502  503 -0.00000000000E+00 -0.00000000000E+00 -0.45929569124E+02  0.45929569124E+02  0.00000000000E+00 0.  1.
          6    1    1    2  501    0 -0.23333971564E+01 -0.54755316641E+02  0.95816938950E+03  0.97520314213E+03  0.17300000000E+03 0. -1.
         -6    1    1    2    0  503  0.23333971564E+01  0.54755316641E+02  0.18265025221E+03  0.25747563783E+03  0.17300000000E+03 0. -1.
<mgrwt>
<rscale>  2 0.18147338E+03</rscale>
<asrwt>0</asrwt>
<pdfrwt beam="1">  1       21 0.18257678E+00 0.18147338E+03</pdfrwt>
<pdfrwt beam="2">  1       21 0.70660884E-02 0.18147338E+03</pdfrwt>
<totfact> 0.26218442E+04</totfact>
</mgrwt>
</event>
<event>
 4    1  0.4439578E+000  0.1871616E+03  0.7546771E-02  0.1161047E+00
         21   -1    0    0  501  502  0.00000000000E+00  0.00000000000E+00  0.11041165330E+03  0.11041165330E+03  0.00000000000E+00 0.  1.
         21   -1    0    0  502  503 -0.00000000000E+00 -0.00000000000E+00 -0.32615290153E+03  0.32615290153E+03  0.00000000000E+00 0. -1.
          6    1    1    2  501    0 -0.16343270972E+02  0.69522296464E+02 -0.71831513970E+02  0.20047248841E+03  0.17300000000E+03 0. -1.
         -6    1    1    2    0  503  0.16343270972E+02 -0.69522296464E+02 -0.14390973425E+03  0.23609206642E+03  0.17300000000E+03 0. -1.
<mgrwt>
<rscale>  2 0.18716157E+03</rscale>
<asrwt>0</asrwt>
<pdfrwt beam="1">  1       21 0.16986408E-01 0.18716157E+03</pdfrwt>
<pdfrwt beam="2">  1       21 0.50177369E-01 0.18716157E+03</pdfrwt>
<totfact> 0.11840437E+05</totfact>
</mgrwt>
</event>
<event>
 4    1  0.4439578E+000  0.2083852E+03  0.7546771E-02  0.1142851E+00
         21   -1    0    0  501  502  0.00000000000E+00  0.00000000000E+00  0.12915823850E+03  0.12915823850E+03  0.00000000000E+00 0.  1.
         21   -1    0    0  502  503 -0.00000000000E+00 -0.00000000000E+00 -0.34620938123E+03  0.34620938123E+03  0.00000000000E+00 0.  1.
          6    1    1    2  501    0 -0.99011217290E+02  0.60763291132E+02 -0.68133260474E+02  0.21924082622E+03  0.17300000000E+03 0.  1.
         -6    1    1    2    0  503  0.99011217290E+02 -0.60763291132E+02 -0.14891788226E+03  0.25612679351E+03  0.17300000000E+03 0.  1.
<mgrwt>
<rscale>  2 0.20838522E+03</rscale>
<asrwt>0</asrwt>
<pdfrwt beam="1">  1       21 0.19870498E-01 0.20838522E+03</pdfrwt>
<pdfrwt beam="2">  1       21 0.53262982E-01 0.20838522E+03</pdfrwt>
<totfact> 0.77454829E+04</totfact>
</mgrwt>
</event>
<event>
 4    1  0.4439578E+000  0.1904007E+03  0.7546771E-02  0.1158100E+00
         21   -1    0    0  503  502  0.00000000000E+00  0.00000000000E+00  0.82082883752E+02  0.82082883752E+02  0.00000000000E+00 0.  1.
         21   -1    0    0  501  503 -0.00000000000E+00 -0.00000000000E+00 -0.47900210508E+03  0.47900210508E+03  0.00000000000E+00 0.  1.
          6    1    1    2  501    0 -0.52233614795E+02 -0.59958926451E+02 -0.27679370210E+03  0.33595710574E+03  0.17300000000E+03 0.  1.
         -6    1    1    2    0  502  0.52233614795E+02  0.59958926451E+02 -0.12012551923E+03  0.22512788309E+03  0.17300000000E+03 0.  1.
<mgrwt>
<rscale>  2 0.19040069E+03</rscale>
<asrwt>0</asrwt>
<pdfrwt beam="1">  1       21 0.12628136E-01 0.19040069E+03</pdfrwt>
<pdfrwt beam="2">  1       21 0.73692633E-01 0.19040069E+03</pdfrwt>
<totfact> 0.88633351E+04</totfact>
</mgrwt>
</event>
<event>
 4    1  0.4439578E+000  0.2226809E+03  0.7546771E-02  0.1131900E+00
         21   -1    0    0  503  502  0.00000000000E+00  0.00000000000E+00  0.11580634017E+03  0.11580634017E+03  0.00000000000E+00 0.  1.
         21   -1    0    0  501  503 -0.00000000000E+00 -0.00000000000E+00 -0.44150491081E+03  0.44150491081E+03  0.00000000000E+00 0. -1.
          6    1    1    2  501    0 -0.97610324726E+02 -0.10064792316E+03 -0.21124608132E+03  0.30693922331E+03  0.17300000000E+03 0. -1.
         -6    1    1    2    0  502  0.97610324726E+02  0.10064792316E+03 -0.11445248932E+03  0.25037202767E+03  0.17300000000E+03 0.  1.
<mgrwt>
<rscale>  2 0.22268089E+03</rscale>
<asrwt>0</asrwt>
<pdfrwt beam="1">  1       21 0.17816360E-01 0.22268089E+03</pdfrwt>
<pdfrwt beam="2">  1       21 0.67923833E-01 0.22268089E+03</pdfrwt>
<totfact> 0.55861231E+04</totfact>
</mgrwt>
</event>
<event>
 4    1  0.4439578E+000  0.2315625E+03  0.7546771E-02  0.1125545E+00
         21   -1    0    0  503  502  0.00000000000E+00  0.00000000000E+00  0.69186010763E+02  0.69186010763E+02  0.00000000000E+00 0. -1.
         21   -1    0    0  501  503 -0.00000000000E+00 -0.00000000000E+00 -0.10217037642E+04  0.10217037642E+04  0.00000000000E+00 0. -1.
          6    1    1    2  501    0 -0.29237054203E+02  0.15112046265E+03 -0.74426844329E+03  0.77945924541E+03  0.17300000000E+03 0. -1.
         -6    1    1    2    0  502  0.29237054203E+02 -0.15112046265E+03 -0.20824931017E+03  0.31143052958E+03  0.17300000000E+03 0. -1.
<mgrwt>
<rscale>  2 0.23156252E+03</rscale>
<asrwt>0</asrwt>
<pdfrwt beam="1">  1       21 0.10644001E-01 0.23156252E+03</pdfrwt>
<pdfrwt beam="2">  1       21 0.15718520E+00 0.23156252E+03</pdfrwt>
<totfact> 0.18698641E+04</totfact>
</mgrwt>
</event>
<event>
 4    1  0.4439578E+000  0.2384477E+03  0.7546771E-02  0.1120831E+00
         21   -1    0    0  503  502  0.00000000000E+00  0.00000000000E+00  0.35175035415E+03  0.35175035415E+03  0.00000000000E+00 0.  1.
         21   -1    0    0  501  503 -0.00000000000E+00 -0.00000000000E+00 -0.23155223257E+03  0.23155223257E+03  0.00000000000E+00 0.  1.
          6    1    1    2  501    0  0.84889665942E+02 -0.14043522733E+03 -0.10015632709E+03  0.25862830146E+03  0.17300000000E+03 0.  1.
         -6    1    1    2    0  502 -0.84889665942E+02  0.14043522733E+03  0.22035444868E+03  0.32467428526E+03  0.17300000000E+03 0.  1.
<mgrwt>
<rscale>  2 0.23844771E+03</rscale>
<asrwt>0</asrwt>
<pdfrwt beam="1">  1       21 0.54115439E-01 0.23844771E+03</pdfrwt>
<pdfrwt beam="2">  1       21 0.35623420E-01 0.23844771E+03</pdfrwt>
<totfact> 0.23927470E+04</totfact>
</mgrwt>
</event>
<event>
 4    1  0.4439578E+000  0.2643640E+03  0.7546771E-02  0.1104549E+00
         21   -1    0    0  501  502  0.00000000000E+00  0.00000000000E+00  0.61593481105E+02  0.61593481105E+02  0.00000000000E+00 0.  1.
         21   -1    0    0  502  503 -0.00000000000E+00 -0.00000000000E+00 -0.11359085758E+04  0.11359085758E+04  0.00000000000E+00 0.  1.
          6    1    1    2  501    0  0.19894103517E+03  0.19539015790E+02 -0.51739054673E+03  0.58101745796E+03  0.17300000000E+03 0.  1.
         -6    1    1    2    0  503 -0.19894103517E+03 -0.19539015790E+02 -0.55692454801E+03  0.61648459898E+03  0.17300000000E+03 0.  1.
<mgrwt>
<rscale>  2 0.26436397E+03</rscale>
<asrwt>0</asrwt>
<pdfrwt beam="1">  1       21 0.94759209E-02 0.26436397E+03</pdfrwt>
<pdfrwt beam="2">  1       21 0.17475515E+00 0.26436397E+03</pdfrwt>
<totfact> 0.16844526E+04</totfact>
</mgrwt>
</event>
<event>
 4    1  0.4439578E+000  0.2076925E+03  0.7546771E-02  0.1143406E+00
         21   -1    0    0  501  502  0.00000000000E+00  0.00000000000E+00  0.46871797653E+02  0.46871797653E+02  0.00000000000E+00 0. -1.
         21   -1    0    0  502  503 -0.00000000000E+00 -0.00000000000E+00 -0.93069703889E+03  0.93069703889E+03  0.00000000000E+00 0. -1.
          6    1    1    2  501    0 -0.65407147620E+02 -0.94493784118E+02 -0.39025390623E+03  0.44207949684E+03  0.17300000000E+03 0. -1.
         -6    1    1    2    0  503  0.65407147620E+02  0.94493784118E+02 -0.49357133501E+03  0.53548933971E+03  0.17300000000E+03 0. -1.
<mgrwt>
<rscale>  2 0.20769249E+03</rscale>
<asrwt>0</asrwt>
<pdfrwt beam="1">  1       21 0.72110462E-02 0.20769249E+03</pdfrwt>
<pdfrwt beam="2">  1       21 0.14318415E+00 0.20769249E+03</pdfrwt>
<totfact> 0.48099931E+04</totfact>
</mgrwt>
</event>
<event>
 4    1  0.4439578E+000  0.1735756E+03  0.7546771E-02  0.1174170E+00
         21   -1    0    0  501  502  0.00000000000E+00  0.00000000000E+00  0.34048905423E+02  0.34048905423E+02  0.00000000000E+00 0. -1.
         21   -1    0    0  502  503 -0.00000000000E+00 -0.00000000000E+00 -0.22101715923E+04  0.22101715923E+04  0.00000000000E+00 0. -1.
          6    1    1    2  501    0 -0.74168424278E+01 -0.12020165456E+02 -0.21913766935E+03  0.27955287882E+03  0.17300000000E+03 0. -1.
         -6    1    1    2    0  503  0.74168424278E+01  0.12020165456E+02 -0.19569850175E+04  0.19646676189E+04  0.17300000000E+03 0. -1.
<mgrwt>
<rscale>  2 0.17357561E+03</rscale>
<asrwt>0</asrwt>
<pdfrwt beam="1">  1       21 0.52382908E-02 0.17357561E+03</pdfrwt>
<pdfrwt beam="2">  1       21 0.34002655E+00 0.17357561E+03</pdfrwt>
<totfact> 0.51009569E+03</totfact>
</mgrwt>
</event>
<event>
 4    1  0.4439578E+000  0.1757611E+03  0.7546771E-02  0.1171970E+00
         21   -1    0    0  503  502  0.00000000000E+00  0.00000000000E+00  0.16353975301E+03  0.16353975301E+03  0.00000000000E+00 0. -1.
         21   -1    0    0  501  503 -0.00000000000E+00 -0.00000000000E+00 -0.19000257350E+03  0.19000257350E+03  0.00000000000E+00 0. -1.
          6    1    1    2  501    0 -0.17085981307E+02 -0.25904082498E+02 -0.26723689556E+02  0.17778106713E+03  0.17300000000E+03 0.  1.
         -6    1    1    2    0  502  0.17085981307E+02  0.25904082498E+02  0.26086906699E+00  0.17576125938E+03  0.17300000000E+03 0.  1.
<mgrwt>
<rscale>  2 0.17576107E+03</rscale>
<asrwt>0</asrwt>
<pdfrwt beam="1">  1       21 0.25159962E-01 0.17576107E+03</pdfrwt>
<pdfrwt beam="2">  1       21 0.29231165E-01 0.17576107E+03</pdfrwt>
<totfact> 0.16858838E+05</totfact>
</mgrwt>
</event>
<event>
 4    1  0.4439578E+000  0.2821766E+03  0.7546771E-02  0.1094506E+00
         21   -1    0    0  501  502  0.00000000000E+00  0.00000000000E+00  0.20327653369E+04  0.20327653369E+04  0.00000000000E+00 0.  1.
         21   -1    0    0  502  503 -0.00000000000E+00 -0.00000000000E+00 -0.16227205417E+03  0.16227205417E+03  0.00000000000E+00 0.  1.
          6    1    1    2  501    0  0.61030493568E+02  0.21440601559E+03  0.18911687356E+04  0.19121042982E+04  0.17300000000E+03 0.  1.
         -6    1    1    2    0  503 -0.61030493568E+02 -0.21440601559E+03 -0.20675452914E+02  0.28293309283E+03  0.17300000000E+03 0.  1.
<mgrwt>
<rscale>  2 0.28217665E+03</rscale>
<asrwt>0</asrwt>
<pdfrwt beam="1">  1       21 0.31273311E+00 0.28217665E+03</pdfrwt>
<pdfrwt beam="2">  1       21 0.24964933E-01 0.28217665E+03</pdfrwt>
<totfact> 0.39234633E+02</totfact>
</mgrwt>
</event>
<event>
 4    1  0.4439578E+000  0.1928712E+03  0.7546771E-02  0.1155897E+00
         21   -1    0    0  501  502  0.00000000000E+00  0.00000000000E+00  0.23755462917E+03  0.23755462917E+03  0.00000000000E+00 0. -1.
         21   -1    0    0  502  503 -0.00000000000E+00 -0.00000000000E+00 -0.17589960271E+03  0.17589960271E+03  0.00000000000E+00 0.  1.
          6    1    1    2  501    0 -0.88503337587E+01  0.84805515896E+02  0.99316717140E+02  0.21694034719E+03  0.17300000000E+03 0. -1.
         -6    1    1    2    0  503  0.88503337587E+01 -0.84805515896E+02 -0.37661690676E+02  0.19651388470E+03  0.17300000000E+03 0.  1.
<mgrwt>
<rscale>  2 0.19287121E+03</rscale>
<asrwt>0</asrwt>
<pdfrwt beam="1">  1       21 0.36546866E-01 0.19287121E+03</pdfrwt>
<pdfrwt beam="2">  1       21 0.27061477E-01 0.19287121E+03</pdfrwt>
<totfact> 0.93951676E+04</totfact>
</mgrwt>
</event>
<event>
 4    1  0.4439578E+000  0.1738608E+03  0.7546771E-02  0.1173880E+00
         21   -1    0    0  501  502  0.00000000000E+00  0.00000000000E+00  0.45953981508E+03  0.45953981508E+03  0.00000000000E+00 0.  1.
         21   -1    0    0  502  503 -0.00000000000E+00 -0.00000000000E+00 -0.65796101422E+02  0.65796101422E+02  0.00000000000E+00 0.  1.
          6    1    1    2  501    0 -0.33428996384E+01  0.16953182121E+02  0.19250866368E+03  0.25939770807E+03  0.17300000000E+03 0.  1.
         -6    1    1    2    0  503  0.33428996384E+01 -0.16953182121E+02  0.20123504998E+03  0.26593820843E+03  0.17300000000E+03 0.  1.
<mgrwt>
<rscale>  2 0.17386082E+03</rscale>
<asrwt>0</asrwt>
<pdfrwt beam="1">  1       21 0.70698431E-01 0.17386082E+03</pdfrwt>
<pdfrwt beam="2">  1       21 0.10122477E-01 0.17386082E+03</pdfrwt>
<totfact> 0.14490067E+05</totfact>
</mgrwt>
</event>
<event>
 4    1  0.4439578E+000  0.2486064E+03  0.7546771E-02  0.1114189E+00
         21   -1    0    0  501  502  0.00000000000E+00  0.00000000000E+00  0.91733577168E+03  0.91733577168E+03  0.00000000000E+00 0.  1.
         21   -1    0    0  502  503 -0.00000000000E+00 -0.00000000000E+00 -0.80418922865E+02  0.80418922865E+02  0.00000000000E+00 0.  1.
          6    1    1    2  501    0 -0.17310091492E+03  0.43728727738E+02  0.61937948870E+03  0.66740997849E+03  0.17300000000E+03 0.  1.
         -6    1    1    2    0  503  0.17310091492E+03 -0.43728727738E+02  0.21753736012E+03  0.33034471605E+03  0.17300000000E+03 0.  1.
<mgrwt>
<rscale>  2 0.24860637E+03</rscale>
<asrwt>0</asrwt>
<pdfrwt beam="1">  1       21 0.14112857E+00 0.24860637E+03</pdfrwt>
<pdfrwt beam="2">  1       21 0.12372143E-01 0.24860637E+03</pdfrwt>
<totfact> 0.18819667E+04</totfact>
</mgrwt>
</event>
<event>
 4    1  0.4439578E+000  0.2048277E+03  0.7546771E-02  0.1145729E+00
         21   -1    0    0  503  502  0.00000000000E+00  0.00000000000E+00  0.71663563773E+02  0.71663563773E+02  0.00000000000E+00 0.  1.
         21   -1    0    0  501  503 -0.00000000000E+00 -0.00000000000E+00 -0.65233681391E+03  0.65233681391E+03  0.00000000000E+00 0.  1.
          6    1    1    2  501    0 -0.69571121704E+01  0.10943937289E+03 -0.40626531438E+03  0.45497899228E+03  0.17300000000E+03 0.  1.
         -6    1    1    2    0  502  0.69571121704E+01 -0.10943937289E+03 -0.17440793575E+03  0.26902138540E+03  0.17300000000E+03 0.  1.
<mgrwt>
<rscale>  2 0.20482768E+03</rscale>
<asrwt>0</asrwt>
<pdfrwt beam="1">  1       21 0.11025163E-01 0.20482768E+03</pdfrwt>
<pdfrwt beam="2">  1       21 0.10035951E+00 0.20482768E+03</pdfrwt>
<totfact> 0.55221418E+04</totfact>
</mgrwt>
</event>
<event>
 4    1  0.4439578E+000  0.1777472E+03  0.7546771E-02  0.1170001E+00
         21   -1    0    0  503  502  0.00000000000E+00  0.00000000000E+00  0.37612965766E+03  0.37612965766E+03  0.00000000000E+00 0. -1.
         21   -1    0    0  501  503 -0.00000000000E+00 -0.00000000000E+00 -0.85472277458E+02  0.85472277458E+02  0.00000000000E+00 0. -1.
          6    1    1    2  501    0 -0.27165914614E+02  0.30447757369E+02  0.11501433536E+03  0.21171289565E+03  0.17300000000E+03 0.  1.
         -6    1    1    2    0  502  0.27165914614E+02 -0.30447757369E+02  0.17564304485E+03  0.24988903947E+03  0.17300000000E+03 0.  1.
<mgrwt>
<rscale>  2 0.17774716E+03</rscale>
<asrwt>0</asrwt>
<pdfrwt beam="1">  1       21 0.57866100E-01 0.17774716E+03</pdfrwt>
<pdfrwt beam="2">  1       21 0.13149581E-01 0.17774716E+03</pdfrwt>
<totfact> 0.14013394E+05</totfact>
</mgrwt>
</event>
<event>
 4    1  0.4439578E+000  0.3551550E+03  0.7546771E-02  0.1060519E+00
         21   -1    0    0  503  502  0.00000000000E+00  0.00000000000E+00  0.18153283090E+03  0.18153283090E+03  0.00000000000E+00 0.  1.
         21   -1    0    0  501  503 -0.00000000000E+00 -0.00000000000E+00 -0.15327490373E+04  0.15327490373E+04  0.00000000000E+00 0. -1.
          6    1    1    2  501    0  0.33469989362E+02  0.30835993922E+03 -0.13093564387E+04  0.13566684842E+04  0.17300000000E+03 0. -1.
         -6    1    1    2    0  502 -0.33469989362E+02 -0.30835993922E+03 -0.41859767694E+02  0.35761338406E+03  0.17300000000E+03 0.  1.
<mgrwt>
<rscale>  2 0.35515503E+03</rscale>
<asrwt>0</asrwt>
<pdfrwt beam="1">  1       21 0.27928127E-01 0.35515503E+03</pdfrwt>
<pdfrwt beam="2">  1       21 0.23580755E+00 0.35515503E+03</pdfrwt>
<totfact> 0.85679015E+02</totfact>
</mgrwt>
</event>
<event>
 4    1  0.4439578E+000  0.1829034E+03  0.7546771E-02  0.1165022E+00
         21   -1    0    0  501  502  0.00000000000E+00  0.00000000000E+00  0.49194204927E+03  0.49194204927E+03  0.00000000000E+00 0.  1.
         21   -1    0    0  502  503 -0.00000000000E+00 -0.00000000000E+00 -0.14360473049E+03  0.14360473049E+03  0.00000000000E+00 0.  1.
          6    1    1    2  501    0  0.61157760841E+01  0.59053074528E+02  0.40473624111E+03  0.44414535143E+03  0.17300000000E+03 0.  1.
         -6    1    1    2    0  503 -0.61157760841E+01 -0.59053074528E+02 -0.56398922333E+02  0.19140142833E+03  0.17300000000E+03 0.  1.
<mgrwt>
<rscale>  2 0.18290344E+03</rscale>
<asrwt>0</asrwt>
<pdfrwt beam="1">  1       21 0.75683391E-01 0.18290344E+03</pdfrwt>
<pdfrwt beam="2">  1       21 0.22093036E-01 0.18290344E+03</pdfrwt>
<totfact> 0.29995733E+04</totfact>
</mgrwt>
</event>
<event>
 4    1  0.4439578E+000  0.1821209E+03  0.7546771E-02  0.1165766E+00
         21   -1    0    0  503  502  0.00000000000E+00  0.00000000000E+00  0.22448758293E+03  0.22448758293E+03  0.00000000000E+00 0. -1.
         21   -1    0    0  501  503 -0.00000000000E+00 -0.00000000000E+00 -0.25090501775E+03  0.25090501775E+03  0.00000000000E+00 0. -1.
          6    1    1    2  501    0  0.51575120335E+01  0.56678260634E+02 -0.16561857967E+03  0.24616567407E+03  0.17300000000E+03 0. -1.
         -6    1    1    2    0  502 -0.51575120335E+01 -0.56678260634E+02  0.13920114484E+03  0.22922692661E+03  0.17300000000E+03 0. -1.
<mgrwt>
<rscale>  2 0.18212091E+03</rscale>
<asrwt>0</asrwt>
<pdfrwt beam="1">  1       21 0.34536551E-01 0.18212091E+03</pdfrwt>
<pdfrwt beam="2">  1       21 0.38600772E-01 0.18212091E+03</pdfrwt>
<totfact> 0.52546159E+04</totfact>
</mgrwt>
</event>
<event>
 4    1  0.4439578E+000  0.1792715E+03  0.7546771E-02  0.1168510E+00
         21   -1    0    0  501  502  0.00000000000E+00  0.00000000000E+00  0.97622639978E+02  0.97622639978E+02  0.00000000000E+00 0.  1.
         21   -1    0    0  502  503 -0.00000000000E+00 -0.00000000000E+00 -0.32924435390E+03  0.32924435390E+03  0.00000000000E+00 0.  1.
          6    1    1    2  501    0  0.13444659732E+02  0.45039192055E+02 -0.11361074664E+03  0.21223969810E+03  0.17300000000E+03 0. -1.
         -6    1    1    2    0  503 -0.13444659732E+02 -0.45039192055E+02 -0.11801096729E+03  0.21462729579E+03  0.17300000000E+03 0. -1.
<mgrwt>
<rscale>  2 0.17927155E+03</rscale>
<asrwt>0</asrwt>
<pdfrwt beam="1">  1       21 0.15018868E-01 0.17927155E+03</pdfrwt>
<pdfrwt beam="2">  1       21 0.50652978E-01 0.17927155E+03</pdfrwt>
<totfact> 0.14579256E+05</totfact>
</mgrwt>
</event>
<event>
 4    1  0.4439578E+000  0.2571880E+03  0.7546771E-02  0.1108845E+00
         21   -1    0    0  501  502  0.00000000000E+00  0.00000000000E+00  0.70941329228E+02  0.70941329228E+02  0.00000000000E+00 0. -1.
         21   -1    0    0  502  503 -0.00000000000E+00 -0.00000000000E+00 -0.11734868205E+04  0.11734868205E+04  0.00000000000E+00 0.  1.
          6    1    1    2  501    0  0.17204930994E+03  0.81336933032E+02 -0.26924756595E+03  0.37234381087E+03  0.17300000000E+03 0. -1.
         -6    1    1    2    0  503 -0.17204930994E+03 -0.81336933032E+02 -0.83329792528E+03  0.87208433881E+03  0.17300000000E+03 0.  1.
<mgrwt>
<rscale>  2 0.25718799E+03</rscale>
<asrwt>0</asrwt>
<pdfrwt beam="1">  1       21 0.10914052E-01 0.25718799E+03</pdfrwt>
<pdfrwt beam="2">  1       21 0.18053642E+00 0.25718799E+03</pdfrwt>
<totfact> 0.11989292E+04</totfact>
</mgrwt>
</event>
<event>
 4    1  0.4439578E+000  0.2023465E+03  0.7546771E-02  0.1147774E+00
         21   -1    0    0  503  502  0.00000000000E+00  0.00000000000E+00  0.33848995815E+03  0.33848995815E+03  0.00000000000E+00 0.  1.
         21   -1    0    0  501  503 -0.00000000000E+00 -0.00000000000E+00 -0.29107235340E+03  0.29107235340E+03  0.00000000000E+00 0.  1.
          6    1    1    2  501    0  0.82892377374E+02 -0.64373470155E+02 -0.21693510687E+03  0.29665624969E+03  0.17300000000E+03 0.  1.
         -6    1    1    2    0  502 -0.82892377374E+02  0.64373470155E+02  0.26435271162E+03  0.33290606187E+03  0.17300000000E+03 0.  1.
<mgrwt>
<rscale>  2 0.20234646E+03</rscale>
<asrwt>0</asrwt>
<pdfrwt beam="1">  1       21 0.52075378E-01 0.20234646E+03</pdfrwt>
<pdfrwt beam="2">  1       21 0.44780362E-01 0.20234646E+03</pdfrwt>
<totfact> 0.16650228E+04</totfact>
</mgrwt>
</event>
<event>
 4    1  0.4439578E+000  0.2427723E+03  0.7546771E-02  0.1117960E+00
         21   -1    0    0  503  502  0.00000000000E+00  0.00000000000E+00  0.10470117252E+03  0.10470117252E+03  0.00000000000E+00 0.  1.
         21   -1    0    0  501  503 -0.00000000000E+00 -0.00000000000E+00 -0.88634739491E+03  0.88634739491E+03  0.00000000000E+00 0. -1.
          6    1    1    2  501    0  0.42375122771E+02 -0.16496589015E+03 -0.69015382484E+03  0.73160829539E+03  0.17300000000E+03 0. -1.
         -6    1    1    2    0  502 -0.42375122771E+02  0.16496589015E+03 -0.91492397555E+02  0.25944027204E+03  0.17300000000E+03 0.  1.
<mgrwt>
<rscale>  2 0.24277231E+03</rscale>
<asrwt>0</asrwt>
<pdfrwt beam="1">  1       21 0.16107872E-01 0.24277231E+03</pdfrwt>
<pdfrwt beam="2">  1       21 0.13636114E+00 0.24277231E+03</pdfrwt>
<totfact> 0.12764084E+04</totfact>
</mgrwt>
</event>
<event>
 4    1  0.4439578E+000  0.2098245E+03  0.7546771E-02  0.1141705E+00
         21   -1    0    0  503  502  0.00000000000E+00  0.00000000000E+00  0.88442676700E+02  0.88442676700E+02  0.00000000000E+00 0. -1.
         21   -1    0    0  501  503 -0.00000000000E+00 -0.00000000000E+00 -0.50230153333E+03  0.50230153333E+03  0.00000000000E+00 0. -1.
          6    1    1    2  501    0 -0.86930732792E+02 -0.80872485733E+02 -0.23490728944E+03  0.31497261132E+03  0.17300000000E+03 0. -1.
         -6    1    1    2    0  502  0.86930732792E+02  0.80872485733E+02 -0.17895156719E+03  0.27577159870E+03  0.17300000000E+03 0. -1.
<mgrwt>
<rscale>  2 0.20982448E+03</rscale>
<asrwt>0</asrwt>
<pdfrwt beam="1">  1       21 0.13606565E-01 0.20982448E+03</pdfrwt>
<pdfrwt beam="2">  1       21 0.77277160E-01 0.20982448E+03</pdfrwt>
<totfact> 0.69070871E+04</totfact>
</mgrwt>
</event>
<event>
 4    1  0.4439578E+000  0.2075287E+03  0.7546771E-02  0.1143538E+00
         21   -1    0    0  501  502  0.00000000000E+00  0.00000000000E+00  0.11189799637E+03  0.11189799637E+03  0.00000000000E+00 0.  1.
         21   -1    0    0  502  503 -0.00000000000E+00 -0.00000000000E+00 -0.42286162177E+03  0.42286162177E+03  0.00000000000E+00 0. -1.
          6    1    1    2  501    0 -0.11249270737E+03  0.22012900412E+02 -0.23560744247E+03  0.31397299875E+03  0.17300000000E+03 0.  1.
         -6    1    1    2    0  503  0.11249270737E+03 -0.22012900412E+02 -0.75356182923E+02  0.22078661939E+03  0.17300000000E+03 0. -1.
<mgrwt>
<rscale>  2 0.20752874E+03</rscale>
<asrwt>0</asrwt>
<pdfrwt beam="1">  1       21 0.17215076E-01 0.20752874E+03</pdfrwt>
<pdfrwt beam="2">  1       21 0.65055634E-01 0.20752874E+03</pdfrwt>
<totfact> 0.65864509E+04</totfact>
</mgrwt>
</event>
<event>
 4    1  0.4439578E+000  0.2621583E+03  0.7546771E-02  0.1105853E+00
         21   -1    0    0  503  502  0.00000000000E+00  0.00000000000E+00  0.12074313140E+03  0.12074313140E+03  0.00000000000E+00 0.  1.
         21   -1    0    0  501  503 -0.00000000000E+00 -0.00000000000E+00 -0.75449108091E+03  0.75449108091E+03  0.00000000000E+00 0. -1.
          6    1    1    2  501    0  0.19628442102E+03  0.16443559029E+02 -0.53374160949E+03  0.59464869484E+03  0.17300000000E+03 0. -1.
         -6    1    1    2    0  502 -0.19628442102E+03 -0.16443559029E+02 -0.10000634002E+03  0.28058551747E+03  0.17300000000E+03 0.  1.
<mgrwt>
<rscale>  2 0.26215828E+03</rscale>
<asrwt>0</asrwt>
<pdfrwt beam="1">  1       21 0.18575866E-01 0.26215828E+03</pdfrwt>
<pdfrwt beam="2">  1       21 0.11607555E+00 0.26215828E+03</pdfrwt>
<totfact> 0.14565135E+04</totfact>
</mgrwt>
</event>
<event>
 4    1  0.4439578E+000  0.2393290E+03  0.7546771E-02  0.1120241E+00
         21   -1    0    0  503  502  0.00000000000E+00  0.00000000000E+00  0.15193103805E+03  0.15193103805E+03  0.00000000000E+00 0. -1.
         21   -1    0    0  501  503 -0.00000000000E+00 -0.00000000000E+00 -0.87384063168E+03  0.87384063168E+03  0.00000000000E+00 0. -1.
          6    1    1    2  501    0 -0.10649249448E+03 -0.12652562734E+03 -0.74768851108E+03  0.78505827513E+03  0.17300000000E+03 0. -1.
         -6    1    1    2    0  502  0.10649249448E+03  0.12652562734E+03  0.25778917445E+02  0.24071339459E+03  0.17300000000E+03 0. -1.
<mgrwt>
<rscale>  2 0.23932903E+03</rscale>
<asrwt>0</asrwt>
<pdfrwt beam="1">  1       21 0.23374006E-01 0.23932903E+03</pdfrwt>
<pdfrwt beam="2">  1       21 0.13443702E+00 0.23932903E+03</pdfrwt>
<totfact> 0.66062476E+03</totfact>
</mgrwt>
</event>
<event>
 4    1  0.4439578E+000  0.2277712E+03  0.7546771E-02  0.1128218E+00
         21   -1    0    0  503  502  0.00000000000E+00  0.00000000000E+00  0.90633598408E+03  0.90633598408E+03  0.00000000000E+00 0. -1.
         21   -1    0    0  501  503 -0.00000000000E+00 -0.00000000000E+00 -0.10811131820E+03  0.10811131820E+03  0.00000000000E+00 0. -1.
          6    1    1    2  501    0  0.12761750325E+03 -0.75262943701E+02  0.51179519255E+02  0.23345038235E+03  0.17300000000E+03 0. -1.
         -6    1    1    2    0  502 -0.12761750325E+03  0.75262943701E+02  0.74704514663E+03  0.78099691993E+03  0.17300000000E+03 0. -1.
<mgrwt>
<rscale>  2 0.22777124E+03</rscale>
<asrwt>0</asrwt>
<pdfrwt beam="1">  1       21 0.13943630E+00 0.22777124E+03</pdfrwt>
<pdfrwt beam="2">  1       21 0.16632511E-01 0.22777124E+03</pdfrwt>
<totfact> 0.11460809E+04</totfact>
</mgrwt>
</event>
<event>
 4    1  0.4439578E+000  0.2130031E+03  0.7546771E-02  0.1139210E+00
         21   -1    0    0  503  502  0.00000000000E+00  0.00000000000E+00  0.61080189670E+03  0.61080189670E+03  0.00000000000E+00 0. -1.
         21   -1    0    0  501  503 -0.00000000000E+00 -0.00000000000E+00 -0.13859077138E+03  0.13859077138E+03  0.00000000000E+00 0. -1.
          6    1    1    2  501    0 -0.11673427338E+03  0.42595934468E+02 -0.19137814880E+02  0.21386107681E+03  0.17300000000E+03 0. -1.
         -6    1    1    2    0  502  0.11673427338E+03 -0.42595934468E+02  0.49134894020E+03  0.53553159128E+03  0.17300000000E+03 0. -1.
<mgrwt>
<rscale>  2 0.21300306E+03</rscale>
<asrwt>0</asrwt>
<pdfrwt beam="1">  1       21 0.93969521E-01 0.21300306E+03</pdfrwt>
<pdfrwt beam="2">  1       21 0.21321657E-01 0.21300306E+03</pdfrwt>
<totfact> 0.19216394E+04</totfact>
</mgrwt>
</event>
<event>
 4    1  0.4439578E+000  0.3633944E+03  0.7546771E-02  0.1057248E+00
         21   -1    0    0  501  502  0.00000000000E+00  0.00000000000E+00  0.11751866902E+04  0.11751866902E+04  0.00000000000E+00 0.  1.
         21   -1    0    0  502  503 -0.00000000000E+00 -0.00000000000E+00 -0.11309772451E+03  0.11309772451E+03  0.00000000000E+00 0.  1.
          6    1    1    2  501    0 -0.31036953077E+03  0.76139414683E+02  0.47936627462E+03  0.60153759761E+03  0.17300000000E+03 0.  1.
         -6    1    1    2    0  503  0.31036953077E+03 -0.76139414683E+02  0.58272269105E+03  0.68674681708E+03  0.17300000000E+03 0.  1.
<mgrwt>
<rscale>  2 0.36339435E+03</rscale>
<asrwt>0</asrwt>
<pdfrwt beam="1">  1       21 0.18079794E+00 0.36339435E+03</pdfrwt>
<pdfrwt beam="2">  1       21 0.17399651E-01 0.36339435E+03</pdfrwt>
<totfact> 0.48102586E+03</totfact>
</mgrwt>
</event>
<event>
 4    1  0.4439578E+000  0.2836109E+03  0.7546771E-02  0.1093733E+00
         21   -1    0    0  501  502  0.00000000000E+00  0.00000000000E+00  0.86927006450E+03  0.86927006450E+03  0.00000000000E+00 0. -1.
         21   -1    0    0  502  503 -0.00000000000E+00 -0.00000000000E+00 -0.12244662557E+03  0.12244662557E+03  0.00000000000E+00 0.  1.
          6    1    1    2  501    0 -0.95789813501E+02  0.20329893770E+03  0.61850266313E+03  0.68042684452E+03  0.17300000000E+03 0. -1.
         -6    1    1    2    0  503  0.95789813501E+02 -0.20329893770E+03  0.12832077581E+03  0.31128984556E+03  0.17300000000E+03 0.  1.
<mgrwt>
<rscale>  2 0.28361091E+03</rscale>
<asrwt>0</asrwt>
<pdfrwt beam="1">  1       21 0.13373385E+00 0.28361091E+03</pdfrwt>
<pdfrwt beam="2">  1       21 0.18837943E-01 0.28361091E+03</pdfrwt>
<totfact> 0.98113337E+03</totfact>
</mgrwt>
</event>
<event>
 4    1  0.4439578E+000  0.3419869E+03  0.7546771E-02  0.1065953E+00
         21   -1    0    0  501  502  0.00000000000E+00  0.00000000000E+00  0.11168628693E+04  0.11168628693E+04  0.00000000000E+00 0. -1.
         21   -1    0    0  502  503 -0.00000000000E+00 -0.00000000000E+00 -0.13911902879E+03  0.13911902879E+03  0.00000000000E+00 0. -1.
          6    1    1    2  501    0  0.71664789897E+02  0.28616469286E+03  0.80115544047E+03  0.87109420463E+03  0.17300000000E+03 0. -1.
         -6    1    1    2    0  503 -0.71664789897E+02 -0.28616469286E+03  0.17658840007E+03  0.38488769348E+03  0.17300000000E+03 0. -1.
<mgrwt>
<rscale>  2 0.34198695E+03</rscale>
<asrwt>0</asrwt>
<pdfrwt beam="1">  1       21 0.17182505E+00 0.34198695E+03</pdfrwt>
<pdfrwt beam="2">  1       21 0.21402928E-01 0.34198695E+03</pdfrwt>
<totfact> 0.38051196E+03</totfact>
</mgrwt>
</event>
<event>
 4    1  0.4439578E+000  0.1749504E+03  0.7546771E-02  0.1172782E+00
         21   -1    0    0  501  502  0.00000000000E+00  0.00000000000E+00  0.67242110766E+03  0.67242110766E+03  0.00000000000E+00 0.  1.
         21   -1    0    0  502  503 -0.00000000000E+00 -0.00000000000E+00 -0.67545568820E+02  0.67545568820E+02  0.00000000000E+00 0.  1.
          6    1    1    2  501    0  0.18303034375E+02 -0.18537253839E+02  0.51371935128E+03  0.54269254898E+03  0.17300000000E+03 0.  1.
         -6    1    1    2    0  503 -0.18303034375E+02  0.18537253839E+02  0.91156187560E+02  0.19727412749E+03  0.17300000000E+03 0.  1.
<mgrwt>
<rscale>  2 0.17495037E+03</rscale>
<asrwt>0</asrwt>
<pdfrwt beam="1">  1       21 0.10344940E+00 0.17495037E+03</pdfrwt>
<pdfrwt beam="2">  1       21 0.10391626E-01 0.17495037E+03</pdfrwt>
<totfact> 0.57901535E+04</totfact>
</mgrwt>
</event>
<event>
 4    1  0.4439578E+000  0.1743651E+03  0.7546771E-02  0.1173371E+00
         21   -1    0    0  501  502  0.00000000000E+00  0.00000000000E+00  0.62560872270E+02  0.62560872270E+02  0.00000000000E+00 0.  1.
         21   -1    0    0  502  503 -0.00000000000E+00 -0.00000000000E+00 -0.49194629820E+03  0.49194629820E+03  0.00000000000E+00 0.  1.
          6    1    1    2  501    0  0.11751378168E+02 -0.18332380228E+02 -0.18415300898E+03  0.25360501133E+03  0.17300000000E+03 0.  1.
         -6    1    1    2    0  503 -0.11751378168E+02  0.18332380228E+02 -0.24523241695E+03  0.30090215915E+03  0.17300000000E+03 0.  1.
<mgrwt>
<rscale>  2 0.17436505E+03</rscale>
<asrwt>0</asrwt>
<pdfrwt beam="1">  1       21 0.96247500E-02 0.17436505E+03</pdfrwt>
<pdfrwt beam="2">  1       21 0.75684043E-01 0.17436505E+03</pdfrwt>
<totfact> 0.13613134E+05</totfact>
</mgrwt>
</event>
<event>
 4    1  0.4439578E+000  0.2768890E+03  0.7546771E-02  0.1097400E+00
         21   -1    0    0  503  502  0.00000000000E+00  0.00000000000E+00  0.13176241926E+03  0.13176241926E+03  0.00000000000E+00 0. -1.
         21   -1    0    0  501  503 -0.00000000000E+00 -0.00000000000E+00 -0.58198417267E+03  0.58198417267E+03  0.00000000000E+00 0.  1.
          6    1    1    2  501    0 -0.94354068397E+02 -0.19451434132E+03 -0.23028563950E+03  0.36013746675E+03  0.17300000000E+03 0.  1.
         -6    1    1    2    0  502  0.94354068397E+02  0.19451434132E+03 -0.21993611392E+03  0.35360912517E+03  0.17300000000E+03 0. -1.
<mgrwt>
<rscale>  2 0.27688900E+03</rscale>
<asrwt>0</asrwt>
<pdfrwt beam="1">  1       21 0.20271141E-01 0.27688900E+03</pdfrwt>
<pdfrwt beam="2">  1       21 0.89536026E-01 0.27688900E+03</pdfrwt>
<totfact> 0.22918487E+04</totfact>
</mgrwt>
</event>
<event>
 4    1  0.4439578E+000  0.2643183E+03  0.7546771E-02  0.1104576E+00
         21   -1    0    0  501  502  0.00000000000E+00  0.00000000000E+00  0.15015806656E+03  0.15015806656E+03  0.00000000000E+00 0.  1.
         21   -1    0    0  502  503 -0.00000000000E+00 -0.00000000000E+00 -0.69293762782E+03  0.69293762782E+03  0.00000000000E+00 0.  1.
          6    1    1    2  501    0  0.16799883628E+03 -0.10822002060E+03 -0.29760496898E+02  0.26598847536E+03  0.17300000000E+03 0.  1.
         -6    1    1    2    0  503 -0.16799883628E+03  0.10822002060E+03 -0.51301906435E+03  0.57710721902E+03  0.17300000000E+03 0.  1.
<mgrwt>
<rscale>  2 0.26431833E+03</rscale>
<asrwt>0</asrwt>
<pdfrwt beam="1">  1       21 0.23101241E-01 0.26431833E+03</pdfrwt>
<pdfrwt beam="2">  1       21 0.10660579E+00 0.26431833E+03</pdfrwt>
<totfact> 0.11872673E+04</totfact>
</mgrwt>
</event>
<event>
 4    1  0.4439578E+000  0.2037656E+03  0.7546771E-02  0.1146600E+00
         21   -1    0    0  501  502  0.00000000000E+00  0.00000000000E+00  0.11196964757E+04  0.11196964757E+04  0.00000000000E+00 0.  1.
         21   -1    0    0  502  503 -0.00000000000E+00 -0.00000000000E+00 -0.36666126006E+03  0.36666126006E+03  0.00000000000E+00 0.  1.
          6    1    1    2  501    0 -0.10412413225E+03 -0.27378857941E+02  0.10811147268E+04  0.11001497576E+04  0.17300000000E+03 0.  1.
         -6    1    1    2    0  503  0.10412413225E+03  0.27378857941E+02 -0.32807951111E+03  0.38620797815E+03  0.17300000000E+03 0.  1.
<mgrwt>
<rscale>  2 0.20376564E+03</rscale>
<asrwt>0</asrwt>
<pdfrwt beam="1">  1       21 0.17226100E+00 0.20376564E+03</pdfrwt>
<pdfrwt beam="2">  1       21 0.56409425E-01 0.20376564E+03</pdfrwt>
<totfact> 0.60065996E+02</totfact>
</mgrwt>
</event>
<event>
 4    1  0.4439578E+000  0.1811321E+03  0.7546771E-02  0.1166712E+00
         21   -1    0    0  503  502  0.00000000000E+00  0.00000000000E+00  0.10558849818E+03  0.10558849818E+03  0.00000000000E+00 0. -1.
         21   -1    0    0  501  503 -0.00000000000E+00 -0.00000000000E+00 -0.33855542294E+03  0.33855542294E+03  0.00000000000E+00 0. -1.
          6    1    1    2  501    0 -0.48159875093E+02 -0.23673753087E+02 -0.18015583079E+03  0.25547004428E+03  0.17300000000E+03 0.  1.
         -6    1    1    2    0  502  0.48159875093E+02  0.23673753087E+02 -0.52811093969E+02  0.18867387684E+03  0.17300000000E+03 0.  1.
<mgrwt>
<rscale>  2 0.18113205E+03</rscale>
<asrwt>0</asrwt>
<pdfrwt beam="1">  1       21 0.16244384E-01 0.18113205E+03</pdfrwt>
<pdfrwt beam="2">  1       21 0.52085449E-01 0.18113205E+03</pdfrwt>
<totfact> 0.11912660E+05</totfact>
</mgrwt>
</event>
<event>
 4    1  0.4439578E+000  0.2317031E+03  0.7546771E-02  0.1125447E+00
         21   -1    0    0  503  502  0.00000000000E+00  0.00000000000E+00  0.10484126536E+03  0.10484126536E+03  0.00000000000E+00 0. -1.
         21   -1    0    0  501  503 -0.00000000000E+00 -0.00000000000E+00 -0.89598012138E+03  0.89598012138E+03  0.00000000000E+00 0. -1.
          6    1    1    2  501    0  0.13386102090E+03  0.76410555434E+02 -0.72312928248E+03  0.75934333807E+03  0.17300000000E+03 0. -1.
         -6    1    1    2    0  502 -0.13386102090E+03 -0.76410555434E+02 -0.68009573540E+02  0.24147804867E+03  0.17300000000E+03 0. -1.
<mgrwt>
<rscale>  2 0.23170314E+03</rscale>
<asrwt>0</asrwt>
<pdfrwt beam="1">  1       21 0.16129425E-01 0.23170314E+03</pdfrwt>
<pdfrwt beam="2">  1       21 0.13784310E+00 0.23170314E+03</pdfrwt>
<totfact> 0.12463641E+04</totfact>
</mgrwt>
</event>
<event>
 4    1  0.4439578E+000  0.1985715E+03  0.7546771E-02  0.1150950E+00
         21   -1    0    0  503  502  0.00000000000E+00  0.00000000000E+00  0.71871351899E+02  0.71871351899E+02  0.00000000000E+00 0. -1.
         21   -1    0    0  501  503 -0.00000000000E+00 -0.00000000000E+00 -0.88549826445E+03  0.88549826445E+03  0.00000000000E+00 0. -1.
          6    1    1    2  501    0  0.61719432926E+02  0.75447648075E+02 -0.70206156661E+03  0.72960337123E+03  0.17300000000E+03 0. -1.
         -6    1    1    2    0  502 -0.61719432926E+02 -0.75447648075E+02 -0.11156534594E+03  0.22776624512E+03  0.17300000000E+03 0. -1.
<mgrwt>
<rscale>  2 0.19857149E+03</rscale>
<asrwt>0</asrwt>
<pdfrwt beam="1">  1       21 0.11057131E-01 0.19857149E+03</pdfrwt>
<pdfrwt beam="2">  1       21 0.13623050E+00 0.19857149E+03</pdfrwt>
<totfact> 0.25969524E+04</totfact>
</mgrwt>
</event>
<event>
 4    1  0.4439578E+000  0.1731349E+03  0.7546771E-02  0.1174618E+00
         21   -1    0    0  501  502  0.00000000000E+00  0.00000000000E+00  0.45977297743E+02  0.45977297743E+02  0.00000000000E+00 0. -1.
         21   -1    0    0  502  503 -0.00000000000E+00 -0.00000000000E+00 -0.99685165955E+03  0.99685165955E+03  0.00000000000E+00 0. -1.
          6    1    1    2  501    0  0.65223623092E+00  0.68016798183E+01 -0.16874362140E+03  0.24176455080E+03  0.17300000000E+03 0. -1.
         -6    1    1    2    0  503 -0.65223623092E+00 -0.68016798183E+01 -0.78213074041E+03  0.80106440650E+03  0.17300000000E+03 0. -1.
<mgrwt>
<rscale>  2 0.17313488E+03</rscale>
<asrwt>0</asrwt>
<pdfrwt beam="1">  1       21 0.70734309E-02 0.17313488E+03</pdfrwt>
<pdfrwt beam="2">  1       21 0.15336178E+00 0.17313488E+03</pdfrwt>
<totfact> 0.42372464E+04</totfact>
</mgrwt>
</event>
<event>
 4    1  0.4439578E+000  0.3578223E+03  0.7546771E-02  0.1059449E+00
         21   -1    0    0  501  502  0.00000000000E+00  0.00000000000E+00  0.82887411906E+03  0.82887411906E+03  0.00000000000E+00 0. -1.
         21   -1    0    0  502  503 -0.00000000000E+00 -0.00000000000E+00 -0.19211007204E+03  0.19211007204E+03  0.00000000000E+00 0. -1.
          6    1    1    2  501    0  0.30406200539E+03  0.75193865637E+02  0.54434368274E+03  0.65141911662E+03  0.17300000000E+03 0. -1.
         -6    1    1    2    0  503 -0.30406200539E+03 -0.75193865637E+02  0.92420364275E+02  0.36956507449E+03  0.17300000000E+03 0. -1.
<mgrwt>
<rscale>  2 0.35782233E+03</rscale>
<asrwt>0</asrwt>
<pdfrwt beam="1">  1       21 0.12751909E+00 0.35782233E+03</pdfrwt>
<pdfrwt beam="2">  1       21 0.29555396E-01 0.35782233E+03</pdfrwt>
<totfact> 0.45040071E+03</totfact>
</mgrwt>
</event>
<event>
 4    1  0.4439578E+000  0.1999558E+03  0.7546771E-02  0.1149776E+00
         21   -1    0    0  501  502  0.00000000000E+00  0.00000000000E+00  0.12016583415E+04  0.12016583415E+04  0.00000000000E+00 0.  1.
         21   -1    0    0  502  503 -0.00000000000E+00 -0.00000000000E+00 -0.40078951125E+02  0.40078951125E+02  0.00000000000E+00 0. -1.
          6    1    1    2  501    0 -0.22510525972E+02  0.97706738630E+02  0.83664701593E+03  0.86020960226E+03  0.17300000000E+03 0.  1.
         -6    1    1    2    0  503  0.22510525972E+02 -0.97706738630E+02  0.32493237444E+03  0.38152769036E+03  0.17300000000E+03 0. -1.
<mgrwt>
<rscale>  2 0.19995582E+03</rscale>
<asrwt>0</asrwt>
<pdfrwt beam="1">  1       21 0.18487049E+00 0.19995582E+03</pdfrwt>
<pdfrwt beam="2">  1       21 0.61659934E-02 0.19995582E+03</pdfrwt>
<totfact> 0.31586854E+04</totfact>
</mgrwt>
</event>
<event>
 4    1  0.4439578E+000  0.4145991E+03  0.7546771E-02  0.1038839E+00
         21   -1    0    0  501  502  0.00000000000E+00  0.00000000000E+00  0.60085676914E+02  0.60085676914E+02  0.00000000000E+00 0.  1.
         21   -1    0    0  502  503 -0.00000000000E+00 -0.00000000000E+00 -0.28619455868E+04  0.28619455868E+04  0.00000000000E+00 0. -1.
          6    1    1    2  501    0 -0.63567570332E+02 -0.37137930930E+03 -0.14303040091E+04  0.14891816497E+04  0.17300000000E+03 0. -1.
         -6    1    1    2    0  503  0.63567570332E+02  0.37137930930E+03 -0.13715559008E+04  0.14328496140E+04  0.17300000000E+03 0.  1.
<mgrwt>
<rscale>  2 0.41459912E+03</rscale>
<asrwt>0</asrwt>
<pdfrwt beam="1">  1       21 0.92439512E-02 0.41459912E+03</pdfrwt>
<pdfrwt beam="2">  1       21 0.44029928E+00 0.41459912E+03</pdfrwt>
<totfact> 0.35279410E+02</totfact>
</mgrwt>
</event>
<event>
 4    1  0.4439578E+000  0.2281911E+03  0.7546771E-02  0.1127919E+00
         21   -1    0    0  503  502  0.00000000000E+00  0.00000000000E+00  0.20762364435E+03  0.20762364435E+03  0.00000000000E+00 0. -1.
         21   -1    0    0  501  503 -0.00000000000E+00 -0.00000000000E+00 -0.31290736068E+03  0.31290736068E+03  0.00000000000E+00 0. -1.
          6    1    1    2  501    0  0.94227829117E+02  0.11516641889E+03 -0.16859809149E+03  0.28371905871E+03  0.17300000000E+03 0. -1.
         -6    1    1    2    0  502 -0.94227829117E+02 -0.11516641889E+03  0.63314375159E+02  0.23681194632E+03  0.17300000000E+03 0. -1.
<mgrwt>
<rscale>  2 0.22819112E+03</rscale>
<asrwt>0</asrwt>
<pdfrwt beam="1">  1       21 0.31942099E-01 0.22819112E+03</pdfrwt>
<pdfrwt beam="2">  1       21 0.48139594E-01 0.22819112E+03</pdfrwt>
<totfact> 0.38181967E+04</totfact>
</mgrwt>
</event>
<event>
 4    1  0.4439578E+000  0.3313520E+03  0.7546771E-02  0.1070540E+00
         21   -1    0    0  501  502  0.00000000000E+00  0.00000000000E+00  0.87372365433E+03  0.87372365433E+03  0.00000000000E+00 0. -1.
         21   -1    0    0  502  503 -0.00000000000E+00 -0.00000000000E+00 -0.12772876401E+03  0.12772876401E+03  0.00000000000E+00 0.  1.
          6    1    1    2  501    0 -0.43106868885E+02 -0.27929718475E+03  0.43668732406E+03  0.54816962571E+03  0.17300000000E+03 0. -1.
         -6    1    1    2    0  503  0.43106868885E+02  0.27929718475E+03  0.30930756626E+03  0.45328279263E+03  0.17300000000E+03 0.  1.
<mgrwt>
<rscale>  2 0.33135196E+03</rscale>
<asrwt>0</asrwt>
<pdfrwt beam="1">  1       21 0.13441902E+00 0.33135196E+03</pdfrwt>
<pdfrwt beam="2">  1       21 0.19650580E-01 0.33135196E+03</pdfrwt>
<totfact> 0.87419910E+03</totfact>
</mgrwt>
</event>
<event>
 4    1  0.4439578E+000  0.2424655E+03  0.7546771E-02  0.1118161E+00
         21   -1    0    0  503  502  0.00000000000E+00  0.00000000000E+00  0.56567789297E+03  0.56567789297E+03  0.00000000000E+00 0. -1.
         21   -1    0    0  501  503 -0.00000000000E+00 -0.00000000000E+00 -0.17604067190E+03  0.17604067190E+03  0.00000000000E+00 0.  1.
          6    1    1    2  501    0 -0.50436911543E+02 -0.16222402239E+03 -0.42542630670E+02  0.24616943537E+03  0.17300000000E+03 0.  1.
         -6    1    1    2    0  502  0.50436911543E+02  0.16222402239E+03  0.43217985175E+03  0.49554912950E+03  0.17300000000E+03 0. -1.
<mgrwt>
<rscale>  2 0.24246549E+03</rscale>
<asrwt>0</asrwt>
<pdfrwt beam="1">  1       21 0.87027367E-01 0.24246549E+03</pdfrwt>
<pdfrwt beam="2">  1       21 0.27083181E-01 0.24246549E+03</pdfrwt>
<totfact> 0.14313032E+04</totfact>
</mgrwt>
</event>
<event>
 4    1  0.4439578E+000  0.2449921E+03  0.7546771E-02  0.1116511E+00
         21   -1    0    0  503  502  0.00000000000E+00  0.00000000000E+00  0.16197260086E+03  0.16197260086E+03  0.00000000000E+00 0.  1.
         21   -1    0    0  501  503 -0.00000000000E+00 -0.00000000000E+00 -0.40099893874E+03  0.40099893874E+03  0.00000000000E+00 0.  1.
          6    1    1    2  501    0  0.21749844182E+02  0.17210186333E+03 -0.41964241319E+02  0.24856006242E+03  0.17300000000E+03 0.  1.
         -6    1    1    2    0  502 -0.21749844182E+02 -0.17210186333E+03 -0.19706209656E+03  0.31441147718E+03  0.17300000000E+03 0.  1.
<mgrwt>
<rscale>  2 0.24499206E+03</rscale>
<asrwt>0</asrwt>
<pdfrwt beam="1">  1       21 0.24918862E-01 0.24499206E+03</pdfrwt>
<pdfrwt beam="2">  1       21 0.61692143E-01 0.24499206E+03</pdfrwt>
<totfact> 0.36260910E+04</totfact>
</mgrwt>
</event>
<event>
 4    1  0.4439578E+000  0.2124856E+03  0.7546771E-02  0.1139613E+00
         21   -1    0    0  501  502  0.00000000000E+00  0.00000000000E+00  0.68440077389E+02  0.68440077389E+02  0.00000000000E+00 0. -1.
         21   -1    0    0  502  503 -0.00000000000E+00 -0.00000000000E+00 -0.85232592522E+03  0.85232592522E+03  0.00000000000E+00 0.  1.
          6    1    1    2  501    0 -0.30570912637E+02  0.11952631851E+03 -0.17308087302E+03  0.27405676441E+03  0.17300000000E+03 0. -1.
         -6    1    1    2    0  503  0.30570912637E+02 -0.11952631851E+03 -0.61080497481E+03  0.64670923820E+03  0.17300000000E+03 0.  1.
<mgrwt>
<rscale>  2 0.21248558E+03</rscale>
<asrwt>0</asrwt>
<pdfrwt beam="1">  1       21 0.10529242E-01 0.21248558E+03</pdfrwt>
<pdfrwt beam="2">  1       21 0.13112707E+00 0.21248558E+03</pdfrwt>
<totfact> 0.30961121E+04</totfact>
</mgrwt>
</event>
<event>
 4    1  0.4439578E+000  0.1924440E+03  0.7546771E-02  0.1156275E+00
         21   -1    0    0  503  502  0.00000000000E+00  0.00000000000E+00  0.74732010035E+03  0.74732010035E+03  0.00000000000E+00 0. -1.
         21   -1    0    0  501  503 -0.00000000000E+00 -0.00000000000E+00 -0.52035553925E+02  0.52035553925E+02  0.00000000000E+00 0. -1.
          6    1    1    2  501    0  0.81945147605E+02  0.19765409005E+02  0.26040741661E+03  0.32380040339E+03  0.17300000000E+03 0. -1.
         -6    1    1    2    0  502 -0.81945147605E+02 -0.19765409005E+02  0.43487712981E+03  0.47555525088E+03  0.17300000000E+03 0. -1.
<mgrwt>
<rscale>  2 0.19244396E+03</rscale>
<asrwt>0</asrwt>
<pdfrwt beam="1">  1       21 0.11497232E+00 0.19244396E+03</pdfrwt>
<pdfrwt beam="2">  1       21 0.80054704E-02 0.19244396E+03</pdfrwt>
<totfact> 0.70320413E+04</totfact>
</mgrwt>
</event>
<event>
 4    1  0.4439578E+000  0.1862532E+03  0.7546771E-02  0.1161885E+00
         21   -1    0    0  501  502  0.00000000000E+00  0.00000000000E+00  0.64848714287E+03  0.64848714287E+03  0.00000000000E+00 0.  1.
         21   -1    0    0  502  503 -0.00000000000E+00 -0.00000000000E+00 -0.53930533993E+02  0.53930533993E+02  0.00000000000E+00 0.  1.
          6    1    1    2  501    0 -0.68500579137E+02  0.83031808761E+01  0.32887049011E+03  0.37794982659E+03  0.17300000000E+03 0.  1.
         -6    1    1    2    0  503  0.68500579137E+02 -0.83031808761E+01  0.26568611876E+03  0.32446785027E+03  0.17300000000E+03 0.  1.
<mgrwt>
<rscale>  2 0.18625325E+03</rscale>
<asrwt>0</asrwt>
<pdfrwt beam="1">  1       21 0.99767247E-01 0.18625325E+03</pdfrwt>
<pdfrwt beam="2">  1       21 0.82970057E-02 0.18625325E+03</pdfrwt>
<totfact> 0.93214815E+04</totfact>
</mgrwt>
</event>
<event>
 4    1  0.4439578E+000  0.1925474E+03  0.7546771E-02  0.1156184E+00
         21   -1    0    0  501  502  0.00000000000E+00  0.00000000000E+00  0.16887319624E+03  0.16887319624E+03  0.00000000000E+00 0.  1.
         21   -1    0    0  502  503 -0.00000000000E+00 -0.00000000000E+00 -0.26426988430E+03  0.26426988430E+03  0.00000000000E+00 0.  1.
          6    1    1    2  501    0  0.65806314067E+02 -0.53056850569E+02  0.41400930597E+02  0.19694805766E+03  0.17300000000E+03 0.  1.
         -6    1    1    2    0  503 -0.65806314067E+02  0.53056850569E+02 -0.13679761866E+03  0.23619502288E+03  0.17300000000E+03 0.  1.
<mgrwt>
<rscale>  2 0.19254740E+03</rscale>
<asrwt>0</asrwt>
<pdfrwt beam="1">  1       21 0.25980492E-01 0.19254740E+03</pdfrwt>
<pdfrwt beam="2">  1       21 0.40656905E-01 0.19254740E+03</pdfrwt>
<totfact> 0.82024807E+04</totfact>
</mgrwt>
</event>
<event>
 4    1  0.4439578E+000  0.3503714E+03  0.7546771E-02  0.1062463E+00
         21   -1    0    0  503  502  0.00000000000E+00  0.00000000000E+00  0.60334188503E+03  0.60334188503E+03  0.00000000000E+00 0.  1.
         21   -1    0    0  501  503 -0.00000000000E+00 -0.00000000000E+00 -0.22031871329E+03  0.22031871329E+03  0.00000000000E+00 0. -1.
          6    1    1    2  501    0  0.28046014840E+03 -0.11905122005E+03  0.77613547361E+02  0.35886480821E+03  0.17300000000E+03 0.  1.
         -6    1    1    2    0  502 -0.28046014840E+03  0.11905122005E+03  0.30540962439E+03  0.46479579011E+03  0.17300000000E+03 0. -1.
<mgrwt>
<rscale>  2 0.35037136E+03</rscale>
<asrwt>0</asrwt>
<pdfrwt beam="1">  1       21 0.92821828E-01 0.35037136E+03</pdfrwt>
<pdfrwt beam="2">  1       21 0.33895187E-01 0.35037136E+03</pdfrwt>
<totfact> 0.75213071E+03</totfact>
</mgrwt>
</event>
<event>
 4    1  0.4439578E+000  0.2018973E+03  0.7546771E-02  0.1148148E+00
         21   -1    0    0  503  502  0.00000000000E+00  0.00000000000E+00  0.79335880070E+03  0.79335880070E+03  0.00000000000E+00 0. -1.
         21   -1    0    0  501  503 -0.00000000000E+00 -0.00000000000E+00 -0.58301738945E+02  0.58301738945E+02  0.00000000000E+00 0. -1.
          6    1    1    2  501    0  0.85406333537E+01  0.10373329459E+03  0.22080062161E+03  0.29919133230E+03  0.17300000000E+03 0. -1.
         -6    1    1    2    0  502 -0.85406333537E+01 -0.10373329459E+03  0.51425644015E+03  0.55246920734E+03  0.17300000000E+03 0. -1.
<mgrwt>
<rscale>  2 0.20189735E+03</rscale>
<asrwt>0</asrwt>
<pdfrwt beam="1">  1       21 0.12205519E+00 0.20189735E+03</pdfrwt>
<pdfrwt beam="2">  1       21 0.89694988E-02 0.20189735E+03</pdfrwt>
<totfact> 0.49504134E+04</totfact>
</mgrwt>
</event>
<event>
 4    1  0.4439578E+000  0.2082039E+03  0.7546771E-02  0.1142996E+00
         21   -1    0    0  501  502  0.00000000000E+00  0.00000000000E+00  0.77503068367E+02  0.77503068367E+02  0.00000000000E+00 0.  1.
         21   -1    0    0  502  503 -0.00000000000E+00 -0.00000000000E+00 -0.57769716846E+03  0.57769716846E+03  0.00000000000E+00 0. -1.
          6    1    1    2  501    0 -0.79361178928E+02  0.84389943476E+02 -0.19166418898E+03  0.28299120237E+03  0.17300000000E+03 0.  1.
         -6    1    1    2    0  503  0.79361178928E+02 -0.84389943476E+02 -0.30852991111E+03  0.37220903445E+03  0.17300000000E+03 0. -1.
<mgrwt>
<rscale>  2 0.20820389E+03</rscale>
<asrwt>0</asrwt>
<pdfrwt beam="1">  1       21 0.11923549E-01 0.20820389E+03</pdfrwt>
<pdfrwt beam="2">  1       21 0.88876487E-01 0.20820389E+03</pdfrwt>
<totfact> 0.63725309E+04</totfact>
</mgrwt>
</event>
<event>
 4    1  0.4439578E+000  0.5844261E+03  0.7546771E-02  0.9938254E-01
         21   -1    0    0  503  502  0.00000000000E+00  0.00000000000E+00  0.64345696799E+03  0.64345696799E+03  0.00000000000E+00 0. -1.
         21   -1    0    0  501  503 -0.00000000000E+00 -0.00000000000E+00 -0.61144454195E+03  0.61144454195E+03  0.00000000000E+00 0.  1.
          6    1    1    2  501    0 -0.43666865360E+03 -0.34777191287E+03 -0.21184948849E+03  0.62163817626E+03  0.17300000000E+03 0.  1.
         -6    1    1    2    0  502  0.43666865360E+03  0.34777191287E+03  0.24386191453E+03  0.63326333367E+03  0.17300000000E+03 0. -1.
<mgrwt>
<rscale>  2 0.58442606E+03</rscale>
<asrwt>0</asrwt>
<pdfrwt beam="1">  1       21 0.98993379E-01 0.58442606E+03</pdfrwt>
<pdfrwt beam="2">  1       21 0.94068391E-01 0.58442606E+03</pdfrwt>
<totfact> 0.63838437E+02</totfact>
</mgrwt>
</event>
<event>
 4    1  0.4439578E+000  0.2021942E+03  0.7546771E-02  0.1147901E+00
         21   -1    0    0  501  502  0.00000000000E+00  0.00000000000E+00  0.58643004231E+03  0.58643004231E+03  0.00000000000E+00 0.  1.
         21   -1    0    0  502  503 -0.00000000000E+00 -0.00000000000E+00 -0.13647608699E+03  0.13647608699E+03  0.00000000000E+00 0.  1.
          6    1    1    2  501    0 -0.10075973599E+03  0.28301246749E+02  0.47778335325E+03  0.51880576096E+03  0.17300000000E+03 0.  1.
         -6    1    1    2    0  503  0.10075973599E+03 -0.28301246749E+02 -0.27829397929E+02  0.20410036833E+03  0.17300000000E+03 0.  1.
<mgrwt>
<rscale>  2 0.20219418E+03</rscale>
<asrwt>0</asrwt>
<pdfrwt beam="1">  1       21 0.90220005E-01 0.20219418E+03</pdfrwt>
<pdfrwt beam="2">  1       21 0.20996321E-01 0.20219418E+03</pdfrwt>
<totfact> 0.21889542E+04</totfact>
</mgrwt>
</event>
<event>
 4    1  0.4439578E+000  0.1979099E+03  0.7546771E-02  0.1151515E+00
         21   -1    0    0  501  502  0.00000000000E+00  0.00000000000E+00  0.12158083710E+03  0.12158083710E+03  0.00000000000E+00 0.  1.
         21   -1    0    0  502  503 -0.00000000000E+00 -0.00000000000E+00 -0.58246075501E+03  0.58246075501E+03  0.00000000000E+00 0. -1.
          6    1    1    2  501    0 -0.48678198383E+02 -0.82883934194E+02  0.48881794729E+01  0.19797021959E+03  0.17300000000E+03 0.  1.
         -6    1    1    2    0  503  0.48678198383E+02  0.82883934194E+02 -0.46576809738E+03  0.50607137252E+03  0.17300000000E+03 0. -1.
<mgrwt>
<rscale>  2 0.19790986E+03</rscale>
<asrwt>0</asrwt>
<pdfrwt beam="1">  1       21 0.18704744E-01 0.19790986E+03</pdfrwt>
<pdfrwt beam="2">  1       21 0.89609347E-01 0.19790986E+03</pdfrwt>
<totfact> 0.27664837E+04</totfact>
</mgrwt>
</event>
<event>
 4    1  0.4439578E+000  0.2046183E+03  0.7546771E-02  0.1145900E+00
         21   -1    0    0  503  502  0.00000000000E+00  0.00000000000E+00  0.59916147794E+03  0.59916147794E+03  0.00000000000E+00 0. -1.
         21   -1    0    0  501  503 -0.00000000000E+00 -0.00000000000E+00 -0.76027067934E+02  0.76027067934E+02  0.00000000000E+00 0.  1.
          6    1    1    2  501    0  0.64378191643E+00  0.10926678368E+03  0.16556311481E+03  0.26321054207E+03  0.17300000000E+03 0.  1.
         -6    1    1    2    0  502 -0.64378191643E+00 -0.10926678368E+03  0.35757129519E+03  0.41197800380E+03  0.17300000000E+03 0.  1.
<mgrwt>
<rscale>  2 0.20461829E+03</rscale>
<asrwt>0</asrwt>
<pdfrwt beam="1">  1       21 0.92178686E-01 0.20461829E+03</pdfrwt>
<pdfrwt beam="2">  1       21 0.11696472E-01 0.20461829E+03</pdfrwt>
<totfact> 0.60702176E+04</totfact>
</mgrwt>
</event>
<event>
 4    1  0.4439578E+000  0.2161543E+03  0.7546771E-02  0.1136783E+00
         21   -1    0    0  503  502  0.00000000000E+00  0.00000000000E+00  0.67238971663E+03  0.67238971663E+03  0.00000000000E+00 0. -1.
         21   -1    0    0  501  503 -0.00000000000E+00 -0.00000000000E+00 -0.76770689191E+02  0.76770689191E+02  0.00000000000E+00 0. -1.
          6    1    1    2  501    0 -0.12737342822E+03 -0.23867949692E+02  0.18243539596E+03  0.28285215739E+03  0.17300000000E+03 0. -1.
         -6    1    1    2    0  502  0.12737342822E+03  0.23867949692E+02  0.41318363147E+03  0.46630824843E+03  0.17300000000E+03 0. -1.
<mgrwt>
<rscale>  2 0.21615427E+03</rscale>
<asrwt>0</asrwt>
<pdfrwt beam="1">  1       21 0.10344457E+00 0.21615427E+03</pdfrwt>
<pdfrwt beam="2">  1       21 0.11810876E-01 0.21615427E+03</pdfrwt>
<totfact> 0.45164326E+04</totfact>
</mgrwt>
</event>
<event>
 4    1  0.4439578E+000  0.1744488E+03  0.7546771E-02  0.1173286E+00
         21   -1    0    0  501  502  0.00000000000E+00  0.00000000000E+00  0.44554527160E+02  0.44554527160E+02  0.00000000000E+00 0.  1.
         21   -1    0    0  502  503 -0.00000000000E+00 -0.00000000000E+00 -0.72670231570E+03  0.72670231570E+03  0.00000000000E+00 0.  1.
          6    1    1    2  501    0  0.96916028929E+01 -0.20235337820E+02 -0.24654633349E+03  0.30202233464E+03  0.17300000000E+03 0.  1.
         -6    1    1    2    0  503 -0.96916028929E+01  0.20235337820E+02 -0.43560145505E+03  0.46923450822E+03  0.17300000000E+03 0.  1.
<mgrwt>
<rscale>  2 0.17444884E+03</rscale>
<asrwt>0</asrwt>
<pdfrwt beam="1">  1       21 0.68545430E-02 0.17444884E+03</pdfrwt>
<pdfrwt beam="2">  1       21 0.11180035E+00 0.17444884E+03</pdfrwt>
<totfact> 0.99259636E+04</totfact>
</mgrwt>
</event>
<event>
 4    1  0.4439578E+000  0.2190507E+03  0.7546771E-02  0.1134593E+00
         21   -1    0    0  501  502  0.00000000000E+00  0.00000000000E+00  0.97782367617E+02  0.97782367617E+02  0.00000000000E+00 0. -1.
         21   -1    0    0  502  503 -0.00000000000E+00 -0.00000000000E+00 -0.71550436634E+03  0.71550436634E+03  0.00000000000E+00 0. -1.
          6    1    1    2  501    0 -0.10944586394E+03 -0.77947537438E+02 -0.80933875208E+02  0.23352410557E+03  0.17300000000E+03 0. -1.
         -6    1    1    2    0  503  0.10944586394E+03  0.77947537438E+02 -0.53678812352E+03  0.57976262839E+03  0.17300000000E+03 0. -1.
<mgrwt>
<rscale>  2 0.21905071E+03</rscale>
<asrwt>0</asrwt>
<pdfrwt beam="1">  1       21 0.15043441E-01 0.21905071E+03</pdfrwt>
<pdfrwt beam="2">  1       21 0.11007760E+00 0.21905071E+03</pdfrwt>
<totfact> 0.25051776E+04</totfact>
</mgrwt>
</event>
<event>
 4    1  0.4439578E+000  0.1734374E+03  0.7546771E-02  0.1174310E+00
         21   -1    0    0  503  502  0.00000000000E+00  0.00000000000E+00  0.10618689604E+03  0.10618689604E+03  0.00000000000E+00 0. -1.
         21   -1    0    0  501  503 -0.00000000000E+00 -0.00000000000E+00 -0.34628443479E+03  0.34628443479E+03  0.00000000000E+00 0. -1.
          6    1    1    2  501    0 -0.40032629798E+01  0.11640832657E+02 -0.21655003925E+03  0.27744270508E+03  0.17300000000E+03 0. -1.
         -6    1    1    2    0  502  0.40032629798E+01 -0.11640832657E+02 -0.23547499498E+02  0.17502862575E+03  0.17300000000E+03 0. -1.
<mgrwt>
<rscale>  2 0.17343741E+03</rscale>
<asrwt>0</asrwt>
<pdfrwt beam="1">  1       21 0.16336445E-01 0.17343741E+03</pdfrwt>
<pdfrwt beam="2">  1       21 0.53274529E-01 0.17343741E+03</pdfrwt>
<totfact> 0.11277341E+05</totfact>
</mgrwt>
</event>
<event>
 4    1  0.4439578E+000  0.2341053E+03  0.7546771E-02  0.1123783E+00
         21   -1    0    0  501  502  0.00000000000E+00  0.00000000000E+00  0.19991533910E+03  0.19991533910E+03  0.00000000000E+00 0. -1.
         21   -1    0    0  502  503 -0.00000000000E+00 -0.00000000000E+00 -0.27425733160E+03  0.27425733160E+03  0.00000000000E+00 0. -1.
          6    1    1    2  501    0  0.11778535587E+03  0.10489479618E+03 -0.32321543187E+02  0.23632602581E+03  0.17300000000E+03 0. -1.
         -6    1    1    2    0  503 -0.11778535587E+03 -0.10489479618E+03 -0.42020449311E+02  0.23784664489E+03  0.17300000000E+03 0. -1.
<mgrwt>
<rscale>  2 0.23410534E+03</rscale>
<asrwt>0</asrwt>
<pdfrwt beam="1">  1       21 0.30756206E-01 0.23410534E+03</pdfrwt>
<pdfrwt beam="2">  1       21 0.42193435E-01 0.23410534E+03</pdfrwt>
<totfact> 0.53853669E+04</totfact>
</mgrwt>
</event>
<event>
 4    1  0.4439578E+000  0.2028220E+03  0.7546771E-02  0.1147380E+00
         21   -1    0    0  503  502  0.00000000000E+00  0.00000000000E+00  0.64001136127E+02  0.64001136127E+02  0.00000000000E+00 0.  1.
         21   -1    0    0  501  503 -0.00000000000E+00 -0.00000000000E+00 -0.66737515382E+03  0.66737515382E+03  0.00000000000E+00 0.  1.
          6    1    1    2  501    0 -0.10552062380E+03 -0.85529008876E+01 -0.37193146351E+03  0.42363872310E+03  0.17300000000E+03 0.  1.
         -6    1    1    2    0  502  0.10552062380E+03  0.85529008876E+01 -0.23144255418E+03  0.30773756684E+03  0.17300000000E+03 0.  1.
<mgrwt>
<rscale>  2 0.20282198E+03</rscale>
<asrwt>0</asrwt>
<pdfrwt beam="1">  1       21 0.98463285E-02 0.20282198E+03</pdfrwt>
<pdfrwt beam="2">  1       21 0.10267310E+00 0.20282198E+03</pdfrwt>
<totfact> 0.63972476E+04</totfact>
</mgrwt>
</event>
<event>
 4    1  0.4439578E+000  0.3172033E+03  0.7546771E-02  0.1076944E+00
         21   -1    0    0  501  502  0.00000000000E+00  0.00000000000E+00  0.52964390448E+03  0.52964390448E+03  0.00000000000E+00 0.  1.
         21   -1    0    0  502  503 -0.00000000000E+00 -0.00000000000E+00 -0.39127935962E+03  0.39127935962E+03  0.00000000000E+00 0.  1.
          6    1    1    2  501    0 -0.55567655266E+02  0.26000225401E+03  0.39945973589E+03  0.51008432342E+03  0.17300000000E+03 0.  1.
         -6    1    1    2    0  503  0.55567655266E+02 -0.26000225401E+03 -0.26109519103E+03  0.41083894068E+03  0.17300000000E+03 0.  1.
<mgrwt>
<rscale>  2 0.31720330E+03</rscale>
<asrwt>0</asrwt>
<pdfrwt beam="1">  1       21 0.81483678E-01 0.31720330E+03</pdfrwt>
<pdfrwt beam="2">  1       21 0.60196824E-01 0.31720330E+03</pdfrwt>
<totfact> 0.31263749E+03</totfact>
</mgrwt>
</event>
<event>
 4    1  0.4439578E+000  0.2439275E+03  0.7546771E-02  0.1117204E+00
         21   -1    0    0  501  502  0.00000000000E+00  0.00000000000E+00  0.33561310602E+02  0.33561310602E+02  0.00000000000E+00 0.  1.
         21   -1    0    0  502  503 -0.00000000000E+00 -0.00000000000E+00 -0.20071312139E+04  0.20071312139E+04  0.00000000000E+00 0.  1.
          6    1    1    2  501    0 -0.14722230422E+03  0.88866336640E+02 -0.63821654867E+03  0.68324299897E+03  0.17300000000E+03 0.  1.
         -6    1    1    2    0  503  0.14722230422E+03 -0.88866336640E+02 -0.13353533546E+04  0.13574495255E+04  0.17300000000E+03 0.  1.
<mgrwt>
<rscale>  2 0.24392752E+03</rscale>
<asrwt>0</asrwt>
<pdfrwt beam="1">  1       21 0.51632775E-02 0.24392752E+03</pdfrwt>
<pdfrwt beam="2">  1       21 0.30878948E+00 0.24392752E+03</pdfrwt>
<totfact> 0.73451163E+03</totfact>
</mgrwt>
</event>
<event>
 4    1  0.4439578E+000  0.1952922E+03  0.7546771E-02  0.1153773E+00
         21   -1    0    0  503  502  0.00000000000E+00  0.00000000000E+00  0.68847359232E+03  0.68847359232E+03  0.00000000000E+00 0.  1.
         21   -1    0    0  501  503 -0.00000000000E+00 -0.00000000000E+00 -0.61490098155E+02  0.61490098155E+02  0.00000000000E+00 0.  1.
          6    1    1    2  501    0 -0.82452438447E+02  0.37571606859E+02  0.19544761467E+03  0.27629477072E+03  0.17300000000E+03 0.  1.
         -6    1    1    2    0  502  0.82452438447E+02 -0.37571606859E+02  0.43153587950E+03  0.47366891976E+03  0.17300000000E+03 0.  1.
<mgrwt>
<rscale>  2 0.19529217E+03</rscale>
<asrwt>0</asrwt>
<pdfrwt beam="1">  1       21 0.10591901E+00 0.19529217E+03</pdfrwt>
<pdfrwt beam="2">  1       21 0.94600156E-02 0.19529217E+03</pdfrwt>
<totfact> 0.63946828E+04</totfact>
</mgrwt>
</event>
<event>
 4    1  0.4439578E+000  0.3696385E+03  0.7546771E-02  0.1054831E+00
         21   -1    0    0  503  502  0.00000000000E+00  0.00000000000E+00  0.33552975169E+03  0.33552975169E+03  0.00000000000E+00 0. -1.
         21   -1    0    0  501  503 -0.00000000000E+00 -0.00000000000E+00 -0.40995761062E+03  0.40995761062E+03  0.00000000000E+00 0.  1.
          6    1    1    2  501    0  0.31307763493E+03 -0.93198819284E+02 -0.67703532979E+02  0.37578769776E+03  0.17300000000E+03 0. -1.
         -6    1    1    2    0  502 -0.31307763493E+03  0.93198819284E+02 -0.67243259449E+01  0.36969966455E+03  0.17300000000E+03 0.  1.
<mgrwt>
<rscale>  2 0.36963851E+03</rscale>
<asrwt>0</asrwt>
<pdfrwt beam="1">  1       21 0.51619962E-01 0.36963851E+03</pdfrwt>
<pdfrwt beam="2">  1       21 0.63070401E-01 0.36963851E+03</pdfrwt>
<totfact> 0.75621396E+03</totfact>
</mgrwt>
</event>
<event>
 4    1  0.4439578E+000  0.1806516E+03  0.7546771E-02  0.1167174E+00
         21   -1    0    0  503  502  0.00000000000E+00  0.00000000000E+00  0.75473764787E+03  0.75473764787E+03  0.00000000000E+00 0.  1.
         21   -1    0    0  501  503 -0.00000000000E+00 -0.00000000000E+00 -0.55683823442E+02  0.55683823442E+02  0.00000000000E+00 0.  1.
          6    1    1    2  501    0  0.17248452069E+02 -0.49076315501E+02  0.15797338652E+03  0.23998038397E+03  0.17300000000E+03 0.  1.
         -6    1    1    2    0  502 -0.17248452069E+02  0.49076315501E+02  0.54108043790E+03  0.57044108734E+03  0.17300000000E+03 0.  1.
<mgrwt>
<rscale>  2 0.18065158E+03</rscale>
<asrwt>0</asrwt>
<pdfrwt beam="1">  1       21 0.11611348E+00 0.18065158E+03</pdfrwt>
<pdfrwt beam="2">  1       21 0.85667426E-02 0.18065158E+03</pdfrwt>
<totfact> 0.61342756E+04</totfact>
</mgrwt>
</event>
<event>
 4    1  0.4439578E+000  0.3400941E+03  0.7546771E-02  0.1066756E+00
         21   -1    0    0  503  502  0.00000000000E+00  0.00000000000E+00  0.16054368867E+03  0.16054368867E+03  0.00000000000E+00 0. -1.
         21   -1    0    0  501  503 -0.00000000000E+00 -0.00000000000E+00 -0.75975214062E+03  0.75975214062E+03  0.00000000000E+00 0.  1.
          6    1    1    2  501    0 -0.26011416145E+03 -0.13444566121E+03 -0.40425895234E+03  0.52828904338E+03  0.17300000000E+03 0.  1.
         -6    1    1    2    0  502  0.26011416145E+03  0.13444566121E+03 -0.19494949961E+03  0.39200678591E+03  0.17300000000E+03 0. -1.
<mgrwt>
<rscale>  2 0.34009412E+03</rscale>
<asrwt>0</asrwt>
<pdfrwt beam="1">  1       21 0.24699028E-01 0.34009412E+03</pdfrwt>
<pdfrwt beam="2">  1       21 0.11688495E+00 0.34009412E+03</pdfrwt>
<totfact> 0.80350267E+03</totfact>
</mgrwt>
</event>
<event>
 4    1  0.4439578E+000  0.2218866E+03  0.7546771E-02  0.1132484E+00
         21   -1    0    0  501  502  0.00000000000E+00  0.00000000000E+00  0.29009708079E+03  0.29009708079E+03  0.00000000000E+00 0.  1.
         21   -1    0    0  502  503 -0.00000000000E+00 -0.00000000000E+00 -0.18117354397E+03  0.18117354397E+03  0.00000000000E+00 0.  1.
          6    1    1    2  501    0  0.29214959537E+02  0.13583493541E+03  0.11372285712E+03  0.24933217155E+03  0.17300000000E+03 0.  1.
         -6    1    1    2    0  503 -0.29214959537E+02 -0.13583493541E+03 -0.47993202998E+01  0.22193845321E+03  0.17300000000E+03 0.  1.
<mgrwt>
<rscale>  2 0.22188656E+03</rscale>
<asrwt>0</asrwt>
<pdfrwt beam="1">  1       21 0.44630320E-01 0.22188656E+03</pdfrwt>
<pdfrwt beam="2">  1       21 0.27872853E-01 0.22188656E+03</pdfrwt>
<totfact> 0.58458056E+04</totfact>
</mgrwt>
</event>
<event>
 4    1  0.4439578E+000  0.2222705E+03  0.7546771E-02  0.1132202E+00
         21   -1    0    0  501  502  0.00000000000E+00  0.00000000000E+00  0.35605730825E+03  0.35605730825E+03  0.00000000000E+00 0.  1.
         21   -1    0    0  502  503 -0.00000000000E+00 -0.00000000000E+00 -0.46510887472E+03  0.46510887472E+03  0.00000000000E+00 0. -1.
          6    1    1    2  501    0 -0.10258700530E+03  0.94610138241E+02  0.28940352025E+03  0.36490898790E+03  0.17300000000E+03 0.  1.
         -6    1    1    2    0  503  0.10258700530E+03 -0.94610138241E+02 -0.39845508672E+03  0.45625719507E+03  0.17300000000E+03 0. -1.
<mgrwt>
<rscale>  2 0.22227049E+03</rscale>
<asrwt>0</asrwt>
<pdfrwt beam="1">  1       21 0.54778048E-01 0.22227049E+03</pdfrwt>
<pdfrwt beam="2">  1       21 0.71555211E-01 0.22227049E+03</pdfrwt>
<totfact> 0.54328066E+03</totfact>
</mgrwt>
</event>
<event>
 4    1  0.4439578E+000  0.2019484E+03  0.7546771E-02  0.1148105E+00
         21   -1    0    0  503  502  0.00000000000E+00  0.00000000000E+00  0.15557132081E+04  0.15557132081E+04  0.00000000000E+00 0.  1.
         21   -1    0    0  501  503 -0.00000000000E+00 -0.00000000000E+00 -0.28866726588E+02  0.28866726588E+02  0.00000000000E+00 0.  1.
          6    1    1    2  501    0 -0.10227842416E+03  0.19831801649E+02  0.52329589636E+03  0.56091155412E+03  0.17300000000E+03 0.  1.
         -6    1    1    2    0  502  0.10227842416E+03 -0.19831801649E+02  0.10035505852E+04  0.10236683806E+04  0.17300000000E+03 0.  1.
<mgrwt>
<rscale>  2 0.20194845E+03</rscale>
<asrwt>0</asrwt>
<pdfrwt beam="1">  1       21 0.23934043E+00 0.20194845E+03</pdfrwt>
<pdfrwt beam="2">  1       21 0.44410361E-02 0.20194845E+03</pdfrwt>
<totfact> 0.25077519E+04</totfact>
</mgrwt>
</event>
<event>
 4    1  0.4439578E+000  0.1751519E+03  0.7546771E-02  0.1172579E+00
         21   -1    0    0  501  502  0.00000000000E+00  0.00000000000E+00  0.11822641626E+03  0.11822641626E+03  0.00000000000E+00 0.  1.
         21   -1    0    0  502  503 -0.00000000000E+00 -0.00000000000E+00 -0.26215731684E+03  0.26215731684E+03  0.00000000000E+00 0.  1.
          6    1    1    2  501    0 -0.12776115676E+02  0.24206609649E+02 -0.52769381948E+02  0.18292839242E+03  0.17300000000E+03 0.  1.
         -6    1    1    2    0  503  0.12776115676E+02 -0.24206609649E+02 -0.91161518630E+02  0.19745534068E+03  0.17300000000E+03 0.  1.
<mgrwt>
<rscale>  2 0.17515190E+03</rscale>
<asrwt>0</asrwt>
<pdfrwt beam="1">  1       21 0.18188679E-01 0.17515190E+03</pdfrwt>
<pdfrwt beam="2">  1       21 0.40331895E-01 0.17515190E+03</pdfrwt>
<totfact> 0.16403233E+05</totfact>
</mgrwt>
</event>
<event>
 4    1  0.4439578E+000  0.1732461E+03  0.7546771E-02  0.1174504E+00
         21   -1    0    0  501  502  0.00000000000E+00  0.00000000000E+00  0.36195700879E+02  0.36195700879E+02  0.00000000000E+00 0. -1.
         21   -1    0    0  502  503 -0.00000000000E+00 -0.00000000000E+00 -0.10756326159E+04  0.10756326159E+04  0.00000000000E+00 0. -1.
          6    1    1    2  501    0  0.92266666081E+01  0.28775604455E+00 -0.25364175127E+03  0.30716176873E+03  0.17300000000E+03 0.  1.
         -6    1    1    2    0  503 -0.92266666081E+01 -0.28775604455E+00 -0.78579516371E+03  0.80466654801E+03  0.17300000000E+03 0.  1.
<mgrwt>
<rscale>  2 0.17324611E+03</rscale>
<asrwt>0</asrwt>
<pdfrwt beam="1">  1       21 0.55685700E-02 0.17324611E+03</pdfrwt>
<pdfrwt beam="2">  1       21 0.16548192E+00 0.17324611E+03</pdfrwt>
<totfact> 0.52048190E+04</totfact>
</mgrwt>
</event>
<event>
 4    1  0.4439578E+000  0.2986347E+03  0.7546771E-02  0.1085925E+00
         21   -1    0    0  501  502  0.00000000000E+00  0.00000000000E+00  0.32749008603E+03  0.32749008603E+03  0.00000000000E+00 0. -1.
         21   -1    0    0  502  503 -0.00000000000E+00 -0.00000000000E+00 -0.50416619482E+03  0.50416619482E+03  0.00000000000E+00 0.  1.
          6    1    1    2  501    0 -0.27187722202E+02 -0.24189775946E+03  0.19364648066E+03  0.35592366842E+03  0.17300000000E+03 0. -1.
         -6    1    1    2    0  503  0.27187722202E+02  0.24189775946E+03 -0.37032258945E+03  0.47573261243E+03  0.17300000000E+03 0.  1.
<mgrwt>
<rscale>  2 0.29863472E+03</rscale>
<asrwt>0</asrwt>
<pdfrwt beam="1">  1       21 0.50383090E-01 0.29863472E+03</pdfrwt>
<pdfrwt beam="2">  1       21 0.77564030E-01 0.29863472E+03</pdfrwt>
<totfact> 0.51714226E+03</totfact>
</mgrwt>
</event>
<event>
 4    1  0.4439578E+000  0.2180170E+03  0.7546771E-02  0.1135370E+00
         21   -1    0    0  503  502  0.00000000000E+00  0.00000000000E+00  0.58450086111E+03  0.58450086111E+03  0.00000000000E+00 0. -1.
         21   -1    0    0  501  503 -0.00000000000E+00 -0.00000000000E+00 -0.87914763302E+02  0.87914763302E+02  0.00000000000E+00 0.  1.
          6    1    1    2  501    0  0.81374557905E+02  0.10478829856E+03  0.15620824156E+03  0.26820220156E+03  0.17300000000E+03 0. -1.
         -6    1    1    2    0  502 -0.81374557905E+02 -0.10478829856E+03  0.34037785626E+03  0.40421342286E+03  0.17300000000E+03 0.  1.
<mgrwt>
<rscale>  2 0.21801699E+03</rscale>
<asrwt>0</asrwt>
<pdfrwt beam="1">  1       21 0.89923207E-01 0.21801699E+03</pdfrwt>
<pdfrwt beam="2">  1       21 0.13525349E-01 0.21801699E+03</pdfrwt>
<totfact> 0.49196747E+04</totfact>
</mgrwt>
</event>
<event>
 4    1  0.4439578E+000  0.2059845E+03  0.7546771E-02  0.1144786E+00
         21   -1    0    0  503  502  0.00000000000E+00  0.00000000000E+00  0.11872995712E+04  0.11872995712E+04  0.00000000000E+00 0.  1.
         21   -1    0    0  501  503 -0.00000000000E+00 -0.00000000000E+00 -0.40632480948E+02  0.40632480948E+02  0.00000000000E+00 0. -1.
          6    1    1    2  501    0 -0.87546309474E+02 -0.69543306949E+02  0.36020635542E+03  0.41494366645E+03  0.17300000000E+03 0. -1.
         -6    1    1    2    0  502  0.87546309474E+02  0.69543306949E+02  0.78646073484E+03  0.81298838570E+03  0.17300000000E+03 0.  1.
<mgrwt>
<rscale>  2 0.20598453E+03</rscale>
<asrwt>0</asrwt>
<pdfrwt beam="1">  1       21 0.18266145E+00 0.20598453E+03</pdfrwt>
<pdfrwt beam="2">  1       21 0.62511518E-02 0.20598453E+03</pdfrwt>
<totfact> 0.31798902E+04</totfact>
</mgrwt>
</event>
<event>
 4    1  0.4439578E+000  0.2455122E+03  0.7546771E-02  0.1116174E+00
         21   -1    0    0  501  502  0.00000000000E+00  0.00000000000E+00  0.27377062750E+03  0.27377062750E+03  0.00000000000E+00 0. -1.
         21   -1    0    0  502  503 -0.00000000000E+00 -0.00000000000E+00 -0.32891927319E+03  0.32891927319E+03  0.00000000000E+00 0.  1.
          6    1    1    2  501    0 -0.38878867942E+00 -0.17420409905E+03  0.14569888521E+03  0.28548972737E+03  0.17300000000E+03 0. -1.
         -6    1    1    2    0  503  0.38878867942E+00  0.17420409905E+03 -0.20084753091E+03  0.31720017332E+03  0.17300000000E+03 0. -1.
<mgrwt>
<rscale>  2 0.24551216E+03</rscale>
<asrwt>0</asrwt>
<pdfrwt beam="1">  1       21 0.42118558E-01 0.24551216E+03</pdfrwt>
<pdfrwt beam="2">  1       21 0.50602965E-01 0.24551216E+03</pdfrwt>
<totfact> 0.19580454E+04</totfact>
</mgrwt>
</event>
<event>
 4    1  0.4439578E+000  0.2277033E+03  0.7546771E-02  0.1128267E+00
         21   -1    0    0  501  502  0.00000000000E+00  0.00000000000E+00  0.34971062327E+03  0.34971062327E+03  0.00000000000E+00 0. -1.
         21   -1    0    0  502  503 -0.00000000000E+00 -0.00000000000E+00 -0.36799420044E+03  0.36799420044E+03  0.00000000000E+00 0.  1.
          6    1    1    2  501    0  0.11563758233E+03 -0.92453987975E+02  0.26815334756E+03  0.35178830019E+03  0.17300000000E+03 0. -1.
         -6    1    1    2    0  503 -0.11563758233E+03  0.92453987975E+02 -0.28643692473E+03  0.36591652352E+03  0.17300000000E+03 0.  1.
<mgrwt>
<rscale>  2 0.22770329E+03</rscale>
<asrwt>0</asrwt>
<pdfrwt beam="1">  1       21 0.53801634E-01 0.22770329E+03</pdfrwt>
<pdfrwt beam="2">  1       21 0.56614492E-01 0.22770329E+03</pdfrwt>
<totfact> 0.93658722E+03</totfact>
</mgrwt>
</event>
<event>
 4    1  0.4439578E+000  0.2122347E+03  0.7546771E-02  0.1139809E+00
         21   -1    0    0  501  502  0.00000000000E+00  0.00000000000E+00  0.16207895507E+04  0.16207895507E+04  0.00000000000E+00 0. -1.
         21   -1    0    0  502  503 -0.00000000000E+00 -0.00000000000E+00 -0.40398584216E+02  0.40398584216E+02  0.00000000000E+00 0. -1.
          6    1    1    2  501    0 -0.97073746493E+02 -0.75440272194E+02  0.32619361392E+03  0.38916040483E+03  0.17300000000E+03 0. -1.
         -6    1    1    2    0  503  0.97073746493E+02  0.75440272194E+02  0.12541973526E+04  0.12720277301E+04  0.17300000000E+03 0. -1.
<mgrwt>
<rscale>  2 0.21223465E+03</rscale>
<asrwt>0</asrwt>
<pdfrwt beam="1">  1       21 0.24935219E+00 0.21223465E+03</pdfrwt>
<pdfrwt beam="2">  1       21 0.62151680E-02 0.21223465E+03</pdfrwt>
<totfact> 0.12234098E+04</totfact>
</mgrwt>
</event>
<event>
 4    1  0.4439578E+000  0.2124062E+03  0.7546771E-02  0.1139675E+00
         21   -1    0    0  501  502  0.00000000000E+00  0.00000000000E+00  0.22200561489E+03  0.22200561489E+03  0.00000000000E+00 0. -1.
         21   -1    0    0  502  503 -0.00000000000E+00 -0.00000000000E+00 -0.32887462428E+03  0.32887462428E+03  0.00000000000E+00 0. -1.
          6    1    1    2  501    0 -0.10732968256E+03 -0.60561729588E+02  0.11681980664E+03  0.24241132620E+03  0.17300000000E+03 0. -1.
         -6    1    1    2    0  503  0.10732968256E+03  0.60561729588E+02 -0.22368881604E+03  0.30846891297E+03  0.17300000000E+03 0. -1.
<mgrwt>
<rscale>  2 0.21240618E+03</rscale>
<asrwt>0</asrwt>
<pdfrwt beam="1">  1       21 0.34154710E-01 0.21240618E+03</pdfrwt>
<pdfrwt beam="2">  1       21 0.50596096E-01 0.21240618E+03</pdfrwt>
<totfact> 0.30378906E+04</totfact>
</mgrwt>
</event>
<event>
 4    1  0.4439578E+000  0.2247143E+03  0.7546771E-02  0.1130416E+00
         21   -1    0    0  503  502  0.00000000000E+00  0.00000000000E+00  0.25663785488E+03  0.25663785488E+03  0.00000000000E+00 0.  1.
         21   -1    0    0  501  503 -0.00000000000E+00 -0.00000000000E+00 -0.22683601058E+03  0.22683601058E+03  0.00000000000E+00 0. -1.
          6    1    1    2  501    0 -0.14341215066E+03 -0.67447137344E+00 -0.73119787986E+02  0.23631124235E+03  0.17300000000E+03 0. -1.
         -6    1    1    2    0  502  0.14341215066E+03  0.67447137344E+00  0.10292163228E+03  0.24716262310E+03  0.17300000000E+03 0.  1.
<mgrwt>
<rscale>  2 0.22471426E+03</rscale>
<asrwt>0</asrwt>
<pdfrwt beam="1">  1       21 0.39482747E-01 0.22471426E+03</pdfrwt>
<pdfrwt beam="2">  1       21 0.34897848E-01 0.22471426E+03</pdfrwt>
<totfact> 0.48210604E+04</totfact>
</mgrwt>
</event>
<event>
 4    1  0.4439578E+000  0.2992185E+03  0.7546771E-02  0.1085632E+00
         21   -1    0    0  501  502  0.00000000000E+00  0.00000000000E+00  0.18005170962E+03  0.18005170962E+03  0.00000000000E+00 0. -1.
         21   -1    0    0  502  503 -0.00000000000E+00 -0.00000000000E+00 -0.78877912571E+03  0.78877912571E+03  0.00000000000E+00 0.  1.
          6    1    1    2  501    0  0.24411343098E+03  0.33669062330E+01 -0.98692478575E+01  0.29938120398E+03  0.17300000000E+03 0. -1.
         -6    1    1    2    0  503 -0.24411343098E+03 -0.33669062330E+01 -0.59885816824E+03  0.66944963134E+03  0.17300000000E+03 0.  1.
<mgrwt>
<rscale>  2 0.29921849E+03</rscale>
<asrwt>0</asrwt>
<pdfrwt beam="1">  1       21 0.27700263E-01 0.29921849E+03</pdfrwt>
<pdfrwt beam="2">  1       21 0.12135063E+00 0.29921849E+03</pdfrwt>
<totfact> 0.59676776E+03</totfact>
</mgrwt>
</event>
<event>
 4    1  0.4439578E+000  0.1968201E+03  0.7546771E-02  0.1152450E+00
         21   -1    0    0  503  502  0.00000000000E+00  0.00000000000E+00  0.21952191845E+04  0.21952191845E+04  0.00000000000E+00 0. -1.
         21   -1    0    0  501  503 -0.00000000000E+00 -0.00000000000E+00 -0.18981293110E+02  0.18981293110E+02  0.00000000000E+00 0. -1.
          6    1    1    2  501    0  0.13612786102E+02  0.92864729332E+02  0.13816904767E+04  0.13956384701E+04  0.17300000000E+03 0. -1.
         -6    1    1    2    0  502 -0.13612786102E+02 -0.92864729332E+02  0.79454741468E+03  0.81856200747E+03  0.17300000000E+03 0. -1.
<mgrwt>
<rscale>  2 0.19682014E+03</rscale>
<asrwt>0</asrwt>
<pdfrwt beam="1">  1       21 0.33772583E+00 0.19682014E+03</pdfrwt>
<pdfrwt beam="2">  1       21 0.29202007E-02 0.19682014E+03</pdfrwt>
<totfact> 0.13594394E+04</totfact>
</mgrwt>
</event>
<event>
 4    1  0.4439578E+000  0.1850454E+03  0.7546771E-02  0.1163008E+00
         21   -1    0    0  503  502  0.00000000000E+00  0.00000000000E+00  0.19022823156E+03  0.19022823156E+03  0.00000000000E+00 0. -1.
         21   -1    0    0  501  503 -0.00000000000E+00 -0.00000000000E+00 -0.22797953553E+03  0.22797953553E+03  0.00000000000E+00 0. -1.
          6    1    1    2  501    0  0.22058377409E+01 -0.65634852690E+02 -0.11479917148E+03  0.21776282828E+03  0.17300000000E+03 0. -1.
         -6    1    1    2    0  502 -0.22058377409E+01  0.65634852690E+02  0.77047867505E+02  0.20044493881E+03  0.17300000000E+03 0. -1.
<mgrwt>
<rscale>  2 0.18504540E+03</rscale>
<asrwt>0</asrwt>
<pdfrwt beam="1">  1       21 0.29265882E-01 0.18504540E+03</pdfrwt>
<pdfrwt beam="2">  1       21 0.35073775E-01 0.18504540E+03</pdfrwt>
<totfact> 0.87894238E+04</totfact>
</mgrwt>
</event>
<event>
 4    1  0.4439578E+000  0.1824290E+03  0.7546771E-02  0.1165473E+00
         21   -1    0    0  501  502  0.00000000000E+00  0.00000000000E+00  0.72553276421E+02  0.72553276421E+02  0.00000000000E+00 0. -1.
         21   -1    0    0  502  503 -0.00000000000E+00 -0.00000000000E+00 -0.48389467480E+03  0.48389467480E+03  0.00000000000E+00 0. -1.
          6    1    1    2  501    0 -0.57889737698E+02  0.34467721540E+00 -0.14218800115E+03  0.23129584563E+03  0.17300000000E+03 0. -1.
         -6    1    1    2    0  503  0.57889737698E+02 -0.34467721540E+00 -0.26915339724E+03  0.32515210560E+03  0.17300000000E+03 0. -1.
<mgrwt>
<rscale>  2 0.18242900E+03</rscale>
<asrwt>0</asrwt>
<pdfrwt beam="1">  1       21 0.11162042E-01 0.18242900E+03</pdfrwt>
<pdfrwt beam="2">  1       21 0.74445336E-01 0.18242900E+03</pdfrwt>
<totfact> 0.10835651E+05</totfact>
</mgrwt>
</event>
<event>
 4    1  0.4439578E+000  0.1776504E+03  0.7546771E-02  0.1170097E+00
         21   -1    0    0  503  502  0.00000000000E+00  0.00000000000E+00  0.72010728408E+03  0.72010728408E+03  0.00000000000E+00 0.  1.
         21   -1    0    0  501  503 -0.00000000000E+00 -0.00000000000E+00 -0.60005124790E+02  0.60005124790E+02  0.00000000000E+00 0.  1.
          6    1    1    2  501    0  0.18748759498E+02 -0.35765332576E+02  0.12751340823E+03  0.21867634594E+03  0.17300000000E+03 0. -1.
         -6    1    1    2    0  502 -0.18748759498E+02  0.35765332576E+02  0.53258875106E+03  0.56143606293E+03  0.17300000000E+03 0. -1.
<mgrwt>
<rscale>  2 0.17765043E+03</rscale>
<asrwt>0</asrwt>
<pdfrwt beam="1">  1       21 0.11078573E+00 0.17765043E+03</pdfrwt>
<pdfrwt beam="2">  1       21 0.92315582E-02 0.17765043E+03</pdfrwt>
<totfact> 0.60412037E+04</totfact>
</mgrwt>
</event>
<event>
 4    1  0.4439578E+000  0.2308105E+03  0.7546771E-02  0.1126071E+00
         21   -1    0    0  501  502  0.00000000000E+00  0.00000000000E+00  0.54267461741E+02  0.54267461741E+02  0.00000000000E+00 0. -1.
         21   -1    0    0  502  503 -0.00000000000E+00 -0.00000000000E+00 -0.11583456862E+04  0.11583456862E+04  0.00000000000E+00 0.  1.
          6    1    1    2  501    0  0.41971016740E+01  0.15273140325E+03 -0.31525944344E+03  0.39071986624E+03  0.17300000000E+03 0. -1.
         -6    1    1    2    0  503 -0.41971016740E+01 -0.15273140325E+03 -0.78881878104E+03  0.82189328172E+03  0.17300000000E+03 0.  1.
<mgrwt>
<rscale>  2 0.23081052E+03</rscale>
<asrwt>0</asrwt>
<pdfrwt beam="1">  1       21 0.83488404E-02 0.23081052E+03</pdfrwt>
<pdfrwt beam="2">  1       21 0.17820703E+00 0.23081052E+03</pdfrwt>
<totfact> 0.20316122E+04</totfact>
</mgrwt>
</event>
<event>
 4    1  0.4439578E+000  0.2232170E+03  0.7546771E-02  0.1131507E+00
         21   -1    0    0  501  502  0.00000000000E+00  0.00000000000E+00  0.28706613387E+03  0.28706613387E+03  0.00000000000E+00 0.  1.
         21   -1    0    0  502  503 -0.00000000000E+00 -0.00000000000E+00 -0.18674658268E+03  0.18674658268E+03  0.00000000000E+00 0. -1.
          6    1    1    2  501    0  0.80776755136E+02 -0.11563705237E+03  0.11309104946E+03  0.25023068860E+03  0.17300000000E+03 0.  1.
         -6    1    1    2    0  503 -0.80776755136E+02  0.11563705237E+03 -0.12771498268E+02  0.22358202794E+03  0.17300000000E+03 0. -1.
<mgrwt>
<rscale>  2 0.22321696E+03</rscale>
<asrwt>0</asrwt>
<pdfrwt beam="1">  1       21 0.44164021E-01 0.22321696E+03</pdfrwt>
<pdfrwt beam="2">  1       21 0.28730243E-01 0.22321696E+03</pdfrwt>
<totfact> 0.56287937E+04</totfact>
</mgrwt>
</event>
<event>
 4    1  0.4439578E+000  0.2008644E+03  0.7546771E-02  0.1149012E+00
         21   -1    0    0  501  502  0.00000000000E+00  0.00000000000E+00  0.81714869043E+02  0.81714869043E+02  0.00000000000E+00 0.  1.
         21   -1    0    0  502  503 -0.00000000000E+00 -0.00000000000E+00 -0.73974264981E+03  0.73974264981E+03  0.00000000000E+00 0.  1.
          6    1    1    2  501    0  0.51339442149E+01  0.10193695695E+03 -0.92161275929E+02  0.22099819311E+03  0.17300000000E+03 0.  1.
         -6    1    1    2    0  503 -0.51339442149E+01 -0.10193695695E+03 -0.56586650484E+03  0.60045932575E+03  0.17300000000E+03 0.  1.
<mgrwt>
<rscale>  2 0.20086438E+03</rscale>
<asrwt>0</asrwt>
<pdfrwt beam="1">  1       21 0.12571518E-01 0.20086438E+03</pdfrwt>
<pdfrwt beam="2">  1       21 0.11380656E+00 0.20086438E+03</pdfrwt>
<totfact> 0.32311787E+04</totfact>
</mgrwt>
</event>
<event>
 4    1  0.4439578E+000  0.2375311E+03  0.7546771E-02  0.1121449E+00
         21   -1    0    0  503  502  0.00000000000E+00  0.00000000000E+00  0.70887886569E+03  0.70887886569E+03  0.00000000000E+00 0.  1.
         21   -1    0    0  501  503 -0.00000000000E+00 -0.00000000000E+00 -0.22196887572E+03  0.22196887572E+03  0.00000000000E+00 0.  1.
          6    1    1    2  501    0 -0.15820204907E+03 -0.38263748811E+02 -0.12929918504E+03  0.27044275190E+03  0.17300000000E+03 0.  1.
         -6    1    1    2    0  502  0.15820204907E+03  0.38263748811E+02  0.61620917501E+03  0.66040498951E+03  0.17300000000E+03 0.  1.
<mgrwt>
<rscale>  2 0.23753106E+03</rscale>
<asrwt>0</asrwt>
<pdfrwt beam="1">  1       21 0.10905829E+00 0.23753106E+03</pdfrwt>
<pdfrwt beam="2">  1       21 0.34149058E-01 0.23753106E+03</pdfrwt>
<totfact> 0.53313993E+03</totfact>
</mgrwt>
</event>
<event>
 4    1  0.4439578E+000  0.1874348E+03  0.7546771E-02  0.1160796E+00
         21   -1    0    0  501  502  0.00000000000E+00  0.00000000000E+00  0.98695871425E+02  0.98695871425E+02  0.00000000000E+00 0. -1.
         21   -1    0    0  502  503 -0.00000000000E+00 -0.00000000000E+00 -0.35600955843E+03  0.35600955843E+03  0.00000000000E+00 0. -1.
          6    1    1    2  501    0  0.64651977315E+02  0.31983029328E+02 -0.12597714349E+03  0.22583629694E+03  0.17300000000E+03 0. -1.
         -6    1    1    2    0  503 -0.64651977315E+02 -0.31983029328E+02 -0.13133654351E+03  0.22886913291E+03  0.17300000000E+03 0. -1.
<mgrwt>
<rscale>  2 0.18743477E+03</rscale>
<asrwt>0</asrwt>
<pdfrwt beam="1">  1       21 0.15183980E-01 0.18743477E+03</pdfrwt>
<pdfrwt beam="2">  1       21 0.54770702E-01 0.18743477E+03</pdfrwt>
<totfact> 0.12095904E+05</totfact>
</mgrwt>
</event>
<event>
 4    1  0.4439578E+000  0.1898334E+03  0.7546771E-02  0.1158612E+00
         21   -1    0    0  503  502  0.00000000000E+00  0.00000000000E+00  0.18660368802E+03  0.18660368802E+03  0.00000000000E+00 0. -1.
         21   -1    0    0  501  503 -0.00000000000E+00 -0.00000000000E+00 -0.19356311490E+03  0.19356311490E+03  0.00000000000E+00 0. -1.
          6    1    1    2  501    0  0.29921082375E+02  0.72197417648E+02 -0.12583591399E+02  0.19025005929E+03  0.17300000000E+03 0. -1.
         -6    1    1    2    0  502 -0.29921082375E+02 -0.72197417648E+02  0.56241645270E+01  0.18991674363E+03  0.17300000000E+03 0. -1.
<mgrwt>
<rscale>  2 0.18983345E+03</rscale>
<asrwt>0</asrwt>
<pdfrwt beam="1">  1       21 0.28708260E-01 0.18983345E+03</pdfrwt>
<pdfrwt beam="2">  1       21 0.29778941E-01 0.18983345E+03</pdfrwt>
<totfact> 0.12561902E+05</totfact>
</mgrwt>
</event>
<event>
 4    1  0.4439578E+000  0.1942597E+03  0.7546771E-02  0.1154675E+00
         21   -1    0    0  501  502  0.00000000000E+00  0.00000000000E+00  0.20943195668E+03  0.20943195668E+03  0.00000000000E+00 0. -1.
         21   -1    0    0  502  503 -0.00000000000E+00 -0.00000000000E+00 -0.30454083187E+03  0.30454083187E+03  0.00000000000E+00 0. -1.
          6    1    1    2  501    0  0.30408404123E+02 -0.82964820820E+02  0.11666238620E+03  0.22659864273E+03  0.17300000000E+03 0. -1.
         -6    1    1    2    0  503 -0.30408404123E+02  0.82964820820E+02 -0.21177126139E+03  0.28737414582E+03  0.17300000000E+03 0. -1.
<mgrwt>
<rscale>  2 0.19425970E+03</rscale>
<asrwt>0</asrwt>
<pdfrwt beam="1">  1       21 0.32220301E-01 0.19425970E+03</pdfrwt>
<pdfrwt beam="2">  1       21 0.46852435E-01 0.19425970E+03</pdfrwt>
<totfact> 0.40379093E+04</totfact>
</mgrwt>
</event>
<event>
 4    1  0.4439578E+000  0.1795526E+03  0.7546771E-02  0.1168237E+00
         21   -1    0    0  501  502  0.00000000000E+00  0.00000000000E+00  0.73302130959E+02  0.73302130959E+02  0.00000000000E+00 0. -1.
         21   -1    0    0  502  503 -0.00000000000E+00 -0.00000000000E+00 -0.45096092359E+03  0.45096092359E+03  0.00000000000E+00 0. -1.
          6    1    1    2  501    0  0.26815596822E+02 -0.39888093678E+02 -0.14761283674E+03  0.23244071463E+03  0.17300000000E+03 0. -1.
         -6    1    1    2    0  503 -0.26815596822E+02  0.39888093678E+02 -0.23004595590E+03  0.29182233992E+03  0.17300000000E+03 0. -1.
<mgrwt>
<rscale>  2 0.17955260E+03</rscale>
<asrwt>0</asrwt>
<pdfrwt beam="1">  1       21 0.11277251E-01 0.17955260E+03</pdfrwt>
<pdfrwt beam="2">  1       21 0.69378606E-01 0.17955260E+03</pdfrwt>
<totfact> 0.12447860E+05</totfact>
</mgrwt>
</event>
<event>
 4    1  0.4439578E+000  0.2270830E+03  0.7546771E-02  0.1128710E+00
         21   -1    0    0  503  502  0.00000000000E+00  0.00000000000E+00  0.27842092758E+03  0.27842092758E+03  0.00000000000E+00 0.  1.
         21   -1    0    0  501  503 -0.00000000000E+00 -0.00000000000E+00 -0.18697054806E+03  0.18697054806E+03  0.00000000000E+00 0. -1.
          6    1    1    2  501    0 -0.43040251335E+02  0.14066000352E+03  0.68296995700E+02  0.23713114398E+03  0.17300000000E+03 0.  1.
         -6    1    1    2    0  502  0.43040251335E+02 -0.14066000352E+03  0.23153383825E+02  0.22826033166E+03  0.17300000000E+03 0. -1.
<mgrwt>
<rscale>  2 0.22708302E+03</rscale>
<asrwt>0</asrwt>
<pdfrwt beam="1">  1       21 0.42833989E-01 0.22708302E+03</pdfrwt>
<pdfrwt beam="2">  1       21 0.28764700E-01 0.22708302E+03</pdfrwt>
<totfact> 0.59695447E+04</totfact>
</mgrwt>
</event>
<event>
 4    1  0.4439578E+000  0.2313745E+03  0.7546771E-02  0.1125676E+00
         21   -1    0    0  503  502  0.00000000000E+00  0.00000000000E+00  0.94092979227E+03  0.94092979227E+03  0.00000000000E+00 0.  1.
         21   -1    0    0  501  503 -0.00000000000E+00 -0.00000000000E+00 -0.58942417787E+02  0.58942417787E+02  0.00000000000E+00 0.  1.
          6    1    1    2  501    0 -0.99677328505E+02 -0.11691706810E+03  0.34781702795E+03  0.41774496474E+03  0.17300000000E+03 0.  1.
         -6    1    1    2    0  502  0.99677328505E+02  0.11691706810E+03  0.53417034653E+03  0.58212724532E+03  0.17300000000E+03 0.  1.
<mgrwt>
<rscale>  2 0.23137452E+03</rscale>
<asrwt>0</asrwt>
<pdfrwt beam="1">  1       21 0.14475842E+00 0.23137452E+03</pdfrwt>
<pdfrwt beam="2">  1       21 0.90680649E-02 0.23137452E+03</pdfrwt>
<totfact> 0.30919846E+04</totfact>
</mgrwt>
</event>
<event>
 4    1  0.4439578E+000  0.1925333E+03  0.7546771E-02  0.1156196E+00
         21   -1    0    0  501  502  0.00000000000E+00  0.00000000000E+00  0.40472346291E+02  0.40472346291E+02  0.00000000000E+00 0.  1.
         21   -1    0    0  502  503 -0.00000000000E+00 -0.00000000000E+00 -0.11144787877E+04  0.11144787877E+04  0.00000000000E+00 0.  1.
          6    1    1    2  501    0  0.61117558129E+02  0.58349960369E+02 -0.29324912025E+03  0.35080496050E+03  0.17300000000E+03 0.  1.
         -6    1    1    2    0  503 -0.61117558129E+02 -0.58349960369E+02 -0.78075732111E+03  0.80414617344E+03  0.17300000000E+03 0.  1.
<mgrwt>
<rscale>  2 0.19253331E+03</rscale>
<asrwt>0</asrwt>
<pdfrwt beam="1">  1       21 0.62265157E-02 0.19253331E+03</pdfrwt>
<pdfrwt beam="2">  1       21 0.17145825E+00 0.19253331E+03</pdfrwt>
<totfact> 0.38571089E+04</totfact>
</mgrwt>
</event>
<event>
 4    1  0.4439578E+000  0.2240808E+03  0.7546771E-02  0.1130877E+00
         21   -1    0    0  501  502  0.00000000000E+00  0.00000000000E+00  0.16974176672E+04  0.16974176672E+04  0.00000000000E+00 0. -1.
         21   -1    0    0  502  503 -0.00000000000E+00 -0.00000000000E+00 -0.11505036105E+03  0.11505036105E+03  0.00000000000E+00 0. -1.
          6    1    1    2  501    0 -0.13568913604E+03 -0.43262706012E+02  0.15722721828E+04  0.15881599480E+04  0.17300000000E+03 0. -1.
         -6    1    1    2    0  503  0.13568913604E+03  0.43262706012E+02  0.10095123318E+02  0.22430808029E+03  0.17300000000E+03 0. -1.
<mgrwt>
<rscale>  2 0.22408080E+03</rscale>
<asrwt>0</asrwt>
<pdfrwt beam="1">  1       21 0.26114116E+00 0.22408080E+03</pdfrwt>
<pdfrwt beam="2">  1       21 0.17700057E-01 0.22408080E+03</pdfrwt>
<totfact> 0.15994806E+03</totfact>
</mgrwt>
</event>
<event>
 4    1  0.4439578E+000  0.1748067E+03  0.7546771E-02  0.1172926E+00
         21   -1    0    0  501  502  0.00000000000E+00  0.00000000000E+00  0.14389213656E+03  0.14389213656E+03  0.00000000000E+00 0.  1.
         21   -1    0    0  502  503 -0.00000000000E+00 -0.00000000000E+00 -0.26591182918E+03  0.26591182918E+03  0.00000000000E+00 0.  1.
          6    1    1    2  501    0 -0.98518026942E+01 -0.23050700400E+02  0.30940117169E+02  0.17752375519E+03  0.17300000000E+03 0.  1.
         -6    1    1    2    0  503  0.98518026942E+01  0.23050700400E+02 -0.15295980979E+03  0.23228021056E+03  0.17300000000E+03 0.  1.
<mgrwt>
<rscale>  2 0.17480673E+03</rscale>
<asrwt>0</asrwt>
<pdfrwt beam="1">  1       21 0.22137252E-01 0.17480673E+03</pdfrwt>
<pdfrwt beam="2">  1       21 0.40909512E-01 0.17480673E+03</pdfrwt>
<totfact> 0.11052688E+05</totfact>
</mgrwt>
</event>
<event>
 4    1  0.4439578E+000  0.1894185E+03  0.7546771E-02  0.1158987E+00
         21   -1    0    0  501  502  0.00000000000E+00  0.00000000000E+00  0.42227157790E+02  0.42227157790E+02  0.00000000000E+00 0. -1.
         21   -1    0    0  502  503 -0.00000000000E+00 -0.00000000000E+00 -0.10474935744E+04  0.10474935744E+04  0.00000000000E+00 0. -1.
          6    1    1    2  501    0 -0.16609782943E+02 -0.75329140220E+02 -0.26585432664E+03  0.32643205610E+03  0.17300000000E+03 0. -1.
         -6    1    1    2    0  503  0.16609782943E+02  0.75329140220E+02 -0.73941208995E+03  0.76328867607E+03  0.17300000000E+03 0. -1.
<mgrwt>
<rscale>  2 0.18941849E+03</rscale>
<asrwt>0</asrwt>
<pdfrwt beam="1">  1       21 0.64964859E-02 0.18941849E+03</pdfrwt>
<pdfrwt beam="2">  1       21 0.16115286E+00 0.18941849E+03</pdfrwt>
<totfact> 0.42551099E+04</totfact>
</mgrwt>
</event>
<event>
 4    1  0.4439578E+000  0.1923891E+03  0.7546771E-02  0.1156324E+00
         21   -1    0    0  501  502  0.00000000000E+00  0.00000000000E+00  0.28991596654E+04  0.28991596654E+04  0.00000000000E+00 0.  1.
         21   -1    0    0  502  503 -0.00000000000E+00 -0.00000000000E+00 -0.22722943096E+02  0.22722943096E+02  0.00000000000E+00 0.  1.
          6    1    1    2  501    0  0.71712170639E+02  0.44067536404E+02  0.24052520230E+04  0.24129340806E+04  0.17300000000E+03 0.  1.
         -6    1    1    2    0  503 -0.71712170639E+02 -0.44067536404E+02  0.47118469924E+03  0.50894852783E+03  0.17300000000E+03 0.  1.
<mgrwt>
<rscale>  2 0.19238915E+03</rscale>
<asrwt>0</asrwt>
<pdfrwt beam="1">  1       21 0.44602427E+00 0.19238915E+03</pdfrwt>
<pdfrwt beam="2">  1       21 0.34958397E-02 0.19238915E+03</pdfrwt>
<totfact> 0.21700783E+03</totfact>
</mgrwt>
</event>
<event>
 4    1  0.4439578E+000  0.1858720E+03  0.7546771E-02  0.1162238E+00
         21   -1    0    0  501  502  0.00000000000E+00  0.00000000000E+00  0.73074770537E+02  0.73074770537E+02  0.00000000000E+00 0.  1.
         21   -1    0    0  502  503 -0.00000000000E+00 -0.00000000000E+00 -0.49777938185E+03  0.49777938185E+03  0.00000000000E+00 0.  1.
          6    1    1    2  501    0 -0.61274459865E+02 -0.29408433961E+02 -0.14838965618E+03  0.23784008384E+03  0.17300000000E+03 0. -1.
         -6    1    1    2    0  503  0.61274459865E+02  0.29408433961E+02 -0.27631495514E+03  0.33301406855E+03  0.17300000000E+03 0. -1.
<mgrwt>
<rscale>  2 0.18587204E+03</rscale>
<asrwt>0</asrwt>
<pdfrwt beam="1">  1       21 0.11242272E-01 0.18587204E+03</pdfrwt>
<pdfrwt beam="2">  1       21 0.76581444E-01 0.18587204E+03</pdfrwt>
<totfact> 0.10030363E+05</totfact>
</mgrwt>
</event>
<event>
 4    1  0.4439578E+000  0.1854434E+03  0.7546771E-02  0.1162636E+00
         21   -1    0    0  501  502  0.00000000000E+00  0.00000000000E+00  0.23773572423E+03  0.23773572423E+03  0.00000000000E+00 0. -1.
         21   -1    0    0  502  503 -0.00000000000E+00 -0.00000000000E+00 -0.15139554520E+03  0.15139554520E+03  0.00000000000E+00 0. -1.
          6    1    1    2  501    0  0.44315727083E+02 -0.49963662718E+02  0.84229493537E+02  0.20367586710E+03  0.17300000000E+03 0. -1.
         -6    1    1    2    0  503 -0.44315727083E+02  0.49963662718E+02  0.21106854883E+01  0.18545540233E+03  0.17300000000E+03 0. -1.
<mgrwt>
<rscale>  2 0.18544339E+03</rscale>
<asrwt>0</asrwt>
<pdfrwt beam="1">  1       21 0.36574727E-01 0.18544339E+03</pdfrwt>
<pdfrwt beam="2">  1       21 0.23291622E-01 0.18544339E+03</pdfrwt>
<totfact> 0.12524882E+05</totfact>
</mgrwt>
</event>
<event>
 4    1  0.4439578E+000  0.2583686E+03  0.7546771E-02  0.1108127E+00
         21   -1    0    0  501  502  0.00000000000E+00  0.00000000000E+00  0.20648290376E+04  0.20648290376E+04  0.00000000000E+00 0.  1.
         21   -1    0    0  502  503 -0.00000000000E+00 -0.00000000000E+00 -0.32329390461E+02  0.32329390461E+02  0.00000000000E+00 0. -1.
          6    1    1    2  501    0  0.97472908984E+02 -0.16530088378E+03  0.10185241031E+04  0.10507833739E+04  0.17300000000E+03 0.  1.
         -6    1    1    2    0  503 -0.97472908984E+02  0.16530088378E+03  0.10139755440E+04  0.10463750542E+04  0.17300000000E+03 0.  1.
<mgrwt>
<rscale>  2 0.25836863E+03</rscale>
<asrwt>0</asrwt>
<pdfrwt beam="1">  1       21 0.31766590E+00 0.25836863E+03</pdfrwt>
<pdfrwt beam="2">  1       21 0.49737540E-02 0.25836863E+03</pdfrwt>
<totfact> 0.68586954E+03</totfact>
</mgrwt>
</event>
<event>
 4    1  0.4439578E+000  0.2195974E+03  0.7546771E-02  0.1134184E+00
         21   -1    0    0  503  502  0.00000000000E+00  0.00000000000E+00  0.47164312850E+03  0.47164312850E+03  0.00000000000E+00 0. -1.
         21   -1    0    0  501  503 -0.00000000000E+00 -0.00000000000E+00 -0.19717630350E+03  0.19717630350E+03  0.00000000000E+00 0. -1.
          6    1    1    2  501    0 -0.11835169335E+03  0.65474401347E+02  0.36927022171E+03  0.42963183913E+03  0.17300000000E+03 0. -1.
         -6    1    1    2    0  502  0.11835169335E+03 -0.65474401347E+02 -0.94803396717E+02  0.23918759286E+03  0.17300000000E+03 0. -1.
<mgrwt>
<rscale>  2 0.21959741E+03</rscale>
<asrwt>0</asrwt>
<pdfrwt beam="1">  1       21 0.72560481E-01 0.21959741E+03</pdfrwt>
<pdfrwt beam="2">  1       21 0.30334816E-01 0.21959741E+03</pdfrwt>
<totfact> 0.17558472E+04</totfact>
</mgrwt>
</event>
<event>
 4    1  0.4439578E+000  0.4243855E+03  0.7546771E-02  0.1035648E+00
         21   -1    0    0  503  502  0.00000000000E+00  0.00000000000E+00  0.44011593061E+03  0.44011593061E+03  0.00000000000E+00 0.  1.
         21   -1    0    0  501  503 -0.00000000000E+00 -0.00000000000E+00 -0.41303103050E+03  0.41303103050E+03  0.00000000000E+00 0.  1.
          6    1    1    2  501    0  0.38741883397E+03  0.89816861504E+01 -0.27447868296E+02  0.42527215883E+03  0.17300000000E+03 0.  1.
         -6    1    1    2    0  502 -0.38741883397E+03 -0.89816861504E+01  0.54532768406E+02  0.42787480228E+03  0.17300000000E+03 0.  1.
<mgrwt>
<rscale>  2 0.42438547E+03</rscale>
<asrwt>0</asrwt>
<pdfrwt beam="1">  1       21 0.67710143E-01 0.42438547E+03</pdfrwt>
<pdfrwt beam="2">  1       21 0.63543235E-01 0.42438547E+03</pdfrwt>
<totfact> 0.40344132E+03</totfact>
</mgrwt>
</event>
<event>
 4    1  0.4439578E+000  0.1829543E+03  0.7546771E-02  0.1164974E+00
         21   -1    0    0  503  502  0.00000000000E+00  0.00000000000E+00  0.14865318755E+04  0.14865318755E+04  0.00000000000E+00 0.  1.
         21   -1    0    0  501  503 -0.00000000000E+00 -0.00000000000E+00 -0.31627028321E+02  0.31627028321E+02  0.00000000000E+00 0.  1.
          6    1    1    2  501    0 -0.27306087448E+00  0.59524826601E+02  0.32005597118E+03  0.36865716354E+03  0.17300000000E+03 0.  1.
         -6    1    1    2    0  502  0.27306087448E+00 -0.59524826601E+02  0.11348488760E+04  0.11495017403E+04  0.17300000000E+03 0.  1.
<mgrwt>
<rscale>  2 0.18295431E+03</rscale>
<asrwt>0</asrwt>
<pdfrwt beam="1">  1       21 0.22869716E+00 0.18295431E+03</pdfrwt>
<pdfrwt beam="2">  1       21 0.48656978E-02 0.18295431E+03</pdfrwt>
<totfact> 0.25282662E+04</totfact>
</mgrwt>
</event>
<event>
 4    1  0.4439578E+000  0.1957095E+03  0.7546771E-02  0.1153410E+00
         21   -1    0    0  501  502  0.00000000000E+00  0.00000000000E+00  0.46347726905E+03  0.46347726905E+03  0.00000000000E+00 0.  1.
         21   -1    0    0  502  503 -0.00000000000E+00 -0.00000000000E+00 -0.83259961891E+02  0.83259961891E+02  0.00000000000E+00 0. -1.
          6    1    1    2  501    0 -0.81644512346E+02 -0.41320538299E+02  0.16653801394E+03  0.25697689268E+03  0.17300000000E+03 0. -1.
         -6    1    1    2    0  503  0.81644512346E+02  0.41320538299E+02  0.21367929321E+03  0.28976033826E+03  0.17300000000E+03 0.  1.
<mgrwt>
<rscale>  2 0.19570951E+03</rscale>
<asrwt>0</asrwt>
<pdfrwt beam="1">  1       21 0.71304194E-01 0.19570951E+03</pdfrwt>
<pdfrwt beam="2">  1       21 0.12809225E-01 0.19570951E+03</pdfrwt>
<totfact> 0.92743373E+04</totfact>
</mgrwt>
</event>
<event>
 4    1  0.4439578E+000  0.2392258E+03  0.7546771E-02  0.1120310E+00
         21   -1    0    0  503  502  0.00000000000E+00  0.00000000000E+00  0.72774481191E+02  0.72774481191E+02  0.00000000000E+00 0.  1.
         21   -1    0    0  501  503 -0.00000000000E+00 -0.00000000000E+00 -0.78777036605E+03  0.78777036605E+03  0.00000000000E+00 0. -1.
          6    1    1    2  501    0 -0.11370533815E+03  0.11987936521E+03 -0.33947264700E+03  0.41529585140E+03  0.17300000000E+03 0. -1.
         -6    1    1    2    0  502  0.11370533815E+03 -0.11987936521E+03 -0.37552323786E+03  0.44524899584E+03  0.17300000000E+03 0.  1.
<mgrwt>
<rscale>  2 0.23922576E+03</rscale>
<asrwt>0</asrwt>
<pdfrwt beam="1">  1       21 0.11196074E-01 0.23922576E+03</pdfrwt>
<pdfrwt beam="2">  1       21 0.12119544E+00 0.23922576E+03</pdfrwt>
<totfact> 0.33370064E+04</totfact>
</mgrwt>
</event>
<event>
 4    1  0.4439578E+000  0.3159007E+03  0.7546771E-02  0.1077552E+00
         21   -1    0    0  501  502  0.00000000000E+00  0.00000000000E+00  0.17099231761E+03  0.17099231761E+03  0.00000000000E+00 0.  1.
         21   -1    0    0  502  503 -0.00000000000E+00 -0.00000000000E+00 -0.78492772442E+03  0.78492772442E+03  0.00000000000E+00 0. -1.
          6    1    1    2  501    0  0.18359647092E+03 -0.19014891806E+03 -0.64912226910E+02  0.32250096493E+03  0.17300000000E+03 0. -1.
         -6    1    1    2    0  503 -0.18359647092E+03  0.19014891806E+03 -0.54902317990E+03  0.63341907711E+03  0.17300000000E+03 0.  1.
<mgrwt>
<rscale>  2 0.31590074E+03</rscale>
<asrwt>0</asrwt>
<pdfrwt beam="1">  1       21 0.26306510E-01 0.31590074E+03</pdfrwt>
<pdfrwt beam="2">  1       21 0.12075811E+00 0.31590074E+03</pdfrwt>
<totfact> 0.66255097E+03</totfact>
</mgrwt>
</event>
<event>
 4    1  0.4439578E+000  0.1732015E+03  0.7546771E-02  0.1174550E+00
         21   -1    0    0  501  502  0.00000000000E+00  0.00000000000E+00  0.19569028573E+03  0.19569028573E+03  0.00000000000E+00 0. -1.
         21   -1    0    0  502  503 -0.00000000000E+00 -0.00000000000E+00 -0.15655712576E+03  0.15655712576E+03  0.00000000000E+00 0. -1.
          6    1    1    2  501    0 -0.64596590795E+01 -0.52958440436E+01 -0.58481295619E+01  0.17330024172E+03  0.17300000000E+03 0.  1.
         -6    1    1    2    0  503  0.64596590795E+01  0.52958440436E+01  0.44981289533E+02  0.17894716977E+03  0.17300000000E+03 0.  1.
<mgrwt>
<rscale>  2 0.17320154E+03</rscale>
<asrwt>0</asrwt>
<pdfrwt beam="1">  1       21 0.30106198E-01 0.17320154E+03</pdfrwt>
<pdfrwt beam="2">  1       21 0.24085712E-01 0.17320154E+03</pdfrwt>
<totfact> 0.17311771E+05</totfact>
</mgrwt>
</event>
<event>
 4    1  0.4439578E+000  0.1744585E+03  0.7546771E-02  0.1173277E+00
         21   -1    0    0  503  502  0.00000000000E+00  0.00000000000E+00  0.29277602236E+03  0.29277602236E+03  0.00000000000E+00 0.  1.
         21   -1    0    0  501  503 -0.00000000000E+00 -0.00000000000E+00 -0.45938640171E+03  0.45938640171E+03  0.00000000000E+00 0.  1.
          6    1    1    2  501    0 -0.22504260248E+02  0.56147093027E+00 -0.41410861398E+03  0.44935698632E+03  0.17300000000E+03 0.  1.
         -6    1    1    2    0  502  0.22504260248E+02 -0.56147093027E+00  0.24749823463E+03  0.30280543774E+03  0.17300000000E+03 0.  1.
<mgrwt>
<rscale>  2 0.17445847E+03</rscale>
<asrwt>0</asrwt>
<pdfrwt beam="1">  1       21 0.45042465E-01 0.17445847E+03</pdfrwt>
<pdfrwt beam="2">  1       21 0.70674831E-01 0.17445847E+03</pdfrwt>
<totfact> 0.86935811E+03</totfact>
</mgrwt>
</event>
<event>
 4    1  0.4439578E+000  0.1828132E+03  0.7546771E-02  0.1165108E+00
         21   -1    0    0  503  502  0.00000000000E+00  0.00000000000E+00  0.38743883785E+03  0.38743883785E+03  0.00000000000E+00 0.  1.
         21   -1    0    0  501  503 -0.00000000000E+00 -0.00000000000E+00 -0.23959000941E+03  0.23959000941E+03  0.00000000000E+00 0.  1.
          6    1    1    2  501    0  0.49135057539E+02 -0.32824060820E+02 -0.17688049235E+03  0.25437645611E+03  0.17300000000E+03 0.  1.
         -6    1    1    2    0  502 -0.49135057539E+02  0.32824060820E+02  0.32472932080E+03  0.37265239115E+03  0.17300000000E+03 0.  1.
<mgrwt>
<rscale>  2 0.18281322E+03</rscale>
<asrwt>0</asrwt>
<pdfrwt beam="1">  1       21 0.59605975E-01 0.18281322E+03</pdfrwt>
<pdfrwt beam="2">  1       21 0.36860001E-01 0.18281322E+03</pdfrwt>
<totfact> 0.18766491E+04</totfact>
</mgrwt>
</event>
<event>
 4    1  0.4439578E+000  0.2324975E+03  0.7546771E-02  0.1124894E+00
         21   -1    0    0  503  502  0.00000000000E+00  0.00000000000E+00  0.81578895996E+03  0.81578895996E+03  0.00000000000E+00 0. -1.
         21   -1    0    0  501  503 -0.00000000000E+00 -0.00000000000E+00 -0.10819894238E+03  0.10819894238E+03  0.00000000000E+00 0. -1.
          6    1    1    2  501    0 -0.13974527140E+03 -0.67803575729E+02  0.66169185675E+02  0.24173007031E+03  0.17300000000E+03 0. -1.
         -6    1    1    2    0  502  0.13974527140E+03  0.67803575729E+02  0.64142083190E+03  0.68225783203E+03  0.17300000000E+03 0. -1.
<mgrwt>
<rscale>  2 0.23249745E+03</rscale>
<asrwt>0</asrwt>
<pdfrwt beam="1">  1       21 0.12550599E+00 0.23249745E+03</pdfrwt>
<pdfrwt beam="2">  1       21 0.16645992E-01 0.23249745E+03</pdfrwt>
<totfact> 0.14926931E+04</totfact>
</mgrwt>
</event>
<event>
 4    1  0.4439578E+000  0.2824706E+03  0.7546771E-02  0.1094347E+00
         21   -1    0    0  503  502  0.00000000000E+00  0.00000000000E+00  0.28152632717E+03  0.28152632717E+03  0.00000000000E+00 0. -1.
         21   -1    0    0  501  503 -0.00000000000E+00 -0.00000000000E+00 -0.45468113147E+03  0.45468113147E+03  0.00000000000E+00 0. -1.
          6    1    1    2  501    0 -0.16888766600E+03 -0.14607391295E+03 -0.31249427993E+03  0.42123901381E+03  0.17300000000E+03 0. -1.
         -6    1    1    2    0  502  0.16888766600E+03  0.14607391295E+03  0.13933947563E+03  0.31496844483E+03  0.17300000000E+03 0. -1.
<mgrwt>
<rscale>  2 0.28247059E+03</rscale>
<asrwt>0</asrwt>
<pdfrwt beam="1">  1       21 0.43311743E-01 0.28247059E+03</pdfrwt>
<pdfrwt beam="2">  1       21 0.69950943E-01 0.28247059E+03</pdfrwt>
<totfact> 0.90156091E+03</totfact>
</mgrwt>
</event>
<event>
 4    1  0.4439578E+000  0.1834824E+03  0.7546771E-02  0.1164475E+00
         21   -1    0    0  501  502  0.00000000000E+00  0.00000000000E+00  0.20609986479E+03  0.20609986479E+03  0.00000000000E+00 0. -1.
         21   -1    0    0  502  503 -0.00000000000E+00 -0.00000000000E+00 -0.50059261174E+03  0.50059261174E+03  0.00000000000E+00 0. -1.
          6    1    1    2  501    0  0.47113657170E+02 -0.38950039201E+02  0.14277592107E+03  0.23248820590E+03  0.17300000000E+03 0. -1.
         -6    1    1    2    0  503 -0.47113657170E+02  0.38950039201E+02 -0.43726866803E+03  0.47420427063E+03  0.17300000000E+03 0. -1.
<mgrwt>
<rscale>  2 0.18348243E+03</rscale>
<asrwt>0</asrwt>
<pdfrwt beam="1">  1       21 0.31707672E-01 0.18348243E+03</pdfrwt>
<pdfrwt beam="2">  1       21 0.77014248E-01 0.18348243E+03</pdfrwt>
<totfact> 0.14413626E+04</totfact>
</mgrwt>
</event>
<event>
 4    1  0.4439578E+000  0.1806672E+03  0.7546771E-02  0.1167159E+00
         21   -1    0    0  503  502  0.00000000000E+00  0.00000000000E+00  0.48987110423E+03  0.48987110423E+03  0.00000000000E+00 0.  1.
         21   -1    0    0  501  503 -0.00000000000E+00 -0.00000000000E+00 -0.30323206388E+03  0.30323206388E+03  0.00000000000E+00 0.  1.
          6    1    1    2  501    0 -0.46001245344E+02 -0.24403116668E+02 -0.25696458240E+03  0.31412007781E+03  0.17300000000E+03 0.  1.
         -6    1    1    2    0  502  0.46001245344E+02  0.24403116668E+02  0.44360362275E+03  0.47898309030E+03  0.17300000000E+03 0.  1.
<mgrwt>
<rscale>  2 0.18066717E+03</rscale>
<asrwt>0</asrwt>
<pdfrwt beam="1">  1       21 0.75364785E-01 0.18066717E+03</pdfrwt>
<pdfrwt beam="2">  1       21 0.46651087E-01 0.18066717E+03</pdfrwt>
<totfact> 0.69821333E+03</totfact>
</mgrwt>
</event>
<event>
 4    1  0.4439578E+000  0.2300108E+03  0.7546771E-02  0.1126632E+00
         21   -1    0    0  503  502  0.00000000000E+00  0.00000000000E+00  0.11361946521E+03  0.11361946521E+03  0.00000000000E+00 0.  1.
         21   -1    0    0  501  503 -0.00000000000E+00 -0.00000000000E+00 -0.54570003095E+03  0.54570003095E+03  0.00000000000E+00 0.  1.
          6    1    1    2  501    0  0.15140892352E+03 -0.71632756802E+01 -0.34231480771E+03  0.41241290258E+03  0.17300000000E+03 0.  1.
         -6    1    1    2    0  502 -0.15140892352E+03  0.71632756802E+01 -0.89765758028E+02  0.24690659358E+03  0.17300000000E+03 0.  1.
<mgrwt>
<rscale>  2 0.23001081E+03</rscale>
<asrwt>0</asrwt>
<pdfrwt beam="1">  1       21 0.17479918E-01 0.23001081E+03</pdfrwt>
<pdfrwt beam="2">  1       21 0.83953850E-01 0.23001081E+03</pdfrwt>
<totfact> 0.35836924E+04</totfact>
</mgrwt>
</event>
<event>
 4    1  0.4439578E+000  0.2275423E+03  0.7546771E-02  0.1128382E+00
         21   -1    0    0  501  502  0.00000000000E+00  0.00000000000E+00  0.34160667802E+03  0.34160667802E+03  0.00000000000E+00 0.  1.
         21   -1    0    0  502  503 -0.00000000000E+00 -0.00000000000E+00 -0.32951355909E+03  0.32951355909E+03  0.00000000000E+00 0. -1.
          6    1    1    2  501    0  0.11657140545E+03  0.90871278511E+02  0.25263993858E+03  0.34000355938E+03  0.17300000000E+03 0.  1.
         -6    1    1    2    0  503 -0.11657140545E+03 -0.90871278511E+02 -0.24054681965E+03  0.33111667773E+03  0.17300000000E+03 0. -1.
<mgrwt>
<rscale>  2 0.22754226E+03</rscale>
<asrwt>0</asrwt>
<pdfrwt beam="1">  1       21 0.52554873E-01 0.22754226E+03</pdfrwt>
<pdfrwt beam="2">  1       21 0.50694394E-01 0.22754226E+03</pdfrwt>
<totfact> 0.12433924E+04</totfact>
</mgrwt>
</event>
<event>
 4    1  0.4439578E+000  0.3254617E+03  0.7546771E-02  0.1073163E+00
         21   -1    0    0  501  502  0.00000000000E+00  0.00000000000E+00  0.17641649985E+03  0.17641649985E+03  0.00000000000E+00 0.  1.
         21   -1    0    0  502  503 -0.00000000000E+00 -0.00000000000E+00 -0.73787588900E+03  0.73787588900E+03  0.00000000000E+00 0.  1.
          6    1    1    2  501    0 -0.25487406886E+03 -0.10505018523E+03 -0.83426940803E+02  0.33598420624E+03  0.17300000000E+03 0.  1.
         -6    1    1    2    0  503  0.25487406886E+03  0.10505018523E+03 -0.47803244835E+03  0.57830818261E+03  0.17300000000E+03 0.  1.
<mgrwt>
<rscale>  2 0.32546172E+03</rscale>
<asrwt>0</asrwt>
<pdfrwt beam="1">  1       21 0.27141001E-01 0.32546172E+03</pdfrwt>
<pdfrwt beam="2">  1       21 0.11351936E+00 0.32546172E+03</pdfrwt>
<totfact> 0.72413760E+03</totfact>
</mgrwt>
</event>
<event>
 4    1  0.4439578E+000  0.2075907E+03  0.7546771E-02  0.1143488E+00
         21   -1    0    0  503  502  0.00000000000E+00  0.00000000000E+00  0.10716071960E+04  0.10716071960E+04  0.00000000000E+00 0.  1.
         21   -1    0    0  501  503 -0.00000000000E+00 -0.00000000000E+00 -0.11283719603E+03  0.11283719603E+03  0.00000000000E+00 0. -1.
          6    1    1    2  501    0 -0.34389680890E+02 -0.10946336499E+03  0.42735767783E+01  0.20763463556E+03  0.17300000000E+03 0. -1.
         -6    1    1    2    0  502  0.34389680890E+02  0.10946336499E+03  0.95449642319E+03  0.97680975646E+03  0.17300000000E+03 0.  1.
<mgrwt>
<rscale>  2 0.20759065E+03</rscale>
<asrwt>0</asrwt>
<pdfrwt beam="1">  1       21 0.16486264E+00 0.20759065E+03</pdfrwt>
<pdfrwt beam="2">  1       21 0.17359569E-01 0.20759065E+03</pdfrwt>
<totfact> 0.68822108E+03</totfact>
</mgrwt>
</event>
<event>
 4    1  0.4439578E+000  0.2265139E+03  0.7546771E-02  0.1129118E+00
         21   -1    0    0  503  502  0.00000000000E+00  0.00000000000E+00  0.17068795143E+03  0.17068795143E+03  0.00000000000E+00 0. -1.
         21   -1    0    0  501  503 -0.00000000000E+00 -0.00000000000E+00 -0.30356690082E+03  0.30356690082E+03  0.00000000000E+00 0.  1.
          6    1    1    2  501    0  0.11305294380E+03  0.92728618892E+02 -0.89887491903E+02  0.24369720159E+03  0.17300000000E+03 0.  1.
         -6    1    1    2    0  502 -0.11305294380E+03 -0.92728618892E+02 -0.42991457487E+02  0.23055765067E+03  0.17300000000E+03 0. -1.
<mgrwt>
<rscale>  2 0.22651394E+03</rscale>
<asrwt>0</asrwt>
<pdfrwt beam="1">  1       21 0.26259685E-01 0.22651394E+03</pdfrwt>
<pdfrwt beam="2">  1       21 0.46702600E-01 0.22651394E+03</pdfrwt>
<totfact> 0.59610713E+04</totfact>
</mgrwt>
</event>
<event>
 4    1  0.4439578E+000  0.1918124E+03  0.7546771E-02  0.1156837E+00
         21   -1    0    0  501  502  0.00000000000E+00  0.00000000000E+00  0.11904672436E+03  0.11904672436E+03  0.00000000000E+00 0. -1.
         21   -1    0    0  502  503 -0.00000000000E+00 -0.00000000000E+00 -0.43479796865E+03  0.43479796865E+03  0.00000000000E+00 0. -1.
          6    1    1    2  501    0 -0.42813632521E+02  0.70922476855E+02 -0.89546638606E+01  0.19202132917E+03  0.17300000000E+03 0. -1.
         -6    1    1    2    0  503  0.42813632521E+02 -0.70922476855E+02 -0.30679658043E+03  0.36182336383E+03  0.17300000000E+03 0. -1.
<mgrwt>
<rscale>  2 0.19181242E+03</rscale>
<asrwt>0</asrwt>
<pdfrwt beam="1">  1       21 0.18314881E-01 0.19181242E+03</pdfrwt>
<pdfrwt beam="2">  1       21 0.66891996E-01 0.19181242E+03</pdfrwt>
<totfact> 0.55686810E+04</totfact>
</mgrwt>
</event>
<event>
 4    1  0.4439578E+000  0.1780047E+03  0.7546771E-02  0.1169748E+00
         21   -1    0    0  503  502  0.00000000000E+00  0.00000000000E+00  0.26550755344E+02  0.26550755344E+02  0.00000000000E+00 0. -1.
         21   -1    0    0  501  503 -0.00000000000E+00 -0.00000000000E+00 -0.14310056679E+04  0.14310056679E+04  0.00000000000E+00 0. -1.
          6    1    1    2  501    0  0.14385209316E+02 -0.39366807884E+02 -0.99919077807E+03  0.10149226033E+04  0.17300000000E+03 0. -1.
         -6    1    1    2    0  502 -0.14385209316E+02  0.39366807884E+02 -0.40526413445E+03  0.44263381986E+03  0.17300000000E+03 0. -1.
<mgrwt>
<rscale>  2 0.17800472E+03</rscale>
<asrwt>0</asrwt>
<pdfrwt beam="1">  1       21 0.40847311E-02 0.17800472E+03</pdfrwt>
<pdfrwt beam="2">  1       21 0.22015474E+00 0.17800472E+03</pdfrwt>
<totfact> 0.38389593E+04</totfact>
</mgrwt>
</event>
<event>
 4    1  0.4439578E+000  0.2764320E+03  0.7546771E-02  0.1097654E+00
         21   -1    0    0  501  502  0.00000000000E+00  0.00000000000E+00  0.79052280853E+03  0.79052280853E+03  0.00000000000E+00 0. -1.
         21   -1    0    0  502  503 -0.00000000000E+00 -0.00000000000E+00 -0.11420621784E+03  0.11420621784E+03  0.00000000000E+00 0. -1.
          6    1    1    2  501    0 -0.97306029218E+02  0.19239857748E+03  0.51545166446E+03  0.58489750754E+03  0.17300000000E+03 0. -1.
         -6    1    1    2    0  503  0.97306029218E+02 -0.19239857748E+03  0.16086492624E+03  0.31983151882E+03  0.17300000000E+03 0. -1.
<mgrwt>
<rscale>  2 0.27643205E+03</rscale>
<asrwt>0</asrwt>
<pdfrwt beam="1">  1       21 0.12161889E+00 0.27643205E+03</pdfrwt>
<pdfrwt beam="2">  1       21 0.17570188E-01 0.27643205E+03</pdfrwt>
<totfact> 0.14280534E+04</totfact>
</mgrwt>
</event>
<event>
 4    1  0.4439578E+000  0.1910666E+03  0.7546771E-02  0.1157503E+00
         21   -1    0    0  503  502  0.00000000000E+00  0.00000000000E+00  0.53472786197E+02  0.53472786197E+02  0.00000000000E+00 0.  1.
         21   -1    0    0  501  503 -0.00000000000E+00 -0.00000000000E+00 -0.83925747414E+03  0.83925747414E+03  0.00000000000E+00 0.  1.
          6    1    1    2  501    0  0.22011270945E+02 -0.78057344084E+02 -0.58567353914E+03  0.61605189672E+03  0.17300000000E+03 0.  1.
         -6    1    1    2    0  502 -0.22011270945E+02  0.78057344084E+02 -0.20011114881E+03  0.27667836361E+03  0.17300000000E+03 0.  1.
<mgrwt>
<rscale>  2 0.19106660E+03</rscale>
<asrwt>0</asrwt>
<pdfrwt beam="1">  1       21 0.82265826E-02 0.19106660E+03</pdfrwt>
<pdfrwt beam="2">  1       21 0.12911653E+00 0.19106660E+03</pdfrwt>
<totfact> 0.50307892E+04</totfact>
</mgrwt>
</event>
<event>
 4    1  0.4439578E+000  0.1760090E+03  0.7546771E-02  0.1171722E+00
         21   -1    0    0  501  502  0.00000000000E+00  0.00000000000E+00  0.38601847120E+03  0.38601847120E+03  0.00000000000E+00 0. -1.
         21   -1    0    0  502  503 -0.00000000000E+00 -0.00000000000E+00 -0.12329259612E+03  0.12329259612E+03  0.00000000000E+00 0. -1.
          6    1    1    2  501    0 -0.91401002966E+01 -0.31090507816E+02  0.28182203130E+03  0.33226919574E+03  0.17300000000E+03 0. -1.
         -6    1    1    2    0  503  0.91401002966E+01  0.31090507816E+02 -0.19096156217E+02  0.17704187158E+03  0.17300000000E+03 0. -1.
<mgrwt>
<rscale>  2 0.17600898E+03</rscale>
<asrwt>0</asrwt>
<pdfrwt beam="1">  1       21 0.59387456E-01 0.17600898E+03</pdfrwt>
<pdfrwt beam="2">  1       21 0.18968092E-01 0.17600898E+03</pdfrwt>
<totfact> 0.67979973E+04</totfact>
</mgrwt>
</event>
<event>
 4    1  0.4439578E+000  0.2626240E+03  0.7546771E-02  0.1105577E+00
         21   -1    0    0  501  502  0.00000000000E+00  0.00000000000E+00  0.35358688669E+03  0.35358688669E+03  0.00000000000E+00 0.  1.
         21   -1    0    0  502  503 -0.00000000000E+00 -0.00000000000E+00 -0.36670669677E+03  0.36670669677E+03  0.00000000000E+00 0. -1.
          6    1    1    2  501    0 -0.17587648973E+02 -0.19680717529E+03 -0.25295680392E+03  0.36463479578E+03  0.17300000000E+03 0. -1.
         -6    1    1    2    0  503  0.17587648973E+02  0.19680717529E+03  0.23983699385E+03  0.35565878769E+03  0.17300000000E+03 0.  1.
<mgrwt>
<rscale>  2 0.26262405E+03</rscale>
<asrwt>0</asrwt>
<pdfrwt beam="1">  1       21 0.54397983E-01 0.26262405E+03</pdfrwt>
<pdfrwt beam="2">  1       21 0.56416415E-01 0.26262405E+03</pdfrwt>
<totfact> 0.90371191E+03</totfact>
</mgrwt>
</event>
<event>
 4    1  0.4439578E+000  0.1976842E+03  0.7546771E-02  0.1151708E+00
         21   -1    0    0  501  502  0.00000000000E+00  0.00000000000E+00  0.80925338780E+03  0.80925338780E+03  0.00000000000E+00 0.  1.
         21   -1    0    0  502  503 -0.00000000000E+00 -0.00000000000E+00 -0.48316139048E+02  0.48316139048E+02  0.00000000000E+00 0.  1.
          6    1    1    2  501    0 -0.95655844048E+02 -0.47494542488E-01  0.39039543801E+03  0.43759300814E+03  0.17300000000E+03 0.  1.
         -6    1    1    2    0  503  0.95655844048E+02  0.47494542488E-01  0.37054181073E+03  0.41997651870E+03  0.17300000000E+03 0.  1.
<mgrwt>
<rscale>  2 0.19768420E+03</rscale>
<asrwt>0</asrwt>
<pdfrwt beam="1">  1       21 0.12450051E+00 0.19768420E+03</pdfrwt>
<pdfrwt beam="2">  1       21 0.74332528E-02 0.19768420E+03</pdfrwt>
<totfact> 0.65524886E+04</totfact>
</mgrwt>
</event>
<event>
 4    1  0.4439578E+000  0.2233428E+03  0.7546771E-02  0.1131415E+00
         21   -1    0    0  501  502  0.00000000000E+00  0.00000000000E+00  0.39494284716E+03  0.39494284716E+03  0.00000000000E+00 0. -1.
         21   -1    0    0  502  503 -0.00000000000E+00 -0.00000000000E+00 -0.13020801867E+03  0.13020801867E+03  0.00000000000E+00 0. -1.
          6    1    1    2  501    0  0.47467194269E+02  0.13304089886E+03  0.86888478821E+02  0.23964895796E+03  0.17300000000E+03 0. -1.
         -6    1    1    2    0  503 -0.47467194269E+02 -0.13304089886E+03  0.17784634967E+03  0.28550190786E+03  0.17300000000E+03 0. -1.
<mgrwt>
<rscale>  2 0.22334282E+03</rscale>
<asrwt>0</asrwt>
<pdfrwt beam="1">  1       21 0.60760438E-01 0.22334282E+03</pdfrwt>
<pdfrwt beam="2">  1       21 0.20032003E-01 0.22334282E+03</pdfrwt>
<totfact> 0.57230764E+04</totfact>
</mgrwt>
</event>
<event>
 4    1  0.4439578E+000  0.1782198E+03  0.7546771E-02  0.1169537E+00
         21   -1    0    0  503  502  0.00000000000E+00  0.00000000000E+00  0.53193453926E+03  0.53193453926E+03  0.00000000000E+00 0.  1.
         21   -1    0    0  501  503 -0.00000000000E+00 -0.00000000000E+00 -0.21963051509E+03  0.21963051509E+03  0.00000000000E+00 0.  1.
          6    1    1    2  501    0 -0.40480361618E+02 -0.13951423136E+02 -0.16450525032E+03  0.24253717090E+03  0.17300000000E+03 0.  1.
         -6    1    1    2    0  502  0.40480361618E+02  0.13951423136E+02  0.47680927449E+03  0.50902788345E+03  0.17300000000E+03 0.  1.
<mgrwt>
<rscale>  2 0.17821981E+03</rscale>
<asrwt>0</asrwt>
<pdfrwt beam="1">  1       21 0.81836083E-01 0.17821981E+03</pdfrwt>
<pdfrwt beam="2">  1       21 0.33789310E-01 0.17821981E+03</pdfrwt>
<totfact> 0.11133418E+04</totfact>
</mgrwt>
</event>
<event>
 4    1  0.4439578E+000  0.2076609E+03  0.7546771E-02  0.1143432E+00
         21   -1    0    0  501  502  0.00000000000E+00  0.00000000000E+00  0.30011170755E+03  0.30011170755E+03  0.00000000000E+00 0.  1.
         21   -1    0    0  502  503 -0.00000000000E+00 -0.00000000000E+00 -0.20804269457E+03  0.20804269457E+03  0.00000000000E+00 0. -1.
          6    1    1    2  501    0 -0.11153594649E+03  0.27455079431E+02  0.18734449396E+03  0.27968018908E+03  0.17300000000E+03 0.  1.
         -6    1    1    2    0  503  0.11153594649E+03 -0.27455079431E+02 -0.95275480984E+02  0.22847421304E+03  0.17300000000E+03 0. -1.
<mgrwt>
<rscale>  2 0.20766090E+03</rscale>
<asrwt>0</asrwt>
<pdfrwt beam="1">  1       21 0.46171032E-01 0.20766090E+03</pdfrwt>
<pdfrwt beam="2">  1       21 0.32006568E-01 0.20766090E+03</pdfrwt>
<totfact> 0.41878822E+04</totfact>
</mgrwt>
</event>
<event>
 4    1  0.4439578E+000  0.1780477E+03  0.7546771E-02  0.1169706E+00
         21   -1    0    0  501  502  0.00000000000E+00  0.00000000000E+00  0.61576501258E+03  0.61576501258E+03  0.00000000000E+00 0. -1.
         21   -1    0    0  502  503 -0.00000000000E+00 -0.00000000000E+00 -0.53286865496E+02  0.53286865496E+02  0.00000000000E+00 0. -1.
          6    1    1    2  501    0  0.41635995760E+02 -0.61994924106E+01  0.34280038244E+03  0.38628110497E+03  0.17300000000E+03 0. -1.
         -6    1    1    2    0  503 -0.41635995760E+02  0.61994924106E+01  0.21967776464E+03  0.28277077312E+03  0.17300000000E+03 0. -1.
<mgrwt>
<rscale>  2 0.17804772E+03</rscale>
<asrwt>0</asrwt>
<pdfrwt beam="1">  1       21 0.94733074E-01 0.17804772E+03</pdfrwt>
<pdfrwt beam="2">  1       21 0.81979797E-02 0.17804772E+03</pdfrwt>
<totfact> 0.10785806E+05</totfact>
</mgrwt>
</event>
<event>
 4    1  0.4439578E+000  0.1770218E+03  0.7546771E-02  0.1170717E+00
         21   -1    0    0  503  502  0.00000000000E+00  0.00000000000E+00  0.82973915062E+02  0.82973915062E+02  0.00000000000E+00 0.  1.
         21   -1    0    0  501  503 -0.00000000000E+00 -0.00000000000E+00 -0.39607120357E+03  0.39607120357E+03  0.00000000000E+00 0.  1.
          6    1    1    2  501    0  0.32230239457E+02 -0.19207410528E+02 -0.10492015915E+03  0.20577889287E+03  0.17300000000E+03 0. -1.
         -6    1    1    2    0  502 -0.32230239457E+02  0.19207410528E+02 -0.20817712936E+03  0.27326622577E+03  0.17300000000E+03 0. -1.
<mgrwt>
<rscale>  2 0.17702179E+03</rscale>
<asrwt>0</asrwt>
<pdfrwt beam="1">  1       21 0.12765218E-01 0.17702179E+03</pdfrwt>
<pdfrwt beam="2">  1       21 0.60934031E-01 0.17702179E+03</pdfrwt>
<totfact> 0.13237603E+05</totfact>
</mgrwt>
</event>
<event>
 4    1  0.4439578E+000  0.1866226E+03  0.7546771E-02  0.1161543E+00
         21   -1    0    0  503  502  0.00000000000E+00  0.00000000000E+00  0.29512024726E+03  0.29512024726E+03  0.00000000000E+00 0.  1.
         21   -1    0    0  501  503 -0.00000000000E+00 -0.00000000000E+00 -0.13494184572E+03  0.13494184572E+03  0.00000000000E+00 0.  1.
          6    1    1    2  501    0 -0.55878252035E+02  0.42149717820E+02  0.39262775716E+01  0.18666385140E+03  0.17300000000E+03 0.  1.
         -6    1    1    2    0  502  0.55878252035E+02 -0.42149717820E+02  0.15625212397E+03  0.24339824158E+03  0.17300000000E+03 0.  1.
<mgrwt>
<rscale>  2 0.18662255E+03</rscale>
<asrwt>0</asrwt>
<pdfrwt beam="1">  1       21 0.45403115E-01 0.18662255E+03</pdfrwt>
<pdfrwt beam="2">  1       21 0.20760284E-01 0.18662255E+03</pdfrwt>
<totfact> 0.10038178E+05</totfact>
</mgrwt>
</event>
<event>
 4    1  0.4439578E+000  0.2521519E+03  0.7546771E-02  0.1111952E+00
         21   -1    0    0  501  502  0.00000000000E+00  0.00000000000E+00  0.16378533980E+04  0.16378533980E+04  0.00000000000E+00 0.  1.
         21   -1    0    0  502  503 -0.00000000000E+00 -0.00000000000E+00 -0.39561856166E+02  0.39561856166E+02  0.00000000000E+00 0.  1.
          6    1    1    2  501    0 -0.38796044238E+02 -0.17929433893E+03  0.91403745502E+03  0.94817986806E+03  0.17300000000E+03 0. -1.
         -6    1    1    2    0  503  0.38796044238E+02  0.17929433893E+03  0.68425408682E+03  0.72923538611E+03  0.17300000000E+03 0. -1.
<mgrwt>
<rscale>  2 0.25215192E+03</rscale>
<asrwt>0</asrwt>
<pdfrwt beam="1">  1       21 0.25197739E+00 0.25215192E+03</pdfrwt>
<pdfrwt beam="2">  1       21 0.60864407E-02 0.25215192E+03</pdfrwt>
<totfact> 0.11853213E+04</totfact>
</mgrwt>
</event>
<event>
 4    1  0.4439578E+000  0.2293399E+03  0.7546771E-02  0.1127105E+00
         21   -1    0    0  503  502  0.00000000000E+00  0.00000000000E+00  0.49991964363E+03  0.49991964363E+03  0.00000000000E+00 0. -1.
         21   -1    0    0  501  503 -0.00000000000E+00 -0.00000000000E+00 -0.13845228620E+03  0.13845228620E+03  0.00000000000E+00 0. -1.
          6    1    1    2  501    0 -0.10550594521E+03  0.10740716670E+03  0.24334024440E+02  0.23062729387E+03  0.17300000000E+03 0. -1.
         -6    1    1    2    0  502  0.10550594521E+03 -0.10740716670E+03  0.33713333299E+03  0.40774463595E+03  0.17300000000E+03 0. -1.
<mgrwt>
<rscale>  2 0.22933993E+03</rscale>
<asrwt>0</asrwt>
<pdfrwt beam="1">  1       21 0.76910714E-01 0.22933993E+03</pdfrwt>
<pdfrwt beam="2">  1       21 0.21300352E-01 0.22933993E+03</pdfrwt>
<totfact> 0.30234886E+04</totfact>
</mgrwt>
</event>
<event>
 4    1  0.4439578E+000  0.1924399E+03  0.7546771E-02  0.1156279E+00
         21   -1    0    0  501  502  0.00000000000E+00  0.00000000000E+00  0.47829040138E+03  0.47829040138E+03  0.00000000000E+00 0. -1.
         21   -1    0    0  502  503 -0.00000000000E+00 -0.00000000000E+00 -0.86584973616E+02  0.86584973616E+02  0.00000000000E+00 0. -1.
          6    1    1    2  501    0 -0.83993364406E+02  0.70171553903E+01  0.28770174106E+03  0.34612919198E+03  0.17300000000E+03 0. -1.
         -6    1    1    2    0  503  0.83993364406E+02 -0.70171553903E+01  0.10400368670E+03  0.21874618301E+03  0.17300000000E+03 0. -1.
<mgrwt>
<rscale>  2 0.19243993E+03</rscale>
<asrwt>0</asrwt>
<pdfrwt beam="1">  1       21 0.73583137E-01 0.19243993E+03</pdfrwt>
<pdfrwt beam="2">  1       21 0.13320765E-01 0.19243993E+03</pdfrwt>
<totfact> 0.80714076E+04</totfact>
</mgrwt>
</event>
<event>
 4    1  0.4439578E+000  0.1731405E+03  0.7546771E-02  0.1174612E+00
         21   -1    0    0  501  502  0.00000000000E+00  0.00000000000E+00  0.55135812760E+02  0.55135812760E+02  0.00000000000E+00 0.  1.
         21   -1    0    0  502  503 -0.00000000000E+00 -0.00000000000E+00 -0.98672740181E+03  0.98672740181E+03  0.00000000000E+00 0.  1.
          6    1    1    2  501    0 -0.62079063892E+01  0.31787898661E+01 -0.11674009858E+03  0.20882024189E+03  0.17300000000E+03 0.  1.
         -6    1    1    2    0  503  0.62079063892E+01 -0.31787898661E+01 -0.81485149048E+03  0.83304297269E+03  0.17300000000E+03 0.  1.
<mgrwt>
<rscale>  2 0.17314053E+03</rscale>
<asrwt>0</asrwt>
<pdfrwt beam="1">  1       21 0.84824332E-02 0.17314053E+03</pdfrwt>
<pdfrwt beam="2">  1       21 0.15180421E+00 0.17314053E+03</pdfrwt>
<totfact> 0.31770800E+04</totfact>
</mgrwt>
</event>
<event>
 4    1  0.4439578E+000  0.1925042E+03  0.7546771E-02  0.1156222E+00
         21   -1    0    0  501  502  0.00000000000E+00  0.00000000000E+00  0.31093461810E+03  0.31093461810E+03  0.00000000000E+00 0.  1.
         21   -1    0    0  502  503 -0.00000000000E+00 -0.00000000000E+00 -0.12338503197E+03  0.12338503197E+03  0.00000000000E+00 0. -1.
          6    1    1    2  501    0 -0.15311039705E+02  0.83032766275E+02  0.53695517692E+02  0.19985263779E+03  0.17300000000E+03 0.  1.
         -6    1    1    2    0  503  0.15311039705E+02 -0.83032766275E+02  0.13385406843E+03  0.23446701228E+03  0.17300000000E+03 0.  1.
<mgrwt>
<rscale>  2 0.19250420E+03</rscale>
<asrwt>0</asrwt>
<pdfrwt beam="1">  1       21 0.47836095E-01 0.19250420E+03</pdfrwt>
<pdfrwt beam="2">  1       21 0.18982313E-01 0.19250420E+03</pdfrwt>
<totfact> 0.10629543E+05</totfact>
</mgrwt>
</event>
<event>
 4    1  0.4439578E+000  0.3561588E+03  0.7546771E-02  0.1060115E+00
         21   -1    0    0  501  502  0.00000000000E+00  0.00000000000E+00  0.11324683089E+04  0.11324683089E+04  0.00000000000E+00 0. -1.
         21   -1    0    0  502  503 -0.00000000000E+00 -0.00000000000E+00 -0.38841598049E+03  0.38841598049E+03  0.00000000000E+00 0.  1.
          6    1    1    2  501    0  0.29699445226E+03 -0.93350771306E+02  0.10135169932E+04  0.10742745304E+04  0.17300000000E+03 0. -1.
         -6    1    1    2    0  503 -0.29699445226E+03  0.93350771306E+02 -0.26946466484E+03  0.44660975893E+03  0.17300000000E+03 0.  1.
<mgrwt>
<rscale>  2 0.35615877E+03</rscale>
<asrwt>0</asrwt>
<pdfrwt beam="1">  1       21 0.17422589E+00 0.35615877E+03</pdfrwt>
<pdfrwt beam="2">  1       21 0.59756305E-01 0.35615877E+03</pdfrwt>
<totfact> 0.45331706E+02</totfact>
</mgrwt>
</event>
<event>
 4    1  0.4439578E+000  0.1903650E+03  0.7546771E-02  0.1158133E+00
         21   -1    0    0  503  502  0.00000000000E+00  0.00000000000E+00  0.90617636066E+03  0.90617636066E+03  0.00000000000E+00 0. -1.
         21   -1    0    0  501  503 -0.00000000000E+00 -0.00000000000E+00 -0.94011364218E+02  0.94011364218E+02  0.00000000000E+00 0. -1.
          6    1    1    2  501    0 -0.62740850635E+02 -0.48717588454E+02  0.26994128400E+02  0.19226934423E+03  0.17300000000E+03 0. -1.
         -6    1    1    2    0  502  0.62740850635E+02  0.48717588454E+02  0.78517086804E+03  0.80791838065E+03  0.17300000000E+03 0. -1.
<mgrwt>
<rscale>  2 0.19036496E+03</rscale>
<asrwt>0</asrwt>
<pdfrwt beam="1">  1       21 0.13941174E+00 0.19036496E+03</pdfrwt>
<pdfrwt beam="2">  1       21 0.14463287E-01 0.19036496E+03</pdfrwt>
<totfact> 0.15186788E+04</totfact>
</mgrwt>
</event>
<event>
 4    1  0.4439578E+000  0.1756274E+03  0.7546771E-02  0.1172103E+00
         21   -1    0    0  501  502  0.00000000000E+00  0.00000000000E+00  0.10661406304E+03  0.10661406304E+03  0.00000000000E+00 0. -1.
         21   -1    0    0  502  503 -0.00000000000E+00 -0.00000000000E+00 -0.50553035052E+03  0.50553035052E+03  0.00000000000E+00 0. -1.
          6    1    1    2  501    0 -0.93003192084E+01  0.28800605370E+02 -0.39962596563E+03  0.43651561623E+03  0.17300000000E+03 0. -1.
         -6    1    1    2    0  503  0.93003192084E+01 -0.28800605370E+02  0.70967815573E+00  0.17562879733E+03  0.17300000000E+03 0. -1.
<mgrwt>
<rscale>  2 0.17562736E+03</rscale>
<asrwt>0</asrwt>
<pdfrwt beam="1">  1       21 0.16402163E-01 0.17562736E+03</pdfrwt>
<pdfrwt beam="2">  1       21 0.77773901E-01 0.17562736E+03</pdfrwt>
<totfact> 0.49241531E+04</totfact>
</mgrwt>
</event>
<event>
 4    1  0.4439578E+000  0.1943659E+03  0.7546771E-02  0.1154582E+00
         21   -1    0    0  501  502  0.00000000000E+00  0.00000000000E+00  0.48471496417E+03  0.48471496417E+03  0.00000000000E+00 0.  1.
         21   -1    0    0  502  503 -0.00000000000E+00 -0.00000000000E+00 -0.86214845747E+02  0.86214845747E+02  0.00000000000E+00 0.  1.
          6    1    1    2  501    0 -0.86124019349E+02 -0.20778556957E+02  0.28769511167E+03  0.34719817456E+03  0.17300000000E+03 0.  1.
         -6    1    1    2    0  503  0.86124019349E+02  0.20778556957E+02  0.11080500675E+03  0.22373163536E+03  0.17300000000E+03 0.  1.
<mgrwt>
<rscale>  2 0.19436588E+03</rscale>
<asrwt>0</asrwt>
<pdfrwt beam="1">  1       21 0.74571531E-01 0.19436588E+03</pdfrwt>
<pdfrwt beam="2">  1       21 0.13263823E-01 0.19436588E+03</pdfrwt>
<totfact> 0.78890984E+04</totfact>
</mgrwt>
</event>
<event>
 4    1  0.4439578E+000  0.2201946E+03  0.7546771E-02  0.1133738E+00
         21   -1    0    0  503  502  0.00000000000E+00  0.00000000000E+00  0.70996113722E+02  0.70996113722E+02  0.00000000000E+00 0.  1.
         21   -1    0    0  501  503 -0.00000000000E+00 -0.00000000000E+00 -0.71690503735E+03  0.71690503735E+03  0.00000000000E+00 0.  1.
          6    1    1    2  501    0 -0.34993862062E+02  0.13165144443E+03 -0.23719853744E+03  0.32364922272E+03  0.17300000000E+03 0.  1.
         -6    1    1    2    0  502  0.34993862062E+02 -0.13165144443E+03 -0.40871038620E+03  0.46425192836E+03  0.17300000000E+03 0.  1.
<mgrwt>
<rscale>  2 0.22019463E+03</rscale>
<asrwt>0</asrwt>
<pdfrwt beam="1">  1       21 0.10922478E-01 0.22019463E+03</pdfrwt>
<pdfrwt beam="2">  1       21 0.11029309E+00 0.22019463E+03</pdfrwt>
<totfact> 0.44393899E+04</totfact>
</mgrwt>
</event>
<event>
 4    1  0.4439578E+000  0.3296732E+03  0.7546771E-02  0.1071282E+00
         21   -1    0    0  503  502  0.00000000000E+00  0.00000000000E+00  0.51600609701E+03  0.51600609701E+03  0.00000000000E+00 0.  1.
         21   -1    0    0  501  503 -0.00000000000E+00 -0.00000000000E+00 -0.39187242399E+03  0.39187242399E+03  0.00000000000E+00 0. -1.
          6    1    1    2  501    0  0.18390532645E+03 -0.21197697197E+03 -0.24664968520E+03  0.41172863995E+03  0.17300000000E+03 0. -1.
         -6    1    1    2    0  502 -0.18390532645E+03  0.21197697197E+03  0.37078335822E+03  0.49614988106E+03  0.17300000000E+03 0.  1.
<mgrwt>
<rscale>  2 0.32967318E+03</rscale>
<asrwt>0</asrwt>
<pdfrwt beam="1">  1       21 0.79385554E-01 0.32967318E+03</pdfrwt>
<pdfrwt beam="2">  1       21 0.60288065E-01 0.32967318E+03</pdfrwt>
<totfact> 0.32874757E+03</totfact>
</mgrwt>
</event>
<event>
 4    1  0.4439578E+000  0.2069740E+03  0.7546771E-02  0.1143985E+00
         21   -1    0    0  501  502  0.00000000000E+00  0.00000000000E+00  0.13860164690E+03  0.13860164690E+03  0.00000000000E+00 0. -1.
         21   -1    0    0  502  503 -0.00000000000E+00 -0.00000000000E+00 -0.30919455100E+03  0.30919455100E+03  0.00000000000E+00 0.  1.
          6    1    1    2  501    0 -0.11235304764E+03  0.16912010201E+02 -0.80883136791E+02  0.22221679779E+03  0.17300000000E+03 0.  1.
         -6    1    1    2    0  503  0.11235304764E+03 -0.16912010201E+02 -0.89709767303E+02  0.22557940011E+03  0.17300000000E+03 0.  1.
<mgrwt>
<rscale>  2 0.20697397E+03</rscale>
<asrwt>0</asrwt>
<pdfrwt beam="1">  1       21 0.21323330E-01 0.20697397E+03</pdfrwt>
<pdfrwt beam="2">  1       21 0.47568392E-01 0.20697397E+03</pdfrwt>
<totfact> 0.85999734E+04</totfact>
</mgrwt>
</event>
<event>
 4    1  0.4439578E+000  0.1943503E+03  0.7546771E-02  0.1154595E+00
         21   -1    0    0  501  502  0.00000000000E+00  0.00000000000E+00  0.43518436426E+03  0.43518436426E+03  0.00000000000E+00 0. -1.
         21   -1    0    0  502  503 -0.00000000000E+00 -0.00000000000E+00 -0.63356600241E+03  0.63356600241E+03  0.00000000000E+00 0. -1.
          6    1    1    2  501    0 -0.66694302378E+02  0.58265939438E+02  0.39723330988E+03  0.44222884590E+03  0.17300000000E+03 0. -1.
         -6    1    1    2    0  503  0.66694302378E+02 -0.58265939438E+02 -0.59561494803E+03  0.62652152077E+03  0.17300000000E+03 0. -1.
<mgrwt>
<rscale>  2 0.19435033E+03</rscale>
<asrwt>0</asrwt>
<pdfrwt beam="1">  1       21 0.66951440E-01 0.19435033E+03</pdfrwt>
<pdfrwt beam="2">  1       21 0.97471693E-01 0.19435033E+03</pdfrwt>
<totfact> 0.17792841E+03</totfact>
</mgrwt>
</event>
<event>
 4    1  0.4439578E+000  0.2201471E+03  0.7546771E-02  0.1133773E+00
         21   -1    0    0  501  502  0.00000000000E+00  0.00000000000E+00  0.47545248725E+02  0.47545248725E+02  0.00000000000E+00 0.  1.
         21   -1    0    0  502  503 -0.00000000000E+00 -0.00000000000E+00 -0.10195569804E+04  0.10195569804E+04  0.00000000000E+00 0. -1.
          6    1    1    2  501    0  0.11477461391E+03 -0.73229430070E+02 -0.47821758681E+03  0.52645685650E+03  0.17300000000E+03 0.  1.
         -6    1    1    2    0  503 -0.11477461391E+03  0.73229430070E+02 -0.49379414483E+03  0.54064537258E+03  0.17300000000E+03 0. -1.
<mgrwt>
<rscale>  2 0.22014714E+03</rscale>
<asrwt>0</asrwt>
<pdfrwt beam="1">  1       21 0.73146542E-02 0.22014714E+03</pdfrwt>
<pdfrwt beam="2">  1       21 0.15685491E+00 0.22014714E+03</pdfrwt>
<totfact> 0.36615221E+04</totfact>
</mgrwt>
</event>
<event>
 4    1  0.4439578E+000  0.1873511E+03  0.7546771E-02  0.1160872E+00
         21   -1    0    0  503  502  0.00000000000E+00  0.00000000000E+00  0.34110440357E+02  0.34110440357E+02  0.00000000000E+00 0. -1.
         21   -1    0    0  501  503 -0.00000000000E+00 -0.00000000000E+00 -0.11286936281E+04  0.11286936281E+04  0.00000000000E+00 0. -1.
          6    1    1    2  501    0  0.43000787811E+02  0.57639926891E+02 -0.37452012420E+03  0.41876694277E+03  0.17300000000E+03 0.  1.
         -6    1    1    2    0  502 -0.43000787811E+02 -0.57639926891E+02 -0.72006306356E+03  0.74403712571E+03  0.17300000000E+03 0.  1.
<mgrwt>
<rscale>  2 0.18735108E+03</rscale>
<asrwt>0</asrwt>
<pdfrwt beam="1">  1       21 0.52477602E-02 0.18735108E+03</pdfrwt>
<pdfrwt beam="2">  1       21 0.17364517E+00 0.18735108E+03</pdfrwt>
<totfact> 0.50022214E+04</totfact>
</mgrwt>
</event>
<event>
 4    1  0.4439578E+000  0.1755588E+03  0.7546771E-02  0.1172172E+00
         21   -1    0    0  501  502  0.00000000000E+00  0.00000000000E+00  0.47512888146E+03  0.47512888146E+03  0.00000000000E+00 0.  1.
         21   -1    0    0  502  503 -0.00000000000E+00 -0.00000000000E+00 -0.66937662686E+02  0.66937662686E+02  0.00000000000E+00 0.  1.
          6    1    1    2  501    0 -0.21580389490E+02  0.20644497131E+02  0.25174773834E+03  0.30691665356E+03  0.17300000000E+03 0. -1.
         -6    1    1    2    0  503  0.21580389490E+02 -0.20644497131E+02  0.15644348043E+03  0.23514989058E+03  0.17300000000E+03 0. -1.
<mgrwt>
<rscale>  2 0.17555885E+03</rscale>
<asrwt>0</asrwt>
<pdfrwt beam="1">  1       21 0.73096749E-01 0.17555885E+03</pdfrwt>
<pdfrwt beam="2">  1       21 0.10298102E-01 0.17555885E+03</pdfrwt>
<totfact> 0.13049847E+05</totfact>
</mgrwt>
</event>
<event>
 4    1  0.4439578E+000  0.3311558E+03  0.7546771E-02  0.1070627E+00
         21   -1    0    0  503  502  0.00000000000E+00  0.00000000000E+00  0.57476603351E+02  0.57476603351E+02  0.00000000000E+00 0.  1.
         21   -1    0    0  501  503 -0.00000000000E+00 -0.00000000000E+00 -0.23324317359E+04  0.23324317359E+04  0.00000000000E+00 0. -1.
          6    1    1    2  501    0 -0.47355599086E+02  0.27837493490E+03 -0.16472324585E+04  0.16801901468E+04  0.17300000000E+03 0. -1.
         -6    1    1    2    0  502  0.47355599086E+02 -0.27837493490E+03 -0.62772267402E+03  0.70971819240E+03  0.17300000000E+03 0.  1.
<mgrwt>
<rscale>  2 0.33115579E+03</rscale>
<asrwt>0</asrwt>
<pdfrwt beam="1">  1       21 0.88425571E-02 0.33115579E+03</pdfrwt>
<pdfrwt beam="2">  1       21 0.35883554E+00 0.33115579E+03</pdfrwt>
<totfact> 0.13468590E+03</totfact>
</mgrwt>
</event>
<event>
 4    1  0.4439578E+000  0.1827650E+03  0.7546771E-02  0.1165154E+00
         21   -1    0    0  503  502  0.00000000000E+00  0.00000000000E+00  0.70398017089E+03  0.70398017089E+03  0.00000000000E+00 0. -1.
         21   -1    0    0  501  503 -0.00000000000E+00 -0.00000000000E+00 -0.48323733969E+02  0.48323733969E+02  0.00000000000E+00 0. -1.
          6    1    1    2  501    0  0.47026788837E+01 -0.58753069530E+02  0.27721519946E+03  0.33204111971E+03  0.17300000000E+03 0. -1.
         -6    1    1    2    0  502 -0.47026788837E+01  0.58753069530E+02  0.37844123746E+03  0.42026278514E+03  0.17300000000E+03 0. -1.
<mgrwt>
<rscale>  2 0.18276498E+03</rscale>
<asrwt>0</asrwt>
<pdfrwt beam="1">  1       21 0.10830463E+00 0.18276498E+03</pdfrwt>
<pdfrwt beam="2">  1       21 0.74344211E-02 0.18276498E+03</pdfrwt>
<totfact> 0.92815854E+04</totfact>
</mgrwt>
</event>
<event>
 4    1  0.4439578E+000  0.2007396E+03  0.7546771E-02  0.1149117E+00
         21   -1    0    0  501  502  0.00000000000E+00  0.00000000000E+00  0.24847095761E+04  0.24847095761E+04  0.00000000000E+00 0. -1.
         21   -1    0    0  502  503 -0.00000000000E+00 -0.00000000000E+00 -0.77130351685E+02  0.77130351685E+02  0.00000000000E+00 0. -1.
          6    1    1    2  501    0  0.76118600657E+02  0.67626494050E+02  0.23421058589E+04  0.23506927146E+04  0.17300000000E+03 0. -1.
         -6    1    1    2    0  503 -0.76118600657E+02 -0.67626494050E+02  0.65473365546E+02  0.21114721324E+03  0.17300000000E+03 0. -1.
<mgrwt>
<rscale>  2 0.20073959E+03</rscale>
<asrwt>0</asrwt>
<pdfrwt beam="1">  1       21 0.38226295E+00 0.20073959E+03</pdfrwt>
<pdfrwt beam="2">  1       21 0.11866210E-01 0.20073959E+03</pdfrwt>
<totfact> 0.66245875E+02</totfact>
</mgrwt>
</event>
<event>
 4    1  0.4439578E+000  0.2262031E+03  0.7546771E-02  0.1129341E+00
         21   -1    0    0  501  502  0.00000000000E+00  0.00000000000E+00  0.60469230256E+03  0.60469230256E+03  0.00000000000E+00 0. -1.
         21   -1    0    0  502  503 -0.00000000000E+00 -0.00000000000E+00 -0.87589253721E+02  0.87589253721E+02  0.00000000000E+00 0.  1.
          6    1    1    2  501    0  0.10352054362E+03 -0.10257840268E+03  0.32230440809E+03  0.39376130221E+03  0.17300000000E+03 0. -1.
         -6    1    1    2    0  503 -0.10352054362E+03  0.10257840268E+03  0.19479864075E+03  0.29852025406E+03  0.17300000000E+03 0.  1.
<mgrwt>
<rscale>  2 0.22620308E+03</rscale>
<asrwt>0</asrwt>
<pdfrwt beam="1">  1       21 0.93029582E-01 0.22620308E+03</pdfrwt>
<pdfrwt beam="2">  1       21 0.13475270E-01 0.22620308E+03</pdfrwt>
<totfact> 0.45582349E+04</totfact>
</mgrwt>
</event>
<event>
 4    1  0.4439578E+000  0.1917371E+03  0.7546771E-02  0.1156904E+00
         21   -1    0    0  503  502  0.00000000000E+00  0.00000000000E+00  0.11565856778E+03  0.11565856778E+03  0.00000000000E+00 0. -1.
         21   -1    0    0  501  503 -0.00000000000E+00 -0.00000000000E+00 -0.44863277470E+03  0.44863277470E+03  0.00000000000E+00 0.  1.
          6    1    1    2  501    0 -0.62325434513E+01 -0.82433347972E+02 -0.31881815546E+03  0.37203241486E+03  0.17300000000E+03 0.  1.
         -6    1    1    2    0  502  0.62325434513E+01  0.82433347972E+02 -0.14156051459E+02  0.19225892762E+03  0.17300000000E+03 0. -1.
<mgrwt>
<rscale>  2 0.19173706E+03</rscale>
<asrwt>0</asrwt>
<pdfrwt beam="1">  1       21 0.17793626E-01 0.19173706E+03</pdfrwt>
<pdfrwt beam="2">  1       21 0.69020427E-01 0.19173706E+03</pdfrwt>
<totfact> 0.54843114E+04</totfact>
</mgrwt>
</event>
<event>
 4    1  0.4439578E+000  0.1735971E+03  0.7546771E-02  0.1174148E+00
         21   -1    0    0  501  502  0.00000000000E+00  0.00000000000E+00  0.47289034953E+03  0.47289034953E+03  0.00000000000E+00 0.  1.
         21   -1    0    0  502  503 -0.00000000000E+00 -0.00000000000E+00 -0.11967567556E+03  0.11967567556E+03  0.00000000000E+00 0.  1.
          6    1    1    2  501    0 -0.81648566893E+00  0.14362093995E+02  0.37918813488E+03  0.41703666269E+03  0.17300000000E+03 0.  1.
         -6    1    1    2    0  503  0.81648566893E+00 -0.14362093995E+02 -0.25973460912E+02  0.17552936240E+03  0.17300000000E+03 0.  1.
<mgrwt>
<rscale>  2 0.17359705E+03</rscale>
<asrwt>0</asrwt>
<pdfrwt beam="1">  1       21 0.72752361E-01 0.17359705E+03</pdfrwt>
<pdfrwt beam="2">  1       21 0.18411643E-01 0.17359705E+03</pdfrwt>
<totfact> 0.46245246E+04</totfact>
</mgrwt>
</event>
<event>
 4    1  0.4439578E+000  0.3101766E+03  0.7546771E-02  0.1080261E+00
         21   -1    0    0  501  502  0.00000000000E+00  0.00000000000E+00  0.34461235184E+03  0.34461235184E+03  0.00000000000E+00 0. -1.
         21   -1    0    0  502  503 -0.00000000000E+00 -0.00000000000E+00 -0.27919421146E+03  0.27919421146E+03  0.00000000000E+00 0. -1.
          6    1    1    2  501    0  0.16068519024E+03  0.20114869189E+03  0.34781374651E+02  0.31212060271E+03  0.17300000000E+03 0. -1.
         -6    1    1    2    0  503 -0.16068519024E+03 -0.20114869189E+03  0.30636765728E+02  0.31168596059E+03  0.17300000000E+03 0. -1.
<mgrwt>
<rscale>  2 0.31017661E+03</rscale>
<asrwt>0</asrwt>
<pdfrwt beam="1">  1       21 0.53017285E-01 0.31017661E+03</pdfrwt>
<pdfrwt beam="2">  1       21 0.42952956E-01 0.31017661E+03</pdfrwt>
<totfact> 0.16561937E+04</totfact>
</mgrwt>
</event>
<event>
 4    1  0.4439578E+000  0.2065990E+03  0.7546771E-02  0.1144288E+00
         21   -1    0    0  503  502  0.00000000000E+00  0.00000000000E+00  0.90692378654E+02  0.90692378654E+02  0.00000000000E+00 0. -1.
         21   -1    0    0  501  503 -0.00000000000E+00 -0.00000000000E+00 -0.63729673479E+03  0.63729673479E+03  0.00000000000E+00 0.  1.
          6    1    1    2  501    0  0.75950725384E+02  0.83580183093E+02 -0.45944221977E+03  0.50375620393E+03  0.17300000000E+03 0.  1.
         -6    1    1    2    0  502 -0.75950725384E+02 -0.83580183093E+02 -0.87162136363E+02  0.22423290951E+03  0.17300000000E+03 0. -1.
<mgrwt>
<rscale>  2 0.20659903E+03</rscale>
<asrwt>0</asrwt>
<pdfrwt beam="1">  1       21 0.13952674E-01 0.20659903E+03</pdfrwt>
<pdfrwt beam="2">  1       21 0.98045649E-01 0.20659903E+03</pdfrwt>
<totfact> 0.38192306E+04</totfact>
</mgrwt>
</event>
<event>
 4    1  0.4439578E+000  0.2633946E+03  0.7546771E-02  0.1105121E+00
         21   -1    0    0  503  502  0.00000000000E+00  0.00000000000E+00  0.50079023246E+03  0.50079023246E+03  0.00000000000E+00 0.  1.
         21   -1    0    0  501  503 -0.00000000000E+00 -0.00000000000E+00 -0.32349526483E+03  0.32349526483E+03  0.00000000000E+00 0. -1.
          6    1    1    2  501    0  0.60715088711E+02 -0.18910678960E+03 -0.22299277981E+03  0.34511227118E+03  0.17300000000E+03 0. -1.
         -6    1    1    2    0  502 -0.60715088711E+02  0.18910678960E+03  0.40028774745E+03  0.47917322611E+03  0.17300000000E+03 0.  1.
<mgrwt>
<rscale>  2 0.26339457E+03</rscale>
<asrwt>0</asrwt>
<pdfrwt beam="1">  1       21 0.77044651E-01 0.26339457E+03</pdfrwt>
<pdfrwt beam="2">  1       21 0.49768502E-01 0.26339457E+03</pdfrwt>
<totfact> 0.54918860E+03</totfact>
</mgrwt>
</event>
<event>
 4    1  0.4439578E+000  0.3036424E+03  0.7546771E-02  0.1083434E+00
         21   -1    0    0  503  502  0.00000000000E+00  0.00000000000E+00  0.15053491787E+04  0.15053491787E+04  0.00000000000E+00 0.  1.
         21   -1    0    0  501  503 -0.00000000000E+00 -0.00000000000E+00 -0.71862749448E+02  0.71862749448E+02  0.00000000000E+00 0. -1.
          6    1    1    2  501    0 -0.18313349761E+03 -0.16950458590E+03  0.10198361707E+04  0.10640791782E+04  0.17300000000E+03 0.  1.
         -6    1    1    2    0  502  0.18313349761E+03  0.16950458590E+03  0.41365025857E+03  0.51313274988E+03  0.17300000000E+03 0. -1.
<mgrwt>
<rscale>  2 0.30364236E+03</rscale>
<asrwt>0</asrwt>
<pdfrwt beam="1">  1       21 0.23159216E+00 0.30364236E+03</pdfrwt>
<pdfrwt beam="2">  1       21 0.11055809E-01 0.30364236E+03</pdfrwt>
<totfact> 0.53243818E+03</totfact>
</mgrwt>
</event>
<event>
 4    1  0.4439578E+000  0.1817012E+03  0.7546771E-02  0.1166167E+00
         21   -1    0    0  501  502  0.00000000000E+00  0.00000000000E+00  0.42117780463E+03  0.42117780463E+03  0.00000000000E+00 0. -1.
         21   -1    0    0  502  503 -0.00000000000E+00 -0.00000000000E+00 -0.16771738108E+03  0.16771738108E+03  0.00000000000E+00 0. -1.
          6    1    1    2  501    0 -0.53096497970E+02 -0.16342974703E+02  0.34162004753E+03  0.38693615467E+03  0.17300000000E+03 0. -1.
         -6    1    1    2    0  503  0.53096497970E+02  0.16342974703E+02 -0.88159623975E+02  0.20195903104E+03  0.17300000000E+03 0. -1.
<mgrwt>
<rscale>  2 0.18170121E+03</rscale>
<asrwt>0</asrwt>
<pdfrwt beam="1">  1       21 0.64796585E-01 0.18170121E+03</pdfrwt>
<pdfrwt beam="2">  1       21 0.25802674E-01 0.18170121E+03</pdfrwt>
<totfact> 0.31473316E+04</totfact>
</mgrwt>
</event>
<event>
 4    1  0.4439578E+000  0.1889897E+03  0.7546771E-02  0.1159376E+00
         21   -1    0    0  501  502  0.00000000000E+00  0.00000000000E+00  0.29985744394E+03  0.29985744394E+03  0.00000000000E+00 0. -1.
         21   -1    0    0  502  503 -0.00000000000E+00 -0.00000000000E+00 -0.20393928318E+03  0.20393928318E+03  0.00000000000E+00 0. -1.
          6    1    1    2  501    0  0.69501299423E+02 -0.30946325951E+02  0.21041611928E+03  0.28282865654E+03  0.17300000000E+03 0. -1.
         -6    1    1    2    0  503 -0.69501299423E+02  0.30946325951E+02 -0.11449795852E+03  0.22096807058E+03  0.17300000000E+03 0. -1.
<mgrwt>
<rscale>  2 0.18898970E+03</rscale>
<asrwt>0</asrwt>
<pdfrwt beam="1">  1       21 0.46131915E-01 0.18898970E+03</pdfrwt>
<pdfrwt beam="2">  1       21 0.31375274E-01 0.18898970E+03</pdfrwt>
<totfact> 0.44035397E+04</totfact>
</mgrwt>
</event>
<event>
 4    1  0.4439578E+000  0.2640498E+03  0.7546771E-02  0.1104734E+00
         21   -1    0    0  503  502  0.00000000000E+00  0.00000000000E+00  0.22637468600E+03  0.22637468600E+03  0.00000000000E+00 0.  1.
         21   -1    0    0  501  503 -0.00000000000E+00 -0.00000000000E+00 -0.50562184726E+03  0.50562184726E+03  0.00000000000E+00 0. -1.
          6    1    1    2  501    0  0.19872587180E+03  0.17358587987E+02 -0.36844094611E+03  0.45328911686E+03  0.17300000000E+03 0. -1.
         -6    1    1    2    0  502 -0.19872587180E+03 -0.17358587987E+02  0.89193784847E+02  0.27870741639E+03  0.17300000000E+03 0.  1.
<mgrwt>
<rscale>  2 0.26404979E+03</rscale>
<asrwt>0</asrwt>
<pdfrwt beam="1">  1       21 0.34826875E-01 0.26404979E+03</pdfrwt>
<pdfrwt beam="2">  1       21 0.77787976E-01 0.26404979E+03</pdfrwt>
<totfact> 0.11157732E+04</totfact>
</mgrwt>
</event>
<event>
 4    1  0.4439578E+000  0.1825437E+03  0.7546771E-02  0.1165364E+00
         21   -1    0    0  503  502  0.00000000000E+00  0.00000000000E+00  0.28874172049E+03  0.28874172049E+03  0.00000000000E+00 0. -1.
         21   -1    0    0  501  503 -0.00000000000E+00 -0.00000000000E+00 -0.16698562232E+03  0.16698562232E+03  0.00000000000E+00 0. -1.
          6    1    1    2  501    0 -0.58124421571E+02  0.38422175454E+01 -0.65764381387E+02  0.19402877332E+03  0.17300000000E+03 0. -1.
         -6    1    1    2    0  502  0.58124421571E+02 -0.38422175454E+01  0.18752047956E+03  0.26169856949E+03  0.17300000000E+03 0. -1.
<mgrwt>
<rscale>  2 0.18254372E+03</rscale>
<asrwt>0</asrwt>
<pdfrwt beam="1">  1       21 0.44421803E-01 0.18254372E+03</pdfrwt>
<pdfrwt beam="2">  1       21 0.25690096E-01 0.18254372E+03</pdfrwt>
<totfact> 0.70265945E+04</totfact>
</mgrwt>
</event>
<event>
 4    1  0.4439578E+000  0.1921948E+03  0.7546771E-02  0.1156497E+00
         21   -1    0    0  501  502  0.00000000000E+00  0.00000000000E+00  0.24437520921E+03  0.24437520921E+03  0.00000000000E+00 0. -1.
         21   -1    0    0  502  503 -0.00000000000E+00 -0.00000000000E+00 -0.15265726938E+03  0.15265726938E+03  0.00000000000E+00 0.  1.
          6    1    1    2  501    0  0.82862180408E+02 -0.11987059741E+02  0.65544004028E+02  0.20306365260E+03  0.17300000000E+03 0. -1.
         -6    1    1    2    0  503 -0.82862180408E+02  0.11987059741E+02  0.26173935802E+02  0.19396882600E+03  0.17300000000E+03 0.  1.
<mgrwt>
<rscale>  2 0.19219477E+03</rscale>
<asrwt>0</asrwt>
<pdfrwt beam="1">  1       21 0.37596186E-01 0.19219477E+03</pdfrwt>
<pdfrwt beam="2">  1       21 0.23485734E-01 0.19219477E+03</pdfrwt>
<totfact> 0.11642331E+05</totfact>
</mgrwt>
</event>
<event>
 4    1  0.4439578E+000  0.3637359E+03  0.7546771E-02  0.1057114E+00
         21   -1    0    0  501  502  0.00000000000E+00  0.00000000000E+00  0.75577831619E+03  0.75577831619E+03  0.00000000000E+00 0.  1.
         21   -1    0    0  502  503 -0.00000000000E+00 -0.00000000000E+00 -0.17557162776E+03  0.17557162776E+03  0.00000000000E+00 0. -1.
          6    1    1    2  501    0 -0.28603631816E+03 -0.14338081504E+03  0.31532967746E+03  0.48139031868E+03  0.17300000000E+03 0. -1.
         -6    1    1    2    0  503  0.28603631816E+03  0.14338081504E+03  0.26487701097E+03  0.44995962527E+03  0.17300000000E+03 0.  1.
<mgrwt>
<rscale>  2 0.36373594E+03</rscale>
<asrwt>0</asrwt>
<pdfrwt beam="1">  1       21 0.11627359E+00 0.36373594E+03</pdfrwt>
<pdfrwt beam="2">  1       21 0.27011020E-01 0.36373594E+03</pdfrwt>
<totfact> 0.67752869E+03</totfact>
</mgrwt>
</event>
<event>
 4    1  0.4439578E+000  0.1813287E+03  0.7546771E-02  0.1166523E+00
         21   -1    0    0  503  502  0.00000000000E+00  0.00000000000E+00  0.22737290161E+03  0.22737290161E+03  0.00000000000E+00 0.  1.
         21   -1    0    0  501  503 -0.00000000000E+00 -0.00000000000E+00 -0.34091842399E+03  0.34091842399E+03  0.00000000000E+00 0.  1.
          6    1    1    2  501    0  0.32002155364E+02  0.43897061217E+02 -0.27239162297E+03  0.32722665875E+03  0.17300000000E+03 0.  1.
         -6    1    1    2    0  502 -0.32002155364E+02 -0.43897061217E+02  0.15884610060E+03  0.24106466686E+03  0.17300000000E+03 0.  1.
<mgrwt>
<rscale>  2 0.18132868E+03</rscale>
<asrwt>0</asrwt>
<pdfrwt beam="1">  1       21 0.34980446E-01 0.18132868E+03</pdfrwt>
<pdfrwt beam="2">  1       21 0.52448988E-01 0.18132868E+03</pdfrwt>
<totfact> 0.27330945E+04</totfact>
</mgrwt>
</event>
<event>
 4    1  0.4439578E+000  0.1757888E+03  0.7546771E-02  0.1171942E+00
         21   -1    0    0  501  502  0.00000000000E+00  0.00000000000E+00  0.79035469813E+03  0.79035469813E+03  0.00000000000E+00 0.  1.
         21   -1    0    0  502  503 -0.00000000000E+00 -0.00000000000E+00 -0.51612302317E+02  0.51612302317E+02  0.00000000000E+00 0.  1.
          6    1    1    2  501    0  0.10163578571E+02  0.29485612195E+02  0.57666329322E+03  0.60286171997E+03  0.17300000000E+03 0.  1.
         -6    1    1    2    0  503 -0.10163578571E+02 -0.29485612195E+02  0.16207910260E+03  0.23910528048E+03  0.17300000000E+03 0.  1.
<mgrwt>
<rscale>  2 0.17578879E+03</rscale>
<asrwt>0</asrwt>
<pdfrwt beam="1">  1       21 0.12159302E+00 0.17578879E+03</pdfrwt>
<pdfrwt beam="2">  1       21 0.79403548E-02 0.17578879E+03</pdfrwt>
<totfact> 0.62658069E+04</totfact>
</mgrwt>
</event>
<event>
 4    1  0.4439578E+000  0.1818271E+03  0.7546771E-02  0.1166046E+00
         21   -1    0    0  501  502  0.00000000000E+00  0.00000000000E+00  0.16438100715E+03  0.16438100715E+03  0.00000000000E+00 0.  1.
         21   -1    0    0  502  503 -0.00000000000E+00 -0.00000000000E+00 -0.22235879578E+03  0.22235879578E+03  0.00000000000E+00 0.  1.
          6    1    1    2  501    0 -0.48869054943E+02 -0.27274876100E+02  0.30766510963E+02  0.18441171762E+03  0.17300000000E+03 0.  1.
         -6    1    1    2    0  503  0.48869054943E+02  0.27274876100E+02 -0.88744299584E+02  0.20232808531E+03  0.17300000000E+03 0.  1.
<mgrwt>
<rscale>  2 0.18182713E+03</rscale>
<asrwt>0</asrwt>
<pdfrwt beam="1">  1       21 0.25289386E-01 0.18182713E+03</pdfrwt>
<pdfrwt beam="2">  1       21 0.34209046E-01 0.18182713E+03</pdfrwt>
<totfact> 0.12246775E+05</totfact>
</mgrwt>
</event>
<event>
 4    1  0.4439578E+000  0.1817907E+03  0.7546771E-02  0.1166081E+00
         21   -1    0    0  503  502  0.00000000000E+00  0.00000000000E+00  0.45178318759E+02  0.45178318759E+02  0.00000000000E+00 0.  1.
         21   -1    0    0  501  503 -0.00000000000E+00 -0.00000000000E+00 -0.98352268411E+03  0.98352268411E+03  0.00000000000E+00 0.  1.
          6    1    1    2  501    0  0.27804211762E+02  0.48433235657E+02 -0.72954069715E+03  0.75184937408E+03  0.17300000000E+03 0.  1.
         -6    1    1    2    0  502 -0.27804211762E+02 -0.48433235657E+02 -0.20880366820E+03  0.27685162878E+03  0.17300000000E+03 0.  1.
<mgrwt>
<rscale>  2 0.18179068E+03</rscale>
<asrwt>0</asrwt>
<pdfrwt beam="1">  1       21 0.69505112E-02 0.18179068E+03</pdfrwt>
<pdfrwt beam="2">  1       21 0.15131117E+00 0.18179068E+03</pdfrwt>
<totfact> 0.45013742E+04</totfact>
</mgrwt>
</event>
<event>
 4    1  0.4439578E+000  0.2080273E+03  0.7546771E-02  0.1143138E+00
         21   -1    0    0  503  502  0.00000000000E+00  0.00000000000E+00  0.34917365558E+03  0.34917365558E+03  0.00000000000E+00 0.  1.
         21   -1    0    0  501  503 -0.00000000000E+00 -0.00000000000E+00 -0.16201075430E+03  0.16201075430E+03  0.00000000000E+00 0.  1.
          6    1    1    2  501    0 -0.12281122994E+01 -0.11551988835E+03 -0.30324314745E+02  0.21022587122E+03  0.17300000000E+03 0.  1.
         -6    1    1    2    0  502  0.12281122994E+01  0.11551988835E+03  0.21748721603E+03  0.30095853867E+03  0.17300000000E+03 0.  1.
<mgrwt>
<rscale>  2 0.20802729E+03</rscale>
<asrwt>0</asrwt>
<pdfrwt beam="1">  1       21 0.53719024E-01 0.20802729E+03</pdfrwt>
<pdfrwt beam="2">  1       21 0.24924732E-01 0.20802729E+03</pdfrwt>
<totfact> 0.49569854E+04</totfact>
</mgrwt>
</event>
<event>
 4    1  0.4439578E+000  0.1730722E+03  0.7546771E-02  0.1174681E+00
         21   -1    0    0  501  502  0.00000000000E+00  0.00000000000E+00  0.49189549021E+03  0.49189549021E+03  0.00000000000E+00 0.  1.
         21   -1    0    0  502  503 -0.00000000000E+00 -0.00000000000E+00 -0.22453694749E+03  0.22453694749E+03  0.00000000000E+00 0.  1.
          6    1    1    2  501    0 -0.49252457319E+01 -0.85695936249E+00  0.43948710999E+03  0.47233770999E+03  0.17300000000E+03 0.  1.
         -6    1    1    2    0  503  0.49252457319E+01  0.85695936249E+00 -0.17212856727E+03  0.24409472771E+03  0.17300000000E+03 0.  1.
<mgrwt>
<rscale>  2 0.17307222E+03</rscale>
<asrwt>0</asrwt>
<pdfrwt beam="1">  1       21 0.75676229E-01 0.17307222E+03</pdfrwt>
<pdfrwt beam="2">  1       21 0.34544146E-01 0.17307222E+03</pdfrwt>
<totfact> 0.12753814E+04</totfact>
</mgrwt>
</event>
<event>
 4    1  0.4439578E+000  0.2612167E+03  0.7546771E-02  0.1106414E+00
         21   -1    0    0  503  502  0.00000000000E+00  0.00000000000E+00  0.12034224304E+04  0.12034224304E+04  0.00000000000E+00 0. -1.
         21   -1    0    0  501  503 -0.00000000000E+00 -0.00000000000E+00 -0.57487910201E+02  0.57487910201E+02  0.00000000000E+00 0. -1.
          6    1    1    2  501    0  0.11958814965E+03 -0.15493169138E+03  0.49916310984E+03  0.56338083457E+03  0.17300000000E+03 0. -1.
         -6    1    1    2    0  502 -0.11958814965E+03  0.15493169138E+03  0.64677141032E+03  0.69752950600E+03  0.17300000000E+03 0. -1.
<mgrwt>
<rscale>  2 0.26121668E+03</rscale>
<asrwt>0</asrwt>
<pdfrwt beam="1">  1       21 0.18514189E+00 0.26121668E+03</pdfrwt>
<pdfrwt beam="2">  1       21 0.88442948E-02 0.26121668E+03</pdfrwt>
<totfact> 0.16163537E+04</totfact>
</mgrwt>
</event>
<event>
 4    1  0.4439578E+000  0.2234191E+03  0.7546771E-02  0.1131359E+00
         21   -1    0    0  503  502  0.00000000000E+00  0.00000000000E+00  0.13686939817E+04  0.13686939817E+04  0.00000000000E+00 0. -1.
         21   -1    0    0  501  503 -0.00000000000E+00 -0.00000000000E+00 -0.73450410280E+02  0.73450410280E+02  0.00000000000E+00 0. -1.
          6    1    1    2  501    0  0.89067638180E+02  0.10979095584E+03  0.13597737459E+03  0.26154530115E+03  0.17300000000E+03 0. -1.
         -6    1    1    2    0  502 -0.89067638180E+02 -0.10979095584E+03  0.11592661968E+04  0.11805990908E+04  0.17300000000E+03 0. -1.
<mgrwt>
<rscale>  2 0.22341911E+03</rscale>
<asrwt>0</asrwt>
<pdfrwt beam="1">  1       21 0.21056829E+00 0.22341911E+03</pdfrwt>
<pdfrwt beam="2">  1       21 0.11300064E-01 0.22341911E+03</pdfrwt>
<totfact> 0.73229434E+03</totfact>
</mgrwt>
</event>
<event>
 4    1  0.4439578E+000  0.2971537E+03  0.7546771E-02  0.1086672E+00
         21   -1    0    0  503  502  0.00000000000E+00  0.00000000000E+00  0.69572696390E+03  0.69572696390E+03  0.00000000000E+00 0.  1.
         21   -1    0    0  501  503 -0.00000000000E+00 -0.00000000000E+00 -0.35456841275E+03  0.35456841275E+03  0.00000000000E+00 0. -1.
          6    1    1    2  501    0  0.16328006337E+03  0.17807572422E+03 -0.25021087378E+03  0.38846598822E+03  0.17300000000E+03 0. -1.
         -6    1    1    2    0  502 -0.16328006337E+03 -0.17807572422E+03  0.59136942493E+03  0.66182938843E+03  0.17300000000E+03 0.  1.
<mgrwt>
<rscale>  2 0.29715374E+03</rscale>
<asrwt>0</asrwt>
<pdfrwt beam="1">  1       21 0.10703492E+00 0.29715374E+03</pdfrwt>
<pdfrwt beam="2">  1       21 0.54548987E-01 0.29715374E+03</pdfrwt>
<totfact> 0.20495466E+03</totfact>
</mgrwt>
</event>
<event>
 4    1  0.4439578E+000  0.1863446E+03  0.7546771E-02  0.1161800E+00
         21   -1    0    0  503  502  0.00000000000E+00  0.00000000000E+00  0.19028341265E+03  0.19028341265E+03  0.00000000000E+00 0.  1.
         21   -1    0    0  501  503 -0.00000000000E+00 -0.00000000000E+00 -0.36940874547E+03  0.36940874547E+03  0.00000000000E+00 0.  1.
          6    1    1    2  501    0 -0.68461841651E+02  0.10405603194E+02 -0.28862781902E+03  0.34355540784E+03  0.17300000000E+03 0.  1.
         -6    1    1    2    0  502  0.68461841651E+02 -0.10405603194E+02  0.10950248621E+03  0.21613675029E+03  0.17300000000E+03 0.  1.
<mgrwt>
<rscale>  2 0.18634457E+03</rscale>
<asrwt>0</asrwt>
<pdfrwt beam="1">  1       21 0.29274371E-01 0.18634457E+03</pdfrwt>
<pdfrwt beam="2">  1       21 0.56832114E-01 0.18634457E+03</pdfrwt>
<totfact> 0.32628460E+04</totfact>
</mgrwt>
</event>
<event>
 4    1  0.4439578E+000  0.1861961E+03  0.7546771E-02  0.1161938E+00
         21   -1    0    0  501  502  0.00000000000E+00  0.00000000000E+00  0.66369899457E+03  0.66369899457E+03  0.00000000000E+00 0.  1.
         21   -1    0    0  502  503 -0.00000000000E+00 -0.00000000000E+00 -0.68440591164E+02  0.68440591164E+02  0.00000000000E+00 0.  1.
          6    1    1    2  501    0  0.68783676803E+02 -0.29649764672E+01  0.47575464729E+03  0.51089281625E+03  0.17300000000E+03 0.  1.
         -6    1    1    2    0  503 -0.68783676803E+02  0.29649764672E+01  0.11950375612E+03  0.22124676948E+03  0.17300000000E+03 0.  1.
<mgrwt>
<rscale>  2 0.18619609E+03</rscale>
<asrwt>0</asrwt>
<pdfrwt beam="1">  1       21 0.10210753E+00 0.18619609E+03</pdfrwt>
<pdfrwt beam="2">  1       21 0.10529322E-01 0.18619609E+03</pdfrwt>
<totfact> 0.58036925E+04</totfact>
</mgrwt>
</event>
<event>
 4    1  0.4439578E+000  0.1801545E+03  0.7546771E-02  0.1167654E+00
         21   -1    0    0  501  502  0.00000000000E+00  0.00000000000E+00  0.47396254814E+03  0.47396254814E+03  0.00000000000E+00 0.  1.
         21   -1    0    0  502  503 -0.00000000000E+00 -0.00000000000E+00 -0.10170567357E+03  0.10170567357E+03  0.00000000000E+00 0. -1.
          6    1    1    2  501    0  0.24045247683E+02  0.44141282200E+02  0.35065078042E+03  0.39422277526E+03  0.17300000000E+03 0.  1.
         -6    1    1    2    0  503 -0.24045247683E+02 -0.44141282200E+02  0.21606094152E+02  0.18144544644E+03  0.17300000000E+03 0. -1.
<mgrwt>
<rscale>  2 0.18015445E+03</rscale>
<asrwt>0</asrwt>
<pdfrwt beam="1">  1       21 0.72917314E-01 0.18015445E+03</pdfrwt>
<pdfrwt beam="2">  1       21 0.15647027E-01 0.18015445E+03</pdfrwt>
<totfact> 0.61831939E+04</totfact>
</mgrwt>
</event>
<event>
 4    1  0.4439578E+000  0.1822456E+03  0.7546771E-02  0.1165647E+00
         21   -1    0    0  501  502  0.00000000000E+00  0.00000000000E+00  0.10417799110E+04  0.10417799110E+04  0.00000000000E+00 0. -1.
         21   -1    0    0  502  503 -0.00000000000E+00 -0.00000000000E+00 -0.36540588389E+02  0.36540588389E+02  0.00000000000E+00 0. -1.
          6    1    1    2  501    0 -0.56940271012E+02 -0.65002200225E+01  0.69514292177E+03  0.71863560238E+03  0.17300000000E+03 0. -1.
         -6    1    1    2    0  503  0.56940271012E+02  0.65002200225E+01  0.31009640086E+03  0.35968489703E+03  0.17300000000E+03 0. -1.
<mgrwt>
<rscale>  2 0.18224557E+03</rscale>
<asrwt>0</asrwt>
<pdfrwt beam="1">  1       21 0.16027381E+00 0.18224557E+03</pdfrwt>
<pdfrwt beam="2">  1       21 0.56216298E-02 0.18224557E+03</pdfrwt>
<totfact> 0.55541429E+04</totfact>
</mgrwt>
</event>
<event>
 4    1  0.4439578E+000  0.1953327E+03  0.7546771E-02  0.1153738E+00
         21   -1    0    0  501  502  0.00000000000E+00  0.00000000000E+00  0.16243265521E+04  0.16243265521E+04  0.00000000000E+00 0. -1.
         21   -1    0    0  502  503 -0.00000000000E+00 -0.00000000000E+00 -0.55662795561E+03  0.55662795561E+03  0.00000000000E+00 0. -1.
          6    1    1    2  501    0 -0.61464297979E+02 -0.66693394069E+02  0.16010695209E+04  0.16129409411E+04  0.17300000000E+03 0. -1.
         -6    1    1    2    0  503  0.61464297979E+02  0.66693394069E+02 -0.53337092446E+03  0.56801356656E+03  0.17300000000E+03 0. -1.
<mgrwt>
<rscale>  2 0.19533271E+03</rscale>
<asrwt>0</asrwt>
<pdfrwt beam="1">  1       21 0.24989639E+00 0.19533271E+03</pdfrwt>
<pdfrwt beam="2">  1       21 0.85635071E-01 0.19533271E+03</pdfrwt>
<totfact> 0.78112470E+01</totfact>
</mgrwt>
</event>
<event>
 4    1  0.4439578E+000  0.2290047E+03  0.7546771E-02  0.1127342E+00
         21   -1    0    0  501  502  0.00000000000E+00  0.00000000000E+00  0.10779348178E+03  0.10779348178E+03  0.00000000000E+00 0.  1.
         21   -1    0    0  502  503 -0.00000000000E+00 -0.00000000000E+00 -0.49754287622E+03  0.49754287622E+03  0.00000000000E+00 0.  1.
          6    1    1    2  501    0 -0.21228208953E+02 -0.14853797316E+03 -0.23993495768E+03  0.33168049421E+03  0.17300000000E+03 0.  1.
         -6    1    1    2    0  503  0.21228208953E+02  0.14853797316E+03 -0.14981443676E+03  0.27365586379E+03  0.17300000000E+03 0.  1.
<mgrwt>
<rscale>  2 0.22900473E+03</rscale>
<asrwt>0</asrwt>
<pdfrwt beam="1">  1       21 0.16583612E-01 0.22900473E+03</pdfrwt>
<pdfrwt beam="2">  1       21 0.76545059E-01 0.22900473E+03</pdfrwt>
<totfact> 0.48745227E+04</totfact>
</mgrwt>
</event>
<event>
 4    1  0.4439578E+000  0.1863140E+03  0.7546771E-02  0.1161828E+00
         21   -1    0    0  501  502  0.00000000000E+00  0.00000000000E+00  0.63020698154E+02  0.63020698154E+02  0.00000000000E+00 0.  1.
         21   -1    0    0  502  503 -0.00000000000E+00 -0.00000000000E+00 -0.58054331818E+03  0.58054331818E+03  0.00000000000E+00 0.  1.
          6    1    1    2  501    0  0.68376152149E+02  0.10422045682E+02 -0.18594817176E+03  0.26322925331E+03  0.17300000000E+03 0. -1.
         -6    1    1    2    0  503 -0.68376152149E+02 -0.10422045682E+02 -0.33157444827E+03  0.38033476302E+03  0.17300000000E+03 0. -1.
<mgrwt>
<rscale>  2 0.18631403E+03</rscale>
<asrwt>0</asrwt>
<pdfrwt beam="1">  1       21 0.96954917E-02 0.18631403E+03</pdfrwt>
<pdfrwt beam="2">  1       21 0.89314359E-01 0.18631403E+03</pdfrwt>
<totfact> 0.91876501E+04</totfact>
</mgrwt>
</event>
<event>
 4    1  0.4439578E+000  0.2500474E+03  0.7546771E-02  0.1113275E+00
         21   -1    0    0  501  502  0.00000000000E+00  0.00000000000E+00  0.10009340687E+04  0.10009340687E+04  0.00000000000E+00 0.  1.
         21   -1    0    0  502  503 -0.00000000000E+00 -0.00000000000E+00 -0.64084162961E+02  0.64084162961E+02  0.00000000000E+00 0. -1.
          6    1    1    2  501    0 -0.90659987046E+02  0.15612647907E+03  0.55305959792E+03  0.60695850729E+03  0.17300000000E+03 0.  1.
         -6    1    1    2    0  503  0.90659987046E+02 -0.15612647907E+03  0.38379030782E+03  0.45805972437E+03  0.17300000000E+03 0. -1.
<mgrwt>
<rscale>  2 0.25004742E+03</rscale>
<asrwt>0</asrwt>
<pdfrwt beam="1">  1       21 0.15398985E+00 0.25004742E+03</pdfrwt>
<pdfrwt beam="2">  1       21 0.98591027E-02 0.25004742E+03</pdfrwt>
<totfact> 0.22412247E+04</totfact>
</mgrwt>
</event>
<event>
 4    1  0.4439578E+000  0.2096349E+03  0.7546771E-02  0.1141855E+00
         21   -1    0    0  503  502  0.00000000000E+00  0.00000000000E+00  0.37366942220E+02  0.37366942220E+02  0.00000000000E+00 0.  1.
         21   -1    0    0  501  503 -0.00000000000E+00 -0.00000000000E+00 -0.12721139056E+04  0.12721139056E+04  0.00000000000E+00 0.  1.
          6    1    1    2  501    0 -0.44185159776E+02 -0.10984296687E+03 -0.79726088884E+03  0.82436140775E+03  0.17300000000E+03 0.  1.
         -6    1    1    2    0  502  0.44185159776E+02  0.10984296687E+03 -0.43748607452E+03  0.48511944005E+03  0.17300000000E+03 0.  1.
<mgrwt>
<rscale>  2 0.20963493E+03</rscale>
<asrwt>0</asrwt>
<pdfrwt beam="1">  1       21 0.57487603E-02 0.20963493E+03</pdfrwt>
<pdfrwt beam="2">  1       21 0.19570983E+00 0.20963493E+03</pdfrwt>
<totfact> 0.30003668E+04</totfact>
</mgrwt>
</event>
<event>
 4    1  0.4439578E+000  0.1900112E+03  0.7546771E-02  0.1158451E+00
         21   -1    0    0  503  502  0.00000000000E+00  0.00000000000E+00  0.31846379456E+02  0.31846379456E+02  0.00000000000E+00 0. -1.
         21   -1    0    0  501  503 -0.00000000000E+00 -0.00000000000E+00 -0.11492427070E+04  0.11492427070E+04  0.00000000000E+00 0. -1.
          6    1    1    2  501    0  0.65475626950E+02  0.43453619498E+02 -0.49002373932E+03  0.52557353422E+03  0.17300000000E+03 0. -1.
         -6    1    1    2    0  502 -0.65475626950E+02 -0.43453619498E+02 -0.62737258822E+03  0.65551555224E+03  0.17300000000E+03 0. -1.
<mgrwt>
<rscale>  2 0.19001125E+03</rscale>
<asrwt>0</asrwt>
<pdfrwt beam="1">  1       21 0.48994434E-02 0.19001125E+03</pdfrwt>
<pdfrwt beam="2">  1       21 0.17680656E+00 0.19001125E+03</pdfrwt>
<totfact> 0.53358563E+04</totfact>
</mgrwt>
</event>
<event>
 4    1  0.4439578E+000  0.1840007E+03  0.7546771E-02  0.1163986E+00
         21   -1    0    0  503  502  0.00000000000E+00  0.00000000000E+00  0.53938165715E+03  0.53938165715E+03  0.00000000000E+00 0.  1.
         21   -1    0    0  501  503 -0.00000000000E+00 -0.00000000000E+00 -0.63005266216E+02  0.63005266216E+02  0.00000000000E+00 0.  1.
          6    1    1    2  501    0 -0.62585192127E+02 -0.32167468017E+01  0.25664631266E+03  0.31579041077E+03  0.17300000000E+03 0.  1.
         -6    1    1    2    0  502  0.62585192127E+02  0.32167468017E+01  0.21973007828E+03  0.28659651260E+03  0.17300000000E+03 0.  1.
<mgrwt>
<rscale>  2 0.18400069E+03</rscale>
<asrwt>0</asrwt>
<pdfrwt beam="1">  1       21 0.82981790E-01 0.18400069E+03</pdfrwt>
<pdfrwt beam="2">  1       21 0.96931182E-02 0.18400069E+03</pdfrwt>
<totfact> 0.10888270E+05</totfact>
</mgrwt>
</event>
<event>
 4    1  0.4439578E+000  0.2379471E+03  0.7546771E-02  0.1121168E+00
         21   -1    0    0  503  502  0.00000000000E+00  0.00000000000E+00  0.63485502062E+02  0.63485502062E+02  0.00000000000E+00 0. -1.
         21   -1    0    0  501  503 -0.00000000000E+00 -0.00000000000E+00 -0.99912622008E+03  0.99912622008E+03  0.00000000000E+00 0.  1.
          6    1    1    2  501    0  0.64366860521E+02 -0.15015574491E+03 -0.64192430844E+03  0.68460620668E+03  0.17300000000E+03 0.  1.
         -6    1    1    2    0  502 -0.64366860521E+02  0.15015574491E+03 -0.29371640958E+03  0.37800551546E+03  0.17300000000E+03 0.  1.
<mgrwt>
<rscale>  2 0.23794714E+03</rscale>
<asrwt>0</asrwt>
<pdfrwt beam="1">  1       21 0.97670005E-02 0.23794714E+03</pdfrwt>
<pdfrwt beam="2">  1       21 0.15371172E+00 0.23794714E+03</pdfrwt>
<totfact> 0.23049562E+04</totfact>
</mgrwt>
</event>
<event>
 4    1  0.4439578E+000  0.1969628E+03  0.7546771E-02  0.1152327E+00
         21   -1    0    0  501  502  0.00000000000E+00  0.00000000000E+00  0.92408334296E+02  0.92408334296E+02  0.00000000000E+00 0.  1.
         21   -1    0    0  502  503 -0.00000000000E+00 -0.00000000000E+00 -0.46389552860E+03  0.46389552860E+03  0.00000000000E+00 0. -1.
          6    1    1    2  501    0  0.18488756674E+02  0.92322927462E+02 -0.10000074378E+03  0.22089478449E+03  0.17300000000E+03 0.  1.
         -6    1    1    2    0  503 -0.18488756674E+02 -0.92322927462E+02 -0.27148645052E+03  0.33540907841E+03  0.17300000000E+03 0. -1.
<mgrwt>
<rscale>  2 0.19696283E+03</rscale>
<asrwt>0</asrwt>
<pdfrwt beam="1">  1       21 0.14216667E-01 0.19696283E+03</pdfrwt>
<pdfrwt beam="2">  1       21 0.71368544E-01 0.19696283E+03</pdfrwt>
<totfact> 0.76626981E+04</totfact>
</mgrwt>
</event>
<event>
 4    1  0.4439578E+000  0.2695264E+03  0.7546771E-02  0.1101551E+00
         21   -1    0    0  503  502  0.00000000000E+00  0.00000000000E+00  0.51418998202E+03  0.51418998202E+03  0.00000000000E+00 0. -1.
         21   -1    0    0  501  503 -0.00000000000E+00 -0.00000000000E+00 -0.17597777563E+03  0.17597777563E+03  0.00000000000E+00 0. -1.
          6    1    1    2  501    0 -0.81692593784E+02  0.18984682971E+03  0.15873999019E+02  0.26999348599E+03  0.17300000000E+03 0. -1.
         -6    1    1    2    0  502  0.81692593784E+02 -0.18984682971E+03  0.32233820737E+03  0.42017427166E+03  0.17300000000E+03 0. -1.
<mgrwt>
<rscale>  2 0.26952643E+03</rscale>
<asrwt>0</asrwt>
<pdfrwt beam="1">  1       21 0.79106151E-01 0.26952643E+03</pdfrwt>
<pdfrwt beam="2">  1       21 0.27073504E-01 0.26952643E+03</pdfrwt>
<totfact> 0.17590173E+04</totfact>
</mgrwt>
</event>
<event>
 4    1  0.4439578E+000  0.2133879E+03  0.7546771E-02  0.1138911E+00
         21   -1    0    0  503  502  0.00000000000E+00  0.00000000000E+00  0.37916298954E+03  0.37916298954E+03  0.00000000000E+00 0. -1.
         21   -1    0    0  501  503 -0.00000000000E+00 -0.00000000000E+00 -0.33805305573E+03  0.33805305573E+03  0.00000000000E+00 0. -1.
          6    1    1    2  501    0  0.15689379726E+02 -0.12393247851E+03 -0.26739503624E+03  0.34210308574E+03  0.17300000000E+03 0. -1.
         -6    1    1    2    0  502 -0.15689379726E+02  0.12393247851E+03  0.30850497004E+03  0.37511295953E+03  0.17300000000E+03 0. -1.
<mgrwt>
<rscale>  2 0.21338795E+03</rscale>
<asrwt>0</asrwt>
<pdfrwt beam="1">  1       21 0.58332767E-01 0.21338795E+03</pdfrwt>
<pdfrwt beam="2">  1       21 0.52008163E-01 0.21338795E+03</pdfrwt>
<totfact> 0.95233799E+03</totfact>
</mgrwt>
</event>
<event>
 4    1  0.4439578E+000  0.1765567E+03  0.7546771E-02  0.1171178E+00
         21   -1    0    0  501  502  0.00000000000E+00  0.00000000000E+00  0.30890008699E+03  0.30890008699E+03  0.00000000000E+00 0. -1.
         21   -1    0    0  502  503 -0.00000000000E+00 -0.00000000000E+00 -0.11096051491E+03  0.11096051491E+03  0.00000000000E+00 0. -1.
          6    1    1    2  501    0 -0.30912737436E+02  0.16960728458E+02  0.16213881374E+03  0.23971078108E+03  0.17300000000E+03 0. -1.
         -6    1    1    2    0  503  0.30912737436E+02 -0.16960728458E+02  0.35800758337E+02  0.18014982082E+03  0.17300000000E+03 0. -1.
<mgrwt>
<rscale>  2 0.17655669E+03</rscale>
<asrwt>0</asrwt>
<pdfrwt beam="1">  1       21 0.47523090E-01 0.17655669E+03</pdfrwt>
<pdfrwt beam="2">  1       21 0.17070849E-01 0.17655669E+03</pdfrwt>
<totfact> 0.13182670E+05</totfact>
</mgrwt>
</event>
<event>
 4    1  0.4439578E+000  0.2377940E+03  0.7546771E-02  0.1121271E+00
         21   -1    0    0  503  502  0.00000000000E+00  0.00000000000E+00  0.14431232635E+03  0.14431232635E+03  0.00000000000E+00 0. -1.
         21   -1    0    0  501  503 -0.00000000000E+00 -0.00000000000E+00 -0.40039373191E+03  0.40039373191E+03  0.00000000000E+00 0. -1.
          6    1    1    2  501    0  0.32498693293E+02 -0.15987759314E+03 -0.16786981249E+03  0.29107779682E+03  0.17300000000E+03 0. -1.
         -6    1    1    2    0  502 -0.32498693293E+02  0.15987759314E+03 -0.88211593063E+02  0.25362826145E+03  0.17300000000E+03 0. -1.
<mgrwt>
<rscale>  2 0.23779405E+03</rscale>
<asrwt>0</asrwt>
<pdfrwt beam="1">  1       21 0.22201897E-01 0.23779405E+03</pdfrwt>
<pdfrwt beam="2">  1       21 0.61599035E-01 0.23779405E+03</pdfrwt>
<totfact> 0.45482772E+04</totfact>
</mgrwt>
</event>
<event>
 4    1  0.4439578E+000  0.2139896E+03  0.7546771E-02  0.1138445E+00
         21   -1    0    0  501  502  0.00000000000E+00  0.00000000000E+00  0.22181604216E+03  0.22181604216E+03  0.00000000000E+00 0.  1.
         21   -1    0    0  502  503 -0.00000000000E+00 -0.00000000000E+00 -0.24459854833E+03  0.24459854833E+03  0.00000000000E+00 0. -1.
          6    1    1    2  501    0  0.12509507448E+03 -0.14620447780E+02 -0.10350308969E+03  0.23770659378E+03  0.17300000000E+03 0.  1.
         -6    1    1    2    0  503 -0.12509507448E+03  0.14620447780E+02  0.80720583518E+02  0.22870799670E+03  0.17300000000E+03 0.  1.
<mgrwt>
<rscale>  2 0.21398957E+03</rscale>
<asrwt>0</asrwt>
<pdfrwt beam="1">  1       21 0.34125545E-01 0.21398957E+03</pdfrwt>
<pdfrwt beam="2">  1       21 0.37630546E-01 0.21398957E+03</pdfrwt>
<totfact> 0.55794576E+04</totfact>
</mgrwt>
</event>
<event>
 4    1  0.4439578E+000  0.2712827E+03  0.7546771E-02  0.1100548E+00
         21   -1    0    0  501  502  0.00000000000E+00  0.00000000000E+00  0.77494036000E+03  0.77494036000E+03  0.00000000000E+00 0. -1.
         21   -1    0    0  502  503 -0.00000000000E+00 -0.00000000000E+00 -0.12617953557E+03  0.12617953557E+03  0.00000000000E+00 0. -1.
          6    1    1    2  501    0  0.11704516406E+03 -0.17310615137E+03  0.54846795676E+03  0.61189166497E+03  0.17300000000E+03 0. -1.
         -6    1    1    2    0  503 -0.11704516406E+03  0.17310615137E+03  0.10029286767E+03  0.28922823060E+03  0.17300000000E+03 0. -1.
<mgrwt>
<rscale>  2 0.27128271E+03</rscale>
<asrwt>0</asrwt>
<pdfrwt beam="1">  1       21 0.11922159E+00 0.27128271E+03</pdfrwt>
<pdfrwt beam="2">  1       21 0.19412237E-01 0.27128271E+03</pdfrwt>
<totfact> 0.12492930E+04</totfact>
</mgrwt>
</event>
<event>
 4    1  0.4439578E+000  0.2132368E+03  0.7546771E-02  0.1139028E+00
         21   -1    0    0  503  502  0.00000000000E+00  0.00000000000E+00  0.46852957911E+03  0.46852957911E+03  0.00000000000E+00 0.  1.
         21   -1    0    0  501  503 -0.00000000000E+00 -0.00000000000E+00 -0.12533867206E+03  0.12533867206E+03  0.00000000000E+00 0.  1.
          6    1    1    2  501    0  0.12220099784E+03  0.24654605984E+02  0.30524379294E+02  0.21541047143E+03  0.17300000000E+03 0. -1.
         -6    1    1    2    0  502 -0.12220099784E+03 -0.24654605984E+02  0.31266652775E+03  0.37845777974E+03  0.17300000000E+03 0. -1.
<mgrwt>
<rscale>  2 0.21323680E+03</rscale>
<asrwt>0</asrwt>
<pdfrwt beam="1">  1       21 0.72081473E-01 0.21323680E+03</pdfrwt>
<pdfrwt beam="2">  1       21 0.19282873E-01 0.21323680E+03</pdfrwt>
<totfact> 0.42467353E+04</totfact>
</mgrwt>
</event>
<event>
 4    1  0.4439578E+000  0.2470390E+03  0.7546771E-02  0.1115191E+00
         21   -1    0    0  501  502  0.00000000000E+00  0.00000000000E+00  0.13866789197E+03  0.13866789197E+03  0.00000000000E+00 0. -1.
         21   -1    0    0  502  503 -0.00000000000E+00 -0.00000000000E+00 -0.49656306967E+03  0.49656306967E+03  0.00000000000E+00 0. -1.
          6    1    1    2  501    0 -0.16322674314E+03 -0.66755496554E+02 -0.71849409710E+02  0.25727534602E+03  0.17300000000E+03 0. -1.
         -6    1    1    2    0  503  0.16322674314E+03  0.66755496554E+02 -0.28604576799E+03  0.37795561562E+03  0.17300000000E+03 0. -1.
<mgrwt>
<rscale>  2 0.24703900E+03</rscale>
<asrwt>0</asrwt>
<pdfrwt beam="1">  1       21 0.21333521E-01 0.24703900E+03</pdfrwt>
<pdfrwt beam="2">  1       21 0.76394321E-01 0.24703900E+03</pdfrwt>
<totfact> 0.30354144E+04</totfact>
</mgrwt>
</event>
<event>
 4    1  0.4439578E+000  0.1792357E+03  0.7546771E-02  0.1168545E+00
         21   -1    0    0  503  502  0.00000000000E+00  0.00000000000E+00  0.50155434512E+03  0.50155434512E+03  0.00000000000E+00 0.  1.
         21   -1    0    0  501  503 -0.00000000000E+00 -0.00000000000E+00 -0.87276489461E+02  0.87276489461E+02  0.00000000000E+00 0.  1.
          6    1    1    2  501    0 -0.43600732005E+02  0.17187429595E+02  0.35901430716E+03  0.40126886786E+03  0.17300000000E+03 0.  1.
         -6    1    1    2    0  502  0.43600732005E+02 -0.17187429595E+02  0.55263548498E+02  0.18756196672E+03  0.17300000000E+03 0.  1.
<mgrwt>
<rscale>  2 0.17923569E+03</rscale>
<asrwt>0</asrwt>
<pdfrwt beam="1">  1       21 0.77162205E-01 0.17923569E+03</pdfrwt>
<pdfrwt beam="2">  1       21 0.13427153E-01 0.17923569E+03</pdfrwt>
<totfact> 0.71960738E+04</totfact>
</mgrwt>
</event>
<event>
 4    1  0.4439578E+000  0.1989880E+03  0.7546771E-02  0.1150596E+00
         21   -1    0    0  503  502  0.00000000000E+00  0.00000000000E+00  0.19206338548E+03  0.19206338548E+03  0.00000000000E+00 0. -1.
         21   -1    0    0  501  503 -0.00000000000E+00 -0.00000000000E+00 -0.22115253841E+03  0.22115253841E+03  0.00000000000E+00 0.  1.
          6    1    1    2  501    0 -0.98320363424E+02 -0.56270172255E+00 -0.68335224624E+02  0.21039466111E+03  0.17300000000E+03 0.  1.
         -6    1    1    2    0  502  0.98320363424E+02  0.56270172255E+00  0.39246071692E+02  0.20282126279E+03  0.17300000000E+03 0. -1.
<mgrwt>
<rscale>  2 0.19898797E+03</rscale>
<asrwt>0</asrwt>
<pdfrwt beam="1">  1       21 0.29548213E-01 0.19898797E+03</pdfrwt>
<pdfrwt beam="2">  1       21 0.34023468E-01 0.19898797E+03</pdfrwt>
<totfact> 0.91115418E+04</totfact>
</mgrwt>
</event>
<event>
 4    1  0.4439578E+000  0.2955856E+03  0.7546771E-02  0.1087468E+00
         21   -1    0    0  503  502  0.00000000000E+00  0.00000000000E+00  0.45762397312E+03  0.45762397312E+03  0.00000000000E+00 0.  1.
         21   -1    0    0  501  503 -0.00000000000E+00 -0.00000000000E+00 -0.19109414423E+03  0.19109414423E+03  0.00000000000E+00 0. -1.
          6    1    1    2  501    0  0.14829930201E+03  0.18827941028E+03  0.12355036061E+03  0.32036777448E+03  0.17300000000E+03 0.  1.
         -6    1    1    2    0  502 -0.14829930201E+03 -0.18827941028E+03  0.14297946828E+03  0.32835034287E+03  0.17300000000E+03 0. -1.
<mgrwt>
<rscale>  2 0.29558555E+03</rscale>
<asrwt>0</asrwt>
<pdfrwt beam="1">  1       21 0.70403688E-01 0.29558555E+03</pdfrwt>
<pdfrwt beam="2">  1       21 0.29399099E-01 0.29558555E+03</pdfrwt>
<totfact> 0.19253405E+04</totfact>
</mgrwt>
</event>
<event>
 4    1  0.4439578E+000  0.2133433E+03  0.7546771E-02  0.1138945E+00
         21   -1    0    0  501  502  0.00000000000E+00  0.00000000000E+00  0.28694406022E+03  0.28694406022E+03  0.00000000000E+00 0. -1.
         21   -1    0    0  502  503 -0.00000000000E+00 -0.00000000000E+00 -0.16653277747E+03  0.16653277747E+03  0.00000000000E+00 0. -1.
          6    1    1    2  501    0  0.11657765518E+03 -0.44676923693E+02  0.10962647224E+03  0.23986108608E+03  0.17300000000E+03 0. -1.
         -6    1    1    2    0  503 -0.11657765518E+03  0.44676923693E+02  0.10784810518E+02  0.21361575161E+03  0.17300000000E+03 0. -1.
<mgrwt>
<rscale>  2 0.21334333E+03</rscale>
<asrwt>0</asrwt>
<pdfrwt beam="1">  1       21 0.44145240E-01 0.21334333E+03</pdfrwt>
<pdfrwt beam="2">  1       21 0.25620427E-01 0.21334333E+03</pdfrwt>
<totfact> 0.70592496E+04</totfact>
</mgrwt>
</event>
<event>
 4    1  0.4439578E+000  0.1892921E+03  0.7546771E-02  0.1159101E+00
         21   -1    0    0  501  502  0.00000000000E+00  0.00000000000E+00  0.15422420969E+04  0.15422420969E+04  0.00000000000E+00 0. -1.
         21   -1    0    0  502  503 -0.00000000000E+00 -0.00000000000E+00 -0.24143294855E+02  0.24143294855E+02  0.00000000000E+00 0. -1.
          6    1    1    2  501    0  0.23305062677E+02  0.73207739071E+02  0.91109378329E+03  0.93055004216E+03  0.17300000000E+03 0. -1.
         -6    1    1    2    0  503 -0.23305062677E+02 -0.73207739071E+02  0.60700501875E+03  0.63583534960E+03  0.17300000000E+03 0. -1.
<mgrwt>
<rscale>  2 0.18929210E+03</rscale>
<asrwt>0</asrwt>
<pdfrwt beam="1">  1       21 0.23726794E+00 0.18929210E+03</pdfrwt>
<pdfrwt beam="2">  1       21 0.37143543E-02 0.18929210E+03</pdfrwt>
<totfact> 0.35178133E+04</totfact>
</mgrwt>
</event>
<event>
 4    1  0.4439578E+000  0.1829548E+03  0.7546771E-02  0.1164974E+00
         21   -1    0    0  503  502  0.00000000000E+00  0.00000000000E+00  0.11428795836E+03  0.11428795836E+03  0.00000000000E+00 0. -1.
         21   -1    0    0  501  503 -0.00000000000E+00 -0.00000000000E+00 -0.49747997490E+03  0.49747997490E+03  0.00000000000E+00 0.  1.
          6    1    1    2  501    0  0.53286089194E+02 -0.26533650970E+02 -0.38776199132E+03  0.42875611232E+03  0.17300000000E+03 0.  1.
         -6    1    1    2    0  502 -0.53286089194E+02  0.26533650970E+02  0.45699747915E+01  0.18301182094E+03  0.17300000000E+03 0. -1.
<mgrwt>
<rscale>  2 0.18295475E+03</rscale>
<asrwt>0</asrwt>
<pdfrwt beam="1">  1       21 0.17582763E-01 0.18295475E+03</pdfrwt>
<pdfrwt beam="2">  1       21 0.76535381E-01 0.18295475E+03</pdfrwt>
<totfact> 0.44762386E+04</totfact>
</mgrwt>
</event>
<event>
 4    1  0.4439578E+000  0.1870969E+03  0.7546771E-02  0.1161106E+00
         21   -1    0    0  501  502  0.00000000000E+00  0.00000000000E+00  0.28429977743E+03  0.28429977743E+03  0.00000000000E+00 0.  1.
         21   -1    0    0  502  503 -0.00000000000E+00 -0.00000000000E+00 -0.12348982907E+03  0.12348982907E+03  0.00000000000E+00 0.  1.
          6    1    1    2  501    0 -0.67468699809E+02  0.22896109412E+02  0.69367890007E+02  0.19954238007E+03  0.17300000000E+03 0.  1.
         -6    1    1    2    0  503  0.67468699809E+02 -0.22896109412E+02  0.91442058358E+02  0.20824722643E+03  0.17300000000E+03 0.  1.
<mgrwt>
<rscale>  2 0.18709692E+03</rscale>
<asrwt>0</asrwt>
<pdfrwt beam="1">  1       21 0.43738427E-01 0.18709692E+03</pdfrwt>
<pdfrwt beam="2">  1       21 0.18998435E-01 0.18709692E+03</pdfrwt>
<totfact> 0.12784021E+05</totfact>
</mgrwt>
</event>
<event>
 4    1  0.4439578E+000  0.2006457E+03  0.7546771E-02  0.1149195E+00
         21   -1    0    0  501  502  0.00000000000E+00  0.00000000000E+00  0.34434758682E+03  0.34434758682E+03  0.00000000000E+00 0. -1.
         21   -1    0    0  502  503 -0.00000000000E+00 -0.00000000000E+00 -0.11929490351E+03  0.11929490351E+03  0.00000000000E+00 0. -1.
          6    1    1    2  501    0 -0.32070455072E+02  0.96442661831E+02  0.79769156821E+02  0.21592086395E+03  0.17300000000E+03 0. -1.
         -6    1    1    2    0  503  0.32070455072E+02 -0.96442661831E+02  0.14528352649E+03  0.24772162639E+03  0.17300000000E+03 0. -1.
<mgrwt>
<rscale>  2 0.20064571E+03</rscale>
<asrwt>0</asrwt>
<pdfrwt beam="1">  1       21 0.52976551E-01 0.20064571E+03</pdfrwt>
<pdfrwt beam="2">  1       21 0.18353062E-01 0.20064571E+03</pdfrwt>
<totfact> 0.91127924E+04</totfact>
</mgrwt>
</event>
<event>
 4    1  0.4439578E+000  0.2289377E+03  0.7546771E-02  0.1127390E+00
         21   -1    0    0  501  502  0.00000000000E+00  0.00000000000E+00  0.60030049397E+03  0.60030049397E+03  0.00000000000E+00 0. -1.
         21   -1    0    0  502  503 -0.00000000000E+00 -0.00000000000E+00 -0.87895697485E+02  0.87895697485E+02  0.00000000000E+00 0. -1.
          6    1    1    2  501    0  0.29352756060E+02 -0.14704384354E+03  0.28428173296E+03  0.36500490395E+03  0.17300000000E+03 0. -1.
         -6    1    1    2    0  503 -0.29352756060E+02  0.14704384354E+03  0.22812306353E+03  0.32319128751E+03  0.17300000000E+03 0. -1.
<mgrwt>
<rscale>  2 0.22893771E+03</rscale>
<asrwt>0</asrwt>
<pdfrwt beam="1">  1       21 0.92353920E-01 0.22893771E+03</pdfrwt>
<pdfrwt beam="2">  1       21 0.13522415E-01 0.22893771E+03</pdfrwt>
<totfact> 0.46015715E+04</totfact>
</mgrwt>
</event>
<event>
 4    1  0.4439578E+000  0.1784461E+03  0.7546771E-02  0.1169315E+00
         21   -1    0    0  501  502  0.00000000000E+00  0.00000000000E+00  0.15548140620E+03  0.15548140620E+03  0.00000000000E+00 0. -1.
         21   -1    0    0  502  503 -0.00000000000E+00 -0.00000000000E+00 -0.40857461527E+03  0.40857461527E+03  0.00000000000E+00 0. -1.
          6    1    1    2  501    0 -0.13214897794E+02  0.41706023479E+02  0.72625549755E+02  0.19265901587E+03  0.17300000000E+03 0. -1.
         -6    1    1    2    0  503  0.13214897794E+02 -0.41706023479E+02 -0.32571875883E+03  0.37139700560E+03  0.17300000000E+03 0. -1.
<mgrwt>
<rscale>  2 0.17844614E+03</rscale>
<asrwt>0</asrwt>
<pdfrwt beam="1">  1       21 0.23920216E-01 0.17844614E+03</pdfrwt>
<pdfrwt beam="2">  1       21 0.62857634E-01 0.17844614E+03</pdfrwt>
<totfact> 0.38898893E+04</totfact>
</mgrwt>
</event>
<event>
 4    1  0.4439578E+000  0.2072314E+03  0.7546771E-02  0.1143777E+00
         21   -1    0    0  503  502  0.00000000000E+00  0.00000000000E+00  0.53862660863E+03  0.53862660863E+03  0.00000000000E+00 0.  1.
         21   -1    0    0  501  503 -0.00000000000E+00 -0.00000000000E+00 -0.87905787234E+02  0.87905787234E+02  0.00000000000E+00 0.  1.
          6    1    1    2  501    0 -0.98319412844E+02  0.57871728548E+02  0.12982541855E+03  0.24453932855E+03  0.17300000000E+03 0.  1.
         -6    1    1    2    0  502  0.98319412844E+02 -0.57871728548E+02  0.32089540285E+03  0.38199306731E+03  0.17300000000E+03 0.  1.
<mgrwt>
<rscale>  2 0.20723138E+03</rscale>
<asrwt>0</asrwt>
<pdfrwt beam="1">  1       21 0.82865630E-01 0.20723138E+03</pdfrwt>
<pdfrwt beam="2">  1       21 0.13523968E-01 0.20723138E+03</pdfrwt>
<totfact> 0.59690532E+04</totfact>
</mgrwt>
</event>
<event>
 4    1  0.4439578E+000  0.3221900E+03  0.7546771E-02  0.1074646E+00
         21   -1    0    0  503  502  0.00000000000E+00  0.00000000000E+00  0.21899154123E+03  0.21899154123E+03  0.00000000000E+00 0. -1.
         21   -1    0    0  501  503 -0.00000000000E+00 -0.00000000000E+00 -0.47402035466E+03  0.47402035466E+03  0.00000000000E+00 0. -1.
          6    1    1    2  501    0  0.25767693829E+03 -0.86486998894E+02 -0.12773621021E+03  0.34658757177E+03  0.17300000000E+03 0. -1.
         -6    1    1    2    0  502 -0.25767693829E+03  0.86486998894E+02 -0.12729260322E+03  0.34642432412E+03  0.17300000000E+03 0. -1.
<mgrwt>
<rscale>  2 0.32219001E+03</rscale>
<asrwt>0</asrwt>
<pdfrwt beam="1">  1       21 0.33691006E-01 0.32219001E+03</pdfrwt>
<pdfrwt beam="2">  1       21 0.72926208E-01 0.32219001E+03</pdfrwt>
<totfact> 0.13436458E+04</totfact>
</mgrwt>
</event>
<event>
 4    1  0.4439578E+000  0.1887043E+03  0.7546771E-02  0.1159635E+00
         21   -1    0    0  501  502  0.00000000000E+00  0.00000000000E+00  0.45995950788E+03  0.45995950788E+03  0.00000000000E+00 0. -1.
         21   -1    0    0  502  503 -0.00000000000E+00 -0.00000000000E+00 -0.88876401827E+02  0.88876401827E+02  0.00000000000E+00 0. -1.
          6    1    1    2  501    0 -0.52602659610E+02  0.53974856023E+02  0.28407278468E+03  0.34103763997E+03  0.17300000000E+03 0. -1.
         -6    1    1    2    0  503  0.52602659610E+02 -0.53974856023E+02  0.87010321378E+02  0.20779826974E+03  0.17300000000E+03 0. -1.
<mgrwt>
<rscale>  2 0.18870433E+03</rscale>
<asrwt>0</asrwt>
<pdfrwt beam="1">  1       21 0.70763000E-01 0.18870433E+03</pdfrwt>
<pdfrwt beam="2">  1       21 0.13673293E-01 0.18870433E+03</pdfrwt>
<totfact> 0.84088094E+04</totfact>
</mgrwt>
</event>
<event>
 4    1  0.4439578E+000  0.2201152E+03  0.7546771E-02  0.1133797E+00
         21   -1    0    0  503  502  0.00000000000E+00  0.00000000000E+00  0.10530886348E+03  0.10530886348E+03  0.00000000000E+00 0. -1.
         21   -1    0    0  501  503 -0.00000000000E+00 -0.00000000000E+00 -0.52958092514E+03  0.52958092514E+03  0.00000000000E+00 0.  1.
          6    1    1    2  501    0  0.28832601710E+02 -0.13300521232E+03 -0.32713433450E+03  0.39429377149E+03  0.17300000000E+03 0. -1.
         -6    1    1    2    0  502 -0.28832601710E+02  0.13300521232E+03 -0.97137727160E+02  0.24059601714E+03  0.17300000000E+03 0.  1.
<mgrwt>
<rscale>  2 0.22011521E+03</rscale>
<asrwt>0</asrwt>
<pdfrwt beam="1">  1       21 0.16201363E-01 0.22011521E+03</pdfrwt>
<pdfrwt beam="2">  1       21 0.81473992E-01 0.22011521E+03</pdfrwt>
<totfact> 0.44359392E+04</totfact>
</mgrwt>
</event>
<event>
 4    1  0.4439578E+000  0.1844090E+03  0.7546771E-02  0.1163603E+00
         21   -1    0    0  501  502  0.00000000000E+00  0.00000000000E+00  0.21115418016E+03  0.21115418016E+03  0.00000000000E+00 0. -1.
         21   -1    0    0  502  503 -0.00000000000E+00 -0.00000000000E+00 -0.17945779909E+03  0.17945779909E+03  0.00000000000E+00 0. -1.
          6    1    1    2  501    0 -0.42883511426E+02 -0.47314911293E+02  0.78396804509E+02  0.20038152445E+03  0.17300000000E+03 0. -1.
         -6    1    1    2    0  503  0.42883511426E+02  0.47314911293E+02 -0.46700423437E+02  0.19023045480E+03  0.17300000000E+03 0. -1.
<mgrwt>
<rscale>  2 0.18440905E+03</rscale>
<asrwt>0</asrwt>
<pdfrwt beam="1">  1       21 0.32485259E-01 0.18440905E+03</pdfrwt>
<pdfrwt beam="2">  1       21 0.27608892E-01 0.18440905E+03</pdfrwt>
<totfact> 0.11449198E+05</totfact>
</mgrwt>
</event>
<event>
 4    1  0.4439578E+000  0.2243642E+03  0.7546771E-02  0.1130671E+00
         21   -1    0    0  503  502  0.00000000000E+00  0.00000000000E+00  0.18205615198E+04  0.18205615198E+04  0.00000000000E+00 0. -1.
         21   -1    0    0  501  503 -0.00000000000E+00 -0.00000000000E+00 -0.32061873554E+02  0.32061873554E+02  0.00000000000E+00 0.  1.
          6    1    1    2  501    0  0.61959018780E+02 -0.12872989573E+03  0.12378498100E+04  0.12580188624E+04  0.17300000000E+03 0. -1.
         -6    1    1    2    0  502 -0.61959018780E+02  0.12872989573E+03  0.55064983624E+03  0.59460453094E+03  0.17300000000E+03 0.  1.
<mgrwt>
<rscale>  2 0.22436423E+03</rscale>
<asrwt>0</asrwt>
<pdfrwt beam="1">  1       21 0.28008631E+00 0.22436423E+03</pdfrwt>
<pdfrwt beam="2">  1       21 0.49325974E-02 0.22436423E+03</pdfrwt>
<totfact> 0.11871229E+04</totfact>
</mgrwt>
</event>
<event>
 4    1  0.4439578E+000  0.2108828E+03  0.7546771E-02  0.1140869E+00
         21   -1    0    0  503  502  0.00000000000E+00  0.00000000000E+00  0.14672278576E+03  0.14672278576E+03  0.00000000000E+00 0.  1.
         21   -1    0    0  501  503 -0.00000000000E+00 -0.00000000000E+00 -0.37628077558E+03  0.37628077558E+03  0.00000000000E+00 0. -1.
          6    1    1    2  501    0 -0.74432497418E+02  0.94880801670E+02 -0.23010292332E+03  0.31212003864E+03  0.17300000000E+03 0. -1.
         -6    1    1    2    0  502  0.74432497418E+02 -0.94880801670E+02  0.54493349700E+00  0.21088352271E+03  0.17300000000E+03 0.  1.
<mgrwt>
<rscale>  2 0.21088282E+03</rscale>
<asrwt>0</asrwt>
<pdfrwt beam="1">  1       21 0.22572736E-01 0.21088282E+03</pdfrwt>
<pdfrwt beam="2">  1       21 0.57889350E-01 0.21088282E+03</pdfrwt>
<totfact> 0.50996405E+04</totfact>
</mgrwt>
</event>
<event>
 4    1  0.4439578E+000  0.2166290E+03  0.7546771E-02  0.1136421E+00
         21   -1    0    0  503  502  0.00000000000E+00  0.00000000000E+00  0.16279478458E+03  0.16279478458E+03  0.00000000000E+00 0. -1.
         21   -1    0    0  501  503 -0.00000000000E+00 -0.00000000000E+00 -0.90089924117E+03  0.90089924117E+03  0.00000000000E+00 0. -1.
          6    1    1    2  501    0  0.27336100221E+02 -0.12748282730E+03 -0.80763244737E+03  0.83618078408E+03  0.17300000000E+03 0. -1.
         -6    1    1    2    0  502 -0.27336100221E+02  0.12748282730E+03  0.69527990779E+02  0.22751324167E+03  0.17300000000E+03 0. -1.
<mgrwt>
<rscale>  2 0.21662902E+03</rscale>
<asrwt>0</asrwt>
<pdfrwt beam="1">  1       21 0.25045351E-01 0.21662902E+03</pdfrwt>
<pdfrwt beam="2">  1       21 0.13859988E+00 0.21662902E+03</pdfrwt>
<totfact> 0.54388543E+03</totfact>
</mgrwt>
</event>
<event>
 4    1  0.4439578E+000  0.2032949E+03  0.7546771E-02  0.1146988E+00
         21   -1    0    0  501  502  0.00000000000E+00  0.00000000000E+00  0.18417874545E+02  0.18417874545E+02  0.00000000000E+00 0.  1.
         21   -1    0    0  502  503 -0.00000000000E+00 -0.00000000000E+00 -0.23147799374E+04  0.23147799374E+04  0.00000000000E+00 0.  1.
          6    1    1    2  501    0  0.14905801428E+02  0.10572433960E+03 -0.13522468471E+04  0.13674429986E+04  0.17300000000E+03 0.  1.
         -6    1    1    2    0  503 -0.14905801428E+02 -0.10572433960E+03 -0.94411521577E+03  0.96575481337E+03  0.17300000000E+03 0.  1.
<mgrwt>
<rscale>  2 0.20329491E+03</rscale>
<asrwt>0</asrwt>
<pdfrwt beam="1">  1       21 0.28335192E-02 0.20329491E+03</pdfrwt>
<pdfrwt beam="2">  1       21 0.35611998E+00 0.20329491E+03</pdfrwt>
<totfact> 0.11049404E+04</totfact>
</mgrwt>
</event>
<event>
 4    1  0.4439578E+000  0.2076734E+03  0.7546771E-02  0.1143422E+00
         21   -1    0    0  501  502  0.00000000000E+00  0.00000000000E+00  0.19973023632E+03  0.19973023632E+03  0.00000000000E+00 0. -1.
         21   -1    0    0  502  503 -0.00000000000E+00 -0.00000000000E+00 -0.27823707096E+03  0.27823707096E+03  0.00000000000E+00 0. -1.
          6    1    1    2  501    0  0.10040367157E+03 -0.55842236467E+02  0.73835643111E+02  0.22040860880E+03  0.17300000000E+03 0. -1.
         -6    1    1    2    0  503 -0.10040367157E+03  0.55842236467E+02 -0.15234247775E+03  0.25755869848E+03  0.17300000000E+03 0. -1.
<mgrwt>
<rscale>  2 0.20767343E+03</rscale>
<asrwt>0</asrwt>
<pdfrwt beam="1">  1       21 0.30727729E-01 0.20767343E+03</pdfrwt>
<pdfrwt beam="2">  1       21 0.42805703E-01 0.20767343E+03</pdfrwt>
<totfact> 0.52997555E+04</totfact>
</mgrwt>
</event>
<event>
 4    1  0.4439578E+000  0.2696865E+03  0.7546771E-02  0.1101459E+00
         21   -1    0    0  501  502  0.00000000000E+00  0.00000000000E+00  0.63000762574E+02  0.63000762574E+02  0.00000000000E+00 0.  1.
         21   -1    0    0  502  503 -0.00000000000E+00 -0.00000000000E+00 -0.14198184075E+04  0.14198184075E+04  0.00000000000E+00 0.  1.
          6    1    1    2  501    0 -0.16207966835E+03  0.12857678528E+03 -0.35787646179E+03  0.44811423824E+03  0.17300000000E+03 0.  1.
         -6    1    1    2    0  503  0.16207966835E+03 -0.12857678528E+03 -0.99894118311E+03  0.10347049318E+04  0.17300000000E+03 0.  1.
<mgrwt>
<rscale>  2 0.26968650E+03</rscale>
<asrwt>0</asrwt>
<pdfrwt beam="1">  1       21 0.96924259E-02 0.26968650E+03</pdfrwt>
<pdfrwt beam="2">  1       21 0.21843358E+00 0.26968650E+03</pdfrwt>
<totfact> 0.83076826E+03</totfact>
</mgrwt>
</event>
<event>
 4    1  0.4439578E+000  0.2313108E+03  0.7546771E-02  0.1125721E+00
         21   -1    0    0  503  502  0.00000000000E+00  0.00000000000E+00  0.73441774492E+02  0.73441774492E+02  0.00000000000E+00 0.  1.
         21   -1    0    0  501  503 -0.00000000000E+00 -0.00000000000E+00 -0.84313590741E+03  0.84313590741E+03  0.00000000000E+00 0.  1.
          6    1    1    2  501    0 -0.11976550431E+03  0.96082872592E+02 -0.55380940191E+03  0.60017459799E+03  0.17300000000E+03 0.  1.
         -6    1    1    2    0  502  0.11976550431E+03 -0.96082872592E+02 -0.21588473102E+03  0.31640308392E+03  0.17300000000E+03 0.  1.
<mgrwt>
<rscale>  2 0.23131082E+03</rscale>
<asrwt>0</asrwt>
<pdfrwt beam="1">  1       21 0.11298734E-01 0.23131082E+03</pdfrwt>
<pdfrwt beam="2">  1       21 0.12971322E+00 0.23131082E+03</pdfrwt>
<totfact> 0.27773698E+04</totfact>
</mgrwt>
</event>
<event>
 4    1  0.4439578E+000  0.3347423E+03  0.7546771E-02  0.1069058E+00
         21   -1    0    0  503  502  0.00000000000E+00  0.00000000000E+00  0.71122659979E+03  0.71122659979E+03  0.00000000000E+00 0.  1.
         21   -1    0    0  501  503 -0.00000000000E+00 -0.00000000000E+00 -0.20469942828E+03  0.20469942828E+03  0.00000000000E+00 0.  1.
          6    1    1    2  501    0 -0.26961513784E+03 -0.97113828043E+02  0.33468015748E+02  0.33641124569E+03  0.17300000000E+03 0.  1.
         -6    1    1    2    0  502  0.26961513784E+03  0.97113828043E+02  0.47305915576E+03  0.57951478238E+03  0.17300000000E+03 0.  1.
<mgrwt>
<rscale>  2 0.33474232E+03</rscale>
<asrwt>0</asrwt>
<pdfrwt beam="1">  1       21 0.10941948E+00 0.33474232E+03</pdfrwt>
<pdfrwt beam="2">  1       21 0.31492220E-01 0.33474232E+03</pdfrwt>
<totfact> 0.58922231E+03</totfact>
</mgrwt>
</event>
<event>
 4    1  0.4439578E+000  0.2090704E+03  0.7546771E-02  0.1142304E+00
         21   -1    0    0  503  502  0.00000000000E+00  0.00000000000E+00  0.28494852579E+03  0.28494852579E+03  0.00000000000E+00 0. -1.
         21   -1    0    0  501  503 -0.00000000000E+00 -0.00000000000E+00 -0.16212744137E+03  0.16212744137E+03  0.00000000000E+00 0. -1.
          6    1    1    2  501    0  0.11188615468E+03  0.35537329843E+02  0.11328180409E+03  0.23778810012E+03  0.17300000000E+03 0. -1.
         -6    1    1    2    0  502 -0.11188615468E+03 -0.35537329843E+02  0.95392803431E+01  0.20928786704E+03  0.17300000000E+03 0. -1.
<mgrwt>
<rscale>  2 0.20907036E+03</rscale>
<asrwt>0</asrwt>
<pdfrwt beam="1">  1       21 0.43838235E-01 0.20907036E+03</pdfrwt>
<pdfrwt beam="2">  1       21 0.24942683E-01 0.20907036E+03</pdfrwt>
<totfact> 0.75520502E+04</totfact>
</mgrwt>
</event>
<event>
 4    1  0.4439578E+000  0.2153779E+03  0.7546771E-02  0.1137377E+00
         21   -1    0    0  501  502  0.00000000000E+00  0.00000000000E+00  0.20586240878E+03  0.20586240878E+03  0.00000000000E+00 0. -1.
         21   -1    0    0  502  503 -0.00000000000E+00 -0.00000000000E+00 -0.47728372633E+03  0.47728372633E+03  0.00000000000E+00 0.  1.
          6    1    1    2  501    0 -0.11576109464E+03 -0.55299231603E+02  0.11246143147E+03  0.24297162307E+03  0.17300000000E+03 0. -1.
         -6    1    1    2    0  503  0.11576109464E+03  0.55299231603E+02 -0.38388274903E+03  0.44017451204E+03  0.17300000000E+03 0.  1.
<mgrwt>
<rscale>  2 0.21537789E+03</rscale>
<asrwt>0</asrwt>
<pdfrwt beam="1">  1       21 0.31671140E-01 0.21537789E+03</pdfrwt>
<pdfrwt beam="2">  1       21 0.73428265E-01 0.21537789E+03</pdfrwt>
<totfact> 0.15751147E+04</totfact>
</mgrwt>
</event>
<event>
 4    1  0.4439578E+000  0.2162625E+03  0.7546771E-02  0.1136701E+00
         21   -1    0    0  501  502  0.00000000000E+00  0.00000000000E+00  0.85902845793E+03  0.85902845793E+03  0.00000000000E+00 0. -1.
         21   -1    0    0  502  503 -0.00000000000E+00 -0.00000000000E+00 -0.11049904850E+03  0.11049904850E+03  0.00000000000E+00 0. -1.
          6    1    1    2  501    0 -0.18321892302E+01  0.12975786126E+03  0.71953237790E+03  0.75132968950E+03  0.17300000000E+03 0. -1.
         -6    1    1    2    0  503  0.18321892302E+01 -0.12975786126E+03  0.28997031529E+02  0.21819781693E+03  0.17300000000E+03 0. -1.
<mgrwt>
<rscale>  2 0.21626248E+03</rscale>
<asrwt>0</asrwt>
<pdfrwt beam="1">  1       21 0.13215822E+00 0.21626248E+03</pdfrwt>
<pdfrwt beam="2">  1       21 0.16999854E-01 0.21626248E+03</pdfrwt>
<totfact> 0.12727204E+04</totfact>
</mgrwt>
</event>
<event>
 4    1  0.4439578E+000  0.1768674E+03  0.7546771E-02  0.1170870E+00
         21   -1    0    0  501  502  0.00000000000E+00  0.00000000000E+00  0.50519028830E+02  0.50519028830E+02  0.00000000000E+00 0. -1.
         21   -1    0    0  502  503 -0.00000000000E+00 -0.00000000000E+00 -0.79194358505E+03  0.79194358505E+03  0.00000000000E+00 0. -1.
          6    1    1    2  501    0 -0.35478116943E+02 -0.97156222578E+01 -0.17398848968E+03  0.24810095654E+03  0.17300000000E+03 0. -1.
         -6    1    1    2    0  503  0.35478116943E+02  0.97156222578E+01 -0.56743606655E+03  0.59436165734E+03  0.17300000000E+03 0. -1.
<mgrwt>
<rscale>  2 0.17686744E+03</rscale>
<asrwt>0</asrwt>
<pdfrwt beam="1">  1       21 0.77721592E-02 0.17686744E+03</pdfrwt>
<pdfrwt beam="2">  1       21 0.12183746E+00 0.17686744E+03</pdfrwt>
<totfact> 0.64670913E+04</totfact>
</mgrwt>
</event>
<event>
 4    1  0.4439578E+000  0.2282017E+03  0.7546771E-02  0.1127912E+00
         21   -1    0    0  503  502  0.00000000000E+00  0.00000000000E+00  0.11420743453E+03  0.11420743453E+03  0.00000000000E+00 0. -1.
         21   -1    0    0  501  503 -0.00000000000E+00 -0.00000000000E+00 -0.51230597227E+03  0.51230597227E+03  0.00000000000E+00 0.  1.
          6    1    1    2  501    0 -0.13583805668E+03 -0.60786873528E+02 -0.30292153608E+03  0.37925911809E+03  0.17300000000E+03 0. -1.
         -6    1    1    2    0  502  0.13583805668E+03  0.60786873528E+02 -0.95177001665E+02  0.24725428870E+03  0.17300000000E+03 0. -1.
<mgrwt>
<rscale>  2 0.22820171E+03</rscale>
<asrwt>0</asrwt>
<pdfrwt beam="1">  1       21 0.17570375E-01 0.22820171E+03</pdfrwt>
<pdfrwt beam="2">  1       21 0.78816301E-01 0.22820171E+03</pdfrwt>
<totfact> 0.41023606E+04</totfact>
</mgrwt>
</event>
<event>
 4    1  0.4439578E+000  0.2713189E+03  0.7546771E-02  0.1100527E+00
         21   -1    0    0  501  502  0.00000000000E+00  0.00000000000E+00  0.80536884714E+02  0.80536884714E+02  0.00000000000E+00 0. -1.
         21   -1    0    0  502  503 -0.00000000000E+00 -0.00000000000E+00 -0.92363769846E+03  0.92363769846E+03  0.00000000000E+00 0.  1.
          6    1    1    2  501    0  0.12079378518E+03 -0.17056901364E+03 -0.37036879438E+03  0.45911542209E+03  0.17300000000E+03 0. -1.
         -6    1    1    2    0  503 -0.12079378518E+03  0.17056901364E+03 -0.47273201937E+03  0.54505916109E+03  0.17300000000E+03 0.  1.
<mgrwt>
<rscale>  2 0.27131887E+03</rscale>
<asrwt>0</asrwt>
<pdfrwt beam="1">  1       21 0.12390290E-01 0.27131887E+03</pdfrwt>
<pdfrwt beam="2">  1       21 0.14209811E+00 0.27131887E+03</pdfrwt>
<totfact> 0.18220775E+04</totfact>
</mgrwt>
</event>
<event>
 4    1  0.4439578E+000  0.1805113E+03  0.7546771E-02  0.1167309E+00
         21   -1    0    0  503  502  0.00000000000E+00  0.00000000000E+00  0.85896695077E+02  0.85896695077E+02  0.00000000000E+00 0. -1.
         21   -1    0    0  501  503 -0.00000000000E+00 -0.00000000000E+00 -0.56747232475E+03  0.56747232475E+03  0.00000000000E+00 0. -1.
          6    1    1    2  501    0 -0.22611380899E+02  0.46303961410E+02 -0.42888580726E+03  0.46532501228E+03  0.17300000000E+03 0. -1.
         -6    1    1    2    0  502  0.22611380899E+02 -0.46303961410E+02 -0.52689822420E+02  0.18804400755E+03  0.17300000000E+03 0. -1.
<mgrwt>
<rscale>  2 0.18051131E+03</rscale>
<asrwt>0</asrwt>
<pdfrwt beam="1">  1       21 0.13214876E-01 0.18051131E+03</pdfrwt>
<pdfrwt beam="2">  1       21 0.87303435E-01 0.18051131E+03</pdfrwt>
<totfact> 0.55938600E+04</totfact>
</mgrwt>
</event>
<event>
 4    1  0.4439578E+000  0.2002304E+03  0.7546771E-02  0.1149545E+00
         21   -1    0    0  503  502  0.00000000000E+00  0.00000000000E+00  0.39685960224E+02  0.39685960224E+02  0.00000000000E+00 0. -1.
         21   -1    0    0  501  503 -0.00000000000E+00 -0.00000000000E+00 -0.11457346331E+04  0.11457346331E+04  0.00000000000E+00 0.  1.
          6    1    1    2  501    0 -0.86066410338E+02  0.52495618501E+02 -0.75685365241E+03  0.78289186234E+03  0.17300000000E+03 0.  1.
         -6    1    1    2    0  502  0.86066410338E+02 -0.52495618501E+02 -0.34919502047E+03  0.40252873099E+03  0.17300000000E+03 0. -1.
<mgrwt>
<rscale>  2 0.20023041E+03</rscale>
<asrwt>0</asrwt>
<pdfrwt beam="1">  1       21 0.61055338E-02 0.20023041E+03</pdfrwt>
<pdfrwt beam="2">  1       21 0.17626682E+00 0.20023041E+03</pdfrwt>
<totfact> 0.36754549E+04</totfact>
</mgrwt>
</event>
<event>
 4    1  0.4439578E+000  0.2159163E+03  0.7546771E-02  0.1136965E+00
         21   -1    0    0  501  502  0.00000000000E+00  0.00000000000E+00  0.10607024613E+03  0.10607024613E+03  0.00000000000E+00 0.  1.
         21   -1    0    0  502  503 -0.00000000000E+00 -0.00000000000E+00 -0.56829877368E+03  0.56829877368E+03  0.00000000000E+00 0.  1.
          6    1    1    2  501    0  0.11940199909E+03 -0.49335655872E+02 -0.70603638415E+02  0.22716671870E+03  0.17300000000E+03 0.  1.
         -6    1    1    2    0  503 -0.11940199909E+03  0.49335655872E+02 -0.39162488914E+03  0.44720230111E+03  0.17300000000E+03 0.  1.
<mgrwt>
<rscale>  2 0.21591629E+03</rscale>
<asrwt>0</asrwt>
<pdfrwt beam="1">  1       21 0.16318499E-01 0.21591629E+03</pdfrwt>
<pdfrwt beam="2">  1       21 0.87430580E-01 0.21591629E+03</pdfrwt>
<totfact> 0.37314649E+04</totfact>
</mgrwt>
</event>
<event>
 4    1  0.4439578E+000  0.2307789E+03  0.7546771E-02  0.1126093E+00
         21   -1    0    0  501  502  0.00000000000E+00  0.00000000000E+00  0.81437886126E+03  0.81437886126E+03  0.00000000000E+00 0. -1.
         21   -1    0    0  502  503 -0.00000000000E+00 -0.00000000000E+00 -0.70462983397E+02  0.70462983397E+02  0.00000000000E+00 0. -1.
          6    1    1    2  501    0 -0.55744034507E+02 -0.14220577165E+03  0.49057230902E+03  0.54214395621E+03  0.17300000000E+03 0. -1.
         -6    1    1    2    0  503  0.55744034507E+02  0.14220577165E+03  0.25334356884E+03  0.34269788845E+03  0.17300000000E+03 0. -1.
<mgrwt>
<rscale>  2 0.23077885E+03</rscale>
<asrwt>0</asrwt>
<pdfrwt beam="1">  1       21 0.12528905E+00 0.23077885E+03</pdfrwt>
<pdfrwt beam="2">  1       21 0.10840460E-01 0.23077885E+03</pdfrwt>
<totfact> 0.32657778E+04</totfact>
</mgrwt>
</event>
<event>
 4    1  0.4439578E+000  0.1832173E+03  0.7546771E-02  0.1164725E+00
         21   -1    0    0  503  502  0.00000000000E+00  0.00000000000E+00  0.24116699863E+03  0.24116699863E+03  0.00000000000E+00 0. -1.
         21   -1    0    0  501  503 -0.00000000000E+00 -0.00000000000E+00 -0.14062577089E+03  0.14062577089E+03  0.00000000000E+00 0.  1.
          6    1    1    2  501    0 -0.37357048119E+02  0.47371234496E+02  0.69544249999E+02  0.19597190005E+03  0.17300000000E+03 0. -1.
         -6    1    1    2    0  502  0.37357048119E+02 -0.47371234496E+02  0.30996977747E+02  0.18582086947E+03  0.17300000000E+03 0. -1.
<mgrwt>
<rscale>  2 0.18321731E+03</rscale>
<asrwt>0</asrwt>
<pdfrwt beam="1">  1       21 0.37102615E-01 0.18321731E+03</pdfrwt>
<pdfrwt beam="2">  1       21 0.21634734E-01 0.18321731E+03</pdfrwt>
<totfact> 0.14000417E+05</totfact>
</mgrwt>
</event>
<event>
 4    1  0.4439578E+000  0.2282317E+03  0.7546771E-02  0.1127891E+00
         21   -1    0    0  501  502  0.00000000000E+00  0.00000000000E+00  0.10856975818E+04  0.10856975818E+04  0.00000000000E+00 0. -1.
         21   -1    0    0  502  503 -0.00000000000E+00 -0.00000000000E+00 -0.10985227917E+03  0.10985227917E+03  0.00000000000E+00 0. -1.
          6    1    1    2  501    0  0.21200447027E+02  0.14734741420E+03  0.93655217162E+03  0.96396041910E+03  0.17300000000E+03 0. -1.
         -6    1    1    2    0  503 -0.21200447027E+02 -0.14734741420E+03  0.39293130973E+02  0.23158944183E+03  0.17300000000E+03 0. -1.
<mgrwt>
<rscale>  2 0.22823172E+03</rscale>
<asrwt>0</asrwt>
<pdfrwt beam="1">  1       21 0.16703039E+00 0.22823172E+03</pdfrwt>
<pdfrwt beam="2">  1       21 0.16900351E-01 0.22823172E+03</pdfrwt>
<totfact> 0.68681416E+03</totfact>
</mgrwt>
</event>
<event>
 4    1  0.4439578E+000  0.1991775E+03  0.7546771E-02  0.1150435E+00
         21   -1    0    0  501  502  0.00000000000E+00  0.00000000000E+00  0.13375901178E+03  0.13375901178E+03  0.00000000000E+00 0. -1.
         21   -1    0    0  502  503 -0.00000000000E+00 -0.00000000000E+00 -0.60675200816E+03  0.60675200816E+03  0.00000000000E+00 0. -1.
          6    1    1    2  501    0  0.98689215694E+02  0.17602230888E+01  0.28225376464E+02  0.20116742171E+03  0.17300000000E+03 0. -1.
         -6    1    1    2    0  503 -0.98689215694E+02 -0.17602230888E+01 -0.50121837285E+03  0.53934359823E+03  0.17300000000E+03 0. -1.
<mgrwt>
<rscale>  2 0.19917746E+03</rscale>
<asrwt>0</asrwt>
<pdfrwt beam="1">  1       21 0.20578309E-01 0.19917746E+03</pdfrwt>
<pdfrwt beam="2">  1       21 0.93346465E-01 0.19917746E+03</pdfrwt>
<totfact> 0.21037673E+04</totfact>
</mgrwt>
</event>
<event>
 4    1  0.4439578E+000  0.2161085E+03  0.7546771E-02  0.1136818E+00
         21   -1    0    0  503  502  0.00000000000E+00  0.00000000000E+00  0.28078060328E+03  0.28078060328E+03  0.00000000000E+00 0. -1.
         21   -1    0    0  501  503 -0.00000000000E+00 -0.00000000000E+00 -0.25273613979E+03  0.25273613979E+03  0.00000000000E+00 0.  1.
          6    1    1    2  501    0 -0.12875336607E+03  0.14015955936E+02 -0.14195132291E+03  0.25855957606E+03  0.17300000000E+03 0.  1.
         -6    1    1    2    0  502  0.12875336607E+03 -0.14015955936E+02  0.16999578639E+03  0.27495716701E+03  0.17300000000E+03 0. -1.
<mgrwt>
<rscale>  2 0.21610848E+03</rscale>
<asrwt>0</asrwt>
<pdfrwt beam="1">  1       21 0.43197016E-01 0.21610848E+03</pdfrwt>
<pdfrwt beam="2">  1       21 0.38882483E-01 0.21610848E+03</pdfrwt>
<totfact> 0.32456141E+04</totfact>
</mgrwt>
</event>
<event>
 4    1  0.4439578E+000  0.2291378E+03  0.7546771E-02  0.1127248E+00
         21   -1    0    0  501  502  0.00000000000E+00  0.00000000000E+00  0.52552577621E+03  0.52552577621E+03  0.00000000000E+00 0.  1.
         21   -1    0    0  502  503 -0.00000000000E+00 -0.00000000000E+00 -0.10514492029E+03  0.10514492029E+03  0.00000000000E+00 0. -1.
          6    1    1    2  501    0  0.13815039961E+03 -0.59072728570E+02  0.13981434407E+03  0.26842535458E+03  0.17300000000E+03 0. -1.
         -6    1    1    2    0  503 -0.13815039961E+03  0.59072728570E+02  0.28056651185E+03  0.36224534192E+03  0.17300000000E+03 0.  1.
<mgrwt>
<rscale>  2 0.22913778E+03</rscale>
<asrwt>0</asrwt>
<pdfrwt beam="1">  1       21 0.80850118E-01 0.22913778E+03</pdfrwt>
<pdfrwt beam="2">  1       21 0.16176142E-01 0.22913778E+03</pdfrwt>
<totfact> 0.45082964E+04</totfact>
</mgrwt>
</event>
<event>
 4    1  0.4439578E+000  0.1887523E+03  0.7546771E-02  0.1159592E+00
         21   -1    0    0  503  502  0.00000000000E+00  0.00000000000E+00  0.48694787904E+03  0.48694787904E+03  0.00000000000E+00 0.  1.
         21   -1    0    0  501  503 -0.00000000000E+00 -0.00000000000E+00 -0.12865729171E+03  0.12865729171E+03  0.00000000000E+00 0.  1.
          6    1    1    2  501    0  0.75416028841E+02  0.32943193954E+01 -0.23004027881E+02  0.19014892912E+03  0.17300000000E+03 0.  1.
         -6    1    1    2    0  502 -0.75416028841E+02 -0.32943193954E+01  0.38129461521E+03  0.42545624162E+03  0.17300000000E+03 0.  1.
<mgrwt>
<rscale>  2 0.18875230E+03</rscale>
<asrwt>0</asrwt>
<pdfrwt beam="1">  1       21 0.74915057E-01 0.18875230E+03</pdfrwt>
<pdfrwt beam="2">  1       21 0.19793430E-01 0.18875230E+03</pdfrwt>
<totfact> 0.37589304E+04</totfact>
</mgrwt>
</event>
<event>
 4    1  0.4439578E+000  0.2013445E+03  0.7546771E-02  0.1148610E+00
         21   -1    0    0  503  502  0.00000000000E+00  0.00000000000E+00  0.17313788617E+03  0.17313788617E+03  0.00000000000E+00 0.  1.
         21   -1    0    0  501  503 -0.00000000000E+00 -0.00000000000E+00 -0.29110858604E+03  0.29110858604E+03  0.00000000000E+00 0. -1.
          6    1    1    2  501    0 -0.96265798542E+02  0.36653903348E+02 -0.16166501336E+03  0.25821539293E+03  0.17300000000E+03 0. -1.
         -6    1    1    2    0  502  0.96265798542E+02 -0.36653903348E+02  0.43694313496E+02  0.20603107929E+03  0.17300000000E+03 0.  1.
<mgrwt>
<rscale>  2 0.20134451E+03</rscale>
<asrwt>0</asrwt>
<pdfrwt beam="1">  1       21 0.26636598E-01 0.20134451E+03</pdfrwt>
<pdfrwt beam="2">  1       21 0.44785936E-01 0.20134451E+03</pdfrwt>
<totfact> 0.63936090E+04</totfact>
</mgrwt>
</event>
<event>
 4    1  0.4439578E+000  0.1818286E+03  0.7546771E-02  0.1166045E+00
         21   -1    0    0  501  502  0.00000000000E+00  0.00000000000E+00  0.46391913766E+02  0.46391913766E+02  0.00000000000E+00 0.  1.
         21   -1    0    0  502  503 -0.00000000000E+00 -0.00000000000E+00 -0.10508749199E+04  0.10508749199E+04  0.00000000000E+00 0.  1.
          6    1    1    2  501    0 -0.38684886999E+02 -0.40448985388E+02 -0.19099577039E+03  0.26370632379E+03  0.17300000000E+03 0.  1.
         -6    1    1    2    0  503  0.38684886999E+02  0.40448985388E+02 -0.81348723571E+03  0.83356050984E+03  0.17300000000E+03 0.  1.
<mgrwt>
<rscale>  2 0.18182860E+03</rscale>
<asrwt>0</asrwt>
<pdfrwt beam="1">  1       21 0.71372172E-02 0.18182860E+03</pdfrwt>
<pdfrwt beam="2">  1       21 0.16167307E+00 0.18182860E+03</pdfrwt>
<totfact> 0.36037831E+04</totfact>
</mgrwt>
</event>
<event>
 4    1  0.4439578E+000  0.2418007E+03  0.7546771E-02  0.1118599E+00
         21   -1    0    0  501  502  0.00000000000E+00  0.00000000000E+00  0.10711549972E+03  0.10711549972E+03  0.00000000000E+00 0.  1.
         21   -1    0    0  502  503 -0.00000000000E+00 -0.00000000000E+00 -0.58925147785E+03  0.58925147785E+03  0.00000000000E+00 0. -1.
          6    1    1    2  501    0 -0.86061707510E+02 -0.14536833531E+03 -0.14655823216E+03  0.28274880340E+03  0.17300000000E+03 0. -1.
         -6    1    1    2    0  503  0.86061707510E+02  0.14536833531E+03 -0.33557774597E+03  0.41361817417E+03  0.17300000000E+03 0.  1.
<mgrwt>
<rscale>  2 0.24180068E+03</rscale>
<asrwt>0</asrwt>
<pdfrwt beam="1">  1       21 0.16479308E-01 0.24180068E+03</pdfrwt>
<pdfrwt beam="2">  1       21 0.90654074E-01 0.24180068E+03</pdfrwt>
<totfact> 0.33275775E+04</totfact>
</mgrwt>
</event>
<event>
 4    1  0.4439578E+000  0.2085735E+03  0.7546771E-02  0.1142701E+00
         21   -1    0    0  503  502  0.00000000000E+00  0.00000000000E+00  0.20237193645E+03  0.20237193645E+03  0.00000000000E+00 0. -1.
         21   -1    0    0  501  503 -0.00000000000E+00 -0.00000000000E+00 -0.30229886615E+03  0.30229886615E+03  0.00000000000E+00 0.  1.
          6    1    1    2  501    0  0.11599057493E+03 -0.10959136570E+02 -0.18559193548E+03  0.27919040575E+03  0.17300000000E+03 0. -1.
         -6    1    1    2    0  502 -0.11599057493E+03  0.10959136570E+02  0.85665005783E+02  0.22548039685E+03  0.17300000000E+03 0. -1.
<mgrwt>
<rscale>  2 0.20857353E+03</rscale>
<asrwt>0</asrwt>
<pdfrwt beam="1">  1       21 0.31134144E-01 0.20857353E+03</pdfrwt>
<pdfrwt beam="2">  1       21 0.46507518E-01 0.20857353E+03</pdfrwt>
<totfact> 0.43536954E+04</totfact>
</mgrwt>
</event>
<event>
 4    1  0.4439578E+000  0.2073712E+03  0.7546771E-02  0.1143665E+00
         21   -1    0    0  501  502  0.00000000000E+00  0.00000000000E+00  0.21330236287E+03  0.21330236287E+03  0.00000000000E+00 0. -1.
         21   -1    0    0  502  503 -0.00000000000E+00 -0.00000000000E+00 -0.24005746090E+03  0.24005746090E+03  0.00000000000E+00 0. -1.
          6    1    1    2  501    0  0.88859384232E+02 -0.71957163052E+02  0.77345468001E+02  0.22132587942E+03  0.17300000000E+03 0. -1.
         -6    1    1    2    0  503 -0.88859384232E+02  0.71957163052E+02 -0.10410056603E+03  0.23203394435E+03  0.17300000000E+03 0. -1.
<mgrwt>
<rscale>  2 0.20737122E+03</rscale>
<asrwt>0</asrwt>
<pdfrwt beam="1">  1       21 0.32815748E-01 0.20737122E+03</pdfrwt>
<pdfrwt beam="2">  1       21 0.36931917E-01 0.20737122E+03</pdfrwt>
<totfact> 0.62780138E+04</totfact>
</mgrwt>
</event>
<event>
 4    1  0.4439578E+000  0.3394448E+03  0.7546771E-02  0.1067033E+00
         21   -1    0    0  501  502  0.00000000000E+00  0.00000000000E+00  0.13726136927E+04  0.13726136927E+04  0.00000000000E+00 0. -1.
         21   -1    0    0  502  503 -0.00000000000E+00 -0.00000000000E+00 -0.12889264427E+03  0.12889264427E+03  0.00000000000E+00 0.  1.
          6    1    1    2  501    0  0.16438529709E+03  0.24139434362E+03  0.10652048506E+04  0.11179821684E+04  0.17300000000E+03 0. -1.
         -6    1    1    2    0  503 -0.16438529709E+03 -0.24139434362E+03  0.17851619787E+03  0.38352416864E+03  0.17300000000E+03 0.  1.
<mgrwt>
<rscale>  2 0.33944477E+03</rscale>
<asrwt>0</asrwt>
<pdfrwt beam="1">  1       21 0.21117133E+00 0.33944477E+03</pdfrwt>
<pdfrwt beam="2">  1       21 0.19829639E-01 0.33944477E+03</pdfrwt>
<totfact> 0.23880891E+03</totfact>
</mgrwt>
</event>
<event>
 4    1  0.4439578E+000  0.2310959E+03  0.7546771E-02  0.1125871E+00
         21   -1    0    0  501  502  0.00000000000E+00  0.00000000000E+00  0.97347587938E+02  0.97347587938E+02  0.00000000000E+00 0. -1.
         21   -1    0    0  502  503 -0.00000000000E+00 -0.00000000000E+00 -0.56315576876E+03  0.56315576876E+03  0.00000000000E+00 0. -1.
          6    1    1    2  501    0 -0.10545686141E+03  0.11115370990E+03 -0.17981742056E+03  0.29281325376E+03  0.17300000000E+03 0. -1.
         -6    1    1    2    0  503  0.10545686141E+03 -0.11115370990E+03 -0.28599076026E+03  0.36769010294E+03  0.17300000000E+03 0. -1.
<mgrwt>
<rscale>  2 0.23109586E+03</rscale>
<asrwt>0</asrwt>
<pdfrwt beam="1">  1       21 0.14976552E-01 0.23109586E+03</pdfrwt>
<pdfrwt beam="2">  1       21 0.86639349E-01 0.23109586E+03</pdfrwt>
<totfact> 0.44275244E+04</totfact>
</mgrwt>
</event>
