<event>
 5    1  0.6043464E+000  0.9285863E+02  0.7546771E-02  0.1296073E+00
          2   -1    0    0  501    0  0.00000000000E+00  0.00000000000E+00  0.46944290058E+02  0.46944290058E+02  0.00000000000E+00 0. -1.
         -2   -1    0    0    0  501 -0.00000000000E+00 -0.00000000000E+00 -0.45919986280E+02  0.45919986280E+02  0.00000000000E+00 0.  1.
         23    2    1    2    0    0  0.00000000000E+00  0.00000000000E+00  0.10243037782E+01  0.92864276338E+02  0.92858627071E+02 0.  0.
        -13    1    3    3    0    0 -0.19342092706E+02 -0.13340874887E+02 -0.39535080024E+02  0.45990412539E+02  0.00000000000E+00 0.  1.
         13    1    3    3    0    0  0.19342092706E+02  0.13340874887E+02  0.40559383802E+02  0.46873863799E+02  0.00000000000E+00 0. -1.
<mgrwt>
<rscale>  0 0.92858627E+02</rscale>
<asrwt>0</asrwt>
<pdfrwt beam="1">  1        2 0.72221984E-02 0.92858627E+02</pdfrwt>
<pdfrwt beam="2">  1       -2 0.70646133E-02 0.92858627E+02</pdfrwt>
<totfact> 0.94344083E+04</totfact>
</mgrwt>
</event>
<event>
 5    1  0.6043464E+000  0.7639754E+02  0.7546771E-02  0.1339597E+00
          1   -1    0    0  501    0  0.00000000000E+00  0.00000000000E+00  0.86731633475E+02  0.86731633475E+02  0.00000000000E+00 0. -1.
         -1   -1    0    0    0  501 -0.00000000000E+00 -0.00000000000E+00 -0.16823688686E+02  0.16823688686E+02  0.00000000000E+00 0.  1.
         23    2    1    2    0    0  0.00000000000E+00  0.00000000000E+00  0.69907944788E+02  0.10355532216E+03  0.76397539250E+02 0.  0.
        -13    1    3    3    0    0 -0.27000356572E+02 -0.12226496326E+02  0.22917031287E+01  0.29728073780E+02  0.00000000000E+00 0.  1.
         13    1    3    3    0    0  0.27000356572E+02  0.12226496326E+02  0.67616241660E+02  0.73827248382E+02  0.00000000000E+00 0. -1.
<mgrwt>
<rscale>  0 0.76397539E+02</rscale>
<asrwt>0</asrwt>
<pdfrwt beam="1">  1        1 0.13343328E-01 0.76397539E+02</pdfrwt>
<pdfrwt beam="2">  1       -1 0.25882599E-02 0.76397539E+02</pdfrwt>
<totfact> 0.16464163E+05</totfact>
</mgrwt>
</event>
<event>
 5    1  0.6043464E+000  0.9092962E+02  0.7546771E-02  0.1300616E+00
          3   -1    0    0  501    0  0.00000000000E+00  0.00000000000E+00  0.10049452050E+02  0.10049452050E+02  0.00000000000E+00 0. -1.
         -3   -1    0    0    0  501 -0.00000000000E+00 -0.00000000000E+00 -0.20568773041E+03  0.20568773041E+03  0.00000000000E+00 0.  1.
         23    2    1    2    0    0  0.00000000000E+00  0.00000000000E+00 -0.19563827836E+03  0.21573718246E+03  0.90929620785E+02 0.  0.
        -13    1    3    3    0    0 -0.86069551555E+00 -0.42919635935E+02 -0.13334544539E+03  0.14008513037E+03  0.00000000000E+00 0.  1.
         13    1    3    3    0    0  0.86069551555E+00  0.42919635935E+02 -0.62292832974E+02  0.75652052090E+02  0.00000000000E+00 0. -1.
<mgrwt>
<rscale>  0 0.90929621E+02</rscale>
<asrwt>0</asrwt>
<pdfrwt beam="1">  1        3 0.15460698E-02 0.90929621E+02</pdfrwt>
<pdfrwt beam="2">  1       -3 0.31644262E-01 0.90929621E+02</pdfrwt>
<totfact> 0.27906264E+04</totfact>
</mgrwt>
</event>
<event>
 5    1  0.6043464E+000  0.8872431E+02  0.7546771E-02  0.1305971E+00
         -2   -1    0    0    0  501 -0.00000000000E+00  0.00000000000E+00  0.93985384922E+02  0.93985384922E+02  0.00000000000E+00 0.  1.
          2   -1    0    0  501    0  0.00000000000E+00 -0.00000000000E+00 -0.20939434345E+02  0.20939434345E+02  0.00000000000E+00 0. -1.
         23    2    1    2    0    0  0.00000000000E+00  0.00000000000E+00  0.73045950577E+02  0.11492481927E+03  0.88724310015E+02 0.  0.
        -13    1    3    3    0    0  0.12144576899E+02  0.42368713961E+02  0.29994583148E+02  0.53312978616E+02  0.00000000000E+00 0. -1.
         13    1    3    3    0    0 -0.12144576899E+02 -0.42368713961E+02  0.43051367429E+02  0.61611840650E+02  0.00000000000E+00 0.  1.
<mgrwt>
<rscale>  0 0.88724310E+02</rscale>
<asrwt>0</asrwt>
<pdfrwt beam="2">  1        2 0.32214515E-02 0.88724310E+02</pdfrwt>
<pdfrwt beam="1">  1       -2 0.14459290E-01 0.88724310E+02</pdfrwt>
<totfact> 0.86962797E+04</totfact>
</mgrwt>
</event>
<event>
 5    1  0.6043464E+000  0.9213593E+02  0.7546771E-02  0.1297760E+00
         -3   -1    0    0    0  501 -0.00000000000E+00  0.00000000000E+00  0.26425935670E+02  0.26425935670E+02  0.00000000000E+00 0.  1.
          3   -1    0    0  501    0  0.00000000000E+00 -0.00000000000E+00 -0.80309636239E+02  0.80309636239E+02  0.00000000000E+00 0. -1.
         23    2    1    2    0    0  0.00000000000E+00  0.00000000000E+00 -0.53883700569E+02  0.10673557191E+03  0.92135927433E+02 0.  0.
        -13    1    3    3    0    0 -0.19304840403E+00 -0.27914367705E+02 -0.69395935167E+02  0.74800033488E+02  0.00000000000E+00 0. -1.
         13    1    3    3    0    0  0.19304840403E+00  0.27914367705E+02  0.15512234598E+02  0.31935538422E+02  0.00000000000E+00 0.  1.
<mgrwt>
<rscale>  0 0.92135927E+02</rscale>
<asrwt>0</asrwt>
<pdfrwt beam="2">  1        3 0.12355328E-01 0.92135927E+02</pdfrwt>
<pdfrwt beam="1">  1       -3 0.40655287E-02 0.92135927E+02</pdfrwt>
<totfact> 0.33217729E+04</totfact>
</mgrwt>
</event>
<event>
 5    1  0.6043464E+000  0.8745114E+02  0.7546771E-02  0.1309144E+00
          1   -1    0    0  501    0  0.00000000000E+00  0.00000000000E+00  0.24783632674E+02  0.24783632674E+02  0.00000000000E+00 0. -1.
         -1   -1    0    0    0  501 -0.00000000000E+00 -0.00000000000E+00 -0.77144673970E+02  0.77144673970E+02  0.00000000000E+00 0.  1.
         23    2    1    2    0    0  0.00000000000E+00  0.00000000000E+00 -0.52361041296E+02  0.10192830664E+03  0.87451135211E+02 0.  0.
        -13    1    3    3    0    0 -0.24652714207E+02  0.33944878391E+02 -0.40546277400E+02  0.58343908832E+02  0.00000000000E+00 0.  1.
         13    1    3    3    0    0  0.24652714207E+02 -0.33944878391E+02 -0.11814763896E+02  0.43584397812E+02  0.00000000000E+00 0. -1.
<mgrwt>
<rscale>  0 0.87451135E+02</rscale>
<asrwt>0</asrwt>
<pdfrwt beam="1">  1        1 0.38128666E-02 0.87451135E+02</pdfrwt>
<pdfrwt beam="2">  1       -1 0.11868411E-01 0.87451135E+02</pdfrwt>
<totfact> 0.94743863E+04</totfact>
</mgrwt>
</event>
<event>
 5    1  0.6043464E+000  0.8636486E+02  0.7546771E-02  0.1311901E+00
          1   -1    0    0  501    0  0.00000000000E+00  0.00000000000E+00  0.31076859759E+03  0.31076859759E+03  0.00000000000E+00 0. -1.
         -1   -1    0    0    0  501 -0.00000000000E+00 -0.00000000000E+00 -0.60003555098E+01  0.60003555098E+01  0.00000000000E+00 0.  1.
         23    2    1    2    0    0  0.00000000000E+00  0.00000000000E+00  0.30476824208E+03  0.31676895310E+03  0.86364855511E+02 0.  0.
        -13    1    3    3    0    0 -0.37214018914E+02 -0.21788288925E+02  0.14409349197E+03  0.15040793585E+03  0.00000000000E+00 0. -1.
         13    1    3    3    0    0  0.37214018914E+02  0.21788288925E+02  0.16067475012E+03  0.16636101726E+03  0.00000000000E+00 0.  1.
<mgrwt>
<rscale>  0 0.86364856E+02</rscale>
<asrwt>0</asrwt>
<pdfrwt beam="1">  1        1 0.47810541E-01 0.86364856E+02</pdfrwt>
<pdfrwt beam="2">  1       -1 0.92313186E-03 0.86364856E+02</pdfrwt>
<totfact> 0.14894792E+05</totfact>
</mgrwt>
</event>
<event>
 5    1  0.6043464E+000  0.9512738E+02  0.7546771E-02  0.1290889E+00
          2   -1    0    0  501    0  0.00000000000E+00  0.00000000000E+00  0.34622788224E+02  0.34622788224E+02  0.00000000000E+00 0. -1.
         -2   -1    0    0    0  501 -0.00000000000E+00 -0.00000000000E+00 -0.65341491023E+02  0.65341491023E+02  0.00000000000E+00 0.  1.
         23    2    1    2    0    0  0.00000000000E+00  0.00000000000E+00 -0.30718702799E+02  0.99964279247E+02  0.95127379990E+02 0.  0.
        -13    1    3    3    0    0  0.22712098060E+02  0.41664014110E+02 -0.11942057883E+02  0.48932016272E+02  0.00000000000E+00 0.  1.
         13    1    3    3    0    0 -0.22712098060E+02 -0.41664014110E+02 -0.18776644916E+02  0.51032262975E+02  0.00000000000E+00 0. -1.
<mgrwt>
<rscale>  0 0.95127380E+02</rscale>
<asrwt>0</asrwt>
<pdfrwt beam="1">  1        2 0.53265828E-02 0.95127380E+02</pdfrwt>
<pdfrwt beam="2">  1       -2 0.10052537E-01 0.95127380E+02</pdfrwt>
<totfact> 0.81077911E+04</totfact>
</mgrwt>
</event>
<event>
 5    1  0.6043464E+000  0.8910341E+02  0.7546771E-02  0.1305038E+00
          2   -1    0    0  501    0  0.00000000000E+00  0.00000000000E+00  0.12033257026E+03  0.12033257026E+03  0.00000000000E+00 0. -1.
         -2   -1    0    0    0  501 -0.00000000000E+00 -0.00000000000E+00 -0.16494739069E+02  0.16494739069E+02  0.00000000000E+00 0.  1.
         23    2    1    2    0    0  0.00000000000E+00  0.00000000000E+00  0.10383783119E+03  0.13682730932E+03  0.89103408417E+02 0.  0.
        -13    1    3    3    0    0  0.37294799369E+02 -0.18254086604E+02  0.27122848182E+02  0.49595994105E+02  0.00000000000E+00 0.  1.
         13    1    3    3    0    0 -0.37294799369E+02  0.18254086604E+02  0.76714983004E+02  0.87231315220E+02  0.00000000000E+00 0. -1.
<mgrwt>
<rscale>  0 0.89103408E+02</rscale>
<asrwt>0</asrwt>
<pdfrwt beam="1">  1        2 0.18512703E-01 0.89103408E+02</pdfrwt>
<pdfrwt beam="2">  1       -2 0.25376522E-02 0.89103408E+02</pdfrwt>
<totfact> 0.13839506E+05</totfact>
</mgrwt>
</event>
<event>
 5    1  0.6043464E+000  0.9063566E+02  0.7546771E-02  0.1301320E+00
          2   -1    0    0  501    0  0.00000000000E+00  0.00000000000E+00  0.14994889153E+02  0.14994889153E+02  0.00000000000E+00 0. -1.
         -2   -1    0    0    0  501 -0.00000000000E+00 -0.00000000000E+00 -0.13696038795E+03  0.13696038795E+03  0.00000000000E+00 0.  1.
         23    2    1    2    0    0  0.00000000000E+00  0.00000000000E+00 -0.12196549880E+03  0.15195527710E+03  0.90635662643E+02 0.  0.
        -13    1    3    3    0    0 -0.19125064676E+02 -0.41069343093E+02 -0.62854785204E+02  0.77480210790E+02  0.00000000000E+00 0.  1.
         13    1    3    3    0    0  0.19125064676E+02  0.41069343093E+02 -0.59110713595E+02  0.74475066315E+02  0.00000000000E+00 0. -1.
<mgrwt>
<rscale>  0 0.90635663E+02</rscale>
<asrwt>0</asrwt>
<pdfrwt beam="1">  1        2 0.23069061E-02 0.90635663E+02</pdfrwt>
<pdfrwt beam="2">  1       -2 0.21070828E-01 0.90635663E+02</pdfrwt>
<totfact> 0.73241141E+04</totfact>
</mgrwt>
</event>
<event>
 5    1  0.6043464E+000  0.9191187E+02  0.7546771E-02  0.1298287E+00
         -1   -1    0    0    0  501 -0.00000000000E+00  0.00000000000E+00  0.11371248279E+02  0.11371248279E+02  0.00000000000E+00 0.  1.
          1   -1    0    0  501    0  0.00000000000E+00 -0.00000000000E+00 -0.18572699406E+03  0.18572699406E+03  0.00000000000E+00 0. -1.
         23    2    1    2    0    0  0.00000000000E+00  0.00000000000E+00 -0.17435574578E+03  0.19709824234E+03  0.91911865644E+02 0.  0.
        -13    1    3    3    0    0 -0.40885135796E+02 -0.14894385004E+02 -0.55478727658E+02  0.70507632610E+02  0.00000000000E+00 0. -1.
         13    1    3    3    0    0  0.40885135796E+02  0.14894385004E+02 -0.11887701812E+03  0.12659060973E+03  0.00000000000E+00 0.  1.
<mgrwt>
<rscale>  0 0.91911866E+02</rscale>
<asrwt>0</asrwt>
<pdfrwt beam="2">  1        1 0.28573383E-01 0.91911866E+02</pdfrwt>
<pdfrwt beam="1">  1       -1 0.17494228E-02 0.91911866E+02</pdfrwt>
<totfact> 0.11423199E+05</totfact>
</mgrwt>
</event>
<event>
 5    1  0.6043464E+000  0.9803423E+02  0.7546771E-02  0.1284485E+00
         -1   -1    0    0    0  501 -0.00000000000E+00  0.00000000000E+00  0.52491788249E+01  0.52491788249E+01  0.00000000000E+00 0.  1.
          1   -1    0    0  501    0  0.00000000000E+00 -0.00000000000E+00 -0.45772442735E+03  0.45772442735E+03  0.00000000000E+00 0. -1.
         23    2    1    2    0    0  0.00000000000E+00  0.00000000000E+00 -0.45247524853E+03  0.46297360618E+03  0.98034226099E+02 0.  0.
        -13    1    3    3    0    0  0.47927679688E+02  0.74577696939E+01 -0.19284515144E+03  0.19885153568E+03  0.00000000000E+00 0.  1.
         13    1    3    3    0    0 -0.47927679688E+02 -0.74577696939E+01 -0.25963009709E+03  0.26412207050E+03  0.00000000000E+00 0. -1.
<mgrwt>
<rscale>  0 0.98034226E+02</rscale>
<asrwt>0</asrwt>
<pdfrwt beam="2">  1        1 0.70419146E-01 0.98034226E+02</pdfrwt>
<pdfrwt beam="1">  1       -1 0.80756594E-03 0.98034226E+02</pdfrwt>
<totfact> 0.11351388E+05</totfact>
</mgrwt>
</event>
<event>
 5    1  0.6043464E+000  0.9304368E+02  0.7546771E-02  0.1295644E+00
         -2   -1    0    0    0  501 -0.00000000000E+00  0.00000000000E+00  0.56402294021E+02  0.56402294021E+02  0.00000000000E+00 0.  1.
          2   -1    0    0  501    0  0.00000000000E+00 -0.00000000000E+00 -0.38372224601E+02  0.38372224601E+02  0.00000000000E+00 0. -1.
         23    2    1    2    0    0  0.00000000000E+00  0.00000000000E+00  0.18030069420E+02  0.94774518622E+02  0.93043677790E+02 0.  0.
        -13    1    3    3    0    0  0.15907476906E+02 -0.19210762843E+02 -0.30986097964E+02  0.39777374191E+02  0.00000000000E+00 0. -1.
         13    1    3    3    0    0 -0.15907476906E+02  0.19210762843E+02  0.49016167384E+02  0.54997144431E+02  0.00000000000E+00 0.  1.
<mgrwt>
<rscale>  0 0.93043678E+02</rscale>
<asrwt>0</asrwt>
<pdfrwt beam="2">  1        2 0.59034191E-02 0.93043678E+02</pdfrwt>
<pdfrwt beam="1">  1       -2 0.86772760E-02 0.93043678E+02</pdfrwt>
<totfact> 0.88953634E+04</totfact>
</mgrwt>
</event>
<event>
 5    1  0.6043464E+000  0.9104290E+02  0.7546771E-02  0.1300346E+00
         -2   -1    0    0    0  501 -0.00000000000E+00  0.00000000000E+00  0.24293719527E+02  0.24293719527E+02  0.00000000000E+00 0.  1.
          2   -1    0    0  501    0  0.00000000000E+00 -0.00000000000E+00 -0.85297872802E+02  0.85297872802E+02  0.00000000000E+00 0. -1.
         23    2    1    2    0    0  0.00000000000E+00  0.00000000000E+00 -0.61004153275E+02  0.10959159233E+03  0.91042904129E+02 0.  0.
        -13    1    3    3    0    0 -0.34054030585E+00 -0.15393989794E+02  0.21063797899E+02  0.26091655207E+02  0.00000000000E+00 0.  1.
         13    1    3    3    0    0  0.34054030585E+00  0.15393989794E+02 -0.82067951174E+02  0.83499937122E+02  0.00000000000E+00 0. -1.
<mgrwt>
<rscale>  0 0.91042904E+02</rscale>
<asrwt>0</asrwt>
<pdfrwt beam="2">  1        2 0.13122750E-01 0.91042904E+02</pdfrwt>
<pdfrwt beam="1">  1       -2 0.37374953E-02 0.91042904E+02</pdfrwt>
<totfact> 0.11747892E+05</totfact>
</mgrwt>
</event>
<event>
 5    1  0.6043464E+000  0.9002018E+02  0.7546771E-02  0.1302803E+00
         -2   -1    0    0    0  501 -0.00000000000E+00  0.00000000000E+00  0.19860938907E+02  0.19860938907E+02  0.00000000000E+00 0.  1.
          2   -1    0    0  501    0  0.00000000000E+00 -0.00000000000E+00 -0.10200465359E+03  0.10200465359E+03  0.00000000000E+00 0. -1.
         23    2    1    2    0    0  0.00000000000E+00  0.00000000000E+00 -0.82143714688E+02  0.12186559250E+03  0.90020179811E+02 0.  0.
        -13    1    3    3    0    0  0.20340967202E+02 -0.30547716562E+02 -0.76347342892E+02  0.84710298669E+02  0.00000000000E+00 0. -1.
         13    1    3    3    0    0 -0.20340967202E+02  0.30547716562E+02 -0.57963717956E+01  0.37155293834E+02  0.00000000000E+00 0.  1.
<mgrwt>
<rscale>  0 0.90020180E+02</rscale>
<asrwt>0</asrwt>
<pdfrwt beam="2">  1        2 0.15693024E-01 0.90020180E+02</pdfrwt>
<pdfrwt beam="1">  1       -2 0.30555291E-02 0.90020180E+02</pdfrwt>
<totfact> 0.12782623E+05</totfact>
</mgrwt>
</event>
<event>
 5    1  0.6043464E+000  0.9095606E+02  0.7546771E-02  0.1300553E+00
         -1   -1    0    0    0  501 -0.00000000000E+00  0.00000000000E+00  0.82971019906E+01  0.82971019906E+01  0.00000000000E+00 0.  1.
          1   -1    0    0  501    0  0.00000000000E+00 -0.00000000000E+00 -0.24927393201E+03  0.24927393201E+03  0.00000000000E+00 0. -1.
         23    2    1    2    0    0  0.00000000000E+00  0.00000000000E+00 -0.24097683002E+03  0.25757103400E+03  0.90956060545E+02 0.  0.
        -13    1    3    3    0    0  0.99545895867E+01 -0.38137794462E+02 -0.56245072910E+02  0.68681099634E+02  0.00000000000E+00 0.  1.
         13    1    3    3    0    0 -0.99545895867E+01  0.38137794462E+02 -0.18473175711E+03  0.18888993437E+03  0.00000000000E+00 0. -1.
<mgrwt>
<rscale>  0 0.90956061E+02</rscale>
<asrwt>0</asrwt>
<pdfrwt beam="2">  1        1 0.38349831E-01 0.90956061E+02</pdfrwt>
<pdfrwt beam="1">  1       -1 0.12764774E-02 0.90956061E+02</pdfrwt>
<totfact> 0.12440320E+05</totfact>
</mgrwt>
</event>
<event>
 5    1  0.6043464E+000  0.9015360E+02  0.7546771E-02  0.1302480E+00
          2   -1    0    0  501    0  0.00000000000E+00  0.00000000000E+00  0.65186047909E+02  0.65186047909E+02  0.00000000000E+00 0. -1.
         -2   -1    0    0    0  501 -0.00000000000E+00 -0.00000000000E+00 -0.31171056878E+02  0.31171056878E+02  0.00000000000E+00 0.  1.
         23    2    1    2    0    0  0.00000000000E+00  0.00000000000E+00  0.34014991031E+02  0.96357104787E+02  0.90153602413E+02 0.  0.
        -13    1    3    3    0    0 -0.55933155100E+01 -0.16712033341E+02  0.61351415793E+02  0.63832385641E+02  0.00000000000E+00 0. -1.
         13    1    3    3    0    0  0.55933155100E+01  0.16712033341E+02 -0.27336424762E+02  0.32524719146E+02  0.00000000000E+00 0.  1.
<mgrwt>
<rscale>  0 0.90153602E+02</rscale>
<asrwt>0</asrwt>
<pdfrwt beam="1">  1        2 0.10028623E-01 0.90153602E+02</pdfrwt>
<pdfrwt beam="2">  1       -2 0.47955472E-02 0.90153602E+02</pdfrwt>
<totfact> 0.11196109E+05</totfact>
</mgrwt>
</event>
<event>
 5    1  0.6043464E+000  0.9142666E+02  0.7546771E-02  0.1299433E+00
          1   -1    0    0  501    0  0.00000000000E+00  0.00000000000E+00  0.70331397470E+02  0.70331397470E+02  0.00000000000E+00 0. -1.
         -1   -1    0    0    0  501 -0.00000000000E+00 -0.00000000000E+00 -0.29712311507E+02  0.29712311507E+02  0.00000000000E+00 0.  1.
         23    2    1    2    0    0  0.00000000000E+00  0.00000000000E+00  0.40619085964E+02  0.10004370898E+03  0.91426656733E+02 0.  0.
        -13    1    3    3    0    0 -0.12564545875E+02  0.31892740919E+02 -0.12784877332E+02  0.36585076531E+02  0.00000000000E+00 0.  1.
         13    1    3    3    0    0  0.12564545875E+02 -0.31892740919E+02  0.53403963295E+02  0.63458632447E+02  0.00000000000E+00 0. -1.
<mgrwt>
<rscale>  0 0.91426657E+02</rscale>
<asrwt>0</asrwt>
<pdfrwt beam="1">  1        1 0.10820215E-01 0.91426657E+02</pdfrwt>
<pdfrwt beam="2">  1       -1 0.45711249E-02 0.91426657E+02</pdfrwt>
<totfact> 0.97995902E+04</totfact>
</mgrwt>
</event>
<event>
 5    1  0.6043464E+000  0.9123524E+02  0.7546771E-02  0.1299888E+00
         -1   -1    0    0    0  501 -0.00000000000E+00  0.00000000000E+00  0.36497699778E+02  0.36497699778E+02  0.00000000000E+00 0.  1.
          1   -1    0    0  501    0  0.00000000000E+00 -0.00000000000E+00 -0.57016395577E+02  0.57016395577E+02  0.00000000000E+00 0. -1.
         23    2    1    2    0    0  0.00000000000E+00  0.00000000000E+00 -0.20518695799E+02  0.93514095355E+02  0.91235240740E+02 0.  0.
        -13    1    3    3    0    0  0.25778425272E+02 -0.13777503479E+02 -0.46157290574E+02  0.54633710150E+02  0.00000000000E+00 0. -1.
         13    1    3    3    0    0 -0.25778425272E+02  0.13777503479E+02  0.25638594775E+02  0.38880385205E+02  0.00000000000E+00 0.  1.
<mgrwt>
<rscale>  0 0.91235241E+02</rscale>
<asrwt>0</asrwt>
<pdfrwt beam="2">  1        1 0.87717532E-02 0.91235241E+02</pdfrwt>
<pdfrwt beam="1">  1       -1 0.56150307E-02 0.91235241E+02</pdfrwt>
<totfact> 0.95461679E+04</totfact>
</mgrwt>
</event>
<event>
 5    1  0.6043464E+000  0.8945279E+02  0.7546771E-02  0.1304182E+00
          2   -1    0    0  501    0  0.00000000000E+00  0.00000000000E+00  0.12353977597E+03  0.12353977597E+03  0.00000000000E+00 0. -1.
         -2   -1    0    0    0  501 -0.00000000000E+00 -0.00000000000E+00 -0.16192764390E+02  0.16192764390E+02  0.00000000000E+00 0.  1.
         23    2    1    2    0    0  0.00000000000E+00  0.00000000000E+00  0.10734701158E+03  0.13973254036E+03  0.89452791683E+02 0.  0.
        -13    1    3    3    0    0 -0.29494022085E+02 -0.32440971202E+02  0.67481504136E+02  0.80474016625E+02  0.00000000000E+00 0.  1.
         13    1    3    3    0    0  0.29494022085E+02  0.32440971202E+02  0.39865507442E+02  0.59258523732E+02  0.00000000000E+00 0. -1.
<mgrwt>
<rscale>  0 0.89452792E+02</rscale>
<asrwt>0</asrwt>
<pdfrwt beam="1">  1        2 0.19006119E-01 0.89452792E+02</pdfrwt>
<pdfrwt beam="2">  1       -2 0.24911946E-02 0.89452792E+02</pdfrwt>
<totfact> 0.13808635E+05</totfact>
</mgrwt>
</event>
<event>
 5    1  0.6043464E+000  0.9053793E+02  0.7546771E-02  0.1301554E+00
          1   -1    0    0  501    0  0.00000000000E+00  0.00000000000E+00  0.25669186714E+03  0.25669186714E+03  0.00000000000E+00 0. -1.
         -1   -1    0    0    0  501 -0.00000000000E+00 -0.00000000000E+00 -0.79834210602E+01  0.79834210602E+01  0.00000000000E+00 0.  1.
         23    2    1    2    0    0  0.00000000000E+00  0.00000000000E+00  0.24870844608E+03  0.26467528820E+03  0.90537931457E+02 0.  0.
        -13    1    3    3    0    0 -0.40603846555E+02  0.19974405094E+02  0.12808657441E+03  0.13584483707E+03  0.00000000000E+00 0. -1.
         13    1    3    3    0    0  0.40603846555E+02 -0.19974405094E+02  0.12062187167E+03  0.12883045113E+03  0.00000000000E+00 0.  1.
<mgrwt>
<rscale>  0 0.90537931E+02</rscale>
<asrwt>0</asrwt>
<pdfrwt beam="1">  1        1 0.39491050E-01 0.90537931E+02</pdfrwt>
<pdfrwt beam="2">  1       -1 0.12282188E-02 0.90537931E+02</pdfrwt>
<totfact> 0.12666197E+05</totfact>
</mgrwt>
</event>
<event>
 5    1  0.6043464E+000  0.9436189E+02  0.7546771E-02  0.1292620E+00
          1   -1    0    0  501    0  0.00000000000E+00  0.00000000000E+00  0.86401035354E+02  0.86401035354E+02  0.00000000000E+00 0. -1.
         -1   -1    0    0    0  501 -0.00000000000E+00 -0.00000000000E+00 -0.25764060952E+02  0.25764060952E+02  0.00000000000E+00 0.  1.
         23    2    1    2    0    0  0.00000000000E+00  0.00000000000E+00  0.60636974402E+02  0.11216509631E+03  0.94361889366E+02 0.  0.
        -13    1    3    3    0    0  0.37807762081E+02  0.28897057347E+01  0.63691623788E+02  0.74124221504E+02  0.00000000000E+00 0.  1.
         13    1    3    3    0    0 -0.37807762081E+02 -0.28897057347E+01 -0.30546493860E+01  0.38040874802E+02  0.00000000000E+00 0. -1.
<mgrwt>
<rscale>  0 0.94361889E+02</rscale>
<asrwt>0</asrwt>
<pdfrwt beam="1">  1        1 0.13292467E-01 0.94361889E+02</pdfrwt>
<pdfrwt beam="2">  1       -1 0.39637017E-02 0.94361889E+02</pdfrwt>
<totfact> 0.92807264E+04</totfact>
</mgrwt>
</event>
<event>
 5    1  0.6043464E+000  0.9119894E+02  0.7546771E-02  0.1299974E+00
         -2   -1    0    0    0  501 -0.00000000000E+00  0.00000000000E+00  0.55650165860E+01  0.55650165860E+01  0.00000000000E+00 0.  1.
          2   -1    0    0  501    0  0.00000000000E+00 -0.00000000000E+00 -0.37363981983E+03  0.37363981983E+03  0.00000000000E+00 0. -1.
         23    2    1    2    0    0  0.00000000000E+00  0.00000000000E+00 -0.36807480324E+03  0.37920483641E+03  0.91198942857E+02 0.  0.
        -13    1    3    3    0    0  0.12265610315E+02  0.41732714463E+02 -0.12714010109E+03  0.13437510914E+03  0.00000000000E+00 0.  1.
         13    1    3    3    0    0 -0.12265610315E+02 -0.41732714463E+02 -0.24093470216E+03  0.24482972727E+03  0.00000000000E+00 0. -1.
<mgrwt>
<rscale>  0 0.91198943E+02</rscale>
<asrwt>0</asrwt>
<pdfrwt beam="2">  1        2 0.57483064E-01 0.91198943E+02</pdfrwt>
<pdfrwt beam="1">  1       -2 0.85615618E-03 0.91198943E+02</pdfrwt>
<totfact> 0.19465026E+05</totfact>
</mgrwt>
</event>
<event>
 5    1  0.6043464E+000  0.8971002E+02  0.7546771E-02  0.1303555E+00
         -1   -1    0    0    0  501 -0.00000000000E+00  0.00000000000E+00  0.38490915820E+02  0.38490915820E+02  0.00000000000E+00 0.  1.
          1   -1    0    0  501    0  0.00000000000E+00 -0.00000000000E+00 -0.52271347756E+02  0.52271347756E+02  0.00000000000E+00 0. -1.
         23    2    1    2    0    0  0.00000000000E+00  0.00000000000E+00 -0.13780431936E+02  0.90762263576E+02  0.89710022768E+02 0.  0.
        -13    1    3    3    0    0 -0.13453659299E+01  0.40871252939E+02  0.11756994117E+02  0.42549926403E+02  0.00000000000E+00 0.  1.
         13    1    3    3    0    0  0.13453659299E+01 -0.40871252939E+02 -0.25537426052E+02  0.48212337172E+02  0.00000000000E+00 0. -1.
<mgrwt>
<rscale>  0 0.89710023E+02</rscale>
<asrwt>0</asrwt>
<pdfrwt beam="2">  1        1 0.80417458E-02 0.89710023E+02</pdfrwt>
<pdfrwt beam="1">  1       -1 0.59216793E-02 0.89710023E+02</pdfrwt>
<totfact> 0.98750399E+04</totfact>
</mgrwt>
</event>
<event>
 5    1  0.6043464E+000  0.9160474E+02  0.7546771E-02  0.1299011E+00
          3   -1    0    0  501    0  0.00000000000E+00  0.00000000000E+00  0.16193843656E+02  0.16193843656E+02  0.00000000000E+00 0. -1.
         -3   -1    0    0    0  501 -0.00000000000E+00 -0.00000000000E+00 -0.12954658211E+03  0.12954658211E+03  0.00000000000E+00 0.  1.
         23    2    1    2    0    0  0.00000000000E+00  0.00000000000E+00 -0.11335273845E+03  0.14574042576E+03  0.91604739983E+02 0.  0.
        -13    1    3    3    0    0 -0.44486089606E+02 -0.34012739678E+01 -0.73154726224E+02  0.85686608066E+02  0.00000000000E+00 0. -1.
         13    1    3    3    0    0  0.44486089606E+02  0.34012739678E+01 -0.40198012228E+02  0.60053817698E+02  0.00000000000E+00 0.  1.
<mgrwt>
<rscale>  0 0.91604740E+02</rscale>
<asrwt>0</asrwt>
<pdfrwt beam="1">  1        3 0.24913605E-02 0.91604740E+02</pdfrwt>
<pdfrwt beam="2">  1       -3 0.19930244E-01 0.91604740E+02</pdfrwt>
<totfact> 0.31172206E+04</totfact>
</mgrwt>
</event>
<event>
 5    1  0.6043464E+000  0.9317047E+02  0.7546771E-02  0.1295351E+00
         -2   -1    0    0    0  501 -0.00000000000E+00  0.00000000000E+00  0.18441595758E+03  0.18441595758E+03  0.00000000000E+00 0. -1.
          2   -1    0    0  501    0  0.00000000000E+00 -0.00000000000E+00 -0.11767875899E+02  0.11767875899E+02  0.00000000000E+00 0.  1.
         23    2    1    2    0    0  0.00000000000E+00  0.00000000000E+00  0.17264808168E+03  0.19618383347E+03  0.93170469626E+02 0.  0.
        -13    1    3    3    0    0  0.43363357455E+02  0.89336057503E+01  0.11683728589E+03  0.12494455352E+03  0.00000000000E+00 0.  1.
         13    1    3    3    0    0 -0.43363357455E+02 -0.89336057503E+01  0.55810795790E+02  0.71239279953E+02  0.00000000000E+00 0. -1.
<mgrwt>
<rscale>  0 0.93170470E+02</rscale>
<asrwt>0</asrwt>
<pdfrwt beam="2">  1        2 0.18104426E-02 0.93170470E+02</pdfrwt>
<pdfrwt beam="1">  1       -2 0.28371684E-01 0.93170470E+02</pdfrwt>
<totfact> 0.61029516E+04</totfact>
</mgrwt>
</event>
<event>
 5    1  0.6043464E+000  0.8874406E+02  0.7546771E-02  0.1305922E+00
          1   -1    0    0  501    0  0.00000000000E+00  0.00000000000E+00  0.20804097445E+02  0.20804097445E+02  0.00000000000E+00 0. -1.
         -1   -1    0    0    0  501 -0.00000000000E+00 -0.00000000000E+00 -0.94638896562E+02  0.94638896562E+02  0.00000000000E+00 0.  1.
         23    2    1    2    0    0  0.00000000000E+00  0.00000000000E+00 -0.73834799117E+02  0.11544299401E+03  0.88744055038E+02 0.  0.
        -13    1    3    3    0    0  0.17194811252E+02  0.14219895899E+02  0.12975196612E+02  0.25811290175E+02  0.00000000000E+00 0. -1.
         13    1    3    3    0    0 -0.17194811252E+02 -0.14219895899E+02 -0.86809995729E+02  0.89631703832E+02  0.00000000000E+00 0.  1.
<mgrwt>
<rscale>  0 0.88744055E+02</rscale>
<asrwt>0</asrwt>
<pdfrwt beam="1">  1        1 0.32006303E-02 0.88744055E+02</pdfrwt>
<pdfrwt beam="2">  1       -1 0.14559831E-01 0.88744055E+02</pdfrwt>
<totfact> 0.88110361E+04</totfact>
</mgrwt>
</event>
<event>
 5    1  0.6043464E+000  0.9030106E+02  0.7546771E-02  0.1302124E+00
         -1   -1    0    0    0  501 -0.00000000000E+00  0.00000000000E+00  0.30620103911E+03  0.30620103911E+03  0.00000000000E+00 0.  1.
          1   -1    0    0  501    0  0.00000000000E+00 -0.00000000000E+00 -0.66576204578E+01  0.66576204578E+01  0.00000000000E+00 0. -1.
         23    2    1    2    0    0  0.00000000000E+00  0.00000000000E+00  0.29954341865E+03  0.31285865957E+03  0.90301058735E+02 0.  0.
        -13    1    3    3    0    0 -0.24301863346E+02 -0.35195544345E+02  0.99652758057E+02  0.10844343729E+03  0.00000000000E+00 0. -1.
         13    1    3    3    0    0  0.24301863346E+02  0.35195544345E+02  0.19989066059E+03  0.20441522227E+03  0.00000000000E+00 0.  1.
<mgrwt>
<rscale>  0 0.90301059E+02</rscale>
<asrwt>0</asrwt>
<pdfrwt beam="2">  1        1 0.10242495E-02 0.90301059E+02</pdfrwt>
<pdfrwt beam="1">  1       -1 0.47107841E-01 0.90301059E+02</pdfrwt>
<totfact> 0.61631444E+04</totfact>
</mgrwt>
</event>
<event>
 5    1  0.6043464E+000  0.9248879E+02  0.7546771E-02  0.1296934E+00
         -2   -1    0    0    0  501 -0.00000000000E+00  0.00000000000E+00  0.76601624569E+01  0.76601624569E+01  0.00000000000E+00 0. -1.
          2   -1    0    0  501    0  0.00000000000E+00 -0.00000000000E+00 -0.27917738363E+03  0.27917738363E+03  0.00000000000E+00 0.  1.
         23    2    1    2    0    0  0.00000000000E+00  0.00000000000E+00 -0.27151722117E+03  0.28683754608E+03  0.92488790951E+02 0.  0.
        -13    1    3    3    0    0 -0.41676882901E+02 -0.85760359802E+01 -0.19192878395E+03  0.19658883252E+03  0.00000000000E+00 0.  1.
         13    1    3    3    0    0  0.41676882901E+02  0.85760359802E+01 -0.79588437217E+02  0.90248713565E+02  0.00000000000E+00 0. -1.
<mgrwt>
<rscale>  0 0.92488791E+02</rscale>
<asrwt>0</asrwt>
<pdfrwt beam="2">  1        2 0.42950366E-01 0.92488791E+02</pdfrwt>
<pdfrwt beam="1">  1       -2 0.11784866E-02 0.92488791E+02</pdfrwt>
<totfact> 0.16834475E+05</totfact>
</mgrwt>
</event>
<event>
 5    1  0.6043464E+000  0.9134753E+02  0.7546771E-02  0.1299621E+00
         -1   -1    0    0    0  501 -0.00000000000E+00  0.00000000000E+00  0.19915212361E+02  0.19915212361E+02  0.00000000000E+00 0.  1.
          1   -1    0    0  501    0  0.00000000000E+00 -0.00000000000E+00 -0.10474871508E+03  0.10474871508E+03  0.00000000000E+00 0. -1.
         23    2    1    2    0    0  0.00000000000E+00  0.00000000000E+00 -0.84833502723E+02  0.12466392744E+03  0.91347532104E+02 0.  0.
        -13    1    3    3    0    0 -0.21988566252E+02  0.31232327104E+02 -0.82404227269E+01  0.39075054304E+02  0.00000000000E+00 0.  1.
         13    1    3    3    0    0  0.21988566252E+02 -0.31232327104E+02 -0.76593079996E+02  0.85588873140E+02  0.00000000000E+00 0. -1.
<mgrwt>
<rscale>  0 0.91347532E+02</rscale>
<asrwt>0</asrwt>
<pdfrwt beam="2">  1        1 0.16115187E-01 0.91347532E+02</pdfrwt>
<pdfrwt beam="1">  1       -1 0.30638789E-02 0.91347532E+02</pdfrwt>
<totfact> 0.10472992E+05</totfact>
</mgrwt>
</event>
<event>
 5    1  0.6043464E+000  0.8916717E+02  0.7546771E-02  0.1304881E+00
          3   -1    0    0  501    0  0.00000000000E+00  0.00000000000E+00  0.33822636314E+02  0.33822636314E+02  0.00000000000E+00 0. -1.
         -3   -1    0    0    0  501 -0.00000000000E+00 -0.00000000000E+00 -0.58768217322E+02  0.58768217322E+02  0.00000000000E+00 0.  1.
         23    2    1    2    0    0  0.00000000000E+00  0.00000000000E+00 -0.24945581008E+02  0.92590853637E+02  0.89167169773E+02 0.  0.
        -13    1    3    3    0    0  0.78962756376E+01 -0.42933584553E+02 -0.21878860234E+02  0.48829585055E+02  0.00000000000E+00 0. -1.
         13    1    3    3    0    0 -0.78962756376E+01  0.42933584553E+02 -0.30667207740E+01  0.43761268581E+02  0.00000000000E+00 0.  1.
<mgrwt>
<rscale>  0 0.89167170E+02</rscale>
<asrwt>0</asrwt>
<pdfrwt beam="1">  1        3 0.52034825E-02 0.89167170E+02</pdfrwt>
<pdfrwt beam="2">  1       -3 0.90412642E-02 0.89167170E+02</pdfrwt>
<totfact> 0.37429962E+04</totfact>
</mgrwt>
</event>
<event>
 5    1  0.6043464E+000  0.9224400E+02  0.7546771E-02  0.1297507E+00
          3   -1    0    0  501    0  0.00000000000E+00  0.00000000000E+00  0.26737266411E+02  0.26737266411E+02  0.00000000000E+00 0. -1.
         -3   -1    0    0    0  501 -0.00000000000E+00 -0.00000000000E+00 -0.79560816014E+02  0.79560816014E+02  0.00000000000E+00 0.  1.
         23    2    1    2    0    0  0.00000000000E+00  0.00000000000E+00 -0.52823549603E+02  0.10629808242E+03  0.92243996740E+02 0.  0.
        -13    1    3    3    0    0 -0.30027092691E+02 -0.28993727801E+02 -0.38015827472E+01  0.41913179057E+02  0.00000000000E+00 0. -1.
         13    1    3    3    0    0  0.30027092691E+02  0.28993727801E+02 -0.49021966856E+02  0.64384903368E+02  0.00000000000E+00 0.  1.
<mgrwt>
<rscale>  0 0.92243997E+02</rscale>
<asrwt>0</asrwt>
<pdfrwt beam="1">  1        3 0.41134256E-02 0.92243997E+02</pdfrwt>
<pdfrwt beam="2">  1       -3 0.12240125E-01 0.92243997E+02</pdfrwt>
<totfact> 0.33143722E+04</totfact>
</mgrwt>
</event>
<event>
 5    1  0.6043464E+000  0.9337786E+02  0.7546771E-02  0.1294872E+00
          1   -1    0    0  501    0  0.00000000000E+00  0.00000000000E+00  0.28802368347E+02  0.28802368347E+02  0.00000000000E+00 0. -1.
         -1   -1    0    0    0  501 -0.00000000000E+00 -0.00000000000E+00 -0.75683227712E+02  0.75683227712E+02  0.00000000000E+00 0.  1.
         23    2    1    2    0    0  0.00000000000E+00  0.00000000000E+00 -0.46880859365E+02  0.10448559606E+03  0.93377860379E+02 0.  0.
        -13    1    3    3    0    0 -0.51034535940E-02 -0.20110679235E+02 -0.70588363300E+02  0.73397251166E+02  0.00000000000E+00 0.  1.
         13    1    3    3    0    0  0.51034535940E-02  0.20110679235E+02  0.23707503935E+02  0.31088344893E+02  0.00000000000E+00 0. -1.
<mgrwt>
<rscale>  0 0.93377860E+02</rscale>
<asrwt>0</asrwt>
<pdfrwt beam="1">  1        1 0.44311336E-02 0.93377860E+02</pdfrwt>
<pdfrwt beam="2">  1       -1 0.11643573E-01 0.93377860E+02</pdfrwt>
<totfact> 0.80381497E+04</totfact>
</mgrwt>
</event>
<event>
 5    1  0.6043464E+000  0.8951313E+02  0.7546771E-02  0.1304035E+00
         -1   -1    0    0    0  501 -0.00000000000E+00  0.00000000000E+00  0.50958150528E+02  0.50958150528E+02  0.00000000000E+00 0.  1.
          1   -1    0    0  501    0  0.00000000000E+00 -0.00000000000E+00 -0.39309707863E+02  0.39309707863E+02  0.00000000000E+00 0. -1.
         23    2    1    2    0    0  0.00000000000E+00  0.00000000000E+00  0.11648442665E+02  0.90267858391E+02  0.89513127763E+02 0.  0.
        -13    1    3    3    0    0  0.32193435317E+02 -0.18294194183E+02 -0.19528460609E+02  0.41862340977E+02  0.00000000000E+00 0. -1.
         13    1    3    3    0    0 -0.32193435317E+02  0.18294194183E+02  0.31176903274E+02  0.48405517414E+02  0.00000000000E+00 0.  1.
<mgrwt>
<rscale>  0 0.89513128E+02</rscale>
<asrwt>0</asrwt>
<pdfrwt beam="2">  1        1 0.60476474E-02 0.89513128E+02</pdfrwt>
<pdfrwt beam="1">  1       -1 0.78397154E-02 0.89513128E+02</pdfrwt>
<totfact> 0.95244662E+04</totfact>
</mgrwt>
</event>
<event>
 5    1  0.6043464E+000  0.9142468E+02  0.7546771E-02  0.1299438E+00
          1   -1    0    0  501    0  0.00000000000E+00  0.00000000000E+00  0.52784248079E+02  0.52784248079E+02  0.00000000000E+00 0. -1.
         -1   -1    0    0    0  501 -0.00000000000E+00 -0.00000000000E+00 -0.39587909963E+02  0.39587909963E+02  0.00000000000E+00 0.  1.
         23    2    1    2    0    0  0.00000000000E+00  0.00000000000E+00  0.13196338115E+02  0.92372158042E+02  0.91424680704E+02 0.  0.
        -13    1    3    3    0    0  0.76104445900E+01 -0.40185368236E+02  0.27226301972E+02  0.49133025616E+02  0.00000000000E+00 0. -1.
         13    1    3    3    0    0 -0.76104445900E+01  0.40185368236E+02 -0.14029963857E+02  0.43239132426E+02  0.00000000000E+00 0.  1.
<mgrwt>
<rscale>  0 0.91424681E+02</rscale>
<asrwt>0</asrwt>
<pdfrwt beam="1">  1        1 0.81206535E-02 0.91424681E+02</pdfrwt>
<pdfrwt beam="2">  1       -1 0.60904477E-02 0.91424681E+02</pdfrwt>
<totfact> 0.93815989E+04</totfact>
</mgrwt>
</event>
<event>
 5    1  0.6043464E+000  0.9832922E+02  0.7546771E-02  0.1283849E+00
         -3   -1    0    0    0  501 -0.00000000000E+00  0.00000000000E+00  0.80489139149E+02  0.80489139149E+02  0.00000000000E+00 0.  1.
          3   -1    0    0  501    0  0.00000000000E+00 -0.00000000000E+00 -0.30030868859E+02  0.30030868859E+02  0.00000000000E+00 0. -1.
         23    2    1    2    0    0  0.00000000000E+00  0.00000000000E+00  0.50458270290E+02  0.11052000801E+03  0.98329218087E+02 0.  0.
        -13    1    3    3    0    0 -0.27529006582E+01  0.13948026648E+02  0.78128250587E+02  0.79411267773E+02  0.00000000000E+00 0.  1.
         13    1    3    3    0    0  0.27529006582E+01 -0.13948026648E+02 -0.27669980298E+02  0.31108740236E+02  0.00000000000E+00 0. -1.
<mgrwt>
<rscale>  0 0.98329218E+02</rscale>
<asrwt>0</asrwt>
<pdfrwt beam="2">  1        3 0.46201337E-02 0.98329218E+02</pdfrwt>
<pdfrwt beam="1">  1       -3 0.12382944E-01 0.98329218E+02</pdfrwt>
<totfact> 0.27582976E+04</totfact>
</mgrwt>
</event>
<event>
 5    1  0.6043464E+000  0.9356402E+02  0.7546771E-02  0.1294443E+00
          1   -1    0    0  501    0  0.00000000000E+00  0.00000000000E+00  0.51390722154E+02  0.51390722154E+02  0.00000000000E+00 0. -1.
         -1   -1    0    0    0  501 -0.00000000000E+00 -0.00000000000E+00 -0.42586605792E+02  0.42586605792E+02  0.00000000000E+00 0.  1.
         23    2    1    2    0    0  0.00000000000E+00  0.00000000000E+00  0.88041163617E+01  0.93977327946E+02  0.93564019275E+02 0.  0.
        -13    1    3    3    0    0  0.46063967947E+02 -0.81563184405E+01  0.47802212638E+01  0.47024091579E+02  0.00000000000E+00 0. -1.
         13    1    3    3    0    0 -0.46063967947E+02  0.81563184405E+01  0.40238950979E+01  0.46953236366E+02  0.00000000000E+00 0.  1.
<mgrwt>
<rscale>  0 0.93564019E+02</rscale>
<asrwt>0</asrwt>
<pdfrwt beam="1">  1        1 0.79062650E-02 0.93564019E+02</pdfrwt>
<pdfrwt beam="2">  1       -1 0.65517855E-02 0.93564019E+02</pdfrwt>
<totfact> 0.87577729E+04</totfact>
</mgrwt>
</event>
<event>
 5    1  0.6043464E+000  0.8802704E+02  0.7546771E-02  0.1307701E+00
         -3   -1    0    0    0  501 -0.00000000000E+00  0.00000000000E+00  0.32370430901E+02  0.32370430901E+02  0.00000000000E+00 0.  1.
          3   -1    0    0  501    0  0.00000000000E+00 -0.00000000000E+00 -0.59844432916E+02  0.59844432916E+02  0.00000000000E+00 0. -1.
         23    2    1    2    0    0  0.00000000000E+00  0.00000000000E+00 -0.27474002015E+02  0.92214863817E+02  0.88027043129E+02 0.  0.
        -13    1    3    3    0    0  0.26122492116E+02  0.12947436596E+02 -0.48277882737E+02  0.56398356982E+02  0.00000000000E+00 0. -1.
         13    1    3    3    0    0 -0.26122492116E+02 -0.12947436596E+02  0.20803880722E+02  0.35816506835E+02  0.00000000000E+00 0.  1.
<mgrwt>
<rscale>  0 0.88027043E+02</rscale>
<asrwt>0</asrwt>
<pdfrwt beam="2">  1        3 0.92068358E-02 0.88027043E+02</pdfrwt>
<pdfrwt beam="1">  1       -3 0.49800663E-02 0.88027043E+02</pdfrwt>
<totfact> 0.38789260E+04</totfact>
</mgrwt>
</event>
<event>
 5    1  0.6043464E+000  0.9131185E+02  0.7546771E-02  0.1299706E+00
         -1   -1    0    0    0  501 -0.00000000000E+00  0.00000000000E+00  0.65874330465E+02  0.65874330465E+02  0.00000000000E+00 0.  1.
          1   -1    0    0  501    0  0.00000000000E+00 -0.00000000000E+00 -0.31643028599E+02  0.31643028599E+02  0.00000000000E+00 0. -1.
         23    2    1    2    0    0  0.00000000000E+00  0.00000000000E+00  0.34231301866E+02  0.97517359064E+02  0.91311846392E+02 0.  0.
        -13    1    3    3    0    0  0.41804399370E+02 -0.79991788752E+01  0.34756993390E+02  0.54951280775E+02  0.00000000000E+00 0. -1.
         13    1    3    3    0    0 -0.41804399370E+02  0.79991788752E+01 -0.52569152421E+00  0.42566078289E+02  0.00000000000E+00 0.  1.
<mgrwt>
<rscale>  0 0.91311846E+02</rscale>
<asrwt>0</asrwt>
<pdfrwt beam="2">  1        1 0.48681583E-02 0.91311846E+02</pdfrwt>
<pdfrwt beam="1">  1       -1 0.10134512E-01 0.91311846E+02</pdfrwt>
<totfact> 0.87057946E+04</totfact>
</mgrwt>
</event>
<event>
 5    1  0.6043464E+000  0.9063069E+02  0.7546771E-02  0.1301332E+00
         -3   -1    0    0    0  501 -0.00000000000E+00  0.00000000000E+00  0.48854506913E+02  0.48854506913E+02  0.00000000000E+00 0.  1.
          3   -1    0    0  501    0  0.00000000000E+00 -0.00000000000E+00 -0.42032567226E+02  0.42032567226E+02  0.00000000000E+00 0. -1.
         23    2    1    2    0    0  0.00000000000E+00  0.00000000000E+00  0.68219396870E+01  0.90887074139E+02  0.90630686771E+02 0.  0.
        -13    1    3    3    0    0  0.18507273419E+00 -0.43807174586E+02  0.15035896176E+02  0.46316098400E+02  0.00000000000E+00 0. -1.
         13    1    3    3    0    0 -0.18507273419E+00  0.43807174586E+02 -0.82139564893E+01  0.44570975740E+02  0.00000000000E+00 0.  1.
<mgrwt>
<rscale>  0 0.90630687E+02</rscale>
<asrwt>0</asrwt>
<pdfrwt beam="2">  1        3 0.64665488E-02 0.90630687E+02</pdfrwt>
<pdfrwt beam="1">  1       -3 0.75160780E-02 0.90630687E+02</pdfrwt>
<totfact> 0.35944198E+04</totfact>
</mgrwt>
</event>
<event>
 5    1  0.6043464E+000  0.9160810E+02  0.7546771E-02  0.1299004E+00
          2   -1    0    0  501    0  0.00000000000E+00  0.00000000000E+00  0.42796025767E+02  0.42796025767E+02  0.00000000000E+00 0. -1.
         -2   -1    0    0    0  501 -0.00000000000E+00 -0.00000000000E+00 -0.49023499912E+02  0.49023499912E+02  0.00000000000E+00 0.  1.
         23    2    1    2    0    0  0.00000000000E+00  0.00000000000E+00 -0.62274741450E+01  0.91819525680E+02  0.91608099324E+02 0.  0.
        -13    1    3    3    0    0  0.28782431637E+02 -0.24410035288E+02  0.22902531595E+02  0.44145261888E+02  0.00000000000E+00 0. -1.
         13    1    3    3    0    0 -0.28782431637E+02  0.24410035288E+02 -0.29130005740E+02  0.47674263792E+02  0.00000000000E+00 0.  1.
<mgrwt>
<rscale>  0 0.91608099E+02</rscale>
<asrwt>0</asrwt>
<pdfrwt beam="1">  1        2 0.65840040E-02 0.91608099E+02</pdfrwt>
<pdfrwt beam="2">  1       -2 0.75420769E-02 0.91608099E+02</pdfrwt>
<totfact> 0.95757888E+04</totfact>
</mgrwt>
</event>
<event>
 5    1  0.6043464E+000  0.9043996E+02  0.7546771E-02  0.1301790E+00
          1   -1    0    0  501    0  0.00000000000E+00  0.00000000000E+00  0.36250289789E+02  0.36250289789E+02  0.00000000000E+00 0. -1.
         -1   -1    0    0    0  501 -0.00000000000E+00 -0.00000000000E+00 -0.56409115075E+02  0.56409115075E+02  0.00000000000E+00 0.  1.
         23    2    1    2    0    0  0.00000000000E+00  0.00000000000E+00 -0.20158825286E+02  0.92659404863E+02  0.90439963914E+02 0.  0.
        -13    1    3    3    0    0 -0.44262268756E+01 -0.17199904856E+02 -0.52686238724E+02  0.55599172317E+02  0.00000000000E+00 0.  1.
         13    1    3    3    0    0  0.44262268756E+01  0.17199904856E+02  0.32527413438E+02  0.37060232546E+02  0.00000000000E+00 0. -1.
<mgrwt>
<rscale>  0 0.90439964E+02</rscale>
<asrwt>0</asrwt>
<pdfrwt beam="1">  1        1 0.55769677E-02 0.90439964E+02</pdfrwt>
<pdfrwt beam="2">  1       -1 0.86783254E-02 0.90439964E+02</pdfrwt>
<totfact> 0.91386858E+04</totfact>
</mgrwt>
</event>
<event>
 5    1  0.6043464E+000  0.9472100E+02  0.7546771E-02  0.1291806E+00
          1   -1    0    0  501    0  0.00000000000E+00  0.00000000000E+00  0.35156380717E+02  0.35156380717E+02  0.00000000000E+00 0. -1.
         -1   -1    0    0    0  501 -0.00000000000E+00 -0.00000000000E+00 -0.63801132407E+02  0.63801132407E+02  0.00000000000E+00 0.  1.
         23    2    1    2    0    0  0.00000000000E+00  0.00000000000E+00 -0.28644751690E+02  0.98957513124E+02  0.94720998750E+02 0.  0.
        -13    1    3    3    0    0  0.14336150466E+02 -0.40562860735E+02 -0.35010752275E+02  0.55467320613E+02  0.00000000000E+00 0.  1.
         13    1    3    3    0    0 -0.14336150466E+02  0.40562860735E+02  0.63660005851E+01  0.43490192511E+02  0.00000000000E+00 0. -1.
<mgrwt>
<rscale>  0 0.94720999E+02</rscale>
<asrwt>0</asrwt>
<pdfrwt beam="1">  1        1 0.54086740E-02 0.94720999E+02</pdfrwt>
<pdfrwt beam="2">  1       -1 0.98155588E-02 0.94720999E+02</pdfrwt>
<totfact> 0.79710425E+04</totfact>
</mgrwt>
</event>
<event>
 5    1  0.6043464E+000  0.8945980E+02  0.7546771E-02  0.1304165E+00
         -4   -1    0    0    0  501 -0.00000000000E+00  0.00000000000E+00  0.10439271879E+02  0.10439271879E+02  0.00000000000E+00 0.  1.
          4   -1    0    0  501    0  0.00000000000E+00 -0.00000000000E+00 -0.19165744260E+03  0.19165744260E+03  0.00000000000E+00 0. -1.
         23    2    1    2    0    0  0.00000000000E+00  0.00000000000E+00 -0.18121817072E+03  0.20209671448E+03  0.89459804403E+02 0.  0.
        -13    1    3    3    0    0 -0.13002329287E+02 -0.26647705437E+02 -0.16626640712E+03  0.16888954648E+03  0.00000000000E+00 0. -1.
         13    1    3    3    0    0  0.13002329287E+02  0.26647705437E+02 -0.14951763598E+02  0.33207168001E+02  0.00000000000E+00 0.  1.
<mgrwt>
<rscale>  0 0.89459804E+02</rscale>
<asrwt>0</asrwt>
<pdfrwt beam="2">  1        4 0.29485758E-01 0.89459804E+02</pdfrwt>
<pdfrwt beam="1">  1       -4 0.16060420E-02 0.89459804E+02</pdfrwt>
<totfact> 0.22407414E+04</totfact>
</mgrwt>
</event>
<event>
 5    1  0.6043464E+000  0.9751619E+02  0.7546771E-02  0.1285607E+00
          1   -1    0    0  501    0  0.00000000000E+00  0.00000000000E+00  0.28593499307E+02  0.28593499307E+02  0.00000000000E+00 0. -1.
         -1   -1    0    0    0  501 -0.00000000000E+00 -0.00000000000E+00 -0.83143080174E+02  0.83143080174E+02  0.00000000000E+00 0.  1.
         23    2    1    2    0    0  0.00000000000E+00  0.00000000000E+00 -0.54549580867E+02  0.11173657948E+03  0.97516185434E+02 0.  0.
        -13    1    3    3    0    0  0.12660428688E+02 -0.23893153283E+02 -0.73764586593E+02  0.78564517841E+02  0.00000000000E+00 0.  1.
         13    1    3    3    0    0 -0.12660428688E+02  0.23893153283E+02  0.19215005727E+02  0.33172061640E+02  0.00000000000E+00 0. -1.
<mgrwt>
<rscale>  0 0.97516185E+02</rscale>
<asrwt>0</asrwt>
<pdfrwt beam="1">  1        1 0.43989999E-02 0.97516185E+02</pdfrwt>
<pdfrwt beam="2">  1       -1 0.12791243E-01 0.97516185E+02</pdfrwt>
<totfact> 0.70771251E+04</totfact>
</mgrwt>
</event>
<event>
 5    1  0.6043464E+000  0.9167324E+02  0.7546771E-02  0.1298850E+00
         -1   -1    0    0    0  501 -0.00000000000E+00  0.00000000000E+00  0.45617920444E+03  0.45617920444E+03  0.00000000000E+00 0.  1.
          1   -1    0    0  501    0  0.00000000000E+00 -0.00000000000E+00 -0.46056363699E+01  0.46056363699E+01  0.00000000000E+00 0. -1.
         23    2    1    2    0    0  0.00000000000E+00  0.00000000000E+00  0.45157356807E+03  0.46078484081E+03  0.91673235683E+02 0.  0.
        -13    1    3    3    0    0 -0.16131202759E+02  0.42839734120E+02  0.23761429617E+03  0.24198349585E+03  0.00000000000E+00 0. -1.
         13    1    3    3    0    0  0.16131202759E+02 -0.42839734120E+02  0.21395927190E+03  0.21880134495E+03  0.00000000000E+00 0.  1.
<mgrwt>
<rscale>  0 0.91673236E+02</rscale>
<asrwt>0</asrwt>
<pdfrwt beam="2">  1        1 0.70855980E-03 0.91673236E+02</pdfrwt>
<pdfrwt beam="1">  1       -1 0.70181380E-01 0.91673236E+02</pdfrwt>
<totfact> 0.48964508E+04</totfact>
</mgrwt>
</event>
<event>
 5    1  0.6043464E+000  0.9275376E+02  0.7546771E-02  0.1296317E+00
         -2   -1    0    0    0  501 -0.00000000000E+00  0.00000000000E+00  0.73721502343E+01  0.73721502343E+01  0.00000000000E+00 0.  1.
          2   -1    0    0  501    0  0.00000000000E+00 -0.00000000000E+00 -0.29174867944E+03  0.29174867944E+03  0.00000000000E+00 0. -1.
         23    2    1    2    0    0  0.00000000000E+00  0.00000000000E+00 -0.28437652921E+03  0.29912082968E+03  0.92753762091E+02 0.  0.
        -13    1    3    3    0    0 -0.40121227730E+02  0.91840334423E+01 -0.73266384480E+02  0.84035840447E+02  0.00000000000E+00 0.  1.
         13    1    3    3    0    0  0.40121227730E+02 -0.91840334423E+01 -0.21111014473E+03  0.21508498923E+03  0.00000000000E+00 0. -1.
<mgrwt>
<rscale>  0 0.92753762E+02</rscale>
<asrwt>0</asrwt>
<pdfrwt beam="2">  1        2 0.44884406E-01 0.92753762E+02</pdfrwt>
<pdfrwt beam="1">  1       -2 0.11341771E-02 0.92753762E+02</pdfrwt>
<totfact> 0.16983456E+05</totfact>
</mgrwt>
</event>
<event>
 5    1  0.6043464E+000  0.9785158E+02  0.7546771E-02  0.1284880E+00
         -1   -1    0    0    0  501 -0.00000000000E+00  0.00000000000E+00  0.40092538579E+02  0.40092538579E+02  0.00000000000E+00 0.  1.
          1   -1    0    0  501    0  0.00000000000E+00 -0.00000000000E+00 -0.59705197049E+02  0.59705197049E+02  0.00000000000E+00 0. -1.
         23    2    1    2    0    0  0.00000000000E+00  0.00000000000E+00 -0.19612658470E+02  0.99797735628E+02  0.97851579774E+02 0.  0.
        -13    1    3    3    0    0 -0.20929872186E+02  0.37943609248E+02 -0.32972760157E+02  0.54451629405E+02  0.00000000000E+00 0. -1.
         13    1    3    3    0    0  0.20929872186E+02 -0.37943609248E+02  0.13360101687E+02  0.45346106223E+02  0.00000000000E+00 0.  1.
<mgrwt>
<rscale>  0 0.97851580E+02</rscale>
<asrwt>0</asrwt>
<pdfrwt beam="2">  1        1 0.91854149E-02 0.97851580E+02</pdfrwt>
<pdfrwt beam="1">  1       -1 0.61680829E-02 0.97851580E+02</pdfrwt>
<totfact> 0.79063302E+04</totfact>
</mgrwt>
</event>
<event>
 5    1  0.6043464E+000  0.8997533E+02  0.7546771E-02  0.1302911E+00
         -3   -1    0    0    0  501 -0.00000000000E+00  0.00000000000E+00  0.94283155285E+02  0.94283155285E+02  0.00000000000E+00 0.  1.
          3   -1    0    0  501    0  0.00000000000E+00 -0.00000000000E+00 -0.21466080597E+02  0.21466080597E+02  0.00000000000E+00 0. -1.
         23    2    1    2    0    0  0.00000000000E+00  0.00000000000E+00  0.72817074688E+02  0.11574923588E+03  0.89975325735E+02 0.  0.
        -13    1    3    3    0    0 -0.73654647529E+01 -0.33230712075E+02 -0.14351104217E+01  0.34067430750E+02  0.00000000000E+00 0. -1.
         13    1    3    3    0    0  0.73654647529E+01  0.33230712075E+02  0.74252185110E+02  0.81681805132E+02  0.00000000000E+00 0.  1.
<mgrwt>
<rscale>  0 0.89975326E+02</rscale>
<asrwt>0</asrwt>
<pdfrwt beam="2">  1        3 0.33024740E-02 0.89975326E+02</pdfrwt>
<pdfrwt beam="1">  1       -3 0.14505101E-01 0.89975326E+02</pdfrwt>
<totfact> 0.34769613E+04</totfact>
</mgrwt>
</event>
<event>
 5    1  0.6043464E+000  0.9085159E+02  0.7546771E-02  0.1300802E+00
         -3   -1    0    0    0  501 -0.00000000000E+00  0.00000000000E+00  0.71381547844E+02  0.71381547844E+02  0.00000000000E+00 0.  1.
          3   -1    0    0  501    0  0.00000000000E+00 -0.00000000000E+00 -0.28908070580E+02  0.28908070580E+02  0.00000000000E+00 0. -1.
         23    2    1    2    0    0  0.00000000000E+00  0.00000000000E+00  0.42473477264E+02  0.10028961842E+03  0.90851589380E+02 0.  0.
        -13    1    3    3    0    0 -0.78412584460E+01 -0.44736619573E+02  0.20345145789E+02  0.49767212319E+02  0.00000000000E+00 0.  1.
         13    1    3    3    0    0  0.78412584460E+01  0.44736619573E+02  0.22128331475E+02  0.50522406105E+02  0.00000000000E+00 0. -1.
<mgrwt>
<rscale>  0 0.90851589E+02</rscale>
<asrwt>0</asrwt>
<pdfrwt beam="2">  1        3 0.44473955E-02 0.90851589E+02</pdfrwt>
<pdfrwt beam="1">  1       -3 0.10981777E-01 0.90851589E+02</pdfrwt>
<totfact> 0.34989507E+04</totfact>
</mgrwt>
</event>
<event>
 5    1  0.6043464E+000  0.9033242E+02  0.7546771E-02  0.1302049E+00
          1   -1    0    0  501    0  0.00000000000E+00  0.00000000000E+00  0.10249006835E+02  0.10249006835E+02  0.00000000000E+00 0. -1.
         -1   -1    0    0    0  501 -0.00000000000E+00 -0.00000000000E+00 -0.19904235084E+03  0.19904235084E+03  0.00000000000E+00 0.  1.
         23    2    1    2    0    0  0.00000000000E+00  0.00000000000E+00 -0.18879334401E+03  0.20929135768E+03  0.90332417533E+02 0.  0.
        -13    1    3    3    0    0 -0.21347994640E+02  0.23403218865E+02 -0.16899008210E+03  0.17193340390E+03  0.00000000000E+00 0.  1.
         13    1    3    3    0    0  0.21347994640E+02 -0.23403218865E+02 -0.19803261908E+02  0.37357953779E+02  0.00000000000E+00 0. -1.
<mgrwt>
<rscale>  0 0.90332418E+02</rscale>
<asrwt>0</asrwt>
<pdfrwt beam="1">  1        1 0.15767703E-02 0.90332418E+02</pdfrwt>
<pdfrwt beam="2">  1       -1 0.30621901E-01 0.90332418E+02</pdfrwt>
<totfact> 0.71224181E+04</totfact>
</mgrwt>
</event>
<event>
 5    1  0.6043464E+000  0.9023273E+02  0.7546771E-02  0.1302289E+00
         -4   -1    0    0    0  501 -0.00000000000E+00  0.00000000000E+00  0.99001041006E+01  0.99001041006E+01  0.00000000000E+00 0.  1.
          4   -1    0    0  501    0  0.00000000000E+00 -0.00000000000E+00 -0.20560252267E+03  0.20560252267E+03  0.00000000000E+00 0. -1.
         23    2    1    2    0    0  0.00000000000E+00  0.00000000000E+00 -0.19570241857E+03  0.21550262678E+03  0.90232729712E+02 0.  0.
        -13    1    3    3    0    0 -0.19083559154E+02  0.35044277636E+02 -0.47571854381E+02  0.62091585213E+02  0.00000000000E+00 0.  1.
         13    1    3    3    0    0  0.19083559154E+02 -0.35044277636E+02 -0.14813056419E+03  0.15341104156E+03  0.00000000000E+00 0. -1.
<mgrwt>
<rscale>  0 0.90232730E+02</rscale>
<asrwt>0</asrwt>
<pdfrwt beam="2">  1        4 0.31631154E-01 0.90232730E+02</pdfrwt>
<pdfrwt beam="1">  1       -4 0.15230931E-02 0.90232730E+02</pdfrwt>
<totfact> 0.21340081E+04</totfact>
</mgrwt>
</event>
<event>
 5    1  0.6043464E+000  0.8662204E+02  0.7546771E-02  0.1311244E+00
          1   -1    0    0  501    0  0.00000000000E+00  0.00000000000E+00  0.18946849867E+03  0.18946849867E+03  0.00000000000E+00 0. -1.
         -1   -1    0    0    0  501 -0.00000000000E+00 -0.00000000000E+00 -0.99005607531E+01  0.99005607531E+01  0.00000000000E+00 0.  1.
         23    2    1    2    0    0  0.00000000000E+00  0.00000000000E+00  0.17956793792E+03  0.19936905942E+03  0.86622038348E+02 0.  0.
        -13    1    3    3    0    0  0.38350406992E+02  0.16522442004E+02  0.63330655864E+02  0.75858531349E+02  0.00000000000E+00 0.  1.
         13    1    3    3    0    0 -0.38350406992E+02 -0.16522442004E+02  0.11623728205E+03  0.12351052808E+03  0.00000000000E+00 0. -1.
<mgrwt>
<rscale>  0 0.86622038E+02</rscale>
<asrwt>0</asrwt>
<pdfrwt beam="1">  1        1 0.29148997E-01 0.86622038E+02</pdfrwt>
<pdfrwt beam="2">  1       -1 0.15231633E-02 0.86622038E+02</pdfrwt>
<totfact> 0.13439104E+05</totfact>
</mgrwt>
</event>
<event>
 5    1  0.6043464E+000  0.8346531E+02  0.7546771E-02  0.1319495E+00
         -2   -1    0    0    0  501 -0.00000000000E+00  0.00000000000E+00  0.49351324104E+01  0.49351324104E+01  0.00000000000E+00 0. -1.
          2   -1    0    0  501    0  0.00000000000E+00 -0.00000000000E+00 -0.35290123235E+03  0.35290123235E+03  0.00000000000E+00 0.  1.
         23    2    1    2    0    0  0.00000000000E+00  0.00000000000E+00 -0.34796609994E+03  0.35783636476E+03  0.83465305593E+02 0.  0.
        -13    1    3    3    0    0  0.36927419586E+02 -0.16672599691E+02 -0.13110963624E+03  0.13722735373E+03  0.00000000000E+00 0. -1.
         13    1    3    3    0    0 -0.36927419586E+02  0.16672599691E+02 -0.21685646370E+03  0.22060901103E+03  0.00000000000E+00 0.  1.
<mgrwt>
<rscale>  0 0.83465306E+02</rscale>
<asrwt>0</asrwt>
<pdfrwt beam="2">  1        2 0.54292506E-01 0.83465306E+02</pdfrwt>
<pdfrwt beam="1">  1       -2 0.75925102E-03 0.83465306E+02</pdfrwt>
<totfact> 0.24103679E+05</totfact>
</mgrwt>
</event>
<event>
 5    1  0.6043464E+000  0.6984787E+02  0.7546771E-02  0.1360611E+00
         -1   -1    0    0    0  501 -0.00000000000E+00  0.00000000000E+00  0.30069060695E+02  0.30069060695E+02  0.00000000000E+00 0.  1.
          1   -1    0    0  501    0  0.00000000000E+00 -0.00000000000E+00 -0.40562659621E+02  0.40562659621E+02  0.00000000000E+00 0. -1.
         23    2    1    2    0    0  0.00000000000E+00  0.00000000000E+00 -0.10493598926E+02  0.70631720316E+02  0.69847865367E+02 0.  0.
        -13    1    3    3    0    0  0.28017410991E+01  0.20690921384E+02  0.23062316375E+02  0.31110037247E+02  0.00000000000E+00 0.  1.
         13    1    3    3    0    0 -0.28017410991E+01 -0.20690921384E+02 -0.33555915301E+02  0.39521683069E+02  0.00000000000E+00 0. -1.
<mgrwt>
<rscale>  0 0.69847865E+02</rscale>
<asrwt>0</asrwt>
<pdfrwt beam="2">  1        1 0.62404092E-02 0.69847865E+02</pdfrwt>
<pdfrwt beam="1">  1       -1 0.46260093E-02 0.69847865E+02</pdfrwt>
<totfact> 0.18955400E+05</totfact>
</mgrwt>
</event>
<event>
 5    1  0.6043464E+000  0.9054445E+02  0.7546771E-02  0.1301539E+00
          1   -1    0    0  501    0  0.00000000000E+00  0.00000000000E+00  0.90534479687E+02  0.90534479687E+02  0.00000000000E+00 0. -1.
         -1   -1    0    0    0  501 -0.00000000000E+00 -0.00000000000E+00 -0.22638603710E+02  0.22638603710E+02  0.00000000000E+00 0.  1.
         23    2    1    2    0    0  0.00000000000E+00  0.00000000000E+00  0.67895875977E+02  0.11317308340E+03  0.90544446716E+02 0.  0.
        -13    1    3    3    0    0  0.43020559330E+02 -0.76870407111E+01  0.48722104285E+02  0.65450000504E+02  0.00000000000E+00 0.  1.
         13    1    3    3    0    0 -0.43020559330E+02  0.76870407111E+01  0.19173771691E+02  0.47723082893E+02  0.00000000000E+00 0. -1.
<mgrwt>
<rscale>  0 0.90544447E+02</rscale>
<asrwt>0</asrwt>
<pdfrwt beam="1">  1        1 0.13928381E-01 0.90544447E+02</pdfrwt>
<pdfrwt beam="2">  1       -1 0.34828621E-02 0.90544447E+02</pdfrwt>
<totfact> 0.10473124E+05</totfact>
</mgrwt>
</event>
<event>
 5    1  0.6043464E+000  0.7360855E+02  0.7546771E-02  0.1348235E+00
         -2   -1    0    0    0  501 -0.00000000000E+00  0.00000000000E+00  0.16653183464E+02  0.16653183464E+02  0.00000000000E+00 0.  1.
          2   -1    0    0  501    0  0.00000000000E+00 -0.00000000000E+00 -0.81339077104E+02  0.81339077104E+02  0.00000000000E+00 0. -1.
         23    2    1    2    0    0  0.00000000000E+00  0.00000000000E+00 -0.64685893640E+02  0.97992260568E+02  0.73608547706E+02 0.  0.
        -13    1    3    3    0    0 -0.18298765599E+02  0.27803165265E+02 -0.53252396512E+02  0.62798714601E+02  0.00000000000E+00 0. -1.
         13    1    3    3    0    0  0.18298765599E+02 -0.27803165265E+02 -0.11433497127E+02  0.35193545968E+02  0.00000000000E+00 0.  1.
<mgrwt>
<rscale>  0 0.73608548E+02</rscale>
<asrwt>0</asrwt>
<pdfrwt beam="2">  1        2 0.12513704E-01 0.73608548E+02</pdfrwt>
<pdfrwt beam="1">  1       -2 0.25620283E-02 0.73608548E+02</pdfrwt>
<totfact> 0.20703377E+05</totfact>
</mgrwt>
</event>
<event>
 5    1  0.6043464E+000  0.9157445E+02  0.7546771E-02  0.1299083E+00
          1   -1    0    0  501    0  0.00000000000E+00  0.00000000000E+00  0.98288802667E+02  0.98288802667E+02  0.00000000000E+00 0. -1.
         -1   -1    0    0    0  501 -0.00000000000E+00 -0.00000000000E+00 -0.21329691643E+02  0.21329691643E+02  0.00000000000E+00 0.  1.
         23    2    1    2    0    0  0.00000000000E+00  0.00000000000E+00  0.76959111024E+02  0.11961849431E+03  0.91574447372E+02 0.  0.
        -13    1    3    3    0    0  0.27595485312E+02 -0.29854143008E+02  0.10964940016E+02  0.42107132102E+02  0.00000000000E+00 0.  1.
         13    1    3    3    0    0 -0.27595485312E+02  0.29854143008E+02  0.65994171008E+02  0.77511362208E+02  0.00000000000E+00 0. -1.
<mgrwt>
<rscale>  0 0.91574447E+02</rscale>
<asrwt>0</asrwt>
<pdfrwt beam="1">  1        1 0.15121354E-01 0.91574447E+02</pdfrwt>
<pdfrwt beam="2">  1       -1 0.32814911E-02 0.91574447E+02</pdfrwt>
<totfact> 0.10292275E+05</totfact>
</mgrwt>
</event>
<event>
 5    1  0.6043464E+000  0.9145654E+02  0.7546771E-02  0.1299362E+00
         -4   -1    0    0    0  501 -0.00000000000E+00  0.00000000000E+00  0.16368881959E+02  0.16368881959E+02  0.00000000000E+00 0.  1.
          4   -1    0    0  501    0  0.00000000000E+00 -0.00000000000E+00 -0.12774694262E+03  0.12774694262E+03  0.00000000000E+00 0. -1.
         23    2    1    2    0    0  0.00000000000E+00  0.00000000000E+00 -0.11137806066E+03  0.14411582458E+03  0.91456538844E+02 0.  0.
        -13    1    3    3    0    0  0.35082602524E+02  0.25758181491E+02 -0.77795090308E+02  0.89142296300E+02  0.00000000000E+00 0. -1.
         13    1    3    3    0    0 -0.35082602524E+02 -0.25758181491E+02 -0.33582970348E+02  0.54973528275E+02  0.00000000000E+00 0.  1.
<mgrwt>
<rscale>  0 0.91456539E+02</rscale>
<asrwt>0</asrwt>
<pdfrwt beam="2">  1        4 0.19653375E-01 0.91456539E+02</pdfrwt>
<pdfrwt beam="1">  1       -4 0.25182896E-02 0.91456539E+02</pdfrwt>
<totfact> 0.23774656E+04</totfact>
</mgrwt>
</event>
<event>
 5    1  0.6043464E+000  0.9357677E+02  0.7546771E-02  0.1294414E+00
         -2   -1    0    0    0  501 -0.00000000000E+00  0.00000000000E+00  0.14695919740E+02  0.14695919740E+02  0.00000000000E+00 0.  1.
          2   -1    0    0  501    0  0.00000000000E+00 -0.00000000000E+00 -0.14896333139E+03  0.14896333139E+03  0.00000000000E+00 0. -1.
         23    2    1    2    0    0  0.00000000000E+00  0.00000000000E+00 -0.13426741165E+03  0.16365925113E+03  0.93576774091E+02 0.  0.
        -13    1    3    3    0    0  0.77975131587E+01 -0.44322078866E+02 -0.89524472100E+02  0.10019919656E+03  0.00000000000E+00 0.  1.
         13    1    3    3    0    0 -0.77975131587E+01  0.44322078866E+02 -0.44742939553E+02  0.63460054572E+02  0.00000000000E+00 0. -1.
<mgrwt>
<rscale>  0 0.93576774E+02</rscale>
<asrwt>0</asrwt>
<pdfrwt beam="2">  1        2 0.22917435E-01 0.93576774E+02</pdfrwt>
<pdfrwt beam="1">  1       -2 0.22609108E-02 0.93576774E+02</pdfrwt>
<totfact> 0.12995863E+05</totfact>
</mgrwt>
</event>
<event>
 5    1  0.6043464E+000  0.7305384E+02  0.7546771E-02  0.1350006E+00
          1   -1    0    0  501    0  0.00000000000E+00  0.00000000000E+00  0.94688612878E+01  0.94688612878E+01  0.00000000000E+00 0. -1.
         -1   -1    0    0    0  501 -0.00000000000E+00 -0.00000000000E+00 -0.14090564582E+03  0.14090564582E+03  0.00000000000E+00 0.  1.
         23    2    1    2    0    0  0.00000000000E+00  0.00000000000E+00 -0.13143678453E+03  0.15037450711E+03  0.73053843566E+02 0.  0.
        -13    1    3    3    0    0 -0.32116802171E+02 -0.84985545505E+01 -0.96969694737E+02  0.10250285903E+03  0.00000000000E+00 0.  1.
         13    1    3    3    0    0  0.32116802171E+02  0.84985545505E+01 -0.34467089798E+02  0.47871648084E+02  0.00000000000E+00 0. -1.
<mgrwt>
<rscale>  0 0.73053844E+02</rscale>
<asrwt>0</asrwt>
<pdfrwt beam="1">  1        1 0.14567480E-02 0.73053844E+02</pdfrwt>
<pdfrwt beam="2">  1       -1 0.21677790E-01 0.73053844E+02</pdfrwt>
<totfact> 0.13427379E+05</totfact>
</mgrwt>
</event>
<event>
 5    1  0.6043464E+000  0.9113496E+02  0.7546771E-02  0.1300126E+00
          4   -1    0    0  501    0  0.00000000000E+00  0.00000000000E+00  0.64450495626E+02  0.64450495626E+02  0.00000000000E+00 0. -1.
         -4   -1    0    0    0  501 -0.00000000000E+00 -0.00000000000E+00 -0.32216902825E+02  0.32216902825E+02  0.00000000000E+00 0.  1.
         23    2    1    2    0    0  0.00000000000E+00  0.00000000000E+00  0.32233592801E+02  0.96667398451E+02  0.91134962657E+02 0.  0.
        -13    1    3    3    0    0 -0.40899930906E+01 -0.14386882435E+02  0.61772579337E+02  0.63557548628E+02  0.00000000000E+00 0. -1.
         13    1    3    3    0    0  0.40899930906E+01  0.14386882435E+02 -0.29538986537E+02  0.33109849823E+02  0.00000000000E+00 0.  1.
<mgrwt>
<rscale>  0 0.91134963E+02</rscale>
<asrwt>0</asrwt>
<pdfrwt beam="1">  1        4 0.99154608E-02 0.91134963E+02</pdfrwt>
<pdfrwt beam="2">  1       -4 0.49564466E-02 0.91134963E+02</pdfrwt>
<totfact> 0.26699560E+04</totfact>
</mgrwt>
</event>
<event>
 5    1  0.6043464E+000  0.9163379E+02  0.7546771E-02  0.1298943E+00
          1   -1    0    0  501    0  0.00000000000E+00  0.00000000000E+00  0.53174955679E+02  0.53174955679E+02  0.00000000000E+00 0. -1.
         -1   -1    0    0    0  501 -0.00000000000E+00 -0.00000000000E+00 -0.39477003746E+02  0.39477003746E+02  0.00000000000E+00 0.  1.
         23    2    1    2    0    0  0.00000000000E+00  0.00000000000E+00  0.13697951934E+02  0.92651959425E+02  0.91633791246E+02 0.  0.
        -13    1    3    3    0    0  0.16342857986E+02 -0.30236565692E+02  0.37481626434E+02  0.50854805399E+02  0.00000000000E+00 0. -1.
         13    1    3    3    0    0 -0.16342857986E+02  0.30236565692E+02 -0.23783674500E+02  0.41797154027E+02  0.00000000000E+00 0.  1.
<mgrwt>
<rscale>  0 0.91633791E+02</rscale>
<asrwt>0</asrwt>
<pdfrwt beam="1">  1        1 0.81807625E-02 0.91633791E+02</pdfrwt>
<pdfrwt beam="2">  1       -1 0.60733852E-02 0.91633791E+02</pdfrwt>
<totfact> 0.93322938E+04</totfact>
</mgrwt>
</event>
<event>
 5    1  0.6043464E+000  0.9155663E+02  0.7546771E-02  0.1299125E+00
         -2   -1    0    0    0  501 -0.00000000000E+00  0.00000000000E+00  0.49207492823E+01  0.49207492823E+01  0.00000000000E+00 0.  1.
          2   -1    0    0  501    0  0.00000000000E+00 -0.00000000000E+00 -0.42588112058E+03  0.42588112058E+03  0.00000000000E+00 0. -1.
         23    2    1    2    0    0  0.00000000000E+00  0.00000000000E+00 -0.42096037130E+03  0.43080186986E+03  0.91556632058E+02 0.  0.
        -13    1    3    3    0    0  0.43841618407E+02 -0.94565406131E+01 -0.16731928949E+03  0.17322603240E+03  0.00000000000E+00 0. -1.
         13    1    3    3    0    0 -0.43841618407E+02  0.94565406131E+01 -0.25364108181E+03  0.25757583746E+03  0.00000000000E+00 0.  1.
<mgrwt>
<rscale>  0 0.91556632E+02</rscale>
<asrwt>0</asrwt>
<pdfrwt beam="2">  1        2 0.65520174E-01 0.91556632E+02</pdfrwt>
<pdfrwt beam="1">  1       -2 0.75703833E-03 0.91556632E+02</pdfrwt>
<totfact> 0.20186564E+05</totfact>
</mgrwt>
</event>
<event>
 5    1  0.6043464E+000  0.9314205E+02  0.7546771E-02  0.1295416E+00
          1   -1    0    0  501    0  0.00000000000E+00  0.00000000000E+00  0.75470416020E+02  0.75470416020E+02  0.00000000000E+00 0. -1.
         -1   -1    0    0    0  501 -0.00000000000E+00 -0.00000000000E+00 -0.28737886226E+02  0.28737886226E+02  0.00000000000E+00 0.  1.
         23    2    1    2    0    0  0.00000000000E+00  0.00000000000E+00  0.46732529793E+02  0.10420830225E+03  0.93142046983E+02 0.  0.
        -13    1    3    3    0    0  0.91091088414E+01 -0.31559581020E+02 -0.13569349546E+02  0.35540262592E+02  0.00000000000E+00 0.  1.
         13    1    3    3    0    0 -0.91091088414E+01  0.31559581020E+02  0.60301879339E+02  0.68668039654E+02  0.00000000000E+00 0. -1.
<mgrwt>
<rscale>  0 0.93142047E+02</rscale>
<asrwt>0</asrwt>
<pdfrwt beam="1">  1        1 0.11610833E-01 0.93142047E+02</pdfrwt>
<pdfrwt beam="2">  1       -1 0.44212133E-02 0.93142047E+02</pdfrwt>
<totfact> 0.94126267E+04</totfact>
</mgrwt>
</event>
<event>
 5    1  0.6043464E+000  0.8698705E+02  0.7546771E-02  0.1310316E+00
          3   -1    0    0  501    0  0.00000000000E+00  0.00000000000E+00  0.17667373594E+02  0.17667373594E+02  0.00000000000E+00 0. -1.
         -3   -1    0    0    0  501 -0.00000000000E+00 -0.00000000000E+00 -0.10707231407E+03  0.10707231407E+03  0.00000000000E+00 0.  1.
         23    2    1    2    0    0  0.00000000000E+00  0.00000000000E+00 -0.89404940479E+02  0.12473968767E+03  0.86987046722E+02 0.  0.
        -13    1    3    3    0    0  0.18968905457E+02  0.29751091932E+01  0.11260697345E+02  0.22259244229E+02  0.00000000000E+00 0. -1.
         13    1    3    3    0    0 -0.18968905457E+02 -0.29751091932E+01 -0.10066563782E+03  0.10248044344E+03  0.00000000000E+00 0.  1.
<mgrwt>
<rscale>  0 0.86987047E+02</rscale>
<asrwt>0</asrwt>
<pdfrwt beam="1">  1        3 0.27180575E-02 0.86987047E+02</pdfrwt>
<pdfrwt beam="2">  1       -3 0.16472664E-01 0.86987047E+02</pdfrwt>
<totfact> 0.37391460E+04</totfact>
</mgrwt>
</event>
<event>
 5    1  0.6043464E+000  0.9101822E+02  0.7546771E-02  0.1300404E+00
          4   -1    0    0  501    0  0.00000000000E+00  0.00000000000E+00  0.16852292450E+03  0.16852292450E+03  0.00000000000E+00 0. -1.
         -4   -1    0    0    0  501 -0.00000000000E+00 -0.00000000000E+00 -0.12289598531E+02  0.12289598531E+02  0.00000000000E+00 0.  1.
         23    2    1    2    0    0  0.00000000000E+00  0.00000000000E+00  0.15623332597E+03  0.18081252303E+03  0.91018219830E+02 0.  0.
        -13    1    3    3    0    0  0.20970569844E+02  0.32834267462E+02  0.31391466855E+02  0.50032770368E+02  0.00000000000E+00 0.  1.
         13    1    3    3    0    0 -0.20970569844E+02 -0.32834267462E+02  0.12484185911E+03  0.13077975266E+03  0.00000000000E+00 0. -1.
<mgrwt>
<rscale>  0 0.91018220E+02</rscale>
<asrwt>0</asrwt>
<pdfrwt beam="1">  1        4 0.25926602E-01 0.91018220E+02</pdfrwt>
<pdfrwt beam="2">  1       -4 0.18907076E-02 0.91018220E+02</pdfrwt>
<totfact> 0.22319116E+04</totfact>
</mgrwt>
</event>
<event>
 5    1  0.6043464E+000  0.9350002E+02  0.7546771E-02  0.1294591E+00
          4   -1    0    0  501    0  0.00000000000E+00  0.00000000000E+00  0.11621163345E+03  0.11621163345E+03  0.00000000000E+00 0. -1.
         -4   -1    0    0    0  501 -0.00000000000E+00 -0.00000000000E+00 -0.18806752608E+02  0.18806752608E+02  0.00000000000E+00 0.  1.
         23    2    1    2    0    0  0.00000000000E+00  0.00000000000E+00  0.97404880844E+02  0.13501838606E+03  0.93500020119E+02 0.  0.
        -13    1    3    3    0    0  0.34789930686E+02 -0.18160647768E+02  0.85388473006E+02  0.93975208043E+02  0.00000000000E+00 0. -1.
         13    1    3    3    0    0 -0.34789930686E+02  0.18160647768E+02  0.12016407838E+02  0.41043178018E+02  0.00000000000E+00 0.  1.
<mgrwt>
<rscale>  0 0.93500020E+02</rscale>
<asrwt>0</asrwt>
<pdfrwt beam="1">  1        4 0.17878712E-01 0.93500020E+02</pdfrwt>
<pdfrwt beam="2">  1       -4 0.28933466E-02 0.93500020E+02</pdfrwt>
<totfact> 0.22839171E+04</totfact>
</mgrwt>
</event>
<event>
 5    1  0.6043464E+000  0.9156896E+02  0.7546771E-02  0.1299096E+00
          3   -1    0    0  501    0  0.00000000000E+00  0.00000000000E+00  0.85004653094E+02  0.85004653094E+02  0.00000000000E+00 0. -1.
         -3   -1    0    0    0  501 -0.00000000000E+00 -0.00000000000E+00 -0.24660046896E+02  0.24660046896E+02  0.00000000000E+00 0.  1.
         23    2    1    2    0    0  0.00000000000E+00  0.00000000000E+00  0.60344606199E+02  0.10966469999E+03  0.91568962682E+02 0.  0.
        -13    1    3    3    0    0 -0.16356792144E+02  0.71578123950E+01 -0.20318933959E+02  0.27048807825E+02  0.00000000000E+00 0.  1.
         13    1    3    3    0    0  0.16356792144E+02 -0.71578123950E+01  0.80663540157E+02  0.82615892165E+02  0.00000000000E+00 0. -1.
<mgrwt>
<rscale>  0 0.91568963E+02</rscale>
<asrwt>0</asrwt>
<pdfrwt beam="1">  1        3 0.13077639E-01 0.91568963E+02</pdfrwt>
<pdfrwt beam="2">  1       -3 0.37938534E-02 0.91568963E+02</pdfrwt>
<totfact> 0.33573968E+04</totfact>
</mgrwt>
</event>
<event>
 5    1  0.6043464E+000  0.9153169E+02  0.7546771E-02  0.1299184E+00
          1   -1    0    0  501    0  0.00000000000E+00  0.00000000000E+00  0.66439344195E+02  0.66439344195E+02  0.00000000000E+00 0. -1.
         -1   -1    0    0    0  501 -0.00000000000E+00 -0.00000000000E+00 -0.31525184625E+02  0.31525184625E+02  0.00000000000E+00 0.  1.
         23    2    1    2    0    0  0.00000000000E+00  0.00000000000E+00  0.34914159570E+02  0.97964528820E+02  0.91531690515E+02 0.  0.
        -13    1    3    3    0    0 -0.28379819088E+02 -0.19364200338E+01 -0.20914339062E+02  0.35306846821E+02  0.00000000000E+00 0.  1.
         13    1    3    3    0    0  0.28379819088E+02  0.19364200338E+01  0.55828498632E+02  0.62657681999E+02  0.00000000000E+00 0. -1.
<mgrwt>
<rscale>  0 0.91531691E+02</rscale>
<asrwt>0</asrwt>
<pdfrwt beam="1">  1        1 0.10221438E-01 0.91531691E+02</pdfrwt>
<pdfrwt beam="2">  1       -1 0.48500284E-02 0.91531691E+02</pdfrwt>
<totfact> 0.96831986E+04</totfact>
</mgrwt>
</event>
<event>
 5    1  0.6043464E+000  0.9693870E+02  0.7546771E-02  0.1286868E+00
         -2   -1    0    0    0  501 -0.00000000000E+00  0.00000000000E+00  0.12119688050E+02  0.12119688050E+02  0.00000000000E+00 0.  1.
          2   -1    0    0  501    0  0.00000000000E+00 -0.00000000000E+00 -0.19383977973E+03  0.19383977973E+03  0.00000000000E+00 0. -1.
         23    2    1    2    0    0  0.00000000000E+00  0.00000000000E+00 -0.18172009168E+03  0.20595946778E+03  0.96938695306E+02 0.  0.
        -13    1    3    3    0    0  0.44944959594E+02 -0.25847361408E+01 -0.52702417922E+02  0.69312878375E+02  0.00000000000E+00 0.  1.
         13    1    3    3    0    0 -0.44944959594E+02  0.25847361408E+01 -0.12901767376E+03  0.13664658940E+03  0.00000000000E+00 0. -1.
<mgrwt>
<rscale>  0 0.96938695E+02</rscale>
<asrwt>0</asrwt>
<pdfrwt beam="2">  1        2 0.29821502E-01 0.96938695E+02</pdfrwt>
<pdfrwt beam="1">  1       -2 0.18645675E-02 0.96938695E+02</pdfrwt>
<totfact> 0.12957186E+05</totfact>
</mgrwt>
</event>
<event>
 5    1  0.6043464E+000  0.9189247E+02  0.7546771E-02  0.1298332E+00
         -2   -1    0    0    0  501 -0.00000000000E+00  0.00000000000E+00  0.42648237735E+02  0.42648237735E+02  0.00000000000E+00 0.  1.
          2   -1    0    0  501    0  0.00000000000E+00 -0.00000000000E+00 -0.49499268966E+02  0.49499268966E+02  0.00000000000E+00 0. -1.
         23    2    1    2    0    0  0.00000000000E+00  0.00000000000E+00 -0.68510312308E+01  0.92147506701E+02  0.91892471739E+02 0.  0.
        -13    1    3    3    0    0  0.22556260002E+02 -0.87690089821E+01  0.35738944057E+02  0.43161933531E+02  0.00000000000E+00 0.  1.
         13    1    3    3    0    0 -0.22556260002E+02  0.87690089821E+01 -0.42589975288E+02  0.48985573170E+02  0.00000000000E+00 0. -1.
<mgrwt>
<rscale>  0 0.91892472E+02</rscale>
<asrwt>0</asrwt>
<pdfrwt beam="2">  1        2 0.76152722E-02 0.91892472E+02</pdfrwt>
<pdfrwt beam="1">  1       -2 0.65612673E-02 0.91892472E+02</pdfrwt>
<totfact> 0.98583150E+04</totfact>
</mgrwt>
</event>
<event>
 5    1  0.6043464E+000  0.9139907E+02  0.7546771E-02  0.1299499E+00
         -2   -1    0    0    0  501 -0.00000000000E+00  0.00000000000E+00  0.48218867026E+02  0.48218867026E+02  0.00000000000E+00 0.  1.
          2   -1    0    0  501    0  0.00000000000E+00 -0.00000000000E+00 -0.43311829672E+02  0.43311829672E+02  0.00000000000E+00 0. -1.
         23    2    1    2    0    0  0.00000000000E+00  0.00000000000E+00  0.49070373538E+01  0.91530696699E+02  0.91399066858E+02 0.  0.
        -13    1    3    3    0    0 -0.13971497611E+02 -0.14819171277E+02 -0.38515504671E+02  0.43568964675E+02  0.00000000000E+00 0. -1.
         13    1    3    3    0    0  0.13971497611E+02  0.14819171277E+02  0.43422542024E+02  0.47961732023E+02  0.00000000000E+00 0.  1.
<mgrwt>
<rscale>  0 0.91399067E+02</rscale>
<asrwt>0</asrwt>
<pdfrwt beam="2">  1        2 0.66633584E-02 0.91399067E+02</pdfrwt>
<pdfrwt beam="1">  1       -2 0.74182873E-02 0.91399067E+02</pdfrwt>
<totfact> 0.96691675E+04</totfact>
</mgrwt>
</event>
<event>
 5    1  0.6043464E+000  0.8942669E+02  0.7546771E-02  0.1304246E+00
         -1   -1    0    0    0  501 -0.00000000000E+00  0.00000000000E+00  0.61310860404E+01  0.61310860404E+01  0.00000000000E+00 0.  1.
          1   -1    0    0  501    0  0.00000000000E+00 -0.00000000000E+00 -0.32608954940E+03  0.32608954940E+03  0.00000000000E+00 0. -1.
         23    2    1    2    0    0  0.00000000000E+00  0.00000000000E+00 -0.31995846336E+03  0.33222063544E+03  0.89426686939E+02 0.  0.
        -13    1    3    3    0    0 -0.25849664557E+02  0.31430213268E+02 -0.22880412019E+03  0.23239489856E+03  0.00000000000E+00 0. -1.
         13    1    3    3    0    0  0.25849664557E+02 -0.31430213268E+02 -0.91154343173E+02  0.99825736878E+02  0.00000000000E+00 0.  1.
<mgrwt>
<rscale>  0 0.89426687E+02</rscale>
<asrwt>0</asrwt>
<pdfrwt beam="2">  1        1 0.50167636E-01 0.89426687E+02</pdfrwt>
<pdfrwt beam="1">  1       -1 0.94324375E-03 0.89426687E+02</pdfrwt>
<totfact> 0.13702585E+05</totfact>
</mgrwt>
</event>
<event>
 5    1  0.6043464E+000  0.9317333E+02  0.7546771E-02  0.1295344E+00
         -3   -1    0    0    0  501 -0.00000000000E+00  0.00000000000E+00  0.23880439500E+02  0.23880439500E+02  0.00000000000E+00 0.  1.
          3   -1    0    0  501    0  0.00000000000E+00 -0.00000000000E+00 -0.90882629782E+02  0.90882629782E+02  0.00000000000E+00 0. -1.
         23    2    1    2    0    0  0.00000000000E+00  0.00000000000E+00 -0.67002190282E+02  0.11476306928E+03  0.93173325413E+02 0.  0.
        -13    1    3    3    0    0 -0.26155538312E+02  0.54402509503E+01 -0.80510201752E+02  0.84826889021E+02  0.00000000000E+00 0. -1.
         13    1    3    3    0    0  0.26155538312E+02 -0.54402509503E+01  0.13508011470E+02  0.29936180262E+02  0.00000000000E+00 0.  1.
<mgrwt>
<rscale>  0 0.93173325E+02</rscale>
<asrwt>0</asrwt>
<pdfrwt beam="2">  1        3 0.13981943E-01 0.93173325E+02</pdfrwt>
<pdfrwt beam="1">  1       -3 0.36739138E-02 0.93173325E+02</pdfrwt>
<totfact> 0.31682193E+04</totfact>
</mgrwt>
</event>
<event>
 5    1  0.6043464E+000  0.9674892E+02  0.7546771E-02  0.1287285E+00
         -2   -1    0    0    0  501 -0.00000000000E+00  0.00000000000E+00  0.88528887348E+02  0.88528887348E+02  0.00000000000E+00 0.  1.
          2   -1    0    0  501    0  0.00000000000E+00 -0.00000000000E+00 -0.26433050693E+02  0.26433050693E+02  0.00000000000E+00 0. -1.
         23    2    1    2    0    0  0.00000000000E+00  0.00000000000E+00  0.62095836655E+02  0.11496193804E+03  0.96748923861E+02 0.  0.
        -13    1    3    3    0    0 -0.19312302039E+02  0.38088700508E+02  0.58049568509E+02  0.72065709742E+02  0.00000000000E+00 0.  1.
         13    1    3    3    0    0  0.19312302039E+02 -0.38088700508E+02  0.40462681460E+01  0.42896228300E+02  0.00000000000E+00 0. -1.
<mgrwt>
<rscale>  0 0.96748924E+02</rscale>
<asrwt>0</asrwt>
<pdfrwt beam="2">  1        2 0.40666232E-02 0.96748924E+02</pdfrwt>
<pdfrwt beam="1">  1       -2 0.13619829E-01 0.96748924E+02</pdfrwt>
<totfact> 0.71418300E+04</totfact>
</mgrwt>
</event>
<event>
 5    1  0.6043464E+000  0.8854733E+02  0.7546771E-02  0.1306408E+00
         -1   -1    0    0    0  501 -0.00000000000E+00  0.00000000000E+00  0.17240545335E+02  0.17240545335E+02  0.00000000000E+00 0.  1.
          1   -1    0    0  501    0  0.00000000000E+00 -0.00000000000E+00 -0.11369463141E+03  0.11369463141E+03  0.00000000000E+00 0. -1.
         23    2    1    2    0    0  0.00000000000E+00  0.00000000000E+00 -0.96454086079E+02  0.13093517675E+03  0.88547330784E+02 0.  0.
        -13    1    3    3    0    0 -0.14042403352E+02 -0.24383074797E+02  0.23185109810E+01  0.28232940364E+02  0.00000000000E+00 0.  1.
         13    1    3    3    0    0  0.14042403352E+02  0.24383074797E+02 -0.98772597060E+02  0.10270223638E+03  0.00000000000E+00 0. -1.
<mgrwt>
<rscale>  0 0.88547331E+02</rscale>
<asrwt>0</asrwt>
<pdfrwt beam="2">  1        1 0.17491482E-01 0.88547331E+02</pdfrwt>
<pdfrwt beam="1">  1       -1 0.26523915E-02 0.88547331E+02</pdfrwt>
<totfact> 0.11554570E+05</totfact>
</mgrwt>
</event>
<event>
 5    1  0.6043464E+000  0.8975040E+02  0.7546771E-02  0.1303457E+00
          1   -1    0    0  501    0  0.00000000000E+00  0.00000000000E+00  0.95083113647E+02  0.95083113647E+02  0.00000000000E+00 0. -1.
         -1   -1    0    0    0  501 -0.00000000000E+00 -0.00000000000E+00 -0.21179193298E+02  0.21179193298E+02  0.00000000000E+00 0.  1.
         23    2    1    2    0    0  0.00000000000E+00  0.00000000000E+00  0.73903920349E+02  0.11626230695E+03  0.89750401522E+02 0.  0.
        -13    1    3    3    0    0 -0.33901419638E+02 -0.18386330952E+02  0.66673329806E+02  0.77023998382E+02  0.00000000000E+00 0. -1.
         13    1    3    3    0    0  0.33901419638E+02  0.18386330952E+02  0.72305905426E+01  0.39238308564E+02  0.00000000000E+00 0.  1.
<mgrwt>
<rscale>  0 0.89750402E+02</rscale>
<asrwt>0</asrwt>
<pdfrwt beam="1">  1        1 0.14628171E-01 0.89750402E+02</pdfrwt>
<pdfrwt beam="2">  1       -1 0.32583375E-02 0.89750402E+02</pdfrwt>
<totfact> 0.10813330E+05</totfact>
</mgrwt>
</event>
<event>
 5    1  0.6043464E+000  0.9270810E+02  0.7546771E-02  0.1296423E+00
         -2   -1    0    0    0  501 -0.00000000000E+00  0.00000000000E+00  0.28436048326E+02  0.28436048326E+02  0.00000000000E+00 0.  1.
          2   -1    0    0  501    0  0.00000000000E+00 -0.00000000000E+00 -0.75562458528E+02  0.75562458528E+02  0.00000000000E+00 0. -1.
         23    2    1    2    0    0  0.00000000000E+00  0.00000000000E+00 -0.47126410202E+02  0.10399850685E+03  0.92708095058E+02 0.  0.
        -13    1    3    3    0    0  0.36624617818E+02  0.84778404378E+01  0.68589070587E+01  0.38213623419E+02  0.00000000000E+00 0.  1.
         13    1    3    3    0    0 -0.36624617818E+02 -0.84778404378E+01 -0.53985317261E+02  0.65784883435E+02  0.00000000000E+00 0. -1.
<mgrwt>
<rscale>  0 0.92708095E+02</rscale>
<asrwt>0</asrwt>
<pdfrwt beam="2">  1        2 0.11624994E-01 0.92708095E+02</pdfrwt>
<pdfrwt beam="1">  1       -2 0.43747767E-02 0.92708095E+02</pdfrwt>
<totfact> 0.10787204E+05</totfact>
</mgrwt>
</event>
<event>
 5    1  0.6043464E+000  0.9164496E+02  0.7546771E-02  0.1298916E+00
          2   -1    0    0  501    0  0.00000000000E+00  0.00000000000E+00  0.12206889948E+02  0.12206889948E+02  0.00000000000E+00 0. -1.
         -2   -1    0    0    0  501 -0.00000000000E+00 -0.00000000000E+00 -0.17200939647E+03  0.17200939647E+03  0.00000000000E+00 0.  1.
         23    2    1    2    0    0  0.00000000000E+00  0.00000000000E+00 -0.15980250652E+03  0.18421628642E+03  0.91644962169E+02 0.  0.
        -13    1    3    3    0    0 -0.45434904247E+02  0.15195559933E+00 -0.91851875984E+02  0.10247497615E+03  0.00000000000E+00 0.  1.
         13    1    3    3    0    0  0.45434904247E+02 -0.15195559933E+00 -0.67950630537E+02  0.81741310271E+02  0.00000000000E+00 0. -1.
<mgrwt>
<rscale>  0 0.91644962E+02</rscale>
<asrwt>0</asrwt>
<pdfrwt beam="1">  1        2 0.18779831E-02 0.91644962E+02</pdfrwt>
<pdfrwt beam="2">  1       -2 0.26462984E-01 0.91644962E+02</pdfrwt>
<totfact> 0.65467968E+04</totfact>
</mgrwt>
</event>
<event>
 5    1  0.6043464E+000  0.9083202E+02  0.7546771E-02  0.1300849E+00
          1   -1    0    0  501    0  0.00000000000E+00  0.00000000000E+00  0.20582492669E+02  0.20582492669E+02  0.00000000000E+00 0. -1.
         -1   -1    0    0    0  501 -0.00000000000E+00 -0.00000000000E+00 -0.10021205019E+03  0.10021205019E+03  0.00000000000E+00 0.  1.
         23    2    1    2    0    0  0.00000000000E+00  0.00000000000E+00 -0.79629557521E+02  0.12079454286E+03  0.90832016126E+02 0.  0.
        -13    1    3    3    0    0 -0.30175939620E+01  0.42140096606E+02 -0.61976938163E+02  0.75006896212E+02  0.00000000000E+00 0.  1.
         13    1    3    3    0    0  0.30175939620E+01 -0.42140096606E+02 -0.17652619358E+02  0.45787646647E+02  0.00000000000E+00 0. -1.
<mgrwt>
<rscale>  0 0.90832016E+02</rscale>
<asrwt>0</asrwt>
<pdfrwt beam="1">  1        1 0.31665373E-02 0.90832016E+02</pdfrwt>
<pdfrwt beam="2">  1       -1 0.15417239E-01 0.90832016E+02</pdfrwt>
<totfact> 0.82135924E+04</totfact>
</mgrwt>
</event>
<event>
 5    1  0.6043464E+000  0.9300453E+02  0.7546771E-02  0.1295735E+00
          2   -1    0    0  501    0  0.00000000000E+00  0.00000000000E+00  0.25884345046E+03  0.25884345046E+03  0.00000000000E+00 0. -1.
         -2   -1    0    0    0  501 -0.00000000000E+00 -0.00000000000E+00 -0.83543184267E+01  0.83543184267E+01  0.00000000000E+00 0.  1.
         23    2    1    2    0    0  0.00000000000E+00  0.00000000000E+00  0.25048913203E+03  0.26719776888E+03  0.93004529090E+02 0.  0.
        -13    1    3    3    0    0 -0.46179438657E+02 -0.54557924987E+01  0.12637338958E+03  0.13465711946E+03  0.00000000000E+00 0. -1.
         13    1    3    3    0    0  0.46179438657E+02  0.54557924987E+01  0.12411574245E+03  0.13254064943E+03  0.00000000000E+00 0.  1.
<mgrwt>
<rscale>  0 0.93004529E+02</rscale>
<asrwt>0</asrwt>
<pdfrwt beam="1">  1        2 0.39822063E-01 0.93004529E+02</pdfrwt>
<pdfrwt beam="2">  1       -2 0.12852800E-02 0.93004529E+02</pdfrwt>
<totfact> 0.16122811E+05</totfact>
</mgrwt>
</event>
<event>
 5    1  0.6043464E+000  0.9310135E+02  0.7546771E-02  0.1295510E+00
          4   -1    0    0  501    0  0.00000000000E+00  0.00000000000E+00  0.10653166142E+02  0.10653166142E+02  0.00000000000E+00 0. -1.
         -4   -1    0    0    0  501 -0.00000000000E+00 -0.00000000000E+00 -0.20341045804E+03  0.20341045804E+03  0.00000000000E+00 0.  1.
         23    2    1    2    0    0  0.00000000000E+00  0.00000000000E+00 -0.19275729190E+03  0.21406362418E+03  0.93101351323E+02 0.  0.
        -13    1    3    3    0    0  0.32965098640E+02  0.38403173446E+01 -0.21325721601E+02  0.39449108577E+02  0.00000000000E+00 0. -1.
         13    1    3    3    0    0 -0.32965098640E+02 -0.38403173446E+01 -0.17143157030E+03  0.17461451561E+03  0.00000000000E+00 0.  1.
<mgrwt>
<rscale>  0 0.93101351E+02</rscale>
<asrwt>0</asrwt>
<pdfrwt beam="1">  1        4 0.16389486E-02 0.93101351E+02</pdfrwt>
<pdfrwt beam="2">  1       -4 0.31293916E-01 0.93101351E+02</pdfrwt>
<totfact> 0.19678762E+04</totfact>
</mgrwt>
</event>
<event>
 5    1  0.6043464E+000  0.9009540E+02  0.7546771E-02  0.1302621E+00
          1   -1    0    0  501    0  0.00000000000E+00  0.00000000000E+00  0.40434898062E+02  0.40434898062E+02  0.00000000000E+00 0. -1.
         -1   -1    0    0    0  501 -0.00000000000E+00 -0.00000000000E+00 -0.50186729230E+02  0.50186729230E+02  0.00000000000E+00 0.  1.
         23    2    1    2    0    0  0.00000000000E+00  0.00000000000E+00 -0.97518311682E+01  0.90621627292E+02  0.90095400116E+02 0.  0.
        -13    1    3    3    0    0  0.38997613820E+02  0.36324783961E+01  0.17509104193E+02  0.42901952317E+02  0.00000000000E+00 0. -1.
         13    1    3    3    0    0 -0.38997613820E+02 -0.36324783961E+01 -0.27260935362E+02  0.47719674975E+02  0.00000000000E+00 0.  1.
<mgrwt>
<rscale>  0 0.90095400E+02</rscale>
<asrwt>0</asrwt>
<pdfrwt beam="1">  1        1 0.62207536E-02 0.90095400E+02</pdfrwt>
<pdfrwt beam="2">  1       -1 0.77210352E-02 0.90095400E+02</pdfrwt>
<totfact> 0.93918414E+04</totfact>
</mgrwt>
</event>
<event>
 5    1  0.6043464E+000  0.9203683E+02  0.7546771E-02  0.1297993E+00
         -3   -1    0    0    0  501 -0.00000000000E+00  0.00000000000E+00  0.42233540598E+02  0.42233540598E+02  0.00000000000E+00 0.  1.
          3   -1    0    0  501    0  0.00000000000E+00 -0.00000000000E+00 -0.50142477268E+02  0.50142477268E+02  0.00000000000E+00 0. -1.
         23    2    1    2    0    0  0.00000000000E+00  0.00000000000E+00 -0.79089366701E+01  0.92376017866E+02  0.92036826312E+02 0.  0.
        -13    1    3    3    0    0 -0.36888495593E+02 -0.21913802791E+01  0.23571612068E+02  0.43831314721E+02  0.00000000000E+00 0.  1.
         13    1    3    3    0    0  0.36888495593E+02  0.21913802791E+01 -0.31480548738E+02  0.48544703146E+02  0.00000000000E+00 0. -1.
<mgrwt>
<rscale>  0 0.92036826E+02</rscale>
<asrwt>0</asrwt>
<pdfrwt beam="2">  1        3 0.77142273E-02 0.92036826E+02</pdfrwt>
<pdfrwt beam="1">  1       -3 0.64974678E-02 0.92036826E+02</pdfrwt>
<totfact> 0.34354617E+04</totfact>
</mgrwt>
</event>
<event>
 5    1  0.6043464E+000  0.9122354E+02  0.7546771E-02  0.1299915E+00
          1   -1    0    0  501    0  0.00000000000E+00  0.00000000000E+00  0.65821546296E+02  0.65821546296E+02  0.00000000000E+00 0.  1.
         -1   -1    0    0    0  501 -0.00000000000E+00 -0.00000000000E+00 -0.31607179787E+02  0.31607179787E+02  0.00000000000E+00 0. -1.
         23    2    1    2    0    0  0.00000000000E+00  0.00000000000E+00  0.34214366509E+02  0.97428726083E+02  0.91223537481E+02 0.  0.
        -13    1    3    3    0    0 -0.35811704806E+02 -0.34493392984E+01  0.47051004302E+02  0.59229833265E+02  0.00000000000E+00 0.  1.
         13    1    3    3    0    0  0.35811704806E+02  0.34493392984E+01 -0.12836637793E+02  0.38198892818E+02  0.00000000000E+00 0. -1.
<mgrwt>
<rscale>  0 0.91223537E+02</rscale>
<asrwt>0</asrwt>
<pdfrwt beam="1">  1        1 0.10126392E-01 0.91223537E+02</pdfrwt>
<pdfrwt beam="2">  1       -1 0.48626431E-02 0.91223537E+02</pdfrwt>
<totfact> 0.97599973E+04</totfact>
</mgrwt>
</event>
<event>
 5    1  0.6043464E+000  0.9158225E+02  0.7546771E-02  0.1299065E+00
          3   -1    0    0  501    0  0.00000000000E+00  0.00000000000E+00  0.31729923929E+02  0.31729923929E+02  0.00000000000E+00 0. -1.
         -3   -1    0    0    0  501 -0.00000000000E+00 -0.00000000000E+00 -0.66083591812E+02  0.66083591812E+02  0.00000000000E+00 0.  1.
         23    2    1    2    0    0  0.00000000000E+00  0.00000000000E+00 -0.34353667883E+02  0.97813515741E+02  0.91582254638E+02 0.  0.
        -13    1    3    3    0    0  0.73117449591E+01 -0.29632572879E+02 -0.53635603234E+02  0.61711659547E+02  0.00000000000E+00 0.  1.
         13    1    3    3    0    0 -0.73117449591E+01  0.29632572879E+02  0.19281935351E+02  0.36101856194E+02  0.00000000000E+00 0. -1.
<mgrwt>
<rscale>  0 0.91582255E+02</rscale>
<asrwt>0</asrwt>
<pdfrwt beam="1">  1        3 0.48815268E-02 0.91582255E+02</pdfrwt>
<pdfrwt beam="2">  1       -3 0.10166706E-01 0.91582255E+02</pdfrwt>
<totfact> 0.34416071E+04</totfact>
</mgrwt>
</event>
<event>
 5    1  0.6043464E+000  0.8508756E+02  0.7546771E-02  0.1315204E+00
         -1   -1    0    0    0  501 -0.00000000000E+00  0.00000000000E+00  0.27514233787E+02  0.27514233787E+02  0.00000000000E+00 0.  1.
          1   -1    0    0  501    0  0.00000000000E+00 -0.00000000000E+00 -0.65783165855E+02  0.65783165855E+02  0.00000000000E+00 0. -1.
         23    2    1    2    0    0  0.00000000000E+00  0.00000000000E+00 -0.38268932068E+02  0.93297399641E+02  0.85087564416E+02 0.  0.
        -13    1    3    3    0    0  0.55223531098E+01 -0.16652984810E+02  0.23362784954E+02  0.29217084176E+02  0.00000000000E+00 0.  1.
         13    1    3    3    0    0 -0.55223531098E+01  0.16652984810E+02 -0.61631717023E+02  0.64080315465E+02  0.00000000000E+00 0. -1.
<mgrwt>
<rscale>  0 0.85087564E+02</rscale>
<asrwt>0</asrwt>
<pdfrwt beam="2">  1        1 0.10120487E-01 0.85087564E+02</pdfrwt>
<pdfrwt beam="1">  1       -1 0.42329590E-02 0.85087564E+02</pdfrwt>
<totfact> 0.11817428E+05</totfact>
</mgrwt>
</event>
<event>
 5    1  0.6043464E+000  0.9264250E+02  0.7546771E-02  0.1296576E+00
          2   -1    0    0  501    0  0.00000000000E+00  0.00000000000E+00  0.10498110677E+03  0.10498110677E+03  0.00000000000E+00 0. -1.
         -2   -1    0    0    0  501 -0.00000000000E+00 -0.00000000000E+00 -0.20438519667E+02  0.20438519667E+02  0.00000000000E+00 0.  1.
         23    2    1    2    0    0  0.00000000000E+00  0.00000000000E+00  0.84542587106E+02  0.12541962644E+03  0.92642504617E+02 0.  0.
        -13    1    3    3    0    0 -0.33813025831E+02  0.26815882887E+02  0.65055672927E+02  0.78068257768E+02  0.00000000000E+00 0. -1.
         13    1    3    3    0    0  0.33813025831E+02 -0.26815882887E+02  0.19486914179E+02  0.47351368672E+02  0.00000000000E+00 0.  1.
<mgrwt>
<rscale>  0 0.92642505E+02</rscale>
<asrwt>0</asrwt>
<pdfrwt beam="1">  1        2 0.16150939E-01 0.92642505E+02</pdfrwt>
<pdfrwt beam="2">  1       -2 0.31443877E-02 0.92642505E+02</pdfrwt>
<totfact> 0.11916896E+05</totfact>
</mgrwt>
</event>
<event>
 5    1  0.6043464E+000  0.9119134E+02  0.7546771E-02  0.1299992E+00
          1   -1    0    0  501    0  0.00000000000E+00  0.00000000000E+00  0.35612300317E+02  0.35612300317E+02  0.00000000000E+00 0. -1.
         -1   -1    0    0    0  501 -0.00000000000E+00 -0.00000000000E+00 -0.58377732106E+02  0.58377732106E+02  0.00000000000E+00 0.  1.
         23    2    1    2    0    0  0.00000000000E+00  0.00000000000E+00 -0.22765431789E+02  0.93990032423E+02  0.91191344493E+02 0.  0.
        -13    1    3    3    0    0  0.22773194199E+02  0.35429102010E+01 -0.51932156181E+02  0.56816541890E+02  0.00000000000E+00 0.  1.
         13    1    3    3    0    0 -0.22773194199E+02 -0.35429102010E+01  0.29166724392E+02  0.37173490534E+02  0.00000000000E+00 0. -1.
<mgrwt>
<rscale>  0 0.91191344E+02</rscale>
<asrwt>0</asrwt>
<pdfrwt beam="1">  1        1 0.54788155E-02 0.91191344E+02</pdfrwt>
<pdfrwt beam="2">  1       -1 0.89811895E-02 0.91191344E+02</pdfrwt>
<totfact> 0.89023021E+04</totfact>
</mgrwt>
</event>
<event>
 5    1  0.6043464E+000  0.9701384E+02  0.7546771E-02  0.1286704E+00
          4   -1    0    0  501    0  0.00000000000E+00  0.00000000000E+00  0.32598521668E+02  0.32598521668E+02  0.00000000000E+00 0. -1.
         -4   -1    0    0    0  501 -0.00000000000E+00 -0.00000000000E+00 -0.72178777590E+02  0.72178777590E+02  0.00000000000E+00 0.  1.
         23    2    1    2    0    0  0.00000000000E+00  0.00000000000E+00 -0.39580255922E+02  0.10477729926E+03  0.97013843243E+02 0.  0.
        -13    1    3    3    0    0 -0.11319788718E+01 -0.11851629205E+02 -0.70576294942E+02  0.71573430117E+02  0.00000000000E+00 0.  1.
         13    1    3    3    0    0  0.11319788718E+01  0.11851629205E+02  0.30996039020E+02  0.33203869141E+02  0.00000000000E+00 0. -1.
<mgrwt>
<rscale>  0 0.97013843E+02</rscale>
<asrwt>0</asrwt>
<pdfrwt beam="1">  1        4 0.50151572E-02 0.97013843E+02</pdfrwt>
<pdfrwt beam="2">  1       -4 0.11104427E-01 0.97013843E+02</pdfrwt>
<totfact> 0.22096058E+04</totfact>
</mgrwt>
</event>
<event>
 5    1  0.6043464E+000  0.9058530E+02  0.7546771E-02  0.1301440E+00
          1   -1    0    0  501    0  0.00000000000E+00  0.00000000000E+00  0.14045695917E+03  0.14045695917E+03  0.00000000000E+00 0. -1.
         -1   -1    0    0    0  501 -0.00000000000E+00 -0.00000000000E+00 -0.14605358804E+02  0.14605358804E+02  0.00000000000E+00 0.  1.
         23    2    1    2    0    0  0.00000000000E+00  0.00000000000E+00  0.12585160036E+03  0.15506231797E+03  0.90585303115E+02 0.  0.
        -13    1    3    3    0    0  0.29763283314E+02 -0.28774596498E+02  0.31473979441E+02  0.52004248087E+02  0.00000000000E+00 0.  1.
         13    1    3    3    0    0 -0.29763283314E+02  0.28774596498E+02  0.94377620923E+02  0.10305806988E+03  0.00000000000E+00 0. -1.
<mgrwt>
<rscale>  0 0.90585303E+02</rscale>
<asrwt>0</asrwt>
<pdfrwt beam="1">  1        1 0.21608762E-01 0.90585303E+02</pdfrwt>
<pdfrwt beam="2">  1       -1 0.22469784E-02 0.90585303E+02</pdfrwt>
<totfact> 0.11275937E+05</totfact>
</mgrwt>
</event>
<event>
 5    1  0.6043464E+000  0.9173677E+02  0.7546771E-02  0.1298700E+00
          1   -1    0    0  501    0  0.00000000000E+00  0.00000000000E+00  0.20627063907E+02  0.20627063907E+02  0.00000000000E+00 0. -1.
         -1   -1    0    0    0  501 -0.00000000000E+00 -0.00000000000E+00 -0.10199748703E+03  0.10199748703E+03  0.00000000000E+00 0.  1.
         23    2    1    2    0    0  0.00000000000E+00  0.00000000000E+00 -0.81370423123E+02  0.12262455094E+03  0.91736768709E+02 0.  0.
        -13    1    3    3    0    0 -0.17742617107E+02 -0.32558972567E+02 -0.76776648019E+02  0.85261602363E+02  0.00000000000E+00 0.  1.
         13    1    3    3    0    0  0.17742617107E+02  0.32558972567E+02 -0.45937751048E+01  0.37362948574E+02  0.00000000000E+00 0. -1.
<mgrwt>
<rscale>  0 0.91736769E+02</rscale>
<asrwt>0</asrwt>
<pdfrwt beam="1">  1        1 0.31733945E-02 0.91736769E+02</pdfrwt>
<pdfrwt beam="2">  1       -1 0.15691921E-01 0.91736769E+02</pdfrwt>
<totfact> 0.79800278E+04</totfact>
</mgrwt>
</event>
<event>
 5    1  0.6043464E+000  0.8851216E+02  0.7546771E-02  0.1306495E+00
         -1   -1    0    0    0  501 -0.00000000000E+00  0.00000000000E+00  0.18786808476E+02  0.18786808476E+02  0.00000000000E+00 0.  1.
          1   -1    0    0  501    0  0.00000000000E+00 -0.00000000000E+00 -0.10425403758E+03  0.10425403758E+03  0.00000000000E+00 0. -1.
         23    2    1    2    0    0  0.00000000000E+00  0.00000000000E+00 -0.85467229107E+02  0.12304084606E+03  0.88512160450E+02 0.  0.
        -13    1    3    3    0    0  0.29082622028E+02  0.24861719053E+02 -0.11815296822E+02  0.40043791245E+02  0.00000000000E+00 0.  1.
         13    1    3    3    0    0 -0.29082622028E+02 -0.24861719053E+02 -0.73651932285E+02  0.82997054813E+02  0.00000000000E+00 0. -1.
<mgrwt>
<rscale>  0 0.88512160E+02</rscale>
<asrwt>0</asrwt>
<pdfrwt beam="2">  1        1 0.16039083E-01 0.88512160E+02</pdfrwt>
<pdfrwt beam="1">  1       -1 0.28902782E-02 0.88512160E+02</pdfrwt>
<totfact> 0.11400350E+05</totfact>
</mgrwt>
</event>
<event>
 5    1  0.6043464E+000  0.9156296E+02  0.7546771E-02  0.1299110E+00
          1   -1    0    0  501    0  0.00000000000E+00  0.00000000000E+00  0.63850071626E+02  0.63850071626E+02  0.00000000000E+00 0. -1.
         -1   -1    0    0    0  501 -0.00000000000E+00 -0.00000000000E+00 -0.32826019367E+02  0.32826019367E+02  0.00000000000E+00 0.  1.
         23    2    1    2    0    0  0.00000000000E+00  0.00000000000E+00  0.31024052259E+02  0.96676090993E+02  0.91562955124E+02 0.  0.
        -13    1    3    3    0    0 -0.10340192010E+02 -0.87242381165E+01  0.61691263087E+02  0.63157294454E+02  0.00000000000E+00 0. -1.
         13    1    3    3    0    0  0.10340192010E+02  0.87242381165E+01 -0.30667210827E+02  0.33518796539E+02  0.00000000000E+00 0.  1.
<mgrwt>
<rscale>  0 0.91562955E+02</rscale>
<asrwt>0</asrwt>
<pdfrwt beam="1">  1        1 0.98230879E-02 0.91562955E+02</pdfrwt>
<pdfrwt beam="2">  1       -1 0.50501568E-02 0.91562955E+02</pdfrwt>
<totfact> 0.96153159E+04</totfact>
</mgrwt>
</event>
<event>
 5    1  0.6043464E+000  0.9210100E+02  0.7546771E-02  0.1297842E+00
          1   -1    0    0  501    0  0.00000000000E+00  0.00000000000E+00  0.10866826353E+03  0.10866826353E+03  0.00000000000E+00 0. -1.
         -1   -1    0    0    0  501 -0.00000000000E+00 -0.00000000000E+00 -0.19514883322E+02  0.19514883322E+02  0.00000000000E+00 0.  1.
         23    2    1    2    0    0  0.00000000000E+00  0.00000000000E+00  0.89153380211E+02  0.12818314685E+03  0.92100998554E+02 0.  0.
        -13    1    3    3    0    0 -0.72816406552E+01 -0.45432668879E+02  0.47179998532E+02  0.65902215088E+02  0.00000000000E+00 0.  1.
         13    1    3    3    0    0  0.72816406552E+01  0.45432668879E+02  0.41973381679E+02  0.62280931766E+02  0.00000000000E+00 0. -1.
<mgrwt>
<rscale>  0 0.92100999E+02</rscale>
<asrwt>0</asrwt>
<pdfrwt beam="1">  1        1 0.16718194E-01 0.92100999E+02</pdfrwt>
<pdfrwt beam="2">  1       -1 0.30022898E-02 0.92100999E+02</pdfrwt>
<totfact> 0.10305026E+05</totfact>
</mgrwt>
</event>
<event>
 5    1  0.6043464E+000  0.9622418E+02  0.7546771E-02  0.1288442E+00
         -1   -1    0    0    0  501 -0.00000000000E+00  0.00000000000E+00  0.10904659421E+02  0.10904659421E+02  0.00000000000E+00 0.  1.
          1   -1    0    0  501    0  0.00000000000E+00 -0.00000000000E+00 -0.21227375926E+03  0.21227375926E+03  0.00000000000E+00 0. -1.
         23    2    1    2    0    0  0.00000000000E+00  0.00000000000E+00 -0.20136909984E+03  0.22317841868E+03  0.96224176768E+02 0.  0.
        -13    1    3    3    0    0  0.36975206048E+02 -0.26724488491E+02 -0.65250018101E+02  0.79617391376E+02  0.00000000000E+00 0.  1.
         13    1    3    3    0    0 -0.36975206048E+02  0.26724488491E+02 -0.13611908174E+03  0.14356102730E+03  0.00000000000E+00 0. -1.
<mgrwt>
<rscale>  0 0.96224177E+02</rscale>
<asrwt>0</asrwt>
<pdfrwt beam="2">  1        1 0.32657498E-01 0.96224177E+02</pdfrwt>
<pdfrwt beam="1">  1       -1 0.16776401E-02 0.96224177E+02</pdfrwt>
<totfact> 0.10363111E+05</totfact>
</mgrwt>
</event>
<event>
 5    1  0.6043464E+000  0.9085865E+02  0.7546771E-02  0.1300786E+00
          3   -1    0    0  501    0  0.00000000000E+00  0.00000000000E+00  0.32907452336E+02  0.32907452336E+02  0.00000000000E+00 0. -1.
         -3   -1    0    0    0  501 -0.00000000000E+00 -0.00000000000E+00 -0.62715986744E+02  0.62715986744E+02  0.00000000000E+00 0.  1.
         23    2    1    2    0    0  0.00000000000E+00  0.00000000000E+00 -0.29808534408E+02  0.95623439079E+02  0.90858645036E+02 0.  0.
        -13    1    3    3    0    0  0.44989152762E+02  0.63086827452E+01 -0.14903745796E+02  0.47811557002E+02  0.00000000000E+00 0.  1.
         13    1    3    3    0    0 -0.44989152762E+02 -0.63086827452E+01 -0.14904788612E+02  0.47811882077E+02  0.00000000000E+00 0. -1.
<mgrwt>
<rscale>  0 0.90858645E+02</rscale>
<asrwt>0</asrwt>
<pdfrwt beam="1">  1        3 0.50626850E-02 0.90858645E+02</pdfrwt>
<pdfrwt beam="2">  1       -3 0.96486133E-02 0.90858645E+02</pdfrwt>
<totfact> 0.35334633E+04</totfact>
</mgrwt>
</event>
<event>
 5    1  0.6043464E+000  0.9106745E+02  0.7546771E-02  0.1300287E+00
          3   -1    0    0  501    0  0.00000000000E+00  0.00000000000E+00  0.10861665918E+03  0.10861665918E+03  0.00000000000E+00 0. -1.
         -3   -1    0    0    0  501 -0.00000000000E+00 -0.00000000000E+00 -0.19088418569E+02  0.19088418569E+02  0.00000000000E+00 0.  1.
         23    2    1    2    0    0  0.00000000000E+00  0.00000000000E+00  0.89528240612E+02  0.12770507775E+03  0.91067453110E+02 0.  0.
        -13    1    3    3    0    0  0.31532035947E+02 -0.32667694686E+02  0.49596037511E+02  0.67239976977E+02  0.00000000000E+00 0.  1.
         13    1    3    3    0    0 -0.31532035947E+02  0.32667694686E+02  0.39932203100E+02  0.60465100773E+02  0.00000000000E+00 0. -1.
<mgrwt>
<rscale>  0 0.91067453E+02</rscale>
<asrwt>0</asrwt>
<pdfrwt beam="1">  1        3 0.16710255E-01 0.91067453E+02</pdfrwt>
<pdfrwt beam="2">  1       -3 0.29366798E-02 0.91067453E+02</pdfrwt>
<totfact> 0.32834424E+04</totfact>
</mgrwt>
</event>
<event>
 5    1  0.6043464E+000  0.9199497E+02  0.7546771E-02  0.1298091E+00
          1   -1    0    0  501    0  0.00000000000E+00  0.00000000000E+00  0.36580166300E+03  0.36580166300E+03  0.00000000000E+00 0. -1.
         -1   -1    0    0    0  501 -0.00000000000E+00 -0.00000000000E+00 -0.57839235143E+01  0.57839235143E+01  0.00000000000E+00 0.  1.
         23    2    1    2    0    0  0.00000000000E+00  0.00000000000E+00  0.36001773949E+03  0.37158558651E+03  0.91994974650E+02 0.  0.
        -13    1    3    3    0    0 -0.39727811656E+02 -0.16422791398E+02  0.11391380694E+03  0.12175533872E+03  0.00000000000E+00 0.  1.
         13    1    3    3    0    0  0.39727811656E+02  0.16422791398E+02  0.24610393255E+03  0.24983024779E+03  0.00000000000E+00 0. -1.
<mgrwt>
<rscale>  0 0.91994975E+02</rscale>
<asrwt>0</asrwt>
<pdfrwt beam="1">  1        1 0.56277161E-01 0.91994975E+02</pdfrwt>
<pdfrwt beam="2">  1       -1 0.88983468E-03 0.91994975E+02</pdfrwt>
<totfact> 0.12974208E+05</totfact>
</mgrwt>
</event>
<event>
 5    1  0.6043464E+000  0.8868500E+02  0.7546771E-02  0.1306068E+00
          1   -1    0    0  501    0  0.00000000000E+00  0.00000000000E+00  0.72424513726E+02  0.72424513726E+02  0.00000000000E+00 0. -1.
         -1   -1    0    0    0  501 -0.00000000000E+00 -0.00000000000E+00 -0.27149059692E+02  0.27149059692E+02  0.00000000000E+00 0.  1.
         23    2    1    2    0    0  0.00000000000E+00  0.00000000000E+00  0.45275454033E+02  0.99573573418E+02  0.88685003159E+02 0.  0.
        -13    1    3    3    0    0  0.68058421277E-01  0.26772341926E+02  0.62325898037E+02  0.67832739074E+02  0.00000000000E+00 0. -1.
         13    1    3    3    0    0 -0.68058421277E-01 -0.26772341926E+02 -0.17050444004E+02  0.31740834344E+02  0.00000000000E+00 0.  1.
<mgrwt>
<rscale>  0 0.88685003E+02</rscale>
<asrwt>0</asrwt>
<pdfrwt beam="1">  1        1 0.11142233E-01 0.88685003E+02</pdfrwt>
<pdfrwt beam="2">  1       -1 0.41767784E-02 0.88685003E+02</pdfrwt>
<totfact> 0.10703249E+05</totfact>
</mgrwt>
</event>
<event>
 5    1  0.6043464E+000  0.1144448E+03  0.7546771E-02  0.1252553E+00
         -4   -1    0    0    0  501 -0.00000000000E+00  0.00000000000E+00  0.25285203956E+03  0.25285203956E+03  0.00000000000E+00 0.  1.
          4   -1    0    0  501    0  0.00000000000E+00 -0.00000000000E+00 -0.12949876952E+02  0.12949876952E+02  0.00000000000E+00 0. -1.
         23    2    1    2    0    0  0.00000000000E+00  0.00000000000E+00  0.23990216260E+03  0.26580191651E+03  0.11444479541E+03 0.  0.
        -13    1    3    3    0    0  0.50751708320E+02 -0.15902041199E+01  0.58672348037E+02  0.77593228253E+02  0.00000000000E+00 0. -1.
         13    1    3    3    0    0 -0.50751708320E+02  0.15902041199E+01  0.18122981457E+03  0.18820868826E+03  0.00000000000E+00 0.  1.
<mgrwt>
<rscale>  0 0.11444480E+03</rscale>
<asrwt>0</asrwt>
<pdfrwt beam="2">  1        4 0.19922890E-02 0.11444480E+03</pdfrwt>
<pdfrwt beam="1">  1       -4 0.38900310E-01 0.11444480E+03</pdfrwt>
<totfact> 0.10224412E+04</totfact>
</mgrwt>
</event>
<event>
 5    1  0.6043464E+000  0.9103961E+02  0.7546771E-02  0.1300353E+00
         -2   -1    0    0    0  501 -0.00000000000E+00  0.00000000000E+00  0.12147373340E+03  0.12147373340E+03  0.00000000000E+00 0.  1.
          2   -1    0    0  501    0  0.00000000000E+00 -0.00000000000E+00 -0.17057617938E+02  0.17057617938E+02  0.00000000000E+00 0. -1.
         23    2    1    2    0    0  0.00000000000E+00  0.00000000000E+00  0.10441611547E+03  0.13853135134E+03  0.91039607511E+02 0.  0.
        -13    1    3    3    0    0 -0.15383831307E+01  0.45462653469E+02  0.49646849558E+02  0.67335199963E+02  0.00000000000E+00 0. -1.
         13    1    3    3    0    0  0.15383831307E+01 -0.45462653469E+02  0.54769265908E+02  0.71196151379E+02  0.00000000000E+00 0.  1.
<mgrwt>
<rscale>  0 0.91039608E+02</rscale>
<asrwt>0</asrwt>
<pdfrwt beam="2">  1        2 0.26242490E-02 0.91039608E+02</pdfrwt>
<pdfrwt beam="1">  1       -2 0.18688266E-01 0.91039608E+02</pdfrwt>
<totfact> 0.75403737E+04</totfact>
</mgrwt>
</event>
<event>
 5    1  0.6043464E+000  0.8731081E+02  0.7546771E-02  0.1309498E+00
          2   -1    0    0  501    0  0.00000000000E+00  0.00000000000E+00  0.26841265284E+03  0.26841265284E+03  0.00000000000E+00 0. -1.
         -2   -1    0    0    0  501 -0.00000000000E+00 -0.00000000000E+00 -0.71002401841E+01  0.71002401841E+01  0.00000000000E+00 0.  1.
         23    2    1    2    0    0  0.00000000000E+00  0.00000000000E+00  0.26131241265E+03  0.27551289302E+03  0.87310808119E+02 0.  0.
        -13    1    3    3    0    0  0.34824507967E+02 -0.23627555691E+02  0.94021120377E+02  0.10300960547E+03  0.00000000000E+00 0. -1.
         13    1    3    3    0    0 -0.34824507967E+02  0.23627555691E+02  0.16729129228E+03  0.17250328755E+03  0.00000000000E+00 0.  1.
<mgrwt>
<rscale>  0 0.87310808E+02</rscale>
<asrwt>0</asrwt>
<pdfrwt beam="1">  1        2 0.41294246E-01 0.87310808E+02</pdfrwt>
<pdfrwt beam="2">  1       -2 0.10923449E-02 0.87310808E+02</pdfrwt>
<totfact> 0.19346116E+05</totfact>
</mgrwt>
</event>
<event>
 5    1  0.6043464E+000  0.9333089E+02  0.7546771E-02  0.1294980E+00
         -1   -1    0    0    0  501 -0.00000000000E+00  0.00000000000E+00  0.41442014316E+02  0.41442014316E+02  0.00000000000E+00 0.  1.
          1   -1    0    0  501    0  0.00000000000E+00 -0.00000000000E+00 -0.52547243945E+02  0.52547243945E+02  0.00000000000E+00 0. -1.
         23    2    1    2    0    0  0.00000000000E+00  0.00000000000E+00 -0.11105229629E+02  0.93989258262E+02  0.93330887403E+02 0.  0.
        -13    1    3    3    0    0  0.18837765276E+02  0.15473310581E+02 -0.45625005517E+02  0.51729352106E+02  0.00000000000E+00 0. -1.
         13    1    3    3    0    0 -0.18837765276E+02 -0.15473310581E+02  0.34519775888E+02  0.42259906156E+02  0.00000000000E+00 0.  1.
<mgrwt>
<rscale>  0 0.93330887E+02</rscale>
<asrwt>0</asrwt>
<pdfrwt beam="2">  1        1 0.80841914E-02 0.93330887E+02</pdfrwt>
<pdfrwt beam="1">  1       -1 0.63756945E-02 0.93330887E+02</pdfrwt>
<totfact> 0.88493619E+04</totfact>
</mgrwt>
</event>
<event>
 5    1  0.6043464E+000  0.9726038E+02  0.7546771E-02  0.1286165E+00
          4   -1    0    0  501    0  0.00000000000E+00  0.00000000000E+00  0.29938206036E+02  0.29938206036E+02  0.00000000000E+00 0. -1.
         -4   -1    0    0    0  501 -0.00000000000E+00 -0.00000000000E+00 -0.78992546859E+02  0.78992546859E+02  0.00000000000E+00 0.  1.
         23    2    1    2    0    0  0.00000000000E+00  0.00000000000E+00 -0.49054340823E+02  0.10893075289E+03  0.97260375141E+02 0.  0.
        -13    1    3    3    0    0  0.20975812825E+02 -0.37646208486E+02  0.70803080582E+00  0.43101311403E+02  0.00000000000E+00 0. -1.
         13    1    3    3    0    0 -0.20975812825E+02  0.37646208486E+02 -0.49762371628E+02  0.65829441492E+02  0.00000000000E+00 0.  1.
<mgrwt>
<rscale>  0 0.97260375E+02</rscale>
<asrwt>0</asrwt>
<pdfrwt beam="1">  1        4 0.46058778E-02 0.97260375E+02</pdfrwt>
<pdfrwt beam="2">  1       -4 0.12152700E-01 0.97260375E+02</pdfrwt>
<totfact> 0.21736937E+04</totfact>
</mgrwt>
</event>
<event>
 5    1  0.6043464E+000  0.9249123E+02  0.7546771E-02  0.1296929E+00
         -1   -1    0    0    0  501 -0.00000000000E+00  0.00000000000E+00  0.20239296704E+02  0.20239296704E+02  0.00000000000E+00 0.  1.
          1   -1    0    0  501    0  0.00000000000E+00 -0.00000000000E+00 -0.10566853193E+03  0.10566853193E+03  0.00000000000E+00 0. -1.
         23    2    1    2    0    0  0.00000000000E+00  0.00000000000E+00 -0.85429235229E+02  0.12590782864E+03  0.92491227044E+02 0.  0.
        -13    1    3    3    0    0  0.94547767289E+01  0.45197523661E+02 -0.39257941321E+02  0.60608538217E+02  0.00000000000E+00 0. -1.
         13    1    3    3    0    0 -0.94547767289E+01 -0.45197523661E+02 -0.46171293908E+02  0.65299290419E+02  0.00000000000E+00 0.  1.
<mgrwt>
<rscale>  0 0.92491227E+02</rscale>
<asrwt>0</asrwt>
<pdfrwt beam="2">  1        1 0.16256697E-01 0.92491227E+02</pdfrwt>
<pdfrwt beam="1">  1       -1 0.31137381E-02 0.92491227E+02</pdfrwt>
<totfact> 0.10138506E+05</totfact>
</mgrwt>
</event>
<event>
 5    1  0.6043464E+000  0.9701532E+02  0.7546771E-02  0.1286701E+00
         -1   -1    0    0    0  501 -0.00000000000E+00  0.00000000000E+00  0.15478328774E+03  0.15478328774E+03  0.00000000000E+00 0.  1.
          1   -1    0    0  501    0  0.00000000000E+00 -0.00000000000E+00 -0.15201854373E+02  0.15201854373E+02  0.00000000000E+00 0. -1.
         23    2    1    2    0    0  0.00000000000E+00  0.00000000000E+00  0.13958143336E+03  0.16998514211E+03  0.97015318368E+02 0.  0.
        -13    1    3    3    0    0 -0.21516659097E+02  0.42296745379E+02  0.87400601425E+02  0.99452734592E+02  0.00000000000E+00 0.  1.
         13    1    3    3    0    0  0.21516659097E+02 -0.42296745379E+02  0.52180831938E+02  0.70532407516E+02  0.00000000000E+00 0. -1.
<mgrwt>
<rscale>  0 0.97015318E+02</rscale>
<asrwt>0</asrwt>
<pdfrwt beam="2">  1        1 0.23387469E-02 0.97015318E+02</pdfrwt>
<pdfrwt beam="1">  1       -1 0.23812812E-01 0.97015318E+02</pdfrwt>
<totfact> 0.63162032E+04</totfact>
</mgrwt>
</event>
<event>
 5    1  0.6043464E+000  0.8593759E+02  0.7546771E-02  0.1312999E+00
         -2   -1    0    0    0  501 -0.00000000000E+00  0.00000000000E+00  0.11615359909E+03  0.11615359909E+03  0.00000000000E+00 0.  1.
          2   -1    0    0  501    0  0.00000000000E+00 -0.00000000000E+00 -0.15895479970E+02  0.15895479970E+02  0.00000000000E+00 0. -1.
         23    2    1    2    0    0  0.00000000000E+00  0.00000000000E+00  0.10025811912E+03  0.13204907906E+03  0.85937586835E+02 0.  0.
        -13    1    3    3    0    0 -0.29332040165E+02  0.50543338131E+00  0.98370814120E+02  0.10265203901E+03  0.00000000000E+00 0.  1.
         13    1    3    3    0    0  0.29332040165E+02 -0.50543338131E+00  0.18873049972E+01  0.29397040043E+02  0.00000000000E+00 0. -1.
<mgrwt>
<rscale>  0 0.85937587E+02</rscale>
<asrwt>0</asrwt>
<pdfrwt beam="2">  1        2 0.24454585E-02 0.85937587E+02</pdfrwt>
<pdfrwt beam="1">  1       -2 0.17869784E-01 0.85937587E+02</pdfrwt>
<totfact> 0.88383298E+04</totfact>
</mgrwt>
</event>
<event>
 5    1  0.6043464E+000  0.9011839E+02  0.7546771E-02  0.1302565E+00
         -1   -1    0    0    0  501 -0.00000000000E+00  0.00000000000E+00  0.52453393966E+02  0.52453393966E+02  0.00000000000E+00 0.  1.
          1   -1    0    0  501    0  0.00000000000E+00 -0.00000000000E+00 -0.38707338185E+02  0.38707338185E+02  0.00000000000E+00 0. -1.
         23    2    1    2    0    0  0.00000000000E+00  0.00000000000E+00  0.13746055782E+02  0.91160732151E+02  0.90118394553E+02 0.  0.
        -13    1    3    3    0    0  0.22784219014E+02  0.14010933621E+02 -0.29807995289E+02  0.40049263167E+02  0.00000000000E+00 0. -1.
         13    1    3    3    0    0 -0.22784219014E+02 -0.14010933621E+02  0.43554051071E+02  0.51111468984E+02  0.00000000000E+00 0.  1.
<mgrwt>
<rscale>  0 0.90118395E+02</rscale>
<asrwt>0</asrwt>
<pdfrwt beam="2">  1        1 0.59549751E-02 0.90118395E+02</pdfrwt>
<pdfrwt beam="1">  1       -1 0.80697529E-02 0.90118395E+02</pdfrwt>
<totfact> 0.93236075E+04</totfact>
</mgrwt>
</event>
<event>
 5    1  0.6043464E+000  0.8351233E+02  0.7546771E-02  0.1319369E+00
          1   -1    0    0  501    0  0.00000000000E+00  0.00000000000E+00  0.94009593152E+02  0.94009593152E+02  0.00000000000E+00 0. -1.
         -1   -1    0    0    0  501 -0.00000000000E+00 -0.00000000000E+00 -0.18546800829E+02  0.18546800829E+02  0.00000000000E+00 0.  1.
         23    2    1    2    0    0  0.00000000000E+00  0.00000000000E+00  0.75462792323E+02  0.11255639398E+03  0.83512327238E+02 0.  0.
        -13    1    3    3    0    0  0.14549106473E+02  0.20044573796E+02  0.83040038701E+02  0.86655117940E+02  0.00000000000E+00 0. -1.
         13    1    3    3    0    0 -0.14549106473E+02 -0.20044573796E+02 -0.75772463780E+01  0.25901276040E+02  0.00000000000E+00 0.  1.
<mgrwt>
<rscale>  0 0.83512327E+02</rscale>
<asrwt>0</asrwt>
<pdfrwt beam="1">  1        1 0.14463014E-01 0.83512327E+02</pdfrwt>
<pdfrwt beam="2">  1       -1 0.28533540E-02 0.83512327E+02</pdfrwt>
<totfact> 0.13120870E+05</totfact>
</mgrwt>
</event>
<event>
 5    1  0.6043464E+000  0.9204846E+02  0.7546771E-02  0.1297966E+00
         -1   -1    0    0    0  501 -0.00000000000E+00  0.00000000000E+00  0.26870002953E+02  0.26870002953E+02  0.00000000000E+00 0.  1.
          1   -1    0    0  501    0  0.00000000000E+00 -0.00000000000E+00 -0.78832500733E+02  0.78832500733E+02  0.00000000000E+00 0. -1.
         23    2    1    2    0    0  0.00000000000E+00  0.00000000000E+00 -0.51962497780E+02  0.10570250369E+03  0.92048455229E+02 0.  0.
        -13    1    3    3    0    0 -0.42296509365E+02  0.86235069118E+01 -0.76484789726E+01  0.43839010099E+02  0.00000000000E+00 0.  1.
         13    1    3    3    0    0  0.42296509365E+02 -0.86235069118E+01 -0.44314018808E+02  0.61863493587E+02  0.00000000000E+00 0. -1.
<mgrwt>
<rscale>  0 0.92048455E+02</rscale>
<asrwt>0</asrwt>
<pdfrwt beam="2">  1        1 0.12128077E-01 0.92048455E+02</pdfrwt>
<pdfrwt beam="1">  1       -1 0.41338466E-02 0.92048455E+02</pdfrwt>
<totfact> 0.97914799E+04</totfact>
</mgrwt>
</event>
<event>
 5    1  0.6043464E+000  0.9719506E+02  0.7546771E-02  0.1286307E+00
         -1   -1    0    0    0  501 -0.00000000000E+00  0.00000000000E+00  0.36226004307E+02  0.36226004307E+02  0.00000000000E+00 0.  1.
          1   -1    0    0  501    0  0.00000000000E+00 -0.00000000000E+00 -0.65194043657E+02  0.65194043657E+02  0.00000000000E+00 0. -1.
         23    2    1    2    0    0  0.00000000000E+00  0.00000000000E+00 -0.28968039351E+02  0.10142004796E+03  0.97195055559E+02 0.  0.
        -13    1    3    3    0    0  0.22674058105E+02 -0.32026824046E+02  0.15430794693E+02  0.42165623371E+02  0.00000000000E+00 0.  1.
         13    1    3    3    0    0 -0.22674058105E+02  0.32026824046E+02 -0.44398834044E+02  0.59254424593E+02  0.00000000000E+00 0. -1.
<mgrwt>
<rscale>  0 0.97195056E+02</rscale>
<asrwt>0</asrwt>
<pdfrwt beam="2">  1        1 0.10029853E-01 0.97195056E+02</pdfrwt>
<pdfrwt beam="1">  1       -1 0.55732316E-02 0.97195056E+02</pdfrwt>
<totfact> 0.81705170E+04</totfact>
</mgrwt>
</event>
<event>
 5    1  0.6043464E+000  0.9140625E+02  0.7546771E-02  0.1299482E+00
         -2   -1    0    0    0  501 -0.00000000000E+00  0.00000000000E+00  0.26841756070E+03  0.26841756070E+03  0.00000000000E+00 0.  1.
          2   -1    0    0  501    0  0.00000000000E+00 -0.00000000000E+00 -0.77818144456E+01  0.77818144456E+01  0.00000000000E+00 0. -1.
         23    2    1    2    0    0  0.00000000000E+00  0.00000000000E+00  0.26063574625E+03  0.27619937514E+03  0.91406250361E+02 0.  0.
        -13    1    3    3    0    0 -0.22191896272E+02  0.33577362279E+02  0.19574631813E+03  0.19984128847E+03  0.00000000000E+00 0.  1.
         13    1    3    3    0    0  0.22191896272E+02 -0.33577362279E+02  0.64889428125E+02  0.76358086671E+02  0.00000000000E+00 0. -1.
<mgrwt>
<rscale>  0 0.91406250E+02</rscale>
<asrwt>0</asrwt>
<pdfrwt beam="2">  1        2 0.11972024E-02 0.91406250E+02</pdfrwt>
<pdfrwt beam="1">  1       -2 0.41295002E-01 0.91406250E+02</pdfrwt>
<totfact> 0.53824199E+04</totfact>
</mgrwt>
</event>
<event>
 5    1  0.6043464E+000  0.9120166E+02  0.7546771E-02  0.1299968E+00
         -2   -1    0    0    0  501 -0.00000000000E+00  0.00000000000E+00  0.86011593524E+01  0.86011593524E+01  0.00000000000E+00 0.  1.
          2   -1    0    0  501    0  0.00000000000E+00 -0.00000000000E+00 -0.24176224254E+03  0.24176224254E+03  0.00000000000E+00 0. -1.
         23    2    1    2    0    0  0.00000000000E+00  0.00000000000E+00 -0.23316108319E+03  0.25036340189E+03  0.91201657298E+02 0.  0.
        -13    1    3    3    0    0  0.33970161659E+02 -0.18662015727E+02 -0.50628447674E+02  0.63761135718E+02  0.00000000000E+00 0.  1.
         13    1    3    3    0    0 -0.33970161659E+02  0.18662015727E+02 -0.18253263551E+03  0.18660226618E+03  0.00000000000E+00 0. -1.
<mgrwt>
<rscale>  0 0.91201657E+02</rscale>
<asrwt>0</asrwt>
<pdfrwt beam="2">  1        2 0.37194187E-01 0.91201657E+02</pdfrwt>
<pdfrwt beam="1">  1       -2 0.13232554E-02 0.91201657E+02</pdfrwt>
<totfact> 0.16567308E+05</totfact>
</mgrwt>
</event>
<event>
 5    1  0.6043464E+000  0.9144200E+02  0.7546771E-02  0.1299397E+00
          2   -1    0    0  501    0  0.00000000000E+00  0.00000000000E+00  0.96869714020E+02  0.96869714020E+02  0.00000000000E+00 0.  1.
         -2   -1    0    0    0  501 -0.00000000000E+00 -0.00000000000E+00 -0.21579602975E+02  0.21579602975E+02  0.00000000000E+00 0. -1.
         23    2    1    2    0    0  0.00000000000E+00  0.00000000000E+00  0.75290111045E+02  0.11844931699E+03  0.91442002796E+02 0.  0.
        -13    1    3    3    0    0 -0.22359214101E+02 -0.33014123822E+02  0.66625669954E+02  0.77645648454E+02  0.00000000000E+00 0.  1.
         13    1    3    3    0    0  0.22359214101E+02  0.33014123822E+02  0.86644410907E+01  0.40803668541E+02  0.00000000000E+00 0. -1.
<mgrwt>
<rscale>  0 0.91442003E+02</rscale>
<asrwt>0</asrwt>
<pdfrwt beam="1">  1        2 0.14903033E-01 0.91442003E+02</pdfrwt>
<pdfrwt beam="2">  1       -2 0.33199390E-02 0.91442003E+02</pdfrwt>
<totfact> 0.12052928E+05</totfact>
</mgrwt>
</event>
<event>
 5    1  0.6043464E+000  0.9130036E+02  0.7546771E-02  0.1299733E+00
         -1   -1    0    0    0  501 -0.00000000000E+00  0.00000000000E+00  0.71284847821E+01  0.71284847821E+01  0.00000000000E+00 0.  1.
          1   -1    0    0  501    0  0.00000000000E+00 -0.00000000000E+00 -0.29233967895E+03  0.29233967895E+03  0.00000000000E+00 0. -1.
         23    2    1    2    0    0  0.00000000000E+00  0.00000000000E+00 -0.28521119417E+03  0.29946816373E+03  0.91300360406E+02 0.  0.
        -13    1    3    3    0    0 -0.24012582597E+02  0.37952002387E+02 -0.11576131116E+03  0.12416778877E+03  0.00000000000E+00 0. -1.
         13    1    3    3    0    0  0.24012582597E+02 -0.37952002387E+02 -0.16944988301E+03  0.17530037496E+03  0.00000000000E+00 0.  1.
<mgrwt>
<rscale>  0 0.91300360E+02</rscale>
<asrwt>0</asrwt>
<pdfrwt beam="2">  1        1 0.44975320E-01 0.91300360E+02</pdfrwt>
<pdfrwt beam="1">  1       -1 0.10966903E-02 0.91300360E+02</pdfrwt>
<totfact> 0.12702988E+05</totfact>
</mgrwt>
</event>
<event>
 5    1  0.6043464E+000  0.7980145E+02  0.7546771E-02  0.1329616E+00
         -3   -1    0    0    0  501 -0.00000000000E+00  0.00000000000E+00  0.23868282041E+03  0.23868282041E+03  0.00000000000E+00 0. -1.
          3   -1    0    0  501    0  0.00000000000E+00 -0.00000000000E+00 -0.66702232544E+01  0.66702232544E+01  0.00000000000E+00 0.  1.
         23    2    1    2    0    0  0.00000000000E+00  0.00000000000E+00  0.23201259715E+03  0.24535304366E+03  0.79801446079E+02 0.  0.
        -13    1    3    3    0    0  0.28317581901E+02  0.26114233467E+02  0.84020835585E+02  0.92430186880E+02  0.00000000000E+00 0.  1.
         13    1    3    3    0    0 -0.28317581901E+02 -0.26114233467E+02  0.14799176157E+03  0.15292285678E+03  0.00000000000E+00 0. -1.
<mgrwt>
<rscale>  0 0.79801446E+02</rscale>
<asrwt>0</asrwt>
<pdfrwt beam="2">  1        3 0.10261884E-02 0.79801446E+02</pdfrwt>
<pdfrwt beam="1">  1       -3 0.36720427E-01 0.79801446E+02</pdfrwt>
<totfact> 0.37536821E+04</totfact>
</mgrwt>
</event>
<event>
 5    1  0.6043464E+000  0.8801820E+02  0.7546771E-02  0.1307723E+00
         -1   -1    0    0    0  501 -0.00000000000E+00  0.00000000000E+00  0.84103851243E+01  0.84103851243E+01  0.00000000000E+00 0.  1.
          1   -1    0    0  501    0  0.00000000000E+00 -0.00000000000E+00 -0.23028680713E+03  0.23028680713E+03  0.00000000000E+00 0. -1.
         23    2    1    2    0    0  0.00000000000E+00  0.00000000000E+00 -0.22187642201E+03  0.23869719226E+03  0.88018196687E+02 0.  0.
        -13    1    3    3    0    0  0.35065858283E+02 -0.96921699520E+01 -0.17809547143E+03  0.18177334656E+03  0.00000000000E+00 0. -1.
         13    1    3    3    0    0 -0.35065858283E+02  0.96921699520E+01 -0.43780950582E+02  0.56923845701E+02  0.00000000000E+00 0.  1.
<mgrwt>
<rscale>  0 0.88018197E+02</rscale>
<asrwt>0</asrwt>
<pdfrwt beam="2">  1        1 0.35428735E-01 0.88018197E+02</pdfrwt>
<pdfrwt beam="1">  1       -1 0.12939056E-02 0.88018197E+02</pdfrwt>
<totfact> 0.13371011E+05</totfact>
</mgrwt>
</event>
<event>
 5    1  0.6043464E+000  0.1020328E+03  0.7546771E-02  0.1276078E+00
         -3   -1    0    0    0  501 -0.00000000000E+00  0.00000000000E+00  0.66081559164E+01  0.66081559164E+01  0.00000000000E+00 0.  1.
          3   -1    0    0  501    0  0.00000000000E+00 -0.00000000000E+00 -0.39385753156E+03  0.39385753156E+03  0.00000000000E+00 0. -1.
         23    2    1    2    0    0  0.00000000000E+00  0.00000000000E+00 -0.38724937564E+03  0.40046568747E+03  0.10203277860E+03 0.  0.
        -13    1    3    3    0    0  0.40934267610E+02 -0.27486632249E+02 -0.24503044900E+03  0.24994209360E+03  0.00000000000E+00 0. -1.
         13    1    3    3    0    0 -0.40934267610E+02  0.27486632249E+02 -0.14221892664E+03  0.15052359388E+03  0.00000000000E+00 0.  1.
<mgrwt>
<rscale>  0 0.10203278E+03</rscale>
<asrwt>0</asrwt>
<pdfrwt beam="2">  1        3 0.60593487E-01 0.10203278E+03</pdfrwt>
<pdfrwt beam="1">  1       -3 0.10166390E-02 0.10203278E+03</pdfrwt>
<totfact> 0.15215119E+04</totfact>
</mgrwt>
</event>
<event>
 5    1  0.6043464E+000  0.9339059E+02  0.7546771E-02  0.1294843E+00
         -2   -1    0    0    0  501 -0.00000000000E+00  0.00000000000E+00  0.99115555238E+01  0.99115555238E+01  0.00000000000E+00 0.  1.
          2   -1    0    0  501    0  0.00000000000E+00 -0.00000000000E+00 -0.21999075639E+03  0.21999075639E+03  0.00000000000E+00 0. -1.
         23    2    1    2    0    0  0.00000000000E+00  0.00000000000E+00 -0.21007920086E+03  0.22990231191E+03  0.93390590461E+02 0.  0.
        -13    1    3    3    0    0 -0.34418544773E+02  0.29809069140E+01 -0.27703356188E+02  0.44283156780E+02  0.00000000000E+00 0.  1.
         13    1    3    3    0    0  0.34418544773E+02 -0.29809069140E+01 -0.18237584467E+03  0.18561915513E+03  0.00000000000E+00 0. -1.
<mgrwt>
<rscale>  0 0.93390590E+02</rscale>
<asrwt>0</asrwt>
<pdfrwt beam="2">  1        2 0.33844728E-01 0.93390590E+02</pdfrwt>
<pdfrwt beam="1">  1       -2 0.15248549E-02 0.93390590E+02</pdfrwt>
<totfact> 0.15012351E+05</totfact>
</mgrwt>
</event>
<event>
 5    1  0.6043464E+000  0.9348210E+02  0.7546771E-02  0.1294632E+00
          4   -1    0    0  501    0  0.00000000000E+00  0.00000000000E+00  0.87180274731E+02  0.87180274731E+02  0.00000000000E+00 0. -1.
         -4   -1    0    0    0  501 -0.00000000000E+00 -0.00000000000E+00 -0.25059865394E+02  0.25059865394E+02  0.00000000000E+00 0.  1.
         23    2    1    2    0    0  0.00000000000E+00  0.00000000000E+00  0.62120409337E+02  0.11224014012E+03  0.93482104164E+02 0.  0.
        -13    1    3    3    0    0 -0.46142443584E+02 -0.70394694310E+01  0.28107774396E+02  0.54486018493E+02  0.00000000000E+00 0.  1.
         13    1    3    3    0    0  0.46142443584E+02  0.70394694310E+01  0.34012634942E+02  0.57754121632E+02  0.00000000000E+00 0. -1.
<mgrwt>
<rscale>  0 0.93482104E+02</rscale>
<asrwt>0</asrwt>
<pdfrwt beam="1">  1        4 0.13412350E-01 0.93482104E+02</pdfrwt>
<pdfrwt beam="2">  1       -4 0.38553639E-02 0.93482104E+02</pdfrwt>
<totfact> 0.24035200E+04</totfact>
</mgrwt>
</event>
<event>
 5    1  0.6043464E+000  0.9330912E+02  0.7546771E-02  0.1295030E+00
          2   -1    0    0  501    0  0.00000000000E+00  0.00000000000E+00  0.18881458903E+02  0.18881458903E+02  0.00000000000E+00 0. -1.
         -2   -1    0    0    0  501 -0.00000000000E+00 -0.00000000000E+00 -0.11527964701E+03  0.11527964701E+03  0.00000000000E+00 0.  1.
         23    2    1    2    0    0  0.00000000000E+00  0.00000000000E+00 -0.96398188106E+02  0.13416110591E+03  0.93309118896E+02 0.  0.
        -13    1    3    3    0    0 -0.43754587992E+02  0.22182167979E+01 -0.71260808759E+02  0.83650985177E+02  0.00000000000E+00 0.  1.
         13    1    3    3    0    0  0.43754587992E+02 -0.22182167979E+01 -0.25137379347E+02  0.50510120734E+02  0.00000000000E+00 0. -1.
<mgrwt>
<rscale>  0 0.93309119E+02</rscale>
<asrwt>0</asrwt>
<pdfrwt beam="1">  1        2 0.29048398E-02 0.93309119E+02</pdfrwt>
<pdfrwt beam="2">  1       -2 0.17735331E-01 0.93309119E+02</pdfrwt>
<totfact> 0.72090647E+04</totfact>
</mgrwt>
</event>
<event>
 5    1  0.6043464E+000  0.6726133E+02  0.7546771E-02  0.1369662E+00
         -1   -1    0    0    0  501 -0.00000000000E+00  0.00000000000E+00  0.36626569163E+02  0.36626569163E+02  0.00000000000E+00 0.  1.
          1   -1    0    0  501    0  0.00000000000E+00 -0.00000000000E+00 -0.30879812136E+02  0.30879812136E+02  0.00000000000E+00 0. -1.
         23    2    1    2    0    0  0.00000000000E+00  0.00000000000E+00  0.57467570265E+01  0.67506381299E+02  0.67261328412E+02 0.  0.
        -13    1    3    3    0    0  0.18848461997E+02  0.16263708606E+02  0.25566568788E+02  0.35685041360E+02  0.00000000000E+00 0.  1.
         13    1    3    3    0    0 -0.18848461997E+02 -0.16263708606E+02 -0.19819811761E+02  0.31821339939E+02  0.00000000000E+00 0. -1.
<mgrwt>
<rscale>  0 0.67261328E+02</rscale>
<asrwt>0</asrwt>
<pdfrwt beam="2">  1        1 0.47507403E-02 0.67261328E+02</pdfrwt>
<pdfrwt beam="1">  1       -1 0.56348568E-02 0.67261328E+02</pdfrwt>
<totfact> 0.20326773E+05</totfact>
</mgrwt>
</event>
<event>
 5    1  0.6043464E+000  0.9123294E+02  0.7546771E-02  0.1299893E+00
          2   -1    0    0  501    0  0.00000000000E+00  0.00000000000E+00  0.23288490812E+02  0.23288490812E+02  0.00000000000E+00 0. -1.
         -2   -1    0    0    0  501 -0.00000000000E+00 -0.00000000000E+00 -0.89351528787E+02  0.89351528787E+02  0.00000000000E+00 0.  1.
         23    2    1    2    0    0  0.00000000000E+00  0.00000000000E+00 -0.66063037974E+02  0.11264001960E+03  0.91232938289E+02 0.  0.
        -13    1    3    3    0    0  0.59197840844E+01 -0.30623962174E+02  0.80653977962E+01  0.32216789791E+02  0.00000000000E+00 0. -1.
         13    1    3    3    0    0 -0.59197840844E+01  0.30623962174E+02 -0.74128435771E+02  0.80423229807E+02  0.00000000000E+00 0.  1.
<mgrwt>
<rscale>  0 0.91232938E+02</rscale>
<asrwt>0</asrwt>
<pdfrwt beam="1">  1        2 0.35828447E-02 0.91232938E+02</pdfrwt>
<pdfrwt beam="2">  1       -2 0.13746389E-01 0.91232938E+02</pdfrwt>
<totfact> 0.82349749E+04</totfact>
</mgrwt>
</event>
<event>
 5    1  0.6043464E+000  0.9096764E+02  0.7546771E-02  0.1300525E+00
         -1   -1    0    0    0  501 -0.00000000000E+00  0.00000000000E+00  0.89853124896E+02  0.89853124896E+02  0.00000000000E+00 0.  1.
          1   -1    0    0  501    0  0.00000000000E+00 -0.00000000000E+00 -0.23023992414E+02  0.23023992414E+02  0.00000000000E+00 0. -1.
         23    2    1    2    0    0  0.00000000000E+00  0.00000000000E+00  0.66829132483E+02  0.11287711731E+03  0.90967635254E+02 0.  0.
        -13    1    3    3    0    0 -0.18702258295E+01 -0.24879024105E+02 -0.13775470096E+02  0.28499599321E+02  0.00000000000E+00 0. -1.
         13    1    3    3    0    0  0.18702258295E+01  0.24879024105E+02  0.80604602579E+02  0.84377517989E+02  0.00000000000E+00 0.  1.
<mgrwt>
<rscale>  0 0.90967635E+02</rscale>
<asrwt>0</asrwt>
<pdfrwt beam="2">  1        1 0.35421527E-02 0.90967635E+02</pdfrwt>
<pdfrwt beam="1">  1       -1 0.13823558E-01 0.90967635E+02</pdfrwt>
<totfact> 0.83457216E+04</totfact>
</mgrwt>
</event>
<event>
 5    1  0.6043464E+000  0.9013674E+02  0.7546771E-02  0.1302521E+00
         -2   -1    0    0    0  501 -0.00000000000E+00  0.00000000000E+00  0.21732481130E+02  0.21732481130E+02  0.00000000000E+00 0.  1.
          2   -1    0    0  501    0  0.00000000000E+00 -0.00000000000E+00 -0.93461844082E+02  0.93461844082E+02  0.00000000000E+00 0. -1.
         23    2    1    2    0    0  0.00000000000E+00  0.00000000000E+00 -0.71729362952E+02  0.11519432521E+03  0.90136735306E+02 0.  0.
        -13    1    3    3    0    0  0.32437626610E+02 -0.64472969394E+01 -0.74992851414E+02  0.81961545990E+02  0.00000000000E+00 0. -1.
         13    1    3    3    0    0 -0.32437626610E+02  0.64472969394E+01  0.32634884619E+01  0.33232779222E+02  0.00000000000E+00 0.  1.
<mgrwt>
<rscale>  0 0.90136735E+02</rscale>
<asrwt>0</asrwt>
<pdfrwt beam="2">  1        2 0.14378745E-01 0.90136735E+02</pdfrwt>
<pdfrwt beam="1">  1       -2 0.33434586E-02 0.90136735E+02</pdfrwt>
<totfact> 0.12406113E+05</totfact>
</mgrwt>
</event>
<event>
 5    1  0.6043464E+000  0.8890806E+02  0.7546771E-02  0.1305518E+00
          1   -1    0    0  501    0  0.00000000000E+00  0.00000000000E+00  0.29325504689E+02  0.29325504689E+02  0.00000000000E+00 0. -1.
         -1   -1    0    0    0  501 -0.00000000000E+00 -0.00000000000E+00 -0.67387100035E+02  0.67387100035E+02  0.00000000000E+00 0.  1.
         23    2    1    2    0    0  0.00000000000E+00  0.00000000000E+00 -0.38061595347E+02  0.96712604724E+02  0.88908058533E+02 0.  0.
        -13    1    3    3    0    0 -0.25478838938E+02 -0.11866222234E+02 -0.56495101314E+02  0.63100514548E+02  0.00000000000E+00 0.  1.
         13    1    3    3    0    0  0.25478838938E+02  0.11866222234E+02  0.18433505967E+02  0.33612090176E+02  0.00000000000E+00 0. -1.
<mgrwt>
<rscale>  0 0.88908059E+02</rscale>
<asrwt>0</asrwt>
<pdfrwt beam="1">  1        1 0.45116161E-02 0.88908059E+02</pdfrwt>
<pdfrwt beam="2">  1       -1 0.10367246E-01 0.88908059E+02</pdfrwt>
<totfact> 0.92833346E+04</totfact>
</mgrwt>
</event>
<event>
 5    1  0.6043464E+000  0.8984644E+02  0.7546771E-02  0.1303224E+00
         -1   -1    0    0    0  501 -0.00000000000E+00  0.00000000000E+00  0.24473669727E+03  0.24473669727E+03  0.00000000000E+00 0. -1.
          1   -1    0    0  501    0  0.00000000000E+00 -0.00000000000E+00 -0.82459877147E+01  0.82459877147E+01  0.00000000000E+00 0.  1.
         23    2    1    2    0    0  0.00000000000E+00  0.00000000000E+00  0.23649070956E+03  0.25298268499E+03  0.89846442313E+02 0.  0.
        -13    1    3    3    0    0  0.28598946209E+02 -0.19563707334E+02  0.19875028641E+03  0.20174814675E+03  0.00000000000E+00 0. -1.
         13    1    3    3    0    0 -0.28598946209E+02  0.19563707334E+02  0.37740423143E+02  0.51234538233E+02  0.00000000000E+00 0.  1.
<mgrwt>
<rscale>  0 0.89846442E+02</rscale>
<asrwt>0</asrwt>
<pdfrwt beam="2">  1        1 0.12686137E-02 0.89846442E+02</pdfrwt>
<pdfrwt beam="1">  1       -1 0.37651794E-01 0.89846442E+02</pdfrwt>
<totfact> 0.67778713E+04</totfact>
</mgrwt>
</event>
<event>
 5    1  0.6043464E+000  0.9194366E+02  0.7546771E-02  0.1298212E+00
          2   -1    0    0  501    0  0.00000000000E+00  0.00000000000E+00  0.14495074208E+02  0.14495074208E+02  0.00000000000E+00 0. -1.
         -2   -1    0    0    0  501 -0.00000000000E+00 -0.00000000000E+00 -0.14580189157E+03  0.14580189157E+03  0.00000000000E+00 0.  1.
         23    2    1    2    0    0  0.00000000000E+00  0.00000000000E+00 -0.13130681736E+03  0.16029696577E+03  0.91943661835E+02 0.  0.
        -13    1    3    3    0    0 -0.25400357983E+02 -0.29527668910E+02 -0.10822827801E+03  0.11502356966E+03  0.00000000000E+00 0.  1.
         13    1    3    3    0    0  0.25400357983E+02  0.29527668910E+02 -0.23078539347E+02  0.45273396110E+02  0.00000000000E+00 0. -1.
<mgrwt>
<rscale>  0 0.91943662E+02</rscale>
<asrwt>0</asrwt>
<pdfrwt beam="1">  1        2 0.22300113E-02 0.91943662E+02</pdfrwt>
<pdfrwt beam="2">  1       -2 0.22431061E-01 0.91943662E+02</pdfrwt>
<totfact> 0.69095866E+04</totfact>
</mgrwt>
</event>
<event>
 5    1  0.6043464E+000  0.9052052E+02  0.7546771E-02  0.1301596E+00
         -3   -1    0    0    0  501 -0.00000000000E+00  0.00000000000E+00  0.17192502097E+03  0.17192502097E+03  0.00000000000E+00 0.  1.
          3   -1    0    0  501    0  0.00000000000E+00 -0.00000000000E+00 -0.11915027113E+02  0.11915027113E+02  0.00000000000E+00 0. -1.
         23    2    1    2    0    0  0.00000000000E+00  0.00000000000E+00  0.16000999386E+03  0.18384004808E+03  0.90520523335E+02 0.  0.
        -13    1    3    3    0    0 -0.27699160777E+02  0.16708311976E+02  0.15714869680E+02  0.35963430397E+02  0.00000000000E+00 0. -1.
         13    1    3    3    0    0  0.27699160777E+02 -0.16708311976E+02  0.14429512418E+03  0.14787661769E+03  0.00000000000E+00 0.  1.
<mgrwt>
<rscale>  0 0.90520523E+02</rscale>
<asrwt>0</asrwt>
<pdfrwt beam="2">  1        3 0.18330812E-02 0.90520523E+02</pdfrwt>
<pdfrwt beam="1">  1       -3 0.26450001E-01 0.90520523E+02</pdfrwt>
<totfact> 0.29933070E+04</totfact>
</mgrwt>
</event>
<event>
 5    1  0.6043464E+000  0.9100731E+02  0.7546771E-02  0.1300431E+00
         -2   -1    0    0    0  501 -0.00000000000E+00  0.00000000000E+00  0.45068036571E+02  0.45068036571E+02  0.00000000000E+00 0. -1.
          2   -1    0    0  501    0  0.00000000000E+00 -0.00000000000E+00 -0.45943481258E+02  0.45943481258E+02  0.00000000000E+00 0.  1.
         23    2    1    2    0    0  0.00000000000E+00  0.00000000000E+00 -0.87544468705E+00  0.91011517829E+02  0.91007307257E+02 0.  0.
        -13    1    3    3    0    0 -0.23037244728E+02  0.13955114691E+02  0.36239887904E+02  0.45152955008E+02  0.00000000000E+00 0. -1.
         13    1    3    3    0    0  0.23037244728E+02 -0.13955114691E+02 -0.37115332591E+02  0.45858562821E+02  0.00000000000E+00 0.  1.
<mgrwt>
<rscale>  0 0.91007307E+02</rscale>
<asrwt>0</asrwt>
<pdfrwt beam="2">  1        2 0.70682279E-02 0.91007307E+02</pdfrwt>
<pdfrwt beam="1">  1       -2 0.69335441E-02 0.91007307E+02</pdfrwt>
<totfact> 0.99403060E+04</totfact>
</mgrwt>
</event>
<event>
 5    1  0.6043464E+000  0.9107865E+02  0.7546771E-02  0.1300260E+00
         -1   -1    0    0    0  501 -0.00000000000E+00  0.00000000000E+00  0.10437363969E+02  0.10437363969E+02  0.00000000000E+00 0.  1.
          1   -1    0    0  501    0  0.00000000000E+00 -0.00000000000E+00 -0.19869289244E+03  0.19869289244E+03  0.00000000000E+00 0. -1.
         23    2    1    2    0    0  0.00000000000E+00  0.00000000000E+00 -0.18825552847E+03  0.20913025641E+03  0.91078648134E+02 0.  0.
        -13    1    3    3    0    0 -0.33734380640E+02 -0.43482813370E+00 -0.23892867353E+02  0.41340859002E+02  0.00000000000E+00 0.  1.
         13    1    3    3    0    0  0.33734380640E+02  0.43482813370E+00 -0.16436266111E+03  0.16778939740E+03  0.00000000000E+00 0. -1.
<mgrwt>
<rscale>  0 0.91078648E+02</rscale>
<asrwt>0</asrwt>
<pdfrwt beam="2">  1        1 0.30568139E-01 0.91078648E+02</pdfrwt>
<pdfrwt beam="1">  1       -1 0.16057482E-02 0.91078648E+02</pdfrwt>
<totfact> 0.11859812E+05</totfact>
</mgrwt>
</event>
<event>
 5    1  0.6043464E+000  0.9071252E+02  0.7546771E-02  0.1301135E+00
         -1   -1    0    0    0  501 -0.00000000000E+00  0.00000000000E+00  0.11217292343E+03  0.11217292343E+03  0.00000000000E+00 0.  1.
          1   -1    0    0  501    0  0.00000000000E+00 -0.00000000000E+00 -0.18339455178E+02  0.18339455178E+02  0.00000000000E+00 0. -1.
         23    2    1    2    0    0  0.00000000000E+00  0.00000000000E+00  0.93833468251E+02  0.13051237861E+03  0.90712519564E+02 0.  0.
        -13    1    3    3    0    0 -0.41447460495E+02 -0.17680351388E+02  0.39481947209E+02  0.59910858466E+02  0.00000000000E+00 0. -1.
         13    1    3    3    0    0  0.41447460495E+02  0.17680351388E+02  0.54351521042E+02  0.70601520141E+02  0.00000000000E+00 0.  1.
<mgrwt>
<rscale>  0 0.90712520E+02</rscale>
<asrwt>0</asrwt>
<pdfrwt beam="2">  1        1 0.28214547E-02 0.90712520E+02</pdfrwt>
<pdfrwt beam="1">  1       -1 0.17257372E-01 0.90712520E+02</pdfrwt>
<totfact> 0.80656962E+04</totfact>
</mgrwt>
</event>
<event>
 5    1  0.6043464E+000  0.9118029E+02  0.7546771E-02  0.1300018E+00
         -1   -1    0    0    0  501 -0.00000000000E+00  0.00000000000E+00  0.15513393482E+03  0.15513393482E+03  0.00000000000E+00 0.  1.
          1   -1    0    0  501    0  0.00000000000E+00 -0.00000000000E+00 -0.13397849729E+02  0.13397849729E+02  0.00000000000E+00 0. -1.
         23    2    1    2    0    0  0.00000000000E+00  0.00000000000E+00  0.14173608509E+03  0.16853178455E+03  0.91180286172E+02 0.  0.
        -13    1    3    3    0    0 -0.39743683491E+02 -0.88861532379E+01  0.10874481501E+03  0.11612044991E+03  0.00000000000E+00 0.  1.
         13    1    3    3    0    0  0.39743683491E+02  0.88861532379E+01  0.32991270086E+02  0.52411334639E+02  0.00000000000E+00 0. -1.
<mgrwt>
<rscale>  0 0.91180286E+02</rscale>
<asrwt>0</asrwt>
<pdfrwt beam="2">  1        1 0.20612078E-02 0.91180286E+02</pdfrwt>
<pdfrwt beam="1">  1       -1 0.23866758E-01 0.91180286E+02</pdfrwt>
<totfact> 0.74187852E+04</totfact>
</mgrwt>
</event>
<event>
 5    1  0.6043464E+000  0.9111659E+02  0.7546771E-02  0.1300170E+00
         -2   -1    0    0    0  501 -0.00000000000E+00  0.00000000000E+00  0.34465681591E+03  0.34465681591E+03  0.00000000000E+00 0.  1.
          2   -1    0    0  501    0  0.00000000000E+00 -0.00000000000E+00 -0.60221015234E+01  0.60221015234E+01  0.00000000000E+00 0. -1.
         23    2    1    2    0    0  0.00000000000E+00  0.00000000000E+00  0.33863471438E+03  0.35067891743E+03  0.91116592037E+02 0.  0.
        -13    1    3    3    0    0  0.41421448852E+02  0.75146335473E+01  0.10228480432E+03  0.11060916480E+03  0.00000000000E+00 0. -1.
         13    1    3    3    0    0 -0.41421448852E+02 -0.75146335473E+01  0.23634991006E+03  0.24006975263E+03  0.00000000000E+00 0.  1.
<mgrwt>
<rscale>  0 0.91116592E+02</rscale>
<asrwt>0</asrwt>
<pdfrwt beam="2">  1        2 0.92647743E-03 0.91116592E+02</pdfrwt>
<pdfrwt beam="1">  1       -2 0.53024110E-01 0.91116592E+02</pdfrwt>
<totfact> 0.47081590E+04</totfact>
</mgrwt>
</event>
<event>
 5    1  0.6043464E+000  0.9033126E+02  0.7546771E-02  0.1302051E+00
         -1   -1    0    0    0  501 -0.00000000000E+00  0.00000000000E+00  0.60765585272E+01  0.60765585272E+01  0.00000000000E+00 0.  1.
          1   -1    0    0  501    0  0.00000000000E+00 -0.00000000000E+00 -0.33570551087E+03  0.33570551087E+03  0.00000000000E+00 0. -1.
         23    2    1    2    0    0  0.00000000000E+00  0.00000000000E+00 -0.32962895234E+03  0.34178206940E+03  0.90331261138E+02 0.  0.
        -13    1    3    3    0    0  0.22106921903E+02 -0.34507232225E+02 -0.23665098703E+03  0.24017317655E+03  0.00000000000E+00 0.  1.
         13    1    3    3    0    0 -0.22106921903E+02  0.34507232225E+02 -0.92977965307E+02  0.10160889284E+03  0.00000000000E+00 0. -1.
<mgrwt>
<rscale>  0 0.90331261E+02</rscale>
<asrwt>0</asrwt>
<pdfrwt beam="2">  1        1 0.51647017E-01 0.90331261E+02</pdfrwt>
<pdfrwt beam="1">  1       -1 0.93485488E-03 0.90331261E+02</pdfrwt>
<totfact> 0.13412462E+05</totfact>
</mgrwt>
</event>
<event>
 5    1  0.6043464E+000  0.8027478E+02  0.7546771E-02  0.1328273E+00
         -4   -1    0    0    0  501 -0.00000000000E+00  0.00000000000E+00  0.17576182191E+03  0.17576182191E+03  0.00000000000E+00 0.  1.
          4   -1    0    0  501    0  0.00000000000E+00 -0.00000000000E+00 -0.91658694322E+01  0.91658694322E+01  0.00000000000E+00 0. -1.
         23    2    1    2    0    0  0.00000000000E+00  0.00000000000E+00  0.16659595248E+03  0.18492769134E+03  0.80274775883E+02 0.  0.
        -13    1    3    3    0    0 -0.34253864616E+02  0.42813285911E+01  0.36122893666E+02  0.49965192509E+02  0.00000000000E+00 0. -1.
         13    1    3    3    0    0  0.34253864616E+02 -0.42813285911E+01  0.13047305881E+03  0.13496249883E+03  0.00000000000E+00 0.  1.
<mgrwt>
<rscale>  0 0.80274776E+02</rscale>
<asrwt>0</asrwt>
<pdfrwt beam="2">  1        4 0.14101339E-02 0.80274776E+02</pdfrwt>
<pdfrwt beam="1">  1       -4 0.27040278E-01 0.80274776E+02</pdfrwt>
<totfact> 0.30892891E+04</totfact>
</mgrwt>
</event>
<event>
 5    1  0.6043464E+000  0.9142541E+02  0.7546771E-02  0.1299436E+00
          1   -1    0    0  501    0  0.00000000000E+00  0.00000000000E+00  0.36317660668E+02  0.36317660668E+02  0.00000000000E+00 0. -1.
         -1   -1    0    0    0  501 -0.00000000000E+00 -0.00000000000E+00 -0.57538158321E+02  0.57538158321E+02  0.00000000000E+00 0.  1.
         23    2    1    2    0    0  0.00000000000E+00  0.00000000000E+00 -0.21220497653E+02  0.93855818989E+02  0.91425408052E+02 0.  0.
        -13    1    3    3    0    0 -0.45525983413E+02  0.19983852810E+01 -0.69027896090E+01  0.46089664935E+02  0.00000000000E+00 0.  1.
         13    1    3    3    0    0  0.45525983413E+02 -0.19983852810E+01 -0.14317708044E+02  0.47766154054E+02  0.00000000000E+00 0. -1.
<mgrwt>
<rscale>  0 0.91425408E+02</rscale>
<asrwt>0</asrwt>
<pdfrwt beam="1">  1        1 0.55873324E-02 0.91425408E+02</pdfrwt>
<pdfrwt beam="2">  1       -1 0.88520244E-02 0.91425408E+02</pdfrwt>
<totfact> 0.88644987E+04</totfact>
</mgrwt>
</event>
<event>
 5    1  0.6043464E+000  0.7954657E+02  0.7546771E-02  0.1330343E+00
         -3   -1    0    0    0  501 -0.00000000000E+00  0.00000000000E+00  0.23972388940E+02  0.23972388940E+02  0.00000000000E+00 0.  1.
          3   -1    0    0  501    0  0.00000000000E+00 -0.00000000000E+00 -0.65989003680E+02  0.65989003680E+02  0.00000000000E+00 0. -1.
         23    2    1    2    0    0  0.00000000000E+00  0.00000000000E+00 -0.42016614740E+02  0.89961392620E+02  0.79546566537E+02 0.  0.
        -13    1    3    3    0    0  0.29524804937E+02  0.15000664311E+02  0.39024073040E+01  0.33346106506E+02  0.00000000000E+00 0.  1.
         13    1    3    3    0    0 -0.29524804937E+02 -0.15000664311E+02 -0.45919022043E+02  0.56615286114E+02  0.00000000000E+00 0. -1.
<mgrwt>
<rscale>  0 0.79546567E+02</rscale>
<asrwt>0</asrwt>
<pdfrwt beam="2">  1        3 0.10152154E-01 0.79546567E+02</pdfrwt>
<pdfrwt beam="1">  1       -3 0.36880599E-02 0.79546567E+02</pdfrwt>
<totfact> 0.51214961E+04</totfact>
</mgrwt>
</event>
<event>
 5    1  0.6043464E+000  0.9188778E+02  0.7546771E-02  0.1298344E+00
          2   -1    0    0  501    0  0.00000000000E+00  0.00000000000E+00  0.58086031478E+01  0.58086031478E+01  0.00000000000E+00 0. -1.
         -2   -1    0    0    0  501 -0.00000000000E+00 -0.00000000000E+00 -0.36339906461E+03  0.36339906461E+03  0.00000000000E+00 0.  1.
         23    2    1    2    0    0  0.00000000000E+00  0.00000000000E+00 -0.35759046146E+03  0.36920766775E+03  0.91887778308E+02 0.  0.
        -13    1    3    3    0    0  0.26744187081E+02 -0.36820371387E+02 -0.15343079151E+03  0.16003749272E+03  0.00000000000E+00 0.  1.
         13    1    3    3    0    0 -0.26744187081E+02  0.36820371387E+02 -0.20415966995E+03  0.20917017504E+03  0.00000000000E+00 0. -1.
<mgrwt>
<rscale>  0 0.91887778E+02</rscale>
<asrwt>0</asrwt>
<pdfrwt beam="1">  1        2 0.89363161E-03 0.91887778E+02</pdfrwt>
<pdfrwt beam="2">  1       -2 0.55907526E-01 0.91887778E+02</pdfrwt>
<totfact> 0.44564395E+04</totfact>
</mgrwt>
</event>
<event>
 5    1  0.6043464E+000  0.9013688E+02  0.7546771E-02  0.1302521E+00
          2   -1    0    0  501    0  0.00000000000E+00  0.00000000000E+00  0.40621077512E+02  0.40621077512E+02  0.00000000000E+00 0.  1.
         -2   -1    0    0    0  501 -0.00000000000E+00 -0.00000000000E+00 -0.50002722742E+02  0.50002722742E+02  0.00000000000E+00 0. -1.
         23    2    1    2    0    0  0.00000000000E+00  0.00000000000E+00 -0.93816452301E+01  0.90623800254E+02  0.90136884267E+02 0.  0.
        -13    1    3    3    0    0  0.28407887063E+02 -0.31411935840E+02  0.10801724006E+02  0.43708065641E+02  0.00000000000E+00 0.  1.
         13    1    3    3    0    0 -0.28407887063E+02  0.31411935840E+02 -0.20183369236E+02  0.46915734613E+02  0.00000000000E+00 0. -1.
<mgrwt>
<rscale>  0 0.90136884E+02</rscale>
<asrwt>0</asrwt>
<pdfrwt beam="1">  1        2 0.62493966E-02 0.90136884E+02</pdfrwt>
<pdfrwt beam="2">  1       -2 0.76927265E-02 0.90136884E+02</pdfrwt>
<totfact> 0.98995226E+04</totfact>
</mgrwt>
</event>
<event>
 5    1  0.6043464E+000  0.9369673E+02  0.7546771E-02  0.1294139E+00
         -2   -1    0    0    0  501 -0.00000000000E+00  0.00000000000E+00  0.68733820103E+02  0.68733820103E+02  0.00000000000E+00 0.  1.
          2   -1    0    0  501    0  0.00000000000E+00 -0.00000000000E+00 -0.31931431610E+02  0.31931431610E+02  0.00000000000E+00 0. -1.
         23    2    1    2    0    0  0.00000000000E+00  0.00000000000E+00  0.36802388493E+02  0.10066525171E+03  0.93696729418E+02 0.  0.
        -13    1    3    3    0    0  0.27492320652E+02  0.34788515367E+02  0.34648785122E+02  0.56272611515E+02  0.00000000000E+00 0.  1.
         13    1    3    3    0    0 -0.27492320652E+02 -0.34788515367E+02  0.21536033707E+01  0.44392640198E+02  0.00000000000E+00 0. -1.
<mgrwt>
<rscale>  0 0.93696729E+02</rscale>
<asrwt>0</asrwt>
<pdfrwt beam="2">  1        2 0.49125279E-02 0.93696729E+02</pdfrwt>
<pdfrwt beam="1">  1       -2 0.10574434E-01 0.93696729E+02</pdfrwt>
<totfact> 0.82962841E+04</totfact>
</mgrwt>
</event>
<event>
 5    1  0.6043464E+000  0.9680753E+02  0.7546771E-02  0.1287156E+00
         -1   -1    0    0    0  501 -0.00000000000E+00  0.00000000000E+00  0.89291896040E+02  0.89291896040E+02  0.00000000000E+00 0.  1.
          1   -1    0    0  501    0  0.00000000000E+00 -0.00000000000E+00 -0.26238939137E+02  0.26238939137E+02  0.00000000000E+00 0. -1.
         23    2    1    2    0    0  0.00000000000E+00  0.00000000000E+00  0.63052956904E+02  0.11553083518E+03  0.96807533294E+02 0.  0.
        -13    1    3    3    0    0  0.73626861778E+01  0.16672393281E+02 -0.21987525901E+02  0.28559221641E+02  0.00000000000E+00 0. -1.
         13    1    3    3    0    0 -0.73626861778E+01 -0.16672393281E+02  0.85040482805E+02  0.86971613537E+02  0.00000000000E+00 0.  1.
<mgrwt>
<rscale>  0 0.96807533E+02</rscale>
<asrwt>0</asrwt>
<pdfrwt beam="2">  1        1 0.40367599E-02 0.96807533E+02</pdfrwt>
<pdfrwt beam="1">  1       -1 0.13737215E-01 0.96807533E+02</pdfrwt>
<totfact> 0.71195712E+04</totfact>
</mgrwt>
</event>
<event>
 5    1  0.6043464E+000  0.9135376E+02  0.7546771E-02  0.1299606E+00
          3   -1    0    0  501    0  0.00000000000E+00  0.00000000000E+00  0.14816390425E+02  0.14816390425E+02  0.00000000000E+00 0. -1.
         -3   -1    0    0    0  501 -0.00000000000E+00 -0.00000000000E+00 -0.14081550524E+03  0.14081550524E+03  0.00000000000E+00 0.  1.
         23    2    1    2    0    0  0.00000000000E+00  0.00000000000E+00 -0.12599911481E+03  0.15563189566E+03  0.91353762999E+02 0.  0.
        -13    1    3    3    0    0 -0.29668683670E+02 -0.34345228540E+02 -0.71778065200E+02  0.84923001349E+02  0.00000000000E+00 0.  1.
         13    1    3    3    0    0  0.29668683670E+02  0.34345228540E+02 -0.54221049611E+02  0.70708894313E+02  0.00000000000E+00 0. -1.
<mgrwt>
<rscale>  0 0.91353763E+02</rscale>
<asrwt>0</asrwt>
<pdfrwt beam="1">  1        3 0.22794449E-02 0.91353763E+02</pdfrwt>
<pdfrwt beam="2">  1       -3 0.21663922E-01 0.91353763E+02</pdfrwt>
<totfact> 0.30804547E+04</totfact>
</mgrwt>
</event>
<event>
 5    1  0.6043464E+000  0.9135175E+02  0.7546771E-02  0.1299611E+00
          2   -1    0    0  501    0  0.00000000000E+00  0.00000000000E+00  0.22441714899E+03  0.22441714899E+03  0.00000000000E+00 0. -1.
         -2   -1    0    0    0  501 -0.00000000000E+00 -0.00000000000E+00 -0.92964622620E+01  0.92964622620E+01  0.00000000000E+00 0.  1.
         23    2    1    2    0    0  0.00000000000E+00  0.00000000000E+00  0.21512068673E+03  0.23371361125E+03  0.91351749989E+02 0.  0.
        -13    1    3    3    0    0  0.34941274461E+02 -0.15114167029E+01  0.18272260425E+03  0.18603958489E+03  0.00000000000E+00 0. -1.
         13    1    3    3    0    0 -0.34941274461E+02  0.15114167029E+01  0.32398082476E+02  0.47674026362E+02  0.00000000000E+00 0.  1.
<mgrwt>
<rscale>  0 0.91351750E+02</rscale>
<asrwt>0</asrwt>
<pdfrwt beam="1">  1        2 0.34525711E-01 0.91351750E+02</pdfrwt>
<pdfrwt beam="2">  1       -2 0.14302251E-02 0.91351750E+02</pdfrwt>
<totfact> 0.16048286E+05</totfact>
</mgrwt>
</event>
<event>
 5    1  0.6043464E+000  0.9138218E+02  0.7546771E-02  0.1299539E+00
         -2   -1    0    0    0  501 -0.00000000000E+00  0.00000000000E+00  0.20557173595E+03  0.20557173595E+03  0.00000000000E+00 0.  1.
          2   -1    0    0  501    0  0.00000000000E+00 -0.00000000000E+00 -0.10155459725E+02  0.10155459725E+02  0.00000000000E+00 0. -1.
         23    2    1    2    0    0  0.00000000000E+00  0.00000000000E+00  0.19541627623E+03  0.21572719568E+03  0.91382175178E+02 0.  0.
        -13    1    3    3    0    0  0.34898925862E+02  0.25830208642E+02  0.13130507209E+03  0.13829734872E+03  0.00000000000E+00 0.  1.
         13    1    3    3    0    0 -0.34898925862E+02 -0.25830208642E+02  0.64111204137E+02  0.77429846963E+02  0.00000000000E+00 0. -1.
<mgrwt>
<rscale>  0 0.91382175E+02</rscale>
<asrwt>0</asrwt>
<pdfrwt beam="2">  1        2 0.15623786E-02 0.91382175E+02</pdfrwt>
<pdfrwt beam="1">  1       -2 0.31626418E-01 0.91382175E+02</pdfrwt>
<totfact> 0.61222592E+04</totfact>
</mgrwt>
</event>
<event>
 5    1  0.6043464E+000  0.9055930E+02  0.7546771E-02  0.1301503E+00
          2   -1    0    0  501    0  0.00000000000E+00  0.00000000000E+00  0.11828073639E+03  0.11828073639E+03  0.00000000000E+00 0. -1.
         -2   -1    0    0    0  501 -0.00000000000E+00 -0.00000000000E+00 -0.17333731265E+02  0.17333731265E+02  0.00000000000E+00 0.  1.
         23    2    1    2    0    0  0.00000000000E+00  0.00000000000E+00  0.10094700513E+03  0.13561446766E+03  0.90559295459E+02 0.  0.
        -13    1    3    3    0    0 -0.70749740423E+01  0.24062061942E+02 -0.59814274964E+01  0.25784017482E+02  0.00000000000E+00 0.  1.
         13    1    3    3    0    0  0.70749740423E+01 -0.24062061942E+02  0.10692843262E+03  0.10983045018E+03  0.00000000000E+00 0. -1.
<mgrwt>
<rscale>  0 0.90559295E+02</rscale>
<asrwt>0</asrwt>
<pdfrwt beam="1">  1        2 0.18197036E-01 0.90559295E+02</pdfrwt>
<pdfrwt beam="2">  1       -2 0.26667280E-02 0.90559295E+02</pdfrwt>
<totfact> 0.13168973E+05</totfact>
</mgrwt>
</event>
<event>
 5    1  0.6043464E+000  0.9165214E+02  0.7546771E-02  0.1298899E+00
         -2   -1    0    0    0  501 -0.00000000000E+00  0.00000000000E+00  0.16451645628E+02  0.16451645628E+02  0.00000000000E+00 0. -1.
          2   -1    0    0  501    0  0.00000000000E+00 -0.00000000000E+00 -0.12764854722E+03  0.12764854722E+03  0.00000000000E+00 0.  1.
         23    2    1    2    0    0  0.00000000000E+00  0.00000000000E+00 -0.11119690159E+03  0.14410019285E+03  0.91652139393E+02 0.  0.
        -13    1    3    3    0    0  0.25700702054E+02 -0.32967736682E+02 -0.85122923334E+02  0.94833062932E+02  0.00000000000E+00 0.  1.
         13    1    3    3    0    0 -0.25700702054E+02  0.32967736682E+02 -0.26073978256E+02  0.49267129916E+02  0.00000000000E+00 0. -1.
<mgrwt>
<rscale>  0 0.91652139E+02</rscale>
<asrwt>0</asrwt>
<pdfrwt beam="2">  1        2 0.19638237E-01 0.91652139E+02</pdfrwt>
<pdfrwt beam="1">  1       -2 0.25310225E-02 0.91652139E+02</pdfrwt>
<totfact> 0.13061835E+05</totfact>
</mgrwt>
</event>
<event>
 5    1  0.6043464E+000  0.9008750E+02  0.7546771E-02  0.1302640E+00
          1   -1    0    0  501    0  0.00000000000E+00  0.00000000000E+00  0.10059938593E+03  0.10059938593E+03  0.00000000000E+00 0. -1.
         -1   -1    0    0    0  501 -0.00000000000E+00 -0.00000000000E+00 -0.20168509136E+02  0.20168509136E+02  0.00000000000E+00 0.  1.
         23    2    1    2    0    0  0.00000000000E+00  0.00000000000E+00  0.80430876791E+02  0.12076789506E+03  0.90087504887E+02 0.  0.
        -13    1    3    3    0    0 -0.14750009520E+02 -0.42125069409E+02  0.48353807605E+02  0.65804064946E+02  0.00000000000E+00 0.  1.
         13    1    3    3    0    0  0.14750009520E+02  0.42125069409E+02  0.32077069186E+02  0.54963830117E+02  0.00000000000E+00 0. -1.
<mgrwt>
<rscale>  0 0.90087505E+02</rscale>
<asrwt>0</asrwt>
<pdfrwt beam="1">  1        1 0.15476828E-01 0.90087505E+02</pdfrwt>
<pdfrwt beam="2">  1       -1 0.31028476E-02 0.90087505E+02</pdfrwt>
<totfact> 0.10803238E+05</totfact>
</mgrwt>
</event>
<event>
 5    1  0.6043464E+000  0.9089343E+02  0.7546771E-02  0.1300702E+00
          2   -1    0    0  501    0  0.00000000000E+00  0.00000000000E+00  0.31183037516E+02  0.31183037516E+02  0.00000000000E+00 0. -1.
         -2   -1    0    0    0  501 -0.00000000000E+00 -0.00000000000E+00 -0.66234859740E+02  0.66234859740E+02  0.00000000000E+00 0.  1.
         23    2    1    2    0    0  0.00000000000E+00  0.00000000000E+00 -0.35051822224E+02  0.97417897256E+02  0.90893434661E+02 0.  0.
        -13    1    3    3    0    0 -0.12365161519E+02  0.43621900698E+02 -0.14198780339E+02  0.47511817509E+02  0.00000000000E+00 0. -1.
         13    1    3    3    0    0  0.12365161519E+02 -0.43621900698E+02 -0.20853041885E+02  0.49906079747E+02  0.00000000000E+00 0.  1.
<mgrwt>
<rscale>  0 0.90893435E+02</rscale>
<asrwt>0</asrwt>
<pdfrwt beam="1">  1        2 0.47973904E-02 0.90893435E+02</pdfrwt>
<pdfrwt beam="2">  1       -2 0.10189978E-01 0.90893435E+02</pdfrwt>
<totfact> 0.90207578E+04</totfact>
</mgrwt>
</event>
<event>
 5    1  0.6043464E+000  0.8581999E+02  0.7546771E-02  0.1313302E+00
         -1   -1    0    0    0  501 -0.00000000000E+00  0.00000000000E+00  0.57970997454E+02  0.57970997454E+02  0.00000000000E+00 0.  1.
          1   -1    0    0  501    0  0.00000000000E+00 -0.00000000000E+00 -0.31761878161E+02  0.31761878161E+02  0.00000000000E+00 0. -1.
         23    2    1    2    0    0  0.00000000000E+00  0.00000000000E+00  0.26209119293E+02  0.89732875615E+02  0.85819992030E+02 0.  0.
        -13    1    3    3    0    0 -0.26256283664E+01 -0.39435021842E+02  0.30577337314E+02  0.49969875217E+02  0.00000000000E+00 0.  1.
         13    1    3    3    0    0  0.26256283664E+01  0.39435021842E+02 -0.43682180202E+01  0.39763000398E+02  0.00000000000E+00 0. -1.
<mgrwt>
<rscale>  0 0.85819992E+02</rscale>
<asrwt>0</asrwt>
<pdfrwt beam="2">  1        1 0.48864428E-02 0.85819992E+02</pdfrwt>
<pdfrwt beam="1">  1       -1 0.89186150E-02 0.85819992E+02</pdfrwt>
<totfact> 0.10391087E+05</totfact>
</mgrwt>
</event>
<event>
 5    1  0.6043464E+000  0.1074524E+03  0.7546771E-02  0.1265362E+00
          1   -1    0    0  501    0  0.00000000000E+00  0.00000000000E+00  0.53292962142E+02  0.53292962142E+02  0.00000000000E+00 0. -1.
         -1   -1    0    0    0  501 -0.00000000000E+00 -0.00000000000E+00 -0.54162910933E+02  0.54162910933E+02  0.00000000000E+00 0.  1.
         23    2    1    2    0    0  0.00000000000E+00  0.00000000000E+00 -0.86994879109E+00  0.10745587307E+03  0.10745235152E+03 0.  0.
        -13    1    3    3    0    0 -0.17399948615E+02 -0.13531559329E+02  0.48562964418E+02  0.53331255589E+02  0.00000000000E+00 0. -1.
         13    1    3    3    0    0  0.17399948615E+02  0.13531559329E+02 -0.49432913209E+02  0.54124617486E+02  0.00000000000E+00 0.  1.
<mgrwt>
<rscale>  0 0.10745235E+03</rscale>
<asrwt>0</asrwt>
<pdfrwt beam="1">  1        1 0.81989173E-02 0.10745235E+03</pdfrwt>
<pdfrwt beam="2">  1       -1 0.83327555E-02 0.10745235E+03</pdfrwt>
<totfact> 0.59515145E+04</totfact>
</mgrwt>
</event>
<event>
 5    1  0.6043464E+000  0.9024224E+02  0.7546771E-02  0.1302266E+00
         -1   -1    0    0    0  501 -0.00000000000E+00  0.00000000000E+00  0.25432053044E+02  0.25432053044E+02  0.00000000000E+00 0.  1.
          1   -1    0    0  501    0  0.00000000000E+00 -0.00000000000E+00 -0.80053139095E+02  0.80053139095E+02  0.00000000000E+00 0. -1.
         23    2    1    2    0    0  0.00000000000E+00  0.00000000000E+00 -0.54621086050E+02  0.10548519214E+03  0.90242244649E+02 0.  0.
        -13    1    3    3    0    0 -0.44888177961E+02 -0.10749798064E+01 -0.22107695015E+02  0.50048519270E+02  0.00000000000E+00 0.  1.
         13    1    3    3    0    0  0.44888177961E+02  0.10749798064E+01 -0.32513391035E+02  0.55436672869E+02  0.00000000000E+00 0. -1.
<mgrwt>
<rscale>  0 0.90242245E+02</rscale>
<asrwt>0</asrwt>
<pdfrwt beam="2">  1        1 0.12315868E-01 0.90242245E+02</pdfrwt>
<pdfrwt beam="1">  1       -1 0.39126235E-02 0.90242245E+02</pdfrwt>
<totfact> 0.10364061E+05</totfact>
</mgrwt>
</event>
<event>
 5    1  0.6043464E+000  0.9283381E+02  0.7546771E-02  0.1296131E+00
         -2   -1    0    0    0  501 -0.00000000000E+00  0.00000000000E+00  0.19952521263E+03  0.19952521263E+03  0.00000000000E+00 0.  1.
          2   -1    0    0  501    0  0.00000000000E+00 -0.00000000000E+00 -0.10798279818E+02  0.10798279818E+02  0.00000000000E+00 0. -1.
         23    2    1    2    0    0  0.00000000000E+00  0.00000000000E+00  0.18872693281E+03  0.21032349244E+03  0.92833810148E+02 0.  0.
        -13    1    3    3    0    0 -0.19462503627E+02  0.29826098189E+02  0.16180597786E+03  0.16567908635E+03  0.00000000000E+00 0.  1.
         13    1    3    3    0    0  0.19462503627E+02 -0.29826098189E+02  0.26920954948E+02  0.44644406099E+02  0.00000000000E+00 0. -1.
<mgrwt>
<rscale>  0 0.92833810E+02</rscale>
<asrwt>0</asrwt>
<pdfrwt beam="2">  1        2 0.16612740E-02 0.92833810E+02</pdfrwt>
<pdfrwt beam="1">  1       -2 0.30696184E-01 0.92833810E+02</pdfrwt>
<totfact> 0.59576441E+04</totfact>
</mgrwt>
</event>
<event>
 5    1  0.6043464E+000  0.9169652E+02  0.7546771E-02  0.1298795E+00
          2   -1    0    0  501    0  0.00000000000E+00  0.00000000000E+00  0.13658462951E+03  0.13658462951E+03  0.00000000000E+00 0. -1.
         -2   -1    0    0    0  501 -0.00000000000E+00 -0.00000000000E+00 -0.15390188013E+02  0.15390188013E+02  0.00000000000E+00 0.  1.
         23    2    1    2    0    0  0.00000000000E+00  0.00000000000E+00  0.12119444150E+03  0.15197481752E+03  0.91696523986E+02 0.  0.
        -13    1    3    3    0    0  0.37322257741E+01  0.26351233491E+02 -0.12771210712E+01  0.26644850421E+02  0.00000000000E+00 0.  1.
         13    1    3    3    0    0 -0.37322257741E+01 -0.26351233491E+02  0.12247156257E+03  0.12532996710E+03  0.00000000000E+00 0. -1.
<mgrwt>
<rscale>  0 0.91696524E+02</rscale>
<asrwt>0</asrwt>
<pdfrwt beam="1">  1        2 0.21013019E-01 0.91696524E+02</pdfrwt>
<pdfrwt beam="2">  1       -2 0.23677213E-02 0.91696524E+02</pdfrwt>
<totfact> 0.13339081E+05</totfact>
</mgrwt>
</event>
<event>
 5    1  0.6043464E+000  0.1207389E+03  0.7546771E-02  0.1241883E+00
          2   -1    0    0  501    0  0.00000000000E+00  0.00000000000E+00  0.47267573795E+03  0.47267573795E+03  0.00000000000E+00 0.  1.
         -2   -1    0    0    0  501 -0.00000000000E+00 -0.00000000000E+00 -0.77103024214E+01  0.77103024214E+01  0.00000000000E+00 0. -1.
         23    2    1    2    0    0  0.00000000000E+00  0.00000000000E+00  0.46496543553E+03  0.48038604037E+03  0.12073893965E+03 0.  0.
        -13    1    3    3    0    0 -0.33576712694E+02 -0.50083851458E+02  0.24420817536E+03  0.25154208539E+03  0.00000000000E+00 0. -1.
         13    1    3    3    0    0  0.33576712694E+02  0.50083851458E+02  0.22075726017E+03  0.22884395498E+03  0.00000000000E+00 0.  1.
<mgrwt>
<rscale>  0 0.12073894E+03</rscale>
<asrwt>0</asrwt>
<pdfrwt beam="1">  1        2 0.72719322E-01 0.12073894E+03</pdfrwt>
<pdfrwt beam="2">  1       -2 0.11862007E-02 0.12073894E+03</pdfrwt>
<totfact> 0.99422935E+04</totfact>
</mgrwt>
</event>
<event>
 5    1  0.6043464E+000  0.9093238E+02  0.7546771E-02  0.1300609E+00
         -1   -1    0    0    0  501 -0.00000000000E+00  0.00000000000E+00  0.13612670732E+02  0.13612670732E+02  0.00000000000E+00 0.  1.
          1   -1    0    0  501    0  0.00000000000E+00 -0.00000000000E+00 -0.15185662984E+03  0.15185662984E+03  0.00000000000E+00 0. -1.
         23    2    1    2    0    0  0.00000000000E+00  0.00000000000E+00 -0.13824395911E+03  0.16546930057E+03  0.90932377084E+02 0.  0.
        -13    1    3    3    0    0  0.21715411915E+02 -0.23354602746E+02 -0.12809186530E+03  0.13200197931E+03  0.00000000000E+00 0. -1.
         13    1    3    3    0    0 -0.21715411915E+02  0.23354602746E+02 -0.10152093804E+02  0.33467321265E+02  0.00000000000E+00 0.  1.
<mgrwt>
<rscale>  0 0.90932377E+02</rscale>
<asrwt>0</asrwt>
<pdfrwt beam="2">  1        1 0.23362558E-01 0.90932377E+02</pdfrwt>
<pdfrwt beam="1">  1       -1 0.20942571E-02 0.90932377E+02</pdfrwt>
<totfact> 0.11320368E+05</totfact>
</mgrwt>
</event>
<event>
 5    1  0.6043464E+000  0.9074491E+02  0.7546771E-02  0.1301058E+00
         -3   -1    0    0    0  501 -0.00000000000E+00  0.00000000000E+00  0.66836548916E+02  0.66836548916E+02  0.00000000000E+00 0.  1.
          3   -1    0    0  501    0  0.00000000000E+00 -0.00000000000E+00 -0.30801402871E+02  0.30801402871E+02  0.00000000000E+00 0. -1.
         23    2    1    2    0    0  0.00000000000E+00  0.00000000000E+00  0.36035146046E+02  0.97637951787E+02  0.90744905525E+02 0.  0.
        -13    1    3    3    0    0 -0.18995763365E+02  0.29197111400E+00 -0.26315862134E+02  0.32456877126E+02  0.00000000000E+00 0. -1.
         13    1    3    3    0    0  0.18995763365E+02 -0.29197111400E+00  0.62351008179E+02  0.65181074661E+02  0.00000000000E+00 0.  1.
<mgrwt>
<rscale>  0 0.90744906E+02</rscale>
<asrwt>0</asrwt>
<pdfrwt beam="2">  1        3 0.47386774E-02 0.90744906E+02</pdfrwt>
<pdfrwt beam="1">  1       -3 0.10282546E-01 0.90744906E+02</pdfrwt>
<totfact> 0.35301341E+04</totfact>
</mgrwt>
</event>
<event>
 5    1  0.6043464E+000  0.9089079E+02  0.7546771E-02  0.1300709E+00
          3   -1    0    0  501    0  0.00000000000E+00  0.00000000000E+00  0.10715239340E+03  0.10715239340E+03  0.00000000000E+00 0. -1.
         -3   -1    0    0    0  501 -0.00000000000E+00 -0.00000000000E+00 -0.19274267411E+02  0.19274267411E+02  0.00000000000E+00 0.  1.
         23    2    1    2    0    0  0.00000000000E+00  0.00000000000E+00  0.87878125988E+02  0.12642666081E+03  0.90890789063E+02 0.  0.
        -13    1    3    3    0    0  0.83854891769E+01  0.42101639610E+02  0.23194460192E+02  0.48793928620E+02  0.00000000000E+00 0. -1.
         13    1    3    3    0    0 -0.83854891769E+01 -0.42101639610E+02  0.64683665797E+02  0.77632732191E+02  0.00000000000E+00 0.  1.
<mgrwt>
<rscale>  0 0.90890789E+02</rscale>
<asrwt>0</asrwt>
<pdfrwt beam="1">  1        3 0.16484983E-01 0.90890789E+02</pdfrwt>
<pdfrwt beam="2">  1       -3 0.29652720E-02 0.90890789E+02</pdfrwt>
<totfact> 0.33093427E+04</totfact>
</mgrwt>
</event>
<event>
 5    1  0.6043464E+000  0.8874069E+02  0.7546771E-02  0.1305930E+00
         -1   -1    0    0    0  501 -0.00000000000E+00  0.00000000000E+00  0.16682226122E+03  0.16682226122E+03  0.00000000000E+00 0.  1.
          1   -1    0    0  501    0  0.00000000000E+00 -0.00000000000E+00 -0.11801347977E+02  0.11801347977E+02  0.00000000000E+00 0. -1.
         23    2    1    2    0    0  0.00000000000E+00  0.00000000000E+00  0.15502091324E+03  0.17862360920E+03  0.88740690890E+02 0.  0.
        -13    1    3    3    0    0 -0.14279356413E+02  0.27081656680E+02  0.12865891266E+02  0.33209144918E+02  0.00000000000E+00 0. -1.
         13    1    3    3    0    0  0.14279356413E+02 -0.27081656680E+02  0.14215502198E+03  0.14541446428E+03  0.00000000000E+00 0.  1.
<mgrwt>
<rscale>  0 0.88740691E+02</rscale>
<asrwt>0</asrwt>
<pdfrwt beam="2">  1        1 0.18155921E-02 0.88740691E+02</pdfrwt>
<pdfrwt beam="1">  1       -1 0.25664962E-01 0.88740691E+02</pdfrwt>
<totfact> 0.78192864E+04</totfact>
</mgrwt>
</event>
<event>
 5    1  0.6043464E+000  0.9135014E+02  0.7546771E-02  0.1299615E+00
         -3   -1    0    0    0  501 -0.00000000000E+00  0.00000000000E+00  0.11609033397E+03  0.11609033397E+03  0.00000000000E+00 0.  1.
          3   -1    0    0  501    0  0.00000000000E+00 -0.00000000000E+00 -0.17970590139E+02  0.17970590139E+02  0.00000000000E+00 0. -1.
         23    2    1    2    0    0  0.00000000000E+00  0.00000000000E+00  0.98119743831E+02  0.13406092411E+03  0.91350135432E+02 0.  0.
        -13    1    3    3    0    0 -0.65278869006E+01  0.44085114511E+02  0.63742798123E+02  0.77776956365E+02  0.00000000000E+00 0.  1.
         13    1    3    3    0    0  0.65278869006E+01 -0.44085114511E+02  0.34376945708E+02  0.56283967744E+02  0.00000000000E+00 0. -1.
<mgrwt>
<rscale>  0 0.91350135E+02</rscale>
<asrwt>0</asrwt>
<pdfrwt beam="2">  1        3 0.27647062E-02 0.91350135E+02</pdfrwt>
<pdfrwt beam="1">  1       -3 0.17860051E-01 0.91350135E+02</pdfrwt>
<totfact> 0.32146024E+04</totfact>
</mgrwt>
</event>
<event>
 5    1  0.6043464E+000  0.9200533E+02  0.7546771E-02  0.1298067E+00
         -3   -1    0    0    0  501 -0.00000000000E+00  0.00000000000E+00  0.12665052725E+03  0.12665052725E+03  0.00000000000E+00 0.  1.
          3   -1    0    0  501    0  0.00000000000E+00 -0.00000000000E+00 -0.16709328054E+02  0.16709328054E+02  0.00000000000E+00 0. -1.
         23    2    1    2    0    0  0.00000000000E+00  0.00000000000E+00  0.10994119919E+03  0.14335985530E+03  0.92005330453E+02 0.  0.
        -13    1    3    3    0    0  0.26212592535E+02  0.27656524476E+02  0.14811476485E+02  0.40882309000E+02  0.00000000000E+00 0. -1.
         13    1    3    3    0    0 -0.26212592535E+02 -0.27656524476E+02  0.95129722707E+02  0.10247754630E+03  0.00000000000E+00 0.  1.
<mgrwt>
<rscale>  0 0.92005330E+02</rscale>
<asrwt>0</asrwt>
<pdfrwt beam="2">  1        3 0.25706659E-02 0.92005330E+02</pdfrwt>
<pdfrwt beam="1">  1       -3 0.19484696E-01 0.92005330E+02</pdfrwt>
<totfact> 0.30949942E+04</totfact>
</mgrwt>
</event>
<event>
 5    1  0.6043464E+000  0.8997539E+02  0.7546771E-02  0.1302911E+00
         -2   -1    0    0    0  501 -0.00000000000E+00  0.00000000000E+00  0.32661504185E+03  0.32661504185E+03  0.00000000000E+00 0.  1.
          2   -1    0    0  501    0  0.00000000000E+00 -0.00000000000E+00 -0.61965694923E+01  0.61965694923E+01  0.00000000000E+00 0. -1.
         23    2    1    2    0    0  0.00000000000E+00  0.00000000000E+00  0.32041847236E+03  0.33281161135E+03  0.89975392282E+02 0.  0.
        -13    1    3    3    0    0  0.35724013128E+02  0.26607630522E+02  0.13689675118E+03  0.14396142400E+03  0.00000000000E+00 0. -1.
         13    1    3    3    0    0 -0.35724013128E+02 -0.26607630522E+02  0.18352172118E+03  0.18885018735E+03  0.00000000000E+00 0.  1.
<mgrwt>
<rscale>  0 0.89975392E+02</rscale>
<asrwt>0</asrwt>
<pdfrwt beam="2">  1        2 0.95331864E-03 0.89975392E+02</pdfrwt>
<pdfrwt beam="1">  1       -2 0.50248455E-01 0.89975392E+02</pdfrwt>
<totfact> 0.50243237E+04</totfact>
</mgrwt>
</event>
<event>
 5    1  0.6043464E+000  0.9157368E+02  0.7546771E-02  0.1299085E+00
          2   -1    0    0  501    0  0.00000000000E+00  0.00000000000E+00  0.10929002017E+03  0.10929002017E+03  0.00000000000E+00 0. -1.
         -2   -1    0    0    0  501 -0.00000000000E+00 -0.00000000000E+00 -0.19182307656E+02  0.19182307656E+02  0.00000000000E+00 0.  1.
         23    2    1    2    0    0  0.00000000000E+00  0.00000000000E+00  0.90107712510E+02  0.12847232782E+03  0.91573681603E+02 0.  0.
        -13    1    3    3    0    0 -0.90492138562E+01 -0.34761631426E+02  0.84887837656E+02  0.92174857053E+02  0.00000000000E+00 0. -1.
         13    1    3    3    0    0  0.90492138562E+01  0.34761631426E+02  0.52198748538E+01  0.36297470770E+02  0.00000000000E+00 0.  1.
<mgrwt>
<rscale>  0 0.91573682E+02</rscale>
<asrwt>0</asrwt>
<pdfrwt beam="1">  1        2 0.16813849E-01 0.91573682E+02</pdfrwt>
<pdfrwt beam="2">  1       -2 0.29511243E-02 0.91573682E+02</pdfrwt>
<totfact> 0.12458749E+05</totfact>
</mgrwt>
</event>
<event>
 5    1  0.6043464E+000  0.8939072E+02  0.7546771E-02  0.1304334E+00
          1   -1    0    0  501    0  0.00000000000E+00  0.00000000000E+00  0.40918982464E+02  0.40918982464E+02  0.00000000000E+00 0. -1.
         -1   -1    0    0    0  501 -0.00000000000E+00 -0.00000000000E+00 -0.48820253947E+02  0.48820253947E+02  0.00000000000E+00 0.  1.
         23    2    1    2    0    0  0.00000000000E+00  0.00000000000E+00 -0.79012714834E+01  0.89739236411E+02  0.89390717977E+02 0.  0.
        -13    1    3    3    0    0 -0.25900120212E+01 -0.34240765760E+02  0.24770993977E+02  0.42340764574E+02  0.00000000000E+00 0. -1.
         13    1    3    3    0    0  0.25900120212E+01  0.34240765760E+02 -0.32672265460E+02  0.47398471836E+02  0.00000000000E+00 0.  1.
<mgrwt>
<rscale>  0 0.89390718E+02</rscale>
<asrwt>0</asrwt>
<pdfrwt beam="1">  1        1 0.62952280E-02 0.89390718E+02</pdfrwt>
<pdfrwt beam="2">  1       -1 0.75108083E-02 0.89390718E+02</pdfrwt>
<totfact> 0.96186235E+04</totfact>
</mgrwt>
</event>
<event>
 5    1  0.6043464E+000  0.9242886E+02  0.7546771E-02  0.1297074E+00
         -2   -1    0    0    0  501 -0.00000000000E+00  0.00000000000E+00  0.90289654569E+02  0.90289654569E+02  0.00000000000E+00 0.  1.
          2   -1    0    0  501    0  0.00000000000E+00 -0.00000000000E+00 -0.23654685068E+02  0.23654685068E+02  0.00000000000E+00 0. -1.
         23    2    1    2    0    0  0.00000000000E+00  0.00000000000E+00  0.66634969501E+02  0.11394433964E+03  0.92428855748E+02 0.  0.
        -13    1    3    3    0    0 -0.29774296562E+02  0.30323769710E+02  0.55702983779E+02  0.70063272455E+02  0.00000000000E+00 0.  1.
         13    1    3    3    0    0  0.29774296562E+02 -0.30323769710E+02  0.10931985722E+02  0.43881067182E+02  0.00000000000E+00 0. -1.
<mgrwt>
<rscale>  0 0.92428856E+02</rscale>
<asrwt>0</asrwt>
<pdfrwt beam="2">  1        2 0.36391824E-02 0.92428856E+02</pdfrwt>
<pdfrwt beam="1">  1       -2 0.13890716E-01 0.92428856E+02</pdfrwt>
<totfact> 0.79497385E+04</totfact>
</mgrwt>
</event>
<event>
 5    1  0.6043464E+000  0.9115285E+02  0.7546771E-02  0.1300084E+00
         -2   -1    0    0    0  501 -0.00000000000E+00  0.00000000000E+00  0.94396992309E+02  0.94396992309E+02  0.00000000000E+00 0.  1.
          2   -1    0    0  501    0  0.00000000000E+00 -0.00000000000E+00 -0.22005052142E+02  0.22005052142E+02  0.00000000000E+00 0. -1.
         23    2    1    2    0    0  0.00000000000E+00  0.00000000000E+00  0.72391940168E+02  0.11640204445E+03  0.91152854871E+02 0.  0.
        -13    1    3    3    0    0  0.26888804792E+01 -0.32505079232E+02  0.76847873650E+02  0.83482967956E+02  0.00000000000E+00 0.  1.
         13    1    3    3    0    0 -0.26888804792E+01  0.32505079232E+02 -0.44559334824E+01  0.32919076495E+02  0.00000000000E+00 0. -1.
<mgrwt>
<rscale>  0 0.91152855E+02</rscale>
<asrwt>0</asrwt>
<pdfrwt beam="2">  1        2 0.33853927E-02 0.91152855E+02</pdfrwt>
<pdfrwt beam="1">  1       -2 0.14522614E-01 0.91152855E+02</pdfrwt>
<totfact> 0.81228915E+04</totfact>
</mgrwt>
</event>
<event>
 5    1  0.6043464E+000  0.9105124E+02  0.7546771E-02  0.1300326E+00
          2   -1    0    0  501    0  0.00000000000E+00  0.00000000000E+00  0.22378825251E+03  0.22378825251E+03  0.00000000000E+00 0. -1.
         -2   -1    0    0    0  501 -0.00000000000E+00 -0.00000000000E+00 -0.92613536703E+01  0.92613536703E+01  0.00000000000E+00 0.  1.
         23    2    1    2    0    0  0.00000000000E+00  0.00000000000E+00  0.21452689884E+03  0.23304960618E+03  0.91051241699E+02 0.  0.
        -13    1    3    3    0    0 -0.41565282140E+02  0.25592645371E+01  0.60181788274E+02  0.73185177148E+02  0.00000000000E+00 0.  1.
         13    1    3    3    0    0  0.41565282140E+02 -0.25592645371E+01  0.15434511056E+03  0.15986442903E+03  0.00000000000E+00 0. -1.
<mgrwt>
<rscale>  0 0.91051242E+02</rscale>
<asrwt>0</asrwt>
<pdfrwt beam="1">  1        2 0.34428958E-01 0.91051242E+02</pdfrwt>
<pdfrwt beam="2">  1       -2 0.14248238E-02 0.91051242E+02</pdfrwt>
<totfact> 0.16174344E+05</totfact>
</mgrwt>
</event>
<event>
 5    1  0.6043464E+000  0.8864171E+02  0.7546771E-02  0.1306175E+00
          3   -1    0    0  501    0  0.00000000000E+00  0.00000000000E+00  0.26180637732E+02  0.26180637732E+02  0.00000000000E+00 0. -1.
         -3   -1    0    0    0  501 -0.00000000000E+00 -0.00000000000E+00 -0.75030191360E+02  0.75030191360E+02  0.00000000000E+00 0.  1.
         23    2    1    2    0    0  0.00000000000E+00  0.00000000000E+00 -0.48849553628E+02  0.10121082909E+03  0.88641711602E+02 0.  0.
        -13    1    3    3    0    0  0.40335860249E+02  0.17593740098E+02 -0.30446815976E+02  0.53511960492E+02  0.00000000000E+00 0.  1.
         13    1    3    3    0    0 -0.40335860249E+02 -0.17593740098E+02 -0.18402737651E+02  0.47698868600E+02  0.00000000000E+00 0. -1.
<mgrwt>
<rscale>  0 0.88641712E+02</rscale>
<asrwt>0</asrwt>
<pdfrwt beam="1">  1        3 0.40277905E-02 0.88641712E+02</pdfrwt>
<pdfrwt beam="2">  1       -3 0.11543106E-01 0.88641712E+02</pdfrwt>
<totfact> 0.37332265E+04</totfact>
</mgrwt>
</event>
<event>
 5    1  0.6043464E+000  0.9131976E+02  0.7546771E-02  0.1299687E+00
          1   -1    0    0  501    0  0.00000000000E+00  0.00000000000E+00  0.12347868907E+02  0.12347868907E+02  0.00000000000E+00 0. -1.
         -1   -1    0    0    0  501 -0.00000000000E+00 -0.00000000000E+00 -0.16884084917E+03  0.16884084917E+03  0.00000000000E+00 0.  1.
         23    2    1    2    0    0  0.00000000000E+00  0.00000000000E+00 -0.15649298026E+03  0.18118871808E+03  0.91319760660E+02 0.  0.
        -13    1    3    3    0    0 -0.39969101808E+02  0.42343391191E+01 -0.12123200922E+03  0.12772101936E+03  0.00000000000E+00 0.  1.
         13    1    3    3    0    0  0.39969101808E+02 -0.42343391191E+01 -0.35260971043E+02  0.53467698716E+02  0.00000000000E+00 0. -1.
<mgrwt>
<rscale>  0 0.91319761E+02</rscale>
<asrwt>0</asrwt>
<pdfrwt beam="1">  1        1 0.18996722E-02 0.91319761E+02</pdfrwt>
<pdfrwt beam="2">  1       -1 0.25975515E-01 0.91319761E+02</pdfrwt>
<totfact> 0.72368903E+04</totfact>
</mgrwt>
</event>
<event>
 5    1  0.6043464E+000  0.9277116E+02  0.7546771E-02  0.1296276E+00
         -3   -1    0    0    0  501 -0.00000000000E+00  0.00000000000E+00  0.12696710235E+03  0.12696710235E+03  0.00000000000E+00 0.  1.
          3   -1    0    0  501    0  0.00000000000E+00 -0.00000000000E+00 -0.16946296468E+02  0.16946296468E+02  0.00000000000E+00 0. -1.
         23    2    1    2    0    0  0.00000000000E+00  0.00000000000E+00  0.11002080588E+03  0.14391339882E+03  0.92771162720E+02 0.  0.
        -13    1    3    3    0    0  0.44054148567E+02  0.70840557396E+01  0.74673686465E+02  0.86989144737E+02  0.00000000000E+00 0.  1.
         13    1    3    3    0    0 -0.44054148567E+02 -0.70840557396E+01  0.35347119420E+02  0.56924254084E+02  0.00000000000E+00 0. -1.
<mgrwt>
<rscale>  0 0.92771163E+02</rscale>
<asrwt>0</asrwt>
<pdfrwt beam="2">  1        3 0.26071226E-02 0.92771163E+02</pdfrwt>
<pdfrwt beam="1">  1       -3 0.19533400E-01 0.92771163E+02</pdfrwt>
<totfact> 0.30227456E+04</totfact>
</mgrwt>
</event>
<event>
 5    1  0.6043464E+000  0.9146239E+02  0.7546771E-02  0.1299348E+00
         -2   -1    0    0    0  501 -0.00000000000E+00  0.00000000000E+00  0.36421152693E+02  0.36421152693E+02  0.00000000000E+00 0.  1.
          2   -1    0    0  501    0  0.00000000000E+00 -0.00000000000E+00 -0.57421092579E+02  0.57421092579E+02  0.00000000000E+00 0. -1.
         23    2    1    2    0    0  0.00000000000E+00  0.00000000000E+00 -0.20999939886E+02  0.93842245272E+02  0.91462394035E+02 0.  0.
        -13    1    3    3    0    0  0.43542894646E+02  0.65244457428E+01 -0.23182436837E+02  0.49759194569E+02  0.00000000000E+00 0.  1.
         13    1    3    3    0    0 -0.43542894646E+02 -0.65244457428E+01  0.21824969512E+01  0.44083050704E+02  0.00000000000E+00 0. -1.
<mgrwt>
<rscale>  0 0.91462394E+02</rscale>
<asrwt>0</asrwt>
<pdfrwt beam="2">  1        2 0.88340142E-02 0.91462394E+02</pdfrwt>
<pdfrwt beam="1">  1       -2 0.56032543E-02 0.91462394E+02</pdfrwt>
<totfact> 0.10390728E+05</totfact>
</mgrwt>
</event>
<event>
 5    1  0.6043464E+000  0.8916002E+02  0.7546771E-02  0.1304899E+00
          1   -1    0    0  501    0  0.00000000000E+00  0.00000000000E+00  0.74715549270E+01  0.74715549270E+01  0.00000000000E+00 0. -1.
         -1   -1    0    0    0  501 -0.00000000000E+00 -0.00000000000E+00 -0.26599248375E+03  0.26599248375E+03  0.00000000000E+00 0.  1.
         23    2    1    2    0    0  0.00000000000E+00  0.00000000000E+00 -0.25852092883E+03  0.27346403868E+03  0.89160023610E+02 0.  0.
        -13    1    3    3    0    0 -0.29516711273E+02  0.33404122148E+02 -0.12756428695E+03  0.13512852743E+03  0.00000000000E+00 0.  1.
         13    1    3    3    0    0  0.29516711273E+02 -0.33404122148E+02 -0.13095664188E+03  0.13833551125E+03  0.00000000000E+00 0. -1.
<mgrwt>
<rscale>  0 0.89160024E+02</rscale>
<asrwt>0</asrwt>
<pdfrwt beam="1">  1        1 0.11494698E-02 0.89160024E+02</pdfrwt>
<pdfrwt beam="2">  1       -1 0.40921926E-01 0.89160024E+02</pdfrwt>
<totfact> 0.67191765E+04</totfact>
</mgrwt>
</event>
<event>
 5    1  0.6043464E+000  0.9174931E+02  0.7546771E-02  0.1298670E+00
         -1   -1    0    0    0  501 -0.00000000000E+00  0.00000000000E+00  0.26446148266E+03  0.26446148266E+03  0.00000000000E+00 0.  1.
          1   -1    0    0  501    0  0.00000000000E+00 -0.00000000000E+00 -0.79576192689E+01  0.79576192689E+01  0.00000000000E+00 0. -1.
         23    2    1    2    0    0  0.00000000000E+00  0.00000000000E+00  0.25650386339E+03  0.27241910193E+03  0.91749306053E+02 0.  0.
        -13    1    3    3    0    0 -0.43205493103E+02 -0.15460081943E+01  0.82698758077E+02  0.93317679799E+02  0.00000000000E+00 0. -1.
         13    1    3    3    0    0  0.43205493103E+02  0.15460081943E+01  0.17380510532E+03  0.17910142213E+03  0.00000000000E+00 0.  1.
<mgrwt>
<rscale>  0 0.91749306E+02</rscale>
<asrwt>0</asrwt>
<pdfrwt beam="2">  1        1 0.12242493E-02 0.91749306E+02</pdfrwt>
<pdfrwt beam="1">  1       -1 0.40686375E-01 0.91749306E+02</pdfrwt>
<totfact> 0.62482000E+04</totfact>
</mgrwt>
</event>
<event>
 5    1  0.6043464E+000  0.9179028E+02  0.7546771E-02  0.1298573E+00
         -4   -1    0    0    0  501 -0.00000000000E+00  0.00000000000E+00  0.13832612307E+03  0.13832612307E+03  0.00000000000E+00 0.  1.
          4   -1    0    0  501    0  0.00000000000E+00 -0.00000000000E+00 -0.15227520401E+02  0.15227520401E+02  0.00000000000E+00 0. -1.
         23    2    1    2    0    0  0.00000000000E+00  0.00000000000E+00  0.12309860267E+03  0.15355364347E+03  0.91790279683E+02 0.  0.
        -13    1    3    3    0    0 -0.42696210006E+02 -0.38832388137E+01  0.88951683012E+02  0.98744355804E+02  0.00000000000E+00 0.  1.
         13    1    3    3    0    0  0.42696210006E+02  0.38832388137E+01  0.34146919660E+02  0.54809287669E+02  0.00000000000E+00 0. -1.
<mgrwt>
<rscale>  0 0.91790280E+02</rscale>
<asrwt>0</asrwt>
<pdfrwt beam="2">  1        4 0.23426955E-02 0.91790280E+02</pdfrwt>
<pdfrwt beam="1">  1       -4 0.21280941E-01 0.91790280E+02</pdfrwt>
<totfact> 0.23075054E+04</totfact>
</mgrwt>
</event>
<event>
 5    1  0.6043464E+000  0.8316704E+02  0.7546771E-02  0.1320297E+00
          2   -1    0    0  501    0  0.00000000000E+00  0.00000000000E+00  0.14055279148E+02  0.14055279148E+02  0.00000000000E+00 0.  1.
         -2   -1    0    0    0  501 -0.00000000000E+00 -0.00000000000E+00 -0.12302773160E+03  0.12302773160E+03  0.00000000000E+00 0. -1.
         23    2    1    2    0    0  0.00000000000E+00  0.00000000000E+00 -0.10897245245E+03  0.13708301075E+03  0.83167039399E+02 0.  0.
        -13    1    3    3    0    0  0.35263257774E+02  0.15646699226E+02 -0.28904722978E+02  0.48205804173E+02  0.00000000000E+00 0.  1.
         13    1    3    3    0    0 -0.35263257774E+02 -0.15646699226E+02 -0.80067729475E+02  0.88877206577E+02  0.00000000000E+00 0. -1.
<mgrwt>
<rscale>  0 0.83167039E+02</rscale>
<asrwt>0</asrwt>
<pdfrwt beam="1">  1        2 0.21623507E-02 0.83167039E+02</pdfrwt>
<pdfrwt beam="2">  1       -2 0.18927343E-01 0.83167039E+02</pdfrwt>
<totfact> 0.94230407E+04</totfact>
</mgrwt>
</event>
<event>
 5    1  0.6043464E+000  0.9232612E+02  0.7546771E-02  0.1297314E+00
          2   -1    0    0  501    0  0.00000000000E+00  0.00000000000E+00  0.21241585848E+02  0.21241585848E+02  0.00000000000E+00 0.  1.
         -2   -1    0    0    0  501 -0.00000000000E+00 -0.00000000000E+00 -0.10032339329E+03  0.10032339329E+03  0.00000000000E+00 0. -1.
         23    2    1    2    0    0  0.00000000000E+00  0.00000000000E+00 -0.79081807438E+02  0.12156497913E+03  0.92326117021E+02 0.  0.
        -13    1    3    3    0    0  0.15042954101E+02  0.40500811023E+02 -0.60951686505E+02  0.74710871026E+02  0.00000000000E+00 0.  1.
         13    1    3    3    0    0 -0.15042954101E+02 -0.40500811023E+02 -0.18130120933E+02  0.46854108109E+02  0.00000000000E+00 0. -1.
<mgrwt>
<rscale>  0 0.92326117E+02</rscale>
<asrwt>0</asrwt>
<pdfrwt beam="1">  1        2 0.32679362E-02 0.92326117E+02</pdfrwt>
<pdfrwt beam="2">  1       -2 0.15434368E-01 0.92326117E+02</pdfrwt>
<totfact> 0.77280020E+04</totfact>
</mgrwt>
</event>
<event>
 5    1  0.6043464E+000  0.9294682E+02  0.7546771E-02  0.1295868E+00
          3   -1    0    0  501    0  0.00000000000E+00  0.00000000000E+00  0.63029727675E+02  0.63029727675E+02  0.00000000000E+00 0. -1.
         -3   -1    0    0    0  501 -0.00000000000E+00 -0.00000000000E+00 -0.34266017343E+02  0.34266017343E+02  0.00000000000E+00 0.  1.
         23    2    1    2    0    0  0.00000000000E+00  0.00000000000E+00  0.28763710332E+02  0.97295745018E+02  0.92946817947E+02 0.  0.
        -13    1    3    3    0    0  0.71316466544E+01 -0.43955806386E+02  0.28300787016E+02  0.52762750542E+02  0.00000000000E+00 0. -1.
         13    1    3    3    0    0 -0.71316466544E+01  0.43955806386E+02  0.46292331623E+00  0.44532994476E+02  0.00000000000E+00 0.  1.
<mgrwt>
<rscale>  0 0.92946818E+02</rscale>
<asrwt>0</asrwt>
<pdfrwt beam="1">  1        3 0.96968811E-02 0.92946818E+02</pdfrwt>
<pdfrwt beam="2">  1       -3 0.52716950E-02 0.92946818E+02</pdfrwt>
<totfact> 0.33089767E+04</totfact>
</mgrwt>
</event>
<event>
 5    1  0.6043464E+000  0.9099960E+02  0.7546771E-02  0.1300449E+00
          1   -1    0    0  501    0  0.00000000000E+00  0.00000000000E+00  0.42906580411E+02  0.42906580411E+02  0.00000000000E+00 0. -1.
         -1   -1    0    0    0  501 -0.00000000000E+00 -0.00000000000E+00 -0.48249754464E+02  0.48249754464E+02  0.00000000000E+00 0.  1.
         23    2    1    2    0    0  0.00000000000E+00  0.00000000000E+00 -0.53431740527E+01  0.91156334875E+02  0.90999603729E+02 0.  0.
        -13    1    3    3    0    0  0.18049814196E+02 -0.26991699220E+02 -0.34599423402E+02  0.47449633498E+02  0.00000000000E+00 0.  1.
         13    1    3    3    0    0 -0.18049814196E+02  0.26991699220E+02  0.29256249349E+02  0.43706701377E+02  0.00000000000E+00 0. -1.
<mgrwt>
<rscale>  0 0.90999604E+02</rscale>
<asrwt>0</asrwt>
<pdfrwt beam="1">  1        1 0.66010124E-02 0.90999604E+02</pdfrwt>
<pdfrwt beam="2">  1       -1 0.74230391E-02 0.90999604E+02</pdfrwt>
<totfact> 0.92135254E+04</totfact>
</mgrwt>
</event>
<event>
 5    1  0.6043464E+000  0.9312327E+02  0.7546771E-02  0.1295460E+00
         -2   -1    0    0    0  501 -0.00000000000E+00  0.00000000000E+00  0.64513577128E+02  0.64513577128E+02  0.00000000000E+00 0.  1.
          2   -1    0    0  501    0  0.00000000000E+00 -0.00000000000E+00 -0.33605112083E+02  0.33605112083E+02  0.00000000000E+00 0. -1.
         23    2    1    2    0    0  0.00000000000E+00  0.00000000000E+00  0.30908465045E+02  0.98118689211E+02  0.93123272929E+02 0.  0.
        -13    1    3    3    0    0  0.34038044481E+02 -0.17058015430E+01  0.48881259747E+02  0.59589225415E+02  0.00000000000E+00 0.  1.
         13    1    3    3    0    0 -0.34038044481E+02  0.17058015430E+01 -0.17972794702E+02  0.38529463796E+02  0.00000000000E+00 0. -1.
<mgrwt>
<rscale>  0 0.93123273E+02</rscale>
<asrwt>0</asrwt>
<pdfrwt beam="2">  1        2 0.51700173E-02 0.93123273E+02</pdfrwt>
<pdfrwt beam="1">  1       -2 0.99251657E-02 0.93123273E+02</pdfrwt>
<totfact> 0.85657882E+04</totfact>
</mgrwt>
</event>
<event>
 5    1  0.6043464E+000  0.9107871E+02  0.7546771E-02  0.1300260E+00
         -2   -1    0    0    0  501 -0.00000000000E+00  0.00000000000E+00  0.13183103962E+02  0.13183103962E+02  0.00000000000E+00 0.  1.
          2   -1    0    0  501    0  0.00000000000E+00 -0.00000000000E+00 -0.15730992114E+03  0.15730992114E+03  0.00000000000E+00 0. -1.
         23    2    1    2    0    0  0.00000000000E+00  0.00000000000E+00 -0.14412681718E+03  0.17049302510E+03  0.91078714191E+02 0.  0.
        -13    1    3    3    0    0 -0.30523107450E+00  0.37174980579E+02 -0.22829119905E+02  0.43626151133E+02  0.00000000000E+00 0.  1.
         13    1    3    3    0    0  0.30523107450E+00 -0.37174980579E+02 -0.12129769727E+03  0.12686687397E+03  0.00000000000E+00 0. -1.
<mgrwt>
<rscale>  0 0.91078714E+02</rscale>
<asrwt>0</asrwt>
<pdfrwt beam="2">  1        2 0.24201527E-01 0.91078714E+02</pdfrwt>
<pdfrwt beam="1">  1       -2 0.20281698E-02 0.91078714E+02</pdfrwt>
<totfact> 0.14251945E+05</totfact>
</mgrwt>
</event>
<event>
 5    1  0.6043464E+000  0.9062247E+02  0.7546771E-02  0.1301351E+00
          1   -1    0    0  501    0  0.00000000000E+00  0.00000000000E+00  0.10567578919E+03  0.10567578919E+03  0.00000000000E+00 0. -1.
         -1   -1    0    0    0  501 -0.00000000000E+00 -0.00000000000E+00 -0.19428366616E+02  0.19428366616E+02  0.00000000000E+00 0.  1.
         23    2    1    2    0    0  0.00000000000E+00  0.00000000000E+00  0.86247422575E+02  0.12510415581E+03  0.90622469064E+02 0.  0.
        -13    1    3    3    0    0 -0.85219210798E+01  0.39664350285E+02  0.15265539634E+02  0.43346516847E+02  0.00000000000E+00 0.  1.
         13    1    3    3    0    0  0.85219210798E+01 -0.39664350285E+02  0.70981882941E+02  0.81757638960E+02  0.00000000000E+00 0. -1.
<mgrwt>
<rscale>  0 0.90622469E+02</rscale>
<asrwt>0</asrwt>
<pdfrwt beam="1">  1        1 0.16257813E-01 0.90622469E+02</pdfrwt>
<pdfrwt beam="2">  1       -1 0.29889795E-02 0.90622469E+02</pdfrwt>
<totfact> 0.10718443E+05</totfact>
</mgrwt>
</event>
<event>
 5    1  0.6043464E+000  0.9350804E+02  0.7546771E-02  0.1294572E+00
         -3   -1    0    0    0  501 -0.00000000000E+00  0.00000000000E+00  0.11892501001E+02  0.11892501001E+02  0.00000000000E+00 0.  1.
          3   -1    0    0  501    0  0.00000000000E+00 -0.00000000000E+00 -0.18380814464E+03  0.18380814464E+03  0.00000000000E+00 0. -1.
         23    2    1    2    0    0  0.00000000000E+00  0.00000000000E+00 -0.17191564364E+03  0.19570064564E+03  0.93508043379E+02 0.  0.
        -13    1    3    3    0    0 -0.24937336263E+02  0.26612074411E+02 -0.24730396374E+02  0.44064336477E+02  0.00000000000E+00 0.  1.
         13    1    3    3    0    0  0.24937336263E+02 -0.26612074411E+02 -0.14718524727E+03  0.15163630916E+03  0.00000000000E+00 0. -1.
<mgrwt>
<rscale>  0 0.93508043E+02</rscale>
<asrwt>0</asrwt>
<pdfrwt beam="2">  1        3 0.28278177E-01 0.93508043E+02</pdfrwt>
<pdfrwt beam="1">  1       -3 0.18296155E-02 0.93508043E+02</pdfrwt>
<totfact> 0.26825403E+04</totfact>
</mgrwt>
</event>
<event>
 5    1  0.6043464E+000  0.8770131E+02  0.7546771E-02  0.1308516E+00
         -2   -1    0    0    0  501 -0.00000000000E+00  0.00000000000E+00  0.26542738604E+03  0.26542738604E+03  0.00000000000E+00 0.  1.
          2   -1    0    0  501    0  0.00000000000E+00 -0.00000000000E+00 -0.72444677922E+01  0.72444677922E+01  0.00000000000E+00 0. -1.
         23    2    1    2    0    0  0.00000000000E+00  0.00000000000E+00  0.25818291825E+03  0.27267185383E+03  0.87701314684E+02 0.  0.
        -13    1    3    3    0    0  0.31302634731E+02  0.30621281187E+02  0.12189180468E+03  0.12951883975E+03  0.00000000000E+00 0.  1.
         13    1    3    3    0    0 -0.31302634731E+02 -0.30621281187E+02  0.13629111357E+03  0.14315301408E+03  0.00000000000E+00 0. -1.
<mgrwt>
<rscale>  0 0.87701315E+02</rscale>
<asrwt>0</asrwt>
<pdfrwt beam="2">  1        2 0.11145337E-02 0.87701315E+02</pdfrwt>
<pdfrwt beam="1">  1       -2 0.40834975E-01 0.87701315E+02</pdfrwt>
<totfact> 0.60204038E+04</totfact>
</mgrwt>
</event>
<event>
 5    1  0.6043464E+000  0.9441346E+02  0.7546771E-02  0.1292503E+00
         -3   -1    0    0    0  501 -0.00000000000E+00  0.00000000000E+00  0.63004990821E+02  0.63004990821E+02  0.00000000000E+00 0.  1.
          3   -1    0    0  501    0  0.00000000000E+00 -0.00000000000E+00 -0.35369820265E+02  0.35369820265E+02  0.00000000000E+00 0. -1.
         23    2    1    2    0    0  0.00000000000E+00  0.00000000000E+00  0.27635170556E+02  0.98374811086E+02  0.94413456692E+02 0.  0.
        -13    1    3    3    0    0  0.43511138372E+02 -0.17157076732E+02  0.71546961494E+01  0.47315685786E+02  0.00000000000E+00 0.  1.
         13    1    3    3    0    0 -0.43511138372E+02  0.17157076732E+02  0.20480474407E+02  0.51059125300E+02  0.00000000000E+00 0. -1.
<mgrwt>
<rscale>  0 0.94413457E+02</rscale>
<asrwt>0</asrwt>
<pdfrwt beam="2">  1        3 0.54415108E-02 0.94413457E+02</pdfrwt>
<pdfrwt beam="1">  1       -3 0.96930755E-02 0.94413457E+02</pdfrwt>
<totfact> 0.31630548E+04</totfact>
</mgrwt>
</event>
<event>
 5    1  0.6043464E+000  0.9195976E+02  0.7546771E-02  0.1298174E+00
          2   -1    0    0  501    0  0.00000000000E+00  0.00000000000E+00  0.17003777917E+03  0.17003777917E+03  0.00000000000E+00 0. -1.
         -2   -1    0    0    0  501 -0.00000000000E+00 -0.00000000000E+00 -0.12433409471E+02  0.12433409471E+02  0.00000000000E+00 0.  1.
         23    2    1    2    0    0  0.00000000000E+00  0.00000000000E+00  0.15760436970E+03  0.18247118864E+03  0.91959759329E+02 0.  0.
        -13    1    3    3    0    0 -0.12067587890E+02 -0.44362522509E+02  0.77414268528E+02  0.90036820538E+02  0.00000000000E+00 0.  1.
         13    1    3    3    0    0  0.12067587890E+02  0.44362522509E+02  0.80190101176E+02  0.92434368107E+02  0.00000000000E+00 0. -1.
<mgrwt>
<rscale>  0 0.91959759E+02</rscale>
<asrwt>0</asrwt>
<pdfrwt beam="1">  1        2 0.26159657E-01 0.91959759E+02</pdfrwt>
<pdfrwt beam="2">  1       -2 0.19128324E-02 0.91959759E+02</pdfrwt>
<totfact> 0.14264892E+05</totfact>
</mgrwt>
</event>
<event>
 5    1  0.6043464E+000  0.9093129E+02  0.7546771E-02  0.1300612E+00
          2   -1    0    0  501    0  0.00000000000E+00  0.00000000000E+00  0.34523618823E+02  0.34523618823E+02  0.00000000000E+00 0. -1.
         -2   -1    0    0    0  501 -0.00000000000E+00 -0.00000000000E+00 -0.59875675176E+02  0.59875675176E+02  0.00000000000E+00 0.  1.
         23    2    1    2    0    0  0.00000000000E+00  0.00000000000E+00 -0.25352056353E+02  0.94399293999E+02  0.90931292448E+02 0.  0.
        -13    1    3    3    0    0 -0.24651577785E+02  0.70579450482E+01 -0.51652711937E+02  0.57667300319E+02  0.00000000000E+00 0.  1.
         13    1    3    3    0    0  0.24651577785E+02 -0.70579450482E+01  0.26300655584E+02  0.36731993681E+02  0.00000000000E+00 0. -1.
<mgrwt>
<rscale>  0 0.90931292E+02</rscale>
<asrwt>0</asrwt>
<pdfrwt beam="1">  1        2 0.53113260E-02 0.90931292E+02</pdfrwt>
<pdfrwt beam="2">  1       -2 0.92116423E-02 0.90931292E+02</pdfrwt>
<totfact> 0.92536766E+04</totfact>
</mgrwt>
</event>
<event>
 5    1  0.6043464E+000  0.9126805E+02  0.7546771E-02  0.1299810E+00
          4   -1    0    0  501    0  0.00000000000E+00  0.00000000000E+00  0.35123527824E+02  0.35123527824E+02  0.00000000000E+00 0. -1.
         -4   -1    0    0    0  501 -0.00000000000E+00 -0.00000000000E+00 -0.59289725279E+02  0.59289725279E+02  0.00000000000E+00 0.  1.
         23    2    1    2    0    0  0.00000000000E+00  0.00000000000E+00 -0.24166197455E+02  0.94413253104E+02  0.91268051706E+02 0.  0.
        -13    1    3    3    0    0  0.28625209136E+02  0.13514494932E+02 -0.46085572840E+02  0.55909965080E+02  0.00000000000E+00 0.  1.
         13    1    3    3    0    0 -0.28625209136E+02 -0.13514494932E+02  0.21919375385E+02  0.38503288023E+02  0.00000000000E+00 0. -1.
<mgrwt>
<rscale>  0 0.91268052E+02</rscale>
<asrwt>0</asrwt>
<pdfrwt beam="1">  1        4 0.54036197E-02 0.91268052E+02</pdfrwt>
<pdfrwt beam="2">  1       -4 0.91214962E-02 0.91268052E+02</pdfrwt>
<totfact> 0.26736439E+04</totfact>
</mgrwt>
</event>
<event>
 5    1  0.6043464E+000  0.8935533E+02  0.7546771E-02  0.1304420E+00
         -1   -1    0    0    0  501 -0.00000000000E+00  0.00000000000E+00  0.61161930899E+02  0.61161930899E+02  0.00000000000E+00 0.  1.
          1   -1    0    0  501    0  0.00000000000E+00 -0.00000000000E+00 -0.32636213856E+02  0.32636213856E+02  0.00000000000E+00 0. -1.
         23    2    1    2    0    0  0.00000000000E+00  0.00000000000E+00  0.28525717043E+02  0.93798144756E+02  0.89355332392E+02 0.  0.
        -13    1    3    3    0    0 -0.42447901677E+02 -0.13929315433E+02  0.14781033131E+02  0.47056658675E+02  0.00000000000E+00 0. -1.
         13    1    3    3    0    0  0.42447901677E+02  0.13929315433E+02  0.13744683912E+02  0.46741486081E+02  0.00000000000E+00 0.  1.
<mgrwt>
<rscale>  0 0.89355332E+02</rscale>
<asrwt>0</asrwt>
<pdfrwt beam="2">  1        1 0.50209560E-02 0.89355332E+02</pdfrwt>
<pdfrwt beam="1">  1       -1 0.94095278E-02 0.89355332E+02</pdfrwt>
<totfact> 0.93055668E+04</totfact>
</mgrwt>
</event>
<event>
 5    1  0.6043464E+000  0.8784804E+02  0.7546771E-02  0.1308148E+00
          2   -1    0    0  501    0  0.00000000000E+00  0.00000000000E+00  0.15058172188E+03  0.15058172188E+03  0.00000000000E+00 0.  1.
         -2   -1    0    0    0  501 -0.00000000000E+00 -0.00000000000E+00 -0.12812441604E+02  0.12812441604E+02  0.00000000000E+00 0. -1.
         23    2    1    2    0    0  0.00000000000E+00  0.00000000000E+00  0.13776928027E+03  0.16339416348E+03  0.87848039664E+02 0.  0.
        -13    1    3    3    0    0 -0.14898010897E+02  0.24133128546E+02  0.65006458735E+01  0.29096683984E+02  0.00000000000E+00 0. -1.
         13    1    3    3    0    0  0.14898010897E+02 -0.24133128546E+02  0.13126863440E+03  0.13429747950E+03  0.00000000000E+00 0.  1.
<mgrwt>
<rscale>  0 0.87848040E+02</rscale>
<asrwt>0</asrwt>
<pdfrwt beam="1">  1        2 0.23166418E-01 0.87848040E+02</pdfrwt>
<pdfrwt beam="2">  1       -2 0.19711450E-02 0.87848040E+02</pdfrwt>
<totfact> 0.15481284E+05</totfact>
</mgrwt>
</event>
<event>
 5    1  0.6043464E+000  0.8989398E+02  0.7546771E-02  0.1303109E+00
         -1   -1    0    0    0  501 -0.00000000000E+00  0.00000000000E+00  0.76312833045E+02  0.76312833045E+02  0.00000000000E+00 0.  1.
          1   -1    0    0  501    0  0.00000000000E+00 -0.00000000000E+00 -0.26473027916E+02  0.26473027916E+02  0.00000000000E+00 0. -1.
         23    2    1    2    0    0  0.00000000000E+00  0.00000000000E+00  0.49839805130E+02  0.10278586096E+03  0.89893976651E+02 0.  0.
        -13    1    3    3    0    0  0.10365137527E+02  0.37756162792E+02  0.50159746552E+02  0.63631470821E+02  0.00000000000E+00 0.  1.
         13    1    3    3    0    0 -0.10365137527E+02 -0.37756162792E+02 -0.31994142211E+00  0.39154390140E+02  0.00000000000E+00 0. -1.
<mgrwt>
<rscale>  0 0.89893977E+02</rscale>
<asrwt>0</asrwt>
<pdfrwt beam="2">  1        1 0.40727736E-02 0.89893977E+02</pdfrwt>
<pdfrwt beam="1">  1       -1 0.11740436E-01 0.89893977E+02</pdfrwt>
<totfact> 0.88467034E+04</totfact>
</mgrwt>
</event>
<event>
 5    1  0.6043464E+000  0.9082209E+02  0.7546771E-02  0.1300873E+00
          1   -1    0    0  501    0  0.00000000000E+00  0.00000000000E+00  0.40994398215E+02  0.40994398215E+02  0.00000000000E+00 0. -1.
         -1   -1    0    0    0  501 -0.00000000000E+00 -0.00000000000E+00 -0.50303529150E+02  0.50303529150E+02  0.00000000000E+00 0.  1.
         23    2    1    2    0    0  0.00000000000E+00  0.00000000000E+00 -0.93091309353E+01  0.91297927365E+02  0.90822087745E+02 0.  0.
        -13    1    3    3    0    0 -0.53758493147E+01  0.29229460748E+02 -0.39169594902E+02  0.49168265133E+02  0.00000000000E+00 0.  1.
         13    1    3    3    0    0  0.53758493147E+01 -0.29229460748E+02  0.29860463966E+02  0.42129662232E+02  0.00000000000E+00 0. -1.
<mgrwt>
<rscale>  0 0.90822088E+02</rscale>
<asrwt>0</asrwt>
<pdfrwt beam="1">  1        1 0.63068305E-02 0.90822088E+02</pdfrwt>
<pdfrwt beam="2">  1       -1 0.77390045E-02 0.90822088E+02</pdfrwt>
<totfact> 0.92008089E+04</totfact>
</mgrwt>
</event>
<event>
 5    1  0.6043464E+000  0.9082037E+02  0.7546771E-02  0.1300877E+00
         -1   -1    0    0    0  501 -0.00000000000E+00  0.00000000000E+00  0.48056378155E+02  0.48056378155E+02  0.00000000000E+00 0.  1.
          1   -1    0    0  501    0  0.00000000000E+00 -0.00000000000E+00 -0.42909705905E+02  0.42909705905E+02  0.00000000000E+00 0. -1.
         23    2    1    2    0    0  0.00000000000E+00  0.00000000000E+00  0.51466722497E+01  0.90966084059E+02  0.90820373341E+02 0.  0.
        -13    1    3    3    0    0  0.21241426156E+02 -0.34221208456E+01  0.42627193080E+02  0.47749206130E+02  0.00000000000E+00 0.  1.
         13    1    3    3    0    0 -0.21241426156E+02  0.34221208456E+01 -0.37480520830E+02  0.43216877929E+02  0.00000000000E+00 0. -1.
<mgrwt>
<rscale>  0 0.90820373E+02</rscale>
<asrwt>0</asrwt>
<pdfrwt beam="2">  1        1 0.66014932E-02 0.90820373E+02</pdfrwt>
<pdfrwt beam="1">  1       -1 0.73932890E-02 0.90820373E+02</pdfrwt>
<totfact> 0.92648232E+04</totfact>
</mgrwt>
</event>
<event>
 5    1  0.6043464E+000  0.9005544E+02  0.7546771E-02  0.1302717E+00
          1   -1    0    0  501    0  0.00000000000E+00  0.00000000000E+00  0.95870116090E+02  0.95870116090E+02  0.00000000000E+00 0. -1.
         -1   -1    0    0    0  501 -0.00000000000E+00 -0.00000000000E+00 -0.21148360673E+02  0.21148360673E+02  0.00000000000E+00 0.  1.
         23    2    1    2    0    0  0.00000000000E+00  0.00000000000E+00  0.74721755417E+02  0.11701847676E+03  0.90055444983E+02 0.  0.
        -13    1    3    3    0    0 -0.25706622192E+02 -0.36016583738E+02  0.26530429253E+02  0.51593491886E+02  0.00000000000E+00 0.  1.
         13    1    3    3    0    0  0.25706622192E+02  0.36016583738E+02  0.48191326164E+02  0.65424984877E+02  0.00000000000E+00 0. -1.
<mgrwt>
<rscale>  0 0.90055445E+02</rscale>
<asrwt>0</asrwt>
<pdfrwt beam="1">  1        1 0.14749248E-01 0.90055445E+02</pdfrwt>
<pdfrwt beam="2">  1       -1 0.32535940E-02 0.90055445E+02</pdfrwt>
<totfact> 0.10728344E+05</totfact>
</mgrwt>
</event>
<event>
 5    1  0.6043464E+000  0.8885094E+02  0.7546771E-02  0.1305658E+00
         -2   -1    0    0    0  501 -0.00000000000E+00  0.00000000000E+00  0.12431799168E+02  0.12431799168E+02  0.00000000000E+00 0.  1.
          2   -1    0    0  501    0  0.00000000000E+00 -0.00000000000E+00 -0.15875598163E+03  0.15875598163E+03  0.00000000000E+00 0. -1.
         23    2    1    2    0    0  0.00000000000E+00  0.00000000000E+00 -0.14632418246E+03  0.17118778080E+03  0.88850942152E+02 0.  0.
        -13    1    3    3    0    0 -0.34358450779E+02  0.26786126820E+02 -0.56407379541E+02  0.71272660934E+02  0.00000000000E+00 0. -1.
         13    1    3    3    0    0  0.34358450779E+02 -0.26786126820E+02 -0.89916802921E+02  0.99915119864E+02  0.00000000000E+00 0.  1.
<mgrwt>
<rscale>  0 0.88850942E+02</rscale>
<asrwt>0</asrwt>
<pdfrwt beam="2">  1        2 0.24423996E-01 0.88850942E+02</pdfrwt>
<pdfrwt beam="1">  1       -2 0.19125846E-02 0.88850942E+02</pdfrwt>
<totfact> 0.15286465E+05</totfact>
</mgrwt>
</event>
<event>
 5    1  0.6043464E+000  0.9131203E+02  0.7546771E-02  0.1299705E+00
         -4   -1    0    0    0  501 -0.00000000000E+00  0.00000000000E+00  0.10201386955E+03  0.10201386955E+03  0.00000000000E+00 0.  1.
          4   -1    0    0  501    0  0.00000000000E+00 -0.00000000000E+00 -0.20433218248E+02  0.20433218248E+02  0.00000000000E+00 0. -1.
         23    2    1    2    0    0  0.00000000000E+00  0.00000000000E+00  0.81580651304E+02  0.12244708780E+03  0.91312029019E+02 0.  0.
        -13    1    3    3    0    0 -0.79460350845E+00 -0.34641655380E+02  0.80655757955E+02  0.87783979025E+02  0.00000000000E+00 0.  1.
         13    1    3    3    0    0  0.79460350845E+00  0.34641655380E+02  0.92489334912E+00  0.34663108775E+02  0.00000000000E+00 0. -1.
<mgrwt>
<rscale>  0 0.91312029E+02</rscale>
<asrwt>0</asrwt>
<pdfrwt beam="2">  1        4 0.31435721E-02 0.91312029E+02</pdfrwt>
<pdfrwt beam="1">  1       -4 0.15694441E-01 0.91312029E+02</pdfrwt>
<totfact> 0.25034121E+04</totfact>
</mgrwt>
</event>
<event>
 5    1  0.6043464E+000  0.8842917E+02  0.7546771E-02  0.1306701E+00
          4   -1    0    0  501    0  0.00000000000E+00  0.00000000000E+00  0.11323478668E+03  0.11323478668E+03  0.00000000000E+00 0. -1.
         -4   -1    0    0    0  501 -0.00000000000E+00 -0.00000000000E+00 -0.17264388394E+02  0.17264388394E+02  0.00000000000E+00 0.  1.
         23    2    1    2    0    0  0.00000000000E+00  0.00000000000E+00  0.95970398286E+02  0.13049917507E+03  0.88429165707E+02 0.  0.
        -13    1    3    3    0    0 -0.93768623605E+01  0.40044369268E+02  0.71938381386E+02  0.82864997280E+02  0.00000000000E+00 0. -1.
         13    1    3    3    0    0  0.93768623605E+01 -0.40044369268E+02  0.24032016900E+02  0.47634177794E+02  0.00000000000E+00 0.  1.
<mgrwt>
<rscale>  0 0.88429166E+02</rscale>
<asrwt>0</asrwt>
<pdfrwt beam="1">  1        4 0.17420736E-01 0.88429166E+02</pdfrwt>
<pdfrwt beam="2">  1       -4 0.26560598E-02 0.88429166E+02</pdfrwt>
<totfact> 0.26806462E+04</totfact>
</mgrwt>
</event>
<event>
 5    1  0.6043464E+000  0.8740718E+02  0.7546771E-02  0.1309255E+00
          2   -1    0    0  501    0  0.00000000000E+00  0.00000000000E+00  0.10224386311E+03  0.10224386311E+03  0.00000000000E+00 0. -1.
         -2   -1    0    0    0  501 -0.00000000000E+00 -0.00000000000E+00 -0.18680863907E+02  0.18680863907E+02  0.00000000000E+00 0.  1.
         23    2    1    2    0    0  0.00000000000E+00  0.00000000000E+00  0.83562999208E+02  0.12092472702E+03  0.87407178015E+02 0.  0.
        -13    1    3    3    0    0 -0.36702984450E+01  0.37312121616E+02  0.72850618776E+02  0.81932155874E+02  0.00000000000E+00 0.  1.
         13    1    3    3    0    0  0.36702984450E+01 -0.37312121616E+02  0.10712380433E+02  0.38992571148E+02  0.00000000000E+00 0. -1.
<mgrwt>
<rscale>  0 0.87407178E+02</rscale>
<asrwt>0</asrwt>
<pdfrwt beam="1">  1        2 0.15729825E-01 0.87407178E+02</pdfrwt>
<pdfrwt beam="2">  1       -2 0.28739791E-02 0.87407178E+02</pdfrwt>
<totfact> 0.13865896E+05</totfact>
</mgrwt>
</event>
<event>
 5    1  0.6043464E+000  0.9068895E+02  0.7546771E-02  0.1301192E+00
         -4   -1    0    0    0  501 -0.00000000000E+00  0.00000000000E+00  0.10074942989E+02  0.10074942989E+02  0.00000000000E+00 0.  1.
          4   -1    0    0  501    0  0.00000000000E+00 -0.00000000000E+00 -0.20408268708E+03  0.20408268708E+03  0.00000000000E+00 0. -1.
         23    2    1    2    0    0  0.00000000000E+00  0.00000000000E+00 -0.19400774409E+03  0.21415763007E+03  0.90688950535E+02 0.  0.
        -13    1    3    3    0    0 -0.31183701246E+02  0.31832151044E+02 -0.11681930970E+03  0.12502983717E+03  0.00000000000E+00 0. -1.
         13    1    3    3    0    0  0.31183701246E+02 -0.31832151044E+02 -0.77188434389E+02  0.89127792898E+02  0.00000000000E+00 0.  1.
<mgrwt>
<rscale>  0 0.90688951E+02</rscale>
<asrwt>0</asrwt>
<pdfrwt beam="2">  1        4 0.31397336E-01 0.90688951E+02</pdfrwt>
<pdfrwt beam="1">  1       -4 0.15499912E-02 0.90688951E+02</pdfrwt>
<totfact> 0.21109337E+04</totfact>
</mgrwt>
</event>
<event>
 5    1  0.6043464E+000  0.8643804E+02  0.7546771E-02  0.1311714E+00
          2   -1    0    0  501    0  0.00000000000E+00  0.00000000000E+00  0.10314730122E+03  0.10314730122E+03  0.00000000000E+00 0. -1.
         -2   -1    0    0    0  501 -0.00000000000E+00 -0.00000000000E+00 -0.18108895739E+02  0.18108895739E+02  0.00000000000E+00 0.  1.
         23    2    1    2    0    0  0.00000000000E+00  0.00000000000E+00  0.85038405482E+02  0.12125619696E+03  0.86438040782E+02 0.  0.
        -13    1    3    3    0    0 -0.20194004767E+02 -0.36700482281E+02  0.27596535718E+02  0.50162655550E+02  0.00000000000E+00 0.  1.
         13    1    3    3    0    0  0.20194004767E+02  0.36700482281E+02  0.57441869765E+02  0.71093541410E+02  0.00000000000E+00 0. -1.
<mgrwt>
<rscale>  0 0.86438041E+02</rscale>
<asrwt>0</asrwt>
<pdfrwt beam="1">  1        2 0.15868815E-01 0.86438041E+02</pdfrwt>
<pdfrwt beam="2">  1       -2 0.27859840E-02 0.86438041E+02</pdfrwt>
<totfact> 0.14332254E+05</totfact>
</mgrwt>
</event>
<event>
 5    1  0.6043464E+000  0.9024381E+02  0.7546771E-02  0.1302262E+00
          2   -1    0    0  501    0  0.00000000000E+00  0.00000000000E+00  0.13396296994E+03  0.13396296994E+03  0.00000000000E+00 0. -1.
         -2   -1    0    0    0  501 -0.00000000000E+00 -0.00000000000E+00 -0.15198127175E+02  0.15198127175E+02  0.00000000000E+00 0.  1.
         23    2    1    2    0    0  0.00000000000E+00  0.00000000000E+00  0.11876484277E+03  0.14916109712E+03  0.90243808740E+02 0.  0.
        -13    1    3    3    0    0 -0.26395145307E+02  0.13130955518E+02  0.11584330025E+03  0.11953575156E+03  0.00000000000E+00 0. -1.
         13    1    3    3    0    0  0.26395145307E+02 -0.13130955518E+02  0.29215425165E+01  0.29625345555E+02  0.00000000000E+00 0.  1.
<mgrwt>
<rscale>  0 0.90243809E+02</rscale>
<asrwt>0</asrwt>
<pdfrwt beam="1">  1        2 0.20609687E-01 0.90243809E+02</pdfrwt>
<pdfrwt beam="2">  1       -2 0.23381735E-02 0.90243809E+02</pdfrwt>
<totfact> 0.13842507E+05</totfact>
</mgrwt>
</event>
<event>
 5    1  0.6043464E+000  0.9457735E+02  0.7546771E-02  0.1292131E+00
          4   -1    0    0  501    0  0.00000000000E+00  0.00000000000E+00  0.15834477169E+02  0.15834477169E+02  0.00000000000E+00 0. -1.
         -4   -1    0    0    0  501 -0.00000000000E+00 -0.00000000000E+00 -0.14122468082E+03  0.14122468082E+03  0.00000000000E+00 0.  1.
         23    2    1    2    0    0  0.00000000000E+00  0.00000000000E+00 -0.12539020365E+03  0.15705915799E+03  0.94577354249E+02 0.  0.
        -13    1    3    3    0    0 -0.17852739463E+02  0.28133566825E+02 -0.69706877572E+01  0.34041274601E+02  0.00000000000E+00 0. -1.
         13    1    3    3    0    0  0.17852739463E+02 -0.28133566825E+02 -0.11841951590E+03  0.12301788339E+03  0.00000000000E+00 0.  1.
<mgrwt>
<rscale>  0 0.94577354E+02</rscale>
<asrwt>0</asrwt>
<pdfrwt beam="1">  1        4 0.24360734E-02 0.94577354E+02</pdfrwt>
<pdfrwt beam="2">  1       -4 0.21726874E-01 0.94577354E+02</pdfrwt>
<totfact> 0.21128098E+04</totfact>
</mgrwt>
</event>
<event>
 5    1  0.6043464E+000  0.9314466E+02  0.7546771E-02  0.1295410E+00
          1   -1    0    0  501    0  0.00000000000E+00  0.00000000000E+00  0.46236181761E+02  0.46236181761E+02  0.00000000000E+00 0. -1.
         -1   -1    0    0    0  501 -0.00000000000E+00 -0.00000000000E+00 -0.46910921860E+02  0.46910921860E+02  0.00000000000E+00 0.  1.
         23    2    1    2    0    0  0.00000000000E+00  0.00000000000E+00 -0.67474009885E+00  0.93147103621E+02  0.93144659744E+02 0.  0.
        -13    1    3    3    0    0 -0.66183611211E+01  0.38190228371E+02 -0.26158304337E+02  0.46760593802E+02  0.00000000000E+00 0.  1.
         13    1    3    3    0    0  0.66183611211E+01 -0.38190228371E+02  0.25483564238E+02  0.46386509819E+02  0.00000000000E+00 0. -1.
<mgrwt>
<rscale>  0 0.93144660E+02</rscale>
<asrwt>0</asrwt>
<pdfrwt beam="1">  1        1 0.71132587E-02 0.93144660E+02</pdfrwt>
<pdfrwt beam="2">  1       -1 0.72170649E-02 0.93144660E+02</pdfrwt>
<totfact> 0.87266932E+04</totfact>
</mgrwt>
</event>
<event>
 5    1  0.6043464E+000  0.9126833E+02  0.7546771E-02  0.1299809E+00
         -2   -1    0    0    0  501 -0.00000000000E+00  0.00000000000E+00  0.69020855230E+01  0.69020855230E+01  0.00000000000E+00 0.  1.
          2   -1    0    0  501    0  0.00000000000E+00 -0.00000000000E+00 -0.30171707329E+03  0.30171707329E+03  0.00000000000E+00 0. -1.
         23    2    1    2    0    0  0.00000000000E+00  0.00000000000E+00 -0.29481498777E+03  0.30861915881E+03  0.91268330621E+02 0.  0.
        -13    1    3    3    0    0 -0.43560352347E+02  0.60545429251E+01 -0.10622660748E+03  0.11497066549E+03  0.00000000000E+00 0.  1.
         13    1    3    3    0    0  0.43560352347E+02 -0.60545429251E+01 -0.18858838029E+03  0.19364849333E+03  0.00000000000E+00 0. -1.
<mgrwt>
<rscale>  0 0.91268331E+02</rscale>
<asrwt>0</asrwt>
<pdfrwt beam="2">  1        2 0.46418009E-01 0.91268331E+02</pdfrwt>
<pdfrwt beam="1">  1       -2 0.10618594E-02 0.91268331E+02</pdfrwt>
<totfact> 0.17956088E+05</totfact>
</mgrwt>
</event>
<event>
 5    1  0.6043464E+000  0.9314510E+02  0.7546771E-02  0.1295409E+00
         -2   -1    0    0    0  501 -0.00000000000E+00  0.00000000000E+00  0.15532912762E+02  0.15532912762E+02  0.00000000000E+00 0.  1.
          2   -1    0    0  501    0  0.00000000000E+00 -0.00000000000E+00 -0.13963913504E+03  0.13963913504E+03  0.00000000000E+00 0. -1.
         23    2    1    2    0    0  0.00000000000E+00  0.00000000000E+00 -0.12410622228E+03  0.15517204780E+03  0.93145101915E+02 0.  0.
        -13    1    3    3    0    0 -0.18759994485E+01 -0.44020998691E+02 -0.36918463556E+02  0.57483394568E+02  0.00000000000E+00 0. -1.
         13    1    3    3    0    0  0.18759994485E+01  0.44020998691E+02 -0.87187758721E+02  0.97688653233E+02  0.00000000000E+00 0.  1.
<mgrwt>
<rscale>  0 0.93145102E+02</rscale>
<asrwt>0</asrwt>
<pdfrwt beam="2">  1        2 0.21482945E-01 0.93145102E+02</pdfrwt>
<pdfrwt beam="1">  1       -2 0.23896788E-02 0.93145102E+02</pdfrwt>
<totfact> 0.12875590E+05</totfact>
</mgrwt>
</event>
<event>
 5    1  0.6043464E+000  0.9165891E+02  0.7546771E-02  0.1298883E+00
         -2   -1    0    0    0  501 -0.00000000000E+00  0.00000000000E+00  0.48563499065E+02  0.48563499065E+02  0.00000000000E+00 0.  1.
          2   -1    0    0  501    0  0.00000000000E+00 -0.00000000000E+00 -0.43249336221E+02  0.43249336221E+02  0.00000000000E+00 0. -1.
         23    2    1    2    0    0  0.00000000000E+00  0.00000000000E+00  0.53141628437E+01  0.91812835286E+02  0.91658913350E+02 0.  0.
        -13    1    3    3    0    0  0.60409041600E-01  0.15168761937E+02  0.45976023599E+02  0.48413734972E+02  0.00000000000E+00 0.  1.
         13    1    3    3    0    0 -0.60409041600E-01 -0.15168761937E+02 -0.40661860756E+02  0.43399100314E+02  0.00000000000E+00 0. -1.
<mgrwt>
<rscale>  0 0.91658913E+02</rscale>
<asrwt>0</asrwt>
<pdfrwt beam="2">  1        2 0.66537440E-02 0.91658913E+02</pdfrwt>
<pdfrwt beam="1">  1       -2 0.74713076E-02 0.91658913E+02</pdfrwt>
<totfact> 0.95866942E+04</totfact>
</mgrwt>
</event>
<event>
 5    1  0.6043464E+000  0.8013760E+02  0.7546771E-02  0.1328661E+00
          1   -1    0    0  501    0  0.00000000000E+00  0.00000000000E+00  0.21276558894E+02  0.21276558894E+02  0.00000000000E+00 0. -1.
         -1   -1    0    0    0  501 -0.00000000000E+00 -0.00000000000E+00 -0.75459042085E+02  0.75459042085E+02  0.00000000000E+00 0.  1.
         23    2    1    2    0    0  0.00000000000E+00  0.00000000000E+00 -0.54182483191E+02  0.96735600978E+02  0.80137600487E+02 0.  0.
        -13    1    3    3    0    0 -0.28703749293E+02  0.25640240300E+02 -0.40542986942E+02  0.55902244466E+02  0.00000000000E+00 0.  1.
         13    1    3    3    0    0  0.28703749293E+02 -0.25640240300E+02 -0.13639496249E+02  0.40833356512E+02  0.00000000000E+00 0. -1.
<mgrwt>
<rscale>  0 0.80137600E+02</rscale>
<asrwt>0</asrwt>
<pdfrwt beam="1">  1        1 0.32733167E-02 0.80137600E+02</pdfrwt>
<pdfrwt beam="2">  1       -1 0.11609084E-01 0.80137600E+02</pdfrwt>
<totfact> 0.11879435E+05</totfact>
</mgrwt>
</event>
<event>
 5    1  0.6043464E+000  0.9337636E+02  0.7546771E-02  0.1294875E+00
         -1   -1    0    0    0  501 -0.00000000000E+00  0.00000000000E+00  0.27736502181E+03  0.27736502181E+03  0.00000000000E+00 0.  1.
          1   -1    0    0  501    0  0.00000000000E+00 -0.00000000000E+00 -0.78589077488E+01  0.78589077488E+01  0.00000000000E+00 0. -1.
         23    2    1    2    0    0  0.00000000000E+00  0.00000000000E+00  0.26950611406E+03  0.28522392956E+03  0.93376359302E+02 0.  0.
        -13    1    3    3    0    0  0.94021657243E+01  0.45615401510E+02  0.12479848938E+03  0.13320596281E+03  0.00000000000E+00 0. -1.
         13    1    3    3    0    0 -0.94021657243E+01 -0.45615401510E+02  0.14470762468E+03  0.15201796675E+03  0.00000000000E+00 0.  1.
<mgrwt>
<rscale>  0 0.93376359E+02</rscale>
<asrwt>0</asrwt>
<pdfrwt beam="2">  1        1 0.12090629E-02 0.93376359E+02</pdfrwt>
<pdfrwt beam="1">  1       -1 0.42671534E-01 0.93376359E+02</pdfrwt>
<totfact> 0.58650363E+04</totfact>
</mgrwt>
</event>
<event>
 5    1  0.6043464E+000  0.8792603E+02  0.7546771E-02  0.1307953E+00
          2   -1    0    0  501    0  0.00000000000E+00  0.00000000000E+00  0.81929487226E+02  0.81929487226E+02  0.00000000000E+00 0. -1.
         -2   -1    0    0    0  501 -0.00000000000E+00 -0.00000000000E+00 -0.23590369140E+02  0.23590369140E+02  0.00000000000E+00 0.  1.
         23    2    1    2    0    0  0.00000000000E+00  0.00000000000E+00  0.58339118086E+02  0.10551985637E+03  0.87926033621E+02 0.  0.
        -13    1    3    3    0    0 -0.18108182512E+01 -0.26398284290E+02 -0.12963937708E+02  0.29465440046E+02  0.00000000000E+00 0.  1.
         13    1    3    3    0    0  0.18108182512E+01  0.26398284290E+02  0.71303055794E+02  0.76054416320E+02  0.00000000000E+00 0. -1.
<mgrwt>
<rscale>  0 0.87926034E+02</rscale>
<asrwt>0</asrwt>
<pdfrwt beam="1">  1        2 0.12604536E-01 0.87926034E+02</pdfrwt>
<pdfrwt beam="2">  1       -2 0.36292876E-02 0.87926034E+02</pdfrwt>
<totfact> 0.12786015E+05</totfact>
</mgrwt>
</event>
<event>
 5    1  0.6043464E+000  0.9115752E+02  0.7546771E-02  0.1300073E+00
          2   -1    0    0  501    0  0.00000000000E+00  0.00000000000E+00  0.26330186567E+03  0.26330186567E+03  0.00000000000E+00 0. -1.
         -2   -1    0    0    0  501 -0.00000000000E+00 -0.00000000000E+00 -0.78898931483E+01  0.78898931483E+01  0.00000000000E+00 0.  1.
         23    2    1    2    0    0  0.00000000000E+00  0.00000000000E+00  0.25541197252E+03  0.27119175882E+03  0.91157524887E+02 0.  0.
        -13    1    3    3    0    0 -0.33635229683E+02  0.30435298970E+02  0.11447234734E+03  0.12313226386E+03  0.00000000000E+00 0.  1.
         13    1    3    3    0    0  0.33635229683E+02 -0.30435298970E+02  0.14093962518E+03  0.14805949495E+03  0.00000000000E+00 0. -1.
<mgrwt>
<rscale>  0 0.91157525E+02</rscale>
<asrwt>0</asrwt>
<pdfrwt beam="1">  1        2 0.40507973E-01 0.91157525E+02</pdfrwt>
<pdfrwt beam="2">  1       -2 0.12138299E-02 0.91157525E+02</pdfrwt>
<totfact> 0.17122231E+05</totfact>
</mgrwt>
</event>
<event>
 5    1  0.6043464E+000  0.9042488E+02  0.7546771E-02  0.1301826E+00
          1   -1    0    0  501    0  0.00000000000E+00  0.00000000000E+00  0.20968418832E+03  0.20968418832E+03  0.00000000000E+00 0. -1.
         -1   -1    0    0    0  501 -0.00000000000E+00 -0.00000000000E+00 -0.97487777906E+01  0.97487777906E+01  0.00000000000E+00 0.  1.
         23    2    1    2    0    0  0.00000000000E+00  0.00000000000E+00  0.19993541053E+03  0.21943296611E+03  0.90424876183E+02 0.  0.
        -13    1    3    3    0    0  0.21157191196E+02 -0.39469803554E+02  0.11505858858E+03  0.12346647698E+03  0.00000000000E+00 0. -1.
         13    1    3    3    0    0 -0.21157191196E+02  0.39469803554E+02  0.84876821958E+02  0.95966489139E+02  0.00000000000E+00 0.  1.
<mgrwt>
<rscale>  0 0.90424876E+02</rscale>
<asrwt>0</asrwt>
<pdfrwt beam="1">  1        1 0.32259103E-01 0.90424876E+02</pdfrwt>
<pdfrwt beam="2">  1       -1 0.14998121E-02 0.90424876E+02</pdfrwt>
<totfact> 0.12217805E+05</totfact>
</mgrwt>
</event>
<event>
 5    1  0.6043464E+000  0.9114316E+02  0.7546771E-02  0.1300107E+00
         -2   -1    0    0    0  501 -0.00000000000E+00  0.00000000000E+00  0.24031650349E+03  0.24031650349E+03  0.00000000000E+00 0.  1.
          2   -1    0    0  501    0  0.00000000000E+00 -0.00000000000E+00 -0.86418070411E+01  0.86418070411E+01  0.00000000000E+00 0. -1.
         23    2    1    2    0    0  0.00000000000E+00  0.00000000000E+00  0.23167469645E+03  0.24895831053E+03  0.91143158865E+02 0.  0.
        -13    1    3    3    0    0 -0.64058979421E+01  0.43644115244E+02  0.14709188456E+03  0.15356388516E+03  0.00000000000E+00 0. -1.
         13    1    3    3    0    0  0.64058979421E+01 -0.43644115244E+02  0.84582811898E+02  0.95394425374E+02  0.00000000000E+00 0.  1.
<mgrwt>
<rscale>  0 0.91143159E+02</rscale>
<asrwt>0</asrwt>
<pdfrwt beam="2">  1        2 0.13295090E-02 0.91143159E+02</pdfrwt>
<pdfrwt beam="1">  1       -2 0.36971765E-01 0.91143159E+02</pdfrwt>
<totfact> 0.57335584E+04</totfact>
</mgrwt>
</event>
<event>
 5    1  0.6043464E+000  0.9084490E+02  0.7546771E-02  0.1300818E+00
         -2   -1    0    0    0  501 -0.00000000000E+00  0.00000000000E+00  0.69723063474E+01  0.69723063474E+01  0.00000000000E+00 0.  1.
          2   -1    0    0  501    0  0.00000000000E+00 -0.00000000000E+00 -0.29591344232E+03  0.29591344232E+03  0.00000000000E+00 0. -1.
         23    2    1    2    0    0  0.00000000000E+00  0.00000000000E+00 -0.28894113598E+03  0.30288574867E+03  0.90844904584E+02 0.  0.
        -13    1    3    3    0    0  0.37532169930E+02  0.93359496741E+01 -0.22388757782E+03  0.22720358984E+03  0.00000000000E+00 0. -1.
         13    1    3    3    0    0 -0.37532169930E+02 -0.93359496741E+01 -0.65053558157E+02  0.75682158828E+02  0.00000000000E+00 0.  1.
<mgrwt>
<rscale>  0 0.90844905E+02</rscale>
<asrwt>0</asrwt>
<pdfrwt beam="2">  1        2 0.45525153E-01 0.90844905E+02</pdfrwt>
<pdfrwt beam="1">  1       -2 0.10726623E-02 0.90844905E+02</pdfrwt>
<totfact> 0.18049249E+05</totfact>
</mgrwt>
</event>
<event>
 5    1  0.6043464E+000  0.9111889E+02  0.7546771E-02  0.1300165E+00
         -1   -1    0    0    0  501 -0.00000000000E+00  0.00000000000E+00  0.64540945985E+02  0.64540945985E+02  0.00000000000E+00 0.  1.
          1   -1    0    0  501    0  0.00000000000E+00 -0.00000000000E+00 -0.32160407463E+02  0.32160407463E+02  0.00000000000E+00 0. -1.
         23    2    1    2    0    0  0.00000000000E+00  0.00000000000E+00  0.32380538522E+02  0.96701353447E+02  0.91118892024E+02 0.  0.
        -13    1    3    3    0    0 -0.32149360351E+02  0.33904756150E+01  0.50259814071E+02  0.59758895624E+02  0.00000000000E+00 0.  1.
         13    1    3    3    0    0  0.32149360351E+02 -0.33904756150E+01 -0.17879275549E+02  0.36942457823E+02  0.00000000000E+00 0. -1.
<mgrwt>
<rscale>  0 0.91118892E+02</rscale>
<asrwt>0</asrwt>
<pdfrwt beam="2">  1        1 0.49477550E-02 0.91118892E+02</pdfrwt>
<pdfrwt beam="1">  1       -1 0.99293763E-02 0.91118892E+02</pdfrwt>
<totfact> 0.87812662E+04</totfact>
</mgrwt>
</event>
<event>
 5    1  0.6043464E+000  0.1000826E+03  0.7546771E-02  0.1280122E+00
         -1   -1    0    0    0  501 -0.00000000000E+00  0.00000000000E+00  0.12584463488E+03  0.12584463488E+03  0.00000000000E+00 0.  1.
          1   -1    0    0  501    0  0.00000000000E+00 -0.00000000000E+00 -0.19898591349E+02  0.19898591349E+02  0.00000000000E+00 0. -1.
         23    2    1    2    0    0  0.00000000000E+00  0.00000000000E+00  0.10594604353E+03  0.14574322623E+03  0.10008258516E+03 0.  0.
        -13    1    3    3    0    0  0.12205076921E+02 -0.27925540650E+02  0.11077142052E+03  0.11488736801E+03  0.00000000000E+00 0.  1.
         13    1    3    3    0    0 -0.12205076921E+02  0.27925540650E+02 -0.48253769946E+01  0.30855858218E+02  0.00000000000E+00 0. -1.
<mgrwt>
<rscale>  0 0.10008259E+03</rscale>
<asrwt>0</asrwt>
<pdfrwt beam="2">  1        1 0.30613218E-02 0.10008259E+03</pdfrwt>
<pdfrwt beam="1">  1       -1 0.19360713E-01 0.10008259E+03</pdfrwt>
<totfact> 0.61060878E+04</totfact>
</mgrwt>
</event>
<event>
 5    1  0.6043464E+000  0.9369872E+02  0.7546771E-02  0.1294134E+00
         -3   -1    0    0    0  501 -0.00000000000E+00  0.00000000000E+00  0.38853448282E+02  0.38853448282E+02  0.00000000000E+00 0.  1.
          3   -1    0    0  501    0  0.00000000000E+00 -0.00000000000E+00 -0.56490807444E+02  0.56490807444E+02  0.00000000000E+00 0. -1.
         23    2    1    2    0    0  0.00000000000E+00  0.00000000000E+00 -0.17637359162E+02  0.95344255726E+02  0.93698722839E+02 0.  0.
        -13    1    3    3    0    0  0.20989427332E+02 -0.26549465264E+02  0.24145184634E+02  0.41574272171E+02  0.00000000000E+00 0.  1.
         13    1    3    3    0    0 -0.20989427332E+02  0.26549465264E+02 -0.41782543796E+02  0.53769983555E+02  0.00000000000E+00 0. -1.
<mgrwt>
<rscale>  0 0.93698723E+02</rscale>
<asrwt>0</asrwt>
<pdfrwt beam="2">  1        3 0.86908934E-02 0.93698723E+02</pdfrwt>
<pdfrwt beam="1">  1       -3 0.59774536E-02 0.93698723E+02</pdfrwt>
<totfact> 0.32505716E+04</totfact>
</mgrwt>
</event>
<event>
 5    1  0.6043464E+000  0.9601987E+02  0.7546771E-02  0.1288895E+00
         -3   -1    0    0    0  501 -0.00000000000E+00  0.00000000000E+00  0.24129276779E+02  0.24129276779E+02  0.00000000000E+00 0.  1.
          3   -1    0    0  501    0  0.00000000000E+00 -0.00000000000E+00 -0.95525194649E+02  0.95525194649E+02  0.00000000000E+00 0. -1.
         23    2    1    2    0    0  0.00000000000E+00  0.00000000000E+00 -0.71395917870E+02  0.11965447143E+03  0.96019870049E+02 0.  0.
        -13    1    3    3    0    0 -0.58327239308E+01 -0.41143566429E+02 -0.57350221376E+01  0.41948828420E+02  0.00000000000E+00 0.  1.
         13    1    3    3    0    0  0.58327239308E+01  0.41143566429E+02 -0.65660895733E+02  0.77705643008E+02  0.00000000000E+00 0. -1.
<mgrwt>
<rscale>  0 0.96019870E+02</rscale>
<asrwt>0</asrwt>
<pdfrwt beam="2">  1        3 0.14696183E-01 0.96019870E+02</pdfrwt>
<pdfrwt beam="1">  1       -3 0.37121965E-02 0.96019870E+02</pdfrwt>
<totfact> 0.28889332E+04</totfact>
</mgrwt>
</event>
<event>
 5    1  0.6043464E+000  0.9134034E+02  0.7546771E-02  0.1299638E+00
         -2   -1    0    0    0  501 -0.00000000000E+00  0.00000000000E+00  0.44762713535E+02  0.44762713535E+02  0.00000000000E+00 0.  1.
          2   -1    0    0  501    0  0.00000000000E+00 -0.00000000000E+00 -0.46596021943E+02  0.46596021943E+02  0.00000000000E+00 0. -1.
         23    2    1    2    0    0  0.00000000000E+00  0.00000000000E+00 -0.18333084082E+01  0.91358735477E+02  0.91340338998E+02 0.  0.
        -13    1    3    3    0    0  0.29820617062E+02  0.28891301248E+02 -0.19941207796E+02  0.46061136093E+02  0.00000000000E+00 0. -1.
         13    1    3    3    0    0 -0.29820617062E+02 -0.28891301248E+02  0.18107899388E+02  0.45297599385E+02  0.00000000000E+00 0.  1.
<mgrwt>
<rscale>  0 0.91340339E+02</rscale>
<asrwt>0</asrwt>
<pdfrwt beam="2">  1        2 0.71686188E-02 0.91340339E+02</pdfrwt>
<pdfrwt beam="1">  1       -2 0.68865713E-02 0.91340339E+02</pdfrwt>
<totfact> 0.98727749E+04</totfact>
</mgrwt>
</event>
<event>
 5    1  0.6043464E+000  0.8529064E+02  0.7546771E-02  0.1314674E+00
          1   -1    0    0  501    0  0.00000000000E+00  0.00000000000E+00  0.28754453230E+02  0.28754453230E+02  0.00000000000E+00 0. -1.
         -1   -1    0    0    0  501 -0.00000000000E+00 -0.00000000000E+00 -0.63246659720E+02  0.63246659720E+02  0.00000000000E+00 0.  1.
         23    2    1    2    0    0  0.00000000000E+00  0.00000000000E+00 -0.34492206490E+02  0.92001112949E+02  0.85290635332E+02 0.  0.
        -13    1    3    3    0    0 -0.18819391561E+01  0.26334406341E+02  0.18878821421E+02  0.32456933783E+02  0.00000000000E+00 0. -1.
         13    1    3    3    0    0  0.18819391561E+01 -0.26334406341E+02 -0.53371027911E+02  0.59544179166E+02  0.00000000000E+00 0.  1.
<mgrwt>
<rscale>  0 0.85290635E+02</rscale>
<asrwt>0</asrwt>
<pdfrwt beam="1">  1        1 0.44237621E-02 0.85290635E+02</pdfrwt>
<pdfrwt beam="2">  1       -1 0.97302551E-02 0.85290635E+02</pdfrwt>
<totfact> 0.10417958E+05</totfact>
</mgrwt>
</event>
<event>
 5    1  0.6043464E+000  0.9045640E+02  0.7546771E-02  0.1301750E+00
         -1   -1    0    0    0  501 -0.00000000000E+00  0.00000000000E+00  0.55866894251E+02  0.55866894251E+02  0.00000000000E+00 0.  1.
          1   -1    0    0  501    0  0.00000000000E+00 -0.00000000000E+00 -0.36615423583E+02  0.36615423583E+02  0.00000000000E+00 0. -1.
         23    2    1    2    0    0  0.00000000000E+00  0.00000000000E+00  0.19251470668E+02  0.92482317833E+02  0.90456398275E+02 0.  0.
        -13    1    3    3    0    0  0.71840127932E+01 -0.15239161031E+02 -0.33287504033E+02  0.37308175960E+02  0.00000000000E+00 0. -1.
         13    1    3    3    0    0 -0.71840127932E+01  0.15239161031E+02  0.52538974701E+02  0.55174141873E+02  0.00000000000E+00 0.  1.
<mgrwt>
<rscale>  0 0.90456398E+02</rscale>
<asrwt>0</asrwt>
<pdfrwt beam="2">  1        1 0.56331421E-02 0.90456398E+02</pdfrwt>
<pdfrwt beam="1">  1       -1 0.85949068E-02 0.90456398E+02</pdfrwt>
<totfact> 0.91479905E+04</totfact>
</mgrwt>
</event>
<event>
 5    1  0.6043464E+000  0.9124776E+02  0.7546771E-02  0.1299858E+00
         -2   -1    0    0    0  501 -0.00000000000E+00  0.00000000000E+00  0.31199415220E+02  0.31199415220E+02  0.00000000000E+00 0.  1.
          2   -1    0    0  501    0  0.00000000000E+00 -0.00000000000E+00 -0.66717220396E+02  0.66717220396E+02  0.00000000000E+00 0. -1.
         23    2    1    2    0    0  0.00000000000E+00  0.00000000000E+00 -0.35517805176E+02  0.97916635617E+02  0.91247756389E+02 0.  0.
        -13    1    3    3    0    0  0.42922694798E+02 -0.14836830829E+02 -0.22442399022E+02  0.50657186574E+02  0.00000000000E+00 0. -1.
         13    1    3    3    0    0 -0.42922694798E+02  0.14836830829E+02 -0.13075406154E+02  0.47259449043E+02  0.00000000000E+00 0.  1.
<mgrwt>
<rscale>  0 0.91247756E+02</rscale>
<asrwt>0</asrwt>
<pdfrwt beam="2">  1        2 0.10264188E-01 0.91247756E+02</pdfrwt>
<pdfrwt beam="1">  1       -2 0.47999100E-02 0.91247756E+02</pdfrwt>
<totfact> 0.10892710E+05</totfact>
</mgrwt>
</event>
<event>
 5    1  0.6043464E+000  0.9285946E+02  0.7546771E-02  0.1296071E+00
         -2   -1    0    0    0  501 -0.00000000000E+00  0.00000000000E+00  0.11769914979E+03  0.11769914979E+03  0.00000000000E+00 0.  1.
          2   -1    0    0  501    0  0.00000000000E+00 -0.00000000000E+00 -0.18315510817E+02  0.18315510817E+02  0.00000000000E+00 0. -1.
         23    2    1    2    0    0  0.00000000000E+00  0.00000000000E+00  0.99383638970E+02  0.13601466060E+03  0.92859464809E+02 0.  0.
        -13    1    3    3    0    0 -0.30856265857E+02 -0.33553750263E+02  0.36775802695E+02  0.58569812730E+02  0.00000000000E+00 0. -1.
         13    1    3    3    0    0  0.30856265857E+02  0.33553750263E+02  0.62607836275E+02  0.77444847875E+02  0.00000000000E+00 0.  1.
<mgrwt>
<rscale>  0 0.92859465E+02</rscale>
<asrwt>0</asrwt>
<pdfrwt beam="2">  1        2 0.28177710E-02 0.92859465E+02</pdfrwt>
<pdfrwt beam="1">  1       -2 0.18107561E-01 0.92859465E+02</pdfrwt>
<totfact> 0.72484137E+04</totfact>
</mgrwt>
</event>
<event>
 5    1  0.6043464E+000  0.9127925E+02  0.7546771E-02  0.1299783E+00
          2   -1    0    0  501    0  0.00000000000E+00  0.00000000000E+00  0.33125236198E+03  0.33125236198E+03  0.00000000000E+00 0. -1.
         -2   -1    0    0    0  501 -0.00000000000E+00 -0.00000000000E+00 -0.62881822797E+01  0.62881822797E+01  0.00000000000E+00 0.  1.
         23    2    1    2    0    0  0.00000000000E+00  0.00000000000E+00  0.32496417971E+03  0.33754054426E+03  0.91279246990E+02 0.  0.
        -13    1    3    3    0    0 -0.37380833102E+02  0.22194577971E+02  0.21386136418E+03  0.21823521499E+03  0.00000000000E+00 0. -1.
         13    1    3    3    0    0  0.37380833102E+02 -0.22194577971E+02  0.11110281553E+03  0.11930532927E+03  0.00000000000E+00 0.  1.
<mgrwt>
<rscale>  0 0.91279247E+02</rscale>
<asrwt>0</asrwt>
<pdfrwt beam="1">  1        2 0.50961888E-01 0.91279247E+02</pdfrwt>
<pdfrwt beam="2">  1       -2 0.96741292E-03 0.91279247E+02</pdfrwt>
<totfact> 0.18583014E+05</totfact>
</mgrwt>
</event>
<event>
 5    1  0.6043464E+000  0.8867242E+02  0.7546771E-02  0.1306099E+00
         -1   -1    0    0    0  501 -0.00000000000E+00  0.00000000000E+00  0.15062742219E+03  0.15062742219E+03  0.00000000000E+00 0.  1.
          1   -1    0    0  501    0  0.00000000000E+00 -0.00000000000E+00 -0.13050076190E+02  0.13050076190E+02  0.00000000000E+00 0. -1.
         23    2    1    2    0    0  0.00000000000E+00  0.00000000000E+00  0.13757734600E+03  0.16367749837E+03  0.88672415909E+02 0.  0.
        -13    1    3    3    0    0  0.22669000611E+02 -0.15835950119E+02  0.48182990131E+01  0.28069145164E+02  0.00000000000E+00 0. -1.
         13    1    3    3    0    0 -0.22669000611E+02  0.15835950119E+02  0.13275904698E+03  0.13560835321E+03  0.00000000000E+00 0.  1.
<mgrwt>
<rscale>  0 0.88672416E+02</rscale>
<asrwt>0</asrwt>
<pdfrwt beam="2">  1        1 0.20077041E-02 0.88672416E+02</pdfrwt>
<pdfrwt beam="1">  1       -1 0.23173448E-01 0.88672416E+02</pdfrwt>
<totfact> 0.80308314E+04</totfact>
</mgrwt>
</event>
<event>
 5    1  0.6043464E+000  0.9687591E+02  0.7546771E-02  0.1287006E+00
          1   -1    0    0  501    0  0.00000000000E+00  0.00000000000E+00  0.10370764640E+03  0.10370764640E+03  0.00000000000E+00 0. -1.
         -1   -1    0    0    0  501 -0.00000000000E+00 -0.00000000000E+00 -0.22623555368E+02  0.22623555368E+02  0.00000000000E+00 0.  1.
         23    2    1    2    0    0  0.00000000000E+00  0.00000000000E+00  0.81084091034E+02  0.12633120177E+03  0.96875914043E+02 0.  0.
        -13    1    3    3    0    0  0.37511647136E+02  0.17688394088E+02  0.73175473255E+02  0.84110955543E+02  0.00000000000E+00 0.  1.
         13    1    3    3    0    0 -0.37511647136E+02 -0.17688394088E+02  0.79086177793E+01  0.42220246227E+02  0.00000000000E+00 0. -1.
<mgrwt>
<rscale>  0 0.96875914E+02</rscale>
<asrwt>0</asrwt>
<pdfrwt beam="1">  1        1 0.15955022E-01 0.96875914E+02</pdfrwt>
<pdfrwt beam="2">  1       -1 0.34805470E-02 0.96875914E+02</pdfrwt>
<totfact> 0.89025283E+04</totfact>
</mgrwt>
</event>
<event>
 5    1  0.6043464E+000  0.9116408E+02  0.7546771E-02  0.1300057E+00
          2   -1    0    0  501    0  0.00000000000E+00  0.00000000000E+00  0.38124160502E+02  0.38124160502E+02  0.00000000000E+00 0. -1.
         -2   -1    0    0    0  501 -0.00000000000E+00 -0.00000000000E+00 -0.54498841083E+02  0.54498841083E+02  0.00000000000E+00 0.  1.
         23    2    1    2    0    0  0.00000000000E+00  0.00000000000E+00 -0.16374680582E+02  0.92623001585E+02  0.91164084257E+02 0.  0.
        -13    1    3    3    0    0 -0.36565236321E+02  0.11131209352E+02  0.17045610843E+02  0.41850605466E+02  0.00000000000E+00 0.  1.
         13    1    3    3    0    0  0.36565236321E+02 -0.11131209352E+02 -0.33420291424E+02  0.50772396119E+02  0.00000000000E+00 0. -1.
<mgrwt>
<rscale>  0 0.91164084E+02</rscale>
<asrwt>0</asrwt>
<pdfrwt beam="1">  1        2 0.58652555E-02 0.91164084E+02</pdfrwt>
<pdfrwt beam="2">  1       -2 0.83844371E-02 0.91164084E+02</pdfrwt>
<totfact> 0.94247488E+04</totfact>
</mgrwt>
</event>
<event>
 5    1  0.6043464E+000  0.9167557E+02  0.7546771E-02  0.1298844E+00
          1   -1    0    0  501    0  0.00000000000E+00  0.00000000000E+00  0.37342835076E+02  0.37342835076E+02  0.00000000000E+00 0. -1.
         -1   -1    0    0    0  501 -0.00000000000E+00 -0.00000000000E+00 -0.56265213372E+02  0.56265213372E+02  0.00000000000E+00 0.  1.
         23    2    1    2    0    0  0.00000000000E+00  0.00000000000E+00 -0.18922378296E+02  0.93608048448E+02  0.91675571086E+02 0.  0.
        -13    1    3    3    0    0 -0.18422079045E+02 -0.33306270013E+02 -0.35542166020E+02  0.52076157538E+02  0.00000000000E+00 0.  1.
         13    1    3    3    0    0  0.18422079045E+02  0.33306270013E+02  0.16619787724E+02  0.41531890910E+02  0.00000000000E+00 0. -1.
<mgrwt>
<rscale>  0 0.91675571E+02</rscale>
<asrwt>0</asrwt>
<pdfrwt beam="1">  1        1 0.57450516E-02 0.91675571E+02</pdfrwt>
<pdfrwt beam="2">  1       -1 0.86561866E-02 0.91675571E+02</pdfrwt>
<totfact> 0.88338274E+04</totfact>
</mgrwt>
</event>
<event>
 5    1  0.6043464E+000  0.9309964E+02  0.7546771E-02  0.1295514E+00
          2   -1    0    0  501    0  0.00000000000E+00  0.00000000000E+00  0.14833055249E+02  0.14833055249E+02  0.00000000000E+00 0. -1.
         -2   -1    0    0    0  501 -0.00000000000E+00 -0.00000000000E+00 -0.14608491570E+03  0.14608491570E+03  0.00000000000E+00 0.  1.
         23    2    1    2    0    0  0.00000000000E+00  0.00000000000E+00 -0.13125186045E+03  0.16091797095E+03  0.93099637501E+02 0.  0.
        -13    1    3    3    0    0 -0.28213083271E+02 -0.26350424868E+02 -0.11058430184E+03  0.11712903471E+03  0.00000000000E+00 0.  1.
         13    1    3    3    0    0  0.28213083271E+02  0.26350424868E+02 -0.20667558615E+02  0.43788936245E+02  0.00000000000E+00 0. -1.
<mgrwt>
<rscale>  0 0.93099638E+02</rscale>
<asrwt>0</asrwt>
<pdfrwt beam="1">  1        2 0.22820086E-02 0.93099638E+02</pdfrwt>
<pdfrwt beam="2">  1       -2 0.22474602E-01 0.93099638E+02</pdfrwt>
<totfact> 0.66897724E+04</totfact>
</mgrwt>
</event>
<event>
 5    1  0.6043464E+000  0.9160187E+02  0.7546771E-02  0.1299018E+00
          1   -1    0    0  501    0  0.00000000000E+00  0.00000000000E+00  0.23110932412E+03  0.23110932412E+03  0.00000000000E+00 0. -1.
         -1   -1    0    0    0  501 -0.00000000000E+00 -0.00000000000E+00 -0.90767675092E+01  0.90767675092E+01  0.00000000000E+00 0.  1.
         23    2    1    2    0    0  0.00000000000E+00  0.00000000000E+00  0.22203255661E+03  0.24018609163E+03  0.91601869069E+02 0.  0.
        -13    1    3    3    0    0  0.37029631561E+02 -0.26484954963E+02  0.12414734290E+03  0.13223164977E+03  0.00000000000E+00 0.  1.
         13    1    3    3    0    0 -0.37029631561E+02  0.26484954963E+02  0.97885213713E+02  0.10795444186E+03  0.00000000000E+00 0. -1.
<mgrwt>
<rscale>  0 0.91601869E+02</rscale>
<asrwt>0</asrwt>
<pdfrwt beam="1">  1        1 0.35555276E-01 0.91601869E+02</pdfrwt>
<pdfrwt beam="2">  1       -1 0.13964259E-02 0.91601869E+02</pdfrwt>
<totfact> 0.12028202E+05</totfact>
</mgrwt>
</event>
<event>
 5    1  0.6043464E+000  0.9321888E+02  0.7546771E-02  0.1295239E+00
         -3   -1    0    0    0  501 -0.00000000000E+00  0.00000000000E+00  0.49652332093E+02  0.49652332093E+02  0.00000000000E+00 0.  1.
          3   -1    0    0  501    0  0.00000000000E+00 -0.00000000000E+00 -0.43753032364E+02  0.43753032364E+02  0.00000000000E+00 0. -1.
         23    2    1    2    0    0  0.00000000000E+00  0.00000000000E+00  0.58992997288E+01  0.93405364458E+02  0.93218884204E+02 0.  0.
        -13    1    3    3    0    0 -0.26075506330E+02  0.14418557868E+02  0.38862851009E+02  0.48970889617E+02  0.00000000000E+00 0.  1.
         13    1    3    3    0    0  0.26075506330E+02 -0.14418557868E+02 -0.32963551280E+02  0.44434474841E+02  0.00000000000E+00 0. -1.
<mgrwt>
<rscale>  0 0.93218884E+02</rscale>
<asrwt>0</asrwt>
<pdfrwt beam="2">  1        3 0.67312358E-02 0.93218884E+02</pdfrwt>
<pdfrwt beam="1">  1       -3 0.76388203E-02 0.93218884E+02</pdfrwt>
<totfact> 0.33103077E+04</totfact>
</mgrwt>
</event>
<event>
 5    1  0.6043464E+000  0.9212659E+02  0.7546771E-02  0.1297782E+00
          2   -1    0    0  501    0  0.00000000000E+00  0.00000000000E+00  0.22141449893E+03  0.22141449893E+03  0.00000000000E+00 0.  1.
         -2   -1    0    0    0  501 -0.00000000000E+00 -0.00000000000E+00 -0.95830549414E+01  0.95830549414E+01  0.00000000000E+00 0. -1.
         23    2    1    2    0    0  0.00000000000E+00  0.00000000000E+00  0.21183144399E+03  0.23099755387E+03  0.92126593512E+02 0.  0.
        -13    1    3    3    0    0  0.34521632433E+02 -0.26869737964E+02  0.69744777240E+02  0.82328973492E+02  0.00000000000E+00 0. -1.
         13    1    3    3    0    0 -0.34521632433E+02  0.26869737964E+02  0.14208666675E+03  0.14866858038E+03  0.00000000000E+00 0.  1.
<mgrwt>
<rscale>  0 0.92126594E+02</rscale>
<asrwt>0</asrwt>
<pdfrwt beam="1">  1        2 0.34063765E-01 0.92126594E+02</pdfrwt>
<pdfrwt beam="2">  1       -2 0.14743163E-02 0.92126594E+02</pdfrwt>
<totfact> 0.15610496E+05</totfact>
</mgrwt>
</event>
<event>
 5    1  0.6043464E+000  0.9000101E+02  0.7546771E-02  0.1302849E+00
         -2   -1    0    0    0  501 -0.00000000000E+00  0.00000000000E+00  0.56065746915E+01  0.56065746915E+01  0.00000000000E+00 0.  1.
          2   -1    0    0  501    0  0.00000000000E+00 -0.00000000000E+00 -0.36119122075E+03  0.36119122075E+03  0.00000000000E+00 0. -1.
         23    2    1    2    0    0  0.00000000000E+00  0.00000000000E+00 -0.35558464606E+03  0.36679779544E+03  0.90001012373E+02 0.  0.
        -13    1    3    3    0    0 -0.41544908185E+02 -0.35725399675E+01 -0.24675154642E+03  0.25025001119E+03  0.00000000000E+00 0. -1.
         13    1    3    3    0    0  0.41544908185E+02  0.35725399675E+01 -0.10883309963E+03  0.11654778425E+03  0.00000000000E+00 0.  1.
<mgrwt>
<rscale>  0 0.90001012E+02</rscale>
<asrwt>0</asrwt>
<pdfrwt beam="2">  1        2 0.55567883E-01 0.90001012E+02</pdfrwt>
<pdfrwt beam="1">  1       -2 0.86254991E-03 0.90001012E+02</pdfrwt>
<totfact> 0.19914311E+05</totfact>
</mgrwt>
</event>
<event>
 5    1  0.6043464E+000  0.9032972E+02  0.7546771E-02  0.1302055E+00
         -1   -1    0    0    0  501 -0.00000000000E+00  0.00000000000E+00  0.79076706678E+02  0.79076706678E+02  0.00000000000E+00 0.  1.
          1   -1    0    0  501    0  0.00000000000E+00 -0.00000000000E+00 -0.25796023892E+02  0.25796023892E+02  0.00000000000E+00 0. -1.
         23    2    1    2    0    0  0.00000000000E+00  0.00000000000E+00  0.53280682786E+02  0.10487273057E+03  0.90329720796E+02 0.  0.
        -13    1    3    3    0    0  0.28642411745E+02 -0.32618930073E+02  0.41117133489E+02  0.59791312212E+02  0.00000000000E+00 0.  1.
         13    1    3    3    0    0 -0.28642411745E+02  0.32618930073E+02  0.12163549297E+02  0.45081418358E+02  0.00000000000E+00 0. -1.
<mgrwt>
<rscale>  0 0.90329721E+02</rscale>
<asrwt>0</asrwt>
<pdfrwt beam="2">  1        1 0.39686191E-02 0.90329721E+02</pdfrwt>
<pdfrwt beam="1">  1       -1 0.12165647E-01 0.90329721E+02</pdfrwt>
<totfact> 0.86865206E+04</totfact>
</mgrwt>
</event>
<event>
 5    1  0.6043464E+000  0.8890986E+02  0.7546771E-02  0.1305513E+00
          1   -1    0    0  501    0  0.00000000000E+00  0.00000000000E+00  0.15389563361E+02  0.15389563361E+02  0.00000000000E+00 0. -1.
         -1   -1    0    0    0  501 -0.00000000000E+00 -0.00000000000E+00 -0.12841435729E+03  0.12841435729E+03  0.00000000000E+00 0.  1.
         23    2    1    2    0    0  0.00000000000E+00  0.00000000000E+00 -0.11302479393E+03  0.14380392065E+03  0.88909861951E+02 0.  0.
        -13    1    3    3    0    0 -0.18193525894E+02  0.38096304397E+02 -0.79035009243E+02  0.89603936739E+02  0.00000000000E+00 0.  1.
         13    1    3    3    0    0  0.18193525894E+02 -0.38096304397E+02 -0.33989784689E+02  0.54199983914E+02  0.00000000000E+00 0. -1.
<mgrwt>
<rscale>  0 0.88909862E+02</rscale>
<asrwt>0</asrwt>
<pdfrwt beam="1">  1        1 0.23676250E-02 0.88909862E+02</pdfrwt>
<pdfrwt beam="2">  1       -1 0.19756056E-01 0.88909862E+02</pdfrwt>
<totfact> 0.82634550E+04</totfact>
</mgrwt>
</event>
<event>
 5    1  0.6043464E+000  0.9348625E+02  0.7546771E-02  0.1294622E+00
         -1   -1    0    0    0  501 -0.00000000000E+00  0.00000000000E+00  0.43721206141E+02  0.43721206141E+02  0.00000000000E+00 0.  1.
          1   -1    0    0  501    0  0.00000000000E+00 -0.00000000000E+00 -0.49973911198E+02  0.49973911198E+02  0.00000000000E+00 0. -1.
         23    2    1    2    0    0  0.00000000000E+00  0.00000000000E+00 -0.62527050567E+01  0.93695117340E+02  0.93486248683E+02 0.  0.
        -13    1    3    3    0    0  0.35573513273E+02  0.25704988307E+02  0.12993686905E+02  0.45771794479E+02  0.00000000000E+00 0.  1.
         13    1    3    3    0    0 -0.35573513273E+02 -0.25704988307E+02 -0.19246391962E+02  0.47923322861E+02  0.00000000000E+00 0. -1.
<mgrwt>
<rscale>  0 0.93486249E+02</rscale>
<asrwt>0</asrwt>
<pdfrwt beam="2">  1        1 0.76882940E-02 0.93486249E+02</pdfrwt>
<pdfrwt beam="1">  1       -1 0.67263394E-02 0.93486249E+02</pdfrwt>
<totfact> 0.87407100E+04</totfact>
</mgrwt>
</event>
<event>
 5    1  0.6043464E+000  0.8759519E+02  0.7546771E-02  0.1308782E+00
          2   -1    0    0  501    0  0.00000000000E+00  0.00000000000E+00  0.11039783533E+02  0.11039783533E+02  0.00000000000E+00 0. -1.
         -2   -1    0    0    0  501 -0.00000000000E+00 -0.00000000000E+00 -0.17375604835E+03  0.17375604835E+03  0.00000000000E+00 0.  1.
         23    2    1    2    0    0  0.00000000000E+00  0.00000000000E+00 -0.16271626482E+03  0.18479583188E+03  0.87595186199E+02 0.  0.
        -13    1    3    3    0    0 -0.16899398628E+01 -0.41551936924E+02 -0.11034652939E+03  0.11792275399E+03  0.00000000000E+00 0.  1.
         13    1    3    3    0    0  0.16899398628E+01  0.41551936924E+02 -0.52369735426E+02  0.66873077898E+02  0.00000000000E+00 0. -1.
<mgrwt>
<rscale>  0 0.87595186E+02</rscale>
<asrwt>0</asrwt>
<pdfrwt beam="1">  1        2 0.16984284E-02 0.87595186E+02</pdfrwt>
<pdfrwt beam="2">  1       -2 0.26731698E-01 0.87595186E+02</pdfrwt>
<totfact> 0.73142425E+04</totfact>
</mgrwt>
</event>
<event>
 5    1  0.6043464E+000  0.7895665E+02  0.7546771E-02  0.1332039E+00
         -2   -1    0    0    0  501 -0.00000000000E+00  0.00000000000E+00  0.98009578301E+01  0.98009578301E+01  0.00000000000E+00 0.  1.
          2   -1    0    0  501    0  0.00000000000E+00 -0.00000000000E+00 -0.15901896381E+03  0.15901896381E+03  0.00000000000E+00 0. -1.
         23    2    1    2    0    0  0.00000000000E+00  0.00000000000E+00 -0.14921800598E+03  0.16881992164E+03  0.78956650346E+02 0.  0.
        -13    1    3    3    0    0 -0.17841474343E+02  0.35146670167E+02 -0.69860838833E+02  0.80213112600E+02  0.00000000000E+00 0.  1.
         13    1    3    3    0    0  0.17841474343E+02 -0.35146670167E+02 -0.79357167145E+02  0.88606809038E+02  0.00000000000E+00 0. -1.
<mgrwt>
<rscale>  0 0.78956650E+02</rscale>
<asrwt>0</asrwt>
<pdfrwt beam="2">  1        2 0.24464454E-01 0.78956650E+02</pdfrwt>
<pdfrwt beam="1">  1       -2 0.15078398E-02 0.78956650E+02</pdfrwt>
<totfact> 0.20986347E+05</totfact>
</mgrwt>
</event>
<event>
 5    1  0.6043464E+000  0.9011322E+02  0.7546771E-02  0.1302578E+00
          1   -1    0    0  501    0  0.00000000000E+00  0.00000000000E+00  0.92789376016E+01  0.92789376016E+01  0.00000000000E+00 0. -1.
         -1   -1    0    0    0  501 -0.00000000000E+00 -0.00000000000E+00 -0.21878564182E+03  0.21878564182E+03  0.00000000000E+00 0.  1.
         23    2    1    2    0    0  0.00000000000E+00  0.00000000000E+00 -0.20950670422E+03  0.22806457942E+03  0.90113224747E+02 0.  0.
        -13    1    3    3    0    0  0.25548050625E+02 -0.20556062023E+02 -0.18295852169E+03  0.18587381536E+03  0.00000000000E+00 0.  1.
         13    1    3    3    0    0 -0.25548050625E+02  0.20556062023E+02 -0.26548182526E+02  0.42190764061E+02  0.00000000000E+00 0. -1.
<mgrwt>
<rscale>  0 0.90113225E+02</rscale>
<asrwt>0</asrwt>
<pdfrwt beam="1">  1        1 0.14275288E-02 0.90113225E+02</pdfrwt>
<pdfrwt beam="2">  1       -1 0.33659330E-01 0.90113225E+02</pdfrwt>
<totfact> 0.69704611E+04</totfact>
</mgrwt>
</event>
<event>
 5    1  0.6043464E+000  0.8754829E+02  0.7546771E-02  0.1308900E+00
         -2   -1    0    0    0  501 -0.00000000000E+00  0.00000000000E+00  0.39947099051E+02  0.39947099051E+02  0.00000000000E+00 0.  1.
          2   -1    0    0  501    0  0.00000000000E+00 -0.00000000000E+00 -0.47967830116E+02  0.47967830116E+02  0.00000000000E+00 0. -1.
         23    2    1    2    0    0  0.00000000000E+00  0.00000000000E+00 -0.80207310654E+01  0.87914929167E+02  0.87548287497E+02 0.  0.
        -13    1    3    3    0    0 -0.40866138318E+02  0.94184487301E+01  0.85891803672E+01  0.42807971885E+02  0.00000000000E+00 0.  1.
         13    1    3    3    0    0  0.40866138318E+02 -0.94184487301E+01 -0.16609911433E+02  0.45106957283E+02  0.00000000000E+00 0. -1.
<mgrwt>
<rscale>  0 0.87548287E+02</rscale>
<asrwt>0</asrwt>
<pdfrwt beam="2">  1        2 0.73796661E-02 0.87548287E+02</pdfrwt>
<pdfrwt beam="1">  1       -2 0.61457076E-02 0.87548287E+02</pdfrwt>
<totfact> 0.11224007E+05</totfact>
</mgrwt>
</event>
<event>
 5    1  0.6043464E+000  0.9130102E+02  0.7546771E-02  0.1299731E+00
         -2   -1    0    0    0  501 -0.00000000000E+00  0.00000000000E+00  0.19552725701E+02  0.19552725701E+02  0.00000000000E+00 0.  1.
          2   -1    0    0  501    0  0.00000000000E+00 -0.00000000000E+00 -0.10658203180E+03  0.10658203180E+03  0.00000000000E+00 0. -1.
         23    2    1    2    0    0  0.00000000000E+00  0.00000000000E+00 -0.87029306104E+02  0.12613475751E+03  0.91301023709E+02 0.  0.
        -13    1    3    3    0    0 -0.15215969740E+02 -0.21556172836E+02 -0.94980443255E+02  0.98577273868E+02  0.00000000000E+00 0. -1.
         13    1    3    3    0    0  0.15215969740E+02  0.21556172836E+02  0.79511371510E+01  0.27557483638E+02  0.00000000000E+00 0.  1.
<mgrwt>
<rscale>  0 0.91301024E+02</rscale>
<asrwt>0</asrwt>
<pdfrwt beam="2">  1        2 0.16397235E-01 0.91301024E+02</pdfrwt>
<pdfrwt beam="1">  1       -2 0.30081117E-02 0.91301024E+02</pdfrwt>
<totfact> 0.12463526E+05</totfact>
</mgrwt>
</event>
<event>
 5    1  0.6043464E+000  0.9055040E+02  0.7546771E-02  0.1301524E+00
         -1   -1    0    0    0  501 -0.00000000000E+00  0.00000000000E+00  0.16682047044E+02  0.16682047044E+02  0.00000000000E+00 0.  1.
          1   -1    0    0  501    0  0.00000000000E+00 -0.00000000000E+00 -0.12287723545E+03  0.12287723545E+03  0.00000000000E+00 0. -1.
         23    2    1    2    0    0  0.00000000000E+00  0.00000000000E+00 -0.10619518840E+03  0.13955928249E+03  0.90550401930E+02 0.  0.
        -13    1    3    3    0    0 -0.43775092762E+02  0.94501965614E+01 -0.42841864494E+02  0.61975723591E+02  0.00000000000E+00 0. -1.
         13    1    3    3    0    0  0.43775092762E+02 -0.94501965614E+01 -0.63353323911E+02  0.77583558902E+02  0.00000000000E+00 0.  1.
<mgrwt>
<rscale>  0 0.90550402E+02</rscale>
<asrwt>0</asrwt>
<pdfrwt beam="2">  1        1 0.18904191E-01 0.90550402E+02</pdfrwt>
<pdfrwt beam="1">  1       -1 0.25664687E-02 0.90550402E+02</pdfrwt>
<totfact> 0.11022385E+05</totfact>
</mgrwt>
</event>
<event>
 5    1  0.6043464E+000  0.9108059E+02  0.7546771E-02  0.1300256E+00
         -4   -1    0    0    0  501 -0.00000000000E+00  0.00000000000E+00  0.21419245890E+02  0.21419245890E+02  0.00000000000E+00 0.  1.
          4   -1    0    0  501    0  0.00000000000E+00 -0.00000000000E+00 -0.96825007596E+02  0.96825007596E+02  0.00000000000E+00 0. -1.
         23    2    1    2    0    0  0.00000000000E+00  0.00000000000E+00 -0.75405761705E+02  0.11824425349E+03  0.91080593894E+02 0.  0.
        -13    1    3    3    0    0  0.96926264305E+01 -0.33223237855E+02  0.72556904833E+00  0.34615848844E+02  0.00000000000E+00 0.  1.
         13    1    3    3    0    0 -0.96926264305E+01  0.33223237855E+02 -0.76131330754E+02  0.83628404643E+02  0.00000000000E+00 0. -1.
<mgrwt>
<rscale>  0 0.91080594E+02</rscale>
<asrwt>0</asrwt>
<pdfrwt beam="2">  1        4 0.14896155E-01 0.91080594E+02</pdfrwt>
<pdfrwt beam="1">  1       -4 0.32952686E-02 0.91080594E+02</pdfrwt>
<totfact> 0.25445307E+04</totfact>
</mgrwt>
</event>
<event>
 5    1  0.6043464E+000  0.9475061E+02  0.7546771E-02  0.1291739E+00
         -1   -1    0    0    0  501 -0.00000000000E+00  0.00000000000E+00  0.87957157001E+02  0.87957157001E+02  0.00000000000E+00 0.  1.
          1   -1    0    0  501    0  0.00000000000E+00 -0.00000000000E+00 -0.25517188290E+02  0.25517188290E+02  0.00000000000E+00 0. -1.
         23    2    1    2    0    0  0.00000000000E+00  0.00000000000E+00  0.62439968711E+02  0.11347434529E+03  0.94750606049E+02 0.  0.
        -13    1    3    3    0    0  0.35494370801E+02  0.30855146135E+02  0.24389513976E+02  0.52978663569E+02  0.00000000000E+00 0.  1.
         13    1    3    3    0    0 -0.35494370801E+02 -0.30855146135E+02  0.38050454735E+02  0.60495681723E+02  0.00000000000E+00 0. -1.
<mgrwt>
<rscale>  0 0.94750606E+02</rscale>
<asrwt>0</asrwt>
<pdfrwt beam="2">  1        1 0.39257213E-02 0.94750606E+02</pdfrwt>
<pdfrwt beam="1">  1       -1 0.13531870E-01 0.94750606E+02</pdfrwt>
<totfact> 0.75442842E+04</totfact>
</mgrwt>
</event>
<event>
 5    1  0.6043464E+000  0.9013005E+02  0.7546771E-02  0.1302537E+00
         -4   -1    0    0    0  501 -0.00000000000E+00  0.00000000000E+00  0.96195449134E+01  0.96195449134E+01  0.00000000000E+00 0.  1.
          4   -1    0    0  501    0  0.00000000000E+00 -0.00000000000E+00 -0.21111772043E+03  0.21111772043E+03  0.00000000000E+00 0. -1.
         23    2    1    2    0    0  0.00000000000E+00  0.00000000000E+00 -0.20149817551E+03  0.22073726534E+03  0.90130048123E+02 0.  0.
        -13    1    3    3    0    0  0.11903478768E+02  0.34994666530E+02 -0.16388342212E+03  0.16800028434E+03  0.00000000000E+00 0. -1.
         13    1    3    3    0    0 -0.11903478768E+02 -0.34994666530E+02 -0.37614753396E+02  0.52736981003E+02  0.00000000000E+00 0.  1.
<mgrwt>
<rscale>  0 0.90130048E+02</rscale>
<asrwt>0</asrwt>
<pdfrwt beam="2">  1        4 0.32479648E-01 0.90130048E+02</pdfrwt>
<pdfrwt beam="1">  1       -4 0.14799301E-02 0.90130048E+02</pdfrwt>
<totfact> 0.21192695E+04</totfact>
</mgrwt>
</event>
<event>
 5    1  0.6043464E+000  0.8869496E+02  0.7546771E-02  0.1306043E+00
          3   -1    0    0  501    0  0.00000000000E+00  0.00000000000E+00  0.37458982696E+02  0.37458982696E+02  0.00000000000E+00 0. -1.
         -3   -1    0    0    0  501 -0.00000000000E+00 -0.00000000000E+00 -0.52502730282E+02  0.52502730282E+02  0.00000000000E+00 0.  1.
         23    2    1    2    0    0  0.00000000000E+00  0.00000000000E+00 -0.15043747586E+02  0.89961712978E+02  0.88694957357E+02 0.  0.
        -13    1    3    3    0    0 -0.22786310049E+02 -0.16022300461E+01  0.31033068449E+02  0.38533549073E+02  0.00000000000E+00 0. -1.
         13    1    3    3    0    0  0.22786310049E+02  0.16022300461E+01 -0.46076816035E+02  0.51428163905E+02  0.00000000000E+00 0.  1.
<mgrwt>
<rscale>  0 0.88694957E+02</rscale>
<asrwt>0</asrwt>
<pdfrwt beam="1">  1        3 0.57629205E-02 0.88694957E+02</pdfrwt>
<pdfrwt beam="2">  1       -3 0.80773430E-02 0.88694957E+02</pdfrwt>
<totfact> 0.38191496E+04</totfact>
</mgrwt>
</event>
<event>
 5    1  0.6043464E+000  0.8925070E+02  0.7546771E-02  0.1304676E+00
         -3   -1    0    0    0  501 -0.00000000000E+00  0.00000000000E+00  0.21729888148E+03  0.21729888148E+03  0.00000000000E+00 0.  1.
          3   -1    0    0  501    0  0.00000000000E+00 -0.00000000000E+00 -0.91644374164E+01  0.91644374164E+01  0.00000000000E+00 0. -1.
         23    2    1    2    0    0  0.00000000000E+00  0.00000000000E+00  0.20813444406E+03  0.22646331889E+03  0.89250703077E+02 0.  0.
        -13    1    3    3    0    0 -0.14289594653E+02  0.28417609286E+02  0.18348649322E+03  0.18622310874E+03  0.00000000000E+00 0.  1.
         13    1    3    3    0    0  0.14289594653E+02 -0.28417609286E+02  0.24647950839E+02  0.40240210156E+02  0.00000000000E+00 0. -1.
<mgrwt>
<rscale>  0 0.89250703E+02</rscale>
<asrwt>0</asrwt>
<pdfrwt beam="2">  1        3 0.14099136E-02 0.89250703E+02</pdfrwt>
<pdfrwt beam="1">  1       -3 0.33430593E-01 0.89250703E+02</pdfrwt>
<totfact> 0.28788177E+04</totfact>
</mgrwt>
</event>
<event>
 5    1  0.6043464E+000  0.9335091E+02  0.7546771E-02  0.1294934E+00
          3   -1    0    0  501    0  0.00000000000E+00  0.00000000000E+00  0.14818660848E+03  0.14818660848E+03  0.00000000000E+00 0. -1.
         -3   -1    0    0    0  501 -0.00000000000E+00 -0.00000000000E+00 -0.14701721965E+02  0.14701721965E+02  0.00000000000E+00 0.  1.
         23    2    1    2    0    0  0.00000000000E+00  0.00000000000E+00  0.13348488652E+03  0.16288833045E+03  0.93350914656E+02 0.  0.
        -13    1    3    3    0    0  0.33504805178E+02 -0.26321903436E+02  0.33489155046E+02  0.54193524301E+02  0.00000000000E+00 0.  1.
         13    1    3    3    0    0 -0.33504805178E+02  0.26321903436E+02  0.99995731470E+02  0.10869480614E+03  0.00000000000E+00 0. -1.
<mgrwt>
<rscale>  0 0.93350915E+02</rscale>
<asrwt>0</asrwt>
<pdfrwt beam="1">  1        3 0.22797939E-01 0.93350915E+02</pdfrwt>
<pdfrwt beam="2">  1       -3 0.22618035E-02 0.93350915E+02</pdfrwt>
<totfact> 0.28645507E+04</totfact>
</mgrwt>
</event>
<event>
 5    1  0.6043464E+000  0.8960996E+02  0.7546771E-02  0.1303799E+00
         -2   -1    0    0    0  501 -0.00000000000E+00  0.00000000000E+00  0.19410179377E+02  0.19410179377E+02  0.00000000000E+00 0.  1.
          2   -1    0    0  501    0  0.00000000000E+00 -0.00000000000E+00 -0.10342441435E+03  0.10342441435E+03  0.00000000000E+00 0. -1.
         23    2    1    2    0    0  0.00000000000E+00  0.00000000000E+00 -0.84014234974E+02  0.12283459373E+03  0.89609964501E+02 0.  0.
        -13    1    3    3    0    0  0.29905425795E+02  0.23604974513E+02 -0.96860990464E+01  0.39310937771E+02  0.00000000000E+00 0.  1.
         13    1    3    3    0    0 -0.29905425795E+02 -0.23604974513E+02 -0.74328135928E+02  0.83523655956E+02  0.00000000000E+00 0. -1.
<mgrwt>
<rscale>  0 0.89609965E+02</rscale>
<asrwt>0</asrwt>
<pdfrwt beam="2">  1        2 0.15911448E-01 0.89609965E+02</pdfrwt>
<pdfrwt beam="1">  1       -2 0.29861814E-02 0.89609965E+02</pdfrwt>
<totfact> 0.12998416E+05</totfact>
</mgrwt>
</event>
<event>
 5    1  0.6043464E+000  0.9163527E+02  0.7546771E-02  0.1298939E+00
         -2   -1    0    0    0  501 -0.00000000000E+00  0.00000000000E+00  0.21854471873E+03  0.21854471873E+03  0.00000000000E+00 0.  1.
          2   -1    0    0  501    0  0.00000000000E+00 -0.00000000000E+00 -0.96056117298E+01  0.96056117298E+01  0.00000000000E+00 0. -1.
         23    2    1    2    0    0  0.00000000000E+00  0.00000000000E+00  0.20893910700E+03  0.22815033046E+03  0.91635270802E+02 0.  0.
        -13    1    3    3    0    0 -0.14116323683E+01  0.45358937756E+02  0.88756436198E+02  0.99685158910E+02  0.00000000000E+00 0. -1.
         13    1    3    3    0    0  0.14116323683E+01 -0.45358937756E+02  0.12018267080E+03  0.12846517155E+03  0.00000000000E+00 0.  1.
<mgrwt>
<rscale>  0 0.91635271E+02</rscale>
<asrwt>0</asrwt>
<pdfrwt beam="2">  1        2 0.14777866E-02 0.91635271E+02</pdfrwt>
<pdfrwt beam="1">  1       -2 0.33622261E-01 0.91635271E+02</pdfrwt>
<totfact> 0.59142113E+04</totfact>
</mgrwt>
</event>
<event>
 5    1  0.6043464E+000  0.8416240E+02  0.7546771E-02  0.1317638E+00
          1   -1    0    0  501    0  0.00000000000E+00  0.00000000000E+00  0.10684173748E+03  0.10684173748E+03  0.00000000000E+00 0. -1.
         -1   -1    0    0    0  501 -0.00000000000E+00 -0.00000000000E+00 -0.16574301745E+02  0.16574301745E+02  0.00000000000E+00 0.  1.
         23    2    1    2    0    0  0.00000000000E+00  0.00000000000E+00  0.90267435730E+02  0.12341603922E+03  0.84162395305E+02 0.  0.
        -13    1    3    3    0    0 -0.13028680505E+02 -0.11155622449E+02 -0.11215743377E+02  0.20493592350E+02  0.00000000000E+00 0.  1.
         13    1    3    3    0    0  0.13028680505E+02  0.11155622449E+02  0.10148317911E+03  0.10292244687E+03  0.00000000000E+00 0. -1.
<mgrwt>
<rscale>  0 0.84162395E+02</rscale>
<asrwt>0</asrwt>
<pdfrwt beam="1">  1        1 0.16437190E-01 0.84162395E+02</pdfrwt>
<pdfrwt beam="2">  1       -1 0.25498926E-02 0.84162395E+02</pdfrwt>
<totfact> 0.13115208E+05</totfact>
</mgrwt>
</event>
<event>
 5    1  0.6043464E+000  0.9007142E+02  0.7546771E-02  0.1302679E+00
          1   -1    0    0  501    0  0.00000000000E+00  0.00000000000E+00  0.17436333471E+02  0.17436333471E+02  0.00000000000E+00 0. -1.
         -1   -1    0    0    0  501 -0.00000000000E+00 -0.00000000000E+00 -0.11632119326E+03  0.11632119326E+03  0.00000000000E+00 0.  1.
         23    2    1    2    0    0  0.00000000000E+00  0.00000000000E+00 -0.98884859791E+02  0.13375752673E+03  0.90071418674E+02 0.  0.
        -13    1    3    3    0    0  0.39624379168E+02  0.11516706837E+02 -0.76234081545E+02  0.86685414862E+02  0.00000000000E+00 0.  1.
         13    1    3    3    0    0 -0.39624379168E+02 -0.11516706837E+02 -0.22650778246E+02  0.47072111871E+02  0.00000000000E+00 0. -1.
<mgrwt>
<rscale>  0 0.90071419E+02</rscale>
<asrwt>0</asrwt>
<pdfrwt beam="1">  1        1 0.26825127E-02 0.90071419E+02</pdfrwt>
<pdfrwt beam="2">  1       -1 0.17895569E-01 0.90071419E+02</pdfrwt>
<totfact> 0.81555604E+04</totfact>
</mgrwt>
</event>
<event>
 5    1  0.6043464E+000  0.9163273E+02  0.7546771E-02  0.1298945E+00
         -1   -1    0    0    0  501 -0.00000000000E+00  0.00000000000E+00  0.17727492785E+03  0.17727492785E+03  0.00000000000E+00 0.  1.
          1   -1    0    0  501    0  0.00000000000E+00 -0.00000000000E+00 -0.11841151170E+02  0.11841151170E+02  0.00000000000E+00 0. -1.
         23    2    1    2    0    0  0.00000000000E+00  0.00000000000E+00  0.16543377668E+03  0.18911607902E+03  0.91632728200E+02 0.  0.
        -13    1    3    3    0    0  0.11842773709E+02 -0.44054099763E+02  0.73930557504E+02  0.86871988166E+02  0.00000000000E+00 0. -1.
         13    1    3    3    0    0 -0.11842773709E+02  0.44054099763E+02  0.91503219176E+02  0.10224409085E+03  0.00000000000E+00 0.  1.
<mgrwt>
<rscale>  0 0.91632728E+02</rscale>
<asrwt>0</asrwt>
<pdfrwt beam="2">  1        1 0.18217157E-02 0.91632728E+02</pdfrwt>
<pdfrwt beam="1">  1       -1 0.27273064E-01 0.91632728E+02</pdfrwt>
<totfact> 0.70831667E+04</totfact>
</mgrwt>
</event>
<event>
 5    1  0.6043464E+000  0.9204367E+02  0.7546771E-02  0.1297977E+00
          2   -1    0    0  501    0  0.00000000000E+00  0.00000000000E+00  0.68286805275E+02  0.68286805275E+02  0.00000000000E+00 0. -1.
         -2   -1    0    0    0  501 -0.00000000000E+00 -0.00000000000E+00 -0.31016379229E+02  0.31016379229E+02  0.00000000000E+00 0.  1.
         23    2    1    2    0    0  0.00000000000E+00  0.00000000000E+00  0.37270426046E+02  0.99303184503E+02  0.92043673302E+02 0.  0.
        -13    1    3    3    0    0 -0.27167701804E+02 -0.37014147823E+02  0.15244351271E+02  0.48378935561E+02  0.00000000000E+00 0.  1.
         13    1    3    3    0    0  0.27167701804E+02  0.37014147823E+02  0.22026074774E+02  0.50924248942E+02  0.00000000000E+00 0. -1.
<mgrwt>
<rscale>  0 0.92043673E+02</rscale>
<asrwt>0</asrwt>
<pdfrwt beam="1">  1        2 0.10505662E-01 0.92043673E+02</pdfrwt>
<pdfrwt beam="2">  1       -2 0.47717507E-02 0.92043673E+02</pdfrwt>
<totfact> 0.10698608E+05</totfact>
</mgrwt>
</event>
<event>
 5    1  0.6043464E+000  0.9155433E+02  0.7546771E-02  0.1299131E+00
         -1   -1    0    0    0  501 -0.00000000000E+00  0.00000000000E+00  0.36753719753E+02  0.36753719753E+02  0.00000000000E+00 0.  1.
          1   -1    0    0  501    0  0.00000000000E+00 -0.00000000000E+00 -0.57015963514E+02  0.57015963514E+02  0.00000000000E+00 0. -1.
         23    2    1    2    0    0  0.00000000000E+00  0.00000000000E+00 -0.20262243762E+02  0.93769683267E+02  0.91554328012E+02 0.  0.
        -13    1    3    3    0    0 -0.25743591013E+02 -0.19644872026E+02 -0.43269800584E+02  0.54045620709E+02  0.00000000000E+00 0. -1.
         13    1    3    3    0    0  0.25743591013E+02  0.19644872026E+02  0.23007556823E+02  0.39724062558E+02  0.00000000000E+00 0.  1.
<mgrwt>
<rscale>  0 0.91554328E+02</rscale>
<asrwt>0</asrwt>
<pdfrwt beam="2">  1        1 0.87716866E-02 0.91554328E+02</pdfrwt>
<pdfrwt beam="1">  1       -1 0.56544185E-02 0.91554328E+02</pdfrwt>
<totfact> 0.94538455E+04</totfact>
</mgrwt>
</event>
<event>
 5    1  0.6043464E+000  0.9201475E+02  0.7546771E-02  0.1298045E+00
         -2   -1    0    0    0  501 -0.00000000000E+00  0.00000000000E+00  0.96739006120E+01  0.96739006120E+01  0.00000000000E+00 0. -1.
          2   -1    0    0  501    0  0.00000000000E+00 -0.00000000000E+00 -0.21880298756E+03  0.21880298756E+03  0.00000000000E+00 0.  1.
         23    2    1    2    0    0  0.00000000000E+00  0.00000000000E+00 -0.20912908694E+03  0.22847688817E+03  0.92014745671E+02 0.  0.
        -13    1    3    3    0    0  0.21848123972E+02  0.31468626409E+02 -0.41304658107E+02  0.56335510563E+02  0.00000000000E+00 0.  1.
         13    1    3    3    0    0 -0.21848123972E+02 -0.31468626409E+02 -0.16782442884E+03  0.17214137761E+03  0.00000000000E+00 0. -1.
<mgrwt>
<rscale>  0 0.92014746E+02</rscale>
<asrwt>0</asrwt>
<pdfrwt beam="2">  1        2 0.33661997E-01 0.92014746E+02</pdfrwt>
<pdfrwt beam="1">  1       -2 0.14882925E-02 0.92014746E+02</pdfrwt>
<totfact> 0.15593595E+05</totfact>
</mgrwt>
</event>
<event>
 5    1  0.6043464E+000  0.9054339E+02  0.7546771E-02  0.1301541E+00
         -1   -1    0    0    0  501 -0.00000000000E+00  0.00000000000E+00  0.11178398027E+02  0.11178398027E+02  0.00000000000E+00 0.  1.
          1   -1    0    0  501    0  0.00000000000E+00 -0.00000000000E+00 -0.18334704789E+03  0.18334704789E+03  0.00000000000E+00 0. -1.
         23    2    1    2    0    0  0.00000000000E+00  0.00000000000E+00 -0.17216864986E+03  0.19452544591E+03  0.90543388016E+02 0.  0.
        -13    1    3    3    0    0  0.44410558928E+02 -0.55599285391E+00 -0.67241863318E+02  0.80585824156E+02  0.00000000000E+00 0.  1.
         13    1    3    3    0    0 -0.44410558928E+02  0.55599285391E+00 -0.10492678654E+03  0.11393962176E+03  0.00000000000E+00 0. -1.
<mgrwt>
<rscale>  0 0.90543388E+02</rscale>
<asrwt>0</asrwt>
<pdfrwt beam="2">  1        1 0.28207239E-01 0.90543388E+02</pdfrwt>
<pdfrwt beam="1">  1       -1 0.17197535E-02 0.90543388E+02</pdfrwt>
<totfact> 0.11863560E+05</totfact>
</mgrwt>
</event>
<event>
 5    1  0.6043464E+000  0.9308297E+02  0.7546771E-02  0.1295553E+00
         -1   -1    0    0    0  501 -0.00000000000E+00  0.00000000000E+00  0.13118396945E+03  0.13118396945E+03  0.00000000000E+00 0.  1.
          1   -1    0    0  501    0  0.00000000000E+00 -0.00000000000E+00 -0.16511999425E+02  0.16511999425E+02  0.00000000000E+00 0. -1.
         23    2    1    2    0    0  0.00000000000E+00  0.00000000000E+00  0.11467197002E+03  0.14769596887E+03  0.93082965748E+02 0.  0.
        -13    1    3    3    0    0  0.35976628893E+02  0.14485020999E+02  0.16511610277E+02  0.42151713297E+02  0.00000000000E+00 0. -1.
         13    1    3    3    0    0 -0.35976628893E+02 -0.14485020999E+02  0.98160359743E+02  0.10554425557E+03  0.00000000000E+00 0.  1.
<mgrwt>
<rscale>  0 0.93082966E+02</rscale>
<asrwt>0</asrwt>
<pdfrwt beam="2">  1        1 0.25403077E-02 0.93082966E+02</pdfrwt>
<pdfrwt beam="1">  1       -1 0.20182148E-01 0.93082966E+02</pdfrwt>
<totfact> 0.73048138E+04</totfact>
</mgrwt>
</event>
<event>
 5    1  0.6043464E+000  0.8956026E+02  0.7546771E-02  0.1303920E+00
         -1   -1    0    0    0  501 -0.00000000000E+00  0.00000000000E+00  0.17789618998E+03  0.17789618998E+03  0.00000000000E+00 0. -1.
          1   -1    0    0  501    0  0.00000000000E+00 -0.00000000000E+00 -0.11272080151E+02  0.11272080151E+02  0.00000000000E+00 0.  1.
         23    2    1    2    0    0  0.00000000000E+00  0.00000000000E+00  0.16662410983E+03  0.18916827013E+03  0.89560261546E+02 0.  0.
        -13    1    3    3    0    0 -0.35862056865E+02 -0.25497912354E+02  0.65763144312E+02  0.79126618826E+02  0.00000000000E+00 0.  1.
         13    1    3    3    0    0  0.35862056865E+02  0.25497912354E+02  0.10086096551E+03  0.11004165130E+03  0.00000000000E+00 0. -1.
<mgrwt>
<rscale>  0 0.89560262E+02</rscale>
<asrwt>0</asrwt>
<pdfrwt beam="2">  1        1 0.17341663E-02 0.89560262E+02</pdfrwt>
<pdfrwt beam="1">  1       -1 0.27368643E-01 0.89560262E+02</pdfrwt>
<totfact> 0.75102945E+04</totfact>
</mgrwt>
</event>
<event>
 5    1  0.6043464E+000  0.9421475E+02  0.7546771E-02  0.1292955E+00
          1   -1    0    0  501    0  0.00000000000E+00  0.00000000000E+00  0.67533580400E+02  0.67533580400E+02  0.00000000000E+00 0. -1.
         -1   -1    0    0    0  501 -0.00000000000E+00 -0.00000000000E+00 -0.32859277168E+02  0.32859277168E+02  0.00000000000E+00 0.  1.
         23    2    1    2    0    0  0.00000000000E+00  0.00000000000E+00  0.34674303233E+02  0.10039285757E+03  0.94214746966E+02 0.  0.
        -13    1    3    3    0    0 -0.25377290536E+02 -0.26467627625E+02  0.48849396534E+02  0.61080321944E+02  0.00000000000E+00 0. -1.
         13    1    3    3    0    0  0.25377290536E+02  0.26467627625E+02 -0.14175093301E+02  0.39312535624E+02  0.00000000000E+00 0.  1.
<mgrwt>
<rscale>  0 0.94214747E+02</rscale>
<asrwt>0</asrwt>
<pdfrwt beam="1">  1        1 0.10389782E-01 0.94214747E+02</pdfrwt>
<pdfrwt beam="2">  1       -1 0.50552734E-02 0.94214747E+02</pdfrwt>
<totfact> 0.89606076E+04</totfact>
</mgrwt>
</event>
<event>
 5    1  0.6043464E+000  0.8453030E+02  0.7546771E-02  0.1316665E+00
         -2   -1    0    0    0  501 -0.00000000000E+00  0.00000000000E+00  0.30515637210E+02  0.30515637210E+02  0.00000000000E+00 0. -1.
          2   -1    0    0  501    0  0.00000000000E+00 -0.00000000000E+00 -0.58538605231E+02  0.58538605231E+02  0.00000000000E+00 0.  1.
         23    2    1    2    0    0  0.00000000000E+00  0.00000000000E+00 -0.28022968021E+02  0.89054242441E+02  0.84530298474E+02 0.  0.
        -13    1    3    3    0    0  0.39189650565E+02  0.15393415052E+02 -0.17890507719E+02  0.45747745352E+02  0.00000000000E+00 0.  1.
         13    1    3    3    0    0 -0.39189650565E+02 -0.15393415052E+02 -0.10132460302E+02  0.43306497089E+02  0.00000000000E+00 0. -1.
<mgrwt>
<rscale>  0 0.84530298E+02</rscale>
<asrwt>0</asrwt>
<pdfrwt beam="2">  1        2 0.90059392E-02 0.84530298E+02</pdfrwt>
<pdfrwt beam="1">  1       -2 0.46947134E-02 0.84530298E+02</pdfrwt>
<totfact> 0.13028009E+05</totfact>
</mgrwt>
</event>
<event>
 5    1  0.6043464E+000  0.9131814E+02  0.7546771E-02  0.1299691E+00
         -2   -1    0    0    0  501 -0.00000000000E+00  0.00000000000E+00  0.86990761566E+02  0.86990761566E+02  0.00000000000E+00 0.  1.
          2   -1    0    0  501    0  0.00000000000E+00 -0.00000000000E+00 -0.23965193849E+02  0.23965193849E+02  0.00000000000E+00 0. -1.
         23    2    1    2    0    0  0.00000000000E+00  0.00000000000E+00  0.63025567717E+02  0.11095595541E+03  0.91318135417E+02 0.  0.
        -13    1    3    3    0    0  0.15531891155E+02  0.21610410596E+02  0.76592569659E+02  0.81084346307E+02  0.00000000000E+00 0.  1.
         13    1    3    3    0    0 -0.15531891155E+02 -0.21610410596E+02 -0.13567001942E+02  0.29871609108E+02  0.00000000000E+00 0. -1.
<mgrwt>
<rscale>  0 0.91318135E+02</rscale>
<asrwt>0</asrwt>
<pdfrwt beam="2">  1        2 0.36869530E-02 0.91318135E+02</pdfrwt>
<pdfrwt beam="1">  1       -2 0.13383194E-01 0.91318135E+02</pdfrwt>
<totfact> 0.82789728E+04</totfact>
</mgrwt>
</event>
<event>
 5    1  0.6043464E+000  0.9064474E+02  0.7546771E-02  0.1301298E+00
         -3   -1    0    0    0  501 -0.00000000000E+00  0.00000000000E+00  0.18683050515E+02  0.18683050515E+02  0.00000000000E+00 0.  1.
          3   -1    0    0  501    0  0.00000000000E+00 -0.00000000000E+00 -0.10994548845E+03  0.10994548845E+03  0.00000000000E+00 0. -1.
         23    2    1    2    0    0  0.00000000000E+00  0.00000000000E+00 -0.91262437940E+02  0.12862853897E+03  0.90644737623E+02 0.  0.
        -13    1    3    3    0    0 -0.32761931489E+02 -0.26036991665E+02 -0.70326109955E+02  0.81835388623E+02  0.00000000000E+00 0.  1.
         13    1    3    3    0    0  0.32761931489E+02  0.26036991665E+02 -0.20936327985E+02  0.46793150346E+02  0.00000000000E+00 0. -1.
<mgrwt>
<rscale>  0 0.90644738E+02</rscale>
<asrwt>0</asrwt>
<pdfrwt beam="2">  1        3 0.16914690E-01 0.90644738E+02</pdfrwt>
<pdfrwt beam="1">  1       -3 0.28743155E-02 0.90644738E+02</pdfrwt>
<totfact> 0.33188589E+04</totfact>
</mgrwt>
</event>
<event>
 5    1  0.6043464E+000  0.9333025E+02  0.7546771E-02  0.1294982E+00
          2   -1    0    0  501    0  0.00000000000E+00  0.00000000000E+00  0.22187122805E+02  0.22187122805E+02  0.00000000000E+00 0. -1.
         -2   -1    0    0    0  501 -0.00000000000E+00 -0.00000000000E+00 -0.98148554285E+02  0.98148554285E+02  0.00000000000E+00 0.  1.
         23    2    1    2    0    0  0.00000000000E+00  0.00000000000E+00 -0.75961431480E+02  0.12033567709E+03  0.93330252909E+02 0.  0.
        -13    1    3    3    0    0 -0.40269635175E+01  0.43220105090E+02 -0.60067459874E+02  0.74110010490E+02  0.00000000000E+00 0.  1.
         13    1    3    3    0    0  0.40269635175E+01 -0.43220105090E+02 -0.15893971606E+02  0.46225666599E+02  0.00000000000E+00 0. -1.
<mgrwt>
<rscale>  0 0.93330253E+02</rscale>
<asrwt>0</asrwt>
<pdfrwt beam="1">  1        2 0.34134036E-02 0.93330253E+02</pdfrwt>
<pdfrwt beam="2">  1       -2 0.15099777E-01 0.93330253E+02</pdfrwt>
<totfact> 0.75723391E+04</totfact>
</mgrwt>
</event>
<event>
 5    1  0.6043464E+000  0.9331421E+02  0.7546771E-02  0.1295019E+00
          1   -1    0    0  501    0  0.00000000000E+00  0.00000000000E+00  0.64988382648E+02  0.64988382648E+02  0.00000000000E+00 0. -1.
         -1   -1    0    0    0  501 -0.00000000000E+00 -0.00000000000E+00 -0.33496531447E+02  0.33496531447E+02  0.00000000000E+00 0.  1.
         23    2    1    2    0    0  0.00000000000E+00  0.00000000000E+00  0.31491851201E+02  0.98484914095E+02  0.93314209059E+02 0.  0.
        -13    1    3    3    0    0  0.18864571059E+02  0.28246164157E+02  0.49505371887E+02  0.60037485594E+02  0.00000000000E+00 0. -1.
         13    1    3    3    0    0 -0.18864571059E+02 -0.28246164157E+02 -0.18013520686E+02  0.38447428501E+02  0.00000000000E+00 0.  1.
<mgrwt>
<rscale>  0 0.93314209E+02</rscale>
<asrwt>0</asrwt>
<pdfrwt beam="1">  1        1 0.99982127E-02 0.93314209E+02</pdfrwt>
<pdfrwt beam="2">  1       -1 0.51533125E-02 0.93314209E+02</pdfrwt>
<totfact> 0.91478201E+04</totfact>
</mgrwt>
</event>
<event>
 5    1  0.6043464E+000  0.9068336E+02  0.7546771E-02  0.1301205E+00
         -1   -1    0    0    0  501 -0.00000000000E+00  0.00000000000E+00  0.67486521357E+02  0.67486521357E+02  0.00000000000E+00 0.  1.
          1   -1    0    0  501    0  0.00000000000E+00 -0.00000000000E+00 -0.30463382745E+02  0.30463382745E+02  0.00000000000E+00 0. -1.
         23    2    1    2    0    0  0.00000000000E+00  0.00000000000E+00  0.37023138612E+02  0.97949904103E+02  0.90683355259E+02 0.  0.
        -13    1    3    3    0    0  0.15001210209E+02 -0.28220471017E+02 -0.16228312754E+02  0.35843959421E+02  0.00000000000E+00 0. -1.
         13    1    3    3    0    0 -0.15001210209E+02  0.28220471017E+02  0.53251451366E+02  0.62105944681E+02  0.00000000000E+00 0.  1.
<mgrwt>
<rscale>  0 0.90683355E+02</rscale>
<asrwt>0</asrwt>
<pdfrwt beam="2">  1        1 0.46866743E-02 0.90683355E+02</pdfrwt>
<pdfrwt beam="1">  1       -1 0.10382542E-01 0.90683355E+02</pdfrwt>
<totfact> 0.88260674E+04</totfact>
</mgrwt>
</event>
<event>
 5    1  0.6043464E+000  0.8920902E+02  0.7546771E-02  0.1304779E+00
         -2   -1    0    0    0  501 -0.00000000000E+00  0.00000000000E+00  0.10282945811E+02  0.10282945811E+02  0.00000000000E+00 0.  1.
          2   -1    0    0  501    0  0.00000000000E+00 -0.00000000000E+00 -0.19348173123E+03  0.19348173123E+03  0.00000000000E+00 0. -1.
         23    2    1    2    0    0  0.00000000000E+00  0.00000000000E+00 -0.18319878541E+03  0.20376467704E+03  0.89209016532E+02 0.  0.
        -13    1    3    3    0    0 -0.24295019674E+02  0.34256903402E+02 -0.57278254895E+02  0.71025220137E+02  0.00000000000E+00 0. -1.
         13    1    3    3    0    0  0.24295019674E+02 -0.34256903402E+02 -0.12592053052E+03  0.13273945690E+03  0.00000000000E+00 0.  1.
<mgrwt>
<rscale>  0 0.89209017E+02</rscale>
<asrwt>0</asrwt>
<pdfrwt beam="2">  1        2 0.29766421E-01 0.89209017E+02</pdfrwt>
<pdfrwt beam="1">  1       -2 0.15819916E-02 0.89209017E+02</pdfrwt>
<totfact> 0.16207879E+05</totfact>
</mgrwt>
</event>
<event>
 5    1  0.6043464E+000  0.8063820E+02  0.7546771E-02  0.1327250E+00
          1   -1    0    0  501    0  0.00000000000E+00  0.00000000000E+00  0.46484731017E+01  0.46484731017E+01  0.00000000000E+00 0. -1.
         -1   -1    0    0    0  501 -0.00000000000E+00 -0.00000000000E+00 -0.34971263731E+03  0.34971263731E+03  0.00000000000E+00 0.  1.
         23    2    1    2    0    0  0.00000000000E+00  0.00000000000E+00 -0.34506416421E+03  0.35436111041E+03  0.80638199083E+02 0.  0.
        -13    1    3    3    0    0  0.39483633928E+02  0.80899118682E+01 -0.16766678958E+03  0.17244290750E+03  0.00000000000E+00 0. -1.
         13    1    3    3    0    0 -0.39483633928E+02 -0.80899118682E+01 -0.17739737463E+03  0.18191820291E+03  0.00000000000E+00 0.  1.
<mgrwt>
<rscale>  0 0.80638199E+02</rscale>
<asrwt>0</asrwt>
<pdfrwt beam="1">  1        1 0.71514965E-03 0.80638199E+02</pdfrwt>
<pdfrwt beam="2">  1       -1 0.53801948E-01 0.80638199E+02</pdfrwt>
<totfact> 0.78231387E+04</totfact>
</mgrwt>
</event>
<event>
 5    1  0.6043464E+000  0.9034675E+02  0.7546771E-02  0.1302014E+00
          2   -1    0    0  501    0  0.00000000000E+00  0.00000000000E+00  0.17944091751E+03  0.17944091751E+03  0.00000000000E+00 0. -1.
         -2   -1    0    0    0  501 -0.00000000000E+00 -0.00000000000E+00 -0.11372177354E+02  0.11372177354E+02  0.00000000000E+00 0.  1.
         23    2    1    2    0    0  0.00000000000E+00  0.00000000000E+00  0.16806874015E+03  0.19081309486E+03  0.90346752867E+02 0.  0.
        -13    1    3    3    0    0 -0.18877211564E+02 -0.22549113323E+02  0.15645569660E+03  0.15919546673E+03  0.00000000000E+00 0. -1.
         13    1    3    3    0    0  0.18877211564E+02  0.22549113323E+02  0.11613043550E+02  0.31617628130E+02  0.00000000000E+00 0.  1.
<mgrwt>
<rscale>  0 0.90346753E+02</rscale>
<asrwt>0</asrwt>
<pdfrwt beam="1">  1        2 0.27606293E-01 0.90346753E+02</pdfrwt>
<pdfrwt beam="2">  1       -2 0.17495659E-02 0.90346753E+02</pdfrwt>
<totfact> 0.15249764E+05</totfact>
</mgrwt>
</event>
<event>
 5    1  0.6043464E+000  0.8696465E+02  0.7546771E-02  0.1310373E+00
         -2   -1    0    0    0  501 -0.00000000000E+00  0.00000000000E+00  0.92322974914E+01  0.92322974914E+01  0.00000000000E+00 0.  1.
          2   -1    0    0  501    0  0.00000000000E+00 -0.00000000000E+00 -0.20479330046E+03  0.20479330046E+03  0.00000000000E+00 0. -1.
         23    2    1    2    0    0  0.00000000000E+00  0.00000000000E+00 -0.19556100297E+03  0.21402559795E+03  0.86964651993E+02 0.  0.
        -13    1    3    3    0    0  0.20228418665E+02 -0.25254869147E+02 -0.26294512889E+02  0.41694109241E+02  0.00000000000E+00 0.  1.
         13    1    3    3    0    0 -0.20228418665E+02  0.25254869147E+02 -0.16926649008E+03  0.17233148871E+03  0.00000000000E+00 0. -1.
<mgrwt>
<rscale>  0 0.86964652E+02</rscale>
<asrwt>0</asrwt>
<pdfrwt beam="2">  1        2 0.31506658E-01 0.86964652E+02</pdfrwt>
<pdfrwt beam="1">  1       -2 0.14203536E-02 0.86964652E+02</pdfrwt>
<totfact> 0.17710956E+05</totfact>
</mgrwt>
</event>
<event>
 5    1  0.6043464E+000  0.9711992E+02  0.7546771E-02  0.1286472E+00
         -3   -1    0    0    0  501 -0.00000000000E+00  0.00000000000E+00  0.60128625486E+02  0.60128625486E+02  0.00000000000E+00 0.  1.
          3   -1    0    0  501    0  0.00000000000E+00 -0.00000000000E+00 -0.39217087084E+02  0.39217087084E+02  0.00000000000E+00 0. -1.
         23    2    1    2    0    0  0.00000000000E+00  0.00000000000E+00  0.20911538403E+02  0.99345712570E+02  0.97119916432E+02 0.  0.
        -13    1    3    3    0    0  0.38724915271E+02 -0.24334204927E+02 -0.62368284335E+01  0.46159187829E+02  0.00000000000E+00 0. -1.
         13    1    3    3    0    0 -0.38724915271E+02  0.24334204927E+02  0.27148366836E+02  0.53186524741E+02  0.00000000000E+00 0.  1.
<mgrwt>
<rscale>  0 0.97119916E+02</rscale>
<asrwt>0</asrwt>
<pdfrwt beam="2">  1        3 0.60333980E-02 0.97119916E+02</pdfrwt>
<pdfrwt beam="1">  1       -3 0.92505577E-02 0.97119916E+02</pdfrwt>
<totfact> 0.29212689E+04</totfact>
</mgrwt>
</event>
<event>
 5    1  0.6043464E+000  0.9255742E+02  0.7546771E-02  0.1296774E+00
          1   -1    0    0  501    0  0.00000000000E+00  0.00000000000E+00  0.11784403419E+03  0.11784403419E+03  0.00000000000E+00 0. -1.
         -1   -1    0    0    0  501 -0.00000000000E+00 -0.00000000000E+00 -0.18174184246E+02  0.18174184246E+02  0.00000000000E+00 0.  1.
         23    2    1    2    0    0  0.00000000000E+00  0.00000000000E+00  0.99669849943E+02  0.13601821843E+03  0.92557424113E+02 0.  0.
        -13    1    3    3    0    0 -0.32622919060E+02 -0.17312251853E+02  0.88517207792E+01  0.37977912963E+02  0.00000000000E+00 0.  1.
         13    1    3    3    0    0  0.32622919060E+02  0.17312251853E+02  0.90818129163E+02  0.98040305472E+02  0.00000000000E+00 0. -1.
<mgrwt>
<rscale>  0 0.92557424E+02</rscale>
<asrwt>0</asrwt>
<pdfrwt beam="1">  1        1 0.18129851E-01 0.92557424E+02</pdfrwt>
<pdfrwt beam="2">  1       -1 0.27960284E-02 0.92557424E+02</pdfrwt>
<totfact> 0.10310157E+05</totfact>
</mgrwt>
</event>
<event>
 5    1  0.6043464E+000  0.9217456E+02  0.7546771E-02  0.1297670E+00
         -2   -1    0    0    0  501 -0.00000000000E+00  0.00000000000E+00  0.16270561887E+03  0.16270561887E+03  0.00000000000E+00 0.  1.
          2   -1    0    0  501    0  0.00000000000E+00 -0.00000000000E+00 -0.13054480770E+02  0.13054480770E+02  0.00000000000E+00 0. -1.
         23    2    1    2    0    0  0.00000000000E+00  0.00000000000E+00  0.14965113810E+03  0.17576009964E+03  0.92174559892E+02 0.  0.
        -13    1    3    3    0    0  0.26943116215E+02  0.30032967078E+02  0.11729784552E+03  0.12404311826E+03  0.00000000000E+00 0.  1.
         13    1    3    3    0    0 -0.26943116215E+02 -0.30032967078E+02  0.32353292580E+02  0.51716981386E+02  0.00000000000E+00 0. -1.
<mgrwt>
<rscale>  0 0.92174560E+02</rscale>
<asrwt>0</asrwt>
<pdfrwt beam="2">  1        2 0.20083818E-02 0.92174560E+02</pdfrwt>
<pdfrwt beam="1">  1       -2 0.25031632E-01 0.92174560E+02</pdfrwt>
<totfact> 0.65923798E+04</totfact>
</mgrwt>
</event>
<event>
 5    1  0.6043464E+000  0.8973761E+02  0.7546771E-02  0.1303488E+00
          2   -1    0    0  501    0  0.00000000000E+00  0.00000000000E+00  0.17470953896E+03  0.17470953896E+03  0.00000000000E+00 0.  1.
         -2   -1    0    0    0  501 -0.00000000000E+00 -0.00000000000E+00 -0.11523180014E+02  0.11523180014E+02  0.00000000000E+00 0. -1.
         23    2    1    2    0    0  0.00000000000E+00  0.00000000000E+00  0.16318635894E+03  0.18623271897E+03  0.89737605664E+02 0.  0.
        -13    1    3    3    0    0 -0.33019441486E+01  0.43120140584E+02  0.56779627254E+02  0.71373492490E+02  0.00000000000E+00 0.  1.
         13    1    3    3    0    0  0.33019441486E+01 -0.43120140584E+02  0.10640673169E+03  0.11485922648E+03  0.00000000000E+00 0. -1.
<mgrwt>
<rscale>  0 0.89737606E+02</rscale>
<asrwt>0</asrwt>
<pdfrwt beam="1">  1        2 0.26878389E-01 0.89737606E+02</pdfrwt>
<pdfrwt beam="2">  1       -2 0.17727971E-02 0.89737606E+02</pdfrwt>
<totfact> 0.15384731E+05</totfact>
</mgrwt>
</event>
<event>
 5    1  0.6043464E+000  0.9135463E+02  0.7546771E-02  0.1299604E+00
         -1   -1    0    0    0  501 -0.00000000000E+00  0.00000000000E+00  0.44709160840E+02  0.44709160840E+02  0.00000000000E+00 0.  1.
          1   -1    0    0  501    0  0.00000000000E+00 -0.00000000000E+00 -0.46666434995E+02  0.46666434995E+02  0.00000000000E+00 0. -1.
         23    2    1    2    0    0  0.00000000000E+00  0.00000000000E+00 -0.19572741554E+01  0.91375595834E+02  0.91354630928E+02 0.  0.
        -13    1    3    3    0    0  0.23834780277E+02  0.34865531727E+02 -0.18381339460E+02  0.46060565496E+02  0.00000000000E+00 0. -1.
         13    1    3    3    0    0 -0.23834780277E+02 -0.34865531727E+02  0.16424065304E+02  0.45315030339E+02  0.00000000000E+00 0.  1.
<mgrwt>
<rscale>  0 0.91354631E+02</rscale>
<asrwt>0</asrwt>
<pdfrwt beam="2">  1        1 0.71794516E-02 0.91354631E+02</pdfrwt>
<pdfrwt beam="1">  1       -1 0.68783324E-02 0.91354631E+02</pdfrwt>
<totfact> 0.92291582E+04</totfact>
</mgrwt>
</event>
<event>
 5    1  0.6043464E+000  0.9168087E+02  0.7546771E-02  0.1298832E+00
         -1   -1    0    0    0  501 -0.00000000000E+00  0.00000000000E+00  0.61254885454E+01  0.61254885454E+01  0.00000000000E+00 0.  1.
          1   -1    0    0  501    0  0.00000000000E+00 -0.00000000000E+00 -0.34304942890E+03  0.34304942890E+03  0.00000000000E+00 0. -1.
         23    2    1    2    0    0  0.00000000000E+00  0.00000000000E+00 -0.33692394035E+03  0.34917491744E+03  0.91680867082E+02 0.  0.
        -13    1    3    3    0    0 -0.45532691162E+02 -0.25539118074E+01 -0.15076250233E+03  0.15750898558E+03  0.00000000000E+00 0.  1.
         13    1    3    3    0    0  0.45532691162E+02  0.25539118074E+01 -0.18616143803E+03  0.19166593187E+03  0.00000000000E+00 0. -1.
<mgrwt>
<rscale>  0 0.91680867E+02</rscale>
<asrwt>0</asrwt>
<pdfrwt beam="2">  1        1 0.52776845E-01 0.91680867E+02</pdfrwt>
<pdfrwt beam="1">  1       -1 0.94238268E-03 0.91680867E+02</pdfrwt>
<totfact> 0.12944487E+05</totfact>
</mgrwt>
</event>
<event>
 5    1  0.6043464E+000  0.8982547E+02  0.7546771E-02  0.1303275E+00
         -1   -1    0    0    0  501 -0.00000000000E+00  0.00000000000E+00  0.74743080048E+02  0.74743080048E+02  0.00000000000E+00 0.  1.
          1   -1    0    0  501    0  0.00000000000E+00 -0.00000000000E+00 -0.26987834139E+02  0.26987834139E+02  0.00000000000E+00 0. -1.
         23    2    1    2    0    0  0.00000000000E+00  0.00000000000E+00  0.47755245910E+02  0.10173091419E+03  0.89825471829E+02 0.  0.
        -13    1    3    3    0    0 -0.17612144383E+01  0.34488254610E+02  0.56399704554E+02  0.66132202868E+02  0.00000000000E+00 0.  1.
         13    1    3    3    0    0  0.17612144383E+01 -0.34488254610E+02 -0.86444586448E+01  0.35598711319E+02  0.00000000000E+00 0. -1.
<mgrwt>
<rscale>  0 0.89825472E+02</rscale>
<asrwt>0</asrwt>
<pdfrwt beam="2">  1        1 0.41519745E-02 0.89825472E+02</pdfrwt>
<pdfrwt beam="1">  1       -1 0.11498935E-01 0.89825472E+02</pdfrwt>
<totfact> 0.88943069E+04</totfact>
</mgrwt>
</event>
<event>
 5    1  0.6043464E+000  0.9378194E+02  0.7546771E-02  0.1293943E+00
          2   -1    0    0  501    0  0.00000000000E+00  0.00000000000E+00  0.21285859594E+02  0.21285859594E+02  0.00000000000E+00 0. -1.
         -2   -1    0    0    0  501 -0.00000000000E+00 -0.00000000000E+00 -0.10329688449E+03  0.10329688449E+03  0.00000000000E+00 0.  1.
         23    2    1    2    0    0  0.00000000000E+00  0.00000000000E+00 -0.82011024901E+02  0.12458274409E+03  0.93781938130E+02 0.  0.
        -13    1    3    3    0    0 -0.16317342131E+02  0.27897125173E+02 -0.86138084600E+02  0.92001493823E+02  0.00000000000E+00 0.  1.
         13    1    3    3    0    0  0.16317342131E+02 -0.27897125173E+02  0.41270596993E+01  0.32581250266E+02  0.00000000000E+00 0. -1.
<mgrwt>
<rscale>  0 0.93781938E+02</rscale>
<asrwt>0</asrwt>
<pdfrwt beam="1">  1        2 0.32747476E-02 0.93781938E+02</pdfrwt>
<pdfrwt beam="2">  1       -2 0.15891829E-01 0.93781938E+02</pdfrwt>
<totfact> 0.73670138E+04</totfact>
</mgrwt>
</event>
<event>
 5    1  0.6043464E+000  0.9132882E+02  0.7546771E-02  0.1299665E+00
          1   -1    0    0  501    0  0.00000000000E+00  0.00000000000E+00  0.13036993140E+03  0.13036993140E+03  0.00000000000E+00 0. -1.
         -1   -1    0    0    0  501 -0.00000000000E+00 -0.00000000000E+00 -0.15994781276E+02  0.15994781276E+02  0.00000000000E+00 0.  1.
         23    2    1    2    0    0  0.00000000000E+00  0.00000000000E+00  0.11437515012E+03  0.14636471267E+03  0.91328824313E+02 0.  0.
        -13    1    3    3    0    0  0.19269696335E+02 -0.33606789654E+02  0.95933065088E+02  0.10345960799E+03  0.00000000000E+00 0. -1.
         13    1    3    3    0    0 -0.19269696335E+02  0.33606789654E+02  0.18442085034E+02  0.42905104686E+02  0.00000000000E+00 0.  1.
<mgrwt>
<rscale>  0 0.91328824E+02</rscale>
<asrwt>0</asrwt>
<pdfrwt beam="1">  1        1 0.20056912E-01 0.91328824E+02</pdfrwt>
<pdfrwt beam="2">  1       -1 0.24607357E-02 0.91328824E+02</pdfrwt>
<totfact> 0.10883021E+05</totfact>
</mgrwt>
</event>
<event>
 5    1  0.6043464E+000  0.9097665E+02  0.7546771E-02  0.1300504E+00
          3   -1    0    0  501    0  0.00000000000E+00  0.00000000000E+00  0.91573731410E+02  0.91573731410E+02  0.00000000000E+00 0. -1.
         -3   -1    0    0    0  501 -0.00000000000E+00 -0.00000000000E+00 -0.22595864604E+02  0.22595864604E+02  0.00000000000E+00 0.  1.
         23    2    1    2    0    0  0.00000000000E+00  0.00000000000E+00  0.68977866807E+02  0.11416959601E+03  0.90976648349E+02 0.  0.
        -13    1    3    3    0    0  0.14544956604E+02 -0.28083853798E+02  0.75518314607E+02  0.81873527149E+02  0.00000000000E+00 0. -1.
         13    1    3    3    0    0 -0.14544956604E+02  0.28083853798E+02 -0.65404478000E+01  0.32296068865E+02  0.00000000000E+00 0.  1.
<mgrwt>
<rscale>  0 0.90976648E+02</rscale>
<asrwt>0</asrwt>
<pdfrwt beam="1">  1        3 0.14088266E-01 0.90976648E+02</pdfrwt>
<pdfrwt beam="2">  1       -3 0.34762869E-02 0.90976648E+02</pdfrwt>
<totfact> 0.33851607E+04</totfact>
</mgrwt>
</event>
<event>
 5    1  0.6043464E+000  0.9236454E+02  0.7546771E-02  0.1297225E+00
          2   -1    0    0  501    0  0.00000000000E+00  0.00000000000E+00  0.58740230750E+02  0.58740230750E+02  0.00000000000E+00 0. -1.
         -2   -1    0    0    0  501 -0.00000000000E+00 -0.00000000000E+00 -0.36309052853E+02  0.36309052853E+02  0.00000000000E+00 0.  1.
         23    2    1    2    0    0  0.00000000000E+00  0.00000000000E+00  0.22431177897E+02  0.95049283603E+02  0.92364541744E+02 0.  0.
        -13    1    3    3    0    0 -0.20128305144E+02  0.26247362635E+02 -0.21950540098E+02  0.39697593426E+02  0.00000000000E+00 0.  1.
         13    1    3    3    0    0  0.20128305144E+02 -0.26247362635E+02  0.44381717995E+02  0.55351690177E+02  0.00000000000E+00 0. -1.
<mgrwt>
<rscale>  0 0.92364542E+02</rscale>
<asrwt>0</asrwt>
<pdfrwt beam="1">  1        2 0.90369585E-02 0.92364542E+02</pdfrwt>
<pdfrwt beam="2">  1       -2 0.55860082E-02 0.92364542E+02</pdfrwt>
<totfact> 0.10167516E+05</totfact>
</mgrwt>
</event>
<event>
 5    1  0.6043464E+000  0.9223320E+02  0.7546771E-02  0.1297532E+00
          4   -1    0    0  501    0  0.00000000000E+00  0.00000000000E+00  0.26285331199E+02  0.26285331199E+02  0.00000000000E+00 0. -1.
         -4   -1    0    0    0  501 -0.00000000000E+00 -0.00000000000E+00 -0.80909793328E+02  0.80909793328E+02  0.00000000000E+00 0.  1.
         23    2    1    2    0    0  0.00000000000E+00  0.00000000000E+00 -0.54624462129E+02  0.10719512453E+03  0.92233198250E+02 0.  0.
        -13    1    3    3    0    0  0.15831511928E+01  0.17661564450E+02 -0.76789216176E+02  0.78810030754E+02  0.00000000000E+00 0.  1.
         13    1    3    3    0    0 -0.15831511928E+01 -0.17661564450E+02  0.22164754047E+02  0.28385093773E+02  0.00000000000E+00 0. -1.
<mgrwt>
<rscale>  0 0.92233198E+02</rscale>
<asrwt>0</asrwt>
<pdfrwt beam="1">  1        4 0.40438971E-02 0.92233198E+02</pdfrwt>
<pdfrwt beam="2">  1       -4 0.12447661E-01 0.92233198E+02</pdfrwt>
<totfact> 0.25219073E+04</totfact>
</mgrwt>
</event>
<event>
 5    1  0.6043464E+000  0.9285895E+02  0.7546771E-02  0.1296072E+00
         -2   -1    0    0    0  501 -0.00000000000E+00  0.00000000000E+00  0.15330719689E+02  0.15330719689E+02  0.00000000000E+00 0.  1.
          2   -1    0    0  501    0  0.00000000000E+00 -0.00000000000E+00 -0.14061283392E+03  0.14061283392E+03  0.00000000000E+00 0. -1.
         23    2    1    2    0    0  0.00000000000E+00  0.00000000000E+00 -0.12528211423E+03  0.15594355361E+03  0.92858945538E+02 0.  0.
        -13    1    3    3    0    0 -0.43500511950E+02  0.12409586344E+02 -0.45075601347E+02  0.63860020434E+02  0.00000000000E+00 0.  1.
         13    1    3    3    0    0  0.43500511950E+02 -0.12409586344E+02 -0.80206512886E+02  0.92083533177E+02  0.00000000000E+00 0. -1.
<mgrwt>
<rscale>  0 0.92858946E+02</rscale>
<asrwt>0</asrwt>
<pdfrwt beam="2">  1        2 0.21632744E-01 0.92858946E+02</pdfrwt>
<pdfrwt beam="1">  1       -2 0.23585722E-02 0.92858946E+02</pdfrwt>
<totfact> 0.13014541E+05</totfact>
</mgrwt>
</event>
<event>
 5    1  0.6043464E+000  0.9155514E+02  0.7546771E-02  0.1299129E+00
         -1   -1    0    0    0  501 -0.00000000000E+00  0.00000000000E+00  0.82666105373E+01  0.82666105373E+01  0.00000000000E+00 0. -1.
          1   -1    0    0  501    0  0.00000000000E+00 -0.00000000000E+00 -0.25349999116E+03  0.25349999116E+03  0.00000000000E+00 0.  1.
         23    2    1    2    0    0  0.00000000000E+00  0.00000000000E+00 -0.24523338063E+03  0.26176660170E+03  0.91555135261E+02 0.  0.
        -13    1    3    3    0    0  0.31443350110E+02 -0.27423361988E+02 -0.68757422169E+02  0.80425792829E+02  0.00000000000E+00 0. -1.
         13    1    3    3    0    0 -0.31443350110E+02  0.27423361988E+02 -0.17647595846E+03  0.18134080887E+03  0.00000000000E+00 0.  1.
<mgrwt>
<rscale>  0 0.91555135E+02</rscale>
<asrwt>0</asrwt>
<pdfrwt beam="2">  1        1 0.39000000E-01 0.91555135E+02</pdfrwt>
<pdfrwt beam="1">  1       -1 0.12717862E-02 0.91555135E+02</pdfrwt>
<totfact> 0.12264004E+05</totfact>
</mgrwt>
</event>
<event>
 5    1  0.6043464E+000  0.9183340E+02  0.7546771E-02  0.1298472E+00
          4   -1    0    0  501    0  0.00000000000E+00  0.00000000000E+00  0.17240314820E+03  0.17240314820E+03  0.00000000000E+00 0. -1.
         -4   -1    0    0    0  501 -0.00000000000E+00 -0.00000000000E+00 -0.12229145925E+02  0.12229145925E+02  0.00000000000E+00 0.  1.
         23    2    1    2    0    0  0.00000000000E+00  0.00000000000E+00  0.16017400227E+03  0.18463229412E+03  0.91833398221E+02 0.  0.
        -13    1    3    3    0    0  0.30518548011E+02  0.13722613918E+02  0.16870771069E+02  0.37474188742E+02  0.00000000000E+00 0.  1.
         13    1    3    3    0    0 -0.30518548011E+02 -0.13722613918E+02  0.14330323121E+03  0.14715810538E+03  0.00000000000E+00 0. -1.
<mgrwt>
<rscale>  0 0.91833398E+02</rscale>
<asrwt>0</asrwt>
<pdfrwt beam="1">  1        4 0.26523560E-01 0.91833398E+02</pdfrwt>
<pdfrwt beam="2">  1       -4 0.18814072E-02 0.91833398E+02</pdfrwt>
<totfact> 0.21624612E+04</totfact>
</mgrwt>
</event>
<event>
 5    1  0.6043464E+000  0.8969935E+02  0.7546771E-02  0.1303581E+00
          3   -1    0    0  501    0  0.00000000000E+00  0.00000000000E+00  0.18777730244E+02  0.18777730244E+02  0.00000000000E+00 0. -1.
         -3   -1    0    0    0  501 -0.00000000000E+00 -0.00000000000E+00 -0.10712122362E+03  0.10712122362E+03  0.00000000000E+00 0.  1.
         23    2    1    2    0    0  0.00000000000E+00  0.00000000000E+00 -0.88343493375E+02  0.12589895386E+03  0.89699352071E+02 0.  0.
        -13    1    3    3    0    0 -0.40426281909E+02  0.54951955219E+01 -0.70317734877E+02  0.81296157849E+02  0.00000000000E+00 0.  1.
         13    1    3    3    0    0  0.40426281909E+02 -0.54951955219E+01 -0.18025758498E+02  0.44602796013E+02  0.00000000000E+00 0. -1.
<mgrwt>
<rscale>  0 0.89699352E+02</rscale>
<asrwt>0</asrwt>
<pdfrwt beam="1">  1        3 0.28888816E-02 0.89699352E+02</pdfrwt>
<pdfrwt beam="2">  1       -3 0.16480188E-01 0.89699352E+02</pdfrwt>
<totfact> 0.34335244E+04</totfact>
</mgrwt>
</event>
<event>
 5    1  0.6043464E+000  0.8839586E+02  0.7546771E-02  0.1306784E+00
          2   -1    0    0  501    0  0.00000000000E+00  0.00000000000E+00  0.21734155603E+02  0.21734155603E+02  0.00000000000E+00 0.  1.
         -2   -1    0    0    0  501 -0.00000000000E+00 -0.00000000000E+00 -0.89879582252E+02  0.89879582252E+02  0.00000000000E+00 0. -1.
         23    2    1    2    0    0  0.00000000000E+00  0.00000000000E+00 -0.68145426649E+02  0.11161373786E+03  0.88395855700E+02 0.  0.
        -13    1    3    3    0    0  0.29388115968E+02 -0.25542221669E+02 -0.76656345570E+01  0.39684107664E+02  0.00000000000E+00 0.  1.
         13    1    3    3    0    0 -0.29388115968E+02  0.25542221669E+02 -0.60479792092E+02  0.71929630191E+02  0.00000000000E+00 0. -1.
<mgrwt>
<rscale>  0 0.88395856E+02</rscale>
<asrwt>0</asrwt>
<pdfrwt beam="1">  1        2 0.33437162E-02 0.88395856E+02</pdfrwt>
<pdfrwt beam="2">  1       -2 0.13827628E-01 0.88395856E+02</pdfrwt>
<totfact> 0.88890695E+04</totfact>
</mgrwt>
</event>
<event>
 4    1  0.6043464E+000  0.5407659E+02  0.7546771E-02  0.1424517E+00
          1   -1    0    0  501    0  0.00000000000E+00  0.00000000000E+00  0.71706765376E+02  0.71706765376E+02  0.00000000000E+00 0. -1.
         -1   -1    0    0    0  501 -0.00000000000E+00 -0.00000000000E+00 -0.10195265112E+02  0.10195265112E+02  0.00000000000E+00 0.  1.
        -13    1    1    2    0    0  0.22104169865E+02 -0.15890308200E+01  0.72947864012E+01  0.23330950538E+02  0.00000000000E+00 0.  1.
         13    1    1    2    0    0 -0.22104169865E+02  0.15890308200E+01  0.54216713863E+02  0.58571079950E+02  0.00000000000E+00 0. -1.
<mgrwt>
<rscale>  0 0.54076593E+02</rscale>
<asrwt>0</asrwt>
<pdfrwt beam="1">  1        1 0.11031810E-01 0.54076593E+02</pdfrwt>
<pdfrwt beam="2">  1       -1 0.15685024E-02 0.54076593E+02</pdfrwt>
<totfact> 0.39671412E+05</totfact>
</mgrwt>
</event>
<event>
 5    1  0.6043464E+000  0.9041999E+02  0.7546771E-02  0.1301838E+00
          2   -1    0    0  501    0  0.00000000000E+00  0.00000000000E+00  0.13860324860E+03  0.13860324860E+03  0.00000000000E+00 0. -1.
         -2   -1    0    0    0  501 -0.00000000000E+00 -0.00000000000E+00 -0.14746723640E+02  0.14746723640E+02  0.00000000000E+00 0.  1.
         23    2    1    2    0    0  0.00000000000E+00  0.00000000000E+00  0.12385652496E+03  0.15334997224E+03  0.90419993424E+02 0.  0.
        -13    1    3    3    0    0  0.16128609738E+02 -0.27500054767E+02  0.75628660771E+01  0.32765561304E+02  0.00000000000E+00 0.  1.
         13    1    3    3    0    0 -0.16128609738E+02  0.27500054767E+02  0.11629365888E+03  0.12058441094E+03  0.00000000000E+00 0. -1.
<mgrwt>
<rscale>  0 0.90419993E+02</rscale>
<asrwt>0</asrwt>
<pdfrwt beam="1">  1        2 0.21323576E-01 0.90419993E+02</pdfrwt>
<pdfrwt beam="2">  1       -2 0.22687268E-02 0.90419993E+02</pdfrwt>
<totfact> 0.13925602E+05</totfact>
</mgrwt>
</event>
<event>
 5    1  0.6043464E+000  0.9023414E+02  0.7546771E-02  0.1302286E+00
          4   -1    0    0  501    0  0.00000000000E+00  0.00000000000E+00  0.37929982582E+02  0.37929982582E+02  0.00000000000E+00 0. -1.
         -4   -1    0    0    0  501 -0.00000000000E+00 -0.00000000000E+00 -0.53665990312E+02  0.53665990312E+02  0.00000000000E+00 0.  1.
         23    2    1    2    0    0  0.00000000000E+00  0.00000000000E+00 -0.15736007730E+02  0.91595972895E+02  0.90234141605E+02 0.  0.
        -13    1    3    3    0    0 -0.40909302901E+02  0.16754954401E+02  0.12819426432E+01  0.44226043660E+02  0.00000000000E+00 0. -1.
         13    1    3    3    0    0  0.40909302901E+02 -0.16754954401E+02 -0.17017950373E+02  0.47369929235E+02  0.00000000000E+00 0.  1.
<mgrwt>
<rscale>  0 0.90234142E+02</rscale>
<asrwt>0</asrwt>
<pdfrwt beam="1">  1        4 0.58353819E-02 0.90234142E+02</pdfrwt>
<pdfrwt beam="2">  1       -4 0.82563062E-02 0.90234142E+02</pdfrwt>
<totfact> 0.27759971E+04</totfact>
</mgrwt>
</event>
<event>
 5    1  0.6043464E+000  0.8967598E+02  0.7546771E-02  0.1303638E+00
          3   -1    0    0  501    0  0.00000000000E+00  0.00000000000E+00  0.46393839542E+02  0.46393839542E+02  0.00000000000E+00 0. -1.
         -3   -1    0    0    0  501 -0.00000000000E+00 -0.00000000000E+00 -0.43334313482E+02  0.43334313482E+02  0.00000000000E+00 0.  1.
         23    2    1    2    0    0  0.00000000000E+00  0.00000000000E+00  0.30595260592E+01  0.89728153024E+02  0.89675976412E+02 0.  0.
        -13    1    3    3    0    0 -0.14386507591E+01 -0.35754856508E+02 -0.25503834449E+02  0.43942292287E+02  0.00000000000E+00 0.  1.
         13    1    3    3    0    0  0.14386507591E+01  0.35754856508E+02  0.28563360508E+02  0.45785860737E+02  0.00000000000E+00 0. -1.
<mgrwt>
<rscale>  0 0.89675976E+02</rscale>
<asrwt>0</asrwt>
<pdfrwt beam="1">  1        3 0.71375138E-02 0.89675976E+02</pdfrwt>
<pdfrwt beam="2">  1       -3 0.66668174E-02 0.89675976E+02</pdfrwt>
<totfact> 0.37086801E+04</totfact>
</mgrwt>
</event>
<event>
 5    1  0.6043464E+000  0.8915271E+02  0.7546771E-02  0.1304917E+00
          2   -1    0    0  501    0  0.00000000000E+00  0.00000000000E+00  0.11684802182E+03  0.11684802182E+03  0.00000000000E+00 0.  1.
         -2   -1    0    0    0  501 -0.00000000000E+00 -0.00000000000E+00 -0.17005433234E+02  0.17005433234E+02  0.00000000000E+00 0. -1.
         23    2    1    2    0    0  0.00000000000E+00  0.00000000000E+00  0.99842588581E+02  0.13385345505E+03  0.89152705702E+02 0.  0.
        -13    1    3    3    0    0 -0.18235533884E+02 -0.31394094916E+02  0.88752826882E+02  0.95891543794E+02  0.00000000000E+00 0.  1.
         13    1    3    3    0    0  0.18235533884E+02  0.31394094916E+02  0.11089761699E+02  0.37961911255E+02  0.00000000000E+00 0. -1.
<mgrwt>
<rscale>  0 0.89152706E+02</rscale>
<asrwt>0</asrwt>
<pdfrwt beam="1">  1        2 0.17976618E-01 0.89152706E+02</pdfrwt>
<pdfrwt beam="2">  1       -2 0.26162206E-02 0.89152706E+02</pdfrwt>
<totfact> 0.13690536E+05</totfact>
</mgrwt>
</event>
<event>
 5    1  0.6043464E+000  0.9076788E+02  0.7546771E-02  0.1301003E+00
          2   -1    0    0  501    0  0.00000000000E+00  0.00000000000E+00  0.82322341090E+02  0.82322341090E+02  0.00000000000E+00 0. -1.
         -2   -1    0    0    0  501 -0.00000000000E+00 -0.00000000000E+00 -0.25019962014E+02  0.25019962014E+02  0.00000000000E+00 0.  1.
         23    2    1    2    0    0  0.00000000000E+00  0.00000000000E+00  0.57302379076E+02  0.10734230310E+03  0.90767876410E+02 0.  0.
        -13    1    3    3    0    0  0.12677586329E+02 -0.57071042117E+01 -0.22439553116E+02  0.26397457788E+02  0.00000000000E+00 0.  1.
         13    1    3    3    0    0 -0.12677586329E+02  0.57071042117E+01  0.79741932192E+02  0.80944845317E+02  0.00000000000E+00 0. -1.
<mgrwt>
<rscale>  0 0.90767876E+02</rscale>
<asrwt>0</asrwt>
<pdfrwt beam="1">  1        2 0.12664975E-01 0.90767876E+02</pdfrwt>
<pdfrwt beam="2">  1       -2 0.38492250E-02 0.90767876E+02</pdfrwt>
<totfact> 0.11725634E+05</totfact>
</mgrwt>
</event>
<event>
 5    1  0.6043464E+000  0.8996602E+02  0.7546771E-02  0.1302934E+00
          2   -1    0    0  501    0  0.00000000000E+00  0.00000000000E+00  0.21095110055E+02  0.21095110055E+02  0.00000000000E+00 0. -1.
         -2   -1    0    0    0  501 -0.00000000000E+00 -0.00000000000E+00 -0.95921329046E+02  0.95921329046E+02  0.00000000000E+00 0.  1.
         23    2    1    2    0    0  0.00000000000E+00  0.00000000000E+00 -0.74826218991E+02  0.11701643910E+03  0.89966015648E+02 0.  0.
        -13    1    3    3    0    0  0.36793800340E+02 -0.24889002498E+02 -0.46630914499E+02  0.64402549451E+02  0.00000000000E+00 0.  1.
         13    1    3    3    0    0 -0.36793800340E+02  0.24889002498E+02 -0.28195304492E+02  0.52613889651E+02  0.00000000000E+00 0. -1.
<mgrwt>
<rscale>  0 0.89966016E+02</rscale>
<asrwt>0</asrwt>
<pdfrwt beam="1">  1        2 0.32454015E-02 0.89966016E+02</pdfrwt>
<pdfrwt beam="2">  1       -2 0.14757128E-01 0.89966016E+02</pdfrwt>
<totfact> 0.83521073E+04</totfact>
</mgrwt>
</event>
<event>
 5    1  0.6043464E+000  0.9151255E+02  0.7546771E-02  0.1299230E+00
          1   -1    0    0  501    0  0.00000000000E+00  0.00000000000E+00  0.17954188360E+03  0.17954188360E+03  0.00000000000E+00 0. -1.
         -1   -1    0    0    0  501 -0.00000000000E+00 -0.00000000000E+00 -0.11660992284E+02  0.11660992284E+02  0.00000000000E+00 0.  1.
         23    2    1    2    0    0  0.00000000000E+00  0.00000000000E+00  0.16788089132E+03  0.19120287589E+03  0.91512546012E+02 0.  0.
        -13    1    3    3    0    0 -0.44042612326E+02 -0.62591668353E+01  0.10631786355E+03  0.11524936867E+03  0.00000000000E+00 0. -1.
         13    1    3    3    0    0  0.44042612326E+02  0.62591668353E+01  0.61563027775E+02  0.75953507219E+02  0.00000000000E+00 0.  1.
<mgrwt>
<rscale>  0 0.91512546E+02</rscale>
<asrwt>0</asrwt>
<pdfrwt beam="1">  1        1 0.27621826E-01 0.91512546E+02</pdfrwt>
<pdfrwt beam="2">  1       -1 0.17939989E-02 0.91512546E+02</pdfrwt>
<totfact> 0.11482874E+05</totfact>
</mgrwt>
</event>
<event>
 5    1  0.6043464E+000  0.9216763E+02  0.7546771E-02  0.1297686E+00
          1   -1    0    0  501    0  0.00000000000E+00  0.00000000000E+00  0.10183693050E+03  0.10183693050E+03  0.00000000000E+00 0. -1.
         -1   -1    0    0    0  501 -0.00000000000E+00 -0.00000000000E+00 -0.20854103365E+02  0.20854103365E+02  0.00000000000E+00 0.  1.
         23    2    1    2    0    0  0.00000000000E+00  0.00000000000E+00  0.80982827136E+02  0.12269103387E+03  0.92167627181E+02 0.  0.
        -13    1    3    3    0    0 -0.42808113012E+02 -0.11614318065E+02  0.23849573791E+02  0.50360987816E+02  0.00000000000E+00 0.  1.
         13    1    3    3    0    0  0.42808113012E+02  0.11614318065E+02  0.57133253345E+02  0.72330046050E+02  0.00000000000E+00 0. -1.
<mgrwt>
<rscale>  0 0.92167627E+02</rscale>
<asrwt>0</asrwt>
<pdfrwt beam="1">  1        1 0.15667220E-01 0.92167627E+02</pdfrwt>
<pdfrwt beam="2">  1       -1 0.32083237E-02 0.92167627E+02</pdfrwt>
<totfact> 0.10172388E+05</totfact>
</mgrwt>
</event>
<event>
 5    1  0.6043464E+000  0.9133304E+02  0.7546771E-02  0.1299655E+00
          1   -1    0    0  501    0  0.00000000000E+00  0.00000000000E+00  0.17492993032E+02  0.17492993032E+02  0.00000000000E+00 0. -1.
         -1   -1    0    0    0  501 -0.00000000000E+00 -0.00000000000E+00 -0.11921521673E+03  0.11921521673E+03  0.00000000000E+00 0.  1.
         23    2    1    2    0    0  0.00000000000E+00  0.00000000000E+00 -0.10172222370E+03  0.13670820976E+03  0.91333037956E+02 0.  0.
        -13    1    3    3    0    0  0.32081756329E+02  0.31836880479E+02 -0.60631155576E+02  0.75623826102E+02  0.00000000000E+00 0.  1.
         13    1    3    3    0    0 -0.32081756329E+02 -0.31836880479E+02 -0.41091068125E+02  0.61084383663E+02  0.00000000000E+00 0. -1.
<mgrwt>
<rscale>  0 0.91333038E+02</rscale>
<asrwt>0</asrwt>
<pdfrwt beam="1">  1        1 0.26912297E-02 0.91333038E+02</pdfrwt>
<pdfrwt beam="2">  1       -1 0.18340802E-01 0.91333038E+02</pdfrwt>
<totfact> 0.78288438E+04</totfact>
</mgrwt>
</event>
<event>
 5    1  0.6043464E+000  0.6340412E+02  0.7546771E-02  0.1384077E+00
          2   -1    0    0  501    0  0.00000000000E+00  0.00000000000E+00  0.68222436798E+01  0.68222436798E+01  0.00000000000E+00 0. -1.
         -2   -1    0    0    0  501 -0.00000000000E+00 -0.00000000000E+00 -0.14731526357E+03  0.14731526357E+03  0.00000000000E+00 0.  1.
         23    2    1    2    0    0  0.00000000000E+00  0.00000000000E+00 -0.14049301989E+03  0.15413750725E+03  0.63404120554E+02 0.  0.
        -13    1    3    3    0    0  0.96362813604E+01  0.26865849289E+02 -0.36702760711E+02  0.46494348262E+02  0.00000000000E+00 0. -1.
         13    1    3    3    0    0 -0.96362813604E+01 -0.26865849289E+02 -0.10379025917E+03  0.10764315898E+03  0.00000000000E+00 0.  1.
<mgrwt>
<rscale>  0 0.63404121E+02</rscale>
<asrwt>0</asrwt>
<pdfrwt beam="1">  1        2 0.10495759E-02 0.63404121E+02</pdfrwt>
<pdfrwt beam="2">  1       -2 0.22663888E-01 0.63404121E+02</pdfrwt>
<totfact> 0.17537257E+05</totfact>
</mgrwt>
</event>
<event>
 5    1  0.6043464E+000  0.9117048E+02  0.7546771E-02  0.1300042E+00
          1   -1    0    0  501    0  0.00000000000E+00  0.00000000000E+00  0.10706604341E+02  0.10706604341E+02  0.00000000000E+00 0. -1.
         -1   -1    0    0    0  501 -0.00000000000E+00 -0.00000000000E+00 -0.19408711784E+03  0.19408711784E+03  0.00000000000E+00 0.  1.
         23    2    1    2    0    0  0.00000000000E+00  0.00000000000E+00 -0.18338051350E+03  0.20479372218E+03  0.91170477205E+02 0.  0.
        -13    1    3    3    0    0  0.34645102779E+02  0.21543438899E+02 -0.13737366418E+03  0.14330361655E+03  0.00000000000E+00 0.  1.
         13    1    3    3    0    0 -0.34645102779E+02 -0.21543438899E+02 -0.46006849316E+02  0.61490105628E+02  0.00000000000E+00 0. -1.
<mgrwt>
<rscale>  0 0.91170477E+02</rscale>
<asrwt>0</asrwt>
<pdfrwt beam="1">  1        1 0.16471699E-02 0.91170477E+02</pdfrwt>
<pdfrwt beam="2">  1       -1 0.29859556E-01 0.91170477E+02</pdfrwt>
<totfact> 0.70029402E+04</totfact>
</mgrwt>
</event>
<event>
 5    1  0.6043464E+000  0.9051905E+02  0.7546771E-02  0.1301600E+00
         -2   -1    0    0    0  501 -0.00000000000E+00  0.00000000000E+00  0.95244526970E+01  0.95244526970E+01  0.00000000000E+00 0.  1.
          2   -1    0    0  501    0  0.00000000000E+00 -0.00000000000E+00 -0.21507007859E+03  0.21507007859E+03  0.00000000000E+00 0. -1.
         23    2    1    2    0    0  0.00000000000E+00  0.00000000000E+00 -0.20554562589E+03  0.22459453128E+03  0.90519054127E+02 0.  0.
        -13    1    3    3    0    0 -0.26388474095E+02 -0.20672319976E+02 -0.17822403370E+03  0.18134911791E+03  0.00000000000E+00 0. -1.
         13    1    3    3    0    0  0.26388474095E+02  0.20672319976E+02 -0.27321592194E+02  0.43245413378E+02  0.00000000000E+00 0.  1.
<mgrwt>
<rscale>  0 0.90519054E+02</rscale>
<asrwt>0</asrwt>
<pdfrwt beam="2">  1        2 0.33087702E-01 0.90519054E+02</pdfrwt>
<pdfrwt beam="1">  1       -2 0.14653005E-02 0.90519054E+02</pdfrwt>
<totfact> 0.16193648E+05</totfact>
</mgrwt>
</event>
<event>
 5    1  0.6043464E+000  0.9232655E+02  0.7546771E-02  0.1297313E+00
          2   -1    0    0  501    0  0.00000000000E+00  0.00000000000E+00  0.19908393272E+03  0.19908393272E+03  0.00000000000E+00 0. -1.
         -2   -1    0    0    0  501 -0.00000000000E+00 -0.00000000000E+00 -0.10704267846E+02  0.10704267846E+02  0.00000000000E+00 0.  1.
         23    2    1    2    0    0  0.00000000000E+00  0.00000000000E+00  0.18837966487E+03  0.20978820056E+03  0.92326545256E+02 0.  0.
        -13    1    3    3    0    0 -0.14010124881E+02  0.34463696130E+02  0.32085779274E+02  0.49127662083E+02  0.00000000000E+00 0.  1.
         13    1    3    3    0    0  0.14010124881E+02 -0.34463696130E+02  0.15629388560E+03  0.16066053848E+03  0.00000000000E+00 0. -1.
<mgrwt>
<rscale>  0 0.92326545E+02</rscale>
<asrwt>0</asrwt>
<pdfrwt beam="1">  1        2 0.30628295E-01 0.92326545E+02</pdfrwt>
<pdfrwt beam="2">  1       -2 0.16468106E-02 0.92326545E+02</pdfrwt>
<totfact> 0.14929196E+05</totfact>
</mgrwt>
</event>
<event>
 5    1  0.6043464E+000  0.9083174E+02  0.7546771E-02  0.1300850E+00
          1   -1    0    0  501    0  0.00000000000E+00  0.00000000000E+00  0.23786909413E+02  0.23786909413E+02  0.00000000000E+00 0. -1.
         -1   -1    0    0    0  501 -0.00000000000E+00 -0.00000000000E+00 -0.86711603632E+02  0.86711603632E+02  0.00000000000E+00 0.  1.
         23    2    1    2    0    0  0.00000000000E+00  0.00000000000E+00 -0.62924694219E+02  0.11049851305E+03  0.90831735878E+02 0.  0.
        -13    1    3    3    0    0  0.30711263192E+02  0.18471131224E+02 -0.65399442515E+02  0.74575139670E+02  0.00000000000E+00 0.  1.
         13    1    3    3    0    0 -0.30711263192E+02 -0.18471131224E+02  0.24747482956E+01  0.35923373375E+02  0.00000000000E+00 0. -1.
<mgrwt>
<rscale>  0 0.90831736E+02</rscale>
<asrwt>0</asrwt>
<pdfrwt beam="1">  1        1 0.36595245E-02 0.90831736E+02</pdfrwt>
<pdfrwt beam="2">  1       -1 0.13340247E-01 0.90831736E+02</pdfrwt>
<totfact> 0.84303311E+04</totfact>
</mgrwt>
</event>
<event>
 5    1  0.6043464E+000  0.8941878E+02  0.7546771E-02  0.1304265E+00
          1   -1    0    0  501    0  0.00000000000E+00  0.00000000000E+00  0.61012190591E+02  0.61012190591E+02  0.00000000000E+00 0.  1.
         -1   -1    0    0    0  501 -0.00000000000E+00 -0.00000000000E+00 -0.32762789668E+02  0.32762789668E+02  0.00000000000E+00 0. -1.
         23    2    1    2    0    0  0.00000000000E+00  0.00000000000E+00  0.28249400924E+02  0.93774980259E+02  0.89418780298E+02 0.  0.
        -13    1    3    3    0    0 -0.22519555049E+02  0.20749348064E+02  0.48288794407E+02  0.57179309807E+02  0.00000000000E+00 0.  1.
         13    1    3    3    0    0  0.22519555049E+02 -0.20749348064E+02 -0.20039393484E+02  0.36595670452E+02  0.00000000000E+00 0. -1.
<mgrwt>
<rscale>  0 0.89418780E+02</rscale>
<asrwt>0</asrwt>
<pdfrwt beam="1">  1        1 0.93864908E-02 0.89418780E+02</pdfrwt>
<pdfrwt beam="2">  1       -1 0.50404292E-02 0.89418780E+02</pdfrwt>
<totfact> 0.10196103E+05</totfact>
</mgrwt>
</event>
<event>
 5    1  0.6043464E+000  0.9066227E+02  0.7546771E-02  0.1301256E+00
          2   -1    0    0  501    0  0.00000000000E+00  0.00000000000E+00  0.10074314264E+03  0.10074314264E+03  0.00000000000E+00 0. -1.
         -2   -1    0    0    0  501 -0.00000000000E+00 -0.00000000000E+00 -0.20397536876E+02  0.20397536876E+02  0.00000000000E+00 0.  1.
         23    2    1    2    0    0  0.00000000000E+00  0.00000000000E+00  0.80345605764E+02  0.12114067952E+03  0.90662273676E+02 0.  0.
        -13    1    3    3    0    0 -0.33339493010E+02 -0.13010810392E+02  0.77348956451E+02  0.85227132096E+02  0.00000000000E+00 0. -1.
         13    1    3    3    0    0  0.33339493010E+02  0.13010810392E+02  0.29966493131E+01  0.35913547420E+02  0.00000000000E+00 0.  1.
<mgrwt>
<rscale>  0 0.90662274E+02</rscale>
<asrwt>0</asrwt>
<pdfrwt beam="1">  1        2 0.15498945E-01 0.90662274E+02</pdfrwt>
<pdfrwt beam="2">  1       -2 0.31380827E-02 0.90662274E+02</pdfrwt>
<totfact> 0.12488189E+05</totfact>
</mgrwt>
</event>
<event>
 5    1  0.6043464E+000  0.9160149E+02  0.7546771E-02  0.1299019E+00
          1   -1    0    0  501    0  0.00000000000E+00  0.00000000000E+00  0.31160927786E+02  0.31160927786E+02  0.00000000000E+00 0. -1.
         -1   -1    0    0    0  501 -0.00000000000E+00 -0.00000000000E+00 -0.67318545390E+02  0.67318545390E+02  0.00000000000E+00 0.  1.
         23    2    1    2    0    0  0.00000000000E+00  0.00000000000E+00 -0.36157617604E+02  0.98479473176E+02  0.91601491943E+02 0.  0.
        -13    1    3    3    0    0  0.27986882674E+02 -0.22451597833E+02 -0.48683249058E+02  0.60476430003E+02  0.00000000000E+00 0.  1.
         13    1    3    3    0    0 -0.27986882674E+02  0.22451597833E+02  0.12525631454E+02  0.38003043173E+02  0.00000000000E+00 0. -1.
<mgrwt>
<rscale>  0 0.91601492E+02</rscale>
<asrwt>0</asrwt>
<pdfrwt beam="1">  1        1 0.47939889E-02 0.91601492E+02</pdfrwt>
<pdfrwt beam="2">  1       -1 0.10356699E-01 0.91601492E+02</pdfrwt>
<totfact> 0.86059473E+04</totfact>
</mgrwt>
</event>
<event>
 5    1  0.6043464E+000  0.9419294E+02  0.7546771E-02  0.1293004E+00
         -1   -1    0    0    0  501 -0.00000000000E+00  0.00000000000E+00  0.13939497718E+02  0.13939497718E+02  0.00000000000E+00 0.  1.
          1   -1    0    0  501    0  0.00000000000E+00 -0.00000000000E+00 -0.15912175123E+03  0.15912175123E+03  0.00000000000E+00 0. -1.
         23    2    1    2    0    0  0.00000000000E+00  0.00000000000E+00 -0.14518225351E+03  0.17306124894E+03  0.94192935788E+02 0.  0.
        -13    1    3    3    0    0 -0.10622090220E+02 -0.42581072933E+02 -0.10399243996E+03  0.11287339873E+03  0.00000000000E+00 0. -1.
         13    1    3    3    0    0  0.10622090220E+02  0.42581072933E+02 -0.41189813548E+02  0.60187850210E+02  0.00000000000E+00 0.  1.
<mgrwt>
<rscale>  0 0.94192936E+02</rscale>
<asrwt>0</asrwt>
<pdfrwt beam="2">  1        1 0.24480267E-01 0.94192936E+02</pdfrwt>
<pdfrwt beam="1">  1       -1 0.21445383E-02 0.94192936E+02</pdfrwt>
<totfact> 0.10382282E+05</totfact>
</mgrwt>
</event>
<event>
 5    1  0.6043464E+000  0.9136604E+02  0.7546771E-02  0.1299577E+00
         -4   -1    0    0    0  501 -0.00000000000E+00  0.00000000000E+00  0.64419305875E+02  0.64419305875E+02  0.00000000000E+00 0.  1.
          4   -1    0    0  501    0  0.00000000000E+00 -0.00000000000E+00 -0.32396159222E+02  0.32396159222E+02  0.00000000000E+00 0. -1.
         23    2    1    2    0    0  0.00000000000E+00  0.00000000000E+00  0.32023146654E+02  0.96815465097E+02  0.91366035048E+02 0.  0.
        -13    1    3    3    0    0 -0.22527875477E+02  0.35662090910E+02  0.34597624934E+02  0.54555343942E+02  0.00000000000E+00 0.  1.
         13    1    3    3    0    0  0.22527875477E+02 -0.35662090910E+02 -0.25744782806E+01  0.42260121155E+02  0.00000000000E+00 0. -1.
<mgrwt>
<rscale>  0 0.91366035E+02</rscale>
<asrwt>0</asrwt>
<pdfrwt beam="2">  1        4 0.49840245E-02 0.91366035E+02</pdfrwt>
<pdfrwt beam="1">  1       -4 0.99106624E-02 0.91366035E+02</pdfrwt>
<totfact> 0.26507196E+04</totfact>
</mgrwt>
</event>
<event>
 5    1  0.6043464E+000  0.7630657E+02  0.7546771E-02  0.1339872E+00
         -3   -1    0    0    0  501 -0.00000000000E+00  0.00000000000E+00  0.50813011651E+02  0.50813011651E+02  0.00000000000E+00 0.  1.
          3   -1    0    0  501    0  0.00000000000E+00 -0.00000000000E+00 -0.28647646213E+02  0.28647646213E+02  0.00000000000E+00 0. -1.
         23    2    1    2    0    0  0.00000000000E+00  0.00000000000E+00  0.22165365438E+02  0.79460657863E+02  0.76306570642E+02 0.  0.
        -13    1    3    3    0    0 -0.11680518550E+02 -0.35006202642E+02  0.99707838290E+00  0.36916973093E+02  0.00000000000E+00 0. -1.
         13    1    3    3    0    0  0.11680518550E+02  0.35006202642E+02  0.21168287055E+02  0.42543684771E+02  0.00000000000E+00 0.  1.
<mgrwt>
<rscale>  0 0.76306571E+02</rscale>
<asrwt>0</asrwt>
<pdfrwt beam="2">  1        3 0.44073302E-02 0.76306571E+02</pdfrwt>
<pdfrwt beam="1">  1       -3 0.78173864E-02 0.76306571E+02</pdfrwt>
<totfact> 0.58623006E+04</totfact>
</mgrwt>
</event>
<event>
 5    1  0.6043464E+000  0.8771286E+02  0.7546771E-02  0.1308487E+00
          2   -1    0    0  501    0  0.00000000000E+00  0.00000000000E+00  0.32584278777E+02  0.32584278777E+02  0.00000000000E+00 0. -1.
         -2   -1    0    0    0  501 -0.00000000000E+00 -0.00000000000E+00 -0.59028055088E+02  0.59028055088E+02  0.00000000000E+00 0.  1.
         23    2    1    2    0    0  0.00000000000E+00  0.00000000000E+00 -0.26443776310E+02  0.91612333865E+02  0.87712863427E+02 0.  0.
        -13    1    3    3    0    0  0.21190543795E+02 -0.24026558354E+02  0.18060816665E+02  0.36776456480E+02  0.00000000000E+00 0. -1.
         13    1    3    3    0    0 -0.21190543795E+02  0.24026558354E+02 -0.44504592975E+02  0.54835877385E+02  0.00000000000E+00 0.  1.
<mgrwt>
<rscale>  0 0.87712863E+02</rscale>
<asrwt>0</asrwt>
<pdfrwt beam="1">  1        2 0.50129660E-02 0.87712863E+02</pdfrwt>
<pdfrwt beam="2">  1       -2 0.90812393E-02 0.87712863E+02</pdfrwt>
<totfact> 0.10129277E+05</totfact>
</mgrwt>
</event>
<event>
 5    1  0.6043464E+000  0.8975894E+02  0.7546771E-02  0.1303437E+00
          2   -1    0    0  501    0  0.00000000000E+00  0.00000000000E+00  0.39725717302E+02  0.39725717302E+02  0.00000000000E+00 0. -1.
         -2   -1    0    0    0  501 -0.00000000000E+00 -0.00000000000E+00 -0.50701831129E+02  0.50701831129E+02  0.00000000000E+00 0.  1.
         23    2    1    2    0    0  0.00000000000E+00  0.00000000000E+00 -0.10976113827E+02  0.90427548432E+02  0.89758935157E+02 0.  0.
        -13    1    3    3    0    0 -0.25627779517E+02 -0.13737753454E+02  0.28952226736E+02  0.41033405731E+02  0.00000000000E+00 0. -1.
         13    1    3    3    0    0  0.25627779517E+02  0.13737753454E+02 -0.39928340563E+02  0.49394142700E+02  0.00000000000E+00 0.  1.
<mgrwt>
<rscale>  0 0.89758935E+02</rscale>
<asrwt>0</asrwt>
<pdfrwt beam="1">  1        2 0.61116488E-02 0.89758935E+02</pdfrwt>
<pdfrwt beam="2">  1       -2 0.78002817E-02 0.89758935E+02</pdfrwt>
<totfact> 0.99632457E+04</totfact>
</mgrwt>
</event>
<event>
 5    1  0.6043464E+000  0.9097567E+02  0.7546771E-02  0.1300506E+00
          1   -1    0    0  501    0  0.00000000000E+00  0.00000000000E+00  0.26040935909E+02  0.26040935909E+02  0.00000000000E+00 0. -1.
         -1   -1    0    0    0  501 -0.00000000000E+00 -0.00000000000E+00 -0.79457328357E+02  0.79457328357E+02  0.00000000000E+00 0.  1.
         23    2    1    2    0    0  0.00000000000E+00  0.00000000000E+00 -0.53416392448E+02  0.10549826427E+03  0.90975671370E+02 0.  0.
        -13    1    3    3    0    0  0.27298990803E+02  0.14743974320E+02 -0.65282701911E+02  0.72280362800E+02  0.00000000000E+00 0.  1.
         13    1    3    3    0    0 -0.27298990803E+02 -0.14743974320E+02  0.11866309463E+02  0.33217901467E+02  0.00000000000E+00 0. -1.
<mgrwt>
<rscale>  0 0.90975671E+02</rscale>
<asrwt>0</asrwt>
<pdfrwt beam="1">  1        1 0.40062978E-02 0.90975671E+02</pdfrwt>
<pdfrwt beam="2">  1       -1 0.12224204E-01 0.90975671E+02</pdfrwt>
<totfact> 0.85228642E+04</totfact>
</mgrwt>
</event>
<event>
 5    1  0.6043464E+000  0.8998016E+02  0.7546771E-02  0.1302900E+00
          1   -1    0    0  501    0  0.00000000000E+00  0.00000000000E+00  0.33435671411E+02  0.33435671411E+02  0.00000000000E+00 0. -1.
         -1   -1    0    0    0  501 -0.00000000000E+00 -0.00000000000E+00 -0.60537362046E+02  0.60537362046E+02  0.00000000000E+00 0.  1.
         23    2    1    2    0    0  0.00000000000E+00  0.00000000000E+00 -0.27101690635E+02  0.93973033457E+02  0.89980161046E+02 0.  0.
        -13    1    3    3    0    0  0.18391661668E+02  0.34714007299E+02  0.93491301354E+01  0.40382196027E+02  0.00000000000E+00 0.  1.
         13    1    3    3    0    0 -0.18391661668E+02 -0.34714007299E+02 -0.36450820770E+02  0.53590837430E+02  0.00000000000E+00 0. -1.
<mgrwt>
<rscale>  0 0.89980161E+02</rscale>
<asrwt>0</asrwt>
<pdfrwt beam="1">  1        1 0.51439496E-02 0.89980161E+02</pdfrwt>
<pdfrwt beam="2">  1       -1 0.93134401E-02 0.89980161E+02</pdfrwt>
<totfact> 0.91572304E+04</totfact>
</mgrwt>
</event>
<event>
 5    1  0.6043464E+000  0.9130557E+02  0.7546771E-02  0.1299721E+00
          3   -1    0    0  501    0  0.00000000000E+00  0.00000000000E+00  0.27078072926E+02  0.27078072926E+02  0.00000000000E+00 0. -1.
         -3   -1    0    0    0  501 -0.00000000000E+00 -0.00000000000E+00 -0.76969175240E+02  0.76969175240E+02  0.00000000000E+00 0.  1.
         23    2    1    2    0    0  0.00000000000E+00  0.00000000000E+00 -0.49891102314E+02  0.10404724817E+03  0.91305573548E+02 0.  0.
        -13    1    3    3    0    0 -0.26778831504E+02  0.27756262179E+02 -0.52780930712E+02  0.65370808116E+02  0.00000000000E+00 0.  1.
         13    1    3    3    0    0  0.26778831504E+02 -0.27756262179E+02  0.28898283983E+01  0.38676440051E+02  0.00000000000E+00 0. -1.
<mgrwt>
<rscale>  0 0.91305574E+02</rscale>
<asrwt>0</asrwt>
<pdfrwt beam="1">  1        3 0.41658575E-02 0.91305574E+02</pdfrwt>
<pdfrwt beam="2">  1       -3 0.11841411E-01 0.91305574E+02</pdfrwt>
<totfact> 0.34243294E+04</totfact>
</mgrwt>
</event>
<event>
 5    1  0.6043464E+000  0.9003689E+02  0.7546771E-02  0.1302762E+00
         -4   -1    0    0    0  501 -0.00000000000E+00  0.00000000000E+00  0.57426390470E+02  0.57426390470E+02  0.00000000000E+00 0.  1.
          4   -1    0    0  501    0  0.00000000000E+00 -0.00000000000E+00 -0.35291446883E+02  0.35291446883E+02  0.00000000000E+00 0. -1.
         23    2    1    2    0    0  0.00000000000E+00  0.00000000000E+00  0.22134943587E+02  0.92717837353E+02  0.90036890417E+02 0.  0.
        -13    1    3    3    0    0  0.33532043306E+02  0.15793552352E+02 -0.15243784712E+02  0.40077514849E+02  0.00000000000E+00 0. -1.
         13    1    3    3    0    0 -0.33532043306E+02 -0.15793552352E+02  0.37378728298E+02  0.52640322504E+02  0.00000000000E+00 0.  1.
<mgrwt>
<rscale>  0 0.90036890E+02</rscale>
<asrwt>0</asrwt>
<pdfrwt beam="2">  1        4 0.54294534E-02 0.90036890E+02</pdfrwt>
<pdfrwt beam="1">  1       -4 0.88348293E-02 0.90036890E+02</pdfrwt>
<totfact> 0.27850061E+04</totfact>
</mgrwt>
</event>
<event>
 5    1  0.6043464E+000  0.9182665E+02  0.7546771E-02  0.1298488E+00
          2   -1    0    0  501    0  0.00000000000E+00  0.00000000000E+00  0.17030972858E+03  0.17030972858E+03  0.00000000000E+00 0. -1.
         -2   -1    0    0    0  501 -0.00000000000E+00 -0.00000000000E+00 -0.12377644789E+02  0.12377644789E+02  0.00000000000E+00 0.  1.
         23    2    1    2    0    0  0.00000000000E+00  0.00000000000E+00  0.15793208379E+03  0.18268737337E+03  0.91826648083E+02 0.  0.
        -13    1    3    3    0    0 -0.33932425482E+02 -0.61606796427E+01  0.13926635013E+03  0.14347292341E+03  0.00000000000E+00 0. -1.
         13    1    3    3    0    0  0.33932425482E+02  0.61606796427E+01  0.18665733663E+02  0.39214449964E+02  0.00000000000E+00 0.  1.
<mgrwt>
<rscale>  0 0.91826648E+02</rscale>
<asrwt>0</asrwt>
<pdfrwt beam="1">  1        2 0.26201495E-01 0.91826648E+02</pdfrwt>
<pdfrwt beam="2">  1       -2 0.19042532E-02 0.91826648E+02</pdfrwt>
<totfact> 0.14328992E+05</totfact>
</mgrwt>
</event>
<event>
 5    1  0.6043464E+000  0.9146752E+02  0.7546771E-02  0.1299336E+00
          4   -1    0    0  501    0  0.00000000000E+00  0.00000000000E+00  0.12607038015E+03  0.12607038015E+03  0.00000000000E+00 0. -1.
         -4   -1    0    0    0  501 -0.00000000000E+00 -0.00000000000E+00 -0.16590549481E+02  0.16590549481E+02  0.00000000000E+00 0.  1.
         23    2    1    2    0    0  0.00000000000E+00  0.00000000000E+00  0.10947983067E+03  0.14266092963E+03  0.91467521667E+02 0.  0.
        -13    1    3    3    0    0  0.19358121494E+01 -0.45664709673E+02  0.52242559893E+02  0.69413962157E+02  0.00000000000E+00 0. -1.
         13    1    3    3    0    0 -0.19358121494E+01  0.45664709673E+02  0.57237270776E+02  0.73246967474E+02  0.00000000000E+00 0.  1.
<mgrwt>
<rscale>  0 0.91467522E+02</rscale>
<asrwt>0</asrwt>
<pdfrwt beam="1">  1        4 0.19395443E-01 0.91467522E+02</pdfrwt>
<pdfrwt beam="2">  1       -4 0.25523923E-02 0.91467522E+02</pdfrwt>
<totfact> 0.23841270E+04</totfact>
</mgrwt>
</event>
<event>
 5    1  0.6043464E+000  0.9172810E+02  0.7546771E-02  0.1298720E+00
         -1   -1    0    0    0  501 -0.00000000000E+00  0.00000000000E+00  0.67487573354E+02  0.67487573354E+02  0.00000000000E+00 0.  1.
          1   -1    0    0  501    0  0.00000000000E+00 -0.00000000000E+00 -0.31168867658E+02  0.31168867658E+02  0.00000000000E+00 0. -1.
         23    2    1    2    0    0  0.00000000000E+00  0.00000000000E+00  0.36318705696E+02  0.98656441013E+02  0.91728103490E+02 0.  0.
        -13    1    3    3    0    0 -0.19194145929E+02 -0.11316795364E+02  0.61274959537E+02  0.65200504304E+02  0.00000000000E+00 0.  1.
         13    1    3    3    0    0  0.19194145929E+02  0.11316795364E+02 -0.24956253841E+02  0.33455936708E+02  0.00000000000E+00 0. -1.
<mgrwt>
<rscale>  0 0.91728103E+02</rscale>
<asrwt>0</asrwt>
<pdfrwt beam="2">  1        1 0.47952104E-02 0.91728103E+02</pdfrwt>
<pdfrwt beam="1">  1       -1 0.10382704E-01 0.91728103E+02</pdfrwt>
<totfact> 0.85722497E+04</totfact>
</mgrwt>
</event>
<event>
 5    1  0.6043464E+000  0.9217602E+02  0.7546771E-02  0.1297666E+00
          2   -1    0    0  501    0  0.00000000000E+00  0.00000000000E+00  0.30677200735E+03  0.30677200735E+03  0.00000000000E+00 0. -1.
         -2   -1    0    0    0  501 -0.00000000000E+00 -0.00000000000E+00 -0.69240494865E+01  0.69240494865E+01  0.00000000000E+00 0.  1.
         23    2    1    2    0    0  0.00000000000E+00  0.00000000000E+00  0.29984795786E+03  0.31369605683E+03  0.92176017704E+02 0.  0.
        -13    1    3    3    0    0 -0.43614368871E+01  0.45416880809E+02  0.17208141872E+03  0.17802732897E+03  0.00000000000E+00 0. -1.
         13    1    3    3    0    0  0.43614368871E+01 -0.45416880809E+02  0.12776653915E+03  0.13566872786E+03  0.00000000000E+00 0.  1.
<mgrwt>
<rscale>  0 0.92176018E+02</rscale>
<asrwt>0</asrwt>
<pdfrwt beam="1">  1        2 0.47195683E-01 0.92176018E+02</pdfrwt>
<pdfrwt beam="2">  1       -2 0.10652386E-02 0.92176018E+02</pdfrwt>
<totfact> 0.17596219E+05</totfact>
</mgrwt>
</event>
<event>
 5    1  0.6043464E+000  0.9122209E+02  0.7546771E-02  0.1299919E+00
          2   -1    0    0  501    0  0.00000000000E+00  0.00000000000E+00  0.72472559822E+02  0.72472559822E+02  0.00000000000E+00 0.  1.
         -2   -1    0    0    0  501 -0.00000000000E+00 -0.00000000000E+00 -0.28705585543E+02  0.28705585543E+02  0.00000000000E+00 0. -1.
         23    2    1    2    0    0  0.00000000000E+00  0.00000000000E+00  0.43766974279E+02  0.10117814537E+03  0.91222086481E+02 0.  0.
        -13    1    3    3    0    0 -0.11640867410E+02  0.15203356800E+02  0.67798643156E+02  0.70450747802E+02  0.00000000000E+00 0.  1.
         13    1    3    3    0    0  0.11640867410E+02 -0.15203356800E+02 -0.24031668877E+02  0.30727397564E+02  0.00000000000E+00 0. -1.
<mgrwt>
<rscale>  0 0.91222086E+02</rscale>
<asrwt>0</asrwt>
<pdfrwt beam="1">  1        2 0.11149625E-01 0.91222086E+02</pdfrwt>
<pdfrwt beam="2">  1       -2 0.44162439E-02 0.91222086E+02</pdfrwt>
<totfact> 0.11153797E+05</totfact>
</mgrwt>
</event>
<event>
 5    1  0.6043464E+000  0.9110293E+02  0.7546771E-02  0.1300203E+00
          2   -1    0    0  501    0  0.00000000000E+00  0.00000000000E+00  0.23167715655E+03  0.23167715655E+03  0.00000000000E+00 0. -1.
         -2   -1    0    0    0  501 -0.00000000000E+00 -0.00000000000E+00 -0.89561521565E+01  0.89561521565E+01  0.00000000000E+00 0.  1.
         23    2    1    2    0    0  0.00000000000E+00  0.00000000000E+00  0.22272100439E+03  0.24063330870E+03  0.91102927839E+02 0.  0.
        -13    1    3    3    0    0  0.32454174120E+02 -0.85051260140E+01  0.19274298423E+03  0.19564117295E+03  0.00000000000E+00 0. -1.
         13    1    3    3    0    0 -0.32454174120E+02  0.85051260140E+01  0.29978020164E+02  0.44992135749E+02  0.00000000000E+00 0.  1.
<mgrwt>
<rscale>  0 0.91102928E+02</rscale>
<asrwt>0</asrwt>
<pdfrwt beam="1">  1        2 0.35642635E-01 0.91102928E+02</pdfrwt>
<pdfrwt beam="2">  1       -2 0.13778697E-02 0.91102928E+02</pdfrwt>
<totfact> 0.16356592E+05</totfact>
</mgrwt>
</event>
<event>
 5    1  0.6043464E+000  0.9308556E+02  0.7546771E-02  0.1295547E+00
         -1   -1    0    0    0  501 -0.00000000000E+00  0.00000000000E+00  0.25476809920E+03  0.25476809920E+03  0.00000000000E+00 0.  1.
          1   -1    0    0  501    0  0.00000000000E+00 -0.00000000000E+00 -0.85027541992E+01  0.85027541992E+01  0.00000000000E+00 0. -1.
         23    2    1    2    0    0  0.00000000000E+00  0.00000000000E+00  0.24626534500E+03  0.26327085340E+03  0.93085563334E+02 0.  0.
        -13    1    3    3    0    0 -0.41873466394E+02  0.15562841382E+02  0.16007825621E+03  0.16619457672E+03  0.00000000000E+00 0.  1.
         13    1    3    3    0    0  0.41873466394E+02 -0.15562841382E+02  0.86187088786E+02  0.97076276675E+02  0.00000000000E+00 0. -1.
<mgrwt>
<rscale>  0 0.93085563E+02</rscale>
<asrwt>0</asrwt>
<pdfrwt beam="2">  1        1 0.13081162E-02 0.93085563E+02</pdfrwt>
<pdfrwt beam="1">  1       -1 0.39195086E-01 0.93085563E+02</pdfrwt>
<totfact> 0.60954788E+04</totfact>
</mgrwt>
</event>
<event>
 5    1  0.6043464E+000  0.8759766E+02  0.7546771E-02  0.1308776E+00
         -1   -1    0    0    0  501 -0.00000000000E+00  0.00000000000E+00  0.12441487544E+03  0.12441487544E+03  0.00000000000E+00 0.  1.
          1   -1    0    0  501    0  0.00000000000E+00 -0.00000000000E+00 -0.15418876445E+02  0.15418876445E+02  0.00000000000E+00 0. -1.
         23    2    1    2    0    0  0.00000000000E+00  0.00000000000E+00  0.10899599899E+03  0.13983375188E+03  0.87597661892E+02 0.  0.
        -13    1    3    3    0    0  0.20063641945E+02  0.17501282421E+02  0.11001438357E+03  0.11319014624E+03  0.00000000000E+00 0.  1.
         13    1    3    3    0    0 -0.20063641945E+02 -0.17501282421E+02 -0.10183845730E+01  0.26643605642E+02  0.00000000000E+00 0. -1.
<mgrwt>
<rscale>  0 0.87597662E+02</rscale>
<asrwt>0</asrwt>
<pdfrwt beam="2">  1        1 0.23721349E-02 0.87597662E+02</pdfrwt>
<pdfrwt beam="1">  1       -1 0.19140749E-01 0.87597662E+02</pdfrwt>
<totfact> 0.86439489E+04</totfact>
</mgrwt>
</event>
<event>
 5    1  0.6043464E+000  0.9124690E+02  0.7546771E-02  0.1299860E+00
         -1   -1    0    0    0  501 -0.00000000000E+00  0.00000000000E+00  0.57710527188E+02  0.57710527188E+02  0.00000000000E+00 0.  1.
          1   -1    0    0  501    0  0.00000000000E+00 -0.00000000000E+00 -0.36067932031E+02  0.36067932031E+02  0.00000000000E+00 0. -1.
         23    2    1    2    0    0  0.00000000000E+00  0.00000000000E+00  0.21642595157E+02  0.93778459219E+02  0.91246903993E+02 0.  0.
        -13    1    3    3    0    0  0.22063441697E+01  0.45569261837E+02  0.11100483153E+02  0.46953661254E+02  0.00000000000E+00 0.  1.
         13    1    3    3    0    0 -0.22063441697E+01 -0.45569261837E+02  0.10542112004E+02  0.46824797965E+02  0.00000000000E+00 0. -1.
<mgrwt>
<rscale>  0 0.91246904E+02</rscale>
<asrwt>0</asrwt>
<pdfrwt beam="2">  1        1 0.55489126E-02 0.91246904E+02</pdfrwt>
<pdfrwt beam="1">  1       -1 0.88785426E-02 0.91246904E+02</pdfrwt>
<totfact> 0.89043945E+04</totfact>
</mgrwt>
</event>
<event>
 5    1  0.6043464E+000  0.8972452E+02  0.7546771E-02  0.1303520E+00
         -1   -1    0    0    0  501 -0.00000000000E+00  0.00000000000E+00  0.52024533409E+02  0.52024533409E+02  0.00000000000E+00 0.  1.
          1   -1    0    0  501    0  0.00000000000E+00 -0.00000000000E+00 -0.38686027231E+02  0.38686027231E+02  0.00000000000E+00 0. -1.
         23    2    1    2    0    0  0.00000000000E+00  0.00000000000E+00  0.13338506178E+02  0.90710560641E+02  0.89724523207E+02 0.  0.
        -13    1    3    3    0    0 -0.50887287698E+01 -0.16675416890E+02 -0.35120926948E+02  0.39210256294E+02  0.00000000000E+00 0. -1.
         13    1    3    3    0    0  0.50887287698E+01  0.16675416890E+02  0.48459433126E+02  0.51500304347E+02  0.00000000000E+00 0.  1.
<mgrwt>
<rscale>  0 0.89724523E+02</rscale>
<asrwt>0</asrwt>
<pdfrwt beam="2">  1        1 0.59516965E-02 0.89724523E+02</pdfrwt>
<pdfrwt beam="1">  1       -1 0.80037743E-02 0.89724523E+02</pdfrwt>
<totfact> 0.94387050E+04</totfact>
</mgrwt>
</event>
<event>
 5    1  0.6043464E+000  0.9182601E+02  0.7546771E-02  0.1298489E+00
         -4   -1    0    0    0  501 -0.00000000000E+00  0.00000000000E+00  0.26333129869E+03  0.26333129869E+03  0.00000000000E+00 0. -1.
          4   -1    0    0  501    0  0.00000000000E+00 -0.00000000000E+00 -0.80051408844E+01  0.80051408844E+01  0.00000000000E+00 0.  1.
         23    2    1    2    0    0  0.00000000000E+00  0.00000000000E+00  0.25532615781E+03  0.27133643957E+03  0.91826012552E+02 0.  0.
        -13    1    3    3    0    0 -0.40022202606E+02 -0.44952779153E+01  0.62519827520E+02  0.74368763995E+02  0.00000000000E+00 0.  1.
         13    1    3    3    0    0  0.40022202606E+02  0.44952779153E+01  0.19280633029E+03  0.19696767558E+03  0.00000000000E+00 0. -1.
<mgrwt>
<rscale>  0 0.91826013E+02</rscale>
<asrwt>0</asrwt>
<pdfrwt beam="2">  1        4 0.12315603E-02 0.91826013E+02</pdfrwt>
<pdfrwt beam="1">  1       -4 0.40512501E-01 0.91826013E+02</pdfrwt>
<totfact> 0.18380855E+04</totfact>
</mgrwt>
</event>
<event>
 5    1  0.6043464E+000  0.9394402E+02  0.7546771E-02  0.1293572E+00
         -1   -1    0    0    0  501 -0.00000000000E+00  0.00000000000E+00  0.12129148049E+02  0.12129148049E+02  0.00000000000E+00 0.  1.
          1   -1    0    0  501    0  0.00000000000E+00 -0.00000000000E+00 -0.18190639257E+03  0.18190639257E+03  0.00000000000E+00 0. -1.
         23    2    1    2    0    0  0.00000000000E+00  0.00000000000E+00 -0.16977724452E+03  0.19403554062E+03  0.93944016658E+02 0.  0.
        -13    1    3    3    0    0  0.32760202789E+02  0.14991326035E+02 -0.22637033239E+02  0.42548866224E+02  0.00000000000E+00 0.  1.
         13    1    3    3    0    0 -0.32760202789E+02 -0.14991326035E+02 -0.14714021128E+03  0.15148667439E+03  0.00000000000E+00 0. -1.
<mgrwt>
<rscale>  0 0.93944017E+02</rscale>
<asrwt>0</asrwt>
<pdfrwt beam="2">  1        1 0.27985601E-01 0.93944017E+02</pdfrwt>
<pdfrwt beam="1">  1       -1 0.18660226E-02 0.93944017E+02</pdfrwt>
<totfact> 0.10726609E+05</totfact>
</mgrwt>
</event>
<event>
 5    1  0.6043464E+000  0.9177126E+02  0.7546771E-02  0.1298618E+00
          2   -1    0    0  501    0  0.00000000000E+00  0.00000000000E+00  0.29337372986E+02  0.29337372986E+02  0.00000000000E+00 0.  1.
         -2   -1    0    0    0  501 -0.00000000000E+00 -0.00000000000E+00 -0.71768221512E+02  0.71768221512E+02  0.00000000000E+00 0. -1.
         23    2    1    2    0    0  0.00000000000E+00  0.00000000000E+00 -0.42430848526E+02  0.10110559450E+03  0.91771260928E+02 0.  0.
        -13    1    3    3    0    0  0.19114923540E+02 -0.75789350975E+01 -0.66408097533E+02  0.69518745509E+02  0.00000000000E+00 0. -1.
         13    1    3    3    0    0 -0.19114923540E+02  0.75789350975E+01  0.23977249007E+02  0.31586848990E+02  0.00000000000E+00 0.  1.
<mgrwt>
<rscale>  0 0.91771261E+02</rscale>
<asrwt>0</asrwt>
<pdfrwt beam="1">  1        2 0.45134420E-02 0.91771261E+02</pdfrwt>
<pdfrwt beam="2">  1       -2 0.11041265E-01 0.91771261E+02</pdfrwt>
<totfact> 0.86252846E+04</totfact>
</mgrwt>
</event>
<event>
 5    1  0.6043464E+000  0.9198023E+02  0.7546771E-02  0.1298126E+00
          4   -1    0    0  501    0  0.00000000000E+00  0.00000000000E+00  0.48312091748E+02  0.48312091748E+02  0.00000000000E+00 0. -1.
         -4   -1    0    0    0  501 -0.00000000000E+00 -0.00000000000E+00 -0.43779740361E+02  0.43779740361E+02  0.00000000000E+00 0.  1.
         23    2    1    2    0    0  0.00000000000E+00  0.00000000000E+00  0.45323513868E+01  0.92091832110E+02  0.91980233378E+02 0.  0.
        -13    1    3    3    0    0 -0.37672062869E+02 -0.26327006946E+02  0.59225681034E+00  0.45963533194E+02  0.00000000000E+00 0. -1.
         13    1    3    3    0    0  0.37672062869E+02  0.26327006946E+02  0.39400945764E+01  0.46128298915E+02  0.00000000000E+00 0.  1.
<mgrwt>
<rscale>  0 0.91980233E+02</rscale>
<asrwt>0</asrwt>
<pdfrwt beam="1">  1        4 0.74326296E-02 0.91980233E+02</pdfrwt>
<pdfrwt beam="2">  1       -4 0.67353446E-02 0.91980233E+02</pdfrwt>
<totfact> 0.26321411E+04</totfact>
</mgrwt>
</event>
<event>
 5    1  0.6043464E+000  0.9163939E+02  0.7546771E-02  0.1298930E+00
         -1   -1    0    0    0  501 -0.00000000000E+00  0.00000000000E+00  0.55981895217E+01  0.55981895217E+01  0.00000000000E+00 0.  1.
          1   -1    0    0  501    0  0.00000000000E+00 -0.00000000000E+00 -0.37502203069E+03  0.37502203069E+03  0.00000000000E+00 0. -1.
         23    2    1    2    0    0  0.00000000000E+00  0.00000000000E+00 -0.36942384116E+03  0.38062022021E+03  0.91639388967E+02 0.  0.
        -13    1    3    3    0    0 -0.40656539215E+02 -0.20498807464E+02 -0.16341593971E+03  0.16964057486E+03  0.00000000000E+00 0. -1.
         13    1    3    3    0    0  0.40656539215E+02  0.20498807464E+02 -0.20600790145E+03  0.21097964534E+03  0.00000000000E+00 0.  1.
<mgrwt>
<rscale>  0 0.91639389E+02</rscale>
<asrwt>0</asrwt>
<pdfrwt beam="2">  1        1 0.57695694E-01 0.91639389E+02</pdfrwt>
<pdfrwt beam="1">  1       -1 0.86125997E-03 0.91639389E+02</pdfrwt>
<totfact> 0.13165206E+05</totfact>
</mgrwt>
</event>
<event>
 5    1  0.6043464E+000  0.8659391E+02  0.7546771E-02  0.1311316E+00
          2   -1    0    0  501    0  0.00000000000E+00  0.00000000000E+00  0.32230789553E+02  0.32230789553E+02  0.00000000000E+00 0. -1.
         -2   -1    0    0    0  501 -0.00000000000E+00 -0.00000000000E+00 -0.58162596583E+02  0.58162596583E+02  0.00000000000E+00 0.  1.
         23    2    1    2    0    0  0.00000000000E+00  0.00000000000E+00 -0.25931807030E+02  0.90393386136E+02  0.86593912265E+02 0.  0.
        -13    1    3    3    0    0 -0.30769925082E+02  0.22911770873E+02 -0.33918696998E+02  0.51207573074E+02  0.00000000000E+00 0.  1.
         13    1    3    3    0    0  0.30769925082E+02 -0.22911770873E+02  0.79868899676E+01  0.39185813063E+02  0.00000000000E+00 0. -1.
<mgrwt>
<rscale>  0 0.86593912E+02</rscale>
<asrwt>0</asrwt>
<pdfrwt beam="1">  1        2 0.49585831E-02 0.86593912E+02</pdfrwt>
<pdfrwt beam="2">  1       -2 0.89480917E-02 0.86593912E+02</pdfrwt>
<totfact> 0.10486487E+05</totfact>
</mgrwt>
</event>
<event>
 5    1  0.6043464E+000  0.9570380E+02  0.7546771E-02  0.1289599E+00
          2   -1    0    0  501    0  0.00000000000E+00  0.00000000000E+00  0.45848880925E+02  0.45848880925E+02  0.00000000000E+00 0. -1.
         -2   -1    0    0    0  501 -0.00000000000E+00 -0.00000000000E+00 -0.49942429509E+02  0.49942429509E+02  0.00000000000E+00 0.  1.
         23    2    1    2    0    0  0.00000000000E+00  0.00000000000E+00 -0.40935485839E+01  0.95791310434E+02  0.95703803554E+02 0.  0.
        -13    1    3    3    0    0  0.12637821383E+02 -0.21561389653E+02  0.38797356147E+02  0.46150220985E+02  0.00000000000E+00 0. -1.
         13    1    3    3    0    0 -0.12637821383E+02  0.21561389653E+02 -0.42890904730E+02  0.49641089449E+02  0.00000000000E+00 0.  1.
<mgrwt>
<rscale>  0 0.95703804E+02</rscale>
<asrwt>0</asrwt>
<pdfrwt beam="1">  1        2 0.70536740E-02 0.95703804E+02</pdfrwt>
<pdfrwt beam="2">  1       -2 0.76834507E-02 0.95703804E+02</pdfrwt>
<totfact> 0.85926219E+04</totfact>
</mgrwt>
</event>
<event>
 5    1  0.6043464E+000  0.8978446E+02  0.7546771E-02  0.1303374E+00
         -1   -1    0    0    0  501 -0.00000000000E+00  0.00000000000E+00  0.28343430219E+02  0.28343430219E+02  0.00000000000E+00 0.  1.
          1   -1    0    0  501    0  0.00000000000E+00 -0.00000000000E+00 -0.71103330342E+02  0.71103330342E+02  0.00000000000E+00 0. -1.
         23    2    1    2    0    0  0.00000000000E+00  0.00000000000E+00 -0.42759900123E+02  0.99446760561E+02  0.89784459276E+02 0.  0.
        -13    1    3    3    0    0 -0.30209519957E+02 -0.28594695993E+02 -0.26798990787E+01  0.41682773349E+02  0.00000000000E+00 0.  1.
         13    1    3    3    0    0  0.30209519957E+02  0.28594695993E+02 -0.40080001044E+02  0.57763987212E+02  0.00000000000E+00 0. -1.
<mgrwt>
<rscale>  0 0.89784459E+02</rscale>
<asrwt>0</asrwt>
<pdfrwt beam="2">  1        1 0.10938974E-01 0.89784459E+02</pdfrwt>
<pdfrwt beam="1">  1       -1 0.43605278E-02 0.89784459E+02</pdfrwt>
<totfact> 0.10318305E+05</totfact>
</mgrwt>
</event>
<event>
 5    1  0.6043464E+000  0.9307958E+02  0.7546771E-02  0.1295561E+00
         -1   -1    0    0    0  501 -0.00000000000E+00  0.00000000000E+00  0.37233561084E+02  0.37233561084E+02  0.00000000000E+00 0.  1.
          1   -1    0    0  501    0  0.00000000000E+00 -0.00000000000E+00 -0.58172030067E+02  0.58172030067E+02  0.00000000000E+00 0. -1.
         23    2    1    2    0    0  0.00000000000E+00  0.00000000000E+00 -0.20938468983E+02  0.95405591151E+02  0.93079575308E+02 0.  0.
        -13    1    3    3    0    0 -0.42770695004E+02  0.18336258133E+02 -0.11118402885E+02  0.47845267228E+02  0.00000000000E+00 0.  1.
         13    1    3    3    0    0  0.42770695004E+02 -0.18336258133E+02 -0.98200660981E+01  0.47560323922E+02  0.00000000000E+00 0. -1.
<mgrwt>
<rscale>  0 0.93079575E+02</rscale>
<asrwt>0</asrwt>
<pdfrwt beam="2">  1        1 0.89495431E-02 0.93079575E+02</pdfrwt>
<pdfrwt beam="1">  1       -1 0.57282402E-02 0.93079575E+02</pdfrwt>
<totfact> 0.90561422E+04</totfact>
</mgrwt>
</event>
<event>
 5    1  0.6043464E+000  0.8691653E+02  0.7546771E-02  0.1310495E+00
          3   -1    0    0  501    0  0.00000000000E+00  0.00000000000E+00  0.46560305848E+02  0.46560305848E+02  0.00000000000E+00 0. -1.
         -3   -1    0    0    0  501 -0.00000000000E+00 -0.00000000000E+00 -0.40562893693E+02  0.40562893693E+02  0.00000000000E+00 0.  1.
         23    2    1    2    0    0  0.00000000000E+00  0.00000000000E+00  0.59974121558E+01  0.87123199541E+02  0.86916528611E+02 0.  0.
        -13    1    3    3    0    0 -0.18868267008E+02 -0.23148673166E+02  0.34645095397E+02  0.45740083125E+02  0.00000000000E+00 0. -1.
         13    1    3    3    0    0  0.18868267008E+02  0.23148673166E+02 -0.28647683241E+02  0.41383116416E+02  0.00000000000E+00 0.  1.
<mgrwt>
<rscale>  0 0.86916529E+02</rscale>
<asrwt>0</asrwt>
<pdfrwt beam="1">  1        3 0.71631240E-02 0.86916529E+02</pdfrwt>
<pdfrwt beam="2">  1       -3 0.62404452E-02 0.86916529E+02</pdfrwt>
<totfact> 0.40598856E+04</totfact>
</mgrwt>
</event>
<event>
 5    1  0.6043464E+000  0.9281017E+02  0.7546771E-02  0.1296186E+00
          1   -1    0    0  501    0  0.00000000000E+00  0.00000000000E+00  0.72800187164E+02  0.72800187164E+02  0.00000000000E+00 0. -1.
         -1   -1    0    0    0  501 -0.00000000000E+00 -0.00000000000E+00 -0.29580034596E+02  0.29580034596E+02  0.00000000000E+00 0.  1.
         23    2    1    2    0    0  0.00000000000E+00  0.00000000000E+00  0.43220152568E+02  0.10238022176E+03  0.92810173039E+02 0.  0.
        -13    1    3    3    0    0  0.50479381234E+01  0.44047398461E+02  0.64939066757E+01  0.44808769391E+02  0.00000000000E+00 0. -1.
         13    1    3    3    0    0 -0.50479381234E+01 -0.44047398461E+02  0.36726245893E+02  0.57571452369E+02  0.00000000000E+00 0.  1.
<mgrwt>
<rscale>  0 0.92810173E+02</rscale>
<asrwt>0</asrwt>
<pdfrwt beam="1">  1        1 0.11200029E-01 0.92810173E+02</pdfrwt>
<pdfrwt beam="2">  1       -1 0.45507746E-02 0.92810173E+02</pdfrwt>
<totfact> 0.94520438E+04</totfact>
</mgrwt>
</event>
<event>
 5    1  0.6043464E+000  0.9002948E+02  0.7546771E-02  0.1302780E+00
         -2   -1    0    0    0  501 -0.00000000000E+00  0.00000000000E+00  0.14950121078E+02  0.14950121078E+02  0.00000000000E+00 0.  1.
          2   -1    0    0  501    0  0.00000000000E+00 -0.00000000000E+00 -0.13553916861E+03  0.13553916861E+03  0.00000000000E+00 0. -1.
         23    2    1    2    0    0  0.00000000000E+00  0.00000000000E+00 -0.12058904753E+03  0.15048928968E+03  0.90029483649E+02 0.  0.
        -13    1    3    3    0    0 -0.14472423732E+02 -0.42620604011E+02 -0.61297522067E+02  0.76048360577E+02  0.00000000000E+00 0. -1.
         13    1    3    3    0    0  0.14472423732E+02  0.42620604011E+02 -0.59291525459E+02  0.74440929106E+02  0.00000000000E+00 0.  1.
<mgrwt>
<rscale>  0 0.90029484E+02</rscale>
<asrwt>0</asrwt>
<pdfrwt beam="2">  1        2 0.20852180E-01 0.90029484E+02</pdfrwt>
<pdfrwt beam="1">  1       -2 0.23000187E-02 0.90029484E+02</pdfrwt>
<totfact> 0.13986137E+05</totfact>
</mgrwt>
</event>
<event>
 5    1  0.6043464E+000  0.9394953E+02  0.7546771E-02  0.1293560E+00
          1   -1    0    0  501    0  0.00000000000E+00  0.00000000000E+00  0.19433372314E+02  0.19433372314E+02  0.00000000000E+00 0. -1.
         -1   -1    0    0    0  501 -0.00000000000E+00 -0.00000000000E+00 -0.11354842264E+03  0.11354842264E+03  0.00000000000E+00 0.  1.
         23    2    1    2    0    0  0.00000000000E+00  0.00000000000E+00 -0.94115050330E+02  0.13298179496E+03  0.93949534815E+02 0.  0.
        -13    1    3    3    0    0 -0.12004310644E+02  0.45323904373E+02 -0.51127800832E+02  0.69371548921E+02  0.00000000000E+00 0. -1.
         13    1    3    3    0    0  0.12004310644E+02 -0.45323904373E+02 -0.42987249498E+02  0.63610246039E+02  0.00000000000E+00 0.  1.
<mgrwt>
<rscale>  0 0.93949535E+02</rscale>
<asrwt>0</asrwt>
<pdfrwt beam="1">  1        1 0.29897496E-02 0.93949535E+02</pdfrwt>
<pdfrwt beam="2">  1       -1 0.17468988E-01 0.93949535E+02</pdfrwt>
<totfact> 0.73489907E+04</totfact>
</mgrwt>
</event>
<event>
 5    1  0.6043464E+000  0.9258380E+02  0.7546771E-02  0.1296713E+00
         -1   -1    0    0    0  501 -0.00000000000E+00  0.00000000000E+00  0.12752504493E+02  0.12752504493E+02  0.00000000000E+00 0.  1.
          1   -1    0    0  501    0  0.00000000000E+00 -0.00000000000E+00 -0.16804071877E+03  0.16804071877E+03  0.00000000000E+00 0. -1.
         23    2    1    2    0    0  0.00000000000E+00  0.00000000000E+00 -0.15528821428E+03  0.18079322327E+03  0.92583800335E+02 0.  0.
        -13    1    3    3    0    0  0.14000665215E+02 -0.33007008482E+02 -0.20462840490E+02  0.41282067248E+02  0.00000000000E+00 0.  1.
         13    1    3    3    0    0 -0.14000665215E+02  0.33007008482E+02 -0.13482537379E+03  0.13951115602E+03  0.00000000000E+00 0. -1.
<mgrwt>
<rscale>  0 0.92583800E+02</rscale>
<asrwt>0</asrwt>
<pdfrwt beam="2">  1        1 0.25852416E-01 0.92583800E+02</pdfrwt>
<pdfrwt beam="1">  1       -1 0.19619239E-02 0.92583800E+02</pdfrwt>
<totfact> 0.10989467E+05</totfact>
</mgrwt>
</event>
<event>
 5    1  0.6043464E+000  0.8933155E+02  0.7546771E-02  0.1304479E+00
          2   -1    0    0  501    0  0.00000000000E+00  0.00000000000E+00  0.12528974292E+03  0.12528974292E+03  0.00000000000E+00 0. -1.
         -2   -1    0    0    0  501 -0.00000000000E+00 -0.00000000000E+00 -0.15923340705E+02  0.15923340705E+02  0.00000000000E+00 0.  1.
         23    2    1    2    0    0  0.00000000000E+00  0.00000000000E+00  0.10936640221E+03  0.14121308362E+03  0.89331545678E+02 0.  0.
        -13    1    3    3    0    0 -0.20545384520E+02 -0.11938579290E+02 -0.51024733453E+01  0.24303862549E+02  0.00000000000E+00 0.  1.
         13    1    3    3    0    0  0.20545384520E+02  0.11938579290E+02  0.11446887556E+03  0.11690922108E+03  0.00000000000E+00 0. -1.
<mgrwt>
<rscale>  0 0.89331546E+02</rscale>
<asrwt>0</asrwt>
<pdfrwt beam="1">  1        2 0.19275344E-01 0.89331546E+02</pdfrwt>
<pdfrwt beam="2">  1       -2 0.24497448E-02 0.89331546E+02</pdfrwt>
<totfact> 0.13922691E+05</totfact>
</mgrwt>
</event>
<event>
 5    1  0.6043464E+000  0.9119832E+02  0.7546771E-02  0.1299975E+00
          3   -1    0    0  501    0  0.00000000000E+00  0.00000000000E+00  0.22619248722E+02  0.22619248722E+02  0.00000000000E+00 0. -1.
         -3   -1    0    0    0  501 -0.00000000000E+00 -0.00000000000E+00 -0.91925386538E+02  0.91925386538E+02  0.00000000000E+00 0.  1.
         23    2    1    2    0    0  0.00000000000E+00  0.00000000000E+00 -0.69306137816E+02  0.11454463526E+03  0.91198315378E+02 0.  0.
        -13    1    3    3    0    0 -0.26187309701E+02 -0.33418855999E+02 -0.55545219319E+02  0.69913278530E+02  0.00000000000E+00 0.  1.
         13    1    3    3    0    0  0.26187309701E+02  0.33418855999E+02 -0.13760918498E+02  0.44631356730E+02  0.00000000000E+00 0. -1.
<mgrwt>
<rscale>  0 0.91198315E+02</rscale>
<asrwt>0</asrwt>
<pdfrwt beam="1">  1        3 0.34798844E-02 0.91198315E+02</pdfrwt>
<pdfrwt beam="2">  1       -3 0.14142367E-01 0.91198315E+02</pdfrwt>
<totfact> 0.33603814E+04</totfact>
</mgrwt>
</event>
<event>
 5    1  0.6043464E+000  0.8521615E+02  0.7546771E-02  0.1314868E+00
          1   -1    0    0  501    0  0.00000000000E+00  0.00000000000E+00  0.52520701248E+02  0.52520701248E+02  0.00000000000E+00 0. -1.
         -1   -1    0    0    0  501 -0.00000000000E+00 -0.00000000000E+00 -0.34566331851E+02  0.34566331851E+02  0.00000000000E+00 0.  1.
         23    2    1    2    0    0  0.00000000000E+00  0.00000000000E+00  0.17954369397E+02  0.87087033100E+02  0.85216148432E+02 0.  0.
        -13    1    3    3    0    0 -0.20277981224E+02  0.19329200447E+02 -0.23831114453E+02  0.36779566725E+02  0.00000000000E+00 0.  1.
         13    1    3    3    0    0  0.20277981224E+02 -0.19329200447E+02  0.41785483850E+02  0.50307466374E+02  0.00000000000E+00 0. -1.
<mgrwt>
<rscale>  0 0.85216148E+02</rscale>
<asrwt>0</asrwt>
<pdfrwt beam="1">  1        1 0.80801079E-02 0.85216148E+02</pdfrwt>
<pdfrwt beam="2">  1       -1 0.53178972E-02 0.85216148E+02</pdfrwt>
<totfact> 0.11393031E+05</totfact>
</mgrwt>
</event>
<event>
 5    1  0.6043464E+000  0.9112534E+02  0.7546771E-02  0.1300149E+00
         -3   -1    0    0    0  501 -0.00000000000E+00  0.00000000000E+00  0.33075908418E+02  0.33075908418E+02  0.00000000000E+00 0.  1.
          3   -1    0    0  501    0  0.00000000000E+00 -0.00000000000E+00 -0.62763416889E+02  0.62763416889E+02  0.00000000000E+00 0. -1.
         23    2    1    2    0    0  0.00000000000E+00  0.00000000000E+00 -0.29687508471E+02  0.95839325307E+02  0.91125342886E+02 0.  0.
        -13    1    3    3    0    0  0.40460639401E+02 -0.19506792322E+02 -0.22879606372E+02  0.50408874964E+02  0.00000000000E+00 0. -1.
         13    1    3    3    0    0 -0.40460639401E+02  0.19506792322E+02 -0.68079020994E+01  0.45430450343E+02  0.00000000000E+00 0.  1.
<mgrwt>
<rscale>  0 0.91125343E+02</rscale>
<asrwt>0</asrwt>
<pdfrwt beam="2">  1        3 0.96559102E-02 0.91125343E+02</pdfrwt>
<pdfrwt beam="1">  1       -3 0.50886013E-02 0.91125343E+02</pdfrwt>
<totfact> 0.35036573E+04</totfact>
</mgrwt>
</event>
<event>
 5    1  0.6043464E+000  0.9315806E+02  0.7546771E-02  0.1295379E+00
         -1   -1    0    0    0  501 -0.00000000000E+00  0.00000000000E+00  0.80649241111E+02  0.80649241111E+02  0.00000000000E+00 0.  1.
          1   -1    0    0  501    0  0.00000000000E+00 -0.00000000000E+00 -0.26901753425E+02  0.26901753425E+02  0.00000000000E+00 0. -1.
         23    2    1    2    0    0  0.00000000000E+00  0.00000000000E+00  0.53747487686E+02  0.10755099454E+03  0.93158059195E+02 0.  0.
        -13    1    3    3    0    0  0.42692122054E+02  0.18258192138E+02  0.22611912682E+02  0.51645691599E+02  0.00000000000E+00 0. -1.
         13    1    3    3    0    0 -0.42692122054E+02 -0.18258192138E+02  0.31135575004E+02  0.55905302936E+02  0.00000000000E+00 0.  1.
<mgrwt>
<rscale>  0 0.93158059E+02</rscale>
<asrwt>0</asrwt>
<pdfrwt beam="2">  1        1 0.41387313E-02 0.93158059E+02</pdfrwt>
<pdfrwt beam="1">  1       -1 0.12407575E-01 0.93158059E+02</pdfrwt>
<totfact> 0.80002333E+04</totfact>
</mgrwt>
</event>
<event>
 5    1  0.6043464E+000  0.8701525E+02  0.7546771E-02  0.1310245E+00
          3   -1    0    0  501    0  0.00000000000E+00  0.00000000000E+00  0.13503146561E+03  0.13503146561E+03  0.00000000000E+00 0. -1.
         -3   -1    0    0    0  501 -0.00000000000E+00 -0.00000000000E+00 -0.14018312297E+02  0.14018312297E+02  0.00000000000E+00 0.  1.
         23    2    1    2    0    0  0.00000000000E+00  0.00000000000E+00  0.12101315331E+03  0.14904977791E+03  0.87015245901E+02 0.  0.
        -13    1    3    3    0    0  0.28454740551E+02 -0.21771988627E+02  0.18227684932E+02  0.40198759266E+02  0.00000000000E+00 0.  1.
         13    1    3    3    0    0 -0.28454740551E+02  0.21771988627E+02  0.10278546838E+03  0.10885101864E+03  0.00000000000E+00 0. -1.
<mgrwt>
<rscale>  0 0.87015246E+02</rscale>
<asrwt>0</asrwt>
<pdfrwt beam="1">  1        3 0.20774071E-01 0.87015246E+02</pdfrwt>
<pdfrwt beam="2">  1       -3 0.21566635E-02 0.87015246E+02</pdfrwt>
<totfact> 0.35576975E+04</totfact>
</mgrwt>
</event>
<event>
 5    1  0.6043464E+000  0.1025317E+03  0.7546771E-02  0.1275061E+00
         -2   -1    0    0    0  501 -0.00000000000E+00  0.00000000000E+00  0.38670842020E+02  0.38670842020E+02  0.00000000000E+00 0.  1.
          2   -1    0    0  501    0  0.00000000000E+00 -0.00000000000E+00 -0.67962976694E+02  0.67962976694E+02  0.00000000000E+00 0. -1.
         23    2    1    2    0    0  0.00000000000E+00  0.00000000000E+00 -0.29292134675E+02  0.10663381871E+03  0.10253166408E+03 0.  0.
        -13    1    3    3    0    0  0.18668892766E+02 -0.35065267731E+02 -0.48347563283E+02  0.62574654882E+02  0.00000000000E+00 0. -1.
         13    1    3    3    0    0 -0.18668892766E+02  0.35065267731E+02  0.19055428609E+02  0.44059163832E+02  0.00000000000E+00 0.  1.
<mgrwt>
<rscale>  0 0.10253166E+03</rscale>
<asrwt>0</asrwt>
<pdfrwt beam="2">  1        2 0.10455842E-01 0.10253166E+03</pdfrwt>
<pdfrwt beam="1">  1       -2 0.59493604E-02 0.10253166E+03</pdfrwt>
<totfact> 0.78686969E+04</totfact>
</mgrwt>
</event>
<event>
 5    1  0.6043464E+000  0.9231103E+02  0.7546771E-02  0.1297350E+00
          1   -1    0    0  501    0  0.00000000000E+00  0.00000000000E+00  0.43681800170E+03  0.43681800170E+03  0.00000000000E+00 0. -1.
         -1   -1    0    0    0  501 -0.00000000000E+00 -0.00000000000E+00 -0.48769312961E+01  0.48769312961E+01  0.00000000000E+00 0.  1.
         23    2    1    2    0    0  0.00000000000E+00  0.00000000000E+00  0.43194107041E+03  0.44169493300E+03  0.92311026063E+02 0.  0.
        -13    1    3    3    0    0  0.38041353736E+02 -0.26003725153E+02  0.20331726762E+03  0.20847361854E+03  0.00000000000E+00 0. -1.
         13    1    3    3    0    0 -0.38041353736E+02  0.26003725153E+02  0.22862380279E+03  0.23322131446E+03  0.00000000000E+00 0.  1.
<mgrwt>
<rscale>  0 0.92311026E+02</rscale>
<asrwt>0</asrwt>
<pdfrwt beam="1">  1        1 0.67202739E-01 0.92311026E+02</pdfrwt>
<pdfrwt beam="2">  1       -1 0.75029747E-03 0.92311026E+02</pdfrwt>
<totfact> 0.13234586E+05</totfact>
</mgrwt>
</event>
<event>
 5    1  0.6043464E+000  0.9234995E+02  0.7546771E-02  0.1297259E+00
         -1   -1    0    0    0  501 -0.00000000000E+00  0.00000000000E+00  0.29891792791E+03  0.29891792791E+03  0.00000000000E+00 0.  1.
          1   -1    0    0  501    0  0.00000000000E+00 -0.00000000000E+00 -0.71328212782E+01  0.71328212782E+01  0.00000000000E+00 0. -1.
         23    2    1    2    0    0  0.00000000000E+00  0.00000000000E+00  0.29178510664E+03  0.30605074919E+03  0.92349946544E+02 0.  0.
        -13    1    3    3    0    0  0.38137879442E+02  0.54936623534E+01  0.23021824462E+03  0.23342047539E+03  0.00000000000E+00 0.  1.
         13    1    3    3    0    0 -0.38137879442E+02 -0.54936623534E+01  0.61566862014E+02  0.72630273803E+02  0.00000000000E+00 0. -1.
<mgrwt>
<rscale>  0 0.92349947E+02</rscale>
<asrwt>0</asrwt>
<pdfrwt beam="2">  1        1 0.10973574E-02 0.92349947E+02</pdfrwt>
<pdfrwt beam="1">  1       -1 0.45987364E-01 0.92349947E+02</pdfrwt>
<totfact> 0.58675404E+04</totfact>
</mgrwt>
</event>
<event>
 5    1  0.6043464E+000  0.9948945E+02  0.7546771E-02  0.1281373E+00
          3   -1    0    0  501    0  0.00000000000E+00  0.00000000000E+00  0.20299182671E+03  0.20299182671E+03  0.00000000000E+00 0. -1.
         -3   -1    0    0    0  501 -0.00000000000E+00 -0.00000000000E+00 -0.12190331817E+02  0.12190331817E+02  0.00000000000E+00 0.  1.
         23    2    1    2    0    0  0.00000000000E+00  0.00000000000E+00  0.19080149489E+03  0.21518215853E+03  0.99489451173E+02 0.  0.
        -13    1    3    3    0    0 -0.28852632382E+02 -0.14027699785E+02  0.13175295776E+02  0.34681971908E+02  0.00000000000E+00 0.  1.
         13    1    3    3    0    0  0.28852632382E+02  0.14027699785E+02  0.17762619912E+03  0.18050018662E+03  0.00000000000E+00 0. -1.
<mgrwt>
<rscale>  0 0.99489451E+02</rscale>
<asrwt>0</asrwt>
<pdfrwt beam="1">  1        3 0.31229509E-01 0.99489451E+02</pdfrwt>
<pdfrwt beam="2">  1       -3 0.18754358E-02 0.99489451E+02</pdfrwt>
<totfact> 0.21888739E+04</totfact>
</mgrwt>
</event>
<event>
 5    1  0.6043464E+000  0.9420867E+02  0.7546771E-02  0.1292968E+00
          2   -1    0    0  501    0  0.00000000000E+00  0.00000000000E+00  0.30187323617E+03  0.30187323617E+03  0.00000000000E+00 0. -1.
         -2   -1    0    0    0  501 -0.00000000000E+00 -0.00000000000E+00 -0.73501664882E+01  0.73501664882E+01  0.00000000000E+00 0.  1.
         23    2    1    2    0    0  0.00000000000E+00  0.00000000000E+00  0.29452306968E+03  0.30922340266E+03  0.94208673575E+02 0.  0.
        -13    1    3    3    0    0 -0.32487926567E+02 -0.31097711841E+02  0.19324752730E+03  0.19841154165E+03  0.00000000000E+00 0.  1.
         13    1    3    3    0    0  0.32487926567E+02  0.31097711841E+02  0.10127554239E+03  0.11081186101E+03  0.00000000000E+00 0. -1.
<mgrwt>
<rscale>  0 0.94208674E+02</rscale>
<asrwt>0</asrwt>
<pdfrwt beam="1">  1        2 0.46442027E-01 0.94208674E+02</pdfrwt>
<pdfrwt beam="2">  1       -2 0.11307951E-02 0.94208674E+02</pdfrwt>
<totfact> 0.16499339E+05</totfact>
</mgrwt>
</event>
<event>
 5    1  0.6043464E+000  0.8995695E+02  0.7546771E-02  0.1302956E+00
         -2   -1    0    0    0  501 -0.00000000000E+00  0.00000000000E+00  0.11016305892E+03  0.11016305892E+03  0.00000000000E+00 0.  1.
          2   -1    0    0  501    0  0.00000000000E+00 -0.00000000000E+00 -0.18364260639E+02  0.18364260639E+02  0.00000000000E+00 0. -1.
         23    2    1    2    0    0  0.00000000000E+00  0.00000000000E+00  0.91798798277E+02  0.12852731955E+03  0.89956948074E+02 0.  0.
        -13    1    3    3    0    0  0.29241157825E+02  0.17833623236E+02  0.87554195320E+02  0.94015001711E+02  0.00000000000E+00 0.  1.
         13    1    3    3    0    0 -0.29241157825E+02 -0.17833623236E+02  0.42446029573E+01  0.34512317844E+02  0.00000000000E+00 0. -1.
<mgrwt>
<rscale>  0 0.89956948E+02</rscale>
<asrwt>0</asrwt>
<pdfrwt beam="2">  1        2 0.28252709E-02 0.89956948E+02</pdfrwt>
<pdfrwt beam="1">  1       -2 0.16948163E-01 0.89956948E+02</pdfrwt>
<totfact> 0.80141004E+04</totfact>
</mgrwt>
</event>
<event>
 5    1  0.6043464E+000  0.9114334E+02  0.7546771E-02  0.1300106E+00
          1   -1    0    0  501    0  0.00000000000E+00  0.00000000000E+00  0.76704836027E+01  0.76704836027E+01  0.00000000000E+00 0. -1.
         -1   -1    0    0    0  501 -0.00000000000E+00 -0.00000000000E+00 -0.27074915956E+03  0.27074915956E+03  0.00000000000E+00 0.  1.
         23    2    1    2    0    0  0.00000000000E+00  0.00000000000E+00 -0.26307867596E+03  0.27841964316E+03  0.91143337416E+02 0.  0.
        -13    1    3    3    0    0 -0.39345082994E+02  0.61428983730E+01 -0.19922839247E+03  0.20316919827E+03  0.00000000000E+00 0. -1.
         13    1    3    3    0    0  0.39345082994E+02 -0.61428983730E+01 -0.63850283483E+02  0.75250444896E+02  0.00000000000E+00 0.  1.
<mgrwt>
<rscale>  0 0.91143337E+02</rscale>
<asrwt>0</asrwt>
<pdfrwt beam="1">  1        1 0.11800743E-02 0.91143337E+02</pdfrwt>
<pdfrwt beam="2">  1       -1 0.41653720E-01 0.91143337E+02</pdfrwt>
<totfact> 0.63040410E+04</totfact>
</mgrwt>
</event>
<event>
 5    1  0.6043464E+000  0.9254047E+02  0.7546771E-02  0.1296814E+00
          1   -1    0    0  501    0  0.00000000000E+00  0.00000000000E+00  0.58862637414E+02  0.58862637414E+02  0.00000000000E+00 0. -1.
         -1   -1    0    0    0  501 -0.00000000000E+00 -0.00000000000E+00 -0.36371710877E+02  0.36371710877E+02  0.00000000000E+00 0.  1.
         23    2    1    2    0    0  0.00000000000E+00  0.00000000000E+00  0.22490926537E+02  0.95234348291E+02  0.92540473945E+02 0.  0.
        -13    1    3    3    0    0  0.27856724367E+02  0.22369356513E+02 -0.19013696083E+02  0.40471049431E+02  0.00000000000E+00 0.  1.
         13    1    3    3    0    0 -0.27856724367E+02 -0.22369356513E+02  0.41504622620E+02  0.54763298861E+02  0.00000000000E+00 0. -1.
<mgrwt>
<rscale>  0 0.92540474E+02</rscale>
<asrwt>0</asrwt>
<pdfrwt beam="1">  1        1 0.90557903E-02 0.92540474E+02</pdfrwt>
<pdfrwt beam="2">  1       -1 0.55956478E-02 0.92540474E+02</pdfrwt>
<totfact> 0.92205488E+04</totfact>
</mgrwt>
</event>
<event>
 5    1  0.6043464E+000  0.9090548E+02  0.7546771E-02  0.1300674E+00
          1   -1    0    0  501    0  0.00000000000E+00  0.00000000000E+00  0.84487658859E+02  0.84487658859E+02  0.00000000000E+00 0. -1.
         -1   -1    0    0    0  501 -0.00000000000E+00 -0.00000000000E+00 -0.24452700414E+02  0.24452700414E+02  0.00000000000E+00 0.  1.
         23    2    1    2    0    0  0.00000000000E+00  0.00000000000E+00  0.60034958445E+02  0.10894035927E+03  0.90905476420E+02 0.  0.
        -13    1    3    3    0    0 -0.36729270114E+02  0.14821154529E+02  0.56740416320E+02  0.69196681632E+02  0.00000000000E+00 0. -1.
         13    1    3    3    0    0  0.36729270114E+02 -0.14821154529E+02  0.32945421249E+01  0.39743677642E+02  0.00000000000E+00 0.  1.
<mgrwt>
<rscale>  0 0.90905476E+02</rscale>
<asrwt>0</asrwt>
<pdfrwt beam="1">  1        1 0.12998101E-01 0.90905476E+02</pdfrwt>
<pdfrwt beam="2">  1       -1 0.37619540E-02 0.90905476E+02</pdfrwt>
<totfact> 0.10245413E+05</totfact>
</mgrwt>
</event>
<event>
 5    1  0.6043464E+000  0.9173326E+02  0.7546771E-02  0.1298708E+00
          2   -1    0    0  501    0  0.00000000000E+00  0.00000000000E+00  0.61395160214E+02  0.61395160214E+02  0.00000000000E+00 0. -1.
         -2   -1    0    0    0  501 -0.00000000000E+00 -0.00000000000E+00 -0.34265694055E+02  0.34265694055E+02  0.00000000000E+00 0.  1.
         23    2    1    2    0    0  0.00000000000E+00  0.00000000000E+00  0.27129466159E+02  0.95660854270E+02  0.91733260628E+02 0.  0.
        -13    1    3    3    0    0 -0.39874869788E+02 -0.32489965513E+01 -0.98275138314E+01  0.41196374201E+02  0.00000000000E+00 0. -1.
         13    1    3    3    0    0  0.39874869788E+02  0.32489965513E+01  0.36956979990E+02  0.54464480069E+02  0.00000000000E+00 0.  1.
<mgrwt>
<rscale>  0 0.91733261E+02</rscale>
<asrwt>0</asrwt>
<pdfrwt beam="1">  1        2 0.94454092E-02 0.91733261E+02</pdfrwt>
<pdfrwt beam="2">  1       -2 0.52716453E-02 0.91733261E+02</pdfrwt>
<totfact> 0.10491055E+05</totfact>
</mgrwt>
</event>
<event>
 5    1  0.6043464E+000  0.9107876E+02  0.7546771E-02  0.1300260E+00
         -1   -1    0    0    0  501 -0.00000000000E+00  0.00000000000E+00  0.45932415624E+02  0.45932415624E+02  0.00000000000E+00 0.  1.
          1   -1    0    0  501    0  0.00000000000E+00 -0.00000000000E+00 -0.45149702659E+02  0.45149702659E+02  0.00000000000E+00 0. -1.
         23    2    1    2    0    0  0.00000000000E+00  0.00000000000E+00  0.78271296476E+00  0.91082118283E+02  0.91078755105E+02 0.  0.
        -13    1    3    3    0    0  0.11236308991E+02  0.15265696060E+02 -0.41017162165E+02  0.45185215591E+02  0.00000000000E+00 0. -1.
         13    1    3    3    0    0 -0.11236308991E+02 -0.15265696060E+02  0.41799875129E+02  0.45896902693E+02  0.00000000000E+00 0.  1.
<mgrwt>
<rscale>  0 0.91078755E+02</rscale>
<asrwt>0</asrwt>
<pdfrwt beam="2">  1        1 0.69461080E-02 0.91078755E+02</pdfrwt>
<pdfrwt beam="1">  1       -1 0.70665255E-02 0.91078755E+02</pdfrwt>
<totfact> 0.92617683E+04</totfact>
</mgrwt>
</event>
<event>
 5    1  0.6043464E+000  0.9779889E+02  0.7546771E-02  0.1284994E+00
         -1   -1    0    0    0  501 -0.00000000000E+00  0.00000000000E+00  0.14417459702E+02  0.14417459702E+02  0.00000000000E+00 0.  1.
          1   -1    0    0  501    0  0.00000000000E+00 -0.00000000000E+00 -0.16585137520E+03  0.16585137520E+03  0.00000000000E+00 0. -1.
         23    2    1    2    0    0  0.00000000000E+00  0.00000000000E+00 -0.15143391550E+03  0.18026883490E+03  0.97798885850E+02 0.  0.
        -13    1    3    3    0    0 -0.73376328675E+01 -0.48082611461E+02 -0.66431398612E+02  0.82334130848E+02  0.00000000000E+00 0.  1.
         13    1    3    3    0    0  0.73376328675E+01  0.48082611461E+02 -0.85002516887E+02  0.97934704053E+02  0.00000000000E+00 0. -1.
<mgrwt>
<rscale>  0 0.97798886E+02</rscale>
<asrwt>0</asrwt>
<pdfrwt beam="2">  1        1 0.25515595E-01 0.97798886E+02</pdfrwt>
<pdfrwt beam="1">  1       -1 0.22180708E-02 0.97798886E+02</pdfrwt>
<totfact> 0.94511073E+04</totfact>
</mgrwt>
</event>
<event>
 5    1  0.6043464E+000  0.8934628E+02  0.7546771E-02  0.1304443E+00
          1   -1    0    0  501    0  0.00000000000E+00  0.00000000000E+00  0.88952958414E+02  0.88952958414E+02  0.00000000000E+00 0. -1.
         -1   -1    0    0    0  501 -0.00000000000E+00 -0.00000000000E+00 -0.22435336983E+02  0.22435336983E+02  0.00000000000E+00 0.  1.
         23    2    1    2    0    0  0.00000000000E+00  0.00000000000E+00  0.66517621431E+02  0.11138829540E+03  0.89346283586E+02 0.  0.
        -13    1    3    3    0    0 -0.13631448376E+02 -0.40827786806E+02  0.18352231701E+02  0.46792402895E+02  0.00000000000E+00 0.  1.
         13    1    3    3    0    0  0.13631448376E+02  0.40827786806E+02  0.48165389730E+02  0.64595892502E+02  0.00000000000E+00 0. -1.
<mgrwt>
<rscale>  0 0.89346284E+02</rscale>
<asrwt>0</asrwt>
<pdfrwt beam="1">  1        1 0.13685070E-01 0.89346284E+02</pdfrwt>
<pdfrwt beam="2">  1       -1 0.34515904E-02 0.89346284E+02</pdfrwt>
<totfact> 0.10829861E+05</totfact>
</mgrwt>
</event>
<event>
 5    1  0.6043464E+000  0.8985201E+02  0.7546771E-02  0.1303210E+00
         -4   -1    0    0    0  501 -0.00000000000E+00  0.00000000000E+00  0.71347927968E+01  0.71347927968E+01  0.00000000000E+00 0.  1.
          4   -1    0    0  501    0  0.00000000000E+00 -0.00000000000E+00 -0.28288784267E+03  0.28288784267E+03  0.00000000000E+00 0. -1.
         23    2    1    2    0    0  0.00000000000E+00  0.00000000000E+00 -0.27575304987E+03  0.29002263546E+03  0.89852014828E+02 0.  0.
        -13    1    3    3    0    0  0.38012109106E+02 -0.10185048019E+02 -0.67922942089E+02  0.78499564992E+02  0.00000000000E+00 0.  1.
         13    1    3    3    0    0 -0.38012109106E+02  0.10185048019E+02 -0.20783010778E+03  0.21152307047E+03  0.00000000000E+00 0. -1.
<mgrwt>
<rscale>  0 0.89852015E+02</rscale>
<asrwt>0</asrwt>
<pdfrwt beam="2">  1        4 0.43521206E-01 0.89852015E+02</pdfrwt>
<pdfrwt beam="1">  1       -4 0.10976604E-02 0.89852015E+02</pdfrwt>
<totfact> 0.18846780E+04</totfact>
</mgrwt>
</event>
<event>
 5    1  0.6043464E+000  0.9083842E+02  0.7546771E-02  0.1300834E+00
         -2   -1    0    0    0  501 -0.00000000000E+00  0.00000000000E+00  0.18228111904E+02  0.18228111904E+02  0.00000000000E+00 0.  1.
          2   -1    0    0  501    0  0.00000000000E+00 -0.00000000000E+00 -0.11317160054E+03  0.11317160054E+03  0.00000000000E+00 0. -1.
         23    2    1    2    0    0  0.00000000000E+00  0.00000000000E+00 -0.94943488633E+02  0.13139971244E+03  0.90838419161E+02 0.  0.
        -13    1    3    3    0    0 -0.67376093904E+01  0.20205301963E+02  0.10556212543E+02  0.23771479360E+02  0.00000000000E+00 0.  1.
         13    1    3    3    0    0  0.67376093904E+01 -0.20205301963E+02 -0.10549970118E+03  0.10762823308E+03  0.00000000000E+00 0. -1.
<mgrwt>
<rscale>  0 0.90838419E+02</rscale>
<asrwt>0</asrwt>
<pdfrwt beam="2">  1        2 0.17411016E-01 0.90838419E+02</pdfrwt>
<pdfrwt beam="1">  1       -2 0.28043249E-02 0.90838419E+02</pdfrwt>
<totfact> 0.12877465E+05</totfact>
</mgrwt>
</event>
<event>
 5    1  0.6043464E+000  0.9075620E+02  0.7546771E-02  0.1301031E+00
          1   -1    0    0  501    0  0.00000000000E+00  0.00000000000E+00  0.23067498520E+02  0.23067498520E+02  0.00000000000E+00 0. -1.
         -1   -1    0    0    0  501 -0.00000000000E+00 -0.00000000000E+00 -0.89267247880E+02  0.89267247880E+02  0.00000000000E+00 0.  1.
         23    2    1    2    0    0  0.00000000000E+00  0.00000000000E+00 -0.66199749360E+02  0.11233474640E+03  0.90756203279E+02 0.  0.
        -13    1    3    3    0    0  0.25545247419E+02 -0.80659389481E+01 -0.78435720116E+02  0.82884143399E+02  0.00000000000E+00 0.  1.
         13    1    3    3    0    0 -0.25545247419E+02  0.80659389481E+01  0.12235970757E+02  0.29450603002E+02  0.00000000000E+00 0. -1.
<mgrwt>
<rscale>  0 0.90756203E+02</rscale>
<asrwt>0</asrwt>
<pdfrwt beam="1">  1        1 0.35488460E-02 0.90756203E+02</pdfrwt>
<pdfrwt beam="2">  1       -1 0.13733422E-01 0.90756203E+02</pdfrwt>
<totfact> 0.84053955E+04</totfact>
</mgrwt>
</event>
<event>
 5    1  0.6043464E+000  0.9468785E+02  0.7546771E-02  0.1291881E+00
          1   -1    0    0  501    0  0.00000000000E+00  0.00000000000E+00  0.10459695751E+02  0.10459695751E+02  0.00000000000E+00 0. -1.
         -1   -1    0    0    0  501 -0.00000000000E+00 -0.00000000000E+00 -0.21429371357E+03  0.21429371357E+03  0.00000000000E+00 0.  1.
         23    2    1    2    0    0  0.00000000000E+00  0.00000000000E+00 -0.20383401781E+03  0.22475340932E+03  0.94687846005E+02 0.  0.
        -13    1    3    3    0    0  0.43949608260E+02 -0.83586722452E+01 -0.13868993143E+03  0.14572691085E+03  0.00000000000E+00 0.  1.
         13    1    3    3    0    0 -0.43949608260E+02  0.83586722452E+01 -0.65144086387E+02  0.79026498462E+02  0.00000000000E+00 0. -1.
<mgrwt>
<rscale>  0 0.94687846E+02</rscale>
<asrwt>0</asrwt>
<pdfrwt beam="1">  1        1 0.16091841E-02 0.94687846E+02</pdfrwt>
<pdfrwt beam="2">  1       -1 0.32968262E-01 0.94687846E+02</pdfrwt>
<totfact> 0.61638141E+04</totfact>
</mgrwt>
</event>
<event>
 5    1  0.6043464E+000  0.9322806E+02  0.7546771E-02  0.1295218E+00
         -2   -1    0    0    0  501 -0.00000000000E+00  0.00000000000E+00  0.53747932341E+02  0.53747932341E+02  0.00000000000E+00 0.  1.
          2   -1    0    0  501    0  0.00000000000E+00 -0.00000000000E+00 -0.40427000523E+02  0.40427000523E+02  0.00000000000E+00 0. -1.
         23    2    1    2    0    0  0.00000000000E+00  0.00000000000E+00  0.13320931817E+02  0.94174932864E+02  0.93228057769E+02 0.  0.
        -13    1    3    3    0    0  0.41739806951E+02 -0.29120833698E+01  0.27416072970E+02  0.50023322270E+02  0.00000000000E+00 0. -1.
         13    1    3    3    0    0 -0.41739806951E+02  0.29120833698E+01 -0.14095141153E+02  0.44151610593E+02  0.00000000000E+00 0.  1.
<mgrwt>
<rscale>  0 0.93228058E+02</rscale>
<asrwt>0</asrwt>
<pdfrwt beam="2">  1        2 0.62195385E-02 0.93228058E+02</pdfrwt>
<pdfrwt beam="1">  1       -2 0.82689127E-02 0.93228058E+02</pdfrwt>
<totfact> 0.89666517E+04</totfact>
</mgrwt>
</event>
<event>
 5    1  0.6043464E+000  0.9037330E+02  0.7546771E-02  0.1301950E+00
          1   -1    0    0  501    0  0.00000000000E+00  0.00000000000E+00  0.99485202719E+01  0.99485202719E+01  0.00000000000E+00 0. -1.
         -1   -1    0    0    0  501 -0.00000000000E+00 -0.00000000000E+00 -0.20523988254E+03  0.20523988254E+03  0.00000000000E+00 0.  1.
         23    2    1    2    0    0  0.00000000000E+00  0.00000000000E+00 -0.19529136227E+03  0.21518840281E+03  0.90373295437E+02 0.  0.
        -13    1    3    3    0    0  0.33108642416E+02  0.28377498975E+02 -0.12585636043E+03  0.13319642679E+03  0.00000000000E+00 0.  1.
         13    1    3    3    0    0 -0.33108642416E+02 -0.28377498975E+02 -0.69435001842E+02  0.81991976019E+02  0.00000000000E+00 0. -1.
<mgrwt>
<rscale>  0 0.90373295E+02</rscale>
<asrwt>0</asrwt>
<pdfrwt beam="1">  1        1 0.15305418E-02 0.90373295E+02</pdfrwt>
<pdfrwt beam="2">  1       -1 0.31575362E-01 0.90373295E+02</pdfrwt>
<totfact> 0.70514931E+04</totfact>
</mgrwt>
</event>
<event>
 5    1  0.6043464E+000  0.9192961E+02  0.7546771E-02  0.1298245E+00
          4   -1    0    0  501    0  0.00000000000E+00  0.00000000000E+00  0.13507330135E+02  0.13507330135E+02  0.00000000000E+00 0. -1.
         -4   -1    0    0    0  501 -0.00000000000E+00 -0.00000000000E+00 -0.15641604172E+03  0.15641604172E+03  0.00000000000E+00 0.  1.
         23    2    1    2    0    0  0.00000000000E+00  0.00000000000E+00 -0.14290871159E+03  0.16992337186E+03  0.91929605979E+02 0.  0.
        -13    1    3    3    0    0  0.14311926778E+02 -0.35781232041E+02 -0.25146848984E+02  0.46016212668E+02  0.00000000000E+00 0. -1.
         13    1    3    3    0    0 -0.14311926778E+02  0.35781232041E+02 -0.11776186260E+03  0.12390715919E+03  0.00000000000E+00 0.  1.
<mgrwt>
<rscale>  0 0.91929606E+02</rscale>
<asrwt>0</asrwt>
<pdfrwt beam="1">  1        4 0.20780508E-02 0.91929606E+02</pdfrwt>
<pdfrwt beam="2">  1       -4 0.24064006E-01 0.91929606E+02</pdfrwt>
<totfact> 0.22214035E+04</totfact>
</mgrwt>
</event>
<event>
 5    1  0.6043464E+000  0.9153860E+02  0.7546771E-02  0.1299168E+00
         -2   -1    0    0    0  501 -0.00000000000E+00  0.00000000000E+00  0.74327774664E+02  0.74327774664E+02  0.00000000000E+00 0.  1.
          2   -1    0    0  501    0  0.00000000000E+00 -0.00000000000E+00 -0.28183664217E+02  0.28183664217E+02  0.00000000000E+00 0. -1.
         23    2    1    2    0    0  0.00000000000E+00  0.00000000000E+00  0.46144110447E+02  0.10251143888E+03  0.91538604821E+02 0.  0.
        -13    1    3    3    0    0  0.37225453221E+02 -0.26121207223E+02  0.28867018571E+02  0.53864242271E+02  0.00000000000E+00 0. -1.
         13    1    3    3    0    0 -0.37225453221E+02  0.26121207223E+02  0.17277091876E+02  0.48647196610E+02  0.00000000000E+00 0.  1.
<mgrwt>
<rscale>  0 0.91538605E+02</rscale>
<asrwt>0</asrwt>
<pdfrwt beam="2">  1        2 0.43359484E-02 0.91538605E+02</pdfrwt>
<pdfrwt beam="1">  1       -2 0.11435042E-01 0.91538605E+02</pdfrwt>
<totfact> 0.85970105E+04</totfact>
</mgrwt>
</event>
<event>
 5    1  0.6043464E+000  0.8956465E+02  0.7546771E-02  0.1303909E+00
         -1   -1    0    0    0  501 -0.00000000000E+00  0.00000000000E+00  0.95587040081E+02  0.95587040081E+02  0.00000000000E+00 0.  1.
          1   -1    0    0  501    0  0.00000000000E+00 -0.00000000000E+00 -0.20980421901E+02  0.20980421901E+02  0.00000000000E+00 0. -1.
         23    2    1    2    0    0  0.00000000000E+00  0.00000000000E+00  0.74606618180E+02  0.11656746198E+03  0.89564645460E+02 0.  0.
        -13    1    3    3    0    0  0.35891027456E+02  0.13529126362E+02  0.72207801441E+01  0.39030024057E+02  0.00000000000E+00 0.  1.
         13    1    3    3    0    0 -0.35891027456E+02 -0.13529126362E+02  0.67385838036E+02  0.77537437924E+02  0.00000000000E+00 0. -1.
<mgrwt>
<rscale>  0 0.89564645E+02</rscale>
<asrwt>0</asrwt>
<pdfrwt beam="2">  1        1 0.32277573E-02 0.89564645E+02</pdfrwt>
<pdfrwt beam="1">  1       -1 0.14705698E-01 0.89564645E+02</pdfrwt>
<totfact> 0.85897831E+04</totfact>
</mgrwt>
</event>
<event>
 5    1  0.6043464E+000  0.9211517E+02  0.7546771E-02  0.1297809E+00
         -2   -1    0    0    0  501 -0.00000000000E+00  0.00000000000E+00  0.88686386606E+01  0.88686386606E+01  0.00000000000E+00 0.  1.
          2   -1    0    0  501    0  0.00000000000E+00 -0.00000000000E+00 -0.23919131337E+03  0.23919131337E+03  0.00000000000E+00 0. -1.
         23    2    1    2    0    0  0.00000000000E+00  0.00000000000E+00 -0.23032267471E+03  0.24805995203E+03  0.92115174191E+02 0.  0.
        -13    1    3    3    0    0  0.22393237476E+02 -0.37684240830E+02 -0.77102069203E+02  0.88692097545E+02  0.00000000000E+00 0.  1.
         13    1    3    3    0    0 -0.22393237476E+02  0.37684240830E+02 -0.15322060551E+03  0.15936785449E+03  0.00000000000E+00 0. -1.
<mgrwt>
<rscale>  0 0.92115174E+02</rscale>
<asrwt>0</asrwt>
<pdfrwt beam="2">  1        2 0.36798659E-01 0.92115174E+02</pdfrwt>
<pdfrwt beam="1">  1       -2 0.13644061E-02 0.92115174E+02</pdfrwt>
<totfact> 0.16066438E+05</totfact>
</mgrwt>
</event>
<event>
 5    1  0.6043464E+000  0.9134404E+02  0.7546771E-02  0.1299629E+00
         -1   -1    0    0    0  501 -0.00000000000E+00  0.00000000000E+00  0.83227377512E+01  0.83227377512E+01  0.00000000000E+00 0.  1.
          1   -1    0    0  501    0  0.00000000000E+00 -0.00000000000E+00 -0.25063067118E+03  0.25063067118E+03  0.00000000000E+00 0. -1.
         23    2    1    2    0    0  0.00000000000E+00  0.00000000000E+00 -0.24230793343E+03  0.25895340893E+03  0.91344038637E+02 0.  0.
        -13    1    3    3    0    0  0.31793440139E+02  0.29633225827E+02 -0.16094224798E+03  0.16670740264E+03  0.00000000000E+00 0. -1.
         13    1    3    3    0    0 -0.31793440139E+02 -0.29633225827E+02 -0.81365685444E+02  0.92246006291E+02  0.00000000000E+00 0.  1.
<mgrwt>
<rscale>  0 0.91344039E+02</rscale>
<asrwt>0</asrwt>
<pdfrwt beam="2">  1        1 0.38558562E-01 0.91344039E+02</pdfrwt>
<pdfrwt beam="1">  1       -1 0.12804213E-02 0.91344039E+02</pdfrwt>
<totfact> 0.12312609E+05</totfact>
</mgrwt>
</event>
<event>
 5    1  0.6043464E+000  0.8886955E+02  0.7546771E-02  0.1305613E+00
          1   -1    0    0  501    0  0.00000000000E+00  0.00000000000E+00  0.23548311320E+03  0.23548311320E+03  0.00000000000E+00 0. -1.
         -1   -1    0    0    0  501 -0.00000000000E+00 -0.00000000000E+00 -0.83846750956E+01  0.83846750956E+01  0.00000000000E+00 0.  1.
         23    2    1    2    0    0  0.00000000000E+00  0.00000000000E+00  0.22709843810E+03  0.24386778829E+03  0.88869553721E+02 0.  0.
        -13    1    3    3    0    0  0.44072427188E+02  0.56547635616E+01  0.11439146605E+03  0.12271822478E+03  0.00000000000E+00 0. -1.
         13    1    3    3    0    0 -0.44072427188E+02 -0.56547635616E+01  0.11270697205E+03  0.12114956351E+03  0.00000000000E+00 0.  1.
<mgrwt>
<rscale>  0 0.88869554E+02</rscale>
<asrwt>0</asrwt>
<pdfrwt beam="1">  1        1 0.36228166E-01 0.88869554E+02</pdfrwt>
<pdfrwt beam="2">  1       -1 0.12899502E-02 0.88869554E+02</pdfrwt>
<totfact> 0.13088974E+05</totfact>
</mgrwt>
</event>
<event>
 5    1  0.6043464E+000  0.8913504E+02  0.7546771E-02  0.1304960E+00
          1   -1    0    0  501    0  0.00000000000E+00  0.00000000000E+00  0.59520767614E+01  0.59520767614E+01  0.00000000000E+00 0. -1.
         -1   -1    0    0    0  501 -0.00000000000E+00 -0.00000000000E+00 -0.33370938731E+03  0.33370938731E+03  0.00000000000E+00 0.  1.
         23    2    1    2    0    0  0.00000000000E+00  0.00000000000E+00 -0.32775731055E+03  0.33966146408E+03  0.89135041130E+02 0.  0.
        -13    1    3    3    0    0  0.28941825810E+02 -0.33873041778E+02 -0.15961542248E+03  0.16571691324E+03  0.00000000000E+00 0.  1.
         13    1    3    3    0    0 -0.28941825810E+02  0.33873041778E+02 -0.16814188808E+03  0.17394455084E+03  0.00000000000E+00 0. -1.
<mgrwt>
<rscale>  0 0.89135041E+02</rscale>
<asrwt>0</asrwt>
<pdfrwt beam="1">  1        1 0.91570409E-03 0.89135041E+02</pdfrwt>
<pdfrwt beam="2">  1       -1 0.51339907E-01 0.89135041E+02</pdfrwt>
<totfact> 0.61524227E+04</totfact>
</mgrwt>
</event>
<event>
 5    1  0.6043464E+000  0.8700253E+02  0.7546771E-02  0.1310277E+00
         -2   -1    0    0    0  501 -0.00000000000E+00  0.00000000000E+00  0.71775488466E+01  0.71775488466E+01  0.00000000000E+00 0.  1.
          2   -1    0    0  501    0  0.00000000000E+00 -0.00000000000E+00 -0.26364988739E+03  0.26364988739E+03  0.00000000000E+00 0. -1.
         23    2    1    2    0    0  0.00000000000E+00  0.00000000000E+00 -0.25647233854E+03  0.27082743623E+03  0.87002527437E+02 0.  0.
        -13    1    3    3    0    0 -0.26584506406E+01  0.35250426220E+02 -0.49320189694E+02  0.60680647821E+02  0.00000000000E+00 0.  1.
         13    1    3    3    0    0  0.26584506406E+01 -0.35250426220E+02 -0.20715214885E+03  0.21014678841E+03  0.00000000000E+00 0. -1.
<mgrwt>
<rscale>  0 0.87002527E+02</rscale>
<asrwt>0</asrwt>
<pdfrwt beam="2">  1        2 0.40561525E-01 0.87002527E+02</pdfrwt>
<pdfrwt beam="1">  1       -2 0.11042382E-02 0.87002527E+02</pdfrwt>
<totfact> 0.19399807E+05</totfact>
</mgrwt>
</event>
<event>
 5    1  0.6043464E+000  0.8938597E+02  0.7546771E-02  0.1304345E+00
         -3   -1    0    0    0  501 -0.00000000000E+00  0.00000000000E+00  0.10164325447E+03  0.10164325447E+03  0.00000000000E+00 0.  1.
          3   -1    0    0  501    0  0.00000000000E+00 -0.00000000000E+00 -0.19651702463E+02  0.19651702463E+02  0.00000000000E+00 0. -1.
         23    2    1    2    0    0  0.00000000000E+00  0.00000000000E+00  0.81991552004E+02  0.12129495693E+03  0.89385971923E+02 0.  0.
        -13    1    3    3    0    0  0.10511909311E+02  0.35408726662E+02  0.75141681149E+02  0.83729029656E+02  0.00000000000E+00 0.  1.
         13    1    3    3    0    0 -0.10511909311E+02 -0.35408726662E+02  0.68498708547E+01  0.37565927274E+02  0.00000000000E+00 0. -1.
<mgrwt>
<rscale>  0 0.89385972E+02</rscale>
<asrwt>0</asrwt>
<pdfrwt beam="2">  1        3 0.30233389E-02 0.89385972E+02</pdfrwt>
<pdfrwt beam="1">  1       -3 0.15637424E-01 0.89385972E+02</pdfrwt>
<totfact> 0.34990107E+04</totfact>
</mgrwt>
</event>
<event>
 5    1  0.6043464E+000  0.8846122E+02  0.7546771E-02  0.1306621E+00
         -1   -1    0    0    0  501 -0.00000000000E+00  0.00000000000E+00  0.37435030701E+03  0.37435030701E+03  0.00000000000E+00 0.  1.
          1   -1    0    0  501    0  0.00000000000E+00 -0.00000000000E+00 -0.52259786631E+01  0.52259786631E+01  0.00000000000E+00 0. -1.
         23    2    1    2    0    0  0.00000000000E+00  0.00000000000E+00  0.36912432835E+03  0.37957628567E+03  0.88461216744E+02 0.  0.
        -13    1    3    3    0    0  0.41287201065E+02 -0.15237317242E+02  0.16559575137E+03  0.17134398641E+03  0.00000000000E+00 0. -1.
         13    1    3    3    0    0 -0.41287201065E+02  0.15237317242E+02  0.20352857698E+03  0.20823229926E+03  0.00000000000E+00 0.  1.
<mgrwt>
<rscale>  0 0.88461217E+02</rscale>
<asrwt>0</asrwt>
<pdfrwt beam="2">  1        1 0.80399701E-03 0.88461217E+02</pdfrwt>
<pdfrwt beam="1">  1       -1 0.57592334E-01 0.88461217E+02</pdfrwt>
<totfact> 0.59580806E+04</totfact>
</mgrwt>
</event>
<event>
 5    1  0.6043464E+000  0.9197758E+02  0.7546771E-02  0.1298132E+00
          4   -1    0    0  501    0  0.00000000000E+00  0.00000000000E+00  0.32065217392E+02  0.32065217392E+02  0.00000000000E+00 0. -1.
         -4   -1    0    0    0  501 -0.00000000000E+00 -0.00000000000E+00 -0.65958345131E+02  0.65958345131E+02  0.00000000000E+00 0.  1.
         23    2    1    2    0    0  0.00000000000E+00  0.00000000000E+00 -0.33893127739E+02  0.98023562523E+02  0.91977577169E+02 0.  0.
        -13    1    3    3    0    0  0.31302075553E+02 -0.25803466997E+02  0.61415043587E+01  0.41028732844E+02  0.00000000000E+00 0. -1.
         13    1    3    3    0    0 -0.31302075553E+02  0.25803466997E+02 -0.40034632098E+02  0.56994829680E+02  0.00000000000E+00 0.  1.
<mgrwt>
<rscale>  0 0.91977577E+02</rscale>
<asrwt>0</asrwt>
<pdfrwt beam="1">  1        4 0.49331104E-02 0.91977577E+02</pdfrwt>
<pdfrwt beam="2">  1       -4 0.10147438E-01 0.91977577E+02</pdfrwt>
<totfact> 0.25956832E+04</totfact>
</mgrwt>
</event>
<event>
 5    1  0.6043464E+000  0.9127357E+02  0.7546771E-02  0.1299797E+00
         -1   -1    0    0    0  501 -0.00000000000E+00  0.00000000000E+00  0.38644012899E+02  0.38644012899E+02  0.00000000000E+00 0.  1.
          1   -1    0    0  501    0  0.00000000000E+00 -0.00000000000E+00 -0.53894929285E+02  0.53894929285E+02  0.00000000000E+00 0. -1.
         23    2    1    2    0    0  0.00000000000E+00  0.00000000000E+00 -0.15250916386E+02  0.92538942184E+02  0.91273574324E+02 0.  0.
        -13    1    3    3    0    0 -0.14475257214E+01 -0.25974616650E+02  0.30390234897E+02  0.40004279995E+02  0.00000000000E+00 0.  1.
         13    1    3    3    0    0  0.14475257214E+01  0.25974616650E+02 -0.45641151283E+02  0.52534662189E+02  0.00000000000E+00 0. -1.
<mgrwt>
<rscale>  0 0.91273574E+02</rscale>
<asrwt>0</asrwt>
<pdfrwt beam="2">  1        1 0.82915276E-02 0.91273574E+02</pdfrwt>
<pdfrwt beam="1">  1       -1 0.59452328E-02 0.91273574E+02</pdfrwt>
<totfact> 0.94545562E+04</totfact>
</mgrwt>
</event>
<event>
 5    1  0.6043464E+000  0.1171581E+03  0.7546771E-02  0.1247860E+00
          2   -1    0    0  501    0  0.00000000000E+00  0.00000000000E+00  0.28118095071E+03  0.28118095071E+03  0.00000000000E+00 0. -1.
         -2   -1    0    0    0  501 -0.00000000000E+00 -0.00000000000E+00 -0.12203895025E+02  0.12203895025E+02  0.00000000000E+00 0.  1.
         23    2    1    2    0    0  0.00000000000E+00  0.00000000000E+00  0.26897705569E+03  0.29338484574E+03  0.11715806085E+03 0.  0.
        -13    1    3    3    0    0  0.54311628927E+02  0.32920671293E+01  0.80146553849E+02  0.96871362314E+02  0.00000000000E+00 0.  1.
         13    1    3    3    0    0 -0.54311628927E+02 -0.32920671293E+01  0.18883050184E+03  0.19651348342E+03  0.00000000000E+00 0. -1.
<mgrwt>
<rscale>  0 0.11715806E+03</rscale>
<asrwt>0</asrwt>
<pdfrwt beam="1">  1        2 0.43258603E-01 0.11715806E+03</pdfrwt>
<pdfrwt beam="2">  1       -2 0.18775225E-02 0.11715806E+03</pdfrwt>
<totfact> 0.88867255E+04</totfact>
</mgrwt>
</event>
<event>
 5    1  0.6043464E+000  0.9057580E+02  0.7546771E-02  0.1301463E+00
         -1   -1    0    0    0  501 -0.00000000000E+00  0.00000000000E+00  0.21322565687E+03  0.21322565687E+03  0.00000000000E+00 0.  1.
          1   -1    0    0  501    0  0.00000000000E+00 -0.00000000000E+00 -0.96188893791E+01  0.96188893791E+01  0.00000000000E+00 0. -1.
         23    2    1    2    0    0  0.00000000000E+00  0.00000000000E+00  0.20360676749E+03  0.22284454625E+03  0.90575802645E+02 0.  0.
        -13    1    3    3    0    0  0.19940742064E+02  0.40571099364E+02  0.95134759854E+02  0.10532933984E+03  0.00000000000E+00 0. -1.
         13    1    3    3    0    0 -0.19940742064E+02 -0.40571099364E+02  0.10847200763E+03  0.11751520641E+03  0.00000000000E+00 0.  1.
<mgrwt>
<rscale>  0 0.90575803E+02</rscale>
<asrwt>0</asrwt>
<pdfrwt beam="2">  1        1 0.14798293E-02 0.90575803E+02</pdfrwt>
<pdfrwt beam="1">  1       -1 0.32803944E-01 0.90575803E+02</pdfrwt>
<totfact> 0.69319065E+04</totfact>
</mgrwt>
</event>
<event>
 5    1  0.6043464E+000  0.8907467E+02  0.7546771E-02  0.1305108E+00
         -2   -1    0    0    0  501 -0.00000000000E+00  0.00000000000E+00  0.10839167650E+03  0.10839167650E+03  0.00000000000E+00 0.  1.
          2   -1    0    0  501    0  0.00000000000E+00 -0.00000000000E+00 -0.18300058846E+02  0.18300058846E+02  0.00000000000E+00 0. -1.
         23    2    1    2    0    0  0.00000000000E+00  0.00000000000E+00  0.90091617659E+02  0.12669173535E+03  0.89074666622E+02 0.  0.
        -13    1    3    3    0    0  0.27620395911E+02 -0.17958319723E+02  0.87672080725E+02  0.93657788016E+02  0.00000000000E+00 0.  1.
         13    1    3    3    0    0 -0.27620395911E+02  0.17958319723E+02  0.24195369344E+01  0.33033947335E+02  0.00000000000E+00 0. -1.
<mgrwt>
<rscale>  0 0.89074667E+02</rscale>
<asrwt>0</asrwt>
<pdfrwt beam="2">  1        2 0.28153937E-02 0.89074667E+02</pdfrwt>
<pdfrwt beam="1">  1       -2 0.16675642E-01 0.89074667E+02</pdfrwt>
<totfact> 0.82548402E+04</totfact>
</mgrwt>
</event>
<event>
 5    1  0.6043464E+000  0.8965725E+02  0.7546771E-02  0.1303684E+00
          1   -1    0    0  501    0  0.00000000000E+00  0.00000000000E+00  0.47011615963E+02  0.47011615963E+02  0.00000000000E+00 0. -1.
         -1   -1    0    0    0  501 -0.00000000000E+00 -0.00000000000E+00 -0.42747003739E+02  0.42747003739E+02  0.00000000000E+00 0.  1.
         23    2    1    2    0    0  0.00000000000E+00  0.00000000000E+00  0.42646122244E+01  0.89758619702E+02  0.89657252319E+02 0.  0.
        -13    1    3    3    0    0 -0.11218694102E+02 -0.27014815452E+02 -0.31875886632E+02  0.43263512338E+02  0.00000000000E+00 0.  1.
         13    1    3    3    0    0  0.11218694102E+02  0.27014815452E+02  0.36140498856E+02  0.46495107364E+02  0.00000000000E+00 0. -1.
<mgrwt>
<rscale>  0 0.89657252E+02</rscale>
<asrwt>0</asrwt>
<pdfrwt beam="1">  1        1 0.72325563E-02 0.89657252E+02</pdfrwt>
<pdfrwt beam="2">  1       -1 0.65764621E-02 0.89657252E+02</pdfrwt>
<totfact> 0.97371623E+04</totfact>
</mgrwt>
</event>
<event>
 5    1  0.6043464E+000  0.9213749E+02  0.7546771E-02  0.1297756E+00
          1   -1    0    0  501    0  0.00000000000E+00  0.00000000000E+00  0.33886654045E+03  0.33886654045E+03  0.00000000000E+00 0. -1.
         -1   -1    0    0    0  501 -0.00000000000E+00 -0.00000000000E+00 -0.62630244213E+01  0.62630244213E+01  0.00000000000E+00 0.  1.
         23    2    1    2    0    0  0.00000000000E+00  0.00000000000E+00  0.33260351603E+03  0.34512956487E+03  0.92137493311E+02 0.  0.
        -13    1    3    3    0    0 -0.32278921196E+02 -0.27727355988E+02  0.23242293712E+03  0.23628617548E+03  0.00000000000E+00 0.  1.
         13    1    3    3    0    0  0.32278921196E+02  0.27727355988E+02  0.10018057891E+03  0.10884338939E+03  0.00000000000E+00 0. -1.
<mgrwt>
<rscale>  0 0.92137493E+02</rscale>
<asrwt>0</asrwt>
<pdfrwt beam="1">  1        1 0.52133300E-01 0.92137493E+02</pdfrwt>
<pdfrwt beam="2">  1       -1 0.96354249E-03 0.92137493E+02</pdfrwt>
<totfact> 0.12745907E+05</totfact>
</mgrwt>
</event>
<event>
 5    1  0.6043464E+000  0.9055725E+02  0.7546771E-02  0.1301508E+00
         -4   -1    0    0    0  501 -0.00000000000E+00  0.00000000000E+00  0.33692197073E+02  0.33692197073E+02  0.00000000000E+00 0.  1.
          4   -1    0    0  501    0  0.00000000000E+00 -0.00000000000E+00 -0.60849519914E+02  0.60849519914E+02  0.00000000000E+00 0. -1.
         23    2    1    2    0    0  0.00000000000E+00  0.00000000000E+00 -0.27157322841E+02  0.94541716987E+02  0.90557252979E+02 0.  0.
        -13    1    3    3    0    0 -0.20047538130E+02  0.37109355715E+01  0.28628869091E+02  0.35146649531E+02  0.00000000000E+00 0.  1.
         13    1    3    3    0    0  0.20047538130E+02 -0.37109355715E+01 -0.55786191931E+02  0.59395067456E+02  0.00000000000E+00 0. -1.
<mgrwt>
<rscale>  0 0.90557253E+02</rscale>
<asrwt>0</asrwt>
<pdfrwt beam="2">  1        4 0.93614645E-02 0.90557253E+02</pdfrwt>
<pdfrwt beam="1">  1       -4 0.51834150E-02 0.90557253E+02</pdfrwt>
<totfact> 0.27300402E+04</totfact>
</mgrwt>
</event>
<event>
 5    1  0.6043464E+000  0.9213755E+02  0.7546771E-02  0.1297756E+00
         -1   -1    0    0    0  501 -0.00000000000E+00  0.00000000000E+00  0.10015169655E+02  0.10015169655E+02  0.00000000000E+00 0.  1.
          1   -1    0    0  501    0  0.00000000000E+00 -0.00000000000E+00 -0.21191173366E+03  0.21191173366E+03  0.00000000000E+00 0. -1.
         23    2    1    2    0    0  0.00000000000E+00  0.00000000000E+00 -0.20189656401E+03  0.22192690332E+03  0.92137548578E+02 0.  0.
        -13    1    3    3    0    0 -0.36571738387E+02  0.17492548122E+02 -0.15365589548E+03  0.15891386190E+03  0.00000000000E+00 0. -1.
         13    1    3    3    0    0  0.36571738387E+02 -0.17492548122E+02 -0.48240668521E+02  0.63013041411E+02  0.00000000000E+00 0.  1.
<mgrwt>
<rscale>  0 0.92137549E+02</rscale>
<asrwt>0</asrwt>
<pdfrwt beam="2">  1        1 0.32601805E-01 0.92137549E+02</pdfrwt>
<pdfrwt beam="1">  1       -1 0.15407953E-02 0.92137549E+02</pdfrwt>
<totfact> 0.11642517E+05</totfact>
</mgrwt>
</event>
<event>
 5    1  0.6043464E+000  0.9015425E+02  0.7546771E-02  0.1302479E+00
         -3   -1    0    0    0  501 -0.00000000000E+00  0.00000000000E+00  0.17541190235E+02  0.17541190235E+02  0.00000000000E+00 0.  1.
          3   -1    0    0  501    0  0.00000000000E+00 -0.00000000000E+00 -0.11583860581E+03  0.11583860581E+03  0.00000000000E+00 0. -1.
         23    2    1    2    0    0  0.00000000000E+00  0.00000000000E+00 -0.98297415579E+02  0.13337979605E+03  0.90154246072E+02 0.  0.
        -13    1    3    3    0    0  0.38358361253E+01 -0.44585154887E+02 -0.57170250968E+02  0.72601565210E+02  0.00000000000E+00 0. -1.
         13    1    3    3    0    0 -0.38358361253E+01  0.44585154887E+02 -0.41127164610E+02  0.60778230840E+02  0.00000000000E+00 0.  1.
<mgrwt>
<rscale>  0 0.90154246E+02</rscale>
<asrwt>0</asrwt>
<pdfrwt beam="2">  1        3 0.17821324E-01 0.90154246E+02</pdfrwt>
<pdfrwt beam="1">  1       -3 0.26986447E-02 0.90154246E+02</pdfrwt>
<totfact> 0.33357889E+04</totfact>
</mgrwt>
</event>
<event>
 5    1  0.6043464E+000  0.9897821E+02  0.7546771E-02  0.1282459E+00
          1   -1    0    0  501    0  0.00000000000E+00  0.00000000000E+00  0.16110930431E+02  0.16110930431E+02  0.00000000000E+00 0. -1.
         -1   -1    0    0    0  501 -0.00000000000E+00 -0.00000000000E+00 -0.15201923470E+03  0.15201923470E+03  0.00000000000E+00 0.  1.
         23    2    1    2    0    0  0.00000000000E+00  0.00000000000E+00 -0.13590830426E+03  0.16813016513E+03  0.98978205972E+02 0.  0.
        -13    1    3    3    0    0  0.42285542263E+02  0.17691467783E+02 -0.36260799896E+02  0.58445707506E+02  0.00000000000E+00 0. -1.
         13    1    3    3    0    0 -0.42285542263E+02 -0.17691467783E+02 -0.99647504368E+02  0.10968445762E+03  0.00000000000E+00 0.  1.
<mgrwt>
<rscale>  0 0.98978206E+02</rscale>
<asrwt>0</asrwt>
<pdfrwt beam="1">  1        1 0.24786048E-02 0.98978206E+02</pdfrwt>
<pdfrwt beam="2">  1       -1 0.23387573E-01 0.98978206E+02</pdfrwt>
<totfact> 0.60209790E+04</totfact>
</mgrwt>
</event>
<event>
 5    1  0.6043464E+000  0.9335307E+02  0.7546771E-02  0.1294929E+00
         -1   -1    0    0    0  501 -0.00000000000E+00  0.00000000000E+00  0.87729202665E+02  0.87729202665E+02  0.00000000000E+00 0.  1.
          1   -1    0    0  501    0  0.00000000000E+00 -0.00000000000E+00 -0.24834363965E+02  0.24834363965E+02  0.00000000000E+00 0. -1.
         23    2    1    2    0    0  0.00000000000E+00  0.00000000000E+00  0.62894838700E+02  0.11256356663E+03  0.93353070637E+02 0.  0.
        -13    1    3    3    0    0  0.31938356370E+02 -0.17919154859E+02  0.66343215687E+02  0.75779792730E+02  0.00000000000E+00 0.  1.
         13    1    3    3    0    0 -0.31938356370E+02  0.17919154859E+02 -0.34483769867E+01  0.36783773900E+02  0.00000000000E+00 0. -1.
<mgrwt>
<rscale>  0 0.93353071E+02</rscale>
<asrwt>0</asrwt>
<pdfrwt beam="2">  1        1 0.38206714E-02 0.93353071E+02</pdfrwt>
<pdfrwt beam="1">  1       -1 0.13496800E-01 0.93353071E+02</pdfrwt>
<totfact> 0.78416541E+04</totfact>
</mgrwt>
</event>
<event>
 5    1  0.6043464E+000  0.8948313E+02  0.7546771E-02  0.1304108E+00
          1   -1    0    0  501    0  0.00000000000E+00  0.00000000000E+00  0.28838865285E+02  0.28838865285E+02  0.00000000000E+00 0. -1.
         -1   -1    0    0    0  501 -0.00000000000E+00 -0.00000000000E+00 -0.69413541677E+02  0.69413541677E+02  0.00000000000E+00 0.  1.
         23    2    1    2    0    0  0.00000000000E+00  0.00000000000E+00 -0.40574676392E+02  0.98252406963E+02  0.89483133102E+02 0.  0.
        -13    1    3    3    0    0  0.73722779758E+01 -0.11881174481E+02 -0.66952884571E+02  0.68397379642E+02  0.00000000000E+00 0.  1.
         13    1    3    3    0    0 -0.73722779758E+01  0.11881174481E+02  0.26378208179E+02  0.29855027321E+02  0.00000000000E+00 0. -1.
<mgrwt>
<rscale>  0 0.89483133E+02</rscale>
<asrwt>0</asrwt>
<pdfrwt beam="1">  1        1 0.44367485E-02 0.89483133E+02</pdfrwt>
<pdfrwt beam="2">  1       -1 0.10679006E-01 0.89483133E+02</pdfrwt>
<totfact> 0.90894316E+04</totfact>
</mgrwt>
</event>
<event>
 5    1  0.6043464E+000  0.9140737E+02  0.7546771E-02  0.1299479E+00
         -4   -1    0    0    0  501 -0.00000000000E+00  0.00000000000E+00  0.25207427900E+03  0.25207427900E+03  0.00000000000E+00 0.  1.
          4   -1    0    0  501    0  0.00000000000E+00 -0.00000000000E+00 -0.82865529144E+01  0.82865529144E+01  0.00000000000E+00 0. -1.
         23    2    1    2    0    0  0.00000000000E+00  0.00000000000E+00  0.24378772608E+03  0.26036083191E+03  0.91407370628E+02 0.  0.
        -13    1    3    3    0    0  0.12684210137E+02  0.42327624143E+02  0.15514895337E+03  0.16131867432E+03  0.00000000000E+00 0.  1.
         13    1    3    3    0    0 -0.12684210137E+02 -0.42327624143E+02  0.88638772707E+02  0.99042157587E+02  0.00000000000E+00 0. -1.
<mgrwt>
<rscale>  0 0.91407371E+02</rscale>
<asrwt>0</asrwt>
<pdfrwt beam="2">  1        4 0.12748545E-02 0.91407371E+02</pdfrwt>
<pdfrwt beam="1">  1       -4 0.38780652E-01 0.91407371E+02</pdfrwt>
<totfact> 0.18974171E+04</totfact>
</mgrwt>
</event>
<event>
 5    1  0.6043464E+000  0.9078846E+02  0.7546771E-02  0.1300953E+00
         -3   -1    0    0    0  501 -0.00000000000E+00  0.00000000000E+00  0.61082293421E+02  0.61082293421E+02  0.00000000000E+00 0.  1.
          3   -1    0    0  501    0  0.00000000000E+00 -0.00000000000E+00 -0.33735408880E+02  0.33735408880E+02  0.00000000000E+00 0. -1.
         23    2    1    2    0    0  0.00000000000E+00  0.00000000000E+00  0.27346884541E+02  0.94817702302E+02  0.90788460587E+02 0.  0.
        -13    1    3    3    0    0 -0.14168499807E+02  0.26232346287E+02  0.49423516970E+02  0.57719722870E+02  0.00000000000E+00 0.  1.
         13    1    3    3    0    0  0.14168499807E+02 -0.26232346287E+02 -0.22076632429E+02  0.37097979432E+02  0.00000000000E+00 0. -1.
<mgrwt>
<rscale>  0 0.90788461E+02</rscale>
<asrwt>0</asrwt>
<pdfrwt beam="2">  1        3 0.51900629E-02 0.90788461E+02</pdfrwt>
<pdfrwt beam="1">  1       -3 0.93972759E-02 0.90788461E+02</pdfrwt>
<totfact> 0.35470774E+04</totfact>
</mgrwt>
</event>
<event>
 5    1  0.6043464E+000  0.8530555E+02  0.7546771E-02  0.1314635E+00
         -2   -1    0    0    0  501 -0.00000000000E+00  0.00000000000E+00  0.63804113391E+01  0.63804113391E+01  0.00000000000E+00 0.  1.
          2   -1    0    0  501    0  0.00000000000E+00 -0.00000000000E+00 -0.28513194322E+03  0.28513194322E+03  0.00000000000E+00 0. -1.
         23    2    1    2    0    0  0.00000000000E+00  0.00000000000E+00 -0.27875153188E+03  0.29151235456E+03  0.85305546916E+02 0.  0.
        -13    1    3    3    0    0  0.41252475967E+02 -0.79888198807E+01 -0.16441089352E+03  0.16969540337E+03  0.00000000000E+00 0.  1.
         13    1    3    3    0    0 -0.41252475967E+02  0.79888198807E+01 -0.11434063836E+03  0.12181695119E+03  0.00000000000E+00 0. -1.
<mgrwt>
<rscale>  0 0.85305547E+02</rscale>
<asrwt>0</asrwt>
<pdfrwt beam="2">  1        2 0.43866455E-01 0.85305547E+02</pdfrwt>
<pdfrwt beam="1">  1       -2 0.98160170E-03 0.85305547E+02</pdfrwt>
<totfact> 0.21042796E+05</totfact>
</mgrwt>
</event>
<event>
 5    1  0.6043464E+000  0.9050236E+02  0.7546771E-02  0.1301640E+00
          3   -1    0    0  501    0  0.00000000000E+00  0.00000000000E+00  0.67747433532E+02  0.67747433532E+02  0.00000000000E+00 0. -1.
         -3   -1    0    0    0  501 -0.00000000000E+00 -0.00000000000E+00 -0.30225048856E+02  0.30225048856E+02  0.00000000000E+00 0.  1.
         23    2    1    2    0    0  0.00000000000E+00  0.00000000000E+00  0.37522384676E+02  0.97972482388E+02  0.90502364353E+02 0.  0.
        -13    1    3    3    0    0 -0.45182177921E+02  0.75400259918E+00  0.21339313770E+02  0.49973633386E+02  0.00000000000E+00 0. -1.
         13    1    3    3    0    0  0.45182177921E+02 -0.75400259918E+00  0.16183070906E+02  0.47998849002E+02  0.00000000000E+00 0.  1.
<mgrwt>
<rscale>  0 0.90502364E+02</rscale>
<asrwt>0</asrwt>
<pdfrwt beam="1">  1        3 0.10422682E-01 0.90502364E+02</pdfrwt>
<pdfrwt beam="2">  1       -3 0.46500076E-02 0.90502364E+02</pdfrwt>
<totfact> 0.35532005E+04</totfact>
</mgrwt>
</event>
<event>
 5    1  0.6043464E+000  0.9121736E+02  0.7546771E-02  0.1299930E+00
         -2   -1    0    0    0  501 -0.00000000000E+00  0.00000000000E+00  0.79926836852E+02  0.79926836852E+02  0.00000000000E+00 0.  1.
          2   -1    0    0  501    0  0.00000000000E+00 -0.00000000000E+00 -0.26025697147E+02  0.26025697147E+02  0.00000000000E+00 0. -1.
         23    2    1    2    0    0  0.00000000000E+00  0.00000000000E+00  0.53901139705E+02  0.10595253400E+03  0.91217359090E+02 0.  0.
        -13    1    3    3    0    0  0.19124874283E+02 -0.29940791169E+02 -0.62690408920E+01  0.36076483558E+02  0.00000000000E+00 0. -1.
         13    1    3    3    0    0 -0.19124874283E+02  0.29940791169E+02  0.60170180597E+02  0.69876050441E+02  0.00000000000E+00 0.  1.
<mgrwt>
<rscale>  0 0.91217359E+02</rscale>
<asrwt>0</asrwt>
<pdfrwt beam="2">  1        2 0.40039534E-02 0.91217359E+02</pdfrwt>
<pdfrwt beam="1">  1       -2 0.12296436E-01 0.91217359E+02</pdfrwt>
<totfact> 0.85007263E+04</totfact>
</mgrwt>
</event>
<event>
 5    1  0.6043464E+000  0.9048034E+02  0.7546771E-02  0.1301693E+00
         -1   -1    0    0    0  501 -0.00000000000E+00  0.00000000000E+00  0.15161009002E+03  0.15161009002E+03  0.00000000000E+00 0.  1.
          1   -1    0    0  501    0  0.00000000000E+00 -0.00000000000E+00 -0.13499583307E+02  0.13499583307E+02  0.00000000000E+00 0. -1.
         23    2    1    2    0    0  0.00000000000E+00  0.00000000000E+00  0.13811050671E+03  0.16510967332E+03  0.90480341297E+02 0.  0.
        -13    1    3    3    0    0  0.36050143955E+02  0.21359592965E+02  0.10017502193E+03  0.10858581910E+03  0.00000000000E+00 0.  1.
         13    1    3    3    0    0 -0.36050143955E+02 -0.21359592965E+02  0.37935484778E+02  0.56523854222E+02  0.00000000000E+00 0. -1.
<mgrwt>
<rscale>  0 0.90480341E+02</rscale>
<asrwt>0</asrwt>
<pdfrwt beam="2">  1        1 0.20768591E-02 0.90480341E+02</pdfrwt>
<pdfrwt beam="1">  1       -1 0.23324628E-01 0.90480341E+02</pdfrwt>
<totfact> 0.76099931E+04</totfact>
</mgrwt>
</event>
<event>
 5    1  0.6043464E+000  0.9064170E+02  0.7546771E-02  0.1301305E+00
         -2   -1    0    0    0  501 -0.00000000000E+00  0.00000000000E+00  0.19456734829E+03  0.19456734829E+03  0.00000000000E+00 0.  1.
          2   -1    0    0  501    0  0.00000000000E+00 -0.00000000000E+00 -0.10556649269E+02  0.10556649269E+02  0.00000000000E+00 0. -1.
         23    2    1    2    0    0  0.00000000000E+00  0.00000000000E+00  0.18401069902E+03  0.20512399756E+03  0.90641695814E+02 0.  0.
        -13    1    3    3    0    0  0.14371652528E+02  0.42802847516E+02  0.10087197255E+03  0.11051598526E+03  0.00000000000E+00 0.  1.
         13    1    3    3    0    0 -0.14371652528E+02 -0.42802847516E+02  0.83138726475E+02  0.94608012302E+02  0.00000000000E+00 0. -1.
<mgrwt>
<rscale>  0 0.90641696E+02</rscale>
<asrwt>0</asrwt>
<pdfrwt beam="2">  1        2 0.16241000E-02 0.90641696E+02</pdfrwt>
<pdfrwt beam="1">  1       -2 0.29933435E-01 0.90641696E+02</pdfrwt>
<totfact> 0.64014282E+04</totfact>
</mgrwt>
</event>
<event>
 5    1  0.6043464E+000  0.9120517E+02  0.7546771E-02  0.1299959E+00
          2   -1    0    0  501    0  0.00000000000E+00  0.00000000000E+00  0.91815740685E+02  0.91815740685E+02  0.00000000000E+00 0. -1.
         -2   -1    0    0    0  501 -0.00000000000E+00 -0.00000000000E+00 -0.22649662491E+02  0.22649662491E+02  0.00000000000E+00 0.  1.
         23    2    1    2    0    0  0.00000000000E+00  0.00000000000E+00  0.69166078194E+02  0.11446540318E+03  0.91205165157E+02 0.  0.
        -13    1    3    3    0    0 -0.14444966855E+02  0.41192203686E+01 -0.19455825707E+02  0.24579548365E+02  0.00000000000E+00 0.  1.
         13    1    3    3    0    0  0.14444966855E+02 -0.41192203686E+01  0.88621903901E+02  0.89885854810E+02  0.00000000000E+00 0. -1.
<mgrwt>
<rscale>  0 0.91205165E+02</rscale>
<asrwt>0</asrwt>
<pdfrwt beam="1">  1        2 0.14125498E-01 0.91205165E+02</pdfrwt>
<pdfrwt beam="2">  1       -2 0.34845635E-02 0.91205165E+02</pdfrwt>
<totfact> 0.11946175E+05</totfact>
</mgrwt>
</event>
<event>
 5    1  0.6043464E+000  0.9038109E+02  0.7546771E-02  0.1301931E+00
         -2   -1    0    0    0  501 -0.00000000000E+00  0.00000000000E+00  0.45117046389E+02  0.45117046389E+02  0.00000000000E+00 0.  1.
          2   -1    0    0  501    0  0.00000000000E+00 -0.00000000000E+00 -0.45264166451E+02  0.45264166451E+02  0.00000000000E+00 0. -1.
         23    2    1    2    0    0  0.00000000000E+00  0.00000000000E+00 -0.14712006221E+00  0.90381212840E+02  0.90381093101E+02 0.  0.
        -13    1    3    3    0    0  0.22041938477E+02 -0.38784085745E+02 -0.72938977508E+01  0.45202359488E+02  0.00000000000E+00 0. -1.
         13    1    3    3    0    0 -0.22041938477E+02  0.38784085745E+02  0.71467776886E+01  0.45178853352E+02  0.00000000000E+00 0.  1.
<mgrwt>
<rscale>  0 0.90381093E+02</rscale>
<asrwt>0</asrwt>
<pdfrwt beam="2">  1        2 0.69637179E-02 0.90381093E+02</pdfrwt>
<pdfrwt beam="1">  1       -2 0.69410840E-02 0.90381093E+02</pdfrwt>
<totfact> 0.10099841E+05</totfact>
</mgrwt>
</event>
<event>
 5    1  0.6043464E+000  0.8782583E+02  0.7546771E-02  0.1308204E+00
          1   -1    0    0  501    0  0.00000000000E+00  0.00000000000E+00  0.16362337691E+03  0.16362337691E+03  0.00000000000E+00 0. -1.
         -1   -1    0    0    0  501 -0.00000000000E+00 -0.00000000000E+00 -0.11785261315E+02  0.11785261315E+02  0.00000000000E+00 0.  1.
         23    2    1    2    0    0  0.00000000000E+00  0.00000000000E+00  0.15183811560E+03  0.17540863823E+03  0.87825833426E+02 0.  0.
        -13    1    3    3    0    0  0.83487600904E+01  0.43055932438E+02  0.80308038241E+02  0.91503530638E+02  0.00000000000E+00 0.  1.
         13    1    3    3    0    0 -0.83487600904E+01 -0.43055932438E+02  0.71530077357E+02  0.83905107591E+02  0.00000000000E+00 0. -1.
<mgrwt>
<rscale>  0 0.87825833E+02</rscale>
<asrwt>0</asrwt>
<pdfrwt beam="1">  1        1 0.25172826E-01 0.87825833E+02</pdfrwt>
<pdfrwt beam="2">  1       -1 0.18131172E-02 0.87825833E+02</pdfrwt>
<totfact> 0.12600650E+05</totfact>
</mgrwt>
</event>
<event>
 5    1  0.6043464E+000  0.9314437E+02  0.7546771E-02  0.1295411E+00
         -1   -1    0    0    0  501 -0.00000000000E+00  0.00000000000E+00  0.17224180288E+03  0.17224180288E+03  0.00000000000E+00 0.  1.
          1   -1    0    0  501    0  0.00000000000E+00 -0.00000000000E+00 -0.12592579379E+02  0.12592579379E+02  0.00000000000E+00 0. -1.
         23    2    1    2    0    0  0.00000000000E+00  0.00000000000E+00  0.15964922350E+03  0.18483438226E+03  0.93144373424E+02 0.  0.
        -13    1    3    3    0    0 -0.42690429760E+02 -0.24999643107E+01  0.43221110959E+02  0.60801209258E+02  0.00000000000E+00 0. -1.
         13    1    3    3    0    0  0.42690429760E+02  0.24999643107E+01  0.11642811254E+03  0.12403317300E+03  0.00000000000E+00 0.  1.
<mgrwt>
<rscale>  0 0.93144373E+02</rscale>
<asrwt>0</asrwt>
<pdfrwt beam="2">  1        1 0.19373200E-02 0.93144373E+02</pdfrwt>
<pdfrwt beam="1">  1       -1 0.26498737E-01 0.93144373E+02</pdfrwt>
<totfact> 0.68386003E+04</totfact>
</mgrwt>
</event>
<event>
 5    1  0.6043464E+000  0.9140372E+02  0.7546771E-02  0.1299488E+00
         -3   -1    0    0    0  501 -0.00000000000E+00  0.00000000000E+00  0.81708156093E+01  0.81708156093E+01  0.00000000000E+00 0.  1.
          3   -1    0    0  501    0  0.00000000000E+00 -0.00000000000E+00 -0.25562442568E+03  0.25562442568E+03  0.00000000000E+00 0. -1.
         23    2    1    2    0    0  0.00000000000E+00  0.00000000000E+00 -0.24745361007E+03  0.26379524128E+03  0.91403720875E+02 0.  0.
        -13    1    3    3    0    0  0.11248331955E+02 -0.42972113804E+02 -0.15474776172E+03  0.16099688598E+03  0.00000000000E+00 0.  1.
         13    1    3    3    0    0 -0.11248331955E+02  0.42972113804E+02 -0.92705848342E+02  0.10279835531E+03  0.00000000000E+00 0. -1.
<mgrwt>
<rscale>  0 0.91403721E+02</rscale>
<asrwt>0</asrwt>
<pdfrwt beam="2">  1        3 0.39326833E-01 0.91403721E+02</pdfrwt>
<pdfrwt beam="1">  1       -3 0.12570486E-02 0.91403721E+02</pdfrwt>
<totfact> 0.25333026E+04</totfact>
</mgrwt>
</event>
<event>
 5    1  0.6043464E+000  0.9069168E+02  0.7546771E-02  0.1301185E+00
          2   -1    0    0  501    0  0.00000000000E+00  0.00000000000E+00  0.63249529639E+01  0.63249529639E+01  0.00000000000E+00 0.  1.
         -2   -1    0    0    0  501 -0.00000000000E+00 -0.00000000000E+00 -0.32510050817E+03  0.32510050817E+03  0.00000000000E+00 0. -1.
         23    2    1    2    0    0  0.00000000000E+00  0.00000000000E+00 -0.31877555521E+03  0.33142546114E+03  0.90691684795E+02 0.  0.
        -13    1    3    3    0    0  0.33529704223E+02 -0.27726824536E+02 -0.11269871638E+03  0.12080570573E+03  0.00000000000E+00 0.  1.
         13    1    3    3    0    0 -0.33529704223E+02  0.27726824536E+02 -0.20607683883E+03  0.21061975541E+03  0.00000000000E+00 0. -1.
<mgrwt>
<rscale>  0 0.90691685E+02</rscale>
<asrwt>0</asrwt>
<pdfrwt beam="1">  1        2 0.97306973E-03 0.90691685E+02</pdfrwt>
<pdfrwt beam="2">  1       -2 0.50015461E-01 0.90691685E+02</pdfrwt>
<totfact> 0.49363525E+04</totfact>
</mgrwt>
</event>
<event>
 5    1  0.6043464E+000  0.9264972E+02  0.7546771E-02  0.1296559E+00
         -1   -1    0    0    0  501 -0.00000000000E+00  0.00000000000E+00  0.24176390157E+02  0.24176390157E+02  0.00000000000E+00 0.  1.
          1   -1    0    0  501    0  0.00000000000E+00 -0.00000000000E+00 -0.88763989329E+02  0.88763989329E+02  0.00000000000E+00 0. -1.
         23    2    1    2    0    0  0.00000000000E+00  0.00000000000E+00 -0.64587599172E+02  0.11294037949E+03  0.92649723970E+02 0.  0.
        -13    1    3    3    0    0  0.29001658188E+02  0.34117614048E+02 -0.46762769112E+02  0.64744608586E+02  0.00000000000E+00 0.  1.
         13    1    3    3    0    0 -0.29001658188E+02 -0.34117614048E+02 -0.17824830060E+02  0.48195770900E+02  0.00000000000E+00 0. -1.
<mgrwt>
<rscale>  0 0.92649724E+02</rscale>
<asrwt>0</asrwt>
<pdfrwt beam="2">  1        1 0.13655998E-01 0.92649724E+02</pdfrwt>
<pdfrwt beam="1">  1       -1 0.37194446E-02 0.92649724E+02</pdfrwt>
<totfact> 0.98028597E+04</totfact>
</mgrwt>
</event>
<event>
 5    1  0.6043464E+000  0.9150742E+02  0.7546771E-02  0.1299242E+00
         -1   -1    0    0    0  501 -0.00000000000E+00  0.00000000000E+00  0.10508799115E+02  0.10508799115E+02  0.00000000000E+00 0.  1.
          1   -1    0    0  501    0  0.00000000000E+00 -0.00000000000E+00 -0.19920465990E+03  0.19920465990E+03  0.00000000000E+00 0. -1.
         23    2    1    2    0    0  0.00000000000E+00  0.00000000000E+00 -0.18869586078E+03  0.20971345901E+03  0.91507415078E+02 0.  0.
        -13    1    3    3    0    0  0.39449971146E+02  0.19937745047E+02 -0.12142451168E+03  0.12921968093E+03  0.00000000000E+00 0. -1.
         13    1    3    3    0    0 -0.39449971146E+02 -0.19937745047E+02 -0.67271349098E+02  0.80493778086E+02  0.00000000000E+00 0.  1.
<mgrwt>
<rscale>  0 0.91507415E+02</rscale>
<asrwt>0</asrwt>
<pdfrwt beam="2">  1        1 0.30646869E-01 0.91507415E+02</pdfrwt>
<pdfrwt beam="1">  1       -1 0.16167384E-02 0.91507415E+02</pdfrwt>
<totfact> 0.11717057E+05</totfact>
</mgrwt>
</event>
<event>
 5    1  0.6043464E+000  0.8986187E+02  0.7546771E-02  0.1303187E+00
         -2   -1    0    0    0  501 -0.00000000000E+00  0.00000000000E+00  0.67828018883E+01  0.67828018883E+01  0.00000000000E+00 0.  1.
          2   -1    0    0  501    0  0.00000000000E+00 -0.00000000000E+00 -0.29763347307E+03  0.29763347307E+03  0.00000000000E+00 0. -1.
         23    2    1    2    0    0  0.00000000000E+00  0.00000000000E+00 -0.29085067118E+03  0.30441627496E+03  0.89861869181E+02 0.  0.
        -13    1    3    3    0    0 -0.32427235127E+02  0.30168261787E+02 -0.17103240176E+03  0.17667408426E+03  0.00000000000E+00 0. -1.
         13    1    3    3    0    0  0.32427235127E+02 -0.30168261787E+02 -0.11981826942E+03  0.12774219070E+03  0.00000000000E+00 0.  1.
<mgrwt>
<rscale>  0 0.89861869E+02</rscale>
<asrwt>0</asrwt>
<pdfrwt beam="2">  1        2 0.45789765E-01 0.89861869E+02</pdfrwt>
<pdfrwt beam="1">  1       -2 0.10435080E-02 0.89861869E+02</pdfrwt>
<totfact> 0.18620222E+05</totfact>
</mgrwt>
</event>
<event>
 5    1  0.6043464E+000  0.9224097E+02  0.7546771E-02  0.1297514E+00
         -3   -1    0    0    0  501 -0.00000000000E+00  0.00000000000E+00  0.87120112611E+02  0.87120112611E+02  0.00000000000E+00 0.  1.
          3   -1    0    0  501    0  0.00000000000E+00 -0.00000000000E+00 -0.24415708392E+02  0.24415708392E+02  0.00000000000E+00 0. -1.
         23    2    1    2    0    0  0.00000000000E+00  0.00000000000E+00  0.62704404219E+02  0.11153582100E+03  0.92240972775E+02 0.  0.
        -13    1    3    3    0    0 -0.66136363743E+01 -0.27059966565E+02 -0.13094241805E+02  0.30780531916E+02  0.00000000000E+00 0. -1.
         13    1    3    3    0    0  0.66136363743E+01  0.27059966565E+02  0.75798646024E+02  0.80755289088E+02  0.00000000000E+00 0.  1.
<mgrwt>
<rscale>  0 0.92240973E+02</rscale>
<asrwt>0</asrwt>
<pdfrwt beam="2">  1        3 0.37562629E-02 0.92240973E+02</pdfrwt>
<pdfrwt beam="1">  1       -3 0.13403094E-01 0.92240973E+02</pdfrwt>
<totfact> 0.32784326E+04</totfact>
</mgrwt>
</event>
<event>
 5    1  0.6043464E+000  0.8670188E+02  0.7546771E-02  0.1311041E+00
         -1   -1    0    0    0  501 -0.00000000000E+00  0.00000000000E+00  0.10313580751E+02  0.10313580751E+02  0.00000000000E+00 0.  1.
          1   -1    0    0  501    0  0.00000000000E+00 -0.00000000000E+00 -0.18221645991E+03  0.18221645991E+03  0.00000000000E+00 0. -1.
         23    2    1    2    0    0  0.00000000000E+00  0.00000000000E+00 -0.17190287916E+03  0.19253004066E+03  0.86701884028E+02 0.  0.
        -13    1    3    3    0    0 -0.38874153131E+02  0.26633291786E+01 -0.12814345072E+03  0.13393669052E+03  0.00000000000E+00 0. -1.
         13    1    3    3    0    0  0.38874153131E+02 -0.26633291786E+01 -0.43759428440E+02  0.58593350146E+02  0.00000000000E+00 0.  1.
<mgrwt>
<rscale>  0 0.86701884E+02</rscale>
<asrwt>0</asrwt>
<pdfrwt beam="2">  1        1 0.28033302E-01 0.86701884E+02</pdfrwt>
<pdfrwt beam="1">  1       -1 0.15867047E-02 0.86701884E+02</pdfrwt>
<totfact> 0.13307202E+05</totfact>
</mgrwt>
</event>
<event>
 5    1  0.6043464E+000  0.9141038E+02  0.7546771E-02  0.1299472E+00
          2   -1    0    0  501    0  0.00000000000E+00  0.00000000000E+00  0.10307984779E+03  0.10307984779E+03  0.00000000000E+00 0.  1.
         -2   -1    0    0    0  501 -0.00000000000E+00 -0.00000000000E+00 -0.20265495522E+02  0.20265495522E+02  0.00000000000E+00 0. -1.
         23    2    1    2    0    0  0.00000000000E+00  0.00000000000E+00  0.82814352271E+02  0.12334534332E+03  0.91410375645E+02 0.  0.
        -13    1    3    3    0    0  0.18554507280E+02  0.18996212935E+02  0.91603272580E+02  0.95374448327E+02  0.00000000000E+00 0.  1.
         13    1    3    3    0    0 -0.18554507280E+02 -0.18996212935E+02 -0.87889203088E+01  0.27970894989E+02  0.00000000000E+00 0. -1.
<mgrwt>
<rscale>  0 0.91410376E+02</rscale>
<asrwt>0</asrwt>
<pdfrwt beam="1">  1        2 0.15858438E-01 0.91410376E+02</pdfrwt>
<pdfrwt beam="2">  1       -2 0.31177686E-02 0.91410376E+02</pdfrwt>
<totfact> 0.12295058E+05</totfact>
</mgrwt>
</event>
<event>
 5    1  0.6043464E+000  0.9415530E+02  0.7546771E-02  0.1293090E+00
          2   -1    0    0  501    0  0.00000000000E+00  0.00000000000E+00  0.74919466893E+02  0.74919466893E+02  0.00000000000E+00 0. -1.
         -2   -1    0    0    0  501 -0.00000000000E+00 -0.00000000000E+00 -0.29582501264E+02  0.29582501264E+02  0.00000000000E+00 0.  1.
         23    2    1    2    0    0  0.00000000000E+00  0.00000000000E+00  0.45336965630E+02  0.10450196816E+03  0.94155302008E+02 0.  0.
        -13    1    3    3    0    0 -0.35545976085E+02 -0.54902363926E+01  0.56381472469E+02  0.66876973236E+02  0.00000000000E+00 0. -1.
         13    1    3    3    0    0  0.35545976085E+02  0.54902363926E+01 -0.11044506839E+02  0.37624994921E+02  0.00000000000E+00 0.  1.
<mgrwt>
<rscale>  0 0.94155302E+02</rscale>
<asrwt>0</asrwt>
<pdfrwt beam="1">  1        2 0.11526072E-01 0.94155302E+02</pdfrwt>
<pdfrwt beam="2">  1       -2 0.45511541E-02 0.94155302E+02</pdfrwt>
<totfact> 0.10303995E+05</totfact>
</mgrwt>
</event>
<event>
 5    1  0.6043464E+000  0.9028238E+02  0.7546771E-02  0.1302169E+00
         -2   -1    0    0    0  501 -0.00000000000E+00  0.00000000000E+00  0.88828087915E+01  0.88828087915E+01  0.00000000000E+00 0. -1.
          2   -1    0    0  501    0  0.00000000000E+00 -0.00000000000E+00 -0.22940118051E+03  0.22940118051E+03  0.00000000000E+00 0.  1.
         23    2    1    2    0    0  0.00000000000E+00  0.00000000000E+00 -0.22051837172E+03  0.23828398930E+03  0.90282375313E+02 0.  0.
        -13    1    3    3    0    0  0.28513071153E+02 -0.21323615565E+02 -0.18349898131E+03  0.18692128812E+03  0.00000000000E+00 0.  1.
         13    1    3    3    0    0 -0.28513071153E+02  0.21323615565E+02 -0.37019390407E+02  0.51362701189E+02  0.00000000000E+00 0. -1.
<mgrwt>
<rscale>  0 0.90282375E+02</rscale>
<asrwt>0</asrwt>
<pdfrwt beam="2">  1        2 0.35292491E-01 0.90282375E+02</pdfrwt>
<pdfrwt beam="1">  1       -2 0.13665859E-02 0.90282375E+02</pdfrwt>
<totfact> 0.16697297E+05</totfact>
</mgrwt>
</event>
<event>
 5    1  0.6043464E+000  0.9131167E+02  0.7546771E-02  0.1299706E+00
         -2   -1    0    0    0  501 -0.00000000000E+00  0.00000000000E+00  0.11825909534E+03  0.11825909534E+03  0.00000000000E+00 0. -1.
          2   -1    0    0  501    0  0.00000000000E+00 -0.00000000000E+00 -0.17626171967E+02  0.17626171967E+02  0.00000000000E+00 0.  1.
         23    2    1    2    0    0  0.00000000000E+00  0.00000000000E+00  0.10063292337E+03  0.13588526731E+03  0.91311667406E+02 0.  0.
        -13    1    3    3    0    0  0.59478326013E+01  0.27716211709E+02 -0.29436441613E+01  0.28499651667E+02  0.00000000000E+00 0.  1.
         13    1    3    3    0    0 -0.59478326013E+01 -0.27716211709E+02  0.10357656754E+03  0.10738561564E+03  0.00000000000E+00 0. -1.
<mgrwt>
<rscale>  0 0.91311667E+02</rscale>
<asrwt>0</asrwt>
<pdfrwt beam="2">  1        2 0.27117188E-02 0.91311667E+02</pdfrwt>
<pdfrwt beam="1">  1       -2 0.18193707E-01 0.91311667E+02</pdfrwt>
<totfact> 0.75492121E+04</totfact>
</mgrwt>
</event>
<event>
 5    1  0.6043464E+000  0.1043990E+03  0.7546771E-02  0.1271308E+00
          1   -1    0    0  501    0  0.00000000000E+00  0.00000000000E+00  0.10511635383E+03  0.10511635383E+03  0.00000000000E+00 0. -1.
         -1   -1    0    0    0  501 -0.00000000000E+00 -0.00000000000E+00 -0.25921654653E+02  0.25921654653E+02  0.00000000000E+00 0.  1.
         23    2    1    2    0    0  0.00000000000E+00  0.00000000000E+00  0.79194699178E+02  0.13103800848E+03  0.10439903874E+03 0.  0.
        -13    1    3    3    0    0  0.24739070065E+01  0.41033899641E+02 -0.78091075120E+00  0.41115823684E+02  0.00000000000E+00 0.  1.
         13    1    3    3    0    0 -0.24739070065E+01 -0.41033899641E+02  0.79975609929E+02  0.89922184800E+02  0.00000000000E+00 0. -1.
<mgrwt>
<rscale>  0 0.10439904E+03</rscale>
<asrwt>0</asrwt>
<pdfrwt beam="1">  1        1 0.16171746E-01 0.10439904E+03</pdfrwt>
<pdfrwt beam="2">  1       -1 0.39879469E-02 0.10439904E+03</pdfrwt>
<totfact> 0.72601434E+04</totfact>
</mgrwt>
</event>
<event>
 5    1  0.6043464E+000  0.9400627E+02  0.7546771E-02  0.1293430E+00
          1   -1    0    0  501    0  0.00000000000E+00  0.00000000000E+00  0.21196504325E+02  0.21196504325E+02  0.00000000000E+00 0.  1.
         -1   -1    0    0    0  501 -0.00000000000E+00 -0.00000000000E+00 -0.10422920191E+03  0.10422920191E+03  0.00000000000E+00 0. -1.
         23    2    1    2    0    0  0.00000000000E+00  0.00000000000E+00 -0.83032697587E+02  0.12542570624E+03  0.94006270624E+02 0.  0.
        -13    1    3    3    0    0 -0.17604031441E+01 -0.39880593087E+02 -0.74623842158E+02  0.84630246027E+02  0.00000000000E+00 0. -1.
         13    1    3    3    0    0  0.17604031441E+01  0.39880593087E+02 -0.84088554286E+01  0.40795460211E+02  0.00000000000E+00 0.  1.
<mgrwt>
<rscale>  0 0.94006271E+02</rscale>
<asrwt>0</asrwt>
<pdfrwt beam="1">  1        1 0.32610006E-02 0.94006271E+02</pdfrwt>
<pdfrwt beam="2">  1       -1 0.16035262E-01 0.94006271E+02</pdfrwt>
<totfact> 0.74615285E+04</totfact>
</mgrwt>
</event>
<event>
 5    1  0.6043464E+000  0.7443481E+02  0.7546771E-02  0.1345630E+00
          2   -1    0    0  501    0  0.00000000000E+00  0.00000000000E+00  0.51746691004E+02  0.51746691004E+02  0.00000000000E+00 0. -1.
         -2   -1    0    0    0  501 -0.00000000000E+00 -0.00000000000E+00 -0.26767608133E+02  0.26767608133E+02  0.00000000000E+00 0.  1.
         23    2    1    2    0    0  0.00000000000E+00  0.00000000000E+00  0.24979082871E+02  0.78514299137E+02  0.74434807636E+02 0.  0.
        -13    1    3    3    0    0  0.14426920186E+02  0.34002882720E+02  0.76785278065E+01  0.37726540374E+02  0.00000000000E+00 0.  1.
         13    1    3    3    0    0 -0.14426920186E+02 -0.34002882720E+02  0.17300555064E+02  0.40787758762E+02  0.00000000000E+00 0. -1.
<mgrwt>
<rscale>  0 0.74434808E+02</rscale>
<asrwt>0</asrwt>
<pdfrwt beam="1">  1        2 0.79610294E-02 0.74434808E+02</pdfrwt>
<pdfrwt beam="2">  1       -2 0.41180936E-02 0.74434808E+02</pdfrwt>
<totfact> 0.17969195E+05</totfact>
</mgrwt>
</event>
<event>
 5    1  0.6043464E+000  0.9240987E+02  0.7546771E-02  0.1297119E+00
         -4   -1    0    0    0  501 -0.00000000000E+00  0.00000000000E+00  0.44717927604E+02  0.44717927604E+02  0.00000000000E+00 0.  1.
          4   -1    0    0  501    0  0.00000000000E+00 -0.00000000000E+00 -0.47741391991E+02  0.47741391991E+02  0.00000000000E+00 0. -1.
         23    2    1    2    0    0  0.00000000000E+00  0.00000000000E+00 -0.30234643861E+01  0.92459319595E+02  0.92409872000E+02 0.  0.
        -13    1    3    3    0    0  0.37035493541E+02  0.40593169300E+01  0.25830354209E+02  0.45335560373E+02  0.00000000000E+00 0.  1.
         13    1    3    3    0    0 -0.37035493541E+02 -0.40593169300E+01 -0.28853818595E+02  0.47123759222E+02  0.00000000000E+00 0. -1.
<mgrwt>
<rscale>  0 0.92409872E+02</rscale>
<asrwt>0</asrwt>
<pdfrwt beam="2">  1        4 0.73448295E-02 0.92409872E+02</pdfrwt>
<pdfrwt beam="1">  1       -4 0.68796812E-02 0.92409872E+02</pdfrwt>
<totfact> 0.25966735E+04</totfact>
</mgrwt>
</event>
<event>
 5    1  0.6043464E+000  0.9008568E+02  0.7546771E-02  0.1302644E+00
          1   -1    0    0  501    0  0.00000000000E+00  0.00000000000E+00  0.13533215175E+03  0.13533215175E+03  0.00000000000E+00 0. -1.
         -1   -1    0    0    0  501 -0.00000000000E+00 -0.00000000000E+00 -0.14991688385E+02  0.14991688385E+02  0.00000000000E+00 0.  1.
         23    2    1    2    0    0  0.00000000000E+00  0.00000000000E+00  0.12034046337E+03  0.15032384014E+03  0.90085680273E+02 0.  0.
        -13    1    3    3    0    0 -0.17919542842E+00 -0.35387616628E+02  0.10667040306E+03  0.11238723419E+03  0.00000000000E+00 0. -1.
         13    1    3    3    0    0  0.17919542842E+00  0.35387616628E+02  0.13670060312E+02  0.37936605944E+02  0.00000000000E+00 0.  1.
<mgrwt>
<rscale>  0 0.90085680E+02</rscale>
<asrwt>0</asrwt>
<pdfrwt beam="1">  1        1 0.20820330E-01 0.90085680E+02</pdfrwt>
<pdfrwt beam="2">  1       -1 0.23064137E-02 0.90085680E+02</pdfrwt>
<totfact> 0.11369194E+05</totfact>
</mgrwt>
</event>
<event>
 5    1  0.6043464E+000  0.9216118E+02  0.7546771E-02  0.1297701E+00
          1   -1    0    0  501    0  0.00000000000E+00  0.00000000000E+00  0.16535975517E+02  0.16535975517E+02  0.00000000000E+00 0. -1.
         -1   -1    0    0    0  501 -0.00000000000E+00 -0.00000000000E+00 -0.12841219942E+03  0.12841219942E+03  0.00000000000E+00 0.  1.
         23    2    1    2    0    0  0.00000000000E+00  0.00000000000E+00 -0.11187622390E+03  0.14494817494E+03  0.92161184578E+02 0.  0.
        -13    1    3    3    0    0 -0.18703477369E+02  0.37812486386E+02 -0.85100846583E+02  0.94982936792E+02  0.00000000000E+00 0.  1.
         13    1    3    3    0    0  0.18703477369E+02 -0.37812486386E+02 -0.26775377321E+02  0.49965238147E+02  0.00000000000E+00 0. -1.
<mgrwt>
<rscale>  0 0.92161185E+02</rscale>
<asrwt>0</asrwt>
<pdfrwt beam="1">  1        1 0.25439963E-02 0.92161185E+02</pdfrwt>
<pdfrwt beam="2">  1       -1 0.19755722E-01 0.92161185E+02</pdfrwt>
<totfact> 0.75302785E+04</totfact>
</mgrwt>
</event>
<event>
 5    1  0.6043464E+000  0.9577218E+02  0.7546771E-02  0.1289446E+00
         -2   -1    0    0    0  501 -0.00000000000E+00  0.00000000000E+00  0.22510664434E+02  0.22510664434E+02  0.00000000000E+00 0. -1.
          2   -1    0    0  501    0  0.00000000000E+00 -0.00000000000E+00 -0.10186626962E+03  0.10186626962E+03  0.00000000000E+00 0.  1.
         23    2    1    2    0    0  0.00000000000E+00  0.00000000000E+00 -0.79355605184E+02  0.12437693405E+03  0.95772175762E+02 0.  0.
        -13    1    3    3    0    0  0.22441478246E+02  0.24855229703E+02 -0.84131110039E+02  0.90550792740E+02  0.00000000000E+00 0.  1.
         13    1    3    3    0    0 -0.22441478246E+02 -0.24855229703E+02  0.47755048551E+01  0.33826141313E+02  0.00000000000E+00 0. -1.
<mgrwt>
<rscale>  0 0.95772176E+02</rscale>
<asrwt>0</asrwt>
<pdfrwt beam="2">  1        2 0.15671733E-01 0.95772176E+02</pdfrwt>
<pdfrwt beam="1">  1       -2 0.34631792E-02 0.95772176E+02</pdfrwt>
<totfact> 0.10769732E+05</totfact>
</mgrwt>
</event>
<event>
 5    1  0.6043464E+000  0.9031338E+02  0.7546771E-02  0.1302095E+00
         -3   -1    0    0    0  501 -0.00000000000E+00  0.00000000000E+00  0.26853586900E+02  0.26853586900E+02  0.00000000000E+00 0.  1.
          3   -1    0    0  501    0  0.00000000000E+00 -0.00000000000E+00 -0.75934976662E+02  0.75934976662E+02  0.00000000000E+00 0. -1.
         23    2    1    2    0    0  0.00000000000E+00  0.00000000000E+00 -0.49081389762E+02  0.10278856356E+03  0.90313376519E+02 0.  0.
        -13    1    3    3    0    0  0.26160091486E+02  0.33260370708E+01  0.17179475328E+02  0.31472961120E+02  0.00000000000E+00 0.  1.
         13    1    3    3    0    0 -0.26160091486E+02 -0.33260370708E+01 -0.66260865090E+02  0.71315602442E+02  0.00000000000E+00 0. -1.
<mgrwt>
<rscale>  0 0.90313377E+02</rscale>
<asrwt>0</asrwt>
<pdfrwt beam="2">  1        3 0.11682304E-01 0.90313377E+02</pdfrwt>
<pdfrwt beam="1">  1       -3 0.41313211E-02 0.90313377E+02</pdfrwt>
<totfact> 0.35367965E+04</totfact>
</mgrwt>
</event>
<event>
 5    1  0.6043464E+000  0.9261771E+02  0.7546771E-02  0.1296634E+00
          4   -1    0    0  501    0  0.00000000000E+00  0.00000000000E+00  0.11054874888E+02  0.11054874888E+02  0.00000000000E+00 0. -1.
         -4   -1    0    0    0  501 -0.00000000000E+00 -0.00000000000E+00 -0.19398773369E+03  0.19398773369E+03  0.00000000000E+00 0.  1.
         23    2    1    2    0    0  0.00000000000E+00  0.00000000000E+00 -0.18293285880E+03  0.20504260858E+03  0.92617711607E+02 0.  0.
        -13    1    3    3    0    0  0.42852074558E+02 -0.10586763608E+02 -0.60462097081E+02  0.74860169924E+02  0.00000000000E+00 0.  1.
         13    1    3    3    0    0 -0.42852074558E+02  0.10586763608E+02 -0.12247076172E+03  0.13018243866E+03  0.00000000000E+00 0. -1.
<mgrwt>
<rscale>  0 0.92617712E+02</rscale>
<asrwt>0</asrwt>
<pdfrwt beam="1">  1        4 0.17007501E-02 0.92617712E+02</pdfrwt>
<pdfrwt beam="2">  1       -4 0.29844264E-01 0.92617712E+02</pdfrwt>
<totfact> 0.20304841E+04</totfact>
</mgrwt>
</event>
<event>
 5    1  0.6043464E+000  0.1007168E+03  0.7546771E-02  0.1278796E+00
         -1   -1    0    0    0  501 -0.00000000000E+00  0.00000000000E+00  0.20089174555E+02  0.20089174555E+02  0.00000000000E+00 0.  1.
          1   -1    0    0  501    0  0.00000000000E+00 -0.00000000000E+00 -0.12623550350E+03  0.12623550350E+03  0.00000000000E+00 0. -1.
         23    2    1    2    0    0  0.00000000000E+00  0.00000000000E+00 -0.10614632894E+03  0.14632467805E+03  0.10071677248E+03 0.  0.
        -13    1    3    3    0    0 -0.41225494010E+02  0.14623002429E+02 -0.16822324746E+02  0.46865383453E+02  0.00000000000E+00 0.  1.
         13    1    3    3    0    0  0.41225494010E+02 -0.14623002429E+02 -0.89324004199E+02  0.99459294601E+02  0.00000000000E+00 0. -1.
<mgrwt>
<rscale>  0 0.10071677E+03</rscale>
<asrwt>0</asrwt>
<pdfrwt beam="2">  1        1 0.19420847E-01 0.10071677E+03</pdfrwt>
<pdfrwt beam="1">  1       -1 0.30906422E-02 0.10071677E+03</pdfrwt>
<totfact> 0.82864583E+04</totfact>
</mgrwt>
</event>
<event>
 5    1  0.6043464E+000  0.8617113E+02  0.7546771E-02  0.1312398E+00
          2   -1    0    0  501    0  0.00000000000E+00  0.00000000000E+00  0.83327733856E+01  0.83327733856E+01  0.00000000000E+00 0. -1.
         -2   -1    0    0    0  501 -0.00000000000E+00 -0.00000000000E+00 -0.22277885420E+03  0.22277885420E+03  0.00000000000E+00 0.  1.
         23    2    1    2    0    0  0.00000000000E+00  0.00000000000E+00 -0.21444608081E+03  0.23111162758E+03  0.86171125259E+02 0.  0.
        -13    1    3    3    0    0 -0.20954133957E+02  0.33844934472E+02 -0.63005655206E+02  0.74526960942E+02  0.00000000000E+00 0. -1.
         13    1    3    3    0    0  0.20954133957E+02 -0.33844934472E+02 -0.15144042560E+03  0.15658466664E+03  0.00000000000E+00 0.  1.
<mgrwt>
<rscale>  0 0.86171125E+02</rscale>
<asrwt>0</asrwt>
<pdfrwt beam="1">  1        2 0.12819654E-02 0.86171125E+02</pdfrwt>
<pdfrwt beam="2">  1       -2 0.34273663E-01 0.86171125E+02</pdfrwt>
<totfact> 0.68598744E+04</totfact>
</mgrwt>
</event>
<event>
 5    1  0.6043464E+000  0.9111375E+02  0.7546771E-02  0.1300177E+00
         -2   -1    0    0    0  501 -0.00000000000E+00  0.00000000000E+00  0.16699174107E+02  0.16699174107E+02  0.00000000000E+00 0.  1.
          2   -1    0    0  501    0  0.00000000000E+00 -0.00000000000E+00 -0.12428333192E+03  0.12428333192E+03  0.00000000000E+00 0. -1.
         23    2    1    2    0    0  0.00000000000E+00  0.00000000000E+00 -0.10758415781E+03  0.14098250603E+03  0.91113753041E+02 0.  0.
        -13    1    3    3    0    0  0.34872590228E+02 -0.47681063198E+01 -0.90373077600E+01  0.36338757803E+02  0.00000000000E+00 0.  1.
         13    1    3    3    0    0 -0.34872590228E+02  0.47681063198E+01 -0.98546850051E+02  0.10464374822E+03  0.00000000000E+00 0. -1.
<mgrwt>
<rscale>  0 0.91113753E+02</rscale>
<asrwt>0</asrwt>
<pdfrwt beam="2">  1        2 0.19120513E-01 0.91113753E+02</pdfrwt>
<pdfrwt beam="1">  1       -2 0.25691036E-02 0.91113753E+02</pdfrwt>
<totfact> 0.13158884E+05</totfact>
</mgrwt>
</event>
<event>
 5    1  0.6043464E+000  0.9206906E+02  0.7546771E-02  0.1297917E+00
         -1   -1    0    0    0  501 -0.00000000000E+00  0.00000000000E+00  0.71225326442E+01  0.71225326442E+01  0.00000000000E+00 0.  1.
          1   -1    0    0  501    0  0.00000000000E+00 -0.00000000000E+00 -0.29753150337E+03  0.29753150337E+03  0.00000000000E+00 0. -1.
         23    2    1    2    0    0  0.00000000000E+00  0.00000000000E+00 -0.29040897072E+03  0.30465403601E+03  0.92069057677E+02 0.  0.
        -13    1    3    3    0    0 -0.39527262494E+02  0.44074366976E+01 -0.68499957270E+02  0.79209053299E+02  0.00000000000E+00 0.  1.
         13    1    3    3    0    0  0.39527262494E+02 -0.44074366976E+01 -0.22190901345E+03  0.22544498271E+03  0.00000000000E+00 0. -1.
<mgrwt>
<rscale>  0 0.92069058E+02</rscale>
<asrwt>0</asrwt>
<pdfrwt beam="2">  1        1 0.45774077E-01 0.92069058E+02</pdfrwt>
<pdfrwt beam="1">  1       -1 0.10957743E-02 0.92069058E+02</pdfrwt>
<totfact> 0.12463950E+05</totfact>
</mgrwt>
</event>
<event>
 5    1  0.6043464E+000  0.9402641E+02  0.7546771E-02  0.1293384E+00
         -1   -1    0    0    0  501 -0.00000000000E+00  0.00000000000E+00  0.37511222873E+02  0.37511222873E+02  0.00000000000E+00 0.  1.
          1   -1    0    0  501    0  0.00000000000E+00 -0.00000000000E+00 -0.58922143375E+02  0.58922143375E+02  0.00000000000E+00 0. -1.
         23    2    1    2    0    0  0.00000000000E+00  0.00000000000E+00 -0.21410920501E+02  0.96433366248E+02  0.94026414423E+02 0.  0.
        -13    1    3    3    0    0 -0.30998696734E+02 -0.19830459836E+02  0.19302290191E+02  0.41554118245E+02  0.00000000000E+00 0.  1.
         13    1    3    3    0    0  0.30998696734E+02  0.19830459836E+02 -0.40713210693E+02  0.54879248003E+02  0.00000000000E+00 0. -1.
<mgrwt>
<rscale>  0 0.94026414E+02</rscale>
<asrwt>0</asrwt>
<pdfrwt beam="2">  1        1 0.90649451E-02 0.94026414E+02</pdfrwt>
<pdfrwt beam="1">  1       -1 0.57709574E-02 0.94026414E+02</pdfrwt>
<totfact> 0.88214037E+04</totfact>
</mgrwt>
</event>
<event>
 5    1  0.6043464E+000  0.9907257E+02  0.7546771E-02  0.1282258E+00
          3   -1    0    0  501    0  0.00000000000E+00  0.00000000000E+00  0.59701609314E+02  0.59701609314E+02  0.00000000000E+00 0. -1.
         -3   -1    0    0    0  501 -0.00000000000E+00 -0.00000000000E+00 -0.41101799610E+02  0.41101799610E+02  0.00000000000E+00 0.  1.
         23    2    1    2    0    0  0.00000000000E+00  0.00000000000E+00  0.18599809705E+02  0.10080340892E+03  0.99072571025E+02 0.  0.
        -13    1    3    3    0    0  0.48708298320E+02  0.36319876333E+00  0.18469190063E+02  0.52093581372E+02  0.00000000000E+00 0.  1.
         13    1    3    3    0    0 -0.48708298320E+02 -0.36319876333E+00  0.13061964196E+00  0.48709827552E+02  0.00000000000E+00 0. -1.
<mgrwt>
<rscale>  0 0.99072571E+02</rscale>
<asrwt>0</asrwt>
<pdfrwt beam="1">  1        3 0.91848630E-02 0.99072571E+02</pdfrwt>
<pdfrwt beam="2">  1       -3 0.63233538E-02 0.99072571E+02</pdfrwt>
<totfact> 0.27572027E+04</totfact>
</mgrwt>
</event>
<event>
 5    1  0.6043464E+000  0.9007968E+02  0.7546771E-02  0.1302659E+00
          2   -1    0    0  501    0  0.00000000000E+00  0.00000000000E+00  0.37099122368E+03  0.37099122368E+03  0.00000000000E+00 0. -1.
         -2   -1    0    0    0  501 -0.00000000000E+00 -0.00000000000E+00 -0.54680194970E+01  0.54680194970E+01  0.00000000000E+00 0.  1.
         23    2    1    2    0    0  0.00000000000E+00  0.00000000000E+00  0.36552320419E+03  0.37645924318E+03  0.90079681267E+02 0.  0.
        -13    1    3    3    0    0  0.26227327753E+02  0.36440101078E+02  0.19773307883E+03  0.20276618098E+03  0.00000000000E+00 0. -1.
         13    1    3    3    0    0 -0.26227327753E+02 -0.36440101078E+02  0.16779012536E+03  0.17369306220E+03  0.00000000000E+00 0.  1.
<mgrwt>
<rscale>  0 0.90079681E+02</rscale>
<asrwt>0</asrwt>
<pdfrwt beam="1">  1        2 0.57075553E-01 0.90079681E+02</pdfrwt>
<pdfrwt beam="2">  1       -2 0.84123406E-03 0.90079681E+02</pdfrwt>
<totfact> 0.20061926E+05</totfact>
</mgrwt>
</event>
<event>
 5    1  0.6043464E+000  0.9448507E+02  0.7546771E-02  0.1292340E+00
         -1   -1    0    0    0  501 -0.00000000000E+00  0.00000000000E+00  0.32015222577E+02  0.32015222577E+02  0.00000000000E+00 0.  1.
          1   -1    0    0  501    0  0.00000000000E+00 -0.00000000000E+00 -0.69712368703E+02  0.69712368703E+02  0.00000000000E+00 0. -1.
         23    2    1    2    0    0  0.00000000000E+00  0.00000000000E+00 -0.37697146125E+02  0.10172759128E+03  0.94485067612E+02 0.  0.
        -13    1    3    3    0    0  0.27817748717E+02  0.21911655283E+02  0.14820011077E+02  0.38387244095E+02  0.00000000000E+00 0.  1.
         13    1    3    3    0    0 -0.27817748717E+02 -0.21911655283E+02 -0.52517157202E+02  0.63340347185E+02  0.00000000000E+00 0. -1.
<mgrwt>
<rscale>  0 0.94485068E+02</rscale>
<asrwt>0</asrwt>
<pdfrwt beam="2">  1        1 0.10724980E-01 0.94485068E+02</pdfrwt>
<pdfrwt beam="1">  1       -1 0.49254189E-02 0.94485068E+02</pdfrwt>
<totfact> 0.89341613E+04</totfact>
</mgrwt>
</event>
<event>
 5    1  0.6043464E+000  0.7067562E+02  0.7546771E-02  0.1357811E+00
          1   -1    0    0  501    0  0.00000000000E+00  0.00000000000E+00  0.36873158036E+01  0.36873158036E+01  0.00000000000E+00 0. -1.
         -1   -1    0    0    0  501 -0.00000000000E+00 -0.00000000000E+00 -0.33866394155E+03  0.33866394155E+03  0.00000000000E+00 0.  1.
         23    2    1    2    0    0  0.00000000000E+00  0.00000000000E+00 -0.33497662575E+03  0.34235125736E+03  0.70675622496E+02 0.  0.
        -13    1    3    3    0    0 -0.32300500783E+02 -0.13700886187E+02 -0.18788156419E+03  0.19112958639E+03  0.00000000000E+00 0.  1.
         13    1    3    3    0    0  0.32300500783E+02  0.13700886187E+02 -0.14709506156E+03  0.15122167096E+03  0.00000000000E+00 0. -1.
<mgrwt>
<rscale>  0 0.70675622E+02</rscale>
<asrwt>0</asrwt>
<pdfrwt beam="1">  1        1 0.56727932E-03 0.70675622E+02</pdfrwt>
<pdfrwt beam="2">  1       -1 0.52102148E-01 0.70675622E+02</pdfrwt>
<totfact> 0.11148218E+05</totfact>
</mgrwt>
</event>
<event>
 5    1  0.6043464E+000  0.9120754E+02  0.7546771E-02  0.1299954E+00
          2   -1    0    0  501    0  0.00000000000E+00  0.00000000000E+00  0.27636324906E+02  0.27636324906E+02  0.00000000000E+00 0.  1.
         -2   -1    0    0    0  501 -0.00000000000E+00 -0.00000000000E+00 -0.75252551935E+02  0.75252551935E+02  0.00000000000E+00 0. -1.
         23    2    1    2    0    0  0.00000000000E+00  0.00000000000E+00 -0.47616227029E+02  0.10288887684E+03  0.91207543005E+02 0.  0.
        -13    1    3    3    0    0 -0.38335025246E+01 -0.34961440617E+02 -0.56555427806E+02  0.66599658302E+02  0.00000000000E+00 0. -1.
         13    1    3    3    0    0  0.38335025246E+01  0.34961440617E+02  0.89392007767E+01  0.36289218539E+02  0.00000000000E+00 0.  1.
<mgrwt>
<rscale>  0 0.91207543E+02</rscale>
<asrwt>0</asrwt>
<pdfrwt beam="1">  1        2 0.42517423E-02 0.91207543E+02</pdfrwt>
<pdfrwt beam="2">  1       -2 0.11577316E-01 0.91207543E+02</pdfrwt>
<totfact> 0.86445406E+04</totfact>
</mgrwt>
</event>
<event>
 5    1  0.6043464E+000  0.9167036E+02  0.7546771E-02  0.1298856E+00
          2   -1    0    0  501    0  0.00000000000E+00  0.00000000000E+00  0.28849223102E+03  0.28849223102E+03  0.00000000000E+00 0. -1.
         -2   -1    0    0    0  501 -0.00000000000E+00 -0.00000000000E+00 -0.72822194441E+01  0.72822194441E+01  0.00000000000E+00 0.  1.
         23    2    1    2    0    0  0.00000000000E+00  0.00000000000E+00  0.28121001158E+03  0.29577445047E+03  0.91670360188E+02 0.  0.
        -13    1    3    3    0    0  0.20324480414E+02  0.40882013412E+02  0.12752266700E+03  0.13544908314E+03  0.00000000000E+00 0.  1.
         13    1    3    3    0    0 -0.20324480414E+02 -0.40882013412E+02  0.15368734458E+03  0.16032536733E+03  0.00000000000E+00 0. -1.
<mgrwt>
<rscale>  0 0.91670360E+02</rscale>
<asrwt>0</asrwt>
<pdfrwt beam="1">  1        2 0.44383411E-01 0.91670360E+02</pdfrwt>
<pdfrwt beam="2">  1       -2 0.11203417E-02 0.91670360E+02</pdfrwt>
<totfact> 0.17452366E+05</totfact>
</mgrwt>
</event>
<event>
 5    1  0.6043464E+000  0.9178229E+02  0.7546771E-02  0.1298592E+00
          1   -1    0    0  501    0  0.00000000000E+00  0.00000000000E+00  0.16130281864E+03  0.16130281864E+03  0.00000000000E+00 0. -1.
         -1   -1    0    0    0  501 -0.00000000000E+00 -0.00000000000E+00 -0.13056169996E+02  0.13056169996E+02  0.00000000000E+00 0.  1.
         23    2    1    2    0    0  0.00000000000E+00  0.00000000000E+00  0.14824664865E+03  0.17435898864E+03  0.91782286330E+02 0.  0.
        -13    1    3    3    0    0 -0.11624528226E+02  0.29692197038E+02  0.11426229219E+02  0.33872037664E+02  0.00000000000E+00 0.  1.
         13    1    3    3    0    0  0.11624528226E+02 -0.29692197038E+02  0.13682041943E+03  0.14048695097E+03  0.00000000000E+00 0. -1.
<mgrwt>
<rscale>  0 0.91782286E+02</rscale>
<asrwt>0</asrwt>
<pdfrwt beam="1">  1        1 0.24815817E-01 0.91782286E+02</pdfrwt>
<pdfrwt beam="2">  1       -1 0.20086417E-02 0.91782286E+02</pdfrwt>
<totfact> 0.11164141E+05</totfact>
</mgrwt>
</event>
<event>
 5    1  0.6043464E+000  0.9402222E+02  0.7546771E-02  0.1293394E+00
         -2   -1    0    0    0  501 -0.00000000000E+00  0.00000000000E+00  0.20341798762E+02  0.20341798762E+02  0.00000000000E+00 0. -1.
          2   -1    0    0  501    0  0.00000000000E+00 -0.00000000000E+00 -0.10864548915E+03  0.10864548915E+03  0.00000000000E+00 0.  1.
         23    2    1    2    0    0  0.00000000000E+00  0.00000000000E+00 -0.88303690391E+02  0.12898728791E+03  0.94022224537E+02 0.  0.
        -13    1    3    3    0    0  0.37615927530E+02 -0.83357890447E+01 -0.81106182057E+02  0.89792294495E+02  0.00000000000E+00 0.  1.
         13    1    3    3    0    0 -0.37615927530E+02  0.83357890447E+01 -0.71975083348E+01  0.39194993420E+02  0.00000000000E+00 0. -1.
<mgrwt>
<rscale>  0 0.94022225E+02</rscale>
<asrwt>0</asrwt>
<pdfrwt beam="2">  1        2 0.16714691E-01 0.94022225E+02</pdfrwt>
<pdfrwt beam="1">  1       -2 0.31295075E-02 0.94022225E+02</pdfrwt>
<totfact> 0.11564269E+05</totfact>
</mgrwt>
</event>
<event>
 5    1  0.6043464E+000  0.9102213E+02  0.7546771E-02  0.1300395E+00
          1   -1    0    0  501    0  0.00000000000E+00  0.00000000000E+00  0.22400821569E+03  0.22400821569E+03  0.00000000000E+00 0. -1.
         -1   -1    0    0    0  501 -0.00000000000E+00 -0.00000000000E+00 -0.92463431895E+01  0.92463431895E+01  0.00000000000E+00 0.  1.
         23    2    1    2    0    0  0.00000000000E+00  0.00000000000E+00  0.21476187250E+03  0.23325455888E+03  0.91022125652E+02 0.  0.
        -13    1    3    3    0    0 -0.62586407780E+01 -0.44814034920E+02  0.94882175246E+02  0.10511943441E+03  0.00000000000E+00 0.  1.
         13    1    3    3    0    0  0.62586407780E+01  0.44814034920E+02  0.11987969725E+03  0.12813512447E+03  0.00000000000E+00 0. -1.
<mgrwt>
<rscale>  0 0.91022126E+02</rscale>
<asrwt>0</asrwt>
<pdfrwt beam="1">  1        1 0.34462798E-01 0.91022126E+02</pdfrwt>
<pdfrwt beam="2">  1       -1 0.14225145E-02 0.91022126E+02</pdfrwt>
<totfact> 0.12160106E+05</totfact>
</mgrwt>
</event>
<event>
 5    1  0.6043464E+000  0.8180118E+02  0.7546771E-02  0.1324016E+00
          1   -1    0    0  501    0  0.00000000000E+00  0.00000000000E+00  0.10731873496E+02  0.10731873496E+02  0.00000000000E+00 0. -1.
         -1   -1    0    0    0  501 -0.00000000000E+00 -0.00000000000E+00 -0.15587754457E+03  0.15587754457E+03  0.00000000000E+00 0.  1.
         23    2    1    2    0    0  0.00000000000E+00  0.00000000000E+00 -0.14514567107E+03  0.16660941806E+03  0.81801175764E+02 0.  0.
        -13    1    3    3    0    0 -0.13005664269E+02 -0.21216250957E+02 -0.64617838838E+01  0.25710528169E+02  0.00000000000E+00 0. -1.
         13    1    3    3    0    0  0.13005664269E+02  0.21216250957E+02 -0.13868388719E+03  0.14089888989E+03  0.00000000000E+00 0.  1.
<mgrwt>
<rscale>  0 0.81801176E+02</rscale>
<asrwt>0</asrwt>
<pdfrwt beam="1">  1        1 0.16510575E-02 0.81801176E+02</pdfrwt>
<pdfrwt beam="2">  1       -1 0.23981160E-01 0.81801176E+02</pdfrwt>
<totfact> 0.98135436E+04</totfact>
</mgrwt>
</event>
<event>
 5    1  0.6043464E+000  0.9541639E+02  0.7546771E-02  0.1290241E+00
         -1   -1    0    0    0  501 -0.00000000000E+00  0.00000000000E+00  0.14979777792E+03  0.14979777792E+03  0.00000000000E+00 0.  1.
          1   -1    0    0  501    0  0.00000000000E+00 -0.00000000000E+00 -0.15194295211E+02  0.15194295211E+02  0.00000000000E+00 0. -1.
         23    2    1    2    0    0  0.00000000000E+00  0.00000000000E+00  0.13460348271E+03  0.16499207313E+03  0.95416385587E+02 0.  0.
        -13    1    3    3    0    0 -0.27711668079E+02 -0.23285141528E+02  0.13559647170E+02  0.38652275420E+02  0.00000000000E+00 0. -1.
         13    1    3    3    0    0  0.27711668079E+02  0.23285141528E+02  0.12104383554E+03  0.12633979771E+03  0.00000000000E+00 0.  1.
<mgrwt>
<rscale>  0 0.95416386E+02</rscale>
<asrwt>0</asrwt>
<pdfrwt beam="2">  1        1 0.23375840E-02 0.95416386E+02</pdfrwt>
<pdfrwt beam="1">  1       -1 0.23045811E-01 0.95416386E+02</pdfrwt>
<totfact> 0.66473007E+04</totfact>
</mgrwt>
</event>
<event>
 5    1  0.6043464E+000  0.8993598E+02  0.7546771E-02  0.1303007E+00
          4   -1    0    0  501    0  0.00000000000E+00  0.00000000000E+00  0.37740135186E+03  0.37740135186E+03  0.00000000000E+00 0. -1.
         -4   -1    0    0    0  501 -0.00000000000E+00 -0.00000000000E+00 -0.53580098647E+01  0.53580098647E+01  0.00000000000E+00 0.  1.
         23    2    1    2    0    0  0.00000000000E+00  0.00000000000E+00  0.37204334200E+03  0.38275936172E+03  0.89935980924E+02 0.  0.
        -13    1    3    3    0    0 -0.38652069761E+02  0.17896759254E+02  0.12466514598E+03  0.13174093939E+03  0.00000000000E+00 0.  1.
         13    1    3    3    0    0  0.38652069761E+02 -0.17896759254E+02  0.24737819601E+03  0.25101842233E+03  0.00000000000E+00 0. -1.
<mgrwt>
<rscale>  0 0.89935981E+02</rscale>
<asrwt>0</asrwt>
<pdfrwt beam="1">  1        4 0.58061726E-01 0.89935981E+02</pdfrwt>
<pdfrwt beam="2">  1       -4 0.82430950E-03 0.89935981E+02</pdfrwt>
<totfact> 0.16135495E+04</totfact>
</mgrwt>
</event>
<event>
 5    1  0.6043464E+000  0.8978062E+02  0.7546771E-02  0.1303384E+00
          4   -1    0    0  501    0  0.00000000000E+00  0.00000000000E+00  0.28025102498E+03  0.28025102498E+03  0.00000000000E+00 0.  1.
         -4   -1    0    0    0  501 -0.00000000000E+00 -0.00000000000E+00 -0.71904811983E+01  0.71904811983E+01  0.00000000000E+00 0. -1.
         23    2    1    2    0    0  0.00000000000E+00  0.00000000000E+00  0.27306054378E+03  0.28744150618E+03  0.89780615411E+02 0.  0.
        -13    1    3    3    0    0 -0.30608705925E+02  0.32607699208E+02  0.14892372636E+03  0.15549415166E+03  0.00000000000E+00 0. -1.
         13    1    3    3    0    0  0.30608705925E+02 -0.32607699208E+02  0.12413681742E+03  0.13194735452E+03  0.00000000000E+00 0.  1.
<mgrwt>
<rscale>  0 0.89780615E+02</rscale>
<asrwt>0</asrwt>
<pdfrwt beam="1">  1        4 0.43115534E-01 0.89780615E+02</pdfrwt>
<pdfrwt beam="2">  1       -4 0.11062281E-02 0.89780615E+02</pdfrwt>
<totfact> 0.18971385E+04</totfact>
</mgrwt>
</event>
<event>
 5    1  0.6043464E+000  0.9157006E+02  0.7546771E-02  0.1299094E+00
          2   -1    0    0  501    0  0.00000000000E+00  0.00000000000E+00  0.24906518708E+02  0.24906518708E+02  0.00000000000E+00 0. -1.
         -2   -1    0    0    0  501 -0.00000000000E+00 -0.00000000000E+00 -0.84165466661E+02  0.84165466661E+02  0.00000000000E+00 0.  1.
         23    2    1    2    0    0  0.00000000000E+00  0.00000000000E+00 -0.59258947953E+02  0.10907198537E+03  0.91570055585E+02 0.  0.
        -13    1    3    3    0    0 -0.47213786628E+00 -0.25011493365E+02  0.16046517238E+02  0.29720168741E+02  0.00000000000E+00 0. -1.
         13    1    3    3    0    0  0.47213786628E+00  0.25011493365E+02 -0.75305465191E+02  0.79351816628E+02  0.00000000000E+00 0.  1.
<mgrwt>
<rscale>  0 0.91570056E+02</rscale>
<asrwt>0</asrwt>
<pdfrwt beam="1">  1        2 0.38317722E-02 0.91570056E+02</pdfrwt>
<pdfrwt beam="2">  1       -2 0.12948533E-01 0.91570056E+02</pdfrwt>
<totfact> 0.82999763E+04</totfact>
</mgrwt>
</event>
<event>
 5    1  0.6043464E+000  0.9260535E+02  0.7546771E-02  0.1296662E+00
          1   -1    0    0  501    0  0.00000000000E+00  0.00000000000E+00  0.15321602512E+03  0.15321602512E+03  0.00000000000E+00 0. -1.
         -1   -1    0    0    0  501 -0.00000000000E+00 -0.00000000000E+00 -0.13992906442E+02  0.13992906442E+02  0.00000000000E+00 0.  1.
         23    2    1    2    0    0  0.00000000000E+00  0.00000000000E+00  0.13922311868E+03  0.16720893156E+03  0.92605345523E+02 0.  0.
        -13    1    3    3    0    0  0.40042064282E+02 -0.22896326373E+02  0.76907830566E+02  0.89679557735E+02  0.00000000000E+00 0.  1.
         13    1    3    3    0    0 -0.40042064282E+02  0.22896326373E+02  0.62315288110E+02  0.77529373824E+02  0.00000000000E+00 0. -1.
<mgrwt>
<rscale>  0 0.92605346E+02</rscale>
<asrwt>0</asrwt>
<pdfrwt beam="1">  1        1 0.23571695E-01 0.92605346E+02</pdfrwt>
<pdfrwt beam="2">  1       -1 0.21527549E-02 0.92605346E+02</pdfrwt>
<totfact> 0.10794252E+05</totfact>
</mgrwt>
</event>
<event>
 5    1  0.6043464E+000  0.9348218E+02  0.7546771E-02  0.1294632E+00
          4   -1    0    0  501    0  0.00000000000E+00  0.00000000000E+00  0.22835474348E+02  0.22835474348E+02  0.00000000000E+00 0. -1.
         -4   -1    0    0    0  501 -0.00000000000E+00 -0.00000000000E+00 -0.95672614529E+02  0.95672614529E+02  0.00000000000E+00 0.  1.
         23    2    1    2    0    0  0.00000000000E+00  0.00000000000E+00 -0.72837140181E+02  0.11850808888E+03  0.93482180866E+02 0.  0.
        -13    1    3    3    0    0  0.31434064360E+02  0.16798675595E+02 -0.74753551237E+02  0.82815393052E+02  0.00000000000E+00 0.  1.
         13    1    3    3    0    0 -0.31434064360E+02 -0.16798675595E+02  0.19164110553E+01  0.35692695825E+02  0.00000000000E+00 0. -1.
<mgrwt>
<rscale>  0 0.93482181E+02</rscale>
<asrwt>0</asrwt>
<pdfrwt beam="1">  1        4 0.35131498E-02 0.93482181E+02</pdfrwt>
<pdfrwt beam="2">  1       -4 0.14718864E-01 0.93482181E+02</pdfrwt>
<totfact> 0.23697358E+04</totfact>
</mgrwt>
</event>
<event>
 5    1  0.6043464E+000  0.9701050E+02  0.7546771E-02  0.1286711E+00
         -2   -1    0    0    0  501 -0.00000000000E+00  0.00000000000E+00  0.13195160575E+03  0.13195160575E+03  0.00000000000E+00 0.  1.
          2   -1    0    0  501    0  0.00000000000E+00 -0.00000000000E+00 -0.17830472642E+02  0.17830472642E+02  0.00000000000E+00 0. -1.
         23    2    1    2    0    0  0.00000000000E+00  0.00000000000E+00  0.11412113311E+03  0.14978207840E+03  0.97010504514E+02 0.  0.
        -13    1    3    3    0    0 -0.54605716055E+01 -0.43829652788E+02  0.26107632926E+02  0.51307551128E+02  0.00000000000E+00 0. -1.
         13    1    3    3    0    0  0.54605716055E+01  0.43829652788E+02  0.88013500186E+02  0.98474527268E+02  0.00000000000E+00 0.  1.
<mgrwt>
<rscale>  0 0.97010505E+02</rscale>
<asrwt>0</asrwt>
<pdfrwt beam="2">  1        2 0.27431497E-02 0.97010505E+02</pdfrwt>
<pdfrwt beam="1">  1       -2 0.20300246E-01 0.97010505E+02</pdfrwt>
<totfact> 0.62499860E+04</totfact>
</mgrwt>
</event>
<event>
 5    1  0.6043464E+000  0.9096504E+02  0.7546771E-02  0.1300531E+00
         -2   -1    0    0    0  501 -0.00000000000E+00  0.00000000000E+00  0.90199384622E+01  0.90199384622E+01  0.00000000000E+00 0.  1.
          2   -1    0    0  501    0  0.00000000000E+00 -0.00000000000E+00 -0.22934297463E+03  0.22934297463E+03  0.00000000000E+00 0. -1.
         23    2    1    2    0    0  0.00000000000E+00  0.00000000000E+00 -0.22032303616E+03  0.23836291309E+03  0.90965037632E+02 0.  0.
        -13    1    3    3    0    0 -0.28452427301E+02  0.31845485806E+02 -0.69147437385E+02  0.81271419838E+02  0.00000000000E+00 0.  1.
         13    1    3    3    0    0  0.28452427301E+02 -0.31845485806E+02 -0.15117559878E+03  0.15709149325E+03  0.00000000000E+00 0. -1.
<mgrwt>
<rscale>  0 0.90965038E+02</rscale>
<asrwt>0</asrwt>
<pdfrwt beam="2">  1        2 0.35283530E-01 0.90965038E+02</pdfrwt>
<pdfrwt beam="1">  1       -2 0.13876830E-02 0.90965038E+02</pdfrwt>
<totfact> 0.16362147E+05</totfact>
</mgrwt>
</event>
<event>
 5    1  0.6043464E+000  0.8862018E+02  0.7546771E-02  0.1306228E+00
         -4   -1    0    0    0  501 -0.00000000000E+00  0.00000000000E+00  0.63335487653E+02  0.63335487653E+02  0.00000000000E+00 0.  1.
          4   -1    0    0  501    0  0.00000000000E+00 -0.00000000000E+00 -0.30999745778E+02  0.30999745778E+02  0.00000000000E+00 0. -1.
         23    2    1    2    0    0  0.00000000000E+00  0.00000000000E+00  0.32335741875E+02  0.94335233431E+02  0.88620178650E+02 0.  0.
        -13    1    3    3    0    0  0.13466107560E+02 -0.37263203765E+02 -0.49482705412E+01  0.39929535297E+02  0.00000000000E+00 0. -1.
         13    1    3    3    0    0 -0.13466107560E+02  0.37263203765E+02  0.37284012416E+02  0.54405698135E+02  0.00000000000E+00 0.  1.
<mgrwt>
<rscale>  0 0.88620179E+02</rscale>
<asrwt>0</asrwt>
<pdfrwt beam="2">  1        4 0.47691917E-02 0.88620179E+02</pdfrwt>
<pdfrwt beam="1">  1       -4 0.97439212E-02 0.88620179E+02</pdfrwt>
<totfact> 0.28956276E+04</totfact>
</mgrwt>
</event>
<event>
 5    1  0.6043464E+000  0.9252367E+02  0.7546771E-02  0.1296853E+00
         -1   -1    0    0    0  501 -0.00000000000E+00  0.00000000000E+00  0.35731923393E+03  0.35731923393E+03  0.00000000000E+00 0.  1.
          1   -1    0    0  501    0  0.00000000000E+00 -0.00000000000E+00 -0.59894830756E+01  0.59894830756E+01  0.00000000000E+00 0. -1.
         23    2    1    2    0    0  0.00000000000E+00  0.00000000000E+00  0.35132975086E+03  0.36330871701E+03  0.92523672738E+02 0.  0.
        -13    1    3    3    0    0  0.44596442954E+02 -0.48886884048E+01  0.21998838038E+03  0.22451643481E+03  0.00000000000E+00 0.  1.
         13    1    3    3    0    0 -0.44596442954E+02  0.48886884048E+01  0.13134137048E+03  0.13879228220E+03  0.00000000000E+00 0. -1.
<mgrwt>
<rscale>  0 0.92523673E+02</rscale>
<asrwt>0</asrwt>
<pdfrwt beam="2">  1        1 0.92145921E-03 0.92523673E+02</pdfrwt>
<pdfrwt beam="1">  1       -1 0.54972173E-01 0.92523673E+02</pdfrwt>
<totfact> 0.54136957E+04</totfact>
</mgrwt>
</event>
<event>
 5    1  0.6043464E+000  0.9641416E+02  0.7546771E-02  0.1288022E+00
          1   -1    0    0  501    0  0.00000000000E+00  0.00000000000E+00  0.71420105685E+02  0.71420105685E+02  0.00000000000E+00 0. -1.
         -1   -1    0    0    0  501 -0.00000000000E+00 -0.00000000000E+00 -0.32538769514E+02  0.32538769514E+02  0.00000000000E+00 0.  1.
         23    2    1    2    0    0  0.00000000000E+00  0.00000000000E+00  0.38881336172E+02  0.10395887520E+03  0.96414155756E+02 0.  0.
        -13    1    3    3    0    0 -0.10898450909E+02 -0.98906381286E+01 -0.30057161739E+02  0.33466907933E+02  0.00000000000E+00 0.  1.
         13    1    3    3    0    0  0.10898450909E+02  0.98906381286E+01  0.68938497911E+02  0.70491967266E+02  0.00000000000E+00 0. -1.
<mgrwt>
<rscale>  0 0.96414156E+02</rscale>
<asrwt>0</asrwt>
<pdfrwt beam="1">  1        1 0.10987709E-01 0.96414156E+02</pdfrwt>
<pdfrwt beam="2">  1       -1 0.50059646E-02 0.96414156E+02</pdfrwt>
<totfact> 0.84790906E+04</totfact>
</mgrwt>
</event>
<event>
 5    1  0.6043464E+000  0.8982611E+02  0.7546771E-02  0.1303273E+00
          1   -1    0    0  501    0  0.00000000000E+00  0.00000000000E+00  0.39255040163E+02  0.39255040163E+02  0.00000000000E+00 0. -1.
         -1   -1    0    0    0  501 -0.00000000000E+00 -0.00000000000E+00 -0.51386581302E+02  0.51386581302E+02  0.00000000000E+00 0.  1.
         23    2    1    2    0    0  0.00000000000E+00  0.00000000000E+00 -0.12131541139E+02  0.90641621464E+02  0.89826105622E+02 0.  0.
        -13    1    3    3    0    0  0.25436212581E+02  0.16037813203E+02 -0.39729855499E+02  0.49826436565E+02  0.00000000000E+00 0.  1.
         13    1    3    3    0    0 -0.25436212581E+02 -0.16037813203E+02  0.27598314360E+02  0.40815184899E+02  0.00000000000E+00 0. -1.
<mgrwt>
<rscale>  0 0.89826106E+02</rscale>
<asrwt>0</asrwt>
<pdfrwt beam="1">  1        1 0.60392370E-02 0.89826106E+02</pdfrwt>
<pdfrwt beam="2">  1       -1 0.79056278E-02 0.89826106E+02</pdfrwt>
<totfact> 0.94293238E+04</totfact>
</mgrwt>
</event>
<event>
 4    1  0.6043464E+000  0.2325058E+02  0.7546771E-02  0.1687480E+00
         -1   -1    0    0    0  501 -0.00000000000E+00  0.00000000000E+00  0.10978143193E+02  0.10978143193E+02  0.00000000000E+00 0.  1.
          1   -1    0    0  501    0  0.00000000000E+00 -0.00000000000E+00 -0.12310580947E+02  0.12310580947E+02  0.00000000000E+00 0. -1.
        -13    1    1    2    0    0  0.86737768687E+01  0.74061651538E+01 -0.29197175495E+01  0.11773293423E+02  0.00000000000E+00 0. -1.
         13    1    1    2    0    0 -0.86737768687E+01 -0.74061651538E+01  0.15872797954E+01  0.11515430717E+02  0.00000000000E+00 0.  1.
<mgrwt>
<rscale>  0 0.23250576E+02</rscale>
<asrwt>0</asrwt>
<pdfrwt beam="2">  1        1 0.18939355E-02 0.23250576E+02</pdfrwt>
<pdfrwt beam="1">  1       -1 0.16889451E-02 0.23250576E+02</pdfrwt>
<totfact> 0.27573836E+06</totfact>
</mgrwt>
</event>
<event>
 5    1  0.6043464E+000  0.8554508E+02  0.7546771E-02  0.1314013E+00
          3   -1    0    0  501    0  0.00000000000E+00  0.00000000000E+00  0.10135892590E+03  0.10135892590E+03  0.00000000000E+00 0. -1.
         -3   -1    0    0    0  501 -0.00000000000E+00 -0.00000000000E+00 -0.18049620461E+02  0.18049620461E+02  0.00000000000E+00 0.  1.
         23    2    1    2    0    0  0.00000000000E+00  0.00000000000E+00  0.83309305435E+02  0.11940854636E+03  0.85545079174E+02 0.  0.
        -13    1    3    3    0    0 -0.35814178175E+02 -0.48749378781E+01  0.97304406239E+01  0.37431295094E+02  0.00000000000E+00 0.  1.
         13    1    3    3    0    0  0.35814178175E+02  0.48749378781E+01  0.73578864811E+02  0.81977251262E+02  0.00000000000E+00 0. -1.
<mgrwt>
<rscale>  0 0.85545079E+02</rscale>
<asrwt>0</asrwt>
<pdfrwt beam="1">  1        3 0.15593681E-01 0.85545079E+02</pdfrwt>
<pdfrwt beam="2">  1       -3 0.27768647E-02 0.85545079E+02</pdfrwt>
<totfact> 0.39544358E+04</totfact>
</mgrwt>
</event>
<event>
 5    1  0.6043464E+000  0.8852037E+02  0.7546771E-02  0.1306475E+00
         -2   -1    0    0    0  501 -0.00000000000E+00  0.00000000000E+00  0.23697001737E+02  0.23697001737E+02  0.00000000000E+00 0. -1.
          2   -1    0    0  501    0  0.00000000000E+00 -0.00000000000E+00 -0.82667158131E+02  0.82667158131E+02  0.00000000000E+00 0.  1.
         23    2    1    2    0    0  0.00000000000E+00  0.00000000000E+00 -0.58970156393E+02  0.10636415987E+03  0.88520365789E+02 0.  0.
        -13    1    3    3    0    0  0.26519836722E+02  0.26038753840E+02 -0.58364118346E+02  0.69193126476E+02  0.00000000000E+00 0.  1.
         13    1    3    3    0    0 -0.26519836722E+02 -0.26038753840E+02 -0.60603804738E+00  0.37171033392E+02  0.00000000000E+00 0. -1.
<mgrwt>
<rscale>  0 0.88520366E+02</rscale>
<asrwt>0</asrwt>
<pdfrwt beam="2">  1        2 0.12718024E-01 0.88520366E+02</pdfrwt>
<pdfrwt beam="1">  1       -2 0.36456926E-02 0.88520366E+02</pdfrwt>
<totfact> 0.12582559E+05</totfact>
</mgrwt>
</event>
<event>
 5    1  0.6043464E+000  0.9133013E+02  0.7546771E-02  0.1299662E+00
          1   -1    0    0  501    0  0.00000000000E+00  0.00000000000E+00  0.14794786773E+03  0.14794786773E+03  0.00000000000E+00 0. -1.
         -1   -1    0    0    0  501 -0.00000000000E+00 -0.00000000000E+00 -0.14094817571E+02  0.14094817571E+02  0.00000000000E+00 0.  1.
         23    2    1    2    0    0  0.00000000000E+00  0.00000000000E+00  0.13385305016E+03  0.16204268530E+03  0.91330130968E+02 0.  0.
        -13    1    3    3    0    0 -0.26208098058E+02 -0.89780018105E+01  0.13133528361E+03  0.13422527945E+03  0.00000000000E+00 0. -1.
         13    1    3    3    0    0  0.26208098058E+02  0.89780018105E+01  0.25177665495E+01  0.27817405859E+02  0.00000000000E+00 0.  1.
<mgrwt>
<rscale>  0 0.91330131E+02</rscale>
<asrwt>0</asrwt>
<pdfrwt beam="1">  1        1 0.22761209E-01 0.91330131E+02</pdfrwt>
<pdfrwt beam="2">  1       -1 0.21684336E-02 0.91330131E+02</pdfrwt>
<totfact> 0.11134311E+05</totfact>
</mgrwt>
</event>
<event>
 5    1  0.6043464E+000  0.9100620E+02  0.7546771E-02  0.1300433E+00
         -2   -1    0    0    0  501 -0.00000000000E+00  0.00000000000E+00  0.69430297767E+01  0.69430297767E+01  0.00000000000E+00 0.  1.
          2   -1    0    0  501    0  0.00000000000E+00 -0.00000000000E+00 -0.29821736707E+03  0.29821736707E+03  0.00000000000E+00 0. -1.
         23    2    1    2    0    0  0.00000000000E+00  0.00000000000E+00 -0.29127433730E+03  0.30516039685E+03  0.91006198899E+02 0.  0.
        -13    1    3    3    0    0 -0.23324068707E+02 -0.36533574440E+02 -0.99196157403E+02  0.10825244517E+03  0.00000000000E+00 0.  1.
         13    1    3    3    0    0  0.23324068707E+02  0.36533574440E+02 -0.19207817989E+03  0.19690795168E+03  0.00000000000E+00 0. -1.
<mgrwt>
<rscale>  0 0.91006199E+02</rscale>
<asrwt>0</asrwt>
<pdfrwt beam="2">  1        2 0.45879588E-01 0.91006199E+02</pdfrwt>
<pdfrwt beam="1">  1       -2 0.10681586E-02 0.91006199E+02</pdfrwt>
<totfact> 0.18016051E+05</totfact>
</mgrwt>
</event>
<event>
 5    1  0.6043464E+000  0.9021246E+02  0.7546771E-02  0.1302338E+00
         -4   -1    0    0    0  501 -0.00000000000E+00  0.00000000000E+00  0.44233445849E+02  0.44233445849E+02  0.00000000000E+00 0.  1.
          4   -1    0    0  501    0  0.00000000000E+00 -0.00000000000E+00 -0.45996233511E+02  0.45996233511E+02  0.00000000000E+00 0. -1.
         23    2    1    2    0    0  0.00000000000E+00  0.00000000000E+00 -0.17627876625E+01  0.90229679360E+02  0.90212458215E+02 0.  0.
        -13    1    3    3    0    0 -0.29202876287E+02 -0.33124827471E+02  0.83132782143E+01  0.44935206387E+02  0.00000000000E+00 0.  1.
         13    1    3    3    0    0  0.29202876287E+02  0.33124827471E+02 -0.10076065877E+02  0.45294472973E+02  0.00000000000E+00 0. -1.
<mgrwt>
<rscale>  0 0.90212458E+02</rscale>
<asrwt>0</asrwt>
<pdfrwt beam="2">  1        4 0.70763436E-02 0.90212458E+02</pdfrwt>
<pdfrwt beam="1">  1       -4 0.68051455E-02 0.90212458E+02</pdfrwt>
<totfact> 0.27868797E+04</totfact>
</mgrwt>
</event>
<event>
 5    1  0.6043464E+000  0.9140509E+02  0.7546771E-02  0.1299484E+00
          1   -1    0    0  501    0  0.00000000000E+00  0.00000000000E+00  0.10613803451E+02  0.10613803451E+02  0.00000000000E+00 0. -1.
         -1   -1    0    0    0  501 -0.00000000000E+00 -0.00000000000E+00 -0.19679303381E+03  0.19679303381E+03  0.00000000000E+00 0.  1.
         23    2    1    2    0    0  0.00000000000E+00  0.00000000000E+00 -0.18617923036E+03  0.20740683726E+03  0.91405089164E+02 0.  0.
        -13    1    3    3    0    0  0.41572300461E+02  0.18213630216E+01 -0.13597185323E+03  0.14219675946E+03  0.00000000000E+00 0. -1.
         13    1    3    3    0    0 -0.41572300461E+02 -0.18213630216E+01 -0.50207377121E+02  0.65210077797E+02  0.00000000000E+00 0.  1.
<mgrwt>
<rscale>  0 0.91405089E+02</rscale>
<asrwt>0</asrwt>
<pdfrwt beam="1">  1        1 0.16328930E-02 0.91405089E+02</pdfrwt>
<pdfrwt beam="2">  1       -1 0.30275849E-01 0.91405089E+02</pdfrwt>
<totfact> 0.69291282E+04</totfact>
</mgrwt>
</event>
<event>
 5    1  0.6043464E+000  0.9138932E+02  0.7546771E-02  0.1299522E+00
         -2   -1    0    0    0  501 -0.00000000000E+00  0.00000000000E+00  0.31146283046E+02  0.31146283046E+02  0.00000000000E+00 0.  1.
          2   -1    0    0  501    0  0.00000000000E+00 -0.00000000000E+00 -0.67038565660E+02  0.67038565660E+02  0.00000000000E+00 0. -1.
         23    2    1    2    0    0  0.00000000000E+00  0.00000000000E+00 -0.35892282614E+02  0.98184848706E+02  0.91389324126E+02 0.  0.
        -13    1    3    3    0    0 -0.31760483500E+02 -0.27182611316E+02 -0.37767375333E+02  0.56338240207E+02  0.00000000000E+00 0. -1.
         13    1    3    3    0    0  0.31760483500E+02  0.27182611316E+02  0.18750927184E+01  0.41846608499E+02  0.00000000000E+00 0.  1.
<mgrwt>
<rscale>  0 0.91389324E+02</rscale>
<asrwt>0</asrwt>
<pdfrwt beam="2">  1        2 0.10313625E-01 0.91389324E+02</pdfrwt>
<pdfrwt beam="1">  1       -2 0.47917359E-02 0.91389324E+02</pdfrwt>
<totfact> 0.10859712E+05</totfact>
</mgrwt>
</event>
<event>
 5    1  0.6043464E+000  0.7747397E+02  0.7546771E-02  0.1336377E+00
         -2   -1    0    0    0  501 -0.00000000000E+00  0.00000000000E+00  0.17445445818E+02  0.17445445818E+02  0.00000000000E+00 0.  1.
          2   -1    0    0  501    0  0.00000000000E+00 -0.00000000000E+00 -0.86014071960E+02  0.86014071960E+02  0.00000000000E+00 0. -1.
         23    2    1    2    0    0  0.00000000000E+00  0.00000000000E+00 -0.68568626142E+02  0.10345951778E+03  0.77473965484E+02 0.  0.
        -13    1    3    3    0    0  0.21855071919E+02 -0.31344498518E+02 -0.25792944640E+02  0.46102036279E+02  0.00000000000E+00 0.  1.
         13    1    3    3    0    0 -0.21855071919E+02  0.31344498518E+02 -0.42775681501E+02  0.57357481498E+02  0.00000000000E+00 0. -1.
<mgrwt>
<rscale>  0 0.77473965E+02</rscale>
<asrwt>0</asrwt>
<pdfrwt beam="2">  1        2 0.13232934E-01 0.77473965E+02</pdfrwt>
<pdfrwt beam="1">  1       -2 0.26839147E-02 0.77473965E+02</pdfrwt>
<totfact> 0.18310267E+05</totfact>
</mgrwt>
</event>
<event>
 5    1  0.6043464E+000  0.8887627E+02  0.7546771E-02  0.1305596E+00
          3   -1    0    0  501    0  0.00000000000E+00  0.00000000000E+00  0.78586937938E+02  0.78586937938E+02  0.00000000000E+00 0. -1.
         -3   -1    0    0    0  501 -0.00000000000E+00 -0.00000000000E+00 -0.25128196664E+02  0.25128196664E+02  0.00000000000E+00 0.  1.
         23    2    1    2    0    0  0.00000000000E+00  0.00000000000E+00  0.53458741274E+02  0.10371513460E+03  0.88876274264E+02 0.  0.
        -13    1    3    3    0    0 -0.38316140222E+02 -0.20513531964E+02  0.15918976371E+02  0.46285477246E+02  0.00000000000E+00 0. -1.
         13    1    3    3    0    0  0.38316140222E+02  0.20513531964E+02  0.37539764903E+02  0.57429657357E+02  0.00000000000E+00 0.  1.
<mgrwt>
<rscale>  0 0.88876274E+02</rscale>
<asrwt>0</asrwt>
<pdfrwt beam="1">  1        3 0.12090298E-01 0.88876274E+02</pdfrwt>
<pdfrwt beam="2">  1       -3 0.38658764E-02 0.88876274E+02</pdfrwt>
<totfact> 0.36866546E+04</totfact>
</mgrwt>
</event>
<event>
 5    1  0.6043464E+000  0.9122815E+02  0.7546771E-02  0.1299905E+00
         -2   -1    0    0    0  501 -0.00000000000E+00  0.00000000000E+00  0.23800322078E+02  0.23800322078E+02  0.00000000000E+00 0.  1.
          2   -1    0    0  501    0  0.00000000000E+00 -0.00000000000E+00 -0.87420819674E+02  0.87420819674E+02  0.00000000000E+00 0. -1.
         23    2    1    2    0    0  0.00000000000E+00  0.00000000000E+00 -0.63620497596E+02  0.11122114175E+03  0.91228146195E+02 0.  0.
        -13    1    3    3    0    0 -0.20817568994E+02 -0.34342872879E+02 -0.58180057196E+02  0.70694576537E+02  0.00000000000E+00 0. -1.
         13    1    3    3    0    0  0.20817568994E+02  0.34342872879E+02 -0.54404404003E+01  0.40526565215E+02  0.00000000000E+00 0.  1.
<mgrwt>
<rscale>  0 0.91228146E+02</rscale>
<asrwt>0</asrwt>
<pdfrwt beam="2">  1        2 0.13449357E-01 0.91228146E+02</pdfrwt>
<pdfrwt beam="1">  1       -2 0.36615880E-02 0.91228146E+02</pdfrwt>
<totfact> 0.11766129E+05</totfact>
</mgrwt>
</event>
<event>
 5    1  0.6043464E+000  0.9278628E+02  0.7546771E-02  0.1296241E+00
         -2   -1    0    0    0  501 -0.00000000000E+00  0.00000000000E+00  0.80367067475E+01  0.80367067475E+01  0.00000000000E+00 0. -1.
          2   -1    0    0  501    0  0.00000000000E+00 -0.00000000000E+00 -0.26781163084E+03  0.26781163084E+03  0.00000000000E+00 0.  1.
         23    2    1    2    0    0  0.00000000000E+00  0.00000000000E+00 -0.25977492410E+03  0.27584833759E+03  0.92786282190E+02 0.  0.
        -13    1    3    3    0    0 -0.30330372663E+02  0.34726750283E+02 -0.11459923416E+03  0.12352677103E+03  0.00000000000E+00 0. -1.
         13    1    3    3    0    0  0.30330372663E+02 -0.34726750283E+02 -0.14517568993E+03  0.15232156656E+03  0.00000000000E+00 0.  1.
<mgrwt>
<rscale>  0 0.92786282E+02</rscale>
<asrwt>0</asrwt>
<pdfrwt beam="2">  1        2 0.41201789E-01 0.92786282E+02</pdfrwt>
<pdfrwt beam="1">  1       -2 0.12364164E-02 0.92786282E+02</pdfrwt>
<totfact> 0.16432744E+05</totfact>
</mgrwt>
</event>
<event>
 5    1  0.6043464E+000  0.8590580E+02  0.7546771E-02  0.1313081E+00
          2   -1    0    0  501    0  0.00000000000E+00  0.00000000000E+00  0.13190049411E+03  0.13190049411E+03  0.00000000000E+00 0. -1.
         -2   -1    0    0    0  501 -0.00000000000E+00 -0.00000000000E+00 -0.13987450231E+02  0.13987450231E+02  0.00000000000E+00 0.  1.
         23    2    1    2    0    0  0.00000000000E+00  0.00000000000E+00  0.11791304388E+03  0.14588794434E+03  0.85905799498E+02 0.  0.
        -13    1    3    3    0    0 -0.11850737871E+02 -0.31646767941E+02  0.13929561214E+02  0.36551204971E+02  0.00000000000E+00 0.  1.
         13    1    3    3    0    0  0.11850737871E+02  0.31646767941E+02  0.10398348267E+03  0.10933673937E+03  0.00000000000E+00 0. -1.
<mgrwt>
<rscale>  0 0.85905799E+02</rscale>
<asrwt>0</asrwt>
<pdfrwt beam="1">  1        2 0.20292383E-01 0.85905799E+02</pdfrwt>
<pdfrwt beam="2">  1       -2 0.21519155E-02 0.85905799E+02</pdfrwt>
<totfact> 0.15739476E+05</totfact>
</mgrwt>
</event>
<event>
 5    1  0.6043464E+000  0.9037073E+02  0.7546771E-02  0.1301956E+00
         -4   -1    0    0    0  501 -0.00000000000E+00  0.00000000000E+00  0.14577044222E+02  0.14577044222E+02  0.00000000000E+00 0.  1.
          4   -1    0    0  501    0  0.00000000000E+00 -0.00000000000E+00 -0.14006386312E+03  0.14006386312E+03  0.00000000000E+00 0. -1.
         23    2    1    2    0    0  0.00000000000E+00  0.00000000000E+00 -0.12548681890E+03  0.15464090734E+03  0.90370728151E+02 0.  0.
        -13    1    3    3    0    0 -0.26794866627E+02  0.19445051283E+02 -0.10122295587E+02  0.34619875287E+02  0.00000000000E+00 0.  1.
         13    1    3    3    0    0  0.26794866627E+02 -0.19445051283E+02 -0.11536452331E+03  0.12002103205E+03  0.00000000000E+00 0. -1.
<mgrwt>
<rscale>  0 0.90370728E+02</rscale>
<asrwt>0</asrwt>
<pdfrwt beam="2">  1        4 0.21548286E-01 0.90370728E+02</pdfrwt>
<pdfrwt beam="1">  1       -4 0.22426222E-02 0.90370728E+02</pdfrwt>
<totfact> 0.24007836E+04</totfact>
</mgrwt>
</event>
<event>
 5    1  0.6043464E+000  0.9315187E+02  0.7546771E-02  0.1295394E+00
         -2   -1    0    0    0  501 -0.00000000000E+00  0.00000000000E+00  0.65603489550E+02  0.65603489550E+02  0.00000000000E+00 0. -1.
          2   -1    0    0  501    0  0.00000000000E+00 -0.00000000000E+00 -0.33067112242E+02  0.33067112242E+02  0.00000000000E+00 0.  1.
         23    2    1    2    0    0  0.00000000000E+00  0.00000000000E+00  0.32536377308E+02  0.98670601792E+02  0.93151874966E+02 0.  0.
        -13    1    3    3    0    0  0.29685539242E+01 -0.44598357498E+02  0.30139524820E+02  0.53909338340E+02  0.00000000000E+00 0.  1.
         13    1    3    3    0    0 -0.29685539242E+01  0.44598357498E+02  0.23968524880E+01  0.44761263452E+02  0.00000000000E+00 0. -1.
<mgrwt>
<rscale>  0 0.93151875E+02</rscale>
<asrwt>0</asrwt>
<pdfrwt beam="2">  1        2 0.50872480E-02 0.93151875E+02</pdfrwt>
<pdfrwt beam="1">  1       -2 0.10092845E-01 0.93151875E+02</pdfrwt>
<totfact> 0.85210649E+04</totfact>
</mgrwt>
</event>
<event>
 5    1  0.6043464E+000  0.8924388E+02  0.7546771E-02  0.1304693E+00
         -2   -1    0    0    0  501 -0.00000000000E+00  0.00000000000E+00  0.42540073269E+02  0.42540073269E+02  0.00000000000E+00 0.  1.
          2   -1    0    0  501    0  0.00000000000E+00 -0.00000000000E+00 -0.46805689830E+02  0.46805689830E+02  0.00000000000E+00 0. -1.
         23    2    1    2    0    0  0.00000000000E+00  0.00000000000E+00 -0.42656165611E+01  0.89345763100E+02  0.89243878777E+02 0.  0.
        -13    1    3    3    0    0 -0.27576933080E+02  0.35077722141E+02 -0.25618369945E+01  0.44693364580E+02  0.00000000000E+00 0.  1.
         13    1    3    3    0    0  0.27576933080E+02 -0.35077722141E+02 -0.17037795666E+01  0.44652398519E+02  0.00000000000E+00 0. -1.
<mgrwt>
<rscale>  0 0.89243879E+02</rscale>
<asrwt>0</asrwt>
<pdfrwt beam="2">  1        2 0.72008754E-02 0.89243879E+02</pdfrwt>
<pdfrwt beam="1">  1       -2 0.65446267E-02 0.89243879E+02</pdfrwt>
<totfact> 0.10562291E+05</totfact>
</mgrwt>
</event>
<event>
 5    1  0.6043464E+000  0.9155899E+02  0.7546771E-02  0.1299120E+00
         -1   -1    0    0    0  501 -0.00000000000E+00  0.00000000000E+00  0.15227680489E+02  0.15227680489E+02  0.00000000000E+00 0.  1.
          1   -1    0    0  501    0  0.00000000000E+00 -0.00000000000E+00 -0.13762846030E+03  0.13762846030E+03  0.00000000000E+00 0. -1.
         23    2    1    2    0    0  0.00000000000E+00  0.00000000000E+00 -0.12240077981E+03  0.15285614079E+03  0.91558991247E+02 0.  0.
        -13    1    3    3    0    0  0.30891506356E+02 -0.10907995055E+02 -0.11458449897E+03  0.11917582358E+03  0.00000000000E+00 0. -1.
         13    1    3    3    0    0 -0.30891506356E+02  0.10907995055E+02 -0.78162808365E+01  0.33680317207E+02  0.00000000000E+00 0.  1.
<mgrwt>
<rscale>  0 0.91558991E+02</rscale>
<asrwt>0</asrwt>
<pdfrwt beam="2">  1        1 0.21173609E-01 0.91558991E+02</pdfrwt>
<pdfrwt beam="1">  1       -1 0.23427201E-02 0.91558991E+02</pdfrwt>
<totfact> 0.10914634E+05</totfact>
</mgrwt>
</event>
<event>
 5    1  0.6043464E+000  0.9071858E+02  0.7546771E-02  0.1301121E+00
          1   -1    0    0  501    0  0.00000000000E+00  0.00000000000E+00  0.41570098910E+02  0.41570098910E+02  0.00000000000E+00 0. -1.
         -1   -1    0    0    0  501 -0.00000000000E+00 -0.00000000000E+00 -0.49493870900E+02  0.49493870900E+02  0.00000000000E+00 0.  1.
         23    2    1    2    0    0  0.00000000000E+00  0.00000000000E+00 -0.79237719906E+01  0.91063969810E+02  0.90718578224E+02 0.  0.
        -13    1    3    3    0    0 -0.14118699390E+02 -0.37609798277E+02  0.17180843182E+02  0.43692287321E+02  0.00000000000E+00 0. -1.
         13    1    3    3    0    0  0.14118699390E+02  0.37609798277E+02 -0.25104615173E+02  0.47371682489E+02  0.00000000000E+00 0.  1.
<mgrwt>
<rscale>  0 0.90718578E+02</rscale>
<asrwt>0</asrwt>
<pdfrwt beam="1">  1        1 0.63953999E-02 0.90718578E+02</pdfrwt>
<pdfrwt beam="2">  1       -1 0.76144416E-02 0.90718578E+02</pdfrwt>
<totfact> 0.92498282E+04</totfact>
</mgrwt>
</event>
<event>
 5    1  0.6043464E+000  0.9044140E+02  0.7546771E-02  0.1301786E+00
         -1   -1    0    0    0  501 -0.00000000000E+00  0.00000000000E+00  0.62523543214E+01  0.62523543214E+01  0.00000000000E+00 0.  1.
          1   -1    0    0  501    0  0.00000000000E+00 -0.00000000000E+00 -0.32706270532E+03  0.32706270532E+03  0.00000000000E+00 0. -1.
         23    2    1    2    0    0  0.00000000000E+00  0.00000000000E+00 -0.32081035100E+03  0.33331505964E+03  0.90441404654E+02 0.  0.
        -13    1    3    3    0    0  0.37858540576E+02 -0.21543487817E+02 -0.20516769240E+03  0.20974072796E+03  0.00000000000E+00 0. -1.
         13    1    3    3    0    0 -0.37858540576E+02  0.21543487817E+02 -0.11564265860E+03  0.12357433168E+03  0.00000000000E+00 0.  1.
<mgrwt>
<rscale>  0 0.90441405E+02</rscale>
<asrwt>0</asrwt>
<pdfrwt beam="2">  1        1 0.50317325E-01 0.90441405E+02</pdfrwt>
<pdfrwt beam="1">  1       -1 0.96190095E-03 0.90441405E+02</pdfrwt>
<totfact> 0.13305317E+05</totfact>
</mgrwt>
</event>
<event>
 5    1  0.6043464E+000  0.9147288E+02  0.7546771E-02  0.1299324E+00
          2   -1    0    0  501    0  0.00000000000E+00  0.00000000000E+00  0.11755790658E+03  0.11755790658E+03  0.00000000000E+00 0.  1.
         -2   -1    0    0    0  501 -0.00000000000E+00 -0.00000000000E+00 -0.17793970822E+02  0.17793970822E+02  0.00000000000E+00 0. -1.
         23    2    1    2    0    0  0.00000000000E+00  0.00000000000E+00  0.99763935759E+02  0.13535187740E+03  0.91472880343E+02 0.  0.
        -13    1    3    3    0    0  0.12674389835E+02  0.33822709576E+02  0.91398030660E+02  0.98276222197E+02  0.00000000000E+00 0. -1.
         13    1    3    3    0    0 -0.12674389835E+02 -0.33822709576E+02  0.83659050989E+01  0.37075655205E+02  0.00000000000E+00 0.  1.
<mgrwt>
<rscale>  0 0.91472880E+02</rscale>
<asrwt>0</asrwt>
<pdfrwt beam="1">  1        2 0.18085831E-01 0.91472880E+02</pdfrwt>
<pdfrwt beam="2">  1       -2 0.27375340E-02 0.91472880E+02</pdfrwt>
<totfact> 0.12787390E+05</totfact>
</mgrwt>
</event>
<event>
 5    1  0.6043464E+000  0.9233366E+02  0.7546771E-02  0.1297297E+00
          2   -1    0    0  501    0  0.00000000000E+00  0.00000000000E+00  0.31945510050E+02  0.31945510050E+02  0.00000000000E+00 0.  1.
         -2   -1    0    0    0  501 -0.00000000000E+00 -0.00000000000E+00 -0.66719114019E+02  0.66719114019E+02  0.00000000000E+00 0. -1.
         23    2    1    2    0    0  0.00000000000E+00  0.00000000000E+00 -0.34773603969E+02  0.98664624069E+02  0.92333658596E+02 0.  0.
        -13    1    3    3    0    0  0.29451417002E+02  0.17109802043E+02  0.15914850393E+02  0.37595395362E+02  0.00000000000E+00 0.  1.
         13    1    3    3    0    0 -0.29451417002E+02 -0.17109802043E+02 -0.50688454362E+02  0.61069228708E+02  0.00000000000E+00 0. -1.
<mgrwt>
<rscale>  0 0.92333659E+02</rscale>
<asrwt>0</asrwt>
<pdfrwt beam="1">  1        2 0.49146938E-02 0.92333659E+02</pdfrwt>
<pdfrwt beam="2">  1       -2 0.10264479E-01 0.92333659E+02</pdfrwt>
<totfact> 0.86661196E+04</totfact>
</mgrwt>
</event>
<event>
 5    1  0.6043464E+000  0.8919157E+02  0.7546771E-02  0.1304821E+00
          2   -1    0    0  501    0  0.00000000000E+00  0.00000000000E+00  0.31872359151E+02  0.31872359151E+02  0.00000000000E+00 0. -1.
         -2   -1    0    0    0  501 -0.00000000000E+00 -0.00000000000E+00 -0.62398399115E+02  0.62398399115E+02  0.00000000000E+00 0.  1.
         23    2    1    2    0    0  0.00000000000E+00  0.00000000000E+00 -0.30526039964E+02  0.94270758266E+02  0.89191573302E+02 0.  0.
        -13    1    3    3    0    0  0.12470033954E+02 -0.34940627981E+01 -0.60367218331E+02  0.61740677602E+02  0.00000000000E+00 0.  1.
         13    1    3    3    0    0 -0.12470033954E+02  0.34940627981E+01  0.29841178367E+02  0.32530080664E+02  0.00000000000E+00 0. -1.
<mgrwt>
<rscale>  0 0.89191573E+02</rscale>
<asrwt>0</asrwt>
<pdfrwt beam="1">  1        2 0.49034399E-02 0.89191573E+02</pdfrwt>
<pdfrwt beam="2">  1       -2 0.95997537E-02 0.89191573E+02</pdfrwt>
<totfact> 0.95914130E+04</totfact>
</mgrwt>
</event>
<event>
 5    1  0.6043464E+000  0.9272625E+02  0.7546771E-02  0.1296381E+00
          3   -1    0    0  501    0  0.00000000000E+00  0.00000000000E+00  0.23915099285E+02  0.23915099285E+02  0.00000000000E+00 0. -1.
         -3   -1    0    0    0  501 -0.00000000000E+00 -0.00000000000E+00 -0.89882096453E+02  0.89882096453E+02  0.00000000000E+00 0.  1.
         23    2    1    2    0    0  0.00000000000E+00  0.00000000000E+00 -0.65966997168E+02  0.11379719574E+03  0.92726247862E+02 0.  0.
        -13    1    3    3    0    0  0.38285439689E+02 -0.24597191105E+02 -0.22093354307E+02  0.50585699629E+02  0.00000000000E+00 0.  1.
         13    1    3    3    0    0 -0.38285439689E+02  0.24597191105E+02 -0.43873642861E+02  0.63211496109E+02  0.00000000000E+00 0. -1.
<mgrwt>
<rscale>  0 0.92726248E+02</rscale>
<asrwt>0</asrwt>
<pdfrwt beam="1">  1        3 0.36792460E-02 0.92726248E+02</pdfrwt>
<pdfrwt beam="2">  1       -3 0.13828015E-01 0.92726248E+02</pdfrwt>
<totfact> 0.32166586E+04</totfact>
</mgrwt>
</event>
<event>
 5    1  0.6043464E+000  0.9005453E+02  0.7546771E-02  0.1302720E+00
         -2   -1    0    0    0  501 -0.00000000000E+00  0.00000000000E+00  0.86140305994E+02  0.86140305994E+02  0.00000000000E+00 0.  1.
          2   -1    0    0  501    0  0.00000000000E+00 -0.00000000000E+00 -0.23536654618E+02  0.23536654618E+02  0.00000000000E+00 0. -1.
         23    2    1    2    0    0  0.00000000000E+00  0.00000000000E+00  0.62603651376E+02  0.10967696061E+03  0.90054530832E+02 0.  0.
        -13    1    3    3    0    0 -0.33119157643E+02 -0.80829726052E+01  0.67126193071E+02  0.75287043011E+02  0.00000000000E+00 0.  1.
         13    1    3    3    0    0  0.33119157643E+02  0.80829726052E+01 -0.45225416952E+01  0.34389917600E+02  0.00000000000E+00 0. -1.
<mgrwt>
<rscale>  0 0.90054531E+02</rscale>
<asrwt>0</asrwt>
<pdfrwt beam="2">  1        2 0.36210239E-02 0.90054531E+02</pdfrwt>
<pdfrwt beam="1">  1       -2 0.13252355E-01 0.90054531E+02</pdfrwt>
<totfact> 0.85924054E+04</totfact>
</mgrwt>
</event>
<event>
 5    1  0.6043464E+000  0.1051175E+03  0.7546771E-02  0.1269888E+00
         -4   -1    0    0    0  501 -0.00000000000E+00  0.00000000000E+00  0.41582874213E+02  0.41582874213E+02  0.00000000000E+00 0. -1.
          4   -1    0    0  501    0  0.00000000000E+00 -0.00000000000E+00 -0.66431682713E+02  0.66431682713E+02  0.00000000000E+00 0.  1.
         23    2    1    2    0    0  0.00000000000E+00  0.00000000000E+00 -0.24848808500E+02  0.10801455693E+03  0.10511746393E+03 0.  0.
        -13    1    3    3    0    0 -0.73234432541E+01  0.52020678346E+02 -0.10755920149E+02  0.53623442774E+02  0.00000000000E+00 0. -1.
         13    1    3    3    0    0  0.73234432541E+01 -0.52020678346E+02 -0.14092888351E+02  0.54391114152E+02  0.00000000000E+00 0.  1.
<mgrwt>
<rscale>  0 0.10511746E+03</rscale>
<asrwt>0</asrwt>
<pdfrwt beam="2">  1        4 0.10220259E-01 0.10511746E+03</pdfrwt>
<pdfrwt beam="1">  1       -4 0.63973654E-02 0.10511746E+03</pdfrwt>
<totfact> 0.17596082E+04</totfact>
</mgrwt>
</event>
<event>
 5    1  0.6043464E+000  0.9308438E+02  0.7546771E-02  0.1295550E+00
         -1   -1    0    0    0  501 -0.00000000000E+00  0.00000000000E+00  0.48759794542E+02  0.48759794542E+02  0.00000000000E+00 0.  1.
          1   -1    0    0  501    0  0.00000000000E+00 -0.00000000000E+00 -0.44425446106E+02  0.44425446106E+02  0.00000000000E+00 0. -1.
         23    2    1    2    0    0  0.00000000000E+00  0.00000000000E+00  0.43343484359E+01  0.93185240648E+02  0.93084383751E+02 0.  0.
        -13    1    3    3    0    0 -0.24397399767E+02 -0.11525604263E+02 -0.35796242540E+02  0.44826818413E+02  0.00000000000E+00 0. -1.
         13    1    3    3    0    0  0.24397399767E+02  0.11525604263E+02  0.40130590976E+02  0.48358422235E+02  0.00000000000E+00 0.  1.
<mgrwt>
<rscale>  0 0.93084384E+02</rscale>
<asrwt>0</asrwt>
<pdfrwt beam="2">  1        1 0.68346840E-02 0.93084384E+02</pdfrwt>
<pdfrwt beam="1">  1       -1 0.75015069E-02 0.93084384E+02</pdfrwt>
<totfact> 0.86892923E+04</totfact>
</mgrwt>
</event>
<event>
 5    1  0.6043464E+000  0.9505828E+02  0.7546771E-02  0.1291045E+00
         -1   -1    0    0    0  501 -0.00000000000E+00  0.00000000000E+00  0.10002861612E+03  0.10002861612E+03  0.00000000000E+00 0.  1.
          1   -1    0    0  501    0  0.00000000000E+00 -0.00000000000E+00 -0.22583728397E+02  0.22583728397E+02  0.00000000000E+00 0. -1.
         23    2    1    2    0    0  0.00000000000E+00  0.00000000000E+00  0.77444887727E+02  0.12261234452E+03  0.95058278934E+02 0.  0.
        -13    1    3    3    0    0 -0.36994780959E+02  0.92877872768E+01  0.75299664366E+02  0.84409219072E+02  0.00000000000E+00 0.  1.
         13    1    3    3    0    0  0.36994780959E+02 -0.92877872768E+01  0.21452233602E+01  0.38203125448E+02  0.00000000000E+00 0. -1.
<mgrwt>
<rscale>  0 0.95058279E+02</rscale>
<asrwt>0</asrwt>
<pdfrwt beam="2">  1        1 0.34744198E-02 0.95058279E+02</pdfrwt>
<pdfrwt beam="1">  1       -1 0.15389018E-01 0.95058279E+02</pdfrwt>
<totfact> 0.73071576E+04</totfact>
</mgrwt>
</event>
<event>
 5    1  0.6043464E+000  0.8909552E+02  0.7546771E-02  0.1305057E+00
          1   -1    0    0  501    0  0.00000000000E+00  0.00000000000E+00  0.20006353695E+02  0.20006353695E+02  0.00000000000E+00 0. -1.
         -1   -1    0    0    0  501 -0.00000000000E+00 -0.00000000000E+00 -0.99193644480E+02  0.99193644480E+02  0.00000000000E+00 0.  1.
         23    2    1    2    0    0  0.00000000000E+00  0.00000000000E+00 -0.79187290786E+02  0.11919999818E+03  0.89095524820E+02 0.  0.
        -13    1    3    3    0    0 -0.20017740067E+02  0.23011749252E+02 -0.83033933981E+02  0.88458378424E+02  0.00000000000E+00 0.  1.
         13    1    3    3    0    0  0.20017740067E+02 -0.23011749252E+02  0.38466431957E+01  0.30741619751E+02  0.00000000000E+00 0. -1.
<mgrwt>
<rscale>  0 0.89095525E+02</rscale>
<asrwt>0</asrwt>
<pdfrwt beam="1">  1        1 0.30779007E-02 0.89095525E+02</pdfrwt>
<pdfrwt beam="2">  1       -1 0.15260560E-01 0.89095525E+02</pdfrwt>
<totfact> 0.86478534E+04</totfact>
</mgrwt>
</event>
<event>
 5    1  0.6043464E+000  0.9057427E+02  0.7546771E-02  0.1301467E+00
         -3   -1    0    0    0  501 -0.00000000000E+00  0.00000000000E+00  0.11020253089E+03  0.11020253089E+03  0.00000000000E+00 0.  1.
          3   -1    0    0  501    0  0.00000000000E+00 -0.00000000000E+00 -0.18610503452E+02  0.18610503452E+02  0.00000000000E+00 0. -1.
         23    2    1    2    0    0  0.00000000000E+00  0.00000000000E+00  0.91592027439E+02  0.12881303434E+03  0.90574269671E+02 0.  0.
        -13    1    3    3    0    0  0.17655961055E+02  0.28002758305E+01 -0.13380232812E+02  0.22329467876E+02  0.00000000000E+00 0. -1.
         13    1    3    3    0    0 -0.17655961055E+02 -0.28002758305E+01  0.10497226025E+03  0.10648356647E+03  0.00000000000E+00 0.  1.
<mgrwt>
<rscale>  0 0.90574270E+02</rscale>
<asrwt>0</asrwt>
<pdfrwt beam="2">  1        3 0.28631545E-02 0.90574270E+02</pdfrwt>
<pdfrwt beam="1">  1       -3 0.16954235E-01 0.90574270E+02</pdfrwt>
<totfact> 0.33247782E+04</totfact>
</mgrwt>
</event>
<event>
 5    1  0.6043464E+000  0.9305780E+02  0.7546771E-02  0.1295611E+00
         -2   -1    0    0    0  501 -0.00000000000E+00  0.00000000000E+00  0.15737837821E+02  0.15737837821E+02  0.00000000000E+00 0.  1.
          2   -1    0    0  501    0  0.00000000000E+00 -0.00000000000E+00 -0.13756263196E+03  0.13756263196E+03  0.00000000000E+00 0. -1.
         23    2    1    2    0    0  0.00000000000E+00  0.00000000000E+00 -0.12182479414E+03  0.15330046978E+03  0.93057796922E+02 0.  0.
        -13    1    3    3    0    0 -0.69440341647E+01  0.42440974524E+02 -0.31652126993E+02  0.53397687892E+02  0.00000000000E+00 0.  1.
         13    1    3    3    0    0  0.69440341647E+01 -0.42440974524E+02 -0.90172667144E+02  0.99902781887E+02  0.00000000000E+00 0. -1.
<mgrwt>
<rscale>  0 0.93057797E+02</rscale>
<asrwt>0</asrwt>
<pdfrwt beam="2">  1        2 0.21163483E-01 0.93057797E+02</pdfrwt>
<pdfrwt beam="1">  1       -2 0.24212057E-02 0.93057797E+02</pdfrwt>
<totfact> 0.12843887E+05</totfact>
</mgrwt>
</event>
<event>
 5    1  0.6043464E+000  0.1054621E+03  0.7546771E-02  0.1269212E+00
          3   -1    0    0  501    0  0.00000000000E+00  0.00000000000E+00  0.83463203682E+01  0.83463203682E+01  0.00000000000E+00 0. -1.
         -3   -1    0    0    0  501 -0.00000000000E+00 -0.00000000000E+00 -0.33314816185E+03  0.33314816185E+03  0.00000000000E+00 0.  1.
         23    2    1    2    0    0  0.00000000000E+00  0.00000000000E+00 -0.32480184148E+03  0.34149448222E+03  0.10546205553E+03 0.  0.
        -13    1    3    3    0    0 -0.32742027719E+02  0.41312185471E+02 -0.16677441548E+03  0.17490695443E+03  0.00000000000E+00 0.  1.
         13    1    3    3    0    0  0.32742027719E+02 -0.41312185471E+02 -0.15802742600E+03  0.16658752779E+03  0.00000000000E+00 0. -1.
<mgrwt>
<rscale>  0 0.10546206E+03</rscale>
<asrwt>0</asrwt>
<pdfrwt beam="1">  1        3 0.12840491E-02 0.10546206E+03</pdfrwt>
<pdfrwt beam="2">  1       -3 0.51253570E-01 0.10546206E+03</pdfrwt>
<totfact> 0.15179149E+04</totfact>
</mgrwt>
</event>
<event>
 5    1  0.6043464E+000  0.9155798E+02  0.7546771E-02  0.1299122E+00
          1   -1    0    0  501    0  0.00000000000E+00  0.00000000000E+00  0.81240277247E+02  0.81240277247E+02  0.00000000000E+00 0. -1.
         -1   -1    0    0    0  501 -0.00000000000E+00 -0.00000000000E+00 -0.25796511056E+02  0.25796511056E+02  0.00000000000E+00 0.  1.
         23    2    1    2    0    0  0.00000000000E+00  0.00000000000E+00  0.55443766191E+02  0.10703678830E+03  0.91557975298E+02 0.  0.
        -13    1    3    3    0    0  0.23771552671E+02  0.10775698075E+02 -0.16246491454E+02  0.30743306100E+02  0.00000000000E+00 0.  1.
         13    1    3    3    0    0 -0.23771552671E+02 -0.10775698075E+02  0.71690257645E+02  0.76293482203E+02  0.00000000000E+00 0. -1.
<mgrwt>
<rscale>  0 0.91557975E+02</rscale>
<asrwt>0</asrwt>
<pdfrwt beam="1">  1        1 0.12498504E-01 0.91557975E+02</pdfrwt>
<pdfrwt beam="2">  1       -1 0.39686940E-02 0.91557975E+02</pdfrwt>
<totfact> 0.99838900E+04</totfact>
</mgrwt>
</event>
<event>
 5    1  0.6043464E+000  0.9020348E+02  0.7546771E-02  0.1302360E+00
          1   -1    0    0  501    0  0.00000000000E+00  0.00000000000E+00  0.20914874239E+03  0.20914874239E+03  0.00000000000E+00 0. -1.
         -1   -1    0    0    0  501 -0.00000000000E+00 -0.00000000000E+00 -0.97259352693E+01  0.97259352693E+01  0.00000000000E+00 0.  1.
         23    2    1    2    0    0  0.00000000000E+00  0.00000000000E+00  0.19942280712E+03  0.21887467766E+03  0.90203483972E+02 0.  0.
        -13    1    3    3    0    0 -0.40590978656E+02 -0.58578887680E+01  0.54172546693E+02  0.67945619611E+02  0.00000000000E+00 0.  1.
         13    1    3    3    0    0  0.40590978656E+02  0.58578887680E+01  0.14525026043E+03  0.15092905805E+03  0.00000000000E+00 0. -1.
<mgrwt>
<rscale>  0 0.90203484E+02</rscale>
<asrwt>0</asrwt>
<pdfrwt beam="1">  1        1 0.32176726E-01 0.90203484E+02</pdfrwt>
<pdfrwt beam="2">  1       -1 0.14962979E-02 0.90203484E+02</pdfrwt>
<totfact> 0.12292073E+05</totfact>
</mgrwt>
</event>
<event>
 5    1  0.6043464E+000  0.9035875E+02  0.7546771E-02  0.1301985E+00
         -4   -1    0    0    0  501 -0.00000000000E+00  0.00000000000E+00  0.59579370438E+02  0.59579370438E+02  0.00000000000E+00 0.  1.
          4   -1    0    0  501    0  0.00000000000E+00 -0.00000000000E+00 -0.34259775683E+02  0.34259775683E+02  0.00000000000E+00 0. -1.
         23    2    1    2    0    0  0.00000000000E+00  0.00000000000E+00  0.25319594755E+02  0.93839146121E+02  0.90358748698E+02 0.  0.
        -13    1    3    3    0    0  0.34064269753E+02  0.56834309078E+01  0.42910799359E+02  0.55081871449E+02  0.00000000000E+00 0.  1.
         13    1    3    3    0    0 -0.34064269753E+02 -0.56834309078E+01 -0.17591204604E+02  0.38757274673E+02  0.00000000000E+00 0. -1.
<mgrwt>
<rscale>  0 0.90358749E+02</rscale>
<asrwt>0</asrwt>
<pdfrwt beam="2">  1        4 0.52707347E-02 0.90358749E+02</pdfrwt>
<pdfrwt beam="1">  1       -4 0.91660570E-02 0.90358749E+02</pdfrwt>
<totfact> 0.27508901E+04</totfact>
</mgrwt>
</event>
<event>
 5    1  0.6043464E+000  0.9045135E+02  0.7546771E-02  0.1301762E+00
          2   -1    0    0  501    0  0.00000000000E+00  0.00000000000E+00  0.12438024081E+02  0.12438024081E+02  0.00000000000E+00 0. -1.
         -2   -1    0    0    0  501 -0.00000000000E+00 -0.00000000000E+00 -0.16444426683E+03  0.16444426683E+03  0.00000000000E+00 0.  1.
         23    2    1    2    0    0  0.00000000000E+00  0.00000000000E+00 -0.15200624275E+03  0.17688229091E+03  0.90451351584E+02 0.  0.
        -13    1    3    3    0    0  0.31406480053E+02  0.16931378080E+01 -0.13955488124E+03  0.14305522914E+03  0.00000000000E+00 0.  1.
         13    1    3    3    0    0 -0.31406480053E+02 -0.16931378080E+01 -0.12451361507E+02  0.33827061775E+02  0.00000000000E+00 0. -1.
<mgrwt>
<rscale>  0 0.90451352E+02</rscale>
<asrwt>0</asrwt>
<pdfrwt beam="1">  1        2 0.19135422E-02 0.90451352E+02</pdfrwt>
<pdfrwt beam="2">  1       -2 0.25299118E-01 0.90451352E+02</pdfrwt>
<totfact> 0.68879342E+04</totfact>
</mgrwt>
</event>
<event>
 5    1  0.6043464E+000  0.8990446E+02  0.7546771E-02  0.1303083E+00
          2   -1    0    0  501    0  0.00000000000E+00  0.00000000000E+00  0.29038461052E+03  0.29038461052E+03  0.00000000000E+00 0.  1.
         -2   -1    0    0    0  501 -0.00000000000E+00 -0.00000000000E+00 -0.69587117165E+01  0.69587117165E+01  0.00000000000E+00 0. -1.
         23    2    1    2    0    0  0.00000000000E+00  0.00000000000E+00  0.28342589880E+03  0.29734332223E+03  0.89904455763E+02 0.  0.
        -13    1    3    3    0    0  0.94618303634E+01 -0.43945127164E+02  0.14155240858E+03  0.14851863455E+03  0.00000000000E+00 0.  1.
         13    1    3    3    0    0 -0.94618303634E+01  0.43945127164E+02  0.14187349022E+03  0.14882468768E+03  0.00000000000E+00 0. -1.
<mgrwt>
<rscale>  0 0.89904456E+02</rscale>
<asrwt>0</asrwt>
<pdfrwt beam="1">  1        2 0.44674546E-01 0.89904456E+02</pdfrwt>
<pdfrwt beam="2">  1       -2 0.10705713E-02 0.89904456E+02</pdfrwt>
<totfact> 0.18426938E+05</totfact>
</mgrwt>
</event>
<event>
 5    1  0.6043464E+000  0.9176345E+02  0.7546771E-02  0.1298637E+00
          1   -1    0    0  501    0  0.00000000000E+00  0.00000000000E+00  0.76463292628E+02  0.76463292628E+02  0.00000000000E+00 0. -1.
         -1   -1    0    0    0  501 -0.00000000000E+00 -0.00000000000E+00 -0.27531282763E+02  0.27531282763E+02  0.00000000000E+00 0.  1.
         23    2    1    2    0    0  0.00000000000E+00  0.00000000000E+00  0.48932009865E+02  0.10399457539E+03  0.91763446543E+02 0.  0.
        -13    1    3    3    0    0 -0.19886258502E+02  0.14730555780E+02  0.68250900998E+02  0.72599160035E+02  0.00000000000E+00 0. -1.
         13    1    3    3    0    0  0.19886258502E+02 -0.14730555780E+02 -0.19318891133E+02  0.31395415356E+02  0.00000000000E+00 0.  1.
<mgrwt>
<rscale>  0 0.91763447E+02</rscale>
<asrwt>0</asrwt>
<pdfrwt beam="1">  1        1 0.11763583E-01 0.91763447E+02</pdfrwt>
<pdfrwt beam="2">  1       -1 0.42355820E-02 0.91763447E+02</pdfrwt>
<totfact> 0.98280375E+04</totfact>
</mgrwt>
</event>
<event>
 5    1  0.6043464E+000  0.9066189E+02  0.7546771E-02  0.1301257E+00
         -1   -1    0    0    0  501 -0.00000000000E+00  0.00000000000E+00  0.62297839886E+02  0.62297839886E+02  0.00000000000E+00 0.  1.
          1   -1    0    0  501    0  0.00000000000E+00 -0.00000000000E+00 -0.32985002757E+02  0.32985002757E+02  0.00000000000E+00 0. -1.
         23    2    1    2    0    0  0.00000000000E+00  0.00000000000E+00  0.29312837130E+02  0.95282842643E+02  0.90661886598E+02 0.  0.
        -13    1    3    3    0    0 -0.17415040446E+02  0.24453947621E+02 -0.21039654683E+02  0.36659872574E+02  0.00000000000E+00 0. -1.
         13    1    3    3    0    0  0.17415040446E+02 -0.24453947621E+02  0.50352491813E+02  0.58622970069E+02  0.00000000000E+00 0.  1.
<mgrwt>
<rscale>  0 0.90661887E+02</rscale>
<asrwt>0</asrwt>
<pdfrwt beam="2">  1        1 0.50746158E-02 0.90661887E+02</pdfrwt>
<pdfrwt beam="1">  1       -1 0.95842831E-02 0.90661887E+02</pdfrwt>
<totfact> 0.89437199E+04</totfact>
</mgrwt>
</event>
<event>
 5    1  0.6043464E+000  0.9188670E+02  0.7546771E-02  0.1298346E+00
          3   -1    0    0  501    0  0.00000000000E+00  0.00000000000E+00  0.16931042030E+02  0.16931042030E+02  0.00000000000E+00 0. -1.
         -3   -1    0    0    0  501 -0.00000000000E+00 -0.00000000000E+00 -0.12466990716E+03  0.12466990716E+03  0.00000000000E+00 0.  1.
         23    2    1    2    0    0  0.00000000000E+00  0.00000000000E+00 -0.10773886513E+03  0.14160094919E+03  0.91886700627E+02 0.  0.
        -13    1    3    3    0    0 -0.41176768292E+02 -0.90273662184E+01 -0.25715545766E+02  0.49379235331E+02  0.00000000000E+00 0. -1.
         13    1    3    3    0    0  0.41176768292E+02  0.90273662184E+01 -0.82023319365E+02  0.92221713861E+02  0.00000000000E+00 0.  1.
<mgrwt>
<rscale>  0 0.91886701E+02</rscale>
<asrwt>0</asrwt>
<pdfrwt beam="1">  1        3 0.26047757E-02 0.91886701E+02</pdfrwt>
<pdfrwt beam="2">  1       -3 0.19179986E-01 0.91886701E+02</pdfrwt>
<totfact> 0.31166889E+04</totfact>
</mgrwt>
</event>
<event>
 4    1  0.6043464E+000  0.4990253E+02  0.7546771E-02  0.1445868E+00
          2   -1    0    0  501    0  0.00000000000E+00  0.00000000000E+00  0.26384881472E+02  0.26384881472E+02  0.00000000000E+00 0.  1.
         -2   -1    0    0    0  501 -0.00000000000E+00 -0.00000000000E+00 -0.23595547105E+02  0.23595547105E+02  0.00000000000E+00 0. -1.
        -13    1    1    2    0    0  0.20917083541E+02 -0.77248477669E+00  0.14996904557E+02  0.25749335193E+02  0.00000000000E+00 0.  1.
         13    1    1    2    0    0 -0.20917083541E+02  0.77248477669E+00 -0.12207570191E+02  0.24231093383E+02  0.00000000000E+00 0. -1.
<mgrwt>
<rscale>  0 0.49902534E+02</rscale>
<asrwt>0</asrwt>
<pdfrwt beam="1">  1        2 0.40592125E-02 0.49902534E+02</pdfrwt>
<pdfrwt beam="2">  1       -2 0.36300842E-02 0.49902534E+02</pdfrwt>
<totfact> 0.46228149E+05</totfact>
</mgrwt>
</event>
<event>
 5    1  0.6043464E+000  0.9020322E+02  0.7546771E-02  0.1302360E+00
         -2   -1    0    0    0  501 -0.00000000000E+00  0.00000000000E+00  0.14443812964E+02  0.14443812964E+02  0.00000000000E+00 0.  1.
          2   -1    0    0  501    0  0.00000000000E+00 -0.00000000000E+00 -0.14083228501E+03  0.14083228501E+03  0.00000000000E+00 0. -1.
         23    2    1    2    0    0  0.00000000000E+00  0.00000000000E+00 -0.12638847205E+03  0.15527609797E+03  0.90203219099E+02 0.  0.
        -13    1    3    3    0    0  0.31299075362E+02  0.13686879458E+02 -0.12502133693E+02  0.36376725179E+02  0.00000000000E+00 0.  1.
         13    1    3    3    0    0 -0.31299075362E+02 -0.13686879458E+02 -0.11388633835E+03  0.11889937280E+03  0.00000000000E+00 0. -1.
<mgrwt>
<rscale>  0 0.90203219E+02</rscale>
<asrwt>0</asrwt>
<pdfrwt beam="2">  1        2 0.21666504E-01 0.90203219E+02</pdfrwt>
<pdfrwt beam="1">  1       -2 0.22221252E-02 0.90203219E+02</pdfrwt>
<totfact> 0.14091400E+05</totfact>
</mgrwt>
</event>
<event>
 5    1  0.6043464E+000  0.9219858E+02  0.7546771E-02  0.1297613E+00
          1   -1    0    0  501    0  0.00000000000E+00  0.00000000000E+00  0.15319034266E+02  0.15319034266E+02  0.00000000000E+00 0. -1.
         -1   -1    0    0    0  501 -0.00000000000E+00 -0.00000000000E+00 -0.13872574213E+03  0.13872574213E+03  0.00000000000E+00 0.  1.
         23    2    1    2    0    0  0.00000000000E+00  0.00000000000E+00 -0.12340670787E+03  0.15404477640E+03  0.92198576936E+02 0.  0.
        -13    1    3    3    0    0 -0.85440012280E+01  0.36516179648E+02 -0.16911346366E+02  0.41139092953E+02  0.00000000000E+00 0. -1.
         13    1    3    3    0    0  0.85440012280E+01 -0.36516179648E+02 -0.10649536150E+03  0.11290568345E+03  0.00000000000E+00 0.  1.
<mgrwt>
<rscale>  0 0.92198577E+02</rscale>
<asrwt>0</asrwt>
<pdfrwt beam="1">  1        1 0.23567745E-02 0.92198577E+02</pdfrwt>
<pdfrwt beam="2">  1       -1 0.21342422E-01 0.92198577E+02</pdfrwt>
<totfact> 0.73965194E+04</totfact>
</mgrwt>
</event>
<event>
 5    1  0.6043464E+000  0.8747385E+02  0.7546771E-02  0.1309087E+00
          2   -1    0    0  501    0  0.00000000000E+00  0.00000000000E+00  0.24679146593E+02  0.24679146593E+02  0.00000000000E+00 0. -1.
         -2   -1    0    0    0  501 -0.00000000000E+00 -0.00000000000E+00 -0.77511538813E+02  0.77511538813E+02  0.00000000000E+00 0.  1.
         23    2    1    2    0    0  0.00000000000E+00  0.00000000000E+00 -0.52832392220E+02  0.10219068541E+03  0.87473850470E+02 0.  0.
        -13    1    3    3    0    0 -0.14137299515E+02 -0.31227420126E+02 -0.58150785956E+02  0.67502065987E+02  0.00000000000E+00 0.  1.
         13    1    3    3    0    0  0.14137299515E+02  0.31227420126E+02  0.53183937353E+01  0.34688619419E+02  0.00000000000E+00 0. -1.
<mgrwt>
<rscale>  0 0.87473850E+02</rscale>
<asrwt>0</asrwt>
<pdfrwt beam="1">  1        2 0.37967918E-02 0.87473850E+02</pdfrwt>
<pdfrwt beam="2">  1       -2 0.11924852E-01 0.87473850E+02</pdfrwt>
<totfact> 0.95004451E+04</totfact>
</mgrwt>
</event>
<event>
 5    1  0.6043464E+000  0.9556653E+02  0.7546771E-02  0.1289905E+00
         -2   -1    0    0    0  501 -0.00000000000E+00  0.00000000000E+00  0.21245232272E+02  0.21245232272E+02  0.00000000000E+00 0.  1.
          2   -1    0    0  501    0  0.00000000000E+00 -0.00000000000E+00 -0.10747070904E+03  0.10747070904E+03  0.00000000000E+00 0. -1.
         23    2    1    2    0    0  0.00000000000E+00  0.00000000000E+00 -0.86225476769E+02  0.12871594131E+03  0.95566525017E+02 0.  0.
        -13    1    3    3    0    0 -0.12605831242E+02 -0.46071988744E+02 -0.41354025957E+02  0.63179827405E+02  0.00000000000E+00 0. -1.
         13    1    3    3    0    0  0.12605831242E+02  0.46071988744E+02 -0.44871450812E+02  0.65536113907E+02  0.00000000000E+00 0.  1.
<mgrwt>
<rscale>  0 0.95566525E+02</rscale>
<asrwt>0</asrwt>
<pdfrwt beam="2">  1        2 0.16533956E-01 0.95566525E+02</pdfrwt>
<pdfrwt beam="1">  1       -2 0.32684972E-02 0.95566525E+02</pdfrwt>
<totfact> 0.11017576E+05</totfact>
</mgrwt>
</event>
<event>
 5    1  0.6043464E+000  0.9206011E+02  0.7546771E-02  0.1297938E+00
          1   -1    0    0  501    0  0.00000000000E+00  0.00000000000E+00  0.98878932198E+02  0.98878932198E+02  0.00000000000E+00 0. -1.
         -1   -1    0    0    0  501 -0.00000000000E+00 -0.00000000000E+00 -0.21427881581E+02  0.21427881581E+02  0.00000000000E+00 0.  1.
         23    2    1    2    0    0  0.00000000000E+00  0.00000000000E+00  0.77451050617E+02  0.12030681378E+03  0.92060111883E+02 0.  0.
        -13    1    3    3    0    0  0.56393567090E+01 -0.43395000003E+02  0.57383347984E+02  0.72164929122E+02  0.00000000000E+00 0.  1.
         13    1    3    3    0    0 -0.56393567090E+01  0.43395000003E+02  0.20067702633E+02  0.48141884657E+02  0.00000000000E+00 0. -1.
<mgrwt>
<rscale>  0 0.92060112E+02</rscale>
<asrwt>0</asrwt>
<pdfrwt beam="1">  1        1 0.15212143E-01 0.92060112E+02</pdfrwt>
<pdfrwt beam="2">  1       -1 0.32965972E-02 0.92060112E+02</pdfrwt>
<totfact> 0.10154702E+05</totfact>
</mgrwt>
</event>
<event>
 5    1  0.6043464E+000  0.7164563E+02  0.7546771E-02  0.1354585E+00
         -4   -1    0    0    0  501 -0.00000000000E+00  0.00000000000E+00  0.89883625607E+02  0.89883625607E+02  0.00000000000E+00 0.  1.
          4   -1    0    0  501    0  0.00000000000E+00 -0.00000000000E+00 -0.14277063342E+02  0.14277063342E+02  0.00000000000E+00 0. -1.
         23    2    1    2    0    0  0.00000000000E+00  0.00000000000E+00  0.75606562265E+02  0.10416068895E+03  0.71645633954E+02 0.  0.
        -13    1    3    3    0    0 -0.18919171929E+02  0.20822615242E+02  0.70042889832E+02  0.75481936832E+02  0.00000000000E+00 0.  1.
         13    1    3    3    0    0  0.18919171929E+02 -0.20822615242E+02  0.55636724337E+01  0.28678752116E+02  0.00000000000E+00 0. -1.
<mgrwt>
<rscale>  0 0.71645634E+02</rscale>
<asrwt>0</asrwt>
<pdfrwt beam="2">  1        4 0.21964713E-02 0.71645634E+02</pdfrwt>
<pdfrwt beam="1">  1       -4 0.13828250E-01 0.71645634E+02</pdfrwt>
<totfact> 0.49740853E+04</totfact>
</mgrwt>
</event>
<event>
 5    1  0.6043464E+000  0.9157567E+02  0.7546771E-02  0.1299080E+00
          1   -1    0    0  501    0  0.00000000000E+00  0.00000000000E+00  0.27924241827E+03  0.27924241827E+03  0.00000000000E+00 0. -1.
         -1   -1    0    0    0  501 -0.00000000000E+00 -0.00000000000E+00 -0.75079060937E+01  0.75079060937E+01  0.00000000000E+00 0.  1.
         23    2    1    2    0    0  0.00000000000E+00  0.00000000000E+00  0.27173451218E+03  0.28675032436E+03  0.91575670431E+02 0.  0.
        -13    1    3    3    0    0 -0.45513097402E+02  0.41230834835E+01  0.12696424333E+03  0.13493835977E+03  0.00000000000E+00 0.  1.
         13    1    3    3    0    0  0.45513097402E+02 -0.41230834835E+01  0.14477026884E+03  0.15181196459E+03  0.00000000000E+00 0. -1.
<mgrwt>
<rscale>  0 0.91575670E+02</rscale>
<asrwt>0</asrwt>
<pdfrwt beam="1">  1        1 0.42960364E-01 0.91575670E+02</pdfrwt>
<pdfrwt beam="2">  1       -1 0.11550627E-02 0.91575670E+02</pdfrwt>
<totfact> 0.12490286E+05</totfact>
</mgrwt>
</event>
<event>
 5    1  0.6043464E+000  0.9025209E+02  0.7546771E-02  0.1302242E+00
          1   -1    0    0  501    0  0.00000000000E+00  0.00000000000E+00  0.99601885554E+01  0.99601885554E+01  0.00000000000E+00 0. -1.
         -1   -1    0    0    0  501 -0.00000000000E+00 -0.00000000000E+00 -0.20444996047E+03  0.20444996047E+03  0.00000000000E+00 0.  1.
         23    2    1    2    0    0  0.00000000000E+00  0.00000000000E+00 -0.19448977191E+03  0.21441014902E+03  0.90252094855E+02 0.  0.
        -13    1    3    3    0    0  0.43360182226E+02 -0.12251038694E+02 -0.91345346060E+02  0.10185364794E+03  0.00000000000E+00 0.  1.
         13    1    3    3    0    0 -0.43360182226E+02  0.12251038694E+02 -0.10314442585E+03  0.11255650108E+03  0.00000000000E+00 0. -1.
<mgrwt>
<rscale>  0 0.90252095E+02</rscale>
<asrwt>0</asrwt>
<pdfrwt beam="1">  1        1 0.15323368E-02 0.90252095E+02</pdfrwt>
<pdfrwt beam="2">  1       -1 0.31453838E-01 0.90252095E+02</pdfrwt>
<totfact> 0.70841043E+04</totfact>
</mgrwt>
</event>
<event>
 5    1  0.6043464E+000  0.9325593E+02  0.7546771E-02  0.1295153E+00
          4   -1    0    0  501    0  0.00000000000E+00  0.00000000000E+00  0.49439652914E+03  0.49439652914E+03  0.00000000000E+00 0. -1.
         -4   -1    0    0    0  501 -0.00000000000E+00 -0.00000000000E+00 -0.43976179521E+01  0.43976179521E+01  0.00000000000E+00 0.  1.
         23    2    1    2    0    0  0.00000000000E+00  0.00000000000E+00  0.48999891119E+03  0.49879414710E+03  0.93255928541E+02 0.  0.
        -13    1    3    3    0    0  0.10910771704E+02 -0.45288870004E+02  0.23424829654E+03  0.23883548966E+03  0.00000000000E+00 0.  1.
         13    1    3    3    0    0 -0.10910771704E+02  0.45288870004E+02  0.25575061465E+03  0.25995865744E+03  0.00000000000E+00 0. -1.
<mgrwt>
<rscale>  0 0.93255929E+02</rscale>
<asrwt>0</asrwt>
<pdfrwt beam="1">  1        4 0.76060960E-01 0.93255929E+02</pdfrwt>
<pdfrwt beam="2">  1       -4 0.67655700E-03 0.93255929E+02</pdfrwt>
<totfact> 0.12334853E+04</totfact>
</mgrwt>
</event>
<event>
 5    1  0.6043464E+000  0.9050714E+02  0.7546771E-02  0.1301628E+00
          3   -1    0    0  501    0  0.00000000000E+00  0.00000000000E+00  0.15180905408E+03  0.15180905408E+03  0.00000000000E+00 0. -1.
         -3   -1    0    0    0  501 -0.00000000000E+00 -0.00000000000E+00 -0.13489877045E+02  0.13489877045E+02  0.00000000000E+00 0.  1.
         23    2    1    2    0    0  0.00000000000E+00  0.00000000000E+00  0.13831917703E+03  0.16529893112E+03  0.90507137263E+02 0.  0.
        -13    1    3    3    0    0  0.39179481100E+01 -0.25739519795E+02  0.15591603902E+01  0.26082641312E+02  0.00000000000E+00 0.  1.
         13    1    3    3    0    0 -0.39179481100E+01  0.25739519795E+02  0.13676001664E+03  0.13921628981E+03  0.00000000000E+00 0. -1.
<mgrwt>
<rscale>  0 0.90507137E+02</rscale>
<asrwt>0</asrwt>
<pdfrwt beam="1">  1        3 0.23355238E-01 0.90507137E+02</pdfrwt>
<pdfrwt beam="2">  1       -3 0.20753658E-02 0.90507137E+02</pdfrwt>
<totfact> 0.31007877E+04</totfact>
</mgrwt>
</event>
<event>
 5    1  0.6043464E+000  0.8969842E+02  0.7546771E-02  0.1303584E+00
         -1   -1    0    0    0  501 -0.00000000000E+00  0.00000000000E+00  0.92510801139E+02  0.92510801139E+02  0.00000000000E+00 0.  1.
          1   -1    0    0  501    0  0.00000000000E+00 -0.00000000000E+00 -0.21742885680E+02  0.21742885680E+02  0.00000000000E+00 0. -1.
         23    2    1    2    0    0  0.00000000000E+00  0.00000000000E+00  0.70767915459E+02  0.11425368682E+03  0.89698423026E+02 0.  0.
        -13    1    3    3    0    0  0.37000957928E+02  0.10958955573E+02  0.62742383583E+01  0.39096491682E+02  0.00000000000E+00 0. -1.
         13    1    3    3    0    0 -0.37000957928E+02 -0.10958955573E+02  0.64493677101E+02  0.75157195137E+02  0.00000000000E+00 0.  1.
<mgrwt>
<rscale>  0 0.89698423E+02</rscale>
<asrwt>0</asrwt>
<pdfrwt beam="2">  1        1 0.33450594E-02 0.89698423E+02</pdfrwt>
<pdfrwt beam="1">  1       -1 0.14232431E-01 0.89698423E+02</pdfrwt>
<totfact> 0.86073746E+04</totfact>
</mgrwt>
</event>
<event>
 5    1  0.6043464E+000  0.9014592E+02  0.7546771E-02  0.1302499E+00
          1   -1    0    0  501    0  0.00000000000E+00  0.00000000000E+00  0.56524364857E+01  0.56524364857E+01  0.00000000000E+00 0. -1.
         -1   -1    0    0    0  501 -0.00000000000E+00 -0.00000000000E+00 -0.35941522400E+03  0.35941522400E+03  0.00000000000E+00 0.  1.
         23    2    1    2    0    0  0.00000000000E+00  0.00000000000E+00 -0.35376278752E+03  0.36506766049E+03  0.90145920056E+02 0.  0.
        -13    1    3    3    0    0  0.14668529820E+02  0.41826842319E+02 -0.14375232619E+03  0.15043065443E+03  0.00000000000E+00 0. -1.
         13    1    3    3    0    0 -0.14668529820E+02 -0.41826842319E+02 -0.21001046133E+03  0.21463700606E+03  0.00000000000E+00 0.  1.
<mgrwt>
<rscale>  0 0.90145920E+02</rscale>
<asrwt>0</asrwt>
<pdfrwt beam="1">  1        1 0.86960525E-03 0.90145920E+02</pdfrwt>
<pdfrwt beam="2">  1       -1 0.55294673E-01 0.90145920E+02</pdfrwt>
<totfact> 0.57802085E+04</totfact>
</mgrwt>
</event>
<event>
 5    1  0.6043464E+000  0.9230355E+02  0.7546771E-02  0.1297367E+00
         -1   -1    0    0    0  501 -0.00000000000E+00  0.00000000000E+00  0.28211291127E+02  0.28211291127E+02  0.00000000000E+00 0.  1.
          1   -1    0    0  501    0  0.00000000000E+00 -0.00000000000E+00 -0.75501194813E+02  0.75501194813E+02  0.00000000000E+00 0. -1.
         23    2    1    2    0    0  0.00000000000E+00  0.00000000000E+00 -0.47289903686E+02  0.10371248594E+03  0.92303546785E+02 0.  0.
        -13    1    3    3    0    0 -0.15699840772E+02  0.34284017096E+02  0.62544299502E+01  0.38222986834E+02  0.00000000000E+00 0.  1.
         13    1    3    3    0    0  0.15699840772E+02 -0.34284017096E+02 -0.53544333637E+02  0.65489499106E+02  0.00000000000E+00 0. -1.
<mgrwt>
<rscale>  0 0.92303547E+02</rscale>
<asrwt>0</asrwt>
<pdfrwt beam="2">  1        1 0.11615568E-01 0.92303547E+02</pdfrwt>
<pdfrwt beam="1">  1       -1 0.43401987E-02 0.92303547E+02</pdfrwt>
<totfact> 0.96510966E+04</totfact>
</mgrwt>
</event>
<event>
 5    1  0.6043464E+000  0.9197776E+02  0.7546771E-02  0.1298132E+00
          1   -1    0    0  501    0  0.00000000000E+00  0.00000000000E+00  0.18843802442E+02  0.18843802442E+02  0.00000000000E+00 0. -1.
         -1   -1    0    0    0  501 -0.00000000000E+00 -0.00000000000E+00 -0.11223726968E+03  0.11223726968E+03  0.00000000000E+00 0.  1.
         23    2    1    2    0    0  0.00000000000E+00  0.00000000000E+00 -0.93393467239E+02  0.13108107212E+03  0.91977756799E+02 0.  0.
        -13    1    3    3    0    0  0.64509642247E+01  0.27429666379E+02  0.51002579545E+01  0.28635889514E+02  0.00000000000E+00 0. -1.
         13    1    3    3    0    0 -0.64509642247E+01 -0.27429666379E+02 -0.98493725193E+02  0.10244518261E+03  0.00000000000E+00 0.  1.
<mgrwt>
<rscale>  0 0.91977757E+02</rscale>
<asrwt>0</asrwt>
<pdfrwt beam="1">  1        1 0.28990464E-02 0.91977757E+02</pdfrwt>
<pdfrwt beam="2">  1       -1 0.17267273E-01 0.91977757E+02</pdfrwt>
<totfact> 0.77813413E+04</totfact>
</mgrwt>
</event>
<event>
 5    1  0.6043464E+000  0.9066542E+02  0.7546771E-02  0.1301248E+00
          1   -1    0    0  501    0  0.00000000000E+00  0.00000000000E+00  0.41775748289E+02  0.41775748289E+02  0.00000000000E+00 0. -1.
         -1   -1    0    0    0  501 -0.00000000000E+00 -0.00000000000E+00 -0.49192527320E+02  0.49192527320E+02  0.00000000000E+00 0.  1.
         23    2    1    2    0    0  0.00000000000E+00  0.00000000000E+00 -0.74167790312E+01  0.90968275610E+02  0.90665420951E+02 0.  0.
        -13    1    3    3    0    0 -0.44577685234E+02  0.82087898188E+01 -0.29986455818E+01  0.45426271325E+02  0.00000000000E+00 0.  1.
         13    1    3    3    0    0  0.44577685234E+02 -0.82087898188E+01 -0.44181334493E+01  0.45542004285E+02  0.00000000000E+00 0. -1.
<mgrwt>
<rscale>  0 0.90665421E+02</rscale>
<asrwt>0</asrwt>
<pdfrwt beam="1">  1        1 0.64270382E-02 0.90665421E+02</pdfrwt>
<pdfrwt beam="2">  1       -1 0.75680811E-02 0.90665421E+02</pdfrwt>
<totfact> 0.92719812E+04</totfact>
</mgrwt>
</event>
<event>
 5    1  0.6043464E+000  0.7621049E+02  0.7546771E-02  0.1340163E+00
         -2   -1    0    0    0  501 -0.00000000000E+00  0.00000000000E+00  0.29676288428E+02  0.29676288428E+02  0.00000000000E+00 0.  1.
          2   -1    0    0  501    0  0.00000000000E+00 -0.00000000000E+00 -0.48928281190E+02  0.48928281190E+02  0.00000000000E+00 0. -1.
         23    2    1    2    0    0  0.00000000000E+00  0.00000000000E+00 -0.19251992762E+02  0.78604569618E+02  0.76210492319E+02 0.  0.
        -13    1    3    3    0    0  0.23788670647E+02  0.26623867744E+02 -0.23358862424E+02  0.42665766588E+02  0.00000000000E+00 0.  1.
         13    1    3    3    0    0 -0.23788670647E+02 -0.26623867744E+02  0.41068696626E+01  0.35938803030E+02  0.00000000000E+00 0. -1.
<mgrwt>
<rscale>  0 0.76210492E+02</rscale>
<asrwt>0</asrwt>
<pdfrwt beam="2">  1        2 0.75274279E-02 0.76210492E+02</pdfrwt>
<pdfrwt beam="1">  1       -2 0.45655828E-02 0.76210492E+02</pdfrwt>
<totfact> 0.16624288E+05</totfact>
</mgrwt>
</event>
<event>
 5    1  0.6043464E+000  0.9091273E+02  0.7546771E-02  0.1300656E+00
          1   -1    0    0  501    0  0.00000000000E+00  0.00000000000E+00  0.23122839343E+03  0.23122839343E+03  0.00000000000E+00 0. -1.
         -1   -1    0    0    0  501 -0.00000000000E+00 -0.00000000000E+00 -0.89361051709E+01  0.89361051709E+01  0.00000000000E+00 0.  1.
         23    2    1    2    0    0  0.00000000000E+00  0.00000000000E+00  0.22229228826E+03  0.24016449861E+03  0.90912732711E+02 0.  0.
        -13    1    3    3    0    0 -0.41619067161E+02  0.72736353587E+01  0.66845103043E+02  0.79077938286E+02  0.00000000000E+00 0. -1.
         13    1    3    3    0    0  0.41619067161E+02 -0.72736353587E+01  0.15544718522E+03  0.16108656032E+03  0.00000000000E+00 0.  1.
<mgrwt>
<rscale>  0 0.90912733E+02</rscale>
<asrwt>0</asrwt>
<pdfrwt beam="1">  1        1 0.35573594E-01 0.90912733E+02</pdfrwt>
<pdfrwt beam="2">  1       -1 0.13747856E-02 0.90912733E+02</pdfrwt>
<totfact> 0.12275027E+05</totfact>
</mgrwt>
</event>
<event>
 5    1  0.6043464E+000  0.9052026E+02  0.7546771E-02  0.1301597E+00
         -4   -1    0    0    0  501 -0.00000000000E+00  0.00000000000E+00  0.45800663726E+02  0.45800663726E+02  0.00000000000E+00 0.  1.
          4   -1    0    0  501    0  0.00000000000E+00 -0.00000000000E+00 -0.44725973002E+02  0.44725973002E+02  0.00000000000E+00 0. -1.
         23    2    1    2    0    0  0.00000000000E+00  0.00000000000E+00  0.10746907236E+01  0.90526636728E+02  0.90520257385E+02 0.  0.
        -13    1    3    3    0    0 -0.32325533483E+02 -0.34017642561E+01  0.32035074730E+02  0.45637244965E+02  0.00000000000E+00 0.  1.
         13    1    3    3    0    0  0.32325533483E+02  0.34017642561E+01 -0.30960384006E+02  0.44889391763E+02  0.00000000000E+00 0. -1.
<mgrwt>
<rscale>  0 0.90520257E+02</rscale>
<asrwt>0</asrwt>
<pdfrwt beam="2">  1        4 0.68809189E-02 0.90520257E+02</pdfrwt>
<pdfrwt beam="1">  1       -4 0.70462560E-02 0.90520257E+02</pdfrwt>
<totfact> 0.27593453E+04</totfact>
</mgrwt>
</event>
<event>
 5    1  0.6043464E+000  0.9061923E+02  0.7546771E-02  0.1301359E+00
         -2   -1    0    0    0  501 -0.00000000000E+00  0.00000000000E+00  0.13182725900E+02  0.13182725900E+02  0.00000000000E+00 0.  1.
          2   -1    0    0  501    0  0.00000000000E+00 -0.00000000000E+00 -0.15573116281E+03  0.15573116281E+03  0.00000000000E+00 0. -1.
         23    2    1    2    0    0  0.00000000000E+00  0.00000000000E+00 -0.14254843691E+03  0.16891388871E+03  0.90619230485E+02 0.  0.
        -13    1    3    3    0    0 -0.52289546647E+01 -0.42768615292E+02 -0.97401088161E+02  0.10650572002E+03  0.00000000000E+00 0. -1.
         13    1    3    3    0    0  0.52289546647E+01  0.42768615292E+02 -0.45147348751E+02  0.62408168697E+02  0.00000000000E+00 0.  1.
<mgrwt>
<rscale>  0 0.90619230E+02</rscale>
<asrwt>0</asrwt>
<pdfrwt beam="2">  1        2 0.23958640E-01 0.90619230E+02</pdfrwt>
<pdfrwt beam="1">  1       -2 0.20281117E-02 0.90619230E+02</pdfrwt>
<totfact> 0.14398518E+05</totfact>
</mgrwt>
</event>
<event>
 5    1  0.6043464E+000  0.7990920E+02  0.7546771E-02  0.1329309E+00
          2   -1    0    0  501    0  0.00000000000E+00  0.00000000000E+00  0.13700301601E+03  0.13700301601E+03  0.00000000000E+00 0. -1.
         -2   -1    0    0    0  501 -0.00000000000E+00 -0.00000000000E+00 -0.11652079221E+02  0.11652079221E+02  0.00000000000E+00 0.  1.
         23    2    1    2    0    0  0.00000000000E+00  0.00000000000E+00  0.12535093679E+03  0.14865509523E+03  0.79909198371E+02 0.  0.
        -13    1    3    3    0    0  0.28232405928E+02 -0.18348201570E+02  0.22661940386E+02  0.40586805583E+02  0.00000000000E+00 0.  1.
         13    1    3    3    0    0 -0.28232405928E+02  0.18348201570E+02  0.10268899640E+03  0.10806828965E+03  0.00000000000E+00 0. -1.
<mgrwt>
<rscale>  0 0.79909198E+02</rscale>
<asrwt>0</asrwt>
<pdfrwt beam="1">  1        2 0.21077386E-01 0.79909198E+02</pdfrwt>
<pdfrwt beam="2">  1       -2 0.17926277E-02 0.79909198E+02</pdfrwt>
<totfact> 0.19355333E+05</totfact>
</mgrwt>
</event>
<event>
 5    1  0.6043464E+000  0.9080461E+02  0.7546771E-02  0.1300915E+00
         -1   -1    0    0    0  501 -0.00000000000E+00  0.00000000000E+00  0.20892243387E+03  0.20892243387E+03  0.00000000000E+00 0.  1.
          1   -1    0    0  501    0  0.00000000000E+00 -0.00000000000E+00 -0.98666722937E+01  0.98666722937E+01  0.00000000000E+00 0. -1.
         23    2    1    2    0    0  0.00000000000E+00  0.00000000000E+00  0.19905576158E+03  0.21878910617E+03  0.90804607588E+02 0.  0.
        -13    1    3    3    0    0  0.36795663974E+02  0.37097702526E+01  0.16298776039E+03  0.16713076713E+03  0.00000000000E+00 0.  1.
         13    1    3    3    0    0 -0.36795663974E+02 -0.37097702526E+01  0.36068001183E+02  0.51658339036E+02  0.00000000000E+00 0. -1.
<mgrwt>
<rscale>  0 0.90804608E+02</rscale>
<asrwt>0</asrwt>
<pdfrwt beam="2">  1        1 0.15179497E-02 0.90804608E+02</pdfrwt>
<pdfrwt beam="1">  1       -1 0.32141910E-01 0.90804608E+02</pdfrwt>
<totfact> 0.69284053E+04</totfact>
</mgrwt>
</event>
<event>
 5    1  0.6043464E+000  0.8835788E+02  0.7546771E-02  0.1306878E+00
          3   -1    0    0  501    0  0.00000000000E+00  0.00000000000E+00  0.15633617743E+03  0.15633617743E+03  0.00000000000E+00 0. -1.
         -3   -1    0    0    0  501 -0.00000000000E+00 -0.00000000000E+00 -0.12484497312E+02  0.12484497312E+02  0.00000000000E+00 0.  1.
         23    2    1    2    0    0  0.00000000000E+00  0.00000000000E+00  0.14385168012E+03  0.16882067474E+03  0.88357876545E+02 0.  0.
        -13    1    3    3    0    0  0.36229826943E+01 -0.42784810409E+02  0.91792208263E+02  0.10133842067E+03  0.00000000000E+00 0. -1.
         13    1    3    3    0    0 -0.36229826943E+01  0.42784810409E+02  0.52059471856E+02  0.67482254077E+02  0.00000000000E+00 0.  1.
<mgrwt>
<rscale>  0 0.88357877E+02</rscale>
<asrwt>0</asrwt>
<pdfrwt beam="1">  1        3 0.24051718E-01 0.88357877E+02</pdfrwt>
<pdfrwt beam="2">  1       -3 0.19206920E-02 0.88357877E+02</pdfrwt>
<totfact> 0.32860665E+04</totfact>
</mgrwt>
</event>
<event>
 5    1  0.6043464E+000  0.9134151E+02  0.7546771E-02  0.1299635E+00
          1   -1    0    0  501    0  0.00000000000E+00  0.00000000000E+00  0.11351415195E+03  0.11351415195E+03  0.00000000000E+00 0. -1.
         -1   -1    0    0    0  501 -0.00000000000E+00 -0.00000000000E+00 -0.18374957560E+02  0.18374957560E+02  0.00000000000E+00 0.  1.
         23    2    1    2    0    0  0.00000000000E+00  0.00000000000E+00  0.95139194388E+02  0.13188910951E+03  0.91341506984E+02 0.  0.
        -13    1    3    3    0    0 -0.40611985188E+02 -0.17011306889E+02  0.65082044295E+02  0.78577289293E+02  0.00000000000E+00 0.  1.
         13    1    3    3    0    0  0.40611985188E+02  0.17011306889E+02  0.30057150093E+02  0.53311820215E+02  0.00000000000E+00 0. -1.
<mgrwt>
<rscale>  0 0.91341507E+02</rscale>
<asrwt>0</asrwt>
<pdfrwt beam="1">  1        1 0.17463715E-01 0.91341507E+02</pdfrwt>
<pdfrwt beam="2">  1       -1 0.28269166E-02 0.91341507E+02</pdfrwt>
<totfact> 0.10618864E+05</totfact>
</mgrwt>
</event>
<event>
 5    1  0.6043464E+000  0.9523243E+02  0.7546771E-02  0.1290653E+00
          2   -1    0    0  501    0  0.00000000000E+00  0.00000000000E+00  0.98211575369E+01  0.98211575369E+01  0.00000000000E+00 0.  1.
         -2   -1    0    0    0  501 -0.00000000000E+00 -0.00000000000E+00 -0.23085915245E+03  0.23085915245E+03  0.00000000000E+00 0. -1.
         23    2    1    2    0    0  0.00000000000E+00  0.00000000000E+00 -0.22103799491E+03  0.24068030998E+03  0.95232433656E+02 0.  0.
        -13    1    3    3    0    0 -0.28920516344E+02  0.18817050645E+02 -0.19345221892E+03  0.19650506015E+03  0.00000000000E+00 0. -1.
         13    1    3    3    0    0  0.28920516344E+02 -0.18817050645E+02 -0.27585775987E+02  0.44175249828E+02  0.00000000000E+00 0.  1.
<mgrwt>
<rscale>  0 0.95232434E+02</rscale>
<asrwt>0</asrwt>
<pdfrwt beam="1">  1        2 0.15109473E-02 0.95232434E+02</pdfrwt>
<pdfrwt beam="2">  1       -2 0.35516794E-01 0.95232434E+02</pdfrwt>
<totfact> 0.52225733E+04</totfact>
</mgrwt>
</event>
<event>
 5    1  0.6043464E+000  0.8824374E+02  0.7546771E-02  0.1307161E+00
         -2   -1    0    0    0  501 -0.00000000000E+00  0.00000000000E+00  0.19478765569E+02  0.19478765569E+02  0.00000000000E+00 0. -1.
          2   -1    0    0  501    0  0.00000000000E+00 -0.00000000000E+00 -0.99941614841E+02  0.99941614841E+02  0.00000000000E+00 0.  1.
         23    2    1    2    0    0  0.00000000000E+00  0.00000000000E+00 -0.80462849273E+02  0.11942038041E+03  0.88243737138E+02 0.  0.
        -13    1    3    3    0    0 -0.20721305832E+02  0.18238059568E+00  0.12483681144E+02  0.24191900979E+02  0.00000000000E+00 0. -1.
         13    1    3    3    0    0  0.20721305832E+02 -0.18238059568E+00 -0.92946530417E+02  0.95228479430E+02  0.00000000000E+00 0.  1.
<mgrwt>
<rscale>  0 0.88243737E+02</rscale>
<asrwt>0</asrwt>
<pdfrwt beam="2">  1        2 0.15375632E-01 0.88243737E+02</pdfrwt>
<pdfrwt beam="1">  1       -2 0.29967333E-02 0.88243737E+02</pdfrwt>
<totfact> 0.13416948E+05</totfact>
</mgrwt>
</event>
<event>
 5    1  0.6043464E+000  0.9171942E+02  0.7546771E-02  0.1298740E+00
         -2   -1    0    0    0  501 -0.00000000000E+00  0.00000000000E+00  0.84634206771E+01  0.84634206771E+01  0.00000000000E+00 0.  1.
          2   -1    0    0  501    0  0.00000000000E+00 -0.00000000000E+00 -0.24849444763E+03  0.24849444763E+03  0.00000000000E+00 0. -1.
         23    2    1    2    0    0  0.00000000000E+00  0.00000000000E+00 -0.24003102695E+03  0.25695786830E+03  0.91719420979E+02 0.  0.
        -13    1    3    3    0    0 -0.33368770961E+02  0.28097386878E+02 -0.15965294988E+03  0.16550529426E+03  0.00000000000E+00 0. -1.
         13    1    3    3    0    0  0.33368770961E+02 -0.28097386878E+02 -0.80378077075E+02  0.91452574043E+02  0.00000000000E+00 0.  1.
<mgrwt>
<rscale>  0 0.91719421E+02</rscale>
<asrwt>0</asrwt>
<pdfrwt beam="2">  1        2 0.38229921E-01 0.91719421E+02</pdfrwt>
<pdfrwt beam="1">  1       -2 0.13020645E-02 0.91719421E+02</pdfrwt>
<totfact> 0.16484233E+05</totfact>
</mgrwt>
</event>
<event>
 5    1  0.6043464E+000  0.9123197E+02  0.7546771E-02  0.1299895E+00
          1   -1    0    0  501    0  0.00000000000E+00  0.00000000000E+00  0.14808817871E+02  0.14808817871E+02  0.00000000000E+00 0. -1.
         -1   -1    0    0    0  501 -0.00000000000E+00 -0.00000000000E+00 -0.14051209255E+03  0.14051209255E+03  0.00000000000E+00 0.  1.
         23    2    1    2    0    0  0.00000000000E+00  0.00000000000E+00 -0.12570327468E+03  0.15532091042E+03  0.91231967801E+02 0.  0.
        -13    1    3    3    0    0  0.19726394573E+02 -0.34464005406E+02 -0.10106924900E+03  0.10859047566E+03  0.00000000000E+00 0.  1.
         13    1    3    3    0    0 -0.19726394573E+02  0.34464005406E+02 -0.24634025680E+02  0.46730434757E+02  0.00000000000E+00 0. -1.
<mgrwt>
<rscale>  0 0.91231968E+02</rscale>
<asrwt>0</asrwt>
<pdfrwt beam="1">  1        1 0.22782797E-02 0.91231968E+02</pdfrwt>
<pdfrwt beam="2">  1       -1 0.21617244E-01 0.91231968E+02</pdfrwt>
<totfact> 0.75798841E+04</totfact>
</mgrwt>
</event>
<event>
 5    1  0.6043464E+000  0.9167560E+02  0.7546771E-02  0.1298844E+00
          2   -1    0    0  501    0  0.00000000000E+00  0.00000000000E+00  0.18136457632E+03  0.18136457632E+03  0.00000000000E+00 0. -1.
         -2   -1    0    0    0  501 -0.00000000000E+00 -0.00000000000E+00 -0.11584973795E+02  0.11584973795E+02  0.00000000000E+00 0.  1.
         23    2    1    2    0    0  0.00000000000E+00  0.00000000000E+00  0.16977960253E+03  0.19294955011E+03  0.91675599021E+02 0.  0.
        -13    1    3    3    0    0 -0.29420714426E+02  0.79651992151E+01  0.12834019884E+02  0.33071663131E+02  0.00000000000E+00 0.  1.
         13    1    3    3    0    0  0.29420714426E+02 -0.79651992151E+01  0.15694558264E+03  0.15987788698E+03  0.00000000000E+00 0. -1.
<mgrwt>
<rscale>  0 0.91675599E+02</rscale>
<asrwt>0</asrwt>
<pdfrwt beam="1">  1        2 0.27902240E-01 0.91675599E+02</pdfrwt>
<pdfrwt beam="2">  1       -2 0.17823038E-02 0.91675599E+02</pdfrwt>
<totfact> 0.14716128E+05</totfact>
</mgrwt>
</event>
<event>
 5    1  0.6043464E+000  0.9866049E+02  0.7546771E-02  0.1283138E+00
          1   -1    0    0  501    0  0.00000000000E+00  0.00000000000E+00  0.23615442490E+02  0.23615442490E+02  0.00000000000E+00 0. -1.
         -1   -1    0    0    0  501 -0.00000000000E+00 -0.00000000000E+00 -0.10304584108E+03  0.10304584108E+03  0.00000000000E+00 0.  1.
         23    2    1    2    0    0  0.00000000000E+00  0.00000000000E+00 -0.79430398587E+02  0.12666128357E+03  0.98660491256E+02 0.  0.
        -13    1    3    3    0    0 -0.43948163740E+02 -0.22368365828E+02 -0.41383286345E+02  0.64376713761E+02  0.00000000000E+00 0.  1.
         13    1    3    3    0    0  0.43948163740E+02  0.22368365828E+02 -0.38047112241E+02  0.62284569805E+02  0.00000000000E+00 0. -1.
<mgrwt>
<rscale>  0 0.98660491E+02</rscale>
<asrwt>0</asrwt>
<pdfrwt beam="1">  1        1 0.36331450E-02 0.98660491E+02</pdfrwt>
<pdfrwt beam="2">  1       -1 0.15853206E-01 0.98660491E+02</pdfrwt>
<totfact> 0.66004144E+04</totfact>
</mgrwt>
</event>
<event>
 5    1  0.6043464E+000  0.9293080E+02  0.7546771E-02  0.1295906E+00
          1   -1    0    0  501    0  0.00000000000E+00  0.00000000000E+00  0.44513379141E+02  0.44513379141E+02  0.00000000000E+00 0. -1.
         -1   -1    0    0    0  501 -0.00000000000E+00 -0.00000000000E+00 -0.48503020997E+02  0.48503020997E+02  0.00000000000E+00 0.  1.
         23    2    1    2    0    0  0.00000000000E+00  0.00000000000E+00 -0.39896418563E+01  0.93016400138E+02  0.92930799267E+02 0.  0.
        -13    1    3    3    0    0 -0.30876912865E+02 -0.32463124922E+02  0.10337044653E+02  0.45979264021E+02  0.00000000000E+00 0. -1.
         13    1    3    3    0    0  0.30876912865E+02  0.32463124922E+02 -0.14326686510E+02  0.47037136117E+02  0.00000000000E+00 0.  1.
<mgrwt>
<rscale>  0 0.92930799E+02</rscale>
<asrwt>0</asrwt>
<pdfrwt beam="1">  1        1 0.68482121E-02 0.92930799E+02</pdfrwt>
<pdfrwt beam="2">  1       -1 0.74620033E-02 0.92930799E+02</pdfrwt>
<totfact> 0.87325239E+04</totfact>
</mgrwt>
</event>
<event>
 5    1  0.6043464E+000  0.9083678E+02  0.7546771E-02  0.1300838E+00
          1   -1    0    0  501    0  0.00000000000E+00  0.00000000000E+00  0.12746929479E+03  0.12746929479E+03  0.00000000000E+00 0. -1.
         -1   -1    0    0    0  501 -0.00000000000E+00 -0.00000000000E+00 -0.16182958572E+02  0.16182958572E+02  0.00000000000E+00 0.  1.
         23    2    1    2    0    0  0.00000000000E+00  0.00000000000E+00  0.11128633622E+03  0.14365225336E+03  0.90836783668E+02 0.  0.
        -13    1    3    3    0    0 -0.91599551820E+00  0.24031697010E+02 -0.52875410297E+01  0.24623557807E+02  0.00000000000E+00 0.  1.
         13    1    3    3    0    0  0.91599551820E+00 -0.24031697010E+02  0.11657387725E+03  0.11902869555E+03  0.00000000000E+00 0. -1.
<mgrwt>
<rscale>  0 0.90836784E+02</rscale>
<asrwt>0</asrwt>
<pdfrwt beam="1">  1        1 0.19610660E-01 0.90836784E+02</pdfrwt>
<pdfrwt beam="2">  1       -1 0.24896860E-02 0.90836784E+02</pdfrwt>
<totfact> 0.10999368E+05</totfact>
</mgrwt>
</event>
<event>
 5    1  0.6043464E+000  0.9916088E+02  0.7546771E-02  0.1282070E+00
         -1   -1    0    0    0  501 -0.00000000000E+00  0.00000000000E+00  0.51085890738E+01  0.51085890738E+01  0.00000000000E+00 0.  1.
          1   -1    0    0  501    0  0.00000000000E+00 -0.00000000000E+00 -0.48119355190E+03  0.48119355190E+03  0.00000000000E+00 0. -1.
         23    2    1    2    0    0  0.00000000000E+00  0.00000000000E+00 -0.47608496283E+03  0.48630214098E+03  0.99160881836E+02 0.  0.
        -13    1    3    3    0    0  0.25326066732E+02  0.42038480437E+02 -0.20351186796E+03  0.20934594310E+03  0.00000000000E+00 0.  1.
         13    1    3    3    0    0 -0.25326066732E+02 -0.42038480437E+02 -0.27257309487E+03  0.27695619787E+03  0.00000000000E+00 0. -1.
<mgrwt>
<rscale>  0 0.99160882E+02</rscale>
<asrwt>0</asrwt>
<pdfrwt beam="2">  1        1 0.74029762E-01 0.99160882E+02</pdfrwt>
<pdfrwt beam="1">  1       -1 0.78593694E-03 0.99160882E+02</pdfrwt>
<totfact> 0.11084835E+05</totfact>
</mgrwt>
</event>
<event>
 5    1  0.6043464E+000  0.9263813E+02  0.7546771E-02  0.1296586E+00
          1   -1    0    0  501    0  0.00000000000E+00  0.00000000000E+00  0.31306643319E+02  0.31306643319E+02  0.00000000000E+00 0. -1.
         -1   -1    0    0    0  501 -0.00000000000E+00 -0.00000000000E+00 -0.68530369573E+02  0.68530369573E+02  0.00000000000E+00 0.  1.
         23    2    1    2    0    0  0.00000000000E+00  0.00000000000E+00 -0.37223726254E+02  0.99837012892E+02  0.92638131171E+02 0.  0.
        -13    1    3    3    0    0 -0.38443882517E+02  0.32203580913E+01  0.90152209746E+01  0.39617887607E+02  0.00000000000E+00 0. -1.
         13    1    3    3    0    0  0.38443882517E+02 -0.32203580913E+01 -0.46238947229E+02  0.60219125285E+02  0.00000000000E+00 0.  1.
<mgrwt>
<rscale>  0 0.92638131E+02</rscale>
<asrwt>0</asrwt>
<pdfrwt beam="1">  1        1 0.48164068E-02 0.92638131E+02</pdfrwt>
<pdfrwt beam="2">  1       -1 0.10543134E-01 0.92638131E+02</pdfrwt>
<totfact> 0.83385040E+04</totfact>
</mgrwt>
</event>
<event>
 5    1  0.6043464E+000  0.8780971E+02  0.7546771E-02  0.1308244E+00
         -2   -1    0    0    0  501 -0.00000000000E+00  0.00000000000E+00  0.78175561591E+01  0.78175561591E+01  0.00000000000E+00 0.  1.
          2   -1    0    0  501    0  0.00000000000E+00 -0.00000000000E+00 -0.24657783951E+03  0.24657783951E+03  0.00000000000E+00 0. -1.
         23    2    1    2    0    0  0.00000000000E+00  0.00000000000E+00 -0.23876028335E+03  0.25439539567E+03  0.87809705795E+02 0.  0.
        -13    1    3    3    0    0 -0.43855944876E+02 -0.11558846677E+01 -0.12436128517E+03  0.13187270081E+03  0.00000000000E+00 0.  1.
         13    1    3    3    0    0  0.43855944876E+02  0.11558846677E+01 -0.11439899819E+03  0.12252269486E+03  0.00000000000E+00 0. -1.
<mgrwt>
<rscale>  0 0.87809706E+02</rscale>
<asrwt>0</asrwt>
<pdfrwt beam="2">  1        2 0.37935049E-01 0.87809706E+02</pdfrwt>
<pdfrwt beam="1">  1       -2 0.12027010E-02 0.87809706E+02</pdfrwt>
<totfact> 0.18466789E+05</totfact>
</mgrwt>
</event>
<event>
 5    1  0.6043464E+000  0.9181952E+02  0.7546771E-02  0.1298504E+00
          2   -1    0    0  501    0  0.00000000000E+00  0.00000000000E+00  0.21810111033E+02  0.21810111033E+02  0.00000000000E+00 0. -1.
         -2   -1    0    0    0  501 -0.00000000000E+00 -0.00000000000E+00 -0.96638950274E+02  0.96638950274E+02  0.00000000000E+00 0.  1.
         23    2    1    2    0    0  0.00000000000E+00  0.00000000000E+00 -0.74828839241E+02  0.11844906131E+03  0.91819523755E+02 0.  0.
        -13    1    3    3    0    0 -0.17599113737E+02  0.29054201535E+02  0.24267665110E+01  0.34055317160E+02  0.00000000000E+00 0. -1.
         13    1    3    3    0    0  0.17599113737E+02 -0.29054201535E+02 -0.77255605752E+02  0.84393744148E+02  0.00000000000E+00 0.  1.
<mgrwt>
<rscale>  0 0.91819524E+02</rscale>
<asrwt>0</asrwt>
<pdfrwt beam="1">  1        2 0.33554016E-02 0.91819524E+02</pdfrwt>
<pdfrwt beam="2">  1       -2 0.14867531E-01 0.91819524E+02</pdfrwt>
<totfact> 0.79223405E+04</totfact>
</mgrwt>
</event>
<event>
 5    1  0.6043464E+000  0.7619927E+02  0.7546771E-02  0.1340197E+00
          2   -1    0    0  501    0  0.00000000000E+00  0.00000000000E+00  0.98504411559E+01  0.98504411559E+01  0.00000000000E+00 0. -1.
         -2   -1    0    0    0  501 -0.00000000000E+00 -0.00000000000E+00 -0.14736214878E+03  0.14736214878E+03  0.00000000000E+00 0.  1.
         23    2    1    2    0    0  0.00000000000E+00  0.00000000000E+00 -0.13751170763E+03  0.15721258994E+03  0.76199269687E+02 0.  0.
        -13    1    3    3    0    0  0.12699591628E+02  0.30896493554E+02 -0.10655814793E+03  0.11167144591E+03  0.00000000000E+00 0.  1.
         13    1    3    3    0    0 -0.12699591628E+02 -0.30896493554E+02 -0.30953559694E+02  0.45541144026E+02  0.00000000000E+00 0. -1.
<mgrwt>
<rscale>  0 0.76199270E+02</rscale>
<asrwt>0</asrwt>
<pdfrwt beam="1">  1        2 0.15154525E-02 0.76199270E+02</pdfrwt>
<pdfrwt beam="2">  1       -2 0.22671099E-01 0.76199270E+02</pdfrwt>
<totfact> 0.11060273E+05</totfact>
</mgrwt>
</event>
<event>
 5    1  0.6043464E+000  0.9115585E+02  0.7546771E-02  0.1300077E+00
          2   -1    0    0  501    0  0.00000000000E+00  0.00000000000E+00  0.11526999537E+03  0.11526999537E+03  0.00000000000E+00 0. -1.
         -2   -1    0    0    0  501 -0.00000000000E+00 -0.00000000000E+00 -0.18021579392E+02  0.18021579392E+02  0.00000000000E+00 0.  1.
         23    2    1    2    0    0  0.00000000000E+00  0.00000000000E+00  0.97248415979E+02  0.13329157476E+03  0.91155852760E+02 0.  0.
        -13    1    3    3    0    0  0.45094322090E+02  0.64799340439E+01  0.50618404586E+02  0.68100736507E+02  0.00000000000E+00 0. -1.
         13    1    3    3    0    0 -0.45094322090E+02 -0.64799340439E+01  0.46630011393E+02  0.65190838256E+02  0.00000000000E+00 0.  1.
<mgrwt>
<rscale>  0 0.91155853E+02</rscale>
<asrwt>0</asrwt>
<pdfrwt beam="1">  1        2 0.17733845E-01 0.91155853E+02</pdfrwt>
<pdfrwt beam="2">  1       -2 0.27725507E-02 0.91155853E+02</pdfrwt>
<totfact> 0.12829263E+05</totfact>
</mgrwt>
</event>
<event>
 5    1  0.6043464E+000  0.8810128E+02  0.7546771E-02  0.1307516E+00
         -2   -1    0    0    0  501 -0.00000000000E+00  0.00000000000E+00  0.31802810243E+02  0.31802810243E+02  0.00000000000E+00 0.  1.
          2   -1    0    0  501    0  0.00000000000E+00 -0.00000000000E+00 -0.61015330154E+02  0.61015330154E+02  0.00000000000E+00 0. -1.
         23    2    1    2    0    0  0.00000000000E+00  0.00000000000E+00 -0.29212519911E+02  0.92818140397E+02  0.88101281871E+02 0.  0.
        -13    1    3    3    0    0 -0.32178120132E+01  0.31216745109E+02  0.17961893236E+02  0.36158942158E+02  0.00000000000E+00 0.  1.
         13    1    3    3    0    0  0.32178120132E+01 -0.31216745109E+02 -0.47174413146E+02  0.56659198239E+02  0.00000000000E+00 0. -1.
<mgrwt>
<rscale>  0 0.88101282E+02</rscale>
<asrwt>0</asrwt>
<pdfrwt beam="2">  1        2 0.93869738E-02 0.88101282E+02</pdfrwt>
<pdfrwt beam="1">  1       -2 0.48927400E-02 0.88101282E+02</pdfrwt>
<totfact> 0.11732241E+05</totfact>
</mgrwt>
</event>
<event>
 5    1  0.6043464E+000  0.8967107E+02  0.7546771E-02  0.1303650E+00
         -1   -1    0    0    0  501 -0.00000000000E+00  0.00000000000E+00  0.41081434176E+02  0.41081434176E+02  0.00000000000E+00 0.  1.
          1   -1    0    0  501    0  0.00000000000E+00 -0.00000000000E+00 -0.48932689153E+02  0.48932689153E+02  0.00000000000E+00 0. -1.
         23    2    1    2    0    0  0.00000000000E+00  0.00000000000E+00 -0.78512549765E+01  0.90014123329E+02  0.89671066649E+02 0.  0.
        -13    1    3    3    0    0  0.41515753528E+02 -0.12161353653E+02  0.78994537956E+01  0.43975648761E+02  0.00000000000E+00 0.  1.
         13    1    3    3    0    0 -0.41515753528E+02  0.12161353653E+02 -0.15750708772E+02  0.46038474568E+02  0.00000000000E+00 0. -1.
<mgrwt>
<rscale>  0 0.89671067E+02</rscale>
<asrwt>0</asrwt>
<pdfrwt beam="2">  1        1 0.75281061E-02 0.89671067E+02</pdfrwt>
<pdfrwt beam="1">  1       -1 0.63202206E-02 0.89671067E+02</pdfrwt>
<totfact> 0.97908590E+04</totfact>
</mgrwt>
</event>
<event>
 5    1  0.6043464E+000  0.8928090E+02  0.7546771E-02  0.1304602E+00
         -2   -1    0    0    0  501 -0.00000000000E+00  0.00000000000E+00  0.55120399056E+02  0.55120399056E+02  0.00000000000E+00 0.  1.
          2   -1    0    0  501    0  0.00000000000E+00 -0.00000000000E+00 -0.36153038224E+02  0.36153038224E+02  0.00000000000E+00 0. -1.
         23    2    1    2    0    0  0.00000000000E+00  0.00000000000E+00  0.18967360833E+02  0.91273437280E+02  0.89280902639E+02 0.  0.
        -13    1    3    3    0    0 -0.31813116613E-01 -0.44472977612E+02  0.55344179122E+01  0.44816029849E+02  0.00000000000E+00 0. -1.
         13    1    3    3    0    0  0.31813116613E-01  0.44472977612E+02  0.13432942920E+02  0.46457407432E+02  0.00000000000E+00 0.  1.
<mgrwt>
<rscale>  0 0.89280903E+02</rscale>
<asrwt>0</asrwt>
<pdfrwt beam="2">  1        2 0.55620059E-02 0.89280903E+02</pdfrwt>
<pdfrwt beam="1">  1       -2 0.84800614E-02 0.89280903E+02</pdfrwt>
<totfact> 0.98779428E+04</totfact>
</mgrwt>
</event>
<event>
 5    1  0.6043464E+000  0.9207238E+02  0.7546771E-02  0.1297909E+00
          1   -1    0    0  501    0  0.00000000000E+00  0.00000000000E+00  0.86598048185E+01  0.86598048185E+01  0.00000000000E+00 0. -1.
         -1   -1    0    0    0  501 -0.00000000000E+00 -0.00000000000E+00 -0.24473192600E+03  0.24473192600E+03  0.00000000000E+00 0.  1.
         23    2    1    2    0    0  0.00000000000E+00  0.00000000000E+00 -0.23607212118E+03  0.25339173082E+03  0.92072378311E+02 0.  0.
        -13    1    3    3    0    0  0.35079283954E+02  0.25540702633E+02 -0.16035453804E+03  0.16612182735E+03  0.00000000000E+00 0.  1.
         13    1    3    3    0    0 -0.35079283954E+02 -0.25540702633E+02 -0.75717583141E+02  0.87269903463E+02  0.00000000000E+00 0. -1.
<mgrwt>
<rscale>  0 0.92072378E+02</rscale>
<asrwt>0</asrwt>
<pdfrwt beam="1">  1        1 0.13322778E-02 0.92072378E+02</pdfrwt>
<pdfrwt beam="2">  1       -1 0.37651062E-01 0.92072378E+02</pdfrwt>
<totfact> 0.63584990E+04</totfact>
</mgrwt>
</event>
<event>
 5    1  0.6043464E+000  0.9148796E+02  0.7546771E-02  0.1299288E+00
         -3   -1    0    0    0  501 -0.00000000000E+00  0.00000000000E+00  0.72140311528E+01  0.72140311528E+01  0.00000000000E+00 0.  1.
          3   -1    0    0  501    0  0.00000000000E+00 -0.00000000000E+00 -0.29006135482E+03  0.29006135482E+03  0.00000000000E+00 0. -1.
         23    2    1    2    0    0  0.00000000000E+00  0.00000000000E+00 -0.28284732366E+03  0.29727538597E+03  0.91487958767E+02 0.  0.
        -13    1    3    3    0    0  0.31148432077E+02 -0.32176586538E+02 -0.17172348300E+03  0.17746693257E+03  0.00000000000E+00 0. -1.
         13    1    3    3    0    0 -0.31148432077E+02  0.32176586538E+02 -0.11112384066E+03  0.11980845340E+03  0.00000000000E+00 0.  1.
<mgrwt>
<rscale>  0 0.91487959E+02</rscale>
<asrwt>0</asrwt>
<pdfrwt beam="2">  1        3 0.44624832E-01 0.91487959E+02</pdfrwt>
<pdfrwt beam="1">  1       -3 0.11098507E-02 0.91487959E+02</pdfrwt>
<totfact> 0.23916969E+04</totfact>
</mgrwt>
</event>
<event>
 4    1  0.6043464E+000  0.4856782E+02  0.7546771E-02  0.1453223E+00
          1   -1    0    0  501    0  0.00000000000E+00  0.00000000000E+00  0.12738367817E+03  0.12738367817E+03  0.00000000000E+00 0. -1.
         -1   -1    0    0    0  501 -0.00000000000E+00 -0.00000000000E+00 -0.46293856694E+01  0.46293856694E+01  0.00000000000E+00 0.  1.
        -13    1    1    2    0    0 -0.13347333325E+02 -0.14518155811E+02  0.99892029588E+02  0.10182016367E+03  0.00000000000E+00 0. -1.
         13    1    1    2    0    0  0.13347333325E+02  0.14518155811E+02  0.22862262914E+02  0.30192900168E+02  0.00000000000E+00 0.  1.
<mgrwt>
<rscale>  0 0.48567815E+02</rscale>
<asrwt>0</asrwt>
<pdfrwt beam="1">  1        1 0.19597486E-01 0.48567815E+02</pdfrwt>
<pdfrwt beam="2">  1       -1 0.71221328E-03 0.48567815E+02</pdfrwt>
<totfact> 0.56205073E+05</totfact>
</mgrwt>
</event>
<event>
 5    1  0.6043464E+000  0.8934708E+02  0.7546771E-02  0.1304441E+00
          1   -1    0    0  501    0  0.00000000000E+00  0.00000000000E+00  0.32717073302E+02  0.32717073302E+02  0.00000000000E+00 0. -1.
         -1   -1    0    0    0  501 -0.00000000000E+00 -0.00000000000E+00 -0.60999500470E+02  0.60999500470E+02  0.00000000000E+00 0.  1.
         23    2    1    2    0    0  0.00000000000E+00  0.00000000000E+00 -0.28282427168E+02  0.93716573772E+02  0.89347078928E+02 0.  0.
        -13    1    3    3    0    0 -0.23193305125E+02 -0.37059090001E+02 -0.45038637926E+01  0.43949861699E+02  0.00000000000E+00 0. -1.
         13    1    3    3    0    0  0.23193305125E+02  0.37059090001E+02 -0.23778563375E+02  0.49766712073E+02  0.00000000000E+00 0.  1.
<mgrwt>
<rscale>  0 0.89347079E+02</rscale>
<asrwt>0</asrwt>
<pdfrwt beam="1">  1        1 0.50333959E-02 0.89347079E+02</pdfrwt>
<pdfrwt beam="2">  1       -1 0.93845385E-02 0.89347079E+02</pdfrwt>
<totfact> 0.93115687E+04</totfact>
</mgrwt>
</event>
<event>
 5    1  0.6043464E+000  0.9246047E+02  0.7546771E-02  0.1297000E+00
          2   -1    0    0  501    0  0.00000000000E+00  0.00000000000E+00  0.12501876907E+03  0.12501876907E+03  0.00000000000E+00 0. -1.
         -2   -1    0    0    0  501 -0.00000000000E+00 -0.00000000000E+00 -0.17095310146E+02  0.17095310146E+02  0.00000000000E+00 0.  1.
         23    2    1    2    0    0  0.00000000000E+00  0.00000000000E+00  0.10792345892E+03  0.14211407922E+03  0.92460470069E+02 0.  0.
        -13    1    3    3    0    0  0.25385076101E+02 -0.46404836102E+01 -0.49947304230E+01  0.26284662995E+02  0.00000000000E+00 0.  1.
         13    1    3    3    0    0 -0.25385076101E+02  0.46404836102E+01  0.11291818935E+03  0.11582941622E+03  0.00000000000E+00 0. -1.
<mgrwt>
<rscale>  0 0.92460470E+02</rscale>
<asrwt>0</asrwt>
<pdfrwt beam="1">  1        2 0.19233656E-01 0.92460470E+02</pdfrwt>
<pdfrwt beam="2">  1       -2 0.26300478E-02 0.92460470E+02</pdfrwt>
<totfact> 0.12665506E+05</totfact>
</mgrwt>
</event>
<event>
 5    1  0.6043464E+000  0.9194132E+02  0.7546771E-02  0.1298217E+00
          1   -1    0    0  501    0  0.00000000000E+00  0.00000000000E+00  0.24462471028E+02  0.24462471028E+02  0.00000000000E+00 0. -1.
         -1   -1    0    0    0  501 -0.00000000000E+00 -0.00000000000E+00 -0.86389531183E+02  0.86389531183E+02  0.00000000000E+00 0.  1.
         23    2    1    2    0    0  0.00000000000E+00  0.00000000000E+00 -0.61927060155E+02  0.11085200221E+03  0.91941316145E+02 0.  0.
        -13    1    3    3    0    0 -0.39381089968E+02 -0.88004830841E+00 -0.59537348877E+02  0.71388659067E+02  0.00000000000E+00 0.  1.
         13    1    3    3    0    0  0.39381089968E+02  0.88004830841E+00 -0.23897112782E+01  0.39463343143E+02  0.00000000000E+00 0. -1.
<mgrwt>
<rscale>  0 0.91941316E+02</rscale>
<asrwt>0</asrwt>
<pdfrwt beam="1">  1        1 0.37634570E-02 0.91941316E+02</pdfrwt>
<pdfrwt beam="2">  1       -1 0.13290697E-01 0.91941316E+02</pdfrwt>
<totfact> 0.81768977E+04</totfact>
</mgrwt>
</event>
<event>
 5    1  0.6043464E+000  0.9030124E+02  0.7546771E-02  0.1302124E+00
         -1   -1    0    0    0  501 -0.00000000000E+00  0.00000000000E+00  0.63278782685E+01  0.63278782685E+01  0.00000000000E+00 0.  1.
          1   -1    0    0  501    0  0.00000000000E+00 -0.00000000000E+00 -0.32215827992E+03  0.32215827992E+03  0.00000000000E+00 0. -1.
         23    2    1    2    0    0  0.00000000000E+00  0.00000000000E+00 -0.31583040165E+03  0.32848615819E+03  0.90301237611E+02 0.  0.
        -13    1    3    3    0    0 -0.37008464841E+02  0.15325975073E+02 -0.82127024919E+02  0.91374833537E+02  0.00000000000E+00 0.  1.
         13    1    3    3    0    0  0.37008464841E+02 -0.15325975073E+02 -0.23370337673E+03  0.23711132465E+03  0.00000000000E+00 0. -1.
<mgrwt>
<rscale>  0 0.90301238E+02</rscale>
<asrwt>0</asrwt>
<pdfrwt beam="2">  1        1 0.49562836E-01 0.90301238E+02</pdfrwt>
<pdfrwt beam="1">  1       -1 0.97351927E-03 0.90301238E+02</pdfrwt>
<totfact> 0.13322967E+05</totfact>
</mgrwt>
</event>
<event>
 5    1  0.6043464E+000  0.9378724E+02  0.7546771E-02  0.1293931E+00
         -4   -1    0    0    0  501 -0.00000000000E+00  0.00000000000E+00  0.10683429886E+02  0.10683429886E+02  0.00000000000E+00 0.  1.
          4   -1    0    0  501    0  0.00000000000E+00 -0.00000000000E+00 -0.20583384083E+03  0.20583384083E+03  0.00000000000E+00 0. -1.
         23    2    1    2    0    0  0.00000000000E+00  0.00000000000E+00 -0.19515041094E+03  0.21651727071E+03  0.93787235948E+02 0.  0.
        -13    1    3    3    0    0 -0.34058694663E+02  0.91273837955E+01 -0.26205923947E+02  0.43932382897E+02  0.00000000000E+00 0.  1.
         13    1    3    3    0    0  0.34058694663E+02 -0.91273837955E+01 -0.16894448699E+03  0.17258488782E+03  0.00000000000E+00 0. -1.
<mgrwt>
<rscale>  0 0.93787236E+02</rscale>
<asrwt>0</asrwt>
<pdfrwt beam="2">  1        4 0.31666745E-01 0.93787236E+02</pdfrwt>
<pdfrwt beam="1">  1       -4 0.16436046E-02 0.93787236E+02</pdfrwt>
<totfact> 0.19204590E+04</totfact>
</mgrwt>
</event>
<event>
 5    1  0.6043464E+000  0.9183102E+02  0.7546771E-02  0.1298477E+00
          1   -1    0    0  501    0  0.00000000000E+00  0.00000000000E+00  0.31392848046E+03  0.31392848046E+03  0.00000000000E+00 0. -1.
         -1   -1    0    0    0  501 -0.00000000000E+00 -0.00000000000E+00 -0.67156510422E+01  0.67156510422E+01  0.00000000000E+00 0.  1.
         23    2    1    2    0    0  0.00000000000E+00  0.00000000000E+00  0.30721282941E+03  0.32064413150E+03  0.91831021489E+02 0.  0.
        -13    1    3    3    0    0 -0.17439871478E+02  0.36376971649E+02  0.77043838890E+02  0.86966581480E+02  0.00000000000E+00 0. -1.
         13    1    3    3    0    0  0.17439871478E+02 -0.36376971649E+02  0.23016899052E+03  0.23367755002E+03  0.00000000000E+00 0.  1.
<mgrwt>
<rscale>  0 0.91831021E+02</rscale>
<asrwt>0</asrwt>
<pdfrwt beam="1">  1        1 0.48296678E-01 0.91831021E+02</pdfrwt>
<pdfrwt beam="2">  1       -1 0.10331773E-02 0.91831021E+02</pdfrwt>
<totfact> 0.12678787E+05</totfact>
</mgrwt>
</event>
<event>
 5    1  0.6043464E+000  0.8971454E+02  0.7546771E-02  0.1303544E+00
          1   -1    0    0  501    0  0.00000000000E+00  0.00000000000E+00  0.98653495483E+01  0.98653495483E+01  0.00000000000E+00 0. -1.
         -1   -1    0    0    0  501 -0.00000000000E+00 -0.00000000000E+00 -0.20396382825E+03  0.20396382825E+03  0.00000000000E+00 0.  1.
         23    2    1    2    0    0  0.00000000000E+00  0.00000000000E+00 -0.19409847871E+03  0.21382917780E+03  0.89714535298E+02 0.  0.
        -13    1    3    3    0    0 -0.32107906574E+02  0.29506641668E+02 -0.12211673554E+03  0.12966902740E+03  0.00000000000E+00 0.  1.
         13    1    3    3    0    0  0.32107906574E+02 -0.29506641668E+02 -0.71981743164E+02  0.84160150404E+02  0.00000000000E+00 0. -1.
<mgrwt>
<rscale>  0 0.89714535E+02</rscale>
<asrwt>0</asrwt>
<pdfrwt beam="1">  1        1 0.15177461E-02 0.89714535E+02</pdfrwt>
<pdfrwt beam="2">  1       -1 0.31379050E-01 0.89714535E+02</pdfrwt>
<totfact> 0.72000492E+04</totfact>
</mgrwt>
</event>
<event>
 5    1  0.6043464E+000  0.9152852E+02  0.7546771E-02  0.1299192E+00
          1   -1    0    0  501    0  0.00000000000E+00  0.00000000000E+00  0.13308815449E+03  0.13308815449E+03  0.00000000000E+00 0. -1.
         -1   -1    0    0    0  501 -0.00000000000E+00 -0.00000000000E+00 -0.15736692479E+02  0.15736692479E+02  0.00000000000E+00 0.  1.
         23    2    1    2    0    0  0.00000000000E+00  0.00000000000E+00  0.11735146201E+03  0.14882484697E+03  0.91528517081E+02 0.  0.
        -13    1    3    3    0    0  0.34895804065E+02  0.10733368901E+02  0.13807567777E+02  0.39032951173E+02  0.00000000000E+00 0.  1.
         13    1    3    3    0    0 -0.34895804065E+02 -0.10733368901E+02  0.10354389423E+03  0.10979189579E+03  0.00000000000E+00 0. -1.
<mgrwt>
<rscale>  0 0.91528517E+02</rscale>
<asrwt>0</asrwt>
<pdfrwt beam="1">  1        1 0.20475100E-01 0.91528517E+02</pdfrwt>
<pdfrwt beam="2">  1       -1 0.24210297E-02 0.91528517E+02</pdfrwt>
<totfact> 0.10858762E+05</totfact>
</mgrwt>
</event>
<event>
 5    1  0.6043464E+000  0.9148967E+02  0.7546771E-02  0.1299284E+00
          2   -1    0    0  501    0  0.00000000000E+00  0.00000000000E+00  0.55459871618E+02  0.55459871618E+02  0.00000000000E+00 0. -1.
         -2   -1    0    0    0  501 -0.00000000000E+00 -0.00000000000E+00 -0.37731601720E+02  0.37731601720E+02  0.00000000000E+00 0.  1.
         23    2    1    2    0    0  0.00000000000E+00  0.00000000000E+00  0.17728269898E+02  0.93191473338E+02  0.91489666899E+02 0.  0.
        -13    1    3    3    0    0  0.17595600696E+02  0.31888252487E+02 -0.19329667910E+02  0.41232291618E+02  0.00000000000E+00 0.  1.
         13    1    3    3    0    0 -0.17595600696E+02 -0.31888252487E+02  0.37057937807E+02  0.51959181720E+02  0.00000000000E+00 0. -1.
<mgrwt>
<rscale>  0 0.91489667E+02</rscale>
<asrwt>0</asrwt>
<pdfrwt beam="1">  1        2 0.85322879E-02 0.91489667E+02</pdfrwt>
<pdfrwt beam="2">  1       -2 0.58048618E-02 0.91489667E+02</pdfrwt>
<totfact> 0.10286459E+05</totfact>
</mgrwt>
</event>
<event>
 5    1  0.6043464E+000  0.9380599E+02  0.7546771E-02  0.1293888E+00
         -1   -1    0    0    0  501 -0.00000000000E+00  0.00000000000E+00  0.20394019096E+02  0.20394019096E+02  0.00000000000E+00 0.  1.
          1   -1    0    0  501    0  0.00000000000E+00 -0.00000000000E+00 -0.10786941602E+03  0.10786941602E+03  0.00000000000E+00 0. -1.
         23    2    1    2    0    0  0.00000000000E+00  0.00000000000E+00 -0.87475396929E+02  0.12826343512E+03  0.93805989793E+02 0.  0.
        -13    1    3    3    0    0 -0.21510392079E+02 -0.11621950389E+02  0.10991664262E+02  0.26806405606E+02  0.00000000000E+00 0.  1.
         13    1    3    3    0    0  0.21510392079E+02  0.11621950389E+02 -0.98467061191E+02  0.10145702951E+03  0.00000000000E+00 0. -1.
<mgrwt>
<rscale>  0 0.93805990E+02</rscale>
<asrwt>0</asrwt>
<pdfrwt beam="2">  1        1 0.16595295E-01 0.93805990E+02</pdfrwt>
<pdfrwt beam="1">  1       -1 0.31375414E-02 0.93805990E+02</pdfrwt>
<totfact> 0.97895304E+04</totfact>
</mgrwt>
</event>
<event>
 5    1  0.6043464E+000  0.9013171E+02  0.7546771E-02  0.1302533E+00
         -1   -1    0    0    0  501 -0.00000000000E+00  0.00000000000E+00  0.15184920855E+03  0.15184920855E+03  0.00000000000E+00 0. -1.
          1   -1    0    0  501    0  0.00000000000E+00 -0.00000000000E+00 -0.13374657226E+02  0.13374657226E+02  0.00000000000E+00 0.  1.
         23    2    1    2    0    0  0.00000000000E+00  0.00000000000E+00  0.13847455132E+03  0.16522386577E+03  0.90131706173E+02 0.  0.
        -13    1    3    3    0    0  0.37727147217E+02  0.19544505261E+02  0.41703212207E+02  0.59535562746E+02  0.00000000000E+00 0.  1.
         13    1    3    3    0    0 -0.37727147217E+02 -0.19544505261E+02  0.96771339113E+02  0.10568830303E+03  0.00000000000E+00 0. -1.
<mgrwt>
<rscale>  0 0.90131706E+02</rscale>
<asrwt>0</asrwt>
<pdfrwt beam="2">  1        1 0.20576397E-02 0.90131706E+02</pdfrwt>
<pdfrwt beam="1">  1       -1 0.23361416E-01 0.90131706E+02</pdfrwt>
<totfact> 0.76836836E+04</totfact>
</mgrwt>
</event>
<event>
 5    1  0.6043464E+000  0.9198460E+02  0.7546771E-02  0.1298116E+00
          2   -1    0    0  501    0  0.00000000000E+00  0.00000000000E+00  0.34217297059E+03  0.34217297059E+03  0.00000000000E+00 0. -1.
         -2   -1    0    0    0  501 -0.00000000000E+00 -0.00000000000E+00 -0.61819367417E+01  0.61819367417E+01  0.00000000000E+00 0.  1.
         23    2    1    2    0    0  0.00000000000E+00  0.00000000000E+00  0.33599103385E+03  0.34835490734E+03  0.91984599992E+02 0.  0.
        -13    1    3    3    0    0  0.34647517969E+02  0.30162882147E+02  0.15949206566E+03  0.16597580839E+03  0.00000000000E+00 0. -1.
         13    1    3    3    0    0 -0.34647517969E+02 -0.30162882147E+02  0.17649896819E+03  0.18237909895E+03  0.00000000000E+00 0.  1.
<mgrwt>
<rscale>  0 0.91984600E+02</rscale>
<asrwt>0</asrwt>
<pdfrwt beam="1">  1        2 0.52641981E-01 0.91984600E+02</pdfrwt>
<pdfrwt beam="2">  1       -2 0.95106746E-03 0.91984600E+02</pdfrwt>
<totfact> 0.18424491E+05</totfact>
</mgrwt>
</event>
<event>
 5    1  0.6043464E+000  0.9002570E+02  0.7546771E-02  0.1302789E+00
          1   -1    0    0  501    0  0.00000000000E+00  0.00000000000E+00  0.55740564143E+02  0.55740564143E+02  0.00000000000E+00 0. -1.
         -1   -1    0    0    0  501 -0.00000000000E+00 -0.00000000000E+00 -0.36349770447E+02  0.36349770447E+02  0.00000000000E+00 0.  1.
         23    2    1    2    0    0  0.00000000000E+00  0.00000000000E+00  0.19390793696E+02  0.92090334589E+02  0.90025701023E+02 0.  0.
        -13    1    3    3    0    0  0.42489264768E+02  0.14676082392E+02  0.12079446391E+02  0.46547159312E+02  0.00000000000E+00 0.  1.
         13    1    3    3    0    0 -0.42489264768E+02 -0.14676082392E+02  0.73113473044E+01  0.45543175277E+02  0.00000000000E+00 0. -1.
<mgrwt>
<rscale>  0 0.90025701E+02</rscale>
<asrwt>0</asrwt>
<pdfrwt beam="1">  1        1 0.85754714E-02 0.90025701E+02</pdfrwt>
<pdfrwt beam="2">  1       -1 0.55922724E-02 0.90025701E+02</pdfrwt>
<totfact> 0.98729663E+04</totfact>
</mgrwt>
</event>
<event>
 5    1  0.6043464E+000  0.9123759E+02  0.7546771E-02  0.1299882E+00
         -1   -1    0    0    0  501 -0.00000000000E+00  0.00000000000E+00  0.15460601247E+02  0.15460601247E+02  0.00000000000E+00 0.  1.
          1   -1    0    0  501    0  0.00000000000E+00 -0.00000000000E+00 -0.13460500031E+03  0.13460500031E+03  0.00000000000E+00 0. -1.
         23    2    1    2    0    0  0.00000000000E+00  0.00000000000E+00 -0.11914439906E+03  0.15006560155E+03  0.91237585140E+02 0.  0.
        -13    1    3    3    0    0  0.15970359832E+02 -0.23957570540E+02 -0.13726849687E+01  0.28825368052E+02  0.00000000000E+00 0.  1.
         13    1    3    3    0    0 -0.15970359832E+02  0.23957570540E+02 -0.11777171409E+03  0.12124023350E+03  0.00000000000E+00 0. -1.
<mgrwt>
<rscale>  0 0.91237585E+02</rscale>
<asrwt>0</asrwt>
<pdfrwt beam="2">  1        1 0.20708461E-01 0.91237585E+02</pdfrwt>
<pdfrwt beam="1">  1       -1 0.23785541E-02 0.91237585E+02</pdfrwt>
<totfact> 0.10975059E+05</totfact>
</mgrwt>
</event>
<event>
 5    1  0.6043464E+000  0.9280758E+02  0.7546771E-02  0.1296192E+00
         -2   -1    0    0    0  501 -0.00000000000E+00  0.00000000000E+00  0.11573684046E+03  0.11573684046E+03  0.00000000000E+00 0.  1.
          2   -1    0    0  501    0  0.00000000000E+00 -0.00000000000E+00 -0.18605239999E+02  0.18605239999E+02  0.00000000000E+00 0. -1.
         23    2    1    2    0    0  0.00000000000E+00  0.00000000000E+00  0.97131600460E+02  0.13434208046E+03  0.92807579290E+02 0.  0.
        -13    1    3    3    0    0 -0.24716468852E+02  0.30102913987E+02  0.12054011251E+02  0.40772398142E+02  0.00000000000E+00 0. -1.
         13    1    3    3    0    0  0.24716468852E+02 -0.30102913987E+02  0.85077589209E+02  0.93569682316E+02  0.00000000000E+00 0.  1.
<mgrwt>
<rscale>  0 0.92807579E+02</rscale>
<asrwt>0</asrwt>
<pdfrwt beam="2">  1        2 0.28623447E-02 0.92807579E+02</pdfrwt>
<pdfrwt beam="1">  1       -2 0.17805667E-01 0.92807579E+02</pdfrwt>
<totfact> 0.72978830E+04</totfact>
</mgrwt>
</event>
<event>
 5    1  0.6043464E+000  0.9306227E+02  0.7546771E-02  0.1295601E+00
          4   -1    0    0  501    0  0.00000000000E+00  0.00000000000E+00  0.19285648202E+02  0.19285648202E+02  0.00000000000E+00 0. -1.
         -4   -1    0    0    0  501 -0.00000000000E+00 -0.00000000000E+00 -0.11226725133E+03  0.11226725133E+03  0.00000000000E+00 0.  1.
         23    2    1    2    0    0  0.00000000000E+00  0.00000000000E+00 -0.92981603126E+02  0.13155289953E+03  0.93062274069E+02 0.  0.
        -13    1    3    3    0    0 -0.42313018997E+02  0.18716278923E+02 -0.53481488203E+02  0.70717467812E+02  0.00000000000E+00 0. -1.
         13    1    3    3    0    0  0.42313018997E+02 -0.18716278923E+02 -0.39500114924E+02  0.60835431718E+02  0.00000000000E+00 0.  1.
<mgrwt>
<rscale>  0 0.93062274E+02</rscale>
<asrwt>0</asrwt>
<pdfrwt beam="1">  1        4 0.29670227E-02 0.93062274E+02</pdfrwt>
<pdfrwt beam="2">  1       -4 0.17271885E-01 0.93062274E+02</pdfrwt>
<totfact> 0.23306450E+04</totfact>
</mgrwt>
</event>
<event>
 5    1  0.6043464E+000  0.9195389E+02  0.7546771E-02  0.1298188E+00
         -1   -1    0    0    0  501 -0.00000000000E+00  0.00000000000E+00  0.13347823141E+03  0.13347823141E+03  0.00000000000E+00 0.  1.
          1   -1    0    0  501    0  0.00000000000E+00 -0.00000000000E+00 -0.15836885849E+02  0.15836885849E+02  0.00000000000E+00 0. -1.
         23    2    1    2    0    0  0.00000000000E+00  0.00000000000E+00  0.11764134556E+03  0.14931511726E+03  0.91953890926E+02 0.  0.
        -13    1    3    3    0    0  0.16830883834E+02 -0.39072764716E+02  0.87128937803E+02  0.96960875593E+02  0.00000000000E+00 0.  1.
         13    1    3    3    0    0 -0.16830883834E+02  0.39072764716E+02  0.30512407758E+02  0.52354241665E+02  0.00000000000E+00 0. -1.
<mgrwt>
<rscale>  0 0.91953891E+02</rscale>
<asrwt>0</asrwt>
<pdfrwt beam="2">  1        1 0.24364441E-02 0.91953891E+02</pdfrwt>
<pdfrwt beam="1">  1       -1 0.20535112E-01 0.91953891E+02</pdfrwt>
<totfact> 0.75113889E+04</totfact>
</mgrwt>
</event>
<event>
 5    1  0.6043464E+000  0.7938658E+02  0.7546771E-02  0.1330801E+00
          3   -1    0    0  501    0  0.00000000000E+00  0.00000000000E+00  0.20681715246E+03  0.20681715246E+03  0.00000000000E+00 0. -1.
         -3   -1    0    0    0  501 -0.00000000000E+00 -0.00000000000E+00 -0.76181178113E+01  0.76181178113E+01  0.00000000000E+00 0.  1.
         23    2    1    2    0    0  0.00000000000E+00  0.00000000000E+00  0.19919903465E+03  0.21443527027E+03  0.79386584076E+02 0.  0.
        -13    1    3    3    0    0  0.29297576856E+02 -0.16394493529E+02  0.15679957103E+03  0.16035346240E+03  0.00000000000E+00 0. -1.
         13    1    3    3    0    0 -0.29297576856E+02  0.16394493529E+02  0.42399463616E+02  0.54081807871E+02  0.00000000000E+00 0.  1.
<mgrwt>
<rscale>  0 0.79386584E+02</rscale>
<asrwt>0</asrwt>
<pdfrwt beam="1">  1        3 0.31818019E-01 0.79386584E+02</pdfrwt>
<pdfrwt beam="2">  1       -3 0.11720183E-02 0.79386584E+02</pdfrwt>
<totfact> 0.40197221E+04</totfact>
</mgrwt>
</event>
<event>
 5    1  0.6043464E+000  0.9308097E+02  0.7546771E-02  0.1295558E+00
          2   -1    0    0  501    0  0.00000000000E+00  0.00000000000E+00  0.13700769750E+03  0.13700769750E+03  0.00000000000E+00 0. -1.
         -2   -1    0    0    0  501 -0.00000000000E+00 -0.00000000000E+00 -0.15809454105E+02  0.15809454105E+02  0.00000000000E+00 0.  1.
         23    2    1    2    0    0  0.00000000000E+00  0.00000000000E+00  0.12119824339E+03  0.15281715160E+03  0.93080973471E+02 0.  0.
        -13    1    3    3    0    0 -0.12271644909E+02  0.31561353448E+02  0.81832060209E+01  0.34837869639E+02  0.00000000000E+00 0.  1.
         13    1    3    3    0    0  0.12271644909E+02 -0.31561353448E+02  0.11301503737E+03  0.11797928196E+03  0.00000000000E+00 0. -1.
<mgrwt>
<rscale>  0 0.93080973E+02</rscale>
<asrwt>0</asrwt>
<pdfrwt beam="1">  1        2 0.21078107E-01 0.93080973E+02</pdfrwt>
<pdfrwt beam="2">  1       -2 0.24322238E-02 0.93080973E+02</pdfrwt>
<totfact> 0.12817804E+05</totfact>
</mgrwt>
</event>
<event>
 5    1  0.6043464E+000  0.9488504E+02  0.7546771E-02  0.1291435E+00
         -3   -1    0    0    0  501 -0.00000000000E+00  0.00000000000E+00  0.11456168052E+02  0.11456168052E+02  0.00000000000E+00 0.  1.
          3   -1    0    0  501    0  0.00000000000E+00 -0.00000000000E+00 -0.19646995819E+03  0.19646995819E+03  0.00000000000E+00 0. -1.
         23    2    1    2    0    0  0.00000000000E+00  0.00000000000E+00 -0.18501379014E+03  0.20792612624E+03  0.94885043250E+02 0.  0.
        -13    1    3    3    0    0  0.22040937365E+01 -0.34605602075E+02 -0.16346012071E+03  0.16709762652E+03  0.00000000000E+00 0. -1.
         13    1    3    3    0    0 -0.22040937365E+01  0.34605602075E+02 -0.21553669428E+02  0.40828499727E+02  0.00000000000E+00 0.  1.
<mgrwt>
<rscale>  0 0.94885043E+02</rscale>
<asrwt>0</asrwt>
<pdfrwt beam="2">  1        3 0.30226145E-01 0.94885043E+02</pdfrwt>
<pdfrwt beam="1">  1       -3 0.17624875E-02 0.94885043E+02</pdfrwt>
<totfact> 0.25220607E+04</totfact>
</mgrwt>
</event>
<event>
 5    1  0.6043464E+000  0.8937900E+02  0.7546771E-02  0.1304363E+00
          3   -1    0    0  501    0  0.00000000000E+00  0.00000000000E+00  0.48754244889E+02  0.48754244889E+02  0.00000000000E+00 0. -1.
         -3   -1    0    0    0  501 -0.00000000000E+00 -0.00000000000E+00 -0.40963644156E+02  0.40963644156E+02  0.00000000000E+00 0.  1.
         23    2    1    2    0    0  0.00000000000E+00  0.00000000000E+00  0.77906007325E+01  0.89717889045E+02  0.89379002875E+02 0.  0.
        -13    1    3    3    0    0  0.20571326170E+02  0.80755711727E+01  0.42885299292E+02  0.48244618410E+02  0.00000000000E+00 0. -1.
         13    1    3    3    0    0 -0.20571326170E+02 -0.80755711727E+01 -0.35094698560E+02  0.41473270635E+02  0.00000000000E+00 0.  1.
<mgrwt>
<rscale>  0 0.89379003E+02</rscale>
<asrwt>0</asrwt>
<pdfrwt beam="1">  1        3 0.75006531E-02 0.89379003E+02</pdfrwt>
<pdfrwt beam="2">  1       -3 0.63020991E-02 0.89379003E+02</pdfrwt>
<totfact> 0.37423300E+04</totfact>
</mgrwt>
</event>
<event>
 5    1  0.6043464E+000  0.9167762E+02  0.7546771E-02  0.1298839E+00
         -2   -1    0    0    0  501 -0.00000000000E+00  0.00000000000E+00  0.11084808653E+03  0.11084808653E+03  0.00000000000E+00 0.  1.
          2   -1    0    0  501    0  0.00000000000E+00 -0.00000000000E+00 -0.18955640782E+02  0.18955640782E+02  0.00000000000E+00 0. -1.
         23    2    1    2    0    0  0.00000000000E+00  0.00000000000E+00  0.91892445750E+02  0.12980372731E+03  0.91677620164E+02 0.  0.
        -13    1    3    3    0    0  0.23658814879E+02  0.20451970467E+02 -0.15049916014E+01  0.31309545145E+02  0.00000000000E+00 0. -1.
         13    1    3    3    0    0 -0.23658814879E+02 -0.20451970467E+02  0.93397437351E+02  0.98494182170E+02  0.00000000000E+00 0.  1.
<mgrwt>
<rscale>  0 0.91677620E+02</rscale>
<asrwt>0</asrwt>
<pdfrwt beam="2">  1        2 0.29162525E-02 0.91677620E+02</pdfrwt>
<pdfrwt beam="1">  1       -2 0.17053551E-01 0.91677620E+02</pdfrwt>
<totfact> 0.76286819E+04</totfact>
</mgrwt>
</event>
<event>
 5    1  0.6043464E+000  0.9825868E+02  0.7546771E-02  0.1284001E+00
         -1   -1    0    0    0  501 -0.00000000000E+00  0.00000000000E+00  0.19094882555E+03  0.19094882555E+03  0.00000000000E+00 0.  1.
          1   -1    0    0  501    0  0.00000000000E+00 -0.00000000000E+00 -0.12640518108E+02  0.12640518108E+02  0.00000000000E+00 0. -1.
         23    2    1    2    0    0  0.00000000000E+00  0.00000000000E+00  0.17830830744E+03  0.20358934366E+03  0.98258680778E+02 0.  0.
        -13    1    3    3    0    0 -0.14949457471E+01 -0.49092691985E+02  0.91574745008E+02  0.10391468228E+03  0.00000000000E+00 0.  1.
         13    1    3    3    0    0  0.14949457471E+01  0.49092691985E+02  0.86733562435E+02  0.99674661383E+02  0.00000000000E+00 0. -1.
<mgrwt>
<rscale>  0 0.98258681E+02</rscale>
<asrwt>0</asrwt>
<pdfrwt beam="2">  1        1 0.19446952E-02 0.98258681E+02</pdfrwt>
<pdfrwt beam="1">  1       -1 0.29376740E-01 0.98258681E+02</pdfrwt>
<totfact> 0.57856287E+04</totfact>
</mgrwt>
</event>
<event>
 5    1  0.6043464E+000  0.8328374E+02  0.7546771E-02  0.1319983E+00
          1   -1    0    0  501    0  0.00000000000E+00  0.00000000000E+00  0.15898975198E+03  0.15898975198E+03  0.00000000000E+00 0. -1.
         -1   -1    0    0    0  501 -0.00000000000E+00 -0.00000000000E+00 -0.10906649151E+02  0.10906649151E+02  0.00000000000E+00 0.  1.
         23    2    1    2    0    0  0.00000000000E+00  0.00000000000E+00  0.14808310283E+03  0.16989640113E+03  0.83283742553E+02 0.  0.
        -13    1    3    3    0    0  0.14825214802E+02 -0.38445121682E+02  0.86320594306E+02  0.95650715504E+02  0.00000000000E+00 0. -1.
         13    1    3    3    0    0 -0.14825214802E+02  0.38445121682E+02  0.61762508524E+02  0.74245685627E+02  0.00000000000E+00 0.  1.
<mgrwt>
<rscale>  0 0.83283743E+02</rscale>
<asrwt>0</asrwt>
<pdfrwt beam="1">  1        1 0.24459960E-01 0.83283743E+02</pdfrwt>
<pdfrwt beam="2">  1       -1 0.16779461E-02 0.83283743E+02</pdfrwt>
<totfact> 0.14445584E+05</totfact>
</mgrwt>
</event>
<event>
 5    1  0.6043464E+000  0.9007345E+02  0.7546771E-02  0.1302674E+00
          2   -1    0    0  501    0  0.00000000000E+00  0.00000000000E+00  0.21086052166E+03  0.21086052166E+03  0.00000000000E+00 0. -1.
         -2   -1    0    0    0  501 -0.00000000000E+00 -0.00000000000E+00 -0.96191861328E+01  0.96191861328E+01  0.00000000000E+00 0.  1.
         23    2    1    2    0    0  0.00000000000E+00  0.00000000000E+00  0.20124133552E+03  0.22047970779E+03  0.90073450159E+02 0.  0.
        -13    1    3    3    0    0  0.19585720816E+02 -0.39808894703E+02  0.81666899297E+02  0.92939932204E+02  0.00000000000E+00 0.  1.
         13    1    3    3    0    0 -0.19585720816E+02  0.39808894703E+02  0.11957443623E+03  0.12753977559E+03  0.00000000000E+00 0. -1.
<mgrwt>
<rscale>  0 0.90073450E+02</rscale>
<asrwt>0</asrwt>
<pdfrwt beam="1">  1        2 0.32440077E-01 0.90073450E+02</pdfrwt>
<pdfrwt beam="2">  1       -2 0.14798749E-02 0.90073450E+02</pdfrwt>
<totfact> 0.16291796E+05</totfact>
</mgrwt>
</event>
<event>
 5    1  0.6043464E+000  0.8940264E+02  0.7546771E-02  0.1304305E+00
          4   -1    0    0  501    0  0.00000000000E+00  0.00000000000E+00  0.28320247112E+03  0.28320247112E+03  0.00000000000E+00 0.  1.
         -4   -1    0    0    0  501 -0.00000000000E+00 -0.00000000000E+00 -0.70557577848E+01  0.70557577848E+01  0.00000000000E+00 0. -1.
         23    2    1    2    0    0  0.00000000000E+00  0.00000000000E+00  0.27614671333E+03  0.29025822890E+03  0.89402640683E+02 0.  0.
        -13    1    3    3    0    0  0.33622059187E+02  0.26138806876E+02  0.93970646889E+02  0.10317055086E+03  0.00000000000E+00 0.  1.
         13    1    3    3    0    0 -0.33622059187E+02 -0.26138806876E+02  0.18217606645E+03  0.18708767804E+03  0.00000000000E+00 0. -1.
<mgrwt>
<rscale>  0 0.89402641E+02</rscale>
<asrwt>0</asrwt>
<pdfrwt beam="1">  1        4 0.43569602E-01 0.89402641E+02</pdfrwt>
<pdfrwt beam="2">  1       -4 0.10855014E-02 0.89402641E+02</pdfrwt>
<totfact> 0.19090943E+04</totfact>
</mgrwt>
</event>
<event>
 5    1  0.6043464E+000  0.9168984E+02  0.7546771E-02  0.1298810E+00
          4   -1    0    0  501    0  0.00000000000E+00  0.00000000000E+00  0.18654197813E+02  0.18654197813E+02  0.00000000000E+00 0. -1.
         -4   -1    0    0    0  501 -0.00000000000E+00 -0.00000000000E+00 -0.11266936271E+03  0.11266936271E+03  0.00000000000E+00 0.  1.
         23    2    1    2    0    0  0.00000000000E+00  0.00000000000E+00 -0.94015164894E+02  0.13132356052E+03  0.91689837593E+02 0.  0.
        -13    1    3    3    0    0  0.63226824965E+01  0.41059700760E+02 -0.74775721178E+02  0.85541123550E+02  0.00000000000E+00 0.  1.
         13    1    3    3    0    0 -0.63226824965E+01 -0.41059700760E+02 -0.19239443716E+02  0.45782436971E+02  0.00000000000E+00 0. -1.
<mgrwt>
<rscale>  0 0.91689838E+02</rscale>
<asrwt>0</asrwt>
<pdfrwt beam="1">  1        4 0.28698766E-02 0.91689838E+02</pdfrwt>
<pdfrwt beam="2">  1       -4 0.17333748E-01 0.91689838E+02</pdfrwt>
<totfact> 0.24275086E+04</totfact>
</mgrwt>
</event>
<event>
 5    1  0.6043464E+000  0.9139592E+02  0.7546771E-02  0.1299506E+00
          3   -1    0    0  501    0  0.00000000000E+00  0.00000000000E+00  0.61712417652E+01  0.61712417652E+01  0.00000000000E+00 0. -1.
         -3   -1    0    0    0  501 -0.00000000000E+00 -0.00000000000E+00 -0.33839274320E+03  0.33839274320E+03  0.00000000000E+00 0.  1.
         23    2    1    2    0    0  0.00000000000E+00  0.00000000000E+00 -0.33222150143E+03  0.34456398496E+03  0.91395917411E+02 0.  0.
        -13    1    3    3    0    0 -0.16586989483E+01 -0.44895751046E+02 -0.19763576128E+03  0.20267775872E+03  0.00000000000E+00 0.  1.
         13    1    3    3    0    0  0.16586989483E+01  0.44895751046E+02 -0.13458574015E+03  0.14188622624E+03  0.00000000000E+00 0. -1.
<mgrwt>
<rscale>  0 0.91395917E+02</rscale>
<asrwt>0</asrwt>
<pdfrwt beam="1">  1        3 0.94942161E-03 0.91395917E+02</pdfrwt>
<pdfrwt beam="2">  1       -3 0.52060433E-01 0.91395917E+02</pdfrwt>
<totfact> 0.22249013E+04</totfact>
</mgrwt>
</event>
<event>
 5    1  0.6043464E+000  0.9224285E+02  0.7546771E-02  0.1297509E+00
         -3   -1    0    0    0  501 -0.00000000000E+00  0.00000000000E+00  0.51954165529E+02  0.51954165529E+02  0.00000000000E+00 0.  1.
          3   -1    0    0  501    0  0.00000000000E+00 -0.00000000000E+00 -0.40943512818E+02  0.40943512818E+02  0.00000000000E+00 0. -1.
         23    2    1    2    0    0  0.00000000000E+00  0.00000000000E+00  0.11010652711E+02  0.92897678348E+02  0.92242854299E+02 0.  0.
        -13    1    3    3    0    0  0.10085477883E+02  0.93796277239E+01  0.49834747444E+02  0.51702962518E+02  0.00000000000E+00 0.  1.
         13    1    3    3    0    0 -0.10085477883E+02 -0.93796277239E+01 -0.38824094734E+02  0.41194715829E+02  0.00000000000E+00 0. -1.
<mgrwt>
<rscale>  0 0.92242854E+02</rscale>
<asrwt>0</asrwt>
<pdfrwt beam="2">  1        3 0.62990019E-02 0.92242854E+02</pdfrwt>
<pdfrwt beam="1">  1       -3 0.79929486E-02 0.92242854E+02</pdfrwt>
<totfact> 0.34107393E+04</totfact>
</mgrwt>
</event>
<event>
 5    1  0.6043464E+000  0.9256027E+02  0.7546771E-02  0.1296767E+00
         -4   -1    0    0    0  501 -0.00000000000E+00  0.00000000000E+00  0.45120602349E+02  0.45120602349E+02  0.00000000000E+00 0.  1.
          4   -1    0    0  501    0  0.00000000000E+00 -0.00000000000E+00 -0.47469466098E+02  0.47469466098E+02  0.00000000000E+00 0. -1.
         23    2    1    2    0    0  0.00000000000E+00  0.00000000000E+00 -0.23488637492E+01  0.92590068448E+02  0.92560270171E+02 0.  0.
        -13    1    3    3    0    0 -0.22868029850E+02  0.23422419250E+02 -0.33900318105E+02  0.47125238252E+02  0.00000000000E+00 0. -1.
         13    1    3    3    0    0  0.22868029850E+02 -0.23422419250E+02  0.31551454356E+02  0.45464830195E+02  0.00000000000E+00 0.  1.
<mgrwt>
<rscale>  0 0.92560270E+02</rscale>
<asrwt>0</asrwt>
<pdfrwt beam="2">  1        4 0.73029948E-02 0.92560270E+02</pdfrwt>
<pdfrwt beam="1">  1       -4 0.69416311E-02 0.92560270E+02</pdfrwt>
<totfact> 0.25843913E+04</totfact>
</mgrwt>
</event>
<event>
 5    1  0.6043464E+000  0.9348875E+02  0.7546771E-02  0.1294617E+00
         -2   -1    0    0    0  501 -0.00000000000E+00  0.00000000000E+00  0.62185268948E+01  0.62185268948E+01  0.00000000000E+00 0.  1.
          2   -1    0    0  501    0  0.00000000000E+00 -0.00000000000E+00 -0.35137525540E+03  0.35137525540E+03  0.00000000000E+00 0. -1.
         23    2    1    2    0    0  0.00000000000E+00  0.00000000000E+00 -0.34515672851E+03  0.35759378229E+03  0.93488747470E+02 0.  0.
        -13    1    3    3    0    0  0.11980322167E+02  0.42045426561E+02 -0.23585748687E+03  0.23987517613E+03  0.00000000000E+00 0. -1.
         13    1    3    3    0    0 -0.11980322167E+02 -0.42045426561E+02 -0.10929924164E+03  0.11771860616E+03  0.00000000000E+00 0.  1.
<mgrwt>
<rscale>  0 0.93488747E+02</rscale>
<asrwt>0</asrwt>
<pdfrwt beam="2">  1        2 0.54057734E-01 0.93488747E+02</pdfrwt>
<pdfrwt beam="1">  1       -2 0.95669641E-03 0.93488747E+02</pdfrwt>
<totfact> 0.17817233E+05</totfact>
</mgrwt>
</event>
<event>
 5    1  0.6043464E+000  0.9199790E+02  0.7546771E-02  0.1298084E+00
          1   -1    0    0  501    0  0.00000000000E+00  0.00000000000E+00  0.11900979329E+03  0.11900979329E+03  0.00000000000E+00 0. -1.
         -1   -1    0    0    0  501 -0.00000000000E+00 -0.00000000000E+00 -0.17779236059E+02  0.17779236059E+02  0.00000000000E+00 0.  1.
         23    2    1    2    0    0  0.00000000000E+00  0.00000000000E+00  0.10123055723E+03  0.13678902935E+03  0.91997895806E+02 0.  0.
        -13    1    3    3    0    0 -0.89905745082E+01 -0.42121872315E+02  0.26602392518E+02  0.50623807097E+02  0.00000000000E+00 0.  1.
         13    1    3    3    0    0  0.89905745082E+01  0.42121872315E+02  0.74628164711E+02  0.86165222250E+02  0.00000000000E+00 0. -1.
<mgrwt>
<rscale>  0 0.91997896E+02</rscale>
<asrwt>0</asrwt>
<pdfrwt beam="1">  1        1 0.18309198E-01 0.91997896E+02</pdfrwt>
<pdfrwt beam="2">  1       -1 0.27352672E-02 0.91997896E+02</pdfrwt>
<totfact> 0.10499544E+05</totfact>
</mgrwt>
</event>
<event>
 5    1  0.6043464E+000  0.1085365E+03  0.7546771E-02  0.1263304E+00
         -1   -1    0    0    0  501 -0.00000000000E+00  0.00000000000E+00  0.20968030881E+02  0.20968030881E+02  0.00000000000E+00 0.  1.
          1   -1    0    0  501    0  0.00000000000E+00 -0.00000000000E+00 -0.14045396616E+03  0.14045396616E+03  0.00000000000E+00 0. -1.
         23    2    1    2    0    0  0.00000000000E+00  0.00000000000E+00 -0.11948593527E+03  0.16142199704E+03  0.10853650261E+03 0.  0.
        -13    1    3    3    0    0 -0.50999481103E+02 -0.74604940909E+01 -0.85001750470E+02  0.99407764424E+02  0.00000000000E+00 0. -1.
         13    1    3    3    0    0  0.50999481103E+02  0.74604940909E+01 -0.34484184804E+02  0.62014232612E+02  0.00000000000E+00 0.  1.
<mgrwt>
<rscale>  0 0.10853650E+03</rscale>
<asrwt>0</asrwt>
<pdfrwt beam="2">  1        1 0.21608303E-01 0.10853650E+03</pdfrwt>
<pdfrwt beam="1">  1       -1 0.32258508E-02 0.10853650E+03</pdfrwt>
<totfact> 0.68828229E+04</totfact>
</mgrwt>
</event>
<event>
 5    1  0.6043464E+000  0.9260697E+02  0.7546771E-02  0.1296659E+00
          1   -1    0    0  501    0  0.00000000000E+00  0.00000000000E+00  0.14043069323E+03  0.14043069323E+03  0.00000000000E+00 0. -1.
         -1   -1    0    0    0  501 -0.00000000000E+00 -0.00000000000E+00 -0.15267407108E+02  0.15267407108E+02  0.00000000000E+00 0.  1.
         23    2    1    2    0    0  0.00000000000E+00  0.00000000000E+00  0.12516328612E+03  0.15569810033E+03  0.92606966562E+02 0.  0.
        -13    1    3    3    0    0 -0.19237316446E+01 -0.38700745984E+02  0.19963170795E+02  0.43588721836E+02  0.00000000000E+00 0.  1.
         13    1    3    3    0    0  0.19237316446E+01  0.38700745984E+02  0.10520011532E+03  0.11210937850E+03  0.00000000000E+00 0. -1.
<mgrwt>
<rscale>  0 0.92606967E+02</rscale>
<asrwt>0</asrwt>
<pdfrwt beam="1">  1        1 0.21604721E-01 0.92606967E+02</pdfrwt>
<pdfrwt beam="2">  1       -1 0.23488320E-02 0.92606967E+02</pdfrwt>
<totfact> 0.10622154E+05</totfact>
</mgrwt>
</event>
<event>
 5    1  0.6043464E+000  0.9165568E+02  0.7546771E-02  0.1298891E+00
          4   -1    0    0  501    0  0.00000000000E+00  0.00000000000E+00  0.93374180484E+02  0.93374180484E+02  0.00000000000E+00 0. -1.
         -4   -1    0    0    0  501 -0.00000000000E+00 -0.00000000000E+00 -0.22492200826E+02  0.22492200826E+02  0.00000000000E+00 0.  1.
         23    2    1    2    0    0  0.00000000000E+00  0.00000000000E+00  0.70881979657E+02  0.11586638131E+03  0.91655677826E+02 0.  0.
        -13    1    3    3    0    0 -0.32303943462E+02 -0.43090660654E+01 -0.52888839997E+01  0.33016436929E+02  0.00000000000E+00 0.  1.
         13    1    3    3    0    0  0.32303943462E+02  0.43090660654E+01  0.76170863657E+02  0.82849944380E+02  0.00000000000E+00 0. -1.
<mgrwt>
<rscale>  0 0.91655678E+02</rscale>
<asrwt>0</asrwt>
<pdfrwt beam="1">  1        4 0.14365258E-01 0.91655678E+02</pdfrwt>
<pdfrwt beam="2">  1       -4 0.34603386E-02 0.91655678E+02</pdfrwt>
<totfact> 0.25149783E+04</totfact>
</mgrwt>
</event>
<event>
 5    1  0.6043464E+000  0.8803363E+02  0.7546771E-02  0.1307685E+00
         -1   -1    0    0    0  501 -0.00000000000E+00  0.00000000000E+00  0.28832927690E+02  0.28832927690E+02  0.00000000000E+00 0.  1.
          1   -1    0    0  501    0  0.00000000000E+00 -0.00000000000E+00 -0.67196787889E+02  0.67196787889E+02  0.00000000000E+00 0. -1.
         23    2    1    2    0    0  0.00000000000E+00  0.00000000000E+00 -0.38363860199E+02  0.96029715578E+02  0.88033632804E+02 0.  0.
        -13    1    3    3    0    0  0.39046694819E+01  0.10982226746E+02  0.27118939050E+02  0.29517665952E+02  0.00000000000E+00 0.  1.
         13    1    3    3    0    0 -0.39046694819E+01 -0.10982226746E+02 -0.65482799249E+02  0.66512049627E+02  0.00000000000E+00 0. -1.
<mgrwt>
<rscale>  0 0.88033633E+02</rscale>
<asrwt>0</asrwt>
<pdfrwt beam="2">  1        1 0.10337967E-01 0.88033633E+02</pdfrwt>
<pdfrwt beam="1">  1       -1 0.44358351E-02 0.88033633E+02</pdfrwt>
<totfact> 0.10798905E+05</totfact>
</mgrwt>
</event>
<event>
 5    1  0.6043464E+000  0.9344845E+02  0.7546771E-02  0.1294709E+00
         -4   -1    0    0    0  501 -0.00000000000E+00  0.00000000000E+00  0.13774727136E+02  0.13774727136E+02  0.00000000000E+00 0.  1.
          4   -1    0    0  501    0  0.00000000000E+00 -0.00000000000E+00 -0.15848976891E+03  0.15848976891E+03  0.00000000000E+00 0. -1.
         23    2    1    2    0    0  0.00000000000E+00  0.00000000000E+00 -0.14471504177E+03  0.17226449604E+03  0.93448452538E+02 0.  0.
        -13    1    3    3    0    0 -0.27070539503E+02 -0.27570860123E+02 -0.12078668962E+03  0.12681636656E+03  0.00000000000E+00 0. -1.
         13    1    3    3    0    0  0.27070539503E+02  0.27570860123E+02 -0.23928352145E+02  0.45448129481E+02  0.00000000000E+00 0.  1.
<mgrwt>
<rscale>  0 0.93448453E+02</rscale>
<asrwt>0</asrwt>
<pdfrwt beam="2">  1        4 0.24383040E-01 0.93448453E+02</pdfrwt>
<pdfrwt beam="1">  1       -4 0.21191889E-02 0.93448453E+02</pdfrwt>
<totfact> 0.21153090E+04</totfact>
</mgrwt>
</event>
<event>
 5    1  0.6043464E+000  0.9058753E+02  0.7546771E-02  0.1301435E+00
         -2   -1    0    0    0  501 -0.00000000000E+00  0.00000000000E+00  0.64015849071E+01  0.64015849071E+01  0.00000000000E+00 0.  1.
          2   -1    0    0  501    0  0.00000000000E+00 -0.00000000000E+00 -0.32047143675E+03  0.32047143675E+03  0.00000000000E+00 0. -1.
         23    2    1    2    0    0  0.00000000000E+00  0.00000000000E+00 -0.31406985184E+03  0.32687302165E+03  0.90587529222E+02 0.  0.
        -13    1    3    3    0    0  0.33452863057E+02  0.22252113028E+02 -0.81579972563E+02  0.90937024937E+02  0.00000000000E+00 0. -1.
         13    1    3    3    0    0 -0.33452863057E+02 -0.22252113028E+02 -0.23248987928E+03  0.23593599672E+03  0.00000000000E+00 0.  1.
<mgrwt>
<rscale>  0 0.90587529E+02</rscale>
<asrwt>0</asrwt>
<pdfrwt beam="2">  1        2 0.49303299E-01 0.90587529E+02</pdfrwt>
<pdfrwt beam="1">  1       -2 0.98485920E-03 0.90587529E+02</pdfrwt>
<totfact> 0.18732750E+05</totfact>
</mgrwt>
</event>
<event>
 5    1  0.6043464E+000  0.9086826E+02  0.7546771E-02  0.1300763E+00
          1   -1    0    0  501    0  0.00000000000E+00  0.00000000000E+00  0.88714216392E+02  0.88714216392E+02  0.00000000000E+00 0.  1.
         -1   -1    0    0    0  501 -0.00000000000E+00 -0.00000000000E+00 -0.23268651174E+02  0.23268651174E+02  0.00000000000E+00 0. -1.
         23    2    1    2    0    0  0.00000000000E+00  0.00000000000E+00  0.65445565219E+02  0.11198286757E+03  0.90868259703E+02 0.  0.
        -13    1    3    3    0    0  0.30308893106E+02 -0.31356874034E+02  0.48426498856E+02  0.65169075043E+02  0.00000000000E+00 0.  1.
         13    1    3    3    0    0 -0.30308893106E+02  0.31356874034E+02  0.17019066363E+02  0.46813792523E+02  0.00000000000E+00 0. -1.
<mgrwt>
<rscale>  0 0.90868260E+02</rscale>
<asrwt>0</asrwt>
<pdfrwt beam="1">  1        1 0.13648341E-01 0.90868260E+02</pdfrwt>
<pdfrwt beam="2">  1       -1 0.35797925E-02 0.90868260E+02</pdfrwt>
<totfact> 0.10337557E+05</totfact>
</mgrwt>
</event>
<event>
 5    1  0.6043464E+000  0.9021518E+02  0.7546771E-02  0.1302331E+00
         -3   -1    0    0    0  501 -0.00000000000E+00  0.00000000000E+00  0.36616494635E+03  0.36616494635E+03  0.00000000000E+00 0.  1.
          3   -1    0    0  501    0  0.00000000000E+00 -0.00000000000E+00 -0.55567712370E+01  0.55567712370E+01  0.00000000000E+00 0. -1.
         23    2    1    2    0    0  0.00000000000E+00  0.00000000000E+00  0.36060817512E+03  0.37172171759E+03  0.90215183686E+02 0.  0.
        -13    1    3    3    0    0  0.32371447425E+02 -0.29789639902E+02  0.13923192602E+03  0.14601665137E+03  0.00000000000E+00 0. -1.
         13    1    3    3    0    0 -0.32371447425E+02  0.29789639902E+02  0.22137624909E+03  0.22570506622E+03  0.00000000000E+00 0.  1.
<mgrwt>
<rscale>  0 0.90215184E+02</rscale>
<asrwt>0</asrwt>
<pdfrwt beam="2">  1        3 0.85488817E-03 0.90215184E+02</pdfrwt>
<pdfrwt beam="1">  1       -3 0.56333050E-01 0.90215184E+02</pdfrwt>
<totfact> 0.22102278E+04</totfact>
</mgrwt>
</event>
<event>
 5    1  0.6043464E+000  0.8920276E+02  0.7546771E-02  0.1304794E+00
         -1   -1    0    0    0  501 -0.00000000000E+00  0.00000000000E+00  0.36148482561E+02  0.36148482561E+02  0.00000000000E+00 0.  1.
          1   -1    0    0  501    0  0.00000000000E+00 -0.00000000000E+00 -0.55030891315E+02  0.55030891315E+02  0.00000000000E+00 0. -1.
         23    2    1    2    0    0  0.00000000000E+00  0.00000000000E+00 -0.18882408754E+02  0.91179373876E+02  0.89202762626E+02 0.  0.
        -13    1    3    3    0    0 -0.37373072880E+02  0.10330678722E+02  0.13088380350E+02  0.40924017393E+02  0.00000000000E+00 0.  1.
         13    1    3    3    0    0  0.37373072880E+02 -0.10330678722E+02 -0.31970789103E+02  0.50255356483E+02  0.00000000000E+00 0. -1.
<mgrwt>
<rscale>  0 0.89202763E+02</rscale>
<asrwt>0</asrwt>
<pdfrwt beam="2">  1        1 0.84662909E-02 0.89202763E+02</pdfrwt>
<pdfrwt beam="1">  1       -1 0.55613051E-02 0.89202763E+02</pdfrwt>
<totfact> 0.10108339E+05</totfact>
</mgrwt>
</event>
<event>
 5    1  0.6043464E+000  0.9043752E+02  0.7546771E-02  0.1301796E+00
         -1   -1    0    0    0  501 -0.00000000000E+00  0.00000000000E+00  0.14013279397E+03  0.14013279397E+03  0.00000000000E+00 0.  1.
          1   -1    0    0  501    0  0.00000000000E+00 -0.00000000000E+00 -0.14591417241E+02  0.14591417241E+02  0.00000000000E+00 0. -1.
         23    2    1    2    0    0  0.00000000000E+00  0.00000000000E+00  0.12554137673E+03  0.15472421121E+03  0.90437515800E+02 0.  0.
        -13    1    3    3    0    0 -0.28227251680E+01 -0.30046881009E+02  0.12038192855E+03  0.12410717770E+03  0.00000000000E+00 0.  1.
         13    1    3    3    0    0  0.28227251680E+01  0.30046881009E+02  0.51594481858E+01  0.30617033516E+02  0.00000000000E+00 0. -1.
<mgrwt>
<rscale>  0 0.90437516E+02</rscale>
<asrwt>0</asrwt>
<pdfrwt beam="2">  1        1 0.22448335E-02 0.90437516E+02</pdfrwt>
<pdfrwt beam="1">  1       -1 0.21558890E-01 0.90437516E+02</pdfrwt>
<totfact> 0.77583164E+04</totfact>
</mgrwt>
</event>
<event>
 5    1  0.6043464E+000  0.9040438E+02  0.7546771E-02  0.1301875E+00
         -3   -1    0    0    0  501 -0.00000000000E+00  0.00000000000E+00  0.62078073844E+02  0.62078073844E+02  0.00000000000E+00 0.  1.
          3   -1    0    0  501    0  0.00000000000E+00 -0.00000000000E+00 -0.32914005548E+02  0.32914005548E+02  0.00000000000E+00 0. -1.
         23    2    1    2    0    0  0.00000000000E+00  0.00000000000E+00  0.29164068296E+02  0.94992079391E+02  0.90404381904E+02 0.  0.
        -13    1    3    3    0    0 -0.19412507681E+02  0.79533360989E+00  0.57466907838E+02  0.60662373070E+02  0.00000000000E+00 0.  1.
         13    1    3    3    0    0  0.19412507681E+02 -0.79533360989E+00 -0.28302839541E+02  0.34329706322E+02  0.00000000000E+00 0. -1.
<mgrwt>
<rscale>  0 0.90404382E+02</rscale>
<asrwt>0</asrwt>
<pdfrwt beam="2">  1        3 0.50636931E-02 0.90404382E+02</pdfrwt>
<pdfrwt beam="1">  1       -3 0.95504729E-02 0.90404382E+02</pdfrwt>
<totfact> 0.35867998E+04</totfact>
</mgrwt>
</event>
<event>
 5    1  0.6043464E+000  0.8689014E+02  0.7546771E-02  0.1310562E+00
          2   -1    0    0  501    0  0.00000000000E+00  0.00000000000E+00  0.17665455086E+02  0.17665455086E+02  0.00000000000E+00 0. -1.
         -2   -1    0    0    0  501 -0.00000000000E+00 -0.00000000000E+00 -0.10684549116E+03  0.10684549116E+03  0.00000000000E+00 0.  1.
         23    2    1    2    0    0  0.00000000000E+00  0.00000000000E+00 -0.89180036074E+02  0.12451094625E+03  0.86890142714E+02 0.  0.
        -13    1    3    3    0    0  0.17030943619E+02  0.76885693023E+01 -0.10079289452E+03  0.10251036399E+03  0.00000000000E+00 0.  1.
         13    1    3    3    0    0 -0.17030943619E+02 -0.76885693023E+01  0.11612858447E+02  0.22000582260E+02  0.00000000000E+00 0. -1.
<mgrwt>
<rscale>  0 0.86890143E+02</rscale>
<asrwt>0</asrwt>
<pdfrwt beam="1">  1        2 0.27177624E-02 0.86890143E+02</pdfrwt>
<pdfrwt beam="2">  1       -2 0.16437768E-01 0.86890143E+02</pdfrwt>
<totfact> 0.88210129E+04</totfact>
</mgrwt>
</event>
<event>
 5    1  0.6043464E+000  0.9669190E+02  0.7546771E-02  0.1287410E+00
         -4   -1    0    0    0  501 -0.00000000000E+00  0.00000000000E+00  0.92470989177E+02  0.92470989177E+02  0.00000000000E+00 0.  1.
          4   -1    0    0  501    0  0.00000000000E+00 -0.00000000000E+00 -0.25276371064E+02  0.25276371064E+02  0.00000000000E+00 0. -1.
         23    2    1    2    0    0  0.00000000000E+00  0.00000000000E+00  0.67194618113E+02  0.11774736024E+03  0.96691903179E+02 0.  0.
        -13    1    3    3    0    0 -0.44581828115E+02 -0.16454370535E+02  0.44424085566E+02  0.65052172033E+02  0.00000000000E+00 0. -1.
         13    1    3    3    0    0  0.44581828115E+02  0.16454370535E+02  0.22770532547E+02  0.52695188208E+02  0.00000000000E+00 0.  1.
<mgrwt>
<rscale>  0 0.96691903E+02</rscale>
<asrwt>0</asrwt>
<pdfrwt beam="2">  1        4 0.38886725E-02 0.96691903E+02</pdfrwt>
<pdfrwt beam="1">  1       -4 0.14226306E-01 0.96691903E+02</pdfrwt>
<totfact> 0.21653914E+04</totfact>
</mgrwt>
</event>
<event>
 5    1  0.6043464E+000  0.9126965E+02  0.7546771E-02  0.1299806E+00
         -1   -1    0    0    0  501 -0.00000000000E+00  0.00000000000E+00  0.11074703905E+03  0.11074703905E+03  0.00000000000E+00 0.  1.
          1   -1    0    0  501    0  0.00000000000E+00 -0.00000000000E+00 -0.18804451219E+02  0.18804451219E+02  0.00000000000E+00 0. -1.
         23    2    1    2    0    0  0.00000000000E+00  0.00000000000E+00  0.91942587829E+02  0.12955149027E+03  0.91269650891E+02 0.  0.
        -13    1    3    3    0    0  0.11580750345E+02 -0.42938902074E+02  0.31448978790E+02  0.54469269839E+02  0.00000000000E+00 0. -1.
         13    1    3    3    0    0 -0.11580750345E+02  0.42938902074E+02  0.60493609039E+02  0.75082220428E+02  0.00000000000E+00 0.  1.
<mgrwt>
<rscale>  0 0.91269651E+02</rscale>
<asrwt>0</asrwt>
<pdfrwt beam="2">  1        1 0.28929926E-02 0.91269651E+02</pdfrwt>
<pdfrwt beam="1">  1       -1 0.17038006E-01 0.91269651E+02</pdfrwt>
<totfact> 0.79592235E+04</totfact>
</mgrwt>
</event>
<event>
 5    1  0.6043464E+000  0.8414631E+02  0.7546771E-02  0.1317680E+00
         -1   -1    0    0    0  501 -0.00000000000E+00  0.00000000000E+00  0.80529900171E+02  0.80529900171E+02  0.00000000000E+00 0.  1.
          1   -1    0    0  501    0  0.00000000000E+00 -0.00000000000E+00 -0.21981281359E+02  0.21981281359E+02  0.00000000000E+00 0. -1.
         23    2    1    2    0    0  0.00000000000E+00  0.00000000000E+00  0.58548618812E+02  0.10251118153E+03  0.84146310519E+02 0.  0.
        -13    1    3    3    0    0  0.10565414848E+02 -0.21985552569E+02 -0.12487977171E+02  0.27403322544E+02  0.00000000000E+00 0. -1.
         13    1    3    3    0    0 -0.10565414848E+02  0.21985552569E+02  0.71036595983E+02  0.75107858986E+02  0.00000000000E+00 0.  1.
<mgrwt>
<rscale>  0 0.84146311E+02</rscale>
<asrwt>0</asrwt>
<pdfrwt beam="2">  1        1 0.33817356E-02 0.84146311E+02</pdfrwt>
<pdfrwt beam="1">  1       -1 0.12389215E-01 0.84146311E+02</pdfrwt>
<totfact> 0.10380384E+05</totfact>
</mgrwt>
</event>
<event>
 5    1  0.6043464E+000  0.9528181E+02  0.7546771E-02  0.1290543E+00
         -3   -1    0    0    0  501 -0.00000000000E+00  0.00000000000E+00  0.93018434216E+02  0.93018434216E+02  0.00000000000E+00 0.  1.
          3   -1    0    0  501    0  0.00000000000E+00 -0.00000000000E+00 -0.24400066015E+02  0.24400066015E+02  0.00000000000E+00 0. -1.
         23    2    1    2    0    0  0.00000000000E+00  0.00000000000E+00  0.68618368201E+02  0.11741850023E+03  0.95281812231E+02 0.  0.
        -13    1    3    3    0    0 -0.45504495667E+02 -0.72124863874E+00  0.16947926262E+02  0.48563479386E+02  0.00000000000E+00 0. -1.
         13    1    3    3    0    0  0.45504495667E+02  0.72124863874E+00  0.51670441939E+02  0.68855020845E+02  0.00000000000E+00 0.  1.
<mgrwt>
<rscale>  0 0.95281812E+02</rscale>
<asrwt>0</asrwt>
<pdfrwt beam="2">  1        3 0.37538564E-02 0.95281812E+02</pdfrwt>
<pdfrwt beam="1">  1       -3 0.14310528E-01 0.95281812E+02</pdfrwt>
<totfact> 0.29642428E+04</totfact>
</mgrwt>
</event>
<event>
 5    1  0.6043464E+000  0.9230703E+02  0.7546771E-02  0.1297359E+00
         -2   -1    0    0    0  501 -0.00000000000E+00  0.00000000000E+00  0.10180715000E+02  0.10180715000E+02  0.00000000000E+00 0. -1.
          2   -1    0    0  501    0  0.00000000000E+00 -0.00000000000E+00 -0.20923351777E+03  0.20923351777E+03  0.00000000000E+00 0.  1.
         23    2    1    2    0    0  0.00000000000E+00  0.00000000000E+00 -0.19905280277E+03  0.21941423277E+03  0.92307027098E+02 0.  0.
        -13    1    3    3    0    0  0.39247504921E+02  0.21184026888E+02 -0.71299315997E+02  0.84099477402E+02  0.00000000000E+00 0. -1.
         13    1    3    3    0    0 -0.39247504921E+02 -0.21184026888E+02 -0.12775348678E+03  0.13531475537E+03  0.00000000000E+00 0.  1.
<mgrwt>
<rscale>  0 0.92307027E+02</rscale>
<asrwt>0</asrwt>
<pdfrwt beam="2">  1        2 0.32189770E-01 0.92307027E+02</pdfrwt>
<pdfrwt beam="1">  1       -2 0.15662639E-02 0.92307027E+02</pdfrwt>
<totfact> 0.15210181E+05</totfact>
</mgrwt>
</event>
<event>
 5    1  0.6043464E+000  0.9148653E+02  0.7546771E-02  0.1299291E+00
          2   -1    0    0  501    0  0.00000000000E+00  0.00000000000E+00  0.52418938709E+02  0.52418938709E+02  0.00000000000E+00 0. -1.
         -2   -1    0    0    0  501 -0.00000000000E+00 -0.00000000000E+00 -0.39917752397E+02  0.39917752397E+02  0.00000000000E+00 0.  1.
         23    2    1    2    0    0  0.00000000000E+00  0.00000000000E+00  0.12501186312E+02  0.92336691105E+02  0.91486528325E+02 0.  0.
        -13    1    3    3    0    0  0.18732634131E+02 -0.39709829541E+02 -0.67008029547E+01  0.44414895068E+02  0.00000000000E+00 0.  1.
         13    1    3    3    0    0 -0.18732634131E+02  0.39709829541E+02  0.19201989267E+02  0.47921796037E+02  0.00000000000E+00 0. -1.
<mgrwt>
<rscale>  0 0.91486528E+02</rscale>
<asrwt>0</asrwt>
<pdfrwt beam="1">  1        2 0.80644521E-02 0.91486528E+02</pdfrwt>
<pdfrwt beam="2">  1       -2 0.61411927E-02 0.91486528E+02</pdfrwt>
<totfact> 0.10135350E+05</totfact>
</mgrwt>
</event>
<event>
 5    1  0.6043464E+000  0.9483738E+02  0.7546771E-02  0.1291543E+00
         -1   -1    0    0    0  501 -0.00000000000E+00  0.00000000000E+00  0.36407512791E+02  0.36407512791E+02  0.00000000000E+00 0.  1.
          1   -1    0    0  501    0  0.00000000000E+00 -0.00000000000E+00 -0.61760112272E+02  0.61760112272E+02  0.00000000000E+00 0. -1.
         23    2    1    2    0    0  0.00000000000E+00  0.00000000000E+00 -0.25352599480E+02  0.98167625063E+02  0.94837378233E+02 0.  0.
        -13    1    3    3    0    0  0.22902499706E+02 -0.11525832431E+02  0.28613811170E+02  0.38420300567E+02  0.00000000000E+00 0.  1.
         13    1    3    3    0    0 -0.22902499706E+02  0.11525832431E+02 -0.53966410650E+02  0.59747324496E+02  0.00000000000E+00 0. -1.
<mgrwt>
<rscale>  0 0.94837378E+02</rscale>
<asrwt>0</asrwt>
<pdfrwt beam="2">  1        1 0.95015557E-02 0.94837378E+02</pdfrwt>
<pdfrwt beam="1">  1       -1 0.56011558E-02 0.94837378E+02</pdfrwt>
<totfact> 0.86757046E+04</totfact>
</mgrwt>
</event>
<event>
 5    1  0.6043464E+000  0.9010013E+02  0.7546771E-02  0.1302609E+00
          1   -1    0    0  501    0  0.00000000000E+00  0.00000000000E+00  0.80181148484E+02  0.80181148484E+02  0.00000000000E+00 0. -1.
         -1   -1    0    0    0  501 -0.00000000000E+00 -0.00000000000E+00 -0.25311540318E+02  0.25311540318E+02  0.00000000000E+00 0.  1.
         23    2    1    2    0    0  0.00000000000E+00  0.00000000000E+00  0.54869608166E+02  0.10549268880E+03  0.90100130357E+02 0.  0.
        -13    1    3    3    0    0 -0.21821538375E+02  0.25797012741E+02  0.62321916318E+02  0.70892077533E+02  0.00000000000E+00 0.  1.
         13    1    3    3    0    0  0.21821538375E+02 -0.25797012741E+02 -0.74523081515E+01  0.34600611269E+02  0.00000000000E+00 0. -1.
<mgrwt>
<rscale>  0 0.90100130E+02</rscale>
<asrwt>0</asrwt>
<pdfrwt beam="1">  1        1 0.12335561E-01 0.90100130E+02</pdfrwt>
<pdfrwt beam="2">  1       -1 0.38940832E-02 0.90100130E+02</pdfrwt>
<totfact> 0.10411487E+05</totfact>
</mgrwt>
</event>
<event>
 5    1  0.6043464E+000  0.9607328E+02  0.7546771E-02  0.1288777E+00
          3   -1    0    0  501    0  0.00000000000E+00  0.00000000000E+00  0.16275483417E+02  0.16275483417E+02  0.00000000000E+00 0. -1.
         -3   -1    0    0    0  501 -0.00000000000E+00 -0.00000000000E+00 -0.14177882218E+03  0.14177882218E+03  0.00000000000E+00 0.  1.
         23    2    1    2    0    0  0.00000000000E+00  0.00000000000E+00 -0.12550333877E+03  0.15805430560E+03  0.96073281808E+02 0.  0.
        -13    1    3    3    0    0  0.50218912431E+01 -0.24654959356E+02 -0.13007064856E+03  0.13248192340E+03  0.00000000000E+00 0.  1.
         13    1    3    3    0    0 -0.50218912431E+01  0.24654959356E+02  0.45673097913E+01  0.25572382197E+02  0.00000000000E+00 0. -1.
<mgrwt>
<rscale>  0 0.96073282E+02</rscale>
<asrwt>0</asrwt>
<pdfrwt beam="1">  1        3 0.25039204E-02 0.96073282E+02</pdfrwt>
<pdfrwt beam="2">  1       -3 0.21812127E-01 0.96073282E+02</pdfrwt>
<totfact> 0.26736797E+04</totfact>
</mgrwt>
</event>
<event>
 5    1  0.6043464E+000  0.9177515E+02  0.7546771E-02  0.1298609E+00
          1   -1    0    0  501    0  0.00000000000E+00  0.00000000000E+00  0.13691610154E+03  0.13691610154E+03  0.00000000000E+00 0. -1.
         -1   -1    0    0    0  501 -0.00000000000E+00 -0.00000000000E+00 -0.15379269082E+02  0.15379269082E+02  0.00000000000E+00 0.  1.
         23    2    1    2    0    0  0.00000000000E+00  0.00000000000E+00  0.12153683246E+03  0.15229537062E+03  0.91775150606E+02 0.  0.
        -13    1    3    3    0    0  0.30837787386E+02  0.15175534970E+02  0.11122204465E+03  0.11641137920E+03  0.00000000000E+00 0. -1.
         13    1    3    3    0    0 -0.30837787386E+02 -0.15175534970E+02  0.10314787811E+02  0.35883991418E+02  0.00000000000E+00 0.  1.
<mgrwt>
<rscale>  0 0.91775151E+02</rscale>
<asrwt>0</asrwt>
<pdfrwt beam="1">  1        1 0.21064015E-01 0.91775151E+02</pdfrwt>
<pdfrwt beam="2">  1       -1 0.23660415E-02 0.91775151E+02</pdfrwt>
<totfact> 0.10835019E+05</totfact>
</mgrwt>
</event>
<event>
 5    1  0.6043464E+000  0.9218027E+02  0.7546771E-02  0.1297656E+00
         -2   -1    0    0    0  501 -0.00000000000E+00  0.00000000000E+00  0.70356417315E+02  0.70356417315E+02  0.00000000000E+00 0.  1.
          2   -1    0    0  501    0  0.00000000000E+00 -0.00000000000E+00 -0.30193416511E+02  0.30193416511E+02  0.00000000000E+00 0. -1.
         23    2    1    2    0    0  0.00000000000E+00  0.00000000000E+00  0.40163000804E+02  0.10054983383E+03  0.92180271473E+02 0.  0.
        -13    1    3    3    0    0  0.96304082287E+01 -0.30966484443E+02  0.55806224947E+02  0.64544578891E+02  0.00000000000E+00 0.  1.
         13    1    3    3    0    0 -0.96304082287E+01  0.30966484443E+02 -0.15643224143E+02  0.36005254935E+02  0.00000000000E+00 0. -1.
<mgrwt>
<rscale>  0 0.92180271E+02</rscale>
<asrwt>0</asrwt>
<pdfrwt beam="2">  1        2 0.46451410E-02 0.92180271E+02</pdfrwt>
<pdfrwt beam="1">  1       -2 0.10824064E-01 0.92180271E+02</pdfrwt>
<totfact> 0.85780840E+04</totfact>
</mgrwt>
</event>
<event>
 5    1  0.6043464E+000  0.9313867E+02  0.7546771E-02  0.1295424E+00
          1   -1    0    0  501    0  0.00000000000E+00  0.00000000000E+00  0.45191082322E+02  0.45191082322E+02  0.00000000000E+00 0.  1.
         -1   -1    0    0    0  501 -0.00000000000E+00 -0.00000000000E+00 -0.47989618112E+02  0.47989618112E+02  0.00000000000E+00 0. -1.
         23    2    1    2    0    0  0.00000000000E+00  0.00000000000E+00 -0.27985357894E+01  0.93180700434E+02  0.93138666143E+02 0.  0.
        -13    1    3    3    0    0 -0.15083765511E+02 -0.20121429525E+02  0.37814223259E+02  0.45412634682E+02  0.00000000000E+00 0.  1.
         13    1    3    3    0    0  0.15083765511E+02  0.20121429525E+02 -0.40612759048E+02  0.47768065752E+02  0.00000000000E+00 0. -1.
<mgrwt>
<rscale>  0 0.93138666E+02</rscale>
<asrwt>0</asrwt>
<pdfrwt beam="1">  1        1 0.69524742E-02 0.93138666E+02</pdfrwt>
<pdfrwt beam="2">  1       -1 0.73830181E-02 0.93138666E+02</pdfrwt>
<totfact> 0.86977655E+04</totfact>
</mgrwt>
</event>
<event>
 5    1  0.6043464E+000  0.9194304E+02  0.7546771E-02  0.1298213E+00
         -3   -1    0    0    0  501 -0.00000000000E+00  0.00000000000E+00  0.44998494850E+02  0.44998494850E+02  0.00000000000E+00 0.  1.
          3   -1    0    0  501    0  0.00000000000E+00 -0.00000000000E+00 -0.46965588431E+02  0.46965588431E+02  0.00000000000E+00 0. -1.
         23    2    1    2    0    0  0.00000000000E+00  0.00000000000E+00 -0.19670935811E+01  0.91964083281E+02  0.91943043003E+02 0.  0.
        -13    1    3    3    0    0  0.21591738362E+02 -0.19451507086E+02 -0.36612148714E+02  0.46744130400E+02  0.00000000000E+00 0. -1.
         13    1    3    3    0    0 -0.21591738362E+02  0.19451507086E+02  0.34645055133E+02  0.45219952881E+02  0.00000000000E+00 0.  1.
<mgrwt>
<rscale>  0 0.91943043E+02</rscale>
<asrwt>0</asrwt>
<pdfrwt beam="2">  1        3 0.72254751E-02 0.91943043E+02</pdfrwt>
<pdfrwt beam="1">  1       -3 0.69228454E-02 0.91943043E+02</pdfrwt>
<totfact> 0.34481070E+04</totfact>
</mgrwt>
</event>
<event>
 5    1  0.6043464E+000  0.9192562E+02  0.7546771E-02  0.1298254E+00
          1   -1    0    0  501    0  0.00000000000E+00  0.00000000000E+00  0.26225768772E+02  0.26225768772E+02  0.00000000000E+00 0. -1.
         -1   -1    0    0    0  501 -0.00000000000E+00 -0.00000000000E+00 -0.80553599837E+02  0.80553599837E+02  0.00000000000E+00 0.  1.
         23    2    1    2    0    0  0.00000000000E+00  0.00000000000E+00 -0.54327831064E+02  0.10677936861E+03  0.91925623916E+02 0.  0.
        -13    1    3    3    0    0 -0.10347336825E+02 -0.27187970688E+02 -0.68499462407E+02  0.74420625364E+02  0.00000000000E+00 0.  1.
         13    1    3    3    0    0  0.10347336825E+02  0.27187970688E+02  0.14171631342E+02  0.32358743245E+02  0.00000000000E+00 0. -1.
<mgrwt>
<rscale>  0 0.91925624E+02</rscale>
<asrwt>0</asrwt>
<pdfrwt beam="1">  1        1 0.40347337E-02 0.91925624E+02</pdfrwt>
<pdfrwt beam="2">  1       -1 0.12392861E-01 0.91925624E+02</pdfrwt>
<totfact> 0.82797694E+04</totfact>
</mgrwt>
</event>
<event>
 5    1  0.6043464E+000  0.9091809E+02  0.7546771E-02  0.1300644E+00
         -2   -1    0    0    0  501 -0.00000000000E+00  0.00000000000E+00  0.10634372056E+02  0.10634372056E+02  0.00000000000E+00 0.  1.
          2   -1    0    0  501    0  0.00000000000E+00 -0.00000000000E+00 -0.19432505720E+03  0.19432505720E+03  0.00000000000E+00 0. -1.
         23    2    1    2    0    0  0.00000000000E+00  0.00000000000E+00 -0.18369068514E+03  0.20495942926E+03  0.90918094088E+02 0.  0.
        -13    1    3    3    0    0 -0.10815315002E+02 -0.35362878678E+02 -0.15144758615E+03  0.15589700311E+03  0.00000000000E+00 0. -1.
         13    1    3    3    0    0  0.10815315002E+02  0.35362878678E+02 -0.32243098993E+02  0.49062426150E+02  0.00000000000E+00 0.  1.
<mgrwt>
<rscale>  0 0.90918094E+02</rscale>
<asrwt>0</asrwt>
<pdfrwt beam="2">  1        2 0.29896161E-01 0.90918094E+02</pdfrwt>
<pdfrwt beam="1">  1       -2 0.16360573E-02 0.90918094E+02</pdfrwt>
<totfact> 0.15425803E+05</totfact>
</mgrwt>
</event>
<event>
 5    1  0.6043464E+000  0.9142475E+02  0.7546771E-02  0.1299438E+00
         -1   -1    0    0    0  501 -0.00000000000E+00  0.00000000000E+00  0.80709895515E+02  0.80709895515E+02  0.00000000000E+00 0.  1.
          1   -1    0    0  501    0  0.00000000000E+00 -0.00000000000E+00 -0.25890519053E+02  0.25890519053E+02  0.00000000000E+00 0. -1.
         23    2    1    2    0    0  0.00000000000E+00  0.00000000000E+00  0.54819376462E+02  0.10660041457E+03  0.91424746926E+02 0.  0.
        -13    1    3    3    0    0 -0.40985647327E+02  0.16344951246E+02  0.41335366410E+02  0.60461502085E+02  0.00000000000E+00 0.  1.
         13    1    3    3    0    0  0.40985647327E+02 -0.16344951246E+02  0.13484010052E+02  0.46138912483E+02  0.00000000000E+00 0. -1.
<mgrwt>
<rscale>  0 0.91424747E+02</rscale>
<asrwt>0</asrwt>
<pdfrwt beam="2">  1        1 0.39831568E-02 0.91424747E+02</pdfrwt>
<pdfrwt beam="1">  1       -1 0.12416907E-01 0.91424747E+02</pdfrwt>
<totfact> 0.83937802E+04</totfact>
</mgrwt>
</event>
<event>
 5    1  0.6043464E+000  0.9203211E+02  0.7546771E-02  0.1298004E+00
          1   -1    0    0  501    0  0.00000000000E+00  0.00000000000E+00  0.15365431472E+02  0.15365431472E+02  0.00000000000E+00 0. -1.
         -1   -1    0    0    0  501 -0.00000000000E+00 -0.00000000000E+00 -0.13780786094E+03  0.13780786094E+03  0.00000000000E+00 0.  1.
         23    2    1    2    0    0  0.00000000000E+00  0.00000000000E+00 -0.12244242947E+03  0.15317329241E+03  0.92032108387E+02 0.  0.
        -13    1    3    3    0    0  0.10805648848E+02 -0.22871219131E+02 -0.12519844412E+03  0.12772824715E+03  0.00000000000E+00 0.  1.
         13    1    3    3    0    0 -0.10805648848E+02  0.22871219131E+02  0.27560146466E+01  0.25445045260E+02  0.00000000000E+00 0. -1.
<mgrwt>
<rscale>  0 0.92032108E+02</rscale>
<asrwt>0</asrwt>
<pdfrwt beam="1">  1        1 0.23639126E-02 0.92032108E+02</pdfrwt>
<pdfrwt beam="2">  1       -1 0.21201209E-01 0.92032108E+02</pdfrwt>
<totfact> 0.74423038E+04</totfact>
</mgrwt>
</event>
<event>
 5    1  0.6043464E+000  0.9069784E+02  0.7546771E-02  0.1301171E+00
         -2   -1    0    0    0  501 -0.00000000000E+00  0.00000000000E+00  0.54095453114E+01  0.54095453114E+01  0.00000000000E+00 0.  1.
          2   -1    0    0  501    0  0.00000000000E+00 -0.00000000000E+00 -0.38016590273E+03  0.38016590273E+03  0.00000000000E+00 0. -1.
         23    2    1    2    0    0  0.00000000000E+00  0.00000000000E+00 -0.37475635742E+03  0.38557544804E+03  0.90697842900E+02 0.  0.
        -13    1    3    3    0    0  0.34164435674E+02  0.26238237006E+02 -0.12712624918E+03  0.13422643918E+03  0.00000000000E+00 0.  1.
         13    1    3    3    0    0 -0.34164435674E+02 -0.26238237006E+02 -0.24763010824E+03  0.25134900886E+03  0.00000000000E+00 0. -1.
<mgrwt>
<rscale>  0 0.90697843E+02</rscale>
<asrwt>0</asrwt>
<pdfrwt beam="2">  1        2 0.58487066E-01 0.90697843E+02</pdfrwt>
<pdfrwt beam="1">  1       -2 0.83223769E-03 0.90697843E+02</pdfrwt>
<totfact> 0.19876471E+05</totfact>
</mgrwt>
</event>
<event>
 5    1  0.6043464E+000  0.9252503E+02  0.7546771E-02  0.1296850E+00
         -4   -1    0    0    0  501 -0.00000000000E+00  0.00000000000E+00  0.87798665366E+01  0.87798665366E+01  0.00000000000E+00 0.  1.
          4   -1    0    0  501    0  0.00000000000E+00 -0.00000000000E+00 -0.24376455401E+03  0.24376455401E+03  0.00000000000E+00 0. -1.
         23    2    1    2    0    0  0.00000000000E+00  0.00000000000E+00 -0.23498468748E+03  0.25254442055E+03  0.92525029059E+02 0.  0.
        -13    1    3    3    0    0 -0.32860092006E+02  0.25065105376E+02 -0.17423483726E+03  0.17906932643E+03  0.00000000000E+00 0. -1.
         13    1    3    3    0    0  0.32860092006E+02 -0.25065105376E+02 -0.60749850218E+02  0.73475094118E+02  0.00000000000E+00 0.  1.
<mgrwt>
<rscale>  0 0.92525029E+02</rscale>
<asrwt>0</asrwt>
<pdfrwt beam="2">  1        4 0.37502241E-01 0.92525029E+02</pdfrwt>
<pdfrwt beam="1">  1       -4 0.13507486E-02 0.92525029E+02</pdfrwt>
<totfact> 0.18628479E+04</totfact>
</mgrwt>
</event>
<event>
 5    1  0.6043464E+000  0.9249725E+02  0.7546771E-02  0.1296915E+00
         -1   -1    0    0    0  501 -0.00000000000E+00  0.00000000000E+00  0.19392497247E+02  0.19392497247E+02  0.00000000000E+00 0.  1.
          1   -1    0    0  501    0  0.00000000000E+00 -0.00000000000E+00 -0.11029704720E+03  0.11029704720E+03  0.00000000000E+00 0. -1.
         23    2    1    2    0    0  0.00000000000E+00  0.00000000000E+00 -0.90904549954E+02  0.12968954445E+03  0.92497247184E+02 0.  0.
        -13    1    3    3    0    0  0.26356561962E+02  0.77883657745E+01  0.67011360303E+01  0.28288376129E+02  0.00000000000E+00 0.  1.
         13    1    3    3    0    0 -0.26356561962E+02 -0.77883657745E+01 -0.97605685984E+02  0.10140116832E+03  0.00000000000E+00 0. -1.
<mgrwt>
<rscale>  0 0.92497247E+02</rscale>
<asrwt>0</asrwt>
<pdfrwt beam="2">  1        1 0.16968777E-01 0.92497247E+02</pdfrwt>
<pdfrwt beam="1">  1       -1 0.29834610E-02 0.92497247E+02</pdfrwt>
<totfact> 0.10211073E+05</totfact>
</mgrwt>
</event>
<event>
 5    1  0.6043464E+000  0.9402029E+02  0.7546771E-02  0.1293398E+00
         -3   -1    0    0    0  501 -0.00000000000E+00  0.00000000000E+00  0.28247621734E+02  0.28247621734E+02  0.00000000000E+00 0.  1.
          3   -1    0    0  501    0  0.00000000000E+00 -0.00000000000E+00 -0.78235033840E+02  0.78235033840E+02  0.00000000000E+00 0. -1.
         23    2    1    2    0    0  0.00000000000E+00  0.00000000000E+00 -0.49987412106E+02  0.10648265557E+03  0.94020288071E+02 0.  0.
        -13    1    3    3    0    0  0.33219839248E+02  0.14379258966E+02  0.89758557618E+01  0.37294594712E+02  0.00000000000E+00 0.  1.
         13    1    3    3    0    0 -0.33219839248E+02 -0.14379258966E+02 -0.58963267868E+02  0.69188060862E+02  0.00000000000E+00 0. -1.
<mgrwt>
<rscale>  0 0.94020288E+02</rscale>
<asrwt>0</asrwt>
<pdfrwt beam="2">  1        3 0.12036159E-01 0.94020288E+02</pdfrwt>
<pdfrwt beam="1">  1       -3 0.43457880E-02 0.94020288E+02</pdfrwt>
<totfact> 0.31448075E+04</totfact>
</mgrwt>
</event>
<event>
 5    1  0.6043464E+000  0.9097321E+02  0.7546771E-02  0.1300512E+00
         -4   -1    0    0    0  501 -0.00000000000E+00  0.00000000000E+00  0.61164474681E+01  0.61164474681E+01  0.00000000000E+00 0.  1.
          4   -1    0    0  501    0  0.00000000000E+00 -0.00000000000E+00 -0.33827335611E+03  0.33827335611E+03  0.00000000000E+00 0. -1.
         23    2    1    2    0    0  0.00000000000E+00  0.00000000000E+00 -0.33215690864E+03  0.34438980358E+03  0.90973209518E+02 0.  0.
        -13    1    3    3    0    0 -0.41921062302E+02  0.28420452848E+01 -0.10011972320E+03  0.10857905719E+03  0.00000000000E+00 0.  1.
         13    1    3    3    0    0  0.41921062302E+02 -0.28420452848E+01 -0.23203718544E+03  0.23581074639E+03  0.00000000000E+00 0. -1.
<mgrwt>
<rscale>  0 0.90973210E+02</rscale>
<asrwt>0</asrwt>
<pdfrwt beam="2">  1        4 0.52042048E-01 0.90973210E+02</pdfrwt>
<pdfrwt beam="1">  1       -4 0.94099204E-03 0.90973210E+02</pdfrwt>
<totfact> 0.16645264E+04</totfact>
</mgrwt>
</event>
<event>
 5    1  0.6043464E+000  0.8980640E+02  0.7546771E-02  0.1303321E+00
         -4   -1    0    0    0  501 -0.00000000000E+00  0.00000000000E+00  0.11595680438E+02  0.11595680438E+02  0.00000000000E+00 0. -1.
          4   -1    0    0  501    0  0.00000000000E+00 -0.00000000000E+00 -0.17388349345E+03  0.17388349345E+03  0.00000000000E+00 0.  1.
         23    2    1    2    0    0  0.00000000000E+00  0.00000000000E+00 -0.16228781302E+03  0.18547917389E+03  0.89806401187E+02 0.  0.
        -13    1    3    3    0    0 -0.51886472683E+01  0.43985106338E+02 -0.96416932090E+02  0.10610295205E+03  0.00000000000E+00 0.  1.
         13    1    3    3    0    0  0.51886472683E+01 -0.43985106338E+02 -0.65870880927E+02  0.79376221843E+02  0.00000000000E+00 0. -1.
<mgrwt>
<rscale>  0 0.89806401E+02</rscale>
<asrwt>0</asrwt>
<pdfrwt beam="2">  1        4 0.26751303E-01 0.89806401E+02</pdfrwt>
<pdfrwt beam="1">  1       -4 0.17839511E-02 0.89806401E+02</pdfrwt>
<totfact> 0.22917699E+04</totfact>
</mgrwt>
</event>
<event>
 5    1  0.6043464E+000  0.6934689E+02  0.7546771E-02  0.1362328E+00
         -1   -1    0    0    0  501 -0.00000000000E+00  0.00000000000E+00  0.10339045961E+02  0.10339045961E+02  0.00000000000E+00 0.  1.
          1   -1    0    0  501    0  0.00000000000E+00 -0.00000000000E+00 -0.11628225986E+03  0.11628225986E+03  0.00000000000E+00 0. -1.
         23    2    1    2    0    0  0.00000000000E+00  0.00000000000E+00 -0.10594321390E+03  0.12662130582E+03  0.69346885414E+02 0.  0.
        -13    1    3    3    0    0 -0.26332286891E+02  0.70328500350E+01 -0.13835821475E+02  0.30565998567E+02  0.00000000000E+00 0.  1.
         13    1    3    3    0    0  0.26332286891E+02 -0.70328500350E+01 -0.92107392423E+02  0.96055307253E+02  0.00000000000E+00 0. -1.
<mgrwt>
<rscale>  0 0.69346885E+02</rscale>
<asrwt>0</asrwt>
<pdfrwt beam="2">  1        1 0.17889579E-01 0.69346885E+02</pdfrwt>
<pdfrwt beam="1">  1       -1 0.15906224E-02 0.69346885E+02</pdfrwt>
<totfact> 0.22236485E+05</totfact>
</mgrwt>
</event>
<event>
 5    1  0.6043464E+000  0.9056245E+02  0.7546771E-02  0.1301495E+00
         -1   -1    0    0    0  501 -0.00000000000E+00  0.00000000000E+00  0.11866884977E+03  0.11866884977E+03  0.00000000000E+00 0.  1.
          1   -1    0    0  501    0  0.00000000000E+00 -0.00000000000E+00 -0.17278242548E+02  0.17278242548E+02  0.00000000000E+00 0. -1.
         23    2    1    2    0    0  0.00000000000E+00  0.00000000000E+00  0.10139060722E+03  0.13594709232E+03  0.90562446283E+02 0.  0.
        -13    1    3    3    0    0 -0.96258034298E+01  0.35682792549E+02  0.89968787541E+02  0.97264076140E+02  0.00000000000E+00 0.  1.
         13    1    3    3    0    0  0.96258034298E+01 -0.35682792549E+02  0.11421819681E+02  0.38683016178E+02  0.00000000000E+00 0. -1.
<mgrwt>
<rscale>  0 0.90562446E+02</rscale>
<asrwt>0</asrwt>
<pdfrwt beam="2">  1        1 0.26581912E-02 0.90562446E+02</pdfrwt>
<pdfrwt beam="1">  1       -1 0.18256746E-01 0.90562446E+02</pdfrwt>
<totfact> 0.80096077E+04</totfact>
</mgrwt>
</event>
<event>
 5    1  0.6043464E+000  0.9123115E+02  0.7546771E-02  0.1299897E+00
         -1   -1    0    0    0  501 -0.00000000000E+00  0.00000000000E+00  0.45714956560E+02  0.45714956560E+02  0.00000000000E+00 0.  1.
          1   -1    0    0  501    0  0.00000000000E+00 -0.00000000000E+00 -0.45516409213E+02  0.45516409213E+02  0.00000000000E+00 0. -1.
         23    2    1    2    0    0  0.00000000000E+00  0.00000000000E+00  0.19854734725E+00  0.91231365773E+02  0.91231149723E+02 0.  0.
        -13    1    3    3    0    0  0.41267067863E+02 -0.53374654497E+01  0.18789455509E+02  0.45656358437E+02  0.00000000000E+00 0.  1.
         13    1    3    3    0    0 -0.41267067863E+02  0.53374654497E+01 -0.18590908161E+02  0.45575007336E+02  0.00000000000E+00 0. -1.
<mgrwt>
<rscale>  0 0.91231150E+02</rscale>
<asrwt>0</asrwt>
<pdfrwt beam="2">  1        1 0.70025245E-02 0.91231150E+02</pdfrwt>
<pdfrwt beam="1">  1       -1 0.70330702E-02 0.91231150E+02</pdfrwt>
<totfact> 0.92295735E+04</totfact>
</mgrwt>
</event>
<event>
 5    1  0.6043464E+000  0.9342255E+02  0.7546771E-02  0.1294769E+00
          2   -1    0    0  501    0  0.00000000000E+00  0.00000000000E+00  0.21327704965E+03  0.21327704965E+03  0.00000000000E+00 0. -1.
         -2   -1    0    0    0  501 -0.00000000000E+00 -0.00000000000E+00 -0.10230557862E+02  0.10230557862E+02  0.00000000000E+00 0.  1.
         23    2    1    2    0    0  0.00000000000E+00  0.00000000000E+00  0.20304649179E+03  0.22350760751E+03  0.93422549677E+02 0.  0.
        -13    1    3    3    0    0 -0.26964163832E+02  0.21116294448E+02  0.25528827567E+02  0.42716332466E+02  0.00000000000E+00 0.  1.
         13    1    3    3    0    0  0.26964163832E+02 -0.21116294448E+02  0.17751766422E+03  0.18079127505E+03  0.00000000000E+00 0. -1.
<mgrwt>
<rscale>  0 0.93422550E+02</rscale>
<asrwt>0</asrwt>
<pdfrwt beam="1">  1        2 0.32811850E-01 0.93422550E+02</pdfrwt>
<pdfrwt beam="2">  1       -2 0.15739321E-02 0.93422550E+02</pdfrwt>
<totfact> 0.14828817E+05</totfact>
</mgrwt>
</event>
<event>
 5    1  0.6043464E+000  0.9119479E+02  0.7546771E-02  0.1299984E+00
         -2   -1    0    0    0  501 -0.00000000000E+00  0.00000000000E+00  0.43863333216E+02  0.43863333216E+02  0.00000000000E+00 0.  1.
          2   -1    0    0  501    0  0.00000000000E+00 -0.00000000000E+00 -0.47400013307E+02  0.47400013307E+02  0.00000000000E+00 0. -1.
         23    2    1    2    0    0  0.00000000000E+00  0.00000000000E+00 -0.35366800909E+01  0.91263346523E+02  0.91194793231E+02 0.  0.
        -13    1    3    3    0    0  0.13406919097E+02 -0.85864253860E+01  0.40991409705E+02  0.43974627346E+02  0.00000000000E+00 0.  1.
         13    1    3    3    0    0 -0.13406919097E+02  0.85864253860E+01 -0.44528089796E+02  0.47288719178E+02  0.00000000000E+00 0. -1.
<mgrwt>
<rscale>  0 0.91194793E+02</rscale>
<asrwt>0</asrwt>
<pdfrwt beam="2">  1        2 0.72923097E-02 0.91194793E+02</pdfrwt>
<pdfrwt beam="1">  1       -2 0.67482051E-02 0.91194793E+02</pdfrwt>
<totfact> 0.99622801E+04</totfact>
</mgrwt>
</event>
<event>
 5    1  0.6043464E+000  0.9543112E+02  0.7546771E-02  0.1290208E+00
          4   -1    0    0  501    0  0.00000000000E+00  0.00000000000E+00  0.11450280424E+03  0.11450280424E+03  0.00000000000E+00 0. -1.
         -4   -1    0    0    0  501 -0.00000000000E+00 -0.00000000000E+00 -0.19884006411E+02  0.19884006411E+02  0.00000000000E+00 0.  1.
         23    2    1    2    0    0  0.00000000000E+00  0.00000000000E+00  0.94618797833E+02  0.13438681066E+03  0.95431116387E+02 0.  0.
        -13    1    3    3    0    0  0.82830506354E+01  0.34571647458E+02  0.92128613282E+02  0.98749628460E+02  0.00000000000E+00 0. -1.
         13    1    3    3    0    0 -0.82830506354E+01 -0.34571647458E+02  0.24901845512E+01  0.35637182196E+02  0.00000000000E+00 0.  1.
<mgrwt>
<rscale>  0 0.95431116E+02</rscale>
<asrwt>0</asrwt>
<pdfrwt beam="1">  1        4 0.17615816E-01 0.95431116E+02</pdfrwt>
<pdfrwt beam="2">  1       -4 0.30590780E-02 0.95431116E+02</pdfrwt>
<totfact> 0.21636245E+04</totfact>
</mgrwt>
</event>
<event>
 5    1  0.6043464E+000  0.9081354E+02  0.7546771E-02  0.1300893E+00
          3   -1    0    0  501    0  0.00000000000E+00  0.00000000000E+00  0.21607889495E+03  0.21607889495E+03  0.00000000000E+00 0. -1.
         -3   -1    0    0    0  501 -0.00000000000E+00 -0.00000000000E+00 -0.95417674015E+01  0.95417674015E+01  0.00000000000E+00 0.  1.
         23    2    1    2    0    0  0.00000000000E+00  0.00000000000E+00  0.20653712755E+03  0.22562066235E+03  0.90813535466E+02 0.  0.
        -13    1    3    3    0    0 -0.71086415866E+01 -0.44846783579E+02  0.10304951950E+03  0.11260981419E+03  0.00000000000E+00 0.  1.
         13    1    3    3    0    0  0.71086415866E+01  0.44846783579E+02  0.10348760805E+03  0.11301084816E+03  0.00000000000E+00 0. -1.
<mgrwt>
<rscale>  0 0.90813535E+02</rscale>
<asrwt>0</asrwt>
<pdfrwt beam="1">  1        3 0.33242903E-01 0.90813535E+02</pdfrwt>
<pdfrwt beam="2">  1       -3 0.14679644E-02 0.90813535E+02</pdfrwt>
<totfact> 0.27520299E+04</totfact>
</mgrwt>
</event>
<event>
 5    1  0.6043464E+000  0.9013225E+02  0.7546771E-02  0.1302532E+00
          1   -1    0    0  501    0  0.00000000000E+00  0.00000000000E+00  0.22897671261E+03  0.22897671261E+03  0.00000000000E+00 0. -1.
         -1   -1    0    0    0  501 -0.00000000000E+00 -0.00000000000E+00 -0.88697033727E+01  0.88697033727E+01  0.00000000000E+00 0.  1.
         23    2    1    2    0    0  0.00000000000E+00  0.00000000000E+00  0.22010700924E+03  0.23784641599E+03  0.90132247728E+02 0.  0.
        -13    1    3    3    0    0 -0.43920762703E+02  0.54469427798E+01  0.13248427377E+03  0.13968101295E+03  0.00000000000E+00 0.  1.
         13    1    3    3    0    0  0.43920762703E+02 -0.54469427798E+01  0.87622735467E+02  0.98165403034E+02  0.00000000000E+00 0. -1.
<mgrwt>
<rscale>  0 0.90132248E+02</rscale>
<asrwt>0</asrwt>
<pdfrwt beam="1">  1        1 0.35227182E-01 0.90132248E+02</pdfrwt>
<pdfrwt beam="2">  1       -1 0.13645699E-02 0.90132248E+02</pdfrwt>
<totfact> 0.12537062E+05</totfact>
</mgrwt>
</event>
<event>
 5    1  0.6043464E+000  0.1009344E+03  0.7546771E-02  0.1278343E+00
          1   -1    0    0  501    0  0.00000000000E+00  0.00000000000E+00  0.27145719841E+02  0.27145719841E+02  0.00000000000E+00 0. -1.
         -1   -1    0    0    0  501 -0.00000000000E+00 -0.00000000000E+00 -0.93824742662E+02  0.93824742662E+02  0.00000000000E+00 0.  1.
         23    2    1    2    0    0  0.00000000000E+00  0.00000000000E+00 -0.66679022821E+02  0.12097046250E+03  0.10093443770E+03 0.  0.
        -13    1    3    3    0    0 -0.45931290235E+02  0.17909244290E+02 -0.20402551161E+02  0.53354367652E+02  0.00000000000E+00 0.  1.
         13    1    3    3    0    0  0.45931290235E+02 -0.17909244290E+02 -0.46276471660E+02  0.67616094851E+02  0.00000000000E+00 0. -1.
<mgrwt>
<rscale>  0 0.10093444E+03</rscale>
<asrwt>0</asrwt>
<pdfrwt beam="1">  1        1 0.41762645E-02 0.10093444E+03</pdfrwt>
<pdfrwt beam="2">  1       -1 0.14434576E-01 0.10093444E+03</pdfrwt>
<totfact> 0.63357285E+04</totfact>
</mgrwt>
</event>
<event>
 5    1  0.6043464E+000  0.9278319E+02  0.7546771E-02  0.1296248E+00
         -2   -1    0    0    0  501 -0.00000000000E+00  0.00000000000E+00  0.11646760765E+03  0.11646760765E+03  0.00000000000E+00 0. -1.
          2   -1    0    0  501    0  0.00000000000E+00 -0.00000000000E+00 -0.18478788547E+02  0.18478788547E+02  0.00000000000E+00 0.  1.
         23    2    1    2    0    0  0.00000000000E+00  0.00000000000E+00  0.97988819099E+02  0.13494639619E+03  0.92783194476E+02 0.  0.
        -13    1    3    3    0    0  0.11115537735E+02  0.43470137418E+02  0.66140142004E+02  0.79923253253E+02  0.00000000000E+00 0. -1.
         13    1    3    3    0    0 -0.11115537735E+02 -0.43470137418E+02  0.31848677095E+02  0.55023142940E+02  0.00000000000E+00 0.  1.
<mgrwt>
<rscale>  0 0.92783194E+02</rscale>
<asrwt>0</asrwt>
<pdfrwt beam="2">  1        2 0.28428906E-02 0.92783194E+02</pdfrwt>
<pdfrwt beam="1">  1       -2 0.17918093E-01 0.92783194E+02</pdfrwt>
<totfact> 0.72879839E+04</totfact>
</mgrwt>
</event>
<event>
 5    1  0.6043464E+000  0.8992800E+02  0.7546771E-02  0.1303026E+00
         -1   -1    0    0    0  501 -0.00000000000E+00  0.00000000000E+00  0.91368031451E+02  0.91368031451E+02  0.00000000000E+00 0.  1.
          1   -1    0    0  501    0  0.00000000000E+00 -0.00000000000E+00 -0.22127667340E+02  0.22127667340E+02  0.00000000000E+00 0. -1.
         23    2    1    2    0    0  0.00000000000E+00  0.00000000000E+00  0.69240364111E+02  0.11349569879E+03  0.89928002434E+02 0.  0.
        -13    1    3    3    0    0 -0.69257320362E+01 -0.44150063521E+02  0.40875728088E+02  0.60564172742E+02  0.00000000000E+00 0.  1.
         13    1    3    3    0    0  0.69257320362E+01  0.44150063521E+02  0.28364636024E+02  0.52931526050E+02  0.00000000000E+00 0. -1.
<mgrwt>
<rscale>  0 0.89928002E+02</rscale>
<asrwt>0</asrwt>
<pdfrwt beam="2">  1        1 0.34042566E-02 0.89928002E+02</pdfrwt>
<pdfrwt beam="1">  1       -1 0.14056620E-01 0.89928002E+02</pdfrwt>
<totfact> 0.85700412E+04</totfact>
</mgrwt>
</event>
<event>
 5    1  0.6043464E+000  0.8224670E+02  0.7546771E-02  0.1322794E+00
          1   -1    0    0  501    0  0.00000000000E+00  0.00000000000E+00  0.73408507253E+01  0.73408507253E+01  0.00000000000E+00 0. -1.
         -1   -1    0    0    0  501 -0.00000000000E+00 -0.00000000000E+00 -0.23037249277E+03  0.23037249277E+03  0.00000000000E+00 0.  1.
         23    2    1    2    0    0  0.00000000000E+00  0.00000000000E+00 -0.22303164205E+03  0.23771334350E+03  0.82246704023E+02 0.  0.
        -13    1    3    3    0    0 -0.11588144562E+02  0.29082778150E+02 -0.18858507557E+03  0.19116595881E+03  0.00000000000E+00 0.  1.
         13    1    3    3    0    0  0.11588144562E+02 -0.29082778150E+02 -0.34446566476E+02  0.46547384688E+02  0.00000000000E+00 0. -1.
<mgrwt>
<rscale>  0 0.82246704E+02</rscale>
<asrwt>0</asrwt>
<pdfrwt beam="1">  1        1 0.11293618E-02 0.82246704E+02</pdfrwt>
<pdfrwt beam="2">  1       -1 0.35441919E-01 0.82246704E+02</pdfrwt>
<totfact> 0.86966823E+04</totfact>
</mgrwt>
</event>
<event>
 5    1  0.6043464E+000  0.9835278E+02  0.7546771E-02  0.1283798E+00
         -2   -1    0    0    0  501 -0.00000000000E+00  0.00000000000E+00  0.40747285695E+02  0.40747285695E+02  0.00000000000E+00 0.  1.
          2   -1    0    0  501    0  0.00000000000E+00 -0.00000000000E+00 -0.59349160345E+02  0.59349160345E+02  0.00000000000E+00 0. -1.
         23    2    1    2    0    0  0.00000000000E+00  0.00000000000E+00 -0.18601874650E+02  0.10009644604E+03  0.98352777131E+02 0.  0.
        -13    1    3    3    0    0  0.31201773361E+02  0.31541248497E+02 -0.30888212815E+02  0.54059991755E+02  0.00000000000E+00 0. -1.
         13    1    3    3    0    0 -0.31201773361E+02 -0.31541248497E+02  0.12286338166E+02  0.46036454285E+02  0.00000000000E+00 0.  1.
<mgrwt>
<rscale>  0 0.98352777E+02</rscale>
<asrwt>0</asrwt>
<pdfrwt beam="2">  1        2 0.91306401E-02 0.98352777E+02</pdfrwt>
<pdfrwt beam="1">  1       -2 0.62688132E-02 0.98352777E+02</pdfrwt>
<totfact> 0.85257844E+04</totfact>
</mgrwt>
</event>
<event>
 5    1  0.6043464E+000  0.8964704E+02  0.7546771E-02  0.1303709E+00
         -2   -1    0    0    0  501 -0.00000000000E+00  0.00000000000E+00  0.55487556731E+02  0.55487556731E+02  0.00000000000E+00 0.  1.
          2   -1    0    0  501    0  0.00000000000E+00 -0.00000000000E+00 -0.36208982697E+02  0.36208982697E+02  0.00000000000E+00 0. -1.
         23    2    1    2    0    0  0.00000000000E+00  0.00000000000E+00  0.19278574035E+02  0.91696539428E+02  0.89647040812E+02 0.  0.
        -13    1    3    3    0    0  0.35855947911E+02  0.11125789418E+02  0.34688248773E+02  0.51114643633E+02  0.00000000000E+00 0.  1.
         13    1    3    3    0    0 -0.35855947911E+02 -0.11125789418E+02 -0.15409674738E+02  0.40581895795E+02  0.00000000000E+00 0. -1.
<mgrwt>
<rscale>  0 0.89647041E+02</rscale>
<asrwt>0</asrwt>
<pdfrwt beam="2">  1        2 0.55706127E-02 0.89647041E+02</pdfrwt>
<pdfrwt beam="1">  1       -2 0.85365472E-02 0.89647041E+02</pdfrwt>
<totfact> 0.97650914E+04</totfact>
</mgrwt>
</event>
<event>
 5    1  0.6043464E+000  0.9072826E+02  0.7546771E-02  0.1301098E+00
         -2   -1    0    0    0  501 -0.00000000000E+00  0.00000000000E+00  0.11957322602E+03  0.11957322602E+03  0.00000000000E+00 0.  1.
          2   -1    0    0  501    0  0.00000000000E+00 -0.00000000000E+00 -0.17210408808E+02  0.17210408808E+02  0.00000000000E+00 0. -1.
         23    2    1    2    0    0  0.00000000000E+00  0.00000000000E+00  0.10236281721E+03  0.13678363483E+03  0.90728255848E+02 0.  0.
        -13    1    3    3    0    0  0.34526801668E+02 -0.48620148280E+01  0.74301912444E+01  0.35650343105E+02  0.00000000000E+00 0. -1.
         13    1    3    3    0    0 -0.34526801668E+02  0.48620148280E+01  0.94932625967E+02  0.10113329172E+03  0.00000000000E+00 0.  1.
<mgrwt>
<rscale>  0 0.90728256E+02</rscale>
<asrwt>0</asrwt>
<pdfrwt beam="2">  1        2 0.26477553E-02 0.90728256E+02</pdfrwt>
<pdfrwt beam="1">  1       -2 0.18395880E-01 0.90728256E+02</pdfrwt>
<totfact> 0.76443429E+04</totfact>
</mgrwt>
</event>
<event>
 5    1  0.6043464E+000  0.8987464E+02  0.7546771E-02  0.1303156E+00
          2   -1    0    0  501    0  0.00000000000E+00  0.00000000000E+00  0.16040098719E+03  0.16040098719E+03  0.00000000000E+00 0. -1.
         -2   -1    0    0    0  501 -0.00000000000E+00 -0.00000000000E+00 -0.12589464994E+02  0.12589464994E+02  0.00000000000E+00 0.  1.
         23    2    1    2    0    0  0.00000000000E+00  0.00000000000E+00  0.14781152220E+03  0.17299045219E+03  0.89874637430E+02 0.  0.
        -13    1    3    3    0    0 -0.26017310811E+02  0.24872744442E+02  0.12568991594E+03  0.13074214641E+03  0.00000000000E+00 0.  1.
         13    1    3    3    0    0  0.26017310811E+02 -0.24872744442E+02  0.22121606259E+02  0.42248305781E+02  0.00000000000E+00 0. -1.
<mgrwt>
<rscale>  0 0.89874637E+02</rscale>
<asrwt>0</asrwt>
<pdfrwt beam="1">  1        2 0.24677073E-01 0.89874637E+02</pdfrwt>
<pdfrwt beam="2">  1       -2 0.19368409E-02 0.89874637E+02</pdfrwt>
<totfact> 0.14873461E+05</totfact>
</mgrwt>
</event>
<event>
 5    1  0.6043464E+000  0.9097702E+02  0.7546771E-02  0.1300503E+00
         -2   -1    0    0    0  501 -0.00000000000E+00  0.00000000000E+00  0.12051968606E+03  0.12051968606E+03  0.00000000000E+00 0.  1.
          2   -1    0    0  501    0  0.00000000000E+00 -0.00000000000E+00 -0.17169018183E+02  0.17169018183E+02  0.00000000000E+00 0. -1.
         23    2    1    2    0    0  0.00000000000E+00  0.00000000000E+00  0.10335066788E+03  0.13768870424E+03  0.90977023063E+02 0.  0.
        -13    1    3    3    0    0  0.40417245383E+02  0.10118558754E+02  0.24046540668E+02  0.48105873589E+02  0.00000000000E+00 0. -1.
         13    1    3    3    0    0 -0.40417245383E+02 -0.10118558754E+02  0.79304127211E+02  0.89582830656E+02  0.00000000000E+00 0.  1.
<mgrwt>
<rscale>  0 0.90977023E+02</rscale>
<asrwt>0</asrwt>
<pdfrwt beam="2">  1        2 0.26413875E-02 0.90977023E+02</pdfrwt>
<pdfrwt beam="1">  1       -2 0.18541490E-01 0.90977023E+02</pdfrwt>
<totfact> 0.75727399E+04</totfact>
</mgrwt>
</event>
<event>
 5    1  0.6043464E+000  0.8780320E+02  0.7546771E-02  0.1308260E+00
          1   -1    0    0  501    0  0.00000000000E+00  0.00000000000E+00  0.95679113512E+01  0.95679113512E+01  0.00000000000E+00 0. -1.
         -1   -1    0    0    0  501 -0.00000000000E+00 -0.00000000000E+00 -0.20143900021E+03  0.20143900021E+03  0.00000000000E+00 0.  1.
         23    2    1    2    0    0  0.00000000000E+00  0.00000000000E+00 -0.19187108886E+03  0.21100691156E+03  0.87803200321E+02 0.  0.
        -13    1    3    3    0    0 -0.33957570871E+02 -0.21333796360E+01 -0.29263747448E+02  0.44877999541E+02  0.00000000000E+00 0. -1.
         13    1    3    3    0    0  0.33957570871E+02  0.21333796360E+01 -0.16260734141E+03  0.16612891202E+03  0.00000000000E+00 0.  1.
<mgrwt>
<rscale>  0 0.87803200E+02</rscale>
<asrwt>0</asrwt>
<pdfrwt beam="1">  1        1 0.14719865E-02 0.87803200E+02</pdfrwt>
<pdfrwt beam="2">  1       -1 0.30990613E-01 0.87803200E+02</pdfrwt>
<totfact> 0.76420232E+04</totfact>
</mgrwt>
</event>
<event>
 5    1  0.6043464E+000  0.8955525E+02  0.7546771E-02  0.1303932E+00
          1   -1    0    0  501    0  0.00000000000E+00  0.00000000000E+00  0.48328285997E+02  0.48328285997E+02  0.00000000000E+00 0. -1.
         -1   -1    0    0    0  501 -0.00000000000E+00 -0.00000000000E+00 -0.41487833369E+02  0.41487833369E+02  0.00000000000E+00 0.  1.
         23    2    1    2    0    0  0.00000000000E+00  0.00000000000E+00  0.68404526281E+01  0.89816119366E+02  0.89555253926E+02 0.  0.
        -13    1    3    3    0    0 -0.23416476053E+02  0.15589219706E+02 -0.31519174260E+02  0.42247052770E+02  0.00000000000E+00 0.  1.
         13    1    3    3    0    0  0.23416476053E+02 -0.15589219706E+02  0.38359626888E+02  0.47569066595E+02  0.00000000000E+00 0. -1.
<mgrwt>
<rscale>  0 0.89555254E+02</rscale>
<asrwt>0</asrwt>
<pdfrwt beam="1">  1        1 0.74351209E-02 0.89555254E+02</pdfrwt>
<pdfrwt beam="2">  1       -1 0.63827436E-02 0.89555254E+02</pdfrwt>
<totfact> 0.98081501E+04</totfact>
</mgrwt>
</event>
<event>
 5    1  0.6043464E+000  0.9713123E+02  0.7546771E-02  0.1286447E+00
         -3   -1    0    0    0  501 -0.00000000000E+00  0.00000000000E+00  0.15754324774E+03  0.15754324774E+03  0.00000000000E+00 0.  1.
          3   -1    0    0  501    0  0.00000000000E+00 -0.00000000000E+00 -0.14971248154E+02  0.14971248154E+02  0.00000000000E+00 0. -1.
         23    2    1    2    0    0  0.00000000000E+00  0.00000000000E+00  0.14257199958E+03  0.17251449589E+03  0.97131231988E+02 0.  0.
        -13    1    3    3    0    0  0.20365111174E+02  0.26036122288E+02  0.13448116162E+03  0.13848393498E+03  0.00000000000E+00 0.  1.
         13    1    3    3    0    0 -0.20365111174E+02 -0.26036122288E+02  0.80908379631E+01  0.34030560911E+02  0.00000000000E+00 0. -1.
<mgrwt>
<rscale>  0 0.97131232E+02</rscale>
<asrwt>0</asrwt>
<pdfrwt beam="2">  1        3 0.23032691E-02 0.97131232E+02</pdfrwt>
<pdfrwt beam="1">  1       -3 0.24237422E-01 0.97131232E+02</pdfrwt>
<totfact> 0.25249044E+04</totfact>
</mgrwt>
</event>
<event>
 5    1  0.6043464E+000  0.9034442E+02  0.7546771E-02  0.1302020E+00
         -2   -1    0    0    0  501 -0.00000000000E+00  0.00000000000E+00  0.64521710899E+01  0.64521710899E+01  0.00000000000E+00 0. -1.
          2   -1    0    0  501    0  0.00000000000E+00 -0.00000000000E+00 -0.31625459045E+03  0.31625459045E+03  0.00000000000E+00 0.  1.
         23    2    1    2    0    0  0.00000000000E+00  0.00000000000E+00 -0.30980241936E+03  0.32270676154E+03  0.90344423747E+02 0.  0.
        -13    1    3    3    0    0  0.40661136169E+02  0.17752449430E+02 -0.18522109356E+03  0.19046083837E+03  0.00000000000E+00 0.  1.
         13    1    3    3    0    0 -0.40661136169E+02 -0.17752449430E+02 -0.12458132580E+03  0.13224592317E+03  0.00000000000E+00 0. -1.
<mgrwt>
<rscale>  0 0.90344424E+02</rscale>
<asrwt>0</asrwt>
<pdfrwt beam="2">  1        2 0.48654543E-01 0.90344424E+02</pdfrwt>
<pdfrwt beam="1">  1       -2 0.99264190E-03 0.90344424E+02</pdfrwt>
<totfact> 0.18774878E+05</totfact>
</mgrwt>
</event>
<event>
 5    1  0.6043464E+000  0.9340511E+02  0.7546771E-02  0.1294809E+00
          1   -1    0    0  501    0  0.00000000000E+00  0.00000000000E+00  0.77223237705E+01  0.77223237705E+01  0.00000000000E+00 0. -1.
         -1   -1    0    0    0  501 -0.00000000000E+00 -0.00000000000E+00 -0.28244461423E+03  0.28244461423E+03  0.00000000000E+00 0.  1.
         23    2    1    2    0    0  0.00000000000E+00  0.00000000000E+00 -0.27472229046E+03  0.29016693800E+03  0.93405112458E+02 0.  0.
        -13    1    3    3    0    0 -0.68294079623E+01  0.44958690836E+02 -0.17041394764E+03  0.17637697765E+03  0.00000000000E+00 0. -1.
         13    1    3    3    0    0  0.68294079623E+01 -0.44958690836E+02 -0.10430834282E+03  0.11378996035E+03  0.00000000000E+00 0.  1.
<mgrwt>
<rscale>  0 0.93405112E+02</rscale>
<asrwt>0</asrwt>
<pdfrwt beam="1">  1        1 0.11880499E-02 0.93405112E+02</pdfrwt>
<pdfrwt beam="2">  1       -1 0.43453015E-01 0.93405112E+02</pdfrwt>
<totfact> 0.58208194E+04</totfact>
</mgrwt>
</event>
<event>
 5    1  0.6043464E+000  0.9437268E+02  0.7546771E-02  0.1292595E+00
         -1   -1    0    0    0  501 -0.00000000000E+00  0.00000000000E+00  0.25790523435E+03  0.25790523435E+03  0.00000000000E+00 0.  1.
          1   -1    0    0  501    0  0.00000000000E+00 -0.00000000000E+00 -0.86332129098E+01  0.86332129098E+01  0.00000000000E+00 0. -1.
         23    2    1    2    0    0  0.00000000000E+00  0.00000000000E+00  0.24927202144E+03  0.26653844726E+03  0.94372682461E+02 0.  0.
        -13    1    3    3    0    0 -0.24447339902E+02  0.35466074820E+02  0.70233175443E+02  0.82390617332E+02  0.00000000000E+00 0. -1.
         13    1    3    3    0    0  0.24447339902E+02 -0.35466074820E+02  0.17903884600E+03  0.18414782993E+03  0.00000000000E+00 0.  1.
<mgrwt>
<rscale>  0 0.94372682E+02</rscale>
<asrwt>0</asrwt>
<pdfrwt beam="2">  1        1 0.13281868E-02 0.94372682E+02</pdfrwt>
<pdfrwt beam="1">  1       -1 0.39677723E-01 0.94372682E+02</pdfrwt>
<totfact> 0.58553266E+04</totfact>
</mgrwt>
</event>
<event>
 5    1  0.6043464E+000  0.9189940E+02  0.7546771E-02  0.1298316E+00
         -2   -1    0    0    0  501 -0.00000000000E+00  0.00000000000E+00  0.43032512998E+02  0.43032512998E+02  0.00000000000E+00 0.  1.
          2   -1    0    0  501    0  0.00000000000E+00 -0.00000000000E+00 -0.49064644806E+02  0.49064644806E+02  0.00000000000E+00 0. -1.
         23    2    1    2    0    0  0.00000000000E+00  0.00000000000E+00 -0.60321318084E+01  0.92097157804E+02  0.91899400768E+02 0.  0.
        -13    1    3    3    0    0  0.32449259320E+02 -0.32332556444E+02 -0.66330330622E+01  0.46285481138E+02  0.00000000000E+00 0. -1.
         13    1    3    3    0    0 -0.32449259320E+02  0.32332556444E+02  0.60090125375E+00  0.45811676666E+02  0.00000000000E+00 0.  1.
<mgrwt>
<rscale>  0 0.91899401E+02</rscale>
<asrwt>0</asrwt>
<pdfrwt beam="2">  1        2 0.75484069E-02 0.91899401E+02</pdfrwt>
<pdfrwt beam="1">  1       -2 0.66203866E-02 0.91899401E+02</pdfrwt>
<totfact> 0.98333901E+04</totfact>
</mgrwt>
</event>
<event>
 5    1  0.6043464E+000  0.9230400E+02  0.7546771E-02  0.1297366E+00
         -2   -1    0    0    0  501 -0.00000000000E+00  0.00000000000E+00  0.58290678620E+01  0.58290678620E+01  0.00000000000E+00 0.  1.
          2   -1    0    0  501    0  0.00000000000E+00 -0.00000000000E+00 -0.36541128125E+03  0.36541128125E+03  0.00000000000E+00 0. -1.
         23    2    1    2    0    0  0.00000000000E+00  0.00000000000E+00 -0.35958221339E+03  0.37124034912E+03  0.92304001126E+02 0.  0.
        -13    1    3    3    0    0 -0.47842878788E+01 -0.44222543701E+02 -0.13028958336E+03  0.13767315756E+03  0.00000000000E+00 0.  1.
         13    1    3    3    0    0  0.47842878788E+01  0.44222543701E+02 -0.22929263003E+03  0.23356719155E+03  0.00000000000E+00 0. -1.
<mgrwt>
<rscale>  0 0.92304001E+02</rscale>
<asrwt>0</asrwt>
<pdfrwt beam="2">  1        2 0.56217126E-01 0.92304001E+02</pdfrwt>
<pdfrwt beam="1">  1       -2 0.89677958E-03 0.92304001E+02</pdfrwt>
<totfact> 0.18699188E+05</totfact>
</mgrwt>
</event>
<event>
 5    1  0.6043464E+000  0.9101435E+02  0.7546771E-02  0.1300414E+00
         -2   -1    0    0    0  501 -0.00000000000E+00  0.00000000000E+00  0.15925659523E+03  0.15925659523E+03  0.00000000000E+00 0.  1.
          2   -1    0    0  501    0  0.00000000000E+00 -0.00000000000E+00 -0.13003562880E+02  0.13003562880E+02  0.00000000000E+00 0. -1.
         23    2    1    2    0    0  0.00000000000E+00  0.00000000000E+00  0.14625303235E+03  0.17226015811E+03  0.91014353817E+02 0.  0.
        -13    1    3    3    0    0 -0.29847380635E+02 -0.84759386873E+01  0.13613269468E+03  0.13962384548E+03  0.00000000000E+00 0.  1.
         13    1    3    3    0    0  0.29847380635E+02  0.84759386873E+01  0.10120337675E+02  0.32636312630E+02  0.00000000000E+00 0. -1.
<mgrwt>
<rscale>  0 0.91014354E+02</rscale>
<asrwt>0</asrwt>
<pdfrwt beam="2">  1        2 0.20005482E-02 0.91014354E+02</pdfrwt>
<pdfrwt beam="1">  1       -2 0.24501013E-01 0.91014354E+02</pdfrwt>
<totfact> 0.68634931E+04</totfact>
</mgrwt>
</event>
<event>
 5    1  0.6043464E+000  0.9123249E+02  0.7546771E-02  0.1299894E+00
         -4   -1    0    0    0  501 -0.00000000000E+00  0.00000000000E+00  0.17569370463E+03  0.17569370463E+03  0.00000000000E+00 0.  1.
          4   -1    0    0  501    0  0.00000000000E+00 -0.00000000000E+00 -0.11843575252E+02  0.11843575252E+02  0.00000000000E+00 0. -1.
         23    2    1    2    0    0  0.00000000000E+00  0.00000000000E+00  0.16385012938E+03  0.18753727988E+03  0.91232485707E+02 0.  0.
        -13    1    3    3    0    0 -0.32260091010E+02 -0.21580210134E+02  0.13119181205E+03  0.13681268395E+03  0.00000000000E+00 0.  1.
         13    1    3    3    0    0  0.32260091010E+02  0.21580210134E+02  0.32658317326E+02  0.50724595928E+02  0.00000000000E+00 0. -1.
<mgrwt>
<rscale>  0 0.91232486E+02</rscale>
<asrwt>0</asrwt>
<pdfrwt beam="2">  1        4 0.18220886E-02 0.91232486E+02</pdfrwt>
<pdfrwt beam="1">  1       -4 0.27029799E-01 0.91232486E+02</pdfrwt>
<totfact> 0.21882406E+04</totfact>
</mgrwt>
</event>
<event>
 5    1  0.6043464E+000  0.9206136E+02  0.7546771E-02  0.1297935E+00
         -1   -1    0    0    0  501 -0.00000000000E+00  0.00000000000E+00  0.40212021929E+02  0.40212021929E+02  0.00000000000E+00 0.  1.
          1   -1    0    0  501    0  0.00000000000E+00 -0.00000000000E+00 -0.52691295380E+02  0.52691295380E+02  0.00000000000E+00 0. -1.
         23    2    1    2    0    0  0.00000000000E+00  0.00000000000E+00 -0.12479273451E+02  0.92903317309E+02  0.92061360522E+02 0.  0.
        -13    1    3    3    0    0  0.16721170857E+02  0.32678557520E+02 -0.34266607073E+02  0.50216392112E+02  0.00000000000E+00 0. -1.
         13    1    3    3    0    0 -0.16721170857E+02 -0.32678557520E+02  0.21787333622E+02  0.42686925197E+02  0.00000000000E+00 0.  1.
<mgrwt>
<rscale>  0 0.92061361E+02</rscale>
<asrwt>0</asrwt>
<pdfrwt beam="2">  1        1 0.81063531E-02 0.92061361E+02</pdfrwt>
<pdfrwt beam="1">  1       -1 0.61864649E-02 0.92061361E+02</pdfrwt>
<totfact> 0.91989940E+04</totfact>
</mgrwt>
</event>
<event>
 5    1  0.6043464E+000  0.9083455E+02  0.7546771E-02  0.1300843E+00
         -1   -1    0    0    0  501 -0.00000000000E+00  0.00000000000E+00  0.19105096475E+03  0.19105096475E+03  0.00000000000E+00 0.  1.
          1   -1    0    0  501    0  0.00000000000E+00 -0.00000000000E+00 -0.10796746427E+02  0.10796746427E+02  0.00000000000E+00 0. -1.
         23    2    1    2    0    0  0.00000000000E+00  0.00000000000E+00  0.18025421832E+03  0.20184771118E+03  0.90834548958E+02 0.  0.
        -13    1    3    3    0    0 -0.18491989833E+02 -0.26014751969E+02  0.18327076873E+02  0.36804928402E+02  0.00000000000E+00 0. -1.
         13    1    3    3    0    0  0.18491989833E+02  0.26014751969E+02  0.16192714145E+03  0.16504278277E+03  0.00000000000E+00 0.  1.
<mgrwt>
<rscale>  0 0.90834549E+02</rscale>
<asrwt>0</asrwt>
<pdfrwt beam="2">  1        1 0.16610381E-02 0.90834549E+02</pdfrwt>
<pdfrwt beam="1">  1       -1 0.29392454E-01 0.90834549E+02</pdfrwt>
<totfact> 0.71016604E+04</totfact>
</mgrwt>
</event>
<event>
 5    1  0.6043464E+000  0.9282304E+02  0.7546771E-02  0.1296156E+00
         -1   -1    0    0    0  501 -0.00000000000E+00  0.00000000000E+00  0.38417110483E+02  0.38417110483E+02  0.00000000000E+00 0.  1.
          1   -1    0    0  501    0  0.00000000000E+00 -0.00000000000E+00 -0.56069525370E+02  0.56069525370E+02  0.00000000000E+00 0. -1.
         23    2    1    2    0    0  0.00000000000E+00  0.00000000000E+00 -0.17652414888E+02  0.94486635853E+02  0.92823039185E+02 0.  0.
        -13    1    3    3    0    0 -0.16794090309E+02  0.27259277120E+01  0.35128200517E+02  0.39031559317E+02  0.00000000000E+00 0.  1.
         13    1    3    3    0    0  0.16794090309E+02 -0.27259277120E+01 -0.52780615404E+02  0.55455076536E+02  0.00000000000E+00 0. -1.
<mgrwt>
<rscale>  0 0.92823039E+02</rscale>
<asrwt>0</asrwt>
<pdfrwt beam="2">  1        1 0.86260808E-02 0.92823039E+02</pdfrwt>
<pdfrwt beam="1">  1       -1 0.59103247E-02 0.92823039E+02</pdfrwt>
<totfact> 0.90749273E+04</totfact>
</mgrwt>
</event>
<event>
 5    1  0.6043464E+000  0.9277633E+02  0.7546771E-02  0.1296264E+00
         -4   -1    0    0    0  501 -0.00000000000E+00  0.00000000000E+00  0.69767138046E+02  0.69767138046E+02  0.00000000000E+00 0. -1.
          4   -1    0    0  501    0  0.00000000000E+00 -0.00000000000E+00 -0.30843485151E+02  0.30843485151E+02  0.00000000000E+00 0.  1.
         23    2    1    2    0    0  0.00000000000E+00  0.00000000000E+00  0.38923652895E+02  0.10061062320E+03  0.92776326428E+02 0.  0.
        -13    1    3    3    0    0  0.40074886969E+02 -0.10783309584E+02 -0.30148141213E+01  0.41609679587E+02  0.00000000000E+00 0.  1.
         13    1    3    3    0    0 -0.40074886969E+02  0.10783309584E+02  0.41938467016E+02  0.59000943610E+02  0.00000000000E+00 0. -1.
<mgrwt>
<rscale>  0 0.92776326E+02</rscale>
<asrwt>0</asrwt>
<pdfrwt beam="2">  1        4 0.47451516E-02 0.92776326E+02</pdfrwt>
<pdfrwt beam="1">  1       -4 0.10733406E-01 0.92776326E+02</pdfrwt>
<totfact> 0.25200397E+04</totfact>
</mgrwt>
</event>
<event>
 5    1  0.6043464E+000  0.9088312E+02  0.7546771E-02  0.1300727E+00
         -1   -1    0    0    0  501 -0.00000000000E+00  0.00000000000E+00  0.15998965133E+03  0.15998965133E+03  0.00000000000E+00 0.  1.
          1   -1    0    0  501    0  0.00000000000E+00 -0.00000000000E+00 -0.12906679505E+02  0.12906679505E+02  0.00000000000E+00 0. -1.
         23    2    1    2    0    0  0.00000000000E+00  0.00000000000E+00  0.14708297182E+03  0.17289633083E+03  0.90883115127E+02 0.  0.
        -13    1    3    3    0    0  0.24145467604E+02  0.20130313475E+02  0.13596530535E+03  0.13955213142E+03  0.00000000000E+00 0.  1.
         13    1    3    3    0    0 -0.24145467604E+02 -0.20130313475E+02  0.11117666474E+02  0.33344199409E+02  0.00000000000E+00 0. -1.
<mgrwt>
<rscale>  0 0.90883115E+02</rscale>
<asrwt>0</asrwt>
<pdfrwt beam="2">  1        1 0.19856431E-02 0.90883115E+02</pdfrwt>
<pdfrwt beam="1">  1       -1 0.24613791E-01 0.90883115E+02</pdfrwt>
<totfact> 0.74264244E+04</totfact>
</mgrwt>
</event>
<event>
 5    1  0.6043464E+000  0.9074244E+02  0.7546771E-02  0.1301064E+00
         -4   -1    0    0    0  501 -0.00000000000E+00  0.00000000000E+00  0.19993214304E+03  0.19993214304E+03  0.00000000000E+00 0. -1.
          4   -1    0    0  501    0  0.00000000000E+00 -0.00000000000E+00 -0.10296230487E+02  0.10296230487E+02  0.00000000000E+00 0.  1.
         23    2    1    2    0    0  0.00000000000E+00  0.00000000000E+00  0.18963591256E+03  0.21022837353E+03  0.90742436082E+02 0.  0.
        -13    1    3    3    0    0 -0.24057390392E+02 -0.38176834797E+02  0.10576294047E+03  0.11498707895E+03  0.00000000000E+00 0. -1.
         13    1    3    3    0    0  0.24057390392E+02  0.38176834797E+02  0.83872972080E+02  0.95241294579E+02  0.00000000000E+00 0.  1.
<mgrwt>
<rscale>  0 0.90742436E+02</rscale>
<asrwt>0</asrwt>
<pdfrwt beam="2">  1        4 0.15840356E-02 0.90742436E+02</pdfrwt>
<pdfrwt beam="1">  1       -4 0.30758788E-01 0.90742436E+02</pdfrwt>
<totfact> 0.21235669E+04</totfact>
</mgrwt>
</event>
<event>
 5    1  0.6043464E+000  0.9183094E+02  0.7546771E-02  0.1298477E+00
         -3   -1    0    0    0  501 -0.00000000000E+00  0.00000000000E+00  0.10959613679E+02  0.10959613679E+02  0.00000000000E+00 0.  1.
          3   -1    0    0  501    0  0.00000000000E+00 -0.00000000000E+00 -0.19236357485E+03  0.19236357485E+03  0.00000000000E+00 0. -1.
         23    2    1    2    0    0  0.00000000000E+00  0.00000000000E+00 -0.18140396118E+03  0.20332318853E+03  0.91830941764E+02 0.  0.
        -13    1    3    3    0    0  0.96409897268E+01 -0.40562945011E+02 -0.13328703676E+03  0.13965577453E+03  0.00000000000E+00 0. -1.
         13    1    3    3    0    0 -0.96409897268E+01  0.40562945011E+02 -0.48116924413E+02  0.63667414003E+02  0.00000000000E+00 0.  1.
<mgrwt>
<rscale>  0 0.91830942E+02</rscale>
<asrwt>0</asrwt>
<pdfrwt beam="2">  1        3 0.29594395E-01 0.91830942E+02</pdfrwt>
<pdfrwt beam="1">  1       -3 0.16860945E-02 0.91830942E+02</pdfrwt>
<totfact> 0.27785654E+04</totfact>
</mgrwt>
</event>
<event>
 5    1  0.6043464E+000  0.9007335E+02  0.7546771E-02  0.1302674E+00
          2   -1    0    0  501    0  0.00000000000E+00  0.00000000000E+00  0.40803712149E+02  0.40803712149E+02  0.00000000000E+00 0. -1.
         -2   -1    0    0    0  501 -0.00000000000E+00 -0.00000000000E+00 -0.49708764973E+02  0.49708764973E+02  0.00000000000E+00 0.  1.
         23    2    1    2    0    0  0.00000000000E+00  0.00000000000E+00 -0.89050528239E+01  0.90512477122E+02  0.90073350937E+02 0.  0.
        -13    1    3    3    0    0  0.29054304195E+01 -0.28691124624E+02 -0.39214237322E+02  0.48676262869E+02  0.00000000000E+00 0.  1.
         13    1    3    3    0    0 -0.29054304195E+01  0.28691124624E+02  0.30309184498E+02  0.41836214253E+02  0.00000000000E+00 0. -1.
<mgrwt>
<rscale>  0 0.90073351E+02</rscale>
<asrwt>0</asrwt>
<pdfrwt beam="1">  1        2 0.62774942E-02 0.90073351E+02</pdfrwt>
<pdfrwt beam="2">  1       -2 0.76475022E-02 0.90073351E+02</pdfrwt>
<totfact> 0.99310769E+04</totfact>
</mgrwt>
</event>
<event>
 5    1  0.6043464E+000  0.8952933E+02  0.7546771E-02  0.1303996E+00
         -2   -1    0    0    0  501 -0.00000000000E+00  0.00000000000E+00  0.81322349671E+02  0.81322349671E+02  0.00000000000E+00 0.  1.
          2   -1    0    0  501    0  0.00000000000E+00 -0.00000000000E+00 -0.24641136599E+02  0.24641136599E+02  0.00000000000E+00 0. -1.
         23    2    1    2    0    0  0.00000000000E+00  0.00000000000E+00  0.56681213072E+02  0.10596348627E+03  0.89529327638E+02 0.  0.
        -13    1    3    3    0    0  0.16999941232E+02 -0.41199449812E+02  0.23391894441E+02  0.50334614255E+02  0.00000000000E+00 0.  1.
         13    1    3    3    0    0 -0.16999941232E+02  0.41199449812E+02  0.33289318631E+02  0.55628872015E+02  0.00000000000E+00 0. -1.
<mgrwt>
<rscale>  0 0.89529328E+02</rscale>
<asrwt>0</asrwt>
<pdfrwt beam="2">  1        2 0.37909441E-02 0.89529328E+02</pdfrwt>
<pdfrwt beam="1">  1       -2 0.12511131E-01 0.89529328E+02</pdfrwt>
<totfact> 0.88575894E+04</totfact>
</mgrwt>
</event>
<event>
 4    1  0.6043464E+000  0.5236841E+02  0.7546771E-02  0.1432970E+00
          4   -1    0    0  501    0  0.00000000000E+00  0.00000000000E+00  0.23722060681E+02  0.23722060681E+02  0.00000000000E+00 0. -1.
         -4   -1    0    0    0  501 -0.00000000000E+00 -0.00000000000E+00 -0.28901897838E+02  0.28901897838E+02  0.00000000000E+00 0.  1.
        -13    1    1    2    0    0  0.19858491679E+02  0.16058166093E+02 -0.83963664584E+01  0.26883514646E+02  0.00000000000E+00 0. -1.
         13    1    1    2    0    0 -0.19858491679E+02 -0.16058166093E+02  0.32165293010E+01  0.25740443873E+02  0.00000000000E+00 0.  1.
<mgrwt>
<rscale>  0 0.52368409E+02</rscale>
<asrwt>0</asrwt>
<pdfrwt beam="1">  1        4 0.36495478E-02 0.52368409E+02</pdfrwt>
<pdfrwt beam="2">  1       -4 0.44464458E-02 0.52368409E+02</pdfrwt>
<totfact> 0.12743170E+05</totfact>
</mgrwt>
</event>
<event>
 4    1  0.6043464E+000  0.4588708E+02  0.7546771E-02  0.1468879E+00
         -1   -1    0    0    0  501 -0.00000000000E+00  0.00000000000E+00  0.86677314897E+02  0.86677314897E+02  0.00000000000E+00 0.  1.
          1   -1    0    0  501    0  0.00000000000E+00 -0.00000000000E+00 -0.60731695188E+01  0.60731695188E+01  0.00000000000E+00 0. -1.
        -13    1    1    2    0    0  0.16318942810E+02  0.15785163846E+02  0.46983526407E+02  0.52181711794E+02  0.00000000000E+00 0.  1.
         13    1    1    2    0    0 -0.16318942810E+02 -0.15785163846E+02  0.33620618971E+02  0.40568772622E+02  0.00000000000E+00 0. -1.
<mgrwt>
<rscale>  0 0.45887080E+02</rscale>
<asrwt>0</asrwt>
<pdfrwt beam="2">  1        1 0.93433384E-03 0.45887080E+02</pdfrwt>
<pdfrwt beam="1">  1       -1 0.13334971E-01 0.45887080E+02</pdfrwt>
<totfact> 0.47026725E+05</totfact>
</mgrwt>
</event>
<event>
 5    1  0.6043464E+000  0.8876220E+02  0.7546771E-02  0.1305877E+00
         -2   -1    0    0    0  501 -0.00000000000E+00  0.00000000000E+00  0.12386651315E+02  0.12386651315E+02  0.00000000000E+00 0.  1.
          2   -1    0    0  501    0  0.00000000000E+00 -0.00000000000E+00 -0.15901650666E+03  0.15901650666E+03  0.00000000000E+00 0. -1.
         23    2    1    2    0    0  0.00000000000E+00  0.00000000000E+00 -0.14662985534E+03  0.17140315798E+03  0.88762199643E+02 0.  0.
        -13    1    3    3    0    0  0.20855306481E+02 -0.18083625040E+02 -0.62069700718E+01  0.28292892755E+02  0.00000000000E+00 0.  1.
         13    1    3    3    0    0 -0.20855306481E+02  0.18083625040E+02 -0.14042288527E+03  0.14311026522E+03  0.00000000000E+00 0. -1.
<mgrwt>
<rscale>  0 0.88762200E+02</rscale>
<asrwt>0</asrwt>
<pdfrwt beam="2">  1        2 0.24464079E-01 0.88762200E+02</pdfrwt>
<pdfrwt beam="1">  1       -2 0.19056386E-02 0.88762200E+02</pdfrwt>
<totfact> 0.15336347E+05</totfact>
</mgrwt>
</event>
<event>
 5    1  0.6043464E+000  0.9116881E+02  0.7546771E-02  0.1300046E+00
          2   -1    0    0  501    0  0.00000000000E+00  0.00000000000E+00  0.14015389123E+03  0.14015389123E+03  0.00000000000E+00 0. -1.
         -2   -1    0    0    0  501 -0.00000000000E+00 -0.00000000000E+00 -0.14826118319E+02  0.14826118319E+02  0.00000000000E+00 0.  1.
         23    2    1    2    0    0  0.00000000000E+00  0.00000000000E+00  0.12532777291E+03  0.15498000955E+03  0.91168814277E+02 0.  0.
        -13    1    3    3    0    0  0.28461708158E+02 -0.37171365508E+01  0.12286259727E+03  0.12617093066E+03  0.00000000000E+00 0. -1.
         13    1    3    3    0    0 -0.28461708158E+02  0.37171365508E+01  0.24651756393E+01  0.28809078887E+02  0.00000000000E+00 0.  1.
<mgrwt>
<rscale>  0 0.91168814E+02</rscale>
<asrwt>0</asrwt>
<pdfrwt beam="1">  1        2 0.21562136E-01 0.91168814E+02</pdfrwt>
<pdfrwt beam="2">  1       -2 0.22809414E-02 0.91168814E+02</pdfrwt>
<totfact> 0.13667637E+05</totfact>
</mgrwt>
</event>
<event>
 5    1  0.6043464E+000  0.9275764E+02  0.7546771E-02  0.1296308E+00
          2   -1    0    0  501    0  0.00000000000E+00  0.00000000000E+00  0.50948096752E+02  0.50948096752E+02  0.00000000000E+00 0. -1.
         -2   -1    0    0    0  501 -0.00000000000E+00 -0.00000000000E+00 -0.42219339127E+02  0.42219339127E+02  0.00000000000E+00 0.  1.
         23    2    1    2    0    0  0.00000000000E+00  0.00000000000E+00  0.87287576251E+01  0.93167435879E+02  0.92757640648E+02 0.  0.
        -13    1    3    3    0    0 -0.26596581573E+02 -0.33152067141E+02 -0.14279881458E+02  0.44836957095E+02  0.00000000000E+00 0.  1.
         13    1    3    3    0    0  0.26596581573E+02  0.33152067141E+02  0.23008639083E+02  0.48330478784E+02  0.00000000000E+00 0. -1.
<mgrwt>
<rscale>  0 0.92757641E+02</rscale>
<asrwt>0</asrwt>
<pdfrwt beam="1">  1        2 0.78381687E-02 0.92757641E+02</pdfrwt>
<pdfrwt beam="2">  1       -2 0.64952829E-02 0.92757641E+02</pdfrwt>
<totfact> 0.96708636E+04</totfact>
</mgrwt>
</event>
<event>
 5    1  0.6043464E+000  0.9042779E+02  0.7546771E-02  0.1301819E+00
         -2   -1    0    0    0  501 -0.00000000000E+00  0.00000000000E+00  0.13702117503E+02  0.13702117503E+02  0.00000000000E+00 0.  1.
          2   -1    0    0  501    0  0.00000000000E+00 -0.00000000000E+00 -0.14919566333E+03  0.14919566333E+03  0.00000000000E+00 0. -1.
         23    2    1    2    0    0  0.00000000000E+00  0.00000000000E+00 -0.13549354583E+03  0.16289778083E+03  0.90427794617E+02 0.  0.
        -13    1    3    3    0    0  0.35447280561E+02  0.27863627847E+02 -0.73830390396E+02  0.86509063120E+02  0.00000000000E+00 0.  1.
         13    1    3    3    0    0 -0.35447280561E+02 -0.27863627847E+02 -0.61663155433E+02  0.76388717713E+02  0.00000000000E+00 0. -1.
<mgrwt>
<rscale>  0 0.90427795E+02</rscale>
<asrwt>0</asrwt>
<pdfrwt beam="2">  1        2 0.22953179E-01 0.90427795E+02</pdfrwt>
<pdfrwt beam="1">  1       -2 0.21080181E-02 0.90427795E+02</pdfrwt>
<totfact> 0.14271131E+05</totfact>
</mgrwt>
</event>
<event>
 5    1  0.6043464E+000  0.9120806E+02  0.7546771E-02  0.1299952E+00
         -3   -1    0    0    0  501 -0.00000000000E+00  0.00000000000E+00  0.39737131807E+02  0.39737131807E+02  0.00000000000E+00 0.  1.
          3   -1    0    0  501    0  0.00000000000E+00 -0.00000000000E+00 -0.52337132777E+02  0.52337132777E+02  0.00000000000E+00 0. -1.
         23    2    1    2    0    0  0.00000000000E+00  0.00000000000E+00 -0.12600000970E+02  0.92074264584E+02  0.91208059810E+02 0.  0.
        -13    1    3    3    0    0  0.32335901331E+02  0.30764704127E+02  0.31510704554E+01  0.44743790406E+02  0.00000000000E+00 0.  1.
         13    1    3    3    0    0 -0.32335901331E+02 -0.30764704127E+02 -0.15751071425E+02  0.47330474178E+02  0.00000000000E+00 0. -1.
<mgrwt>
<rscale>  0 0.91208060E+02</rscale>
<asrwt>0</asrwt>
<pdfrwt beam="2">  1        3 0.80518666E-02 0.91208060E+02</pdfrwt>
<pdfrwt beam="1">  1       -3 0.61134049E-02 0.91208060E+02</pdfrwt>
<totfact> 0.35237128E+04</totfact>
</mgrwt>
</event>
<event>
 5    1  0.6043464E+000  0.9158307E+02  0.7546771E-02  0.1299063E+00
         -3   -1    0    0    0  501 -0.00000000000E+00  0.00000000000E+00  0.20628027330E+02  0.20628027330E+02  0.00000000000E+00 0.  1.
          3   -1    0    0  501    0  0.00000000000E+00 -0.00000000000E+00 -0.10165124734E+03  0.10165124734E+03  0.00000000000E+00 0. -1.
         23    2    1    2    0    0  0.00000000000E+00  0.00000000000E+00 -0.81023220010E+02  0.12227927467E+03  0.91583070669E+02 0.  0.
        -13    1    3    3    0    0 -0.19562071701E+02 -0.38538725833E+02 -0.20308682596E+02  0.47753016940E+02  0.00000000000E+00 0.  1.
         13    1    3    3    0    0  0.19562071701E+02  0.38538725833E+02 -0.60714537414E+02  0.74526257731E+02  0.00000000000E+00 0. -1.
<mgrwt>
<rscale>  0 0.91583071E+02</rscale>
<asrwt>0</asrwt>
<pdfrwt beam="2">  1        3 0.15638653E-01 0.91583071E+02</pdfrwt>
<pdfrwt beam="1">  1       -3 0.31735427E-02 0.91583071E+02</pdfrwt>
<totfact> 0.32693322E+04</totfact>
</mgrwt>
</event>
<event>
 5    1  0.6043464E+000  0.8850868E+02  0.7546771E-02  0.1306504E+00
         -2   -1    0    0    0  501 -0.00000000000E+00  0.00000000000E+00  0.25150112743E+03  0.25150112743E+03  0.00000000000E+00 0. -1.
          2   -1    0    0  501    0  0.00000000000E+00 -0.00000000000E+00 -0.77870284031E+01  0.77870284031E+01  0.00000000000E+00 0.  1.
         23    2    1    2    0    0  0.00000000000E+00  0.00000000000E+00  0.24371409903E+03  0.25928815583E+03  0.88508675794E+02 0.  0.
        -13    1    3    3    0    0 -0.32249124402E+02 -0.19096806703E+02  0.19079440754E+03  0.19444073647E+03  0.00000000000E+00 0. -1.
         13    1    3    3    0    0  0.32249124402E+02  0.19096806703E+02  0.52919691490E+02  0.64847419365E+02  0.00000000000E+00 0.  1.
<mgrwt>
<rscale>  0 0.88508676E+02</rscale>
<asrwt>0</asrwt>
<pdfrwt beam="2">  1        2 0.11980046E-02 0.88508676E+02</pdfrwt>
<pdfrwt beam="1">  1       -2 0.38692475E-01 0.88508676E+02</pdfrwt>
<totfact> 0.60440102E+04</totfact>
</mgrwt>
</event>
<event>
 5    1  0.6043464E+000  0.9048914E+02  0.7546771E-02  0.1301671E+00
         -4   -1    0    0    0  501 -0.00000000000E+00  0.00000000000E+00  0.11855961459E+02  0.11855961459E+02  0.00000000000E+00 0.  1.
          4   -1    0    0  501    0  0.00000000000E+00 -0.00000000000E+00 -0.17266173741E+03  0.17266173741E+03  0.00000000000E+00 0. -1.
         23    2    1    2    0    0  0.00000000000E+00  0.00000000000E+00 -0.16080577595E+03  0.18451769887E+03  0.90489135352E+02 0.  0.
        -13    1    3    3    0    0  0.16552496782E+01  0.43279186067E+02 -0.10708671642E+03  0.11551360367E+03  0.00000000000E+00 0. -1.
         13    1    3    3    0    0 -0.16552496782E+01 -0.43279186067E+02 -0.53719059533E+02  0.69004095206E+02  0.00000000000E+00 0.  1.
<mgrwt>
<rscale>  0 0.90489135E+02</rscale>
<asrwt>0</asrwt>
<pdfrwt beam="2">  1        4 0.26563344E-01 0.90489135E+02</pdfrwt>
<pdfrwt beam="1">  1       -4 0.18239941E-02 0.90489135E+02</pdfrwt>
<totfact> 0.22501942E+04</totfact>
</mgrwt>
</event>
<event>
 5    1  0.6043464E+000  0.9056992E+02  0.7546771E-02  0.1301477E+00
          1   -1    0    0  501    0  0.00000000000E+00  0.00000000000E+00  0.65081288764E+02  0.65081288764E+02  0.00000000000E+00 0. -1.
         -1   -1    0    0    0  501 -0.00000000000E+00 -0.00000000000E+00 -0.31510251433E+02  0.31510251433E+02  0.00000000000E+00 0.  1.
         23    2    1    2    0    0  0.00000000000E+00  0.00000000000E+00  0.33571037331E+02  0.96591540197E+02  0.90569923761E+02 0.  0.
        -13    1    3    3    0    0 -0.54375791493E+01  0.42607115057E+02  0.14862134329E+01  0.42978394001E+02  0.00000000000E+00 0.  1.
         13    1    3    3    0    0  0.54375791493E+01 -0.42607115057E+02  0.32084823898E+02  0.53613146196E+02  0.00000000000E+00 0. -1.
<mgrwt>
<rscale>  0 0.90569924E+02</rscale>
<asrwt>0</asrwt>
<pdfrwt beam="1">  1        1 0.10012506E-01 0.90569924E+02</pdfrwt>
<pdfrwt beam="2">  1       -1 0.48477310E-02 0.90569924E+02</pdfrwt>
<totfact> 0.99386309E+04</totfact>
</mgrwt>
</event>
<event>
 5    1  0.6043464E+000  0.9720258E+02  0.7546771E-02  0.1286291E+00
         -3   -1    0    0    0  501 -0.00000000000E+00  0.00000000000E+00  0.15446927330E+03  0.15446927330E+03  0.00000000000E+00 0.  1.
          3   -1    0    0  501    0  0.00000000000E+00 -0.00000000000E+00 -0.15291619005E+02  0.15291619005E+02  0.00000000000E+00 0. -1.
         23    2    1    2    0    0  0.00000000000E+00  0.00000000000E+00  0.13917765430E+03  0.16976089231E+03  0.97202577648E+02 0.  0.
        -13    1    3    3    0    0  0.30588163514E+02  0.17076156476E+02  0.12842303927E+03  0.13311539311E+03  0.00000000000E+00 0.  1.
         13    1    3    3    0    0 -0.30588163514E+02 -0.17076156476E+02  0.10754615027E+02  0.36645499199E+02  0.00000000000E+00 0. -1.
<mgrwt>
<rscale>  0 0.97202578E+02</rscale>
<asrwt>0</asrwt>
<pdfrwt beam="2">  1        3 0.23525569E-02 0.97202578E+02</pdfrwt>
<pdfrwt beam="1">  1       -3 0.23764502E-01 0.97202578E+02</pdfrwt>
<totfact> 0.25329073E+04</totfact>
</mgrwt>
</event>
<event>
 5    1  0.6043464E+000  0.8867704E+02  0.7546771E-02  0.1306087E+00
         -1   -1    0    0    0  501 -0.00000000000E+00  0.00000000000E+00  0.89090753340E+02  0.89090753340E+02  0.00000000000E+00 0.  1.
          1   -1    0    0  501    0  0.00000000000E+00 -0.00000000000E+00 -0.22066313136E+02  0.22066313136E+02  0.00000000000E+00 0. -1.
         23    2    1    2    0    0  0.00000000000E+00  0.00000000000E+00  0.67024440204E+02  0.11115706648E+03  0.88677042366E+02 0.  0.
        -13    1    3    3    0    0 -0.38182922852E+02  0.22317369792E+02  0.37457050316E+02  0.57957149777E+02  0.00000000000E+00 0.  1.
         13    1    3    3    0    0  0.38182922852E+02 -0.22317369792E+02  0.29567389888E+02  0.53199916698E+02  0.00000000000E+00 0. -1.
<mgrwt>
<rscale>  0 0.88677042E+02</rscale>
<asrwt>0</asrwt>
<pdfrwt beam="2">  1        1 0.33948174E-02 0.88677042E+02</pdfrwt>
<pdfrwt beam="1">  1       -1 0.13706270E-01 0.88677042E+02</pdfrwt>
<totfact> 0.89230984E+04</totfact>
</mgrwt>
</event>
<event>
 5    1  0.6043464E+000  0.9751296E+02  0.7546771E-02  0.1285614E+00
          2   -1    0    0  501    0  0.00000000000E+00  0.00000000000E+00  0.25704196112E+02  0.25704196112E+02  0.00000000000E+00 0. -1.
         -2   -1    0    0    0  501 -0.00000000000E+00 -0.00000000000E+00 -0.92482741611E+02  0.92482741611E+02  0.00000000000E+00 0.  1.
         23    2    1    2    0    0  0.00000000000E+00  0.00000000000E+00 -0.66778545500E+02  0.11818693772E+03  0.97512963801E+02 0.  0.
        -13    1    3    3    0    0 -0.22348530890E+02 -0.27088000740E+02  0.76043162641E+01  0.35931076283E+02  0.00000000000E+00 0. -1.
         13    1    3    3    0    0  0.22348530890E+02  0.27088000740E+02 -0.74382861764E+02  0.82255861440E+02  0.00000000000E+00 0.  1.
<mgrwt>
<rscale>  0 0.97512964E+02</rscale>
<asrwt>0</asrwt>
<pdfrwt beam="1">  1        2 0.39544917E-02 0.97512964E+02</pdfrwt>
<pdfrwt beam="2">  1       -2 0.14228114E-01 0.97512964E+02</pdfrwt>
<totfact> 0.69141106E+04</totfact>
</mgrwt>
</event>
<event>
 5    1  0.6043464E+000  0.8568958E+02  0.7546771E-02  0.1313639E+00
          2   -1    0    0  501    0  0.00000000000E+00  0.00000000000E+00  0.12908535754E+03  0.12908535754E+03  0.00000000000E+00 0. -1.
         -2   -1    0    0    0  501 -0.00000000000E+00 -0.00000000000E+00 -0.14220637671E+02  0.14220637671E+02  0.00000000000E+00 0.  1.
         23    2    1    2    0    0  0.00000000000E+00  0.00000000000E+00  0.11486471987E+03  0.14330599521E+03  0.85689581587E+02 0.  0.
        -13    1    3    3    0    0 -0.33085479901E+02 -0.13895754861E+01  0.11966352215E+02  0.35210417289E+02  0.00000000000E+00 0.  1.
         13    1    3    3    0    0  0.33085479901E+02  0.13895754861E+01  0.10289836765E+03  0.10809557792E+03  0.00000000000E+00 0. -1.
<mgrwt>
<rscale>  0 0.85689582E+02</rscale>
<asrwt>0</asrwt>
<pdfrwt beam="1">  1        2 0.19859285E-01 0.85689582E+02</pdfrwt>
<pdfrwt beam="2">  1       -2 0.21877905E-02 0.85689582E+02</pdfrwt>
<totfact> 0.15736931E+05</totfact>
</mgrwt>
</event>
<event>
 5    1  0.6043464E+000  0.9168386E+02  0.7546771E-02  0.1298824E+00
         -1   -1    0    0    0  501 -0.00000000000E+00  0.00000000000E+00  0.33079265711E+03  0.33079265711E+03  0.00000000000E+00 0.  1.
          1   -1    0    0  501    0  0.00000000000E+00 -0.00000000000E+00 -0.63528688432E+01  0.63528688432E+01  0.00000000000E+00 0. -1.
         23    2    1    2    0    0  0.00000000000E+00  0.00000000000E+00  0.32443978826E+03  0.33714552595E+03  0.91683856046E+02 0.  0.
        -13    1    3    3    0    0 -0.28677726065E+02  0.35467723964E+02  0.17911568062E+03  0.18483181127E+03  0.00000000000E+00 0. -1.
         13    1    3    3    0    0  0.28677726065E+02 -0.35467723964E+02  0.14532410765E+03  0.15231371468E+03  0.00000000000E+00 0.  1.
<mgrwt>
<rscale>  0 0.91683856E+02</rscale>
<asrwt>0</asrwt>
<pdfrwt beam="2">  1        1 0.97736470E-03 0.91683856E+02</pdfrwt>
<pdfrwt beam="1">  1       -1 0.50891165E-01 0.91683856E+02</pdfrwt>
<totfact> 0.57367412E+04</totfact>
</mgrwt>
</event>
<event>
 5    1  0.6043464E+000  0.9180342E+02  0.7546771E-02  0.1298542E+00
         -2   -1    0    0    0  501 -0.00000000000E+00  0.00000000000E+00  0.26005005435E+02  0.26005005435E+02  0.00000000000E+00 0.  1.
          2   -1    0    0  501    0  0.00000000000E+00 -0.00000000000E+00 -0.81021584961E+02  0.81021584961E+02  0.00000000000E+00 0. -1.
         23    2    1    2    0    0  0.00000000000E+00  0.00000000000E+00 -0.55016579526E+02  0.10702659040E+03  0.91803415127E+02 0.  0.
        -13    1    3    3    0    0  0.19311619460E+02  0.14303444552E+01  0.21009897687E+02  0.28572720071E+02  0.00000000000E+00 0.  1.
         13    1    3    3    0    0 -0.19311619460E+02 -0.14303444552E+01 -0.76026477213E+02  0.78453870324E+02  0.00000000000E+00 0. -1.
<mgrwt>
<rscale>  0 0.91803415E+02</rscale>
<asrwt>0</asrwt>
<pdfrwt beam="2">  1        2 0.12464859E-01 0.91803415E+02</pdfrwt>
<pdfrwt beam="1">  1       -2 0.40007701E-02 0.91803415E+02</pdfrwt>
<totfact> 0.11309870E+05</totfact>
</mgrwt>
</event>
<event>
 5    1  0.6043464E+000  0.9045653E+02  0.7546771E-02  0.1301750E+00
         -1   -1    0    0    0  501 -0.00000000000E+00  0.00000000000E+00  0.14362600681E+02  0.14362600681E+02  0.00000000000E+00 0.  1.
          1   -1    0    0  501    0  0.00000000000E+00 -0.00000000000E+00 -0.14242516624E+03  0.14242516624E+03  0.00000000000E+00 0. -1.
         23    2    1    2    0    0  0.00000000000E+00  0.00000000000E+00 -0.12806256556E+03  0.15678776692E+03  0.90456526345E+02 0.  0.
        -13    1    3    3    0    0 -0.52778265431E+01 -0.44253650167E+02 -0.50677628423E+02  0.67486761878E+02  0.00000000000E+00 0.  1.
         13    1    3    3    0    0  0.52778265431E+01  0.44253650167E+02 -0.77384937135E+02  0.89301005042E+02  0.00000000000E+00 0. -1.
<mgrwt>
<rscale>  0 0.90456526E+02</rscale>
<asrwt>0</asrwt>
<pdfrwt beam="2">  1        1 0.21911565E-01 0.90456526E+02</pdfrwt>
<pdfrwt beam="1">  1       -1 0.22096308E-02 0.90456526E+02</pdfrwt>
<totfact> 0.11347827E+05</totfact>
</mgrwt>
</event>
<event>
 5    1  0.6043464E+000  0.8953591E+02  0.7546771E-02  0.1303979E+00
         -2   -1    0    0    0  501 -0.00000000000E+00  0.00000000000E+00  0.15645500748E+03  0.15645500748E+03  0.00000000000E+00 0.  1.
          2   -1    0    0  501    0  0.00000000000E+00 -0.00000000000E+00 -0.12809880034E+02  0.12809880034E+02  0.00000000000E+00 0. -1.
         23    2    1    2    0    0  0.00000000000E+00  0.00000000000E+00  0.14364512745E+03  0.16926488751E+03  0.89535911823E+02 0.  0.
        -13    1    3    3    0    0 -0.29980627460E+02 -0.25146564957E+02  0.11293677658E+03  0.11952365145E+03  0.00000000000E+00 0.  1.
         13    1    3    3    0    0  0.29980627460E+02  0.25146564957E+02  0.30708350864E+02  0.49741236060E+02  0.00000000000E+00 0. -1.
<mgrwt>
<rscale>  0 0.89535912E+02</rscale>
<asrwt>0</asrwt>
<pdfrwt beam="2">  1        2 0.19707509E-02 0.89535912E+02</pdfrwt>
<pdfrwt beam="1">  1       -2 0.24070000E-01 0.89535912E+02</pdfrwt>
<totfact> 0.72018412E+04</totfact>
</mgrwt>
</event>
<event>
 5    1  0.6043464E+000  0.9083438E+02  0.7546771E-02  0.1300844E+00
          2   -1    0    0  501    0  0.00000000000E+00  0.00000000000E+00  0.20556321969E+02  0.20556321969E+02  0.00000000000E+00 0. -1.
         -2   -1    0    0    0  501 -0.00000000000E+00 -0.00000000000E+00 -0.10034484547E+03  0.10034484547E+03  0.00000000000E+00 0.  1.
         23    2    1    2    0    0  0.00000000000E+00  0.00000000000E+00 -0.79788523505E+02  0.12090116744E+03  0.90834375683E+02 0.  0.
        -13    1    3    3    0    0 -0.37152507402E+02  0.24548760191E+01 -0.52782143543E+01  0.37605781062E+02  0.00000000000E+00 0. -1.
         13    1    3    3    0    0  0.37152507402E+02 -0.24548760191E+01 -0.74510309151E+02  0.83295386380E+02  0.00000000000E+00 0.  1.
<mgrwt>
<rscale>  0 0.90834376E+02</rscale>
<asrwt>0</asrwt>
<pdfrwt beam="1">  1        2 0.31625111E-02 0.90834376E+02</pdfrwt>
<pdfrwt beam="2">  1       -2 0.15437669E-01 0.90834376E+02</pdfrwt>
<totfact> 0.80474336E+04</totfact>
</mgrwt>
</event>
<event>
 5    1  0.6043464E+000  0.8794080E+02  0.7546771E-02  0.1307916E+00
         -1   -1    0    0    0  501 -0.00000000000E+00  0.00000000000E+00  0.58922204012E+01  0.58922204012E+01  0.00000000000E+00 0.  1.
          1   -1    0    0  501    0  0.00000000000E+00 -0.00000000000E+00 -0.32812689187E+03  0.32812689187E+03  0.00000000000E+00 0. -1.
         23    2    1    2    0    0  0.00000000000E+00  0.00000000000E+00 -0.32223467147E+03  0.33401911228E+03  0.87940797505E+02 0.  0.
        -13    1    3    3    0    0  0.51091778649E+01 -0.40702661310E+02 -0.22124287703E+03  0.22501382396E+03  0.00000000000E+00 0.  1.
         13    1    3    3    0    0 -0.51091778649E+01  0.40702661310E+02 -0.10099179445E+03  0.10900528832E+03  0.00000000000E+00 0. -1.
<mgrwt>
<rscale>  0 0.87940798E+02</rscale>
<asrwt>0</asrwt>
<pdfrwt beam="2">  1        1 0.50481076E-01 0.87940798E+02</pdfrwt>
<pdfrwt beam="1">  1       -1 0.90649516E-03 0.87940798E+02</pdfrwt>
<totfact> 0.14341709E+05</totfact>
</mgrwt>
</event>
<event>
 5    1  0.6043464E+000  0.9233332E+02  0.7546771E-02  0.1297298E+00
         -1   -1    0    0    0  501 -0.00000000000E+00  0.00000000000E+00  0.11662959884E+02  0.11662959884E+02  0.00000000000E+00 0.  1.
          1   -1    0    0  501    0  0.00000000000E+00 -0.00000000000E+00 -0.18274611589E+03  0.18274611589E+03  0.00000000000E+00 0. -1.
         23    2    1    2    0    0  0.00000000000E+00  0.00000000000E+00 -0.17108315600E+03  0.19440907577E+03  0.92333322665E+02 0.  0.
        -13    1    3    3    0    0  0.27535149376E+02  0.26140243688E+01 -0.77132059146E+01  0.28714301664E+02  0.00000000000E+00 0.  1.
         13    1    3    3    0    0 -0.27535149376E+02 -0.26140243688E+01 -0.16336995009E+03  0.16569477411E+03  0.00000000000E+00 0. -1.
<mgrwt>
<rscale>  0 0.92333323E+02</rscale>
<asrwt>0</asrwt>
<pdfrwt beam="2">  1        1 0.28114787E-01 0.92333323E+02</pdfrwt>
<pdfrwt beam="1">  1       -1 0.17943015E-02 0.92333323E+02</pdfrwt>
<totfact> 0.11248330E+05</totfact>
</mgrwt>
</event>
<event>
 5    1  0.6043464E+000  0.9069067E+02  0.7546771E-02  0.1301188E+00
          3   -1    0    0  501    0  0.00000000000E+00  0.00000000000E+00  0.80259254711E+02  0.80259254711E+02  0.00000000000E+00 0. -1.
         -3   -1    0    0    0  501 -0.00000000000E+00 -0.00000000000E+00 -0.25619470635E+02  0.25619470635E+02  0.00000000000E+00 0.  1.
         23    2    1    2    0    0  0.00000000000E+00  0.00000000000E+00  0.54639784076E+02  0.10587872535E+03  0.90690674698E+02 0.  0.
        -13    1    3    3    0    0 -0.29618628105E+02  0.71688116494E+01  0.66522317840E+02  0.73170169892E+02  0.00000000000E+00 0. -1.
         13    1    3    3    0    0  0.29618628105E+02 -0.71688116494E+01 -0.11882533764E+02  0.32708555454E+02  0.00000000000E+00 0.  1.
<mgrwt>
<rscale>  0 0.90690675E+02</rscale>
<asrwt>0</asrwt>
<pdfrwt beam="1">  1        3 0.12347578E-01 0.90690675E+02</pdfrwt>
<pdfrwt beam="2">  1       -3 0.39414570E-02 0.90690675E+02</pdfrwt>
<totfact> 0.34741576E+04</totfact>
</mgrwt>
</event>
<event>
 5    1  0.6043464E+000  0.9156012E+02  0.7546771E-02  0.1299117E+00
          2   -1    0    0  501    0  0.00000000000E+00  0.00000000000E+00  0.67600491885E+02  0.67600491885E+02  0.00000000000E+00 0. -1.
         -2   -1    0    0    0  501 -0.00000000000E+00 -0.00000000000E+00 -0.31002941848E+02  0.31002941848E+02  0.00000000000E+00 0.  1.
         23    2    1    2    0    0  0.00000000000E+00  0.00000000000E+00  0.36597550037E+02  0.98603433734E+02  0.91560124920E+02 0.  0.
        -13    1    3    3    0    0  0.34810851261E+02 -0.29720914176E+02  0.19190748852E+02  0.49632780966E+02  0.00000000000E+00 0. -1.
         13    1    3    3    0    0 -0.34810851261E+02  0.29720914176E+02  0.17406801185E+02  0.48970652767E+02  0.00000000000E+00 0.  1.
<mgrwt>
<rscale>  0 0.91560125E+02</rscale>
<asrwt>0</asrwt>
<pdfrwt beam="1">  1        2 0.10400076E-01 0.91560125E+02</pdfrwt>
<pdfrwt beam="2">  1       -2 0.47696834E-02 0.91560125E+02</pdfrwt>
<totfact> 0.10827766E+05</totfact>
</mgrwt>
</event>
<event>
 5    1  0.6043464E+000  0.9432031E+02  0.7546771E-02  0.1292714E+00
         -2   -1    0    0    0  501 -0.00000000000E+00  0.00000000000E+00  0.12194598819E+02  0.12194598819E+02  0.00000000000E+00 0.  1.
          2   -1    0    0  501    0  0.00000000000E+00 -0.00000000000E+00 -0.18238238592E+03  0.18238238592E+03  0.00000000000E+00 0. -1.
         23    2    1    2    0    0  0.00000000000E+00  0.00000000000E+00 -0.17018778710E+03  0.19457698474E+03  0.94320305936E+02 0.  0.
        -13    1    3    3    0    0 -0.42654067377E+02 -0.20105722066E+02 -0.86508931571E+02  0.98526162846E+02  0.00000000000E+00 0.  1.
         13    1    3    3    0    0  0.42654067377E+02  0.20105722066E+02 -0.83678855527E+02  0.96050821891E+02  0.00000000000E+00 0. -1.
<mgrwt>
<rscale>  0 0.94320306E+02</rscale>
<asrwt>0</asrwt>
<pdfrwt beam="2">  1        2 0.28058829E-01 0.94320306E+02</pdfrwt>
<pdfrwt beam="1">  1       -2 0.18760921E-02 0.94320306E+02</pdfrwt>
<totfact> 0.13652770E+05</totfact>
</mgrwt>
</event>
<event>
 5    1  0.6043464E+000  0.7740766E+02  0.7546771E-02  0.1336573E+00
         -1   -1    0    0    0  501 -0.00000000000E+00  0.00000000000E+00  0.80002902033E+02  0.80002902033E+02  0.00000000000E+00 0.  1.
          1   -1    0    0  501    0  0.00000000000E+00 -0.00000000000E+00 -0.18724149241E+02  0.18724149241E+02  0.00000000000E+00 0. -1.
         23    2    1    2    0    0  0.00000000000E+00  0.00000000000E+00  0.61278752792E+02  0.98727051274E+02  0.77407655367E+02 0.  0.
        -13    1    3    3    0    0  0.35861715935E+02 -0.11092000894E+02  0.18614477018E+02  0.41899807974E+02  0.00000000000E+00 0. -1.
         13    1    3    3    0    0 -0.35861715935E+02  0.11092000894E+02  0.42664275774E+02  0.56827243299E+02  0.00000000000E+00 0.  1.
<mgrwt>
<rscale>  0 0.77407655E+02</rscale>
<asrwt>0</asrwt>
<pdfrwt beam="2">  1        1 0.28806384E-02 0.77407655E+02</pdfrwt>
<pdfrwt beam="1">  1       -1 0.12308139E-01 0.77407655E+02</pdfrwt>
<totfact> 0.12856897E+05</totfact>
</mgrwt>
</event>
<event>
 5    1  0.6043464E+000  0.9268152E+02  0.7546771E-02  0.1296485E+00
          4   -1    0    0  501    0  0.00000000000E+00  0.00000000000E+00  0.64846801302E+02  0.64846801302E+02  0.00000000000E+00 0. -1.
         -4   -1    0    0    0  501 -0.00000000000E+00 -0.00000000000E+00 -0.33115987331E+02  0.33115987331E+02  0.00000000000E+00 0.  1.
         23    2    1    2    0    0  0.00000000000E+00  0.00000000000E+00  0.31730813971E+02  0.97962788633E+02  0.92681515965E+02 0.  0.
        -13    1    3    3    0    0 -0.71237537283E+01 -0.33474350270E+02 -0.17158942091E+02  0.38284582888E+02  0.00000000000E+00 0.  1.
         13    1    3    3    0    0  0.71237537283E+01  0.33474350270E+02  0.48889756062E+02  0.59678205745E+02  0.00000000000E+00 0. -1.
<mgrwt>
<rscale>  0 0.92681516E+02</rscale>
<asrwt>0</asrwt>
<pdfrwt beam="1">  1        4 0.99764309E-02 0.92681516E+02</pdfrwt>
<pdfrwt beam="2">  1       -4 0.50947673E-02 0.92681516E+02</pdfrwt>
<totfact> 0.25427561E+04</totfact>
</mgrwt>
</event>
<event>
 5    1  0.6043464E+000  0.9161236E+02  0.7546771E-02  0.1298993E+00
          3   -1    0    0  501    0  0.00000000000E+00  0.00000000000E+00  0.11074924382E+03  0.11074924382E+03  0.00000000000E+00 0. -1.
         -3   -1    0    0    0  501 -0.00000000000E+00 -0.00000000000E+00 -0.18945559165E+02  0.18945559165E+02  0.00000000000E+00 0.  1.
         23    2    1    2    0    0  0.00000000000E+00  0.00000000000E+00  0.91803684653E+02  0.12969480298E+03  0.91612364913E+02 0.  0.
        -13    1    3    3    0    0 -0.17311743034E+02 -0.39002155463E+02  0.22325516561E+02  0.48159041387E+02  0.00000000000E+00 0.  1.
         13    1    3    3    0    0  0.17311743034E+02  0.39002155463E+02  0.69478168092E+02  0.81535761596E+02  0.00000000000E+00 0. -1.
<mgrwt>
<rscale>  0 0.91612365E+02</rscale>
<asrwt>0</asrwt>
<pdfrwt beam="1">  1        3 0.17038345E-01 0.91612365E+02</pdfrwt>
<pdfrwt beam="2">  1       -3 0.29147015E-02 0.91612365E+02</pdfrwt>
<totfact> 0.32176482E+04</totfact>
</mgrwt>
</event>
<event>
 5    1  0.6043464E+000  0.9533211E+02  0.7546771E-02  0.1290430E+00
         -1   -1    0    0    0  501 -0.00000000000E+00  0.00000000000E+00  0.96311221224E+01  0.96311221224E+01  0.00000000000E+00 0.  1.
          1   -1    0    0  501    0  0.00000000000E+00 -0.00000000000E+00 -0.23590736776E+03  0.23590736776E+03  0.00000000000E+00 0. -1.
         23    2    1    2    0    0  0.00000000000E+00  0.00000000000E+00 -0.22627624564E+03  0.24553848988E+03  0.95332107256E+02 0.  0.
        -13    1    3    3    0    0  0.46653492134E+02 -0.41818099359E+01 -0.90388485872E+02  0.10180429382E+03  0.00000000000E+00 0.  1.
         13    1    3    3    0    0 -0.46653492134E+02  0.41818099359E+01 -0.13588775977E+03  0.14373419606E+03  0.00000000000E+00 0. -1.
<mgrwt>
<rscale>  0 0.95332107E+02</rscale>
<asrwt>0</asrwt>
<pdfrwt beam="2">  1        1 0.36293441E-01 0.95332107E+02</pdfrwt>
<pdfrwt beam="1">  1       -1 0.14817111E-02 0.95332107E+02</pdfrwt>
<totfact> 0.10850174E+05</totfact>
</mgrwt>
</event>
<event>
 5    1  0.6043464E+000  0.8107750E+02  0.7546771E-02  0.1326021E+00
         -2   -1    0    0    0  501 -0.00000000000E+00  0.00000000000E+00  0.10347236278E+02  0.10347236278E+02  0.00000000000E+00 0.  1.
          2   -1    0    0  501    0  0.00000000000E+00 -0.00000000000E+00 -0.15882407953E+03  0.15882407953E+03  0.00000000000E+00 0. -1.
         23    2    1    2    0    0  0.00000000000E+00  0.00000000000E+00 -0.14847684326E+03  0.16917131581E+03  0.81077500640E+02 0.  0.
        -13    1    3    3    0    0 -0.22031777452E+02 -0.33457920993E+02 -0.87194897950E+02  0.95957187972E+02  0.00000000000E+00 0. -1.
         13    1    3    3    0    0  0.22031777452E+02  0.33457920993E+02 -0.61281945307E+02  0.73214127841E+02  0.00000000000E+00 0.  1.
<mgrwt>
<rscale>  0 0.81077501E+02</rscale>
<asrwt>0</asrwt>
<pdfrwt beam="2">  1        2 0.24434471E-01 0.81077501E+02</pdfrwt>
<pdfrwt beam="1">  1       -2 0.15918827E-02 0.81077501E+02</pdfrwt>
<totfact> 0.19546958E+05</totfact>
</mgrwt>
</event>
<event>
 5    1  0.6043464E+000  0.8952022E+02  0.7546771E-02  0.1304018E+00
         -2   -1    0    0    0  501 -0.00000000000E+00  0.00000000000E+00  0.15453150958E+02  0.15453150958E+02  0.00000000000E+00 0. -1.
          2   -1    0    0  501    0  0.00000000000E+00 -0.00000000000E+00 -0.12964783083E+03  0.12964783083E+03  0.00000000000E+00 0.  1.
         23    2    1    2    0    0  0.00000000000E+00  0.00000000000E+00 -0.11419467988E+03  0.14510098179E+03  0.89520221207E+02 0.  0.
        -13    1    3    3    0    0 -0.82472429489E+01 -0.41172768513E+02 -0.82221073121E+02  0.92322904788E+02  0.00000000000E+00 0.  1.
         13    1    3    3    0    0  0.82472429489E+01  0.41172768513E+02 -0.31973606755E+02  0.52778077003E+02  0.00000000000E+00 0. -1.
<mgrwt>
<rscale>  0 0.89520221E+02</rscale>
<asrwt>0</asrwt>
<pdfrwt beam="2">  1        2 0.19945821E-01 0.89520221E+02</pdfrwt>
<pdfrwt beam="1">  1       -2 0.23774077E-02 0.89520221E+02</pdfrwt>
<totfact> 0.13997562E+05</totfact>
</mgrwt>
</event>
<event>
 5    1  0.6043464E+000  0.9033251E+02  0.7546771E-02  0.1302048E+00
         -3   -1    0    0    0  501 -0.00000000000E+00  0.00000000000E+00  0.14879293974E+03  0.14879293974E+03  0.00000000000E+00 0.  1.
          3   -1    0    0  501    0  0.00000000000E+00 -0.00000000000E+00 -0.13710264551E+02  0.13710264551E+02  0.00000000000E+00 0. -1.
         23    2    1    2    0    0  0.00000000000E+00  0.00000000000E+00  0.13508267518E+03  0.16250320429E+03  0.90332509478E+02 0.  0.
        -13    1    3    3    0    0 -0.24137835008E+02  0.29323759177E+01 -0.93106649316E+00  0.24333121300E+02  0.00000000000E+00 0. -1.
         13    1    3    3    0    0  0.24137835008E+02 -0.29323759177E+01  0.13601374168E+03  0.13817008299E+03  0.00000000000E+00 0.  1.
<mgrwt>
<rscale>  0 0.90332509E+02</rscale>
<asrwt>0</asrwt>
<pdfrwt beam="2">  1        3 0.21092716E-02 0.90332509E+02</pdfrwt>
<pdfrwt beam="1">  1       -3 0.22891220E-01 0.90332509E+02</pdfrwt>
<totfact> 0.31337506E+04</totfact>
</mgrwt>
</event>
<event>
 5    1  0.6043464E+000  0.9587212E+02  0.7546771E-02  0.1289224E+00
         -1   -1    0    0    0  501 -0.00000000000E+00  0.00000000000E+00  0.32335615448E+02  0.32335615448E+02  0.00000000000E+00 0.  1.
          1   -1    0    0  501    0  0.00000000000E+00 -0.00000000000E+00 -0.71063006338E+02  0.71063006338E+02  0.00000000000E+00 0. -1.
         23    2    1    2    0    0  0.00000000000E+00  0.00000000000E+00 -0.38727390891E+02  0.10339862179E+03  0.95872124113E+02 0.  0.
        -13    1    3    3    0    0  0.22619824929E+02 -0.20306910058E+02  0.20611474253E+02  0.36726828706E+02  0.00000000000E+00 0.  1.
         13    1    3    3    0    0 -0.22619824929E+02  0.20306910058E+02 -0.59338865144E+02  0.66671793080E+02  0.00000000000E+00 0. -1.
<mgrwt>
<rscale>  0 0.95872124E+02</rscale>
<asrwt>0</asrwt>
<pdfrwt beam="2">  1        1 0.10932770E-01 0.95872124E+02</pdfrwt>
<pdfrwt beam="1">  1       -1 0.49747101E-02 0.95872124E+02</pdfrwt>
<totfact> 0.86060724E+04</totfact>
</mgrwt>
</event>
<event>
 5    1  0.6043464E+000  0.9521794E+02  0.7546771E-02  0.1290686E+00
          1   -1    0    0  501    0  0.00000000000E+00  0.00000000000E+00  0.36755017512E+03  0.36755017512E+03  0.00000000000E+00 0. -1.
         -1   -1    0    0    0  501 -0.00000000000E+00 -0.00000000000E+00 -0.61668155653E+01  0.61668155653E+01  0.00000000000E+00 0.  1.
         23    2    1    2    0    0  0.00000000000E+00  0.00000000000E+00  0.36138335955E+03  0.37371699068E+03  0.95217942447E+02 0.  0.
        -13    1    3    3    0    0  0.35824200424E+02  0.27216666058E+02  0.11957293112E+03  0.12775682410E+03  0.00000000000E+00 0. -1.
         13    1    3    3    0    0 -0.35824200424E+02 -0.27216666058E+02  0.24181042843E+03  0.24596016658E+03  0.00000000000E+00 0.  1.
<mgrwt>
<rscale>  0 0.95217942E+02</rscale>
<asrwt>0</asrwt>
<pdfrwt beam="1">  1        1 0.56546164E-01 0.95217942E+02</pdfrwt>
<pdfrwt beam="2">  1       -1 0.94874114E-03 0.95217942E+02</pdfrwt>
<totfact> 0.11846041E+05</totfact>
</mgrwt>
</event>
<event>
 5    1  0.6043464E+000  0.9051248E+02  0.7546771E-02  0.1301615E+00
         -2   -1    0    0    0  501 -0.00000000000E+00  0.00000000000E+00  0.77663288776E+02  0.77663288776E+02  0.00000000000E+00 0.  1.
          2   -1    0    0  501    0  0.00000000000E+00 -0.00000000000E+00 -0.26371885225E+02  0.26371885225E+02  0.00000000000E+00 0. -1.
         23    2    1    2    0    0  0.00000000000E+00  0.00000000000E+00  0.51291403550E+02  0.10403517400E+03  0.90512481742E+02 0.  0.
        -13    1    3    3    0    0  0.34057787863E+02 -0.22810955930E+02  0.36007127256E+01  0.41148970300E+02  0.00000000000E+00 0. -1.
         13    1    3    3    0    0 -0.34057787863E+02  0.22810955930E+02  0.47690690825E+02  0.62886203701E+02  0.00000000000E+00 0.  1.
<mgrwt>
<rscale>  0 0.90512482E+02</rscale>
<asrwt>0</asrwt>
<pdfrwt beam="2">  1        2 0.40572131E-02 0.90512482E+02</pdfrwt>
<pdfrwt beam="1">  1       -2 0.11948198E-01 0.90512482E+02</pdfrwt>
<totfact> 0.87326735E+04</totfact>
</mgrwt>
</event>
<event>
 5    1  0.6043464E+000  0.9104724E+02  0.7546771E-02  0.1300335E+00
         -2   -1    0    0    0  501 -0.00000000000E+00  0.00000000000E+00  0.33893250509E+02  0.33893250509E+02  0.00000000000E+00 0.  1.
          2   -1    0    0  501    0  0.00000000000E+00 -0.00000000000E+00 -0.61144912901E+02  0.61144912901E+02  0.00000000000E+00 0. -1.
         23    2    1    2    0    0  0.00000000000E+00  0.00000000000E+00 -0.27251662392E+02  0.95038163410E+02  0.91047237197E+02 0.  0.
        -13    1    3    3    0    0  0.33218310129E+02  0.30690369485E+02 -0.81974004546E+01  0.45962509518E+02  0.00000000000E+00 0. -1.
         13    1    3    3    0    0 -0.33218310129E+02 -0.30690369485E+02 -0.19054261937E+02  0.49075653892E+02  0.00000000000E+00 0.  1.
<mgrwt>
<rscale>  0 0.91047237E+02</rscale>
<asrwt>0</asrwt>
<pdfrwt beam="2">  1        2 0.94069096E-02 0.91047237E+02</pdfrwt>
<pdfrwt beam="1">  1       -2 0.52143463E-02 0.91047237E+02</pdfrwt>
<totfact> 0.10703809E+05</totfact>
</mgrwt>
</event>
<event>
 5    1  0.6043464E+000  0.9115613E+02  0.7546771E-02  0.1300076E+00
         -2   -1    0    0    0  501 -0.00000000000E+00  0.00000000000E+00  0.83334394727E+02  0.83334394727E+02  0.00000000000E+00 0. -1.
          2   -1    0    0  501    0  0.00000000000E+00 -0.00000000000E+00 -0.24928003427E+02  0.24928003427E+02  0.00000000000E+00 0.  1.
         23    2    1    2    0    0  0.00000000000E+00  0.00000000000E+00  0.58406391300E+02  0.10826239815E+03  0.91156131497E+02 0.  0.
        -13    1    3    3    0    0 -0.43866476476E+02  0.11313111554E+02  0.23252345517E+02  0.50920779879E+02  0.00000000000E+00 0.  1.
         13    1    3    3    0    0  0.43866476476E+02 -0.11313111554E+02  0.35154045783E+02  0.57341618275E+02  0.00000000000E+00 0. -1.
<mgrwt>
<rscale>  0 0.91156131E+02</rscale>
<asrwt>0</asrwt>
<pdfrwt beam="2">  1        2 0.38350775E-02 0.91156131E+02</pdfrwt>
<pdfrwt beam="1">  1       -2 0.12820676E-01 0.91156131E+02</pdfrwt>
<totfact> 0.84166189E+04</totfact>
</mgrwt>
</event>
<event>
 5    1  0.6043464E+000  0.9015828E+02  0.7546771E-02  0.1302469E+00
          3   -1    0    0  501    0  0.00000000000E+00  0.00000000000E+00  0.49474806681E+01  0.49474806681E+01  0.00000000000E+00 0. -1.
         -3   -1    0    0    0  501 -0.00000000000E+00 -0.00000000000E+00 -0.41074013390E+03  0.41074013390E+03  0.00000000000E+00 0.  1.
         23    2    1    2    0    0  0.00000000000E+00  0.00000000000E+00 -0.40579265323E+03  0.41568761457E+03  0.90158280199E+02 0.  0.
        -13    1    3    3    0    0 -0.30399904740E+02 -0.31918701033E+02 -0.24643485474E+03  0.25034595127E+03  0.00000000000E+00 0. -1.
         13    1    3    3    0    0  0.30399904740E+02  0.31918701033E+02 -0.15935779849E+03  0.16534166330E+03  0.00000000000E+00 0.  1.
<mgrwt>
<rscale>  0 0.90158280E+02</rscale>
<asrwt>0</asrwt>
<pdfrwt beam="1">  1        3 0.76115089E-03 0.90158280E+02</pdfrwt>
<pdfrwt beam="2">  1       -3 0.63190788E-01 0.90158280E+02</pdfrwt>
<totfact> 0.20746988E+04</totfact>
</mgrwt>
</event>
<event>
 5    1  0.6043464E+000  0.9199418E+02  0.7546771E-02  0.1298093E+00
          1   -1    0    0  501    0  0.00000000000E+00  0.00000000000E+00  0.33664679231E+02  0.33664679231E+02  0.00000000000E+00 0.  1.
         -1   -1    0    0    0  501 -0.00000000000E+00 -0.00000000000E+00 -0.62847247349E+02  0.62847247349E+02  0.00000000000E+00 0. -1.
         23    2    1    2    0    0  0.00000000000E+00  0.00000000000E+00 -0.29182568117E+02  0.96511926580E+02  0.91994182915E+02 0.  0.
        -13    1    3    3    0    0 -0.11661465514E+02  0.36404526657E+02 -0.41429885305E+02  0.56371222583E+02  0.00000000000E+00 0. -1.
         13    1    3    3    0    0  0.11661465514E+02 -0.36404526657E+02  0.12247317188E+02  0.40140703997E+02  0.00000000000E+00 0.  1.
<mgrwt>
<rscale>  0 0.91994183E+02</rscale>
<asrwt>0</asrwt>
<pdfrwt beam="1">  1        1 0.51791814E-02 0.91994183E+02</pdfrwt>
<pdfrwt beam="2">  1       -1 0.96688073E-02 0.91994183E+02</pdfrwt>
<totfact> 0.86064154E+04</totfact>
</mgrwt>
</event>
<event>
 5    1  0.6043464E+000  0.9130017E+02  0.7546771E-02  0.1299733E+00
         -1   -1    0    0    0  501 -0.00000000000E+00  0.00000000000E+00  0.62217365252E+02  0.62217365252E+02  0.00000000000E+00 0.  1.
          1   -1    0    0  501    0  0.00000000000E+00 -0.00000000000E+00 -0.33494348032E+02  0.33494348032E+02  0.00000000000E+00 0. -1.
         23    2    1    2    0    0  0.00000000000E+00  0.00000000000E+00  0.28723017221E+02  0.95711713284E+02  0.91300166163E+02 0.  0.
        -13    1    3    3    0    0  0.48792209023E+01  0.21588047028E+02  0.56216621031E+02  0.60416546171E+02  0.00000000000E+00 0.  1.
         13    1    3    3    0    0 -0.48792209023E+01 -0.21588047028E+02 -0.27493603810E+02  0.35295167113E+02  0.00000000000E+00 0. -1.
<mgrwt>
<rscale>  0 0.91300166E+02</rscale>
<asrwt>0</asrwt>
<pdfrwt beam="2">  1        1 0.51529766E-02 0.91300166E+02</pdfrwt>
<pdfrwt beam="1">  1       -1 0.95719023E-02 0.91300166E+02</pdfrwt>
<totfact> 0.87876406E+04</totfact>
</mgrwt>
</event>
<event>
 5    1  0.6043464E+000  0.9126481E+02  0.7546771E-02  0.1299817E+00
          2   -1    0    0  501    0  0.00000000000E+00  0.00000000000E+00  0.73328766642E+01  0.73328766642E+01  0.00000000000E+00 0. -1.
         -2   -1    0    0    0  501 -0.00000000000E+00 -0.00000000000E+00 -0.28396992686E+03  0.28396992686E+03  0.00000000000E+00 0.  1.
         23    2    1    2    0    0  0.00000000000E+00  0.00000000000E+00 -0.27663705019E+03  0.29130280352E+03  0.91264811400E+02 0.  0.
        -13    1    3    3    0    0  0.30084259907E+02 -0.33584883556E+02 -0.11590521743E+03  0.12436650081E+03  0.00000000000E+00 0.  1.
         13    1    3    3    0    0 -0.30084259907E+02  0.33584883556E+02 -0.16073183276E+03  0.16693630271E+03  0.00000000000E+00 0. -1.
<mgrwt>
<rscale>  0 0.91264811E+02</rscale>
<asrwt>0</asrwt>
<pdfrwt beam="1">  1        2 0.11281349E-02 0.91264811E+02</pdfrwt>
<pdfrwt beam="2">  1       -2 0.43687681E-01 0.91264811E+02</pdfrwt>
<totfact> 0.52441624E+04</totfact>
</mgrwt>
</event>
<event>
 5    1  0.6043464E+000  0.9137922E+02  0.7546771E-02  0.1299546E+00
          3   -1    0    0  501    0  0.00000000000E+00  0.00000000000E+00  0.17520338555E+02  0.17520338555E+02  0.00000000000E+00 0. -1.
         -3   -1    0    0    0  501 -0.00000000000E+00 -0.00000000000E+00 -0.11914955362E+03  0.11914955362E+03  0.00000000000E+00 0.  1.
         23    2    1    2    0    0  0.00000000000E+00  0.00000000000E+00 -0.10162921506E+03  0.13666989217E+03  0.91379221228E+02 0.  0.
        -13    1    3    3    0    0 -0.36042178161E+02 -0.17280548393E+01 -0.92732828685E+02  0.99505790264E+02  0.00000000000E+00 0.  1.
         13    1    3    3    0    0  0.36042178161E+02  0.17280548393E+01 -0.88963863780E+01  0.37164101909E+02  0.00000000000E+00 0. -1.
<mgrwt>
<rscale>  0 0.91379221E+02</rscale>
<asrwt>0</asrwt>
<pdfrwt beam="1">  1        3 0.26954367E-02 0.91379221E+02</pdfrwt>
<pdfrwt beam="2">  1       -3 0.18330700E-01 0.91379221E+02</pdfrwt>
<totfact> 0.31951086E+04</totfact>
</mgrwt>
</event>
<event>
 5    1  0.6043464E+000  0.8809829E+02  0.7546771E-02  0.1307523E+00
          3   -1    0    0  501    0  0.00000000000E+00  0.00000000000E+00  0.12996758666E+03  0.12996758666E+03  0.00000000000E+00 0. -1.
         -3   -1    0    0    0  501 -0.00000000000E+00 -0.00000000000E+00 -0.14929316234E+02  0.14929316234E+02  0.00000000000E+00 0.  1.
         23    2    1    2    0    0  0.00000000000E+00  0.00000000000E+00  0.11503827042E+03  0.14489690289E+03  0.88098290593E+02 0.  0.
        -13    1    3    3    0    0 -0.20725648229E+02 -0.19331290054E+02  0.20583065184E+01  0.28416331491E+02  0.00000000000E+00 0.  1.
         13    1    3    3    0    0  0.20725648229E+02  0.19331290054E+02  0.11297996391E+03  0.11648057140E+03  0.00000000000E+00 0. -1.
<mgrwt>
<rscale>  0 0.88098291E+02</rscale>
<asrwt>0</asrwt>
<pdfrwt beam="1">  1        3 0.19995013E-01 0.88098291E+02</pdfrwt>
<pdfrwt beam="2">  1       -3 0.22968180E-02 0.88098291E+02</pdfrwt>
<totfact> 0.34694780E+04</totfact>
</mgrwt>
</event>
<event>
 5    1  0.6043464E+000  0.8644101E+02  0.7546771E-02  0.1311707E+00
          2   -1    0    0  501    0  0.00000000000E+00  0.00000000000E+00  0.53468031197E+02  0.53468031197E+02  0.00000000000E+00 0. -1.
         -2   -1    0    0    0  501 -0.00000000000E+00 -0.00000000000E+00 -0.34936989320E+02  0.34936989320E+02  0.00000000000E+00 0.  1.
         23    2    1    2    0    0  0.00000000000E+00  0.00000000000E+00  0.18531041876E+02  0.88405020517E+02  0.86441009594E+02 0.  0.
        -13    1    3    3    0    0 -0.32658828148E+02  0.20102975905E+02  0.29650359416E+02  0.48475483595E+02  0.00000000000E+00 0. -1.
         13    1    3    3    0    0  0.32658828148E+02 -0.20102975905E+02 -0.11119317539E+02  0.39929536922E+02  0.00000000000E+00 0.  1.
<mgrwt>
<rscale>  0 0.86441010E+02</rscale>
<asrwt>0</asrwt>
<pdfrwt beam="1">  1        2 0.82258510E-02 0.86441010E+02</pdfrwt>
<pdfrwt beam="2">  1       -2 0.53749214E-02 0.86441010E+02</pdfrwt>
<totfact> 0.11958994E+05</totfact>
</mgrwt>
</event>
<event>
 5    1  0.6043464E+000  0.9100935E+02  0.7546771E-02  0.1300426E+00
         -2   -1    0    0    0  501 -0.00000000000E+00  0.00000000000E+00  0.64667631235E+02  0.64667631235E+02  0.00000000000E+00 0. -1.
          2   -1    0    0  501    0  0.00000000000E+00 -0.00000000000E+00 -0.32020275760E+02  0.32020275760E+02  0.00000000000E+00 0.  1.
         23    2    1    2    0    0  0.00000000000E+00  0.00000000000E+00  0.32647355475E+02  0.96687906995E+02  0.91009348638E+02 0.  0.
        -13    1    3    3    0    0 -0.59939548946E+01 -0.11355028068E+02 -0.30055825597E+02  0.32683586248E+02  0.00000000000E+00 0.  1.
         13    1    3    3    0    0  0.59939548946E+01  0.11355028068E+02  0.62703181072E+02  0.64004320747E+02  0.00000000000E+00 0. -1.
<mgrwt>
<rscale>  0 0.91009349E+02</rscale>
<asrwt>0</asrwt>
<pdfrwt beam="2">  1        2 0.49261963E-02 0.91009349E+02</pdfrwt>
<pdfrwt beam="1">  1       -2 0.99488663E-02 0.91009349E+02</pdfrwt>
<totfact> 0.90499953E+04</totfact>
</mgrwt>
</event>
<event>
 5    1  0.6043464E+000  0.9091209E+02  0.7546771E-02  0.1300658E+00
         -4   -1    0    0    0  501 -0.00000000000E+00  0.00000000000E+00  0.28148780466E+02  0.28148780466E+02  0.00000000000E+00 0.  1.
          4   -1    0    0  501    0  0.00000000000E+00 -0.00000000000E+00 -0.73404667482E+02  0.73404667482E+02  0.00000000000E+00 0. -1.
         23    2    1    2    0    0  0.00000000000E+00  0.00000000000E+00 -0.45255887016E+02  0.10155344795E+03  0.90912086549E+02 0.  0.
        -13    1    3    3    0    0 -0.35600407255E+02  0.15840219343E+02 -0.48776254525E+02  0.62429356484E+02  0.00000000000E+00 0.  1.
         13    1    3    3    0    0  0.35600407255E+02 -0.15840219343E+02  0.35203675096E+01  0.39124091464E+02  0.00000000000E+00 0. -1.
<mgrwt>
<rscale>  0 0.90912087E+02</rscale>
<asrwt>0</asrwt>
<pdfrwt beam="2">  1        4 0.11293026E-01 0.90912087E+02</pdfrwt>
<pdfrwt beam="1">  1       -4 0.43305816E-02 0.90912087E+02</pdfrwt>
<totfact> 0.26571021E+04</totfact>
</mgrwt>
</event>
<event>
 5    1  0.6043464E+000  0.9447244E+02  0.7546771E-02  0.1292369E+00
          2   -1    0    0  501    0  0.00000000000E+00  0.00000000000E+00  0.31748657682E+02  0.31748657682E+02  0.00000000000E+00 0. -1.
         -2   -1    0    0    0  501 -0.00000000000E+00 -0.00000000000E+00 -0.70278889517E+02  0.70278889517E+02  0.00000000000E+00 0.  1.
         23    2    1    2    0    0  0.00000000000E+00  0.00000000000E+00 -0.38530231835E+02  0.10202754720E+03  0.94472438426E+02 0.  0.
        -13    1    3    3    0    0  0.29363157121E+02 -0.36813669830E+02 -0.15250420864E+02  0.49497642560E+02  0.00000000000E+00 0. -1.
         13    1    3    3    0    0 -0.29363157121E+02  0.36813669830E+02 -0.23279810971E+02  0.52529904639E+02  0.00000000000E+00 0.  1.
<mgrwt>
<rscale>  0 0.94472438E+02</rscale>
<asrwt>0</asrwt>
<pdfrwt beam="1">  1        2 0.48844089E-02 0.94472438E+02</pdfrwt>
<pdfrwt beam="2">  1       -2 0.10812137E-01 0.94472438E+02</pdfrwt>
<totfact> 0.80824675E+04</totfact>
</mgrwt>
</event>
<event>
 5    1  0.6043464E+000  0.9098648E+02  0.7546771E-02  0.1300480E+00
          4   -1    0    0  501    0  0.00000000000E+00  0.00000000000E+00  0.43875985478E+02  0.43875985478E+02  0.00000000000E+00 0. -1.
         -4   -1    0    0    0  501 -0.00000000000E+00 -0.00000000000E+00 -0.47170105156E+02  0.47170105156E+02  0.00000000000E+00 0.  1.
         23    2    1    2    0    0  0.00000000000E+00  0.00000000000E+00 -0.32941196778E+01  0.91046090634E+02  0.90986479189E+02 0.  0.
        -13    1    3    3    0    0  0.39347204416E+02  0.22575565933E+02 -0.50809515189E+01  0.45647286238E+02  0.00000000000E+00 0.  1.
         13    1    3    3    0    0 -0.39347204416E+02 -0.22575565933E+02  0.17868318411E+01  0.45398804396E+02  0.00000000000E+00 0. -1.
<mgrwt>
<rscale>  0 0.90986479E+02</rscale>
<asrwt>0</asrwt>
<pdfrwt beam="1">  1        4 0.67501516E-02 0.90986479E+02</pdfrwt>
<pdfrwt beam="2">  1       -4 0.72569392E-02 0.90986479E+02</pdfrwt>
<totfact> 0.27178576E+04</totfact>
</mgrwt>
</event>
<event>
 5    1  0.6043464E+000  0.8394499E+02  0.7546771E-02  0.1318215E+00
         -3   -1    0    0    0  501 -0.00000000000E+00  0.00000000000E+00  0.84461367815E+01  0.84461367815E+01  0.00000000000E+00 0.  1.
          3   -1    0    0  501    0  0.00000000000E+00 -0.00000000000E+00 -0.20857942702E+03  0.20857942702E+03  0.00000000000E+00 0. -1.
         23    2    1    2    0    0  0.00000000000E+00  0.00000000000E+00 -0.20013329024E+03  0.21702556380E+03  0.83944990807E+02 0.  0.
        -13    1    3    3    0    0 -0.23158824663E+02 -0.33412489786E+02 -0.73079366386E+02  0.83626069051E+02  0.00000000000E+00 0.  1.
         13    1    3    3    0    0  0.23158824663E+02  0.33412489786E+02 -0.12705392385E+03  0.13339949475E+03  0.00000000000E+00 0. -1.
<mgrwt>
<rscale>  0 0.83944991E+02</rscale>
<asrwt>0</asrwt>
<pdfrwt beam="2">  1        3 0.32089142E-01 0.83944991E+02</pdfrwt>
<pdfrwt beam="1">  1       -3 0.12994057E-02 0.83944991E+02</pdfrwt>
<totfact> 0.34491184E+04</totfact>
</mgrwt>
</event>
<event>
 4    1  0.6043464E+000  0.1355146E+03  0.7546771E-02  0.1219495E+00
         -1   -1    0    0    0  501 -0.00000000000E+00  0.00000000000E+00  0.71435296583E+02  0.71435296583E+02  0.00000000000E+00 0.  1.
          1   -1    0    0  501    0  0.00000000000E+00 -0.00000000000E+00 -0.64268680742E+02  0.64268680742E+02  0.00000000000E+00 0. -1.
        -13    1    1    2    0    0 -0.11139673708E+02  0.13415410673E+02  0.69149887757E+02  0.71314602647E+02  0.00000000000E+00 0.  1.
         13    1    1    2    0    0  0.11139673708E+02 -0.13415410673E+02 -0.61983271917E+02  0.64389374677E+02  0.00000000000E+00 0. -1.
<mgrwt>
<rscale>  0 0.13551461E+03</rscale>
<asrwt>0</asrwt>
<pdfrwt beam="2">  1        1 0.98874893E-02 0.13551461E+03</pdfrwt>
<pdfrwt beam="1">  1       -1 0.10990046E-01 0.13551461E+03</pdfrwt>
<totfact> 0.31390894E+04</totfact>
</mgrwt>
</event>
<event>
 5    1  0.6043464E+000  0.8971407E+02  0.7546771E-02  0.1303546E+00
         -1   -1    0    0    0  501 -0.00000000000E+00  0.00000000000E+00  0.39215426667E+02  0.39215426667E+02  0.00000000000E+00 0.  1.
          1   -1    0    0  501    0  0.00000000000E+00 -0.00000000000E+00 -0.51310261687E+02  0.51310261687E+02  0.00000000000E+00 0. -1.
         23    2    1    2    0    0  0.00000000000E+00  0.00000000000E+00 -0.12094835020E+02  0.90525688354E+02  0.89714074803E+02 0.  0.
        -13    1    3    3    0    0 -0.19165380740E+02 -0.33388156037E+02 -0.29279016568E+02  0.48366740573E+02  0.00000000000E+00 0. -1.
         13    1    3    3    0    0  0.19165380740E+02  0.33388156037E+02  0.17184181548E+02  0.42158947781E+02  0.00000000000E+00 0.  1.
<mgrwt>
<rscale>  0 0.89714075E+02</rscale>
<asrwt>0</asrwt>
<pdfrwt beam="2">  1        1 0.78938864E-02 0.89714075E+02</pdfrwt>
<pdfrwt beam="1">  1       -1 0.60331425E-02 0.89714075E+02</pdfrwt>
<totfact> 0.98467095E+04</totfact>
</mgrwt>
</event>
<event>
 5    1  0.6043464E+000  0.9150565E+02  0.7546771E-02  0.1299246E+00
         -1   -1    0    0    0  501 -0.00000000000E+00  0.00000000000E+00  0.13788833143E+02  0.13788833143E+02  0.00000000000E+00 0.  1.
          1   -1    0    0  501    0  0.00000000000E+00 -0.00000000000E+00 -0.15181278342E+03  0.15181278342E+03  0.00000000000E+00 0. -1.
         23    2    1    2    0    0  0.00000000000E+00  0.00000000000E+00 -0.13802395028E+03  0.16560161656E+03  0.91505653150E+02 0.  0.
        -13    1    3    3    0    0 -0.21505557434E+02  0.32499580965E+02 -0.11239331894E+03  0.11895784928E+03  0.00000000000E+00 0. -1.
         13    1    3    3    0    0  0.21505557434E+02 -0.32499580965E+02 -0.25630631337E+02  0.46643767282E+02  0.00000000000E+00 0.  1.
<mgrwt>
<rscale>  0 0.91505653E+02</rscale>
<asrwt>0</asrwt>
<pdfrwt beam="2">  1        1 0.23355813E-01 0.91505653E+02</pdfrwt>
<pdfrwt beam="1">  1       -1 0.21213589E-02 0.91505653E+02</pdfrwt>
<totfact> 0.11129394E+05</totfact>
</mgrwt>
</event>
<event>
 5    1  0.6043464E+000  0.9112516E+02  0.7546771E-02  0.1300150E+00
          1   -1    0    0  501    0  0.00000000000E+00  0.00000000000E+00  0.36064572863E+03  0.36064572863E+03  0.00000000000E+00 0. -1.
         -1   -1    0    0    0  501 -0.00000000000E+00 -0.00000000000E+00 -0.57561998006E+01  0.57561998006E+01  0.00000000000E+00 0.  1.
         23    2    1    2    0    0  0.00000000000E+00  0.00000000000E+00  0.35488952883E+03  0.36640192843E+03  0.91125163840E+02 0.  0.
        -13    1    3    3    0    0  0.39982096183E+02  0.21404748705E+02  0.19507137777E+03  0.20027374692E+03  0.00000000000E+00 0.  1.
         13    1    3    3    0    0 -0.39982096183E+02 -0.21404748705E+02  0.15981815106E+03  0.16612818151E+03  0.00000000000E+00 0. -1.
<mgrwt>
<rscale>  0 0.91125164E+02</rscale>
<asrwt>0</asrwt>
<pdfrwt beam="1">  1        1 0.55483941E-01 0.91125164E+02</pdfrwt>
<pdfrwt beam="2">  1       -1 0.88556948E-03 0.91125164E+02</pdfrwt>
<totfact> 0.13273355E+05</totfact>
</mgrwt>
</event>
<event>
 5    1  0.6043464E+000  0.9158305E+02  0.7546771E-02  0.1299063E+00
         -3   -1    0    0    0  501 -0.00000000000E+00  0.00000000000E+00  0.12268386660E+03  0.12268386660E+03  0.00000000000E+00 0.  1.
          3   -1    0    0  501    0  0.00000000000E+00 -0.00000000000E+00 -0.17091602440E+02  0.17091602440E+02  0.00000000000E+00 0. -1.
         23    2    1    2    0    0  0.00000000000E+00  0.00000000000E+00  0.10559226416E+03  0.13977546904E+03  0.91583052443E+02 0.  0.
        -13    1    3    3    0    0  0.36200679025E+02  0.12175702523E+02  0.14242136134E+02  0.40762425534E+02  0.00000000000E+00 0. -1.
         13    1    3    3    0    0 -0.36200679025E+02 -0.12175702523E+02  0.91350128026E+02  0.99013043505E+02  0.00000000000E+00 0.  1.
<mgrwt>
<rscale>  0 0.91583052E+02</rscale>
<asrwt>0</asrwt>
<pdfrwt beam="2">  1        3 0.26294774E-02 0.91583052E+02</pdfrwt>
<pdfrwt beam="1">  1       -3 0.18874440E-01 0.91583052E+02</pdfrwt>
<totfact> 0.31562565E+04</totfact>
</mgrwt>
</event>
<event>
 5    1  0.6043464E+000  0.9165243E+02  0.7546771E-02  0.1298899E+00
          3   -1    0    0  501    0  0.00000000000E+00  0.00000000000E+00  0.26170938647E+02  0.26170938647E+02  0.00000000000E+00 0. -1.
         -3   -1    0    0    0  501 -0.00000000000E+00 -0.00000000000E+00 -0.80243287046E+02  0.80243287046E+02  0.00000000000E+00 0.  1.
         23    2    1    2    0    0  0.00000000000E+00  0.00000000000E+00 -0.54072348399E+02  0.10641422569E+03  0.91652433511E+02 0.  0.
        -13    1    3    3    0    0  0.95767906317E+01 -0.22662120452E+02  0.17852912723E+02  0.30397584030E+02  0.00000000000E+00 0. -1.
         13    1    3    3    0    0 -0.95767906317E+01  0.22662120452E+02 -0.71925261123E+02  0.76016641663E+02  0.00000000000E+00 0.  1.
<mgrwt>
<rscale>  0 0.91652434E+02</rscale>
<asrwt>0</asrwt>
<pdfrwt beam="1">  1        3 0.40262983E-02 0.91652434E+02</pdfrwt>
<pdfrwt beam="2">  1       -3 0.12345121E-01 0.91652434E+02</pdfrwt>
<totfact> 0.33722024E+04</totfact>
</mgrwt>
</event>
<event>
 5    1  0.6043464E+000  0.9156396E+02  0.7546771E-02  0.1299108E+00
         -1   -1    0    0    0  501 -0.00000000000E+00  0.00000000000E+00  0.61580163617E+02  0.61580163617E+02  0.00000000000E+00 0.  1.
          1   -1    0    0  501    0  0.00000000000E+00 -0.00000000000E+00 -0.34036765468E+02  0.34036765468E+02  0.00000000000E+00 0. -1.
         23    2    1    2    0    0  0.00000000000E+00  0.00000000000E+00  0.27543398148E+02  0.95616929085E+02  0.91563957680E+02 0.  0.
        -13    1    3    3    0    0  0.30040044244E+02 -0.57556676005E+01  0.49345058264E+02  0.58055721017E+02  0.00000000000E+00 0.  1.
         13    1    3    3    0    0 -0.30040044244E+02  0.57556676005E+01 -0.21801660116E+02  0.37561208068E+02  0.00000000000E+00 0. -1.
<mgrwt>
<rscale>  0 0.91563958E+02</rscale>
<asrwt>0</asrwt>
<pdfrwt beam="2">  1        1 0.52364255E-02 0.91563958E+02</pdfrwt>
<pdfrwt beam="1">  1       -1 0.94738713E-02 0.91563958E+02</pdfrwt>
<totfact> 0.87375636E+04</totfact>
</mgrwt>
</event>
<event>
 5    1  0.6043464E+000  0.9209949E+02  0.7546771E-02  0.1297846E+00
          2   -1    0    0  501    0  0.00000000000E+00  0.00000000000E+00  0.21684281628E+03  0.21684281628E+03  0.00000000000E+00 0. -1.
         -2   -1    0    0    0  501 -0.00000000000E+00 -0.00000000000E+00 -0.97793373729E+01  0.97793373729E+01  0.00000000000E+00 0.  1.
         23    2    1    2    0    0  0.00000000000E+00  0.00000000000E+00  0.20706347890E+03  0.22662215365E+03  0.92099490927E+02 0.  0.
        -13    1    3    3    0    0  0.41177800492E+02 -0.16525361570E+02  0.73207092438E+02  0.85603605132E+02  0.00000000000E+00 0.  1.
         13    1    3    3    0    0 -0.41177800492E+02  0.16525361570E+02  0.13385638647E+03  0.14101854852E+03  0.00000000000E+00 0. -1.
<mgrwt>
<rscale>  0 0.92099491E+02</rscale>
<asrwt>0</asrwt>
<pdfrwt beam="1">  1        2 0.33360430E-01 0.92099491E+02</pdfrwt>
<pdfrwt beam="2">  1       -2 0.15045136E-02 0.92099491E+02</pdfrwt>
<totfact> 0.15503799E+05</totfact>
</mgrwt>
</event>
<event>
 5    1  0.6043464E+000  0.9156185E+02  0.7546771E-02  0.1299113E+00
          2   -1    0    0  501    0  0.00000000000E+00  0.00000000000E+00  0.16983799797E+03  0.16983799797E+03  0.00000000000E+00 0. -1.
         -2   -1    0    0    0  501 -0.00000000000E+00 -0.00000000000E+00 -0.12340542752E+02  0.12340542752E+02  0.00000000000E+00 0.  1.
         23    2    1    2    0    0  0.00000000000E+00  0.00000000000E+00  0.15749745522E+03  0.18217854072E+03  0.91561849584E+02 0.  0.
        -13    1    3    3    0    0  0.27661811459E+02 -0.21736652062E+02  0.20459831827E+02  0.40697205979E+02  0.00000000000E+00 0.  1.
         13    1    3    3    0    0 -0.27661811459E+02  0.21736652062E+02  0.13703762339E+03  0.14148133474E+03  0.00000000000E+00 0. -1.
<mgrwt>
<rscale>  0 0.91561850E+02</rscale>
<asrwt>0</asrwt>
<pdfrwt beam="1">  1        2 0.26128921E-01 0.91561850E+02</pdfrwt>
<pdfrwt beam="2">  1       -2 0.18985452E-02 0.91561850E+02</pdfrwt>
<totfact> 0.14427472E+05</totfact>
</mgrwt>
</event>
<event>
 5    1  0.6043464E+000  0.9499319E+02  0.7546771E-02  0.1291191E+00
          1   -1    0    0  501    0  0.00000000000E+00  0.00000000000E+00  0.11831141056E+02  0.11831141056E+02  0.00000000000E+00 0. -1.
         -1   -1    0    0    0  501 -0.00000000000E+00 -0.00000000000E+00 -0.19067699779E+03  0.19067699779E+03  0.00000000000E+00 0.  1.
         23    2    1    2    0    0  0.00000000000E+00  0.00000000000E+00 -0.17884585673E+03  0.20250813885E+03  0.94993188323E+02 0.  0.
        -13    1    3    3    0    0  0.31285034091E+02  0.27430776109E+02 -0.40589619443E+02  0.58126741201E+02  0.00000000000E+00 0.  1.
         13    1    3    3    0    0 -0.31285034091E+02 -0.27430776109E+02 -0.13825623729E+03  0.14438139765E+03  0.00000000000E+00 0. -1.
<mgrwt>
<rscale>  0 0.94993188E+02</rscale>
<asrwt>0</asrwt>
<pdfrwt beam="1">  1        1 0.18201756E-02 0.94993188E+02</pdfrwt>
<pdfrwt beam="2">  1       -1 0.29334922E-01 0.94993188E+02</pdfrwt>
<totfact> 0.63224323E+04</totfact>
</mgrwt>
</event>
<event>
 5    1  0.6043464E+000  0.9195742E+02  0.7546771E-02  0.1298180E+00
          2   -1    0    0  501    0  0.00000000000E+00  0.00000000000E+00  0.59630738308E+01  0.59630738308E+01  0.00000000000E+00 0. -1.
         -2   -1    0    0    0  501 -0.00000000000E+00 -0.00000000000E+00 -0.35452213045E+03  0.35452213045E+03  0.00000000000E+00 0.  1.
         23    2    1    2    0    0  0.00000000000E+00  0.00000000000E+00 -0.34855905662E+03  0.36048520429E+03  0.91957417070E+02 0.  0.
        -13    1    3    3    0    0  0.24360862200E+02 -0.34882260659E+02 -0.24260889181E+03  0.24631138443E+03  0.00000000000E+00 0.  1.
         13    1    3    3    0    0 -0.24360862200E+02  0.34882260659E+02 -0.10595016482E+03  0.11417381986E+03  0.00000000000E+00 0. -1.
<mgrwt>
<rscale>  0 0.91957417E+02</rscale>
<asrwt>0</asrwt>
<pdfrwt beam="1">  1        2 0.91739587E-03 0.91957417E+02</pdfrwt>
<pdfrwt beam="2">  1       -2 0.54541872E-01 0.91957417E+02</pdfrwt>
<totfact> 0.45178242E+04</totfact>
</mgrwt>
</event>
<event>
 5    1  0.6043464E+000  0.9156379E+02  0.7546771E-02  0.1299108E+00
          1   -1    0    0  501    0  0.00000000000E+00  0.00000000000E+00  0.13408106686E+02  0.13408106686E+02  0.00000000000E+00 0. -1.
         -1   -1    0    0    0  501 -0.00000000000E+00 -0.00000000000E+00 -0.15632199908E+03  0.15632199908E+03  0.00000000000E+00 0.  1.
         23    2    1    2    0    0  0.00000000000E+00  0.00000000000E+00 -0.14291389240E+03  0.16973010577E+03  0.91563792866E+02 0.  0.
        -13    1    3    3    0    0  0.27119813633E+02  0.32731128459E+02 -0.10297885154E+03  0.11140670952E+03  0.00000000000E+00 0. -1.
         13    1    3    3    0    0 -0.27119813633E+02 -0.32731128459E+02 -0.39935040860E+02  0.58323396250E+02  0.00000000000E+00 0.  1.
<mgrwt>
<rscale>  0 0.91563793E+02</rscale>
<asrwt>0</asrwt>
<pdfrwt beam="1">  1        1 0.20627857E-02 0.91563793E+02</pdfrwt>
<pdfrwt beam="2">  1       -1 0.24049538E-01 0.91563793E+02</pdfrwt>
<totfact> 0.73248525E+04</totfact>
</mgrwt>
</event>
<event>
 5    1  0.6043464E+000  0.9083729E+02  0.7546771E-02  0.1300837E+00
         -3   -1    0    0    0  501 -0.00000000000E+00  0.00000000000E+00  0.26151187641E+03  0.26151187641E+03  0.00000000000E+00 0.  1.
          3   -1    0    0  501    0  0.00000000000E+00 -0.00000000000E+00 -0.78881819674E+01  0.78881819674E+01  0.00000000000E+00 0. -1.
         23    2    1    2    0    0  0.00000000000E+00  0.00000000000E+00  0.25362369444E+03  0.26940005838E+03  0.90837288990E+02 0.  0.
        -13    1    3    3    0    0  0.35271332016E+02 -0.11854291715E+02  0.20405007845E+03  0.20741510458E+03  0.00000000000E+00 0.  1.
         13    1    3    3    0    0 -0.35271332016E+02  0.11854291715E+02  0.49573615994E+02  0.61984953795E+02  0.00000000000E+00 0. -1.
<mgrwt>
<rscale>  0 0.90837289E+02</rscale>
<asrwt>0</asrwt>
<pdfrwt beam="2">  1        3 0.12135667E-02 0.90837289E+02</pdfrwt>
<pdfrwt beam="1">  1       -3 0.40232590E-01 0.90837289E+02</pdfrwt>
<totfact> 0.25514343E+04</totfact>
</mgrwt>
</event>
<event>
 5    1  0.6043464E+000  0.8915406E+02  0.7546771E-02  0.1304913E+00
         -2   -1    0    0    0  501 -0.00000000000E+00  0.00000000000E+00  0.57110089877E+02  0.57110089877E+02  0.00000000000E+00 0. -1.
          2   -1    0    0  501    0  0.00000000000E+00 -0.00000000000E+00 -0.34794407351E+02  0.34794407351E+02  0.00000000000E+00 0.  1.
         23    2    1    2    0    0  0.00000000000E+00  0.00000000000E+00  0.22315682526E+02  0.91904497228E+02  0.89154062859E+02 0.  0.
        -13    1    3    3    0    0 -0.13998853248E+02 -0.42246866494E+02  0.13754706605E+02  0.46582803421E+02  0.00000000000E+00 0.  1.
         13    1    3    3    0    0  0.13998853248E+02  0.42246866494E+02  0.85609759210E+01  0.45321693807E+02  0.00000000000E+00 0. -1.
<mgrwt>
<rscale>  0 0.89154063E+02</rscale>
<asrwt>0</asrwt>
<pdfrwt beam="2">  1        2 0.53529857E-02 0.89154063E+02</pdfrwt>
<pdfrwt beam="1">  1       -2 0.87861677E-02 0.89154063E+02</pdfrwt>
<totfact> 0.98223045E+04</totfact>
</mgrwt>
</event>
<event>
 4    1  0.6043464E+000  0.2818139E+02  0.7546771E-02  0.1619107E+00
          1   -1    0    0  501    0  0.00000000000E+00  0.00000000000E+00  0.80838745709E+01  0.80838745709E+01  0.00000000000E+00 0. -1.
         -1   -1    0    0    0  501 -0.00000000000E+00 -0.00000000000E+00 -0.24560952858E+02  0.24560952858E+02  0.00000000000E+00 0.  1.
        -13    1    1    2    0    0  0.10848055331E+01 -0.10917570526E+02 -0.18480731259E+02  0.21492035201E+02  0.00000000000E+00 0.  1.
         13    1    1    2    0    0 -0.10848055331E+01  0.10917570526E+02  0.20036529722E+01  0.11152792227E+02  0.00000000000E+00 0. -1.
<mgrwt>
<rscale>  0 0.28181388E+02</rscale>
<asrwt>0</asrwt>
<pdfrwt beam="1">  1        1 0.12436730E-02 0.28181388E+02</pdfrwt>
<pdfrwt beam="2">  1       -1 0.37786082E-02 0.28181388E+02</pdfrwt>
<totfact> 0.17058464E+06</totfact>
</mgrwt>
</event>
<event>
 5    1  0.6043464E+000  0.9134388E+02  0.7546771E-02  0.1299630E+00
         -4   -1    0    0    0  501 -0.00000000000E+00  0.00000000000E+00  0.80666040677E+02  0.80666040677E+02  0.00000000000E+00 0.  1.
          4   -1    0    0  501    0  0.00000000000E+00 -0.00000000000E+00 -0.25858786699E+02  0.25858786699E+02  0.00000000000E+00 0. -1.
         23    2    1    2    0    0  0.00000000000E+00  0.00000000000E+00  0.54807253978E+02  0.10652482738E+03  0.91343876417E+02 0.  0.
        -13    1    3    3    0    0 -0.14929778012E+02 -0.10423963585E+02  0.76249944733E+02  0.78393949767E+02  0.00000000000E+00 0.  1.
         13    1    3    3    0    0  0.14929778012E+02  0.10423963585E+02 -0.21442690754E+02  0.28130877610E+02  0.00000000000E+00 0. -1.
<mgrwt>
<rscale>  0 0.91343876E+02</rscale>
<asrwt>0</asrwt>
<pdfrwt beam="2">  1        4 0.39782749E-02 0.91343876E+02</pdfrwt>
<pdfrwt beam="1">  1       -4 0.12410160E-01 0.91343876E+02</pdfrwt>
<totfact> 0.25931153E+04</totfact>
</mgrwt>
</event>
<event>
 5    1  0.6043464E+000  0.9075408E+02  0.7546771E-02  0.1301036E+00
         -3   -1    0    0    0  501 -0.00000000000E+00  0.00000000000E+00  0.15738226855E+03  0.15738226855E+03  0.00000000000E+00 0.  1.
          3   -1    0    0  501    0  0.00000000000E+00 -0.00000000000E+00 -0.13083277820E+02  0.13083277820E+02  0.00000000000E+00 0. -1.
         23    2    1    2    0    0  0.00000000000E+00  0.00000000000E+00  0.14429899073E+03  0.17046554637E+03  0.90754084061E+02 0.  0.
        -13    1    3    3    0    0 -0.10739684206E+02  0.39504596714E+02  0.35384123538E+02  0.54110906266E+02  0.00000000000E+00 0. -1.
         13    1    3    3    0    0  0.10739684206E+02 -0.39504596714E+02  0.10891486719E+03  0.11635464010E+03  0.00000000000E+00 0.  1.
<mgrwt>
<rscale>  0 0.90754084E+02</rscale>
<asrwt>0</asrwt>
<pdfrwt beam="2">  1        3 0.20128121E-02 0.90754084E+02</pdfrwt>
<pdfrwt beam="1">  1       -3 0.24212655E-01 0.90754084E+02</pdfrwt>
<totfact> 0.30480619E+04</totfact>
</mgrwt>
</event>
<event>
 5    1  0.6043464E+000  0.9003376E+02  0.7546771E-02  0.1302770E+00
         -1   -1    0    0    0  501 -0.00000000000E+00  0.00000000000E+00  0.22927849576E+02  0.22927849576E+02  0.00000000000E+00 0.  1.
          1   -1    0    0  501    0  0.00000000000E+00 -0.00000000000E+00 -0.88386808446E+02  0.88386808446E+02  0.00000000000E+00 0. -1.
         23    2    1    2    0    0  0.00000000000E+00  0.00000000000E+00 -0.65458958870E+02  0.11131465802E+03  0.90033759191E+02 0.  0.
        -13    1    3    3    0    0  0.32528608061E+02  0.25295760924E+02 -0.10319737292E+02  0.42479204806E+02  0.00000000000E+00 0.  1.
         13    1    3    3    0    0 -0.32528608061E+02 -0.25295760924E+02 -0.55139221578E+02  0.68835453216E+02  0.00000000000E+00 0. -1.
<mgrwt>
<rscale>  0 0.90033759E+02</rscale>
<asrwt>0</asrwt>
<pdfrwt beam="2">  1        1 0.13597970E-01 0.90033759E+02</pdfrwt>
<pdfrwt beam="1">  1       -1 0.35273616E-02 0.90033759E+02</pdfrwt>
<totfact> 0.10594966E+05</totfact>
</mgrwt>
</event>
<event>
 5    1  0.6043464E+000  0.9209933E+02  0.7546771E-02  0.1297846E+00
         -3   -1    0    0    0  501 -0.00000000000E+00  0.00000000000E+00  0.34268161118E+02  0.34268161118E+02  0.00000000000E+00 0.  1.
          3   -1    0    0  501    0  0.00000000000E+00 -0.00000000000E+00 -0.61881693022E+02  0.61881693022E+02  0.00000000000E+00 0. -1.
         23    2    1    2    0    0  0.00000000000E+00  0.00000000000E+00 -0.27613531904E+02  0.96149854140E+02  0.92099333911E+02 0.  0.
        -13    1    3    3    0    0  0.13470834926E+02  0.24339627714E+02 -0.52117997433E+02  0.59077631362E+02  0.00000000000E+00 0. -1.
         13    1    3    3    0    0 -0.13470834926E+02 -0.24339627714E+02  0.24504465529E+02  0.37072222778E+02  0.00000000000E+00 0.  1.
<mgrwt>
<rscale>  0 0.92099334E+02</rscale>
<asrwt>0</asrwt>
<pdfrwt beam="2">  1        3 0.95202605E-02 0.92099334E+02</pdfrwt>
<pdfrwt beam="1">  1       -3 0.52720247E-02 0.92099334E+02</pdfrwt>
<totfact> 0.34011967E+04</totfact>
</mgrwt>
</event>
<event>
 5    1  0.6043464E+000  0.9202249E+02  0.7546771E-02  0.1298027E+00
          1   -1    0    0  501    0  0.00000000000E+00  0.00000000000E+00  0.86481659304E+02  0.86481659304E+02  0.00000000000E+00 0. -1.
         -1   -1    0    0    0  501 -0.00000000000E+00 -0.00000000000E+00 -0.24479577814E+02  0.24479577814E+02  0.00000000000E+00 0.  1.
         23    2    1    2    0    0  0.00000000000E+00  0.00000000000E+00  0.62002081490E+02  0.11096123712E+03  0.92022486564E+02 0.  0.
        -13    1    3    3    0    0  0.54710413708E+01 -0.27473638373E+02 -0.13011715791E+02  0.30887503087E+02  0.00000000000E+00 0.  1.
         13    1    3    3    0    0 -0.54710413708E+01  0.27473638373E+02  0.75013797281E+02  0.80073734031E+02  0.00000000000E+00 0. -1.
<mgrwt>
<rscale>  0 0.92022487E+02</rscale>
<asrwt>0</asrwt>
<pdfrwt beam="1">  1        1 0.13304871E-01 0.92022487E+02</pdfrwt>
<pdfrwt beam="2">  1       -1 0.37660889E-02 0.92022487E+02</pdfrwt>
<totfact> 0.99451689E+04</totfact>
</mgrwt>
</event>
<event>
 5    1  0.6043464E+000  0.9291527E+02  0.7546771E-02  0.1295942E+00
          1   -1    0    0  501    0  0.00000000000E+00  0.00000000000E+00  0.31255668555E+02  0.31255668555E+02  0.00000000000E+00 0. -1.
         -1   -1    0    0    0  501 -0.00000000000E+00 -0.00000000000E+00 -0.69053449530E+02  0.69053449530E+02  0.00000000000E+00 0.  1.
         23    2    1    2    0    0  0.00000000000E+00  0.00000000000E+00 -0.37797780975E+02  0.10030911808E+03  0.92915267444E+02 0.  0.
        -13    1    3    3    0    0 -0.12332109774E+02 -0.12082677536E+02  0.27663769839E+02  0.32609142731E+02  0.00000000000E+00 0. -1.
         13    1    3    3    0    0  0.12332109774E+02  0.12082677536E+02 -0.65461550814E+02  0.67699975354E+02  0.00000000000E+00 0.  1.
<mgrwt>
<rscale>  0 0.92915267E+02</rscale>
<asrwt>0</asrwt>
<pdfrwt beam="1">  1        1 0.48085644E-02 0.92915267E+02</pdfrwt>
<pdfrwt beam="2">  1       -1 0.10623608E-01 0.92915267E+02</pdfrwt>
<totfact> 0.82649920E+04</totfact>
</mgrwt>
</event>
<event>
 5    1  0.6043464E+000  0.9205731E+02  0.7546771E-02  0.1297945E+00
         -2   -1    0    0    0  501 -0.00000000000E+00  0.00000000000E+00  0.72892580050E+02  0.72892580050E+02  0.00000000000E+00 0.  1.
          2   -1    0    0  501    0  0.00000000000E+00 -0.00000000000E+00 -0.29065195371E+02  0.29065195371E+02  0.00000000000E+00 0. -1.
         23    2    1    2    0    0  0.00000000000E+00  0.00000000000E+00  0.43827384680E+02  0.10195777542E+03  0.92057309981E+02 0.  0.
        -13    1    3    3    0    0 -0.30140801773E+02 -0.26200544157E+02 -0.34319686157E+01  0.40083847798E+02  0.00000000000E+00 0. -1.
         13    1    3    3    0    0  0.30140801773E+02  0.26200544157E+02  0.47259353295E+02  0.61873927624E+02  0.00000000000E+00 0.  1.
<mgrwt>
<rscale>  0 0.92057310E+02</rscale>
<asrwt>0</asrwt>
<pdfrwt beam="2">  1        2 0.44715685E-02 0.92057310E+02</pdfrwt>
<pdfrwt beam="1">  1       -2 0.11214243E-01 0.92057310E+02</pdfrwt>
<totfact> 0.85240246E+04</totfact>
</mgrwt>
</event>
<event>
 5    1  0.6043464E+000  0.9375145E+02  0.7546771E-02  0.1294013E+00
          1   -1    0    0  501    0  0.00000000000E+00  0.00000000000E+00  0.31521659338E+03  0.31521659338E+03  0.00000000000E+00 0. -1.
         -1   -1    0    0    0  501 -0.00000000000E+00 -0.00000000000E+00 -0.69708686373E+01  0.69708686373E+01  0.00000000000E+00 0.  1.
         23    2    1    2    0    0  0.00000000000E+00  0.00000000000E+00  0.30824572474E+03  0.32218746202E+03  0.93751447237E+02 0.  0.
        -13    1    3    3    0    0 -0.19942940788E+02 -0.34887059699E+02  0.23706605032E+03  0.24044779067E+03  0.00000000000E+00 0. -1.
         13    1    3    3    0    0  0.19942940788E+02  0.34887059699E+02  0.71179674422E+02  0.81739671351E+02  0.00000000000E+00 0.  1.
<mgrwt>
<rscale>  0 0.93751447E+02</rscale>
<asrwt>0</asrwt>
<pdfrwt beam="1">  1        1 0.48494849E-01 0.93751447E+02</pdfrwt>
<pdfrwt beam="2">  1       -1 0.10724416E-02 0.93751447E+02</pdfrwt>
<totfact> 0.12006622E+05</totfact>
</mgrwt>
</event>
<event>
 5    1  0.6043464E+000  0.9727575E+02  0.7546771E-02  0.1286131E+00
          1   -1    0    0  501    0  0.00000000000E+00  0.00000000000E+00  0.52984108330E+02  0.52984108330E+02  0.00000000000E+00 0. -1.
         -1   -1    0    0    0  501 -0.00000000000E+00 -0.00000000000E+00 -0.44648163336E+02  0.44648163336E+02  0.00000000000E+00 0.  1.
         23    2    1    2    0    0  0.00000000000E+00  0.00000000000E+00  0.83359449938E+01  0.97632271666E+02  0.97275754902E+02 0.  0.
        -13    1    3    3    0    0 -0.16777774374E+02 -0.34563928518E+02 -0.25765556252E+02  0.46260379986E+02  0.00000000000E+00 0.  1.
         13    1    3    3    0    0  0.16777774374E+02  0.34563928518E+02  0.34101501246E+02  0.51371891680E+02  0.00000000000E+00 0. -1.
<mgrwt>
<rscale>  0 0.97275755E+02</rscale>
<asrwt>0</asrwt>
<pdfrwt beam="1">  1        1 0.81514013E-02 0.97275755E+02</pdfrwt>
<pdfrwt beam="2">  1       -1 0.68689482E-02 0.97275755E+02</pdfrwt>
<totfact> 0.78876244E+04</totfact>
</mgrwt>
</event>
<event>
 5    1  0.6043464E+000  0.8031468E+02  0.7546771E-02  0.1328161E+00
          1   -1    0    0  501    0  0.00000000000E+00  0.00000000000E+00  0.50090823419E+02  0.50090823419E+02  0.00000000000E+00 0. -1.
         -1   -1    0    0    0  501 -0.00000000000E+00 -0.00000000000E+00 -0.32193756924E+02  0.32193756924E+02  0.00000000000E+00 0.  1.
         23    2    1    2    0    0  0.00000000000E+00  0.00000000000E+00  0.17897066495E+02  0.82284580342E+02  0.80314675950E+02 0.  0.
        -13    1    3    3    0    0  0.16653976511E+01  0.27055862765E+02  0.39303231511E+02  0.47744499856E+02  0.00000000000E+00 0. -1.
         13    1    3    3    0    0 -0.16653976511E+01 -0.27055862765E+02 -0.21406165016E+02  0.34540080486E+02  0.00000000000E+00 0.  1.
<mgrwt>
<rscale>  0 0.80314676E+02</rscale>
<asrwt>0</asrwt>
<pdfrwt beam="1">  1        1 0.77062805E-02 0.80314676E+02</pdfrwt>
<pdfrwt beam="2">  1       -1 0.49528857E-02 0.80314676E+02</pdfrwt>
<totfact> 0.13320024E+05</totfact>
</mgrwt>
</event>
<event>
 5    1  0.6043464E+000  0.9303053E+02  0.7546771E-02  0.1295674E+00
         -2   -1    0    0    0  501 -0.00000000000E+00  0.00000000000E+00  0.21591690046E+02  0.21591690046E+02  0.00000000000E+00 0.  1.
          2   -1    0    0  501    0  0.00000000000E+00 -0.00000000000E+00 -0.10020845124E+03  0.10020845124E+03  0.00000000000E+00 0. -1.
         23    2    1    2    0    0  0.00000000000E+00  0.00000000000E+00 -0.78616761193E+02  0.12180014128E+03  0.93030528733E+02 0.  0.
        -13    1    3    3    0    0  0.24502088813E+02  0.12898986455E+02  0.96255595340E+01  0.29315313474E+02  0.00000000000E+00 0.  1.
         13    1    3    3    0    0 -0.24502088813E+02 -0.12898986455E+02 -0.88242320727E+02  0.92484827810E+02  0.00000000000E+00 0. -1.
<mgrwt>
<rscale>  0 0.93030529E+02</rscale>
<asrwt>0</asrwt>
<pdfrwt beam="2">  1        2 0.15416685E-01 0.93030529E+02</pdfrwt>
<pdfrwt beam="1">  1       -2 0.33217984E-02 0.93030529E+02</pdfrwt>
<totfact> 0.11612263E+05</totfact>
</mgrwt>
</event>
<event>
 5    1  0.6043464E+000  0.9060350E+02  0.7546771E-02  0.1301397E+00
         -2   -1    0    0    0  501 -0.00000000000E+00  0.00000000000E+00  0.38462765505E+02  0.38462765505E+02  0.00000000000E+00 0.  1.
          2   -1    0    0  501    0  0.00000000000E+00 -0.00000000000E+00 -0.53356761906E+02  0.53356761906E+02  0.00000000000E+00 0. -1.
         23    2    1    2    0    0  0.00000000000E+00  0.00000000000E+00 -0.14893996400E+02  0.91819527411E+02  0.90603501507E+02 0.  0.
        -13    1    3    3    0    0  0.12598507257E+02  0.14745109950E+02  0.34042775556E+02  0.39179729710E+02  0.00000000000E+00 0.  1.
         13    1    3    3    0    0 -0.12598507257E+02 -0.14745109950E+02 -0.48936771957E+02  0.52639797702E+02  0.00000000000E+00 0. -1.
<mgrwt>
<rscale>  0 0.90603502E+02</rscale>
<asrwt>0</asrwt>
<pdfrwt beam="2">  1        2 0.82087326E-02 0.90603502E+02</pdfrwt>
<pdfrwt beam="1">  1       -2 0.59173485E-02 0.90603502E+02</pdfrwt>
<totfact> 0.10467133E+05</totfact>
</mgrwt>
</event>
<event>
 5    1  0.6043464E+000  0.8725248E+02  0.7546771E-02  0.1309645E+00
         -4   -1    0    0    0  501 -0.00000000000E+00  0.00000000000E+00  0.95683003501E+02  0.95683003501E+02  0.00000000000E+00 0.  1.
          4   -1    0    0  501    0  0.00000000000E+00 -0.00000000000E+00 -0.19891192214E+02  0.19891192214E+02  0.00000000000E+00 0. -1.
         23    2    1    2    0    0  0.00000000000E+00  0.00000000000E+00  0.75791811288E+02  0.11557419571E+03  0.87252484531E+02 0.  0.
        -13    1    3    3    0    0 -0.21548053955E+02 -0.16514684554E+02  0.83130299257E+02  0.87451129722E+02  0.00000000000E+00 0.  1.
         13    1    3    3    0    0  0.21548053955E+02  0.16514684554E+02 -0.73384879691E+01  0.28123065993E+02  0.00000000000E+00 0. -1.
<mgrwt>
<rscale>  0 0.87252485E+02</rscale>
<asrwt>0</asrwt>
<pdfrwt beam="2">  1        4 0.30601835E-02 0.87252485E+02</pdfrwt>
<pdfrwt beam="1">  1       -4 0.14720462E-01 0.87252485E+02</pdfrwt>
<totfact> 0.28733723E+04</totfact>
</mgrwt>
</event>
<event>
 5    1  0.6043464E+000  0.9074334E+02  0.7546771E-02  0.1301062E+00
         -2   -1    0    0    0  501 -0.00000000000E+00  0.00000000000E+00  0.12977383356E+02  0.12977383356E+02  0.00000000000E+00 0.  1.
          2   -1    0    0  501    0  0.00000000000E+00 -0.00000000000E+00 -0.15862893477E+03  0.15862893477E+03  0.00000000000E+00 0. -1.
         23    2    1    2    0    0  0.00000000000E+00  0.00000000000E+00 -0.14565155141E+03  0.17160631813E+03  0.90743341306E+02 0.  0.
        -13    1    3    3    0    0  0.19452056797E+02  0.26452683722E+02 -0.13204105487E+03  0.13606236497E+03  0.00000000000E+00 0. -1.
         13    1    3    3    0    0 -0.19452056797E+02 -0.26452683722E+02 -0.13610496541E+02  0.35543953154E+02  0.00000000000E+00 0.  1.
<mgrwt>
<rscale>  0 0.90743341E+02</rscale>
<asrwt>0</asrwt>
<pdfrwt beam="2">  1        2 0.24404449E-01 0.90743341E+02</pdfrwt>
<pdfrwt beam="1">  1       -2 0.19965207E-02 0.90743341E+02</pdfrwt>
<totfact> 0.14436389E+05</totfact>
</mgrwt>
</event>
<event>
 5    1  0.6043464E+000  0.9570661E+02  0.7546771E-02  0.1289593E+00
          4   -1    0    0  501    0  0.00000000000E+00  0.00000000000E+00  0.18612190963E+02  0.18612190963E+02  0.00000000000E+00 0. -1.
         -4   -1    0    0    0  501 -0.00000000000E+00 -0.00000000000E+00 -0.12303435606E+03  0.12303435606E+03  0.00000000000E+00 0.  1.
         23    2    1    2    0    0  0.00000000000E+00  0.00000000000E+00 -0.10442216510E+03  0.14164654702E+03  0.95706612729E+02 0.  0.
        -13    1    3    3    0    0 -0.30348711659E+02 -0.31296500016E+02 -0.23004869743E+02  0.49292385259E+02  0.00000000000E+00 0. -1.
         13    1    3    3    0    0  0.30348711659E+02  0.31296500016E+02 -0.81417295353E+02  0.92354161764E+02  0.00000000000E+00 0.  1.
<mgrwt>
<rscale>  0 0.95706613E+02</rscale>
<asrwt>0</asrwt>
<pdfrwt beam="1">  1        4 0.28634141E-02 0.95706613E+02</pdfrwt>
<pdfrwt beam="2">  1       -4 0.18928362E-01 0.95706613E+02</pdfrwt>
<totfact> 0.21135461E+04</totfact>
</mgrwt>
</event>
<event>
 5    1  0.6043464E+000  0.9222210E+02  0.7546771E-02  0.1297558E+00
         -1   -1    0    0    0  501 -0.00000000000E+00  0.00000000000E+00  0.14213092680E+03  0.14213092680E+03  0.00000000000E+00 0.  1.
          1   -1    0    0  501    0  0.00000000000E+00 -0.00000000000E+00 -0.14959648739E+02  0.14959648739E+02  0.00000000000E+00 0. -1.
         23    2    1    2    0    0  0.00000000000E+00  0.00000000000E+00  0.12717127806E+03  0.15709057554E+03  0.92222095829E+02 0.  0.
        -13    1    3    3    0    0  0.17725139191E+01 -0.39368529583E+02  0.10436781892E+03  0.11156013873E+03  0.00000000000E+00 0.  1.
         13    1    3    3    0    0 -0.17725139191E+01  0.39368529583E+02  0.22803459139E+02  0.45530436807E+02  0.00000000000E+00 0. -1.
<mgrwt>
<rscale>  0 0.92222096E+02</rscale>
<asrwt>0</asrwt>
<pdfrwt beam="2">  1        1 0.23014845E-02 0.92222096E+02</pdfrwt>
<pdfrwt beam="1">  1       -1 0.21866296E-01 0.92222096E+02</pdfrwt>
<totfact> 0.73513780E+04</totfact>
</mgrwt>
</event>
<event>
 5    1  0.6043464E+000  0.9060446E+02  0.7546771E-02  0.1301394E+00
          3   -1    0    0  501    0  0.00000000000E+00  0.00000000000E+00  0.26661656844E+02  0.26661656844E+02  0.00000000000E+00 0. -1.
         -3   -1    0    0    0  501 -0.00000000000E+00 -0.00000000000E+00 -0.76975407983E+02  0.76975407983E+02  0.00000000000E+00 0.  1.
         23    2    1    2    0    0  0.00000000000E+00  0.00000000000E+00 -0.50313751138E+02  0.10363706483E+03  0.90604457133E+02 0.  0.
        -13    1    3    3    0    0 -0.25290728511E+02 -0.37248955269E+02 -0.19416402387E+02  0.49031645892E+02  0.00000000000E+00 0.  1.
         13    1    3    3    0    0  0.25290728511E+02  0.37248955269E+02 -0.30897348751E+02  0.54605418935E+02  0.00000000000E+00 0. -1.
<mgrwt>
<rscale>  0 0.90604457E+02</rscale>
<asrwt>0</asrwt>
<pdfrwt beam="1">  1        3 0.41017933E-02 0.90604457E+02</pdfrwt>
<pdfrwt beam="2">  1       -3 0.11842370E-01 0.90604457E+02</pdfrwt>
<totfact> 0.34998861E+04</totfact>
</mgrwt>
</event>
<event>
 5    1  0.6043464E+000  0.9014580E+02  0.7546771E-02  0.1302499E+00
          1   -1    0    0  501    0  0.00000000000E+00  0.00000000000E+00  0.21200073504E+03  0.21200073504E+03  0.00000000000E+00 0. -1.
         -1   -1    0    0    0  501 -0.00000000000E+00 -0.00000000000E+00 -0.95828266191E+01  0.95828266191E+01  0.00000000000E+00 0.  1.
         23    2    1    2    0    0  0.00000000000E+00  0.00000000000E+00  0.20241790842E+03  0.22158356166E+03  0.90145799392E+02 0.  0.
        -13    1    3    3    0    0  0.69975012549E+01  0.30121785175E+02  0.20605678581E+02  0.37160206616E+02  0.00000000000E+00 0.  1.
         13    1    3    3    0    0 -0.69975012549E+01 -0.30121785175E+02  0.18181222984E+03  0.18442335504E+03  0.00000000000E+00 0. -1.
<mgrwt>
<rscale>  0 0.90145799E+02</rscale>
<asrwt>0</asrwt>
<pdfrwt beam="1">  1        1 0.32615494E-01 0.90145799E+02</pdfrwt>
<pdfrwt beam="2">  1       -1 0.14742812E-02 0.90145799E+02</pdfrwt>
<totfact> 0.12345556E+05</totfact>
</mgrwt>
</event>
<event>
 5    1  0.6043464E+000  0.9000247E+02  0.7546771E-02  0.1302846E+00
         -1   -1    0    0    0  501 -0.00000000000E+00  0.00000000000E+00  0.62526477462E+02  0.62526477462E+02  0.00000000000E+00 0.  1.
          1   -1    0    0  501    0  0.00000000000E+00 -0.00000000000E+00 -0.32388058771E+02  0.32388058771E+02  0.00000000000E+00 0. -1.
         23    2    1    2    0    0  0.00000000000E+00  0.00000000000E+00  0.30138418691E+02  0.94914536233E+02  0.90002471672E+02 0.  0.
        -13    1    3    3    0    0  0.11902845044E+02 -0.32326666879E+02  0.45604997807E+02  0.57153363301E+02  0.00000000000E+00 0.  1.
         13    1    3    3    0    0 -0.11902845044E+02  0.32326666879E+02 -0.15466579115E+02  0.37761172932E+02  0.00000000000E+00 0. -1.
<mgrwt>
<rscale>  0 0.90002472E+02</rscale>
<asrwt>0</asrwt>
<pdfrwt beam="2">  1        1 0.49827783E-02 0.90002472E+02</pdfrwt>
<pdfrwt beam="1">  1       -1 0.96194580E-02 0.90002472E+02</pdfrwt>
<totfact> 0.91056304E+04</totfact>
</mgrwt>
</event>
<event>
 5    1  0.6043464E+000  0.9111203E+02  0.7546771E-02  0.1300181E+00
         -2   -1    0    0    0  501 -0.00000000000E+00  0.00000000000E+00  0.18729038525E+03  0.18729038525E+03  0.00000000000E+00 0.  1.
          2   -1    0    0  501    0  0.00000000000E+00 -0.00000000000E+00 -0.11080923676E+02  0.11080923676E+02  0.00000000000E+00 0. -1.
         23    2    1    2    0    0  0.00000000000E+00  0.00000000000E+00  0.17620946157E+03  0.19837130892E+03  0.91112029155E+02 0.  0.
        -13    1    3    3    0    0 -0.79143607491E+01 -0.31727315579E+02  0.15716396048E+03  0.16052965500E+03  0.00000000000E+00 0.  1.
         13    1    3    3    0    0  0.79143607491E+01  0.31727315579E+02  0.19045501089E+02  0.37841653924E+02  0.00000000000E+00 0. -1.
<mgrwt>
<rscale>  0 0.91112029E+02</rscale>
<asrwt>0</asrwt>
<pdfrwt beam="2">  1        2 0.17047576E-02 0.91112029E+02</pdfrwt>
<pdfrwt beam="1">  1       -2 0.28813903E-01 0.91112029E+02</pdfrwt>
<totfact> 0.64196180E+04</totfact>
</mgrwt>
</event>
<event>
 5    1  0.6043464E+000  0.8959468E+02  0.7546771E-02  0.1303836E+00
         -3   -1    0    0    0  501 -0.00000000000E+00  0.00000000000E+00  0.12059839500E+03  0.12059839500E+03  0.00000000000E+00 0.  1.
          3   -1    0    0  501    0  0.00000000000E+00 -0.00000000000E+00 -0.16640367722E+02  0.16640367722E+02  0.00000000000E+00 0. -1.
         23    2    1    2    0    0  0.00000000000E+00  0.00000000000E+00  0.10395802728E+03  0.13723876272E+03  0.89594679294E+02 0.  0.
        -13    1    3    3    0    0 -0.58954976045E+01  0.23114505585E+02 -0.61025680435E+01  0.24622725218E+02  0.00000000000E+00 0. -1.
         13    1    3    3    0    0  0.58954976045E+01 -0.23114505585E+02  0.11006059532E+03  0.11261603750E+03  0.00000000000E+00 0.  1.
<mgrwt>
<rscale>  0 0.89594679E+02</rscale>
<asrwt>0</asrwt>
<pdfrwt beam="2">  1        3 0.25600566E-02 0.89594679E+02</pdfrwt>
<pdfrwt beam="1">  1       -3 0.18553599E-01 0.89594679E+02</pdfrwt>
<totfact> 0.33664270E+04</totfact>
</mgrwt>
</event>
<event>
 5    1  0.6043464E+000  0.9112755E+02  0.7546771E-02  0.1300144E+00
          4   -1    0    0  501    0  0.00000000000E+00  0.00000000000E+00  0.88365653727E+02  0.88365653727E+02  0.00000000000E+00 0. -1.
         -4   -1    0    0    0  501 -0.00000000000E+00 -0.00000000000E+00 -0.23493944385E+02  0.23493944385E+02  0.00000000000E+00 0.  1.
         23    2    1    2    0    0  0.00000000000E+00  0.00000000000E+00  0.64871709342E+02  0.11185959811E+03  0.91127553554E+02 0.  0.
        -13    1    3    3    0    0 -0.26036798174E+02  0.36072879762E+02  0.20353166681E+02  0.48922580752E+02  0.00000000000E+00 0.  1.
         13    1    3    3    0    0  0.26036798174E+02 -0.36072879762E+02  0.44518542661E+02  0.62937017360E+02  0.00000000000E+00 0. -1.
<mgrwt>
<rscale>  0 0.91127554E+02</rscale>
<asrwt>0</asrwt>
<pdfrwt beam="1">  1        4 0.13594716E-01 0.91127554E+02</pdfrwt>
<pdfrwt beam="2">  1       -4 0.36144530E-02 0.91127554E+02</pdfrwt>
<totfact> 0.25780601E+04</totfact>
</mgrwt>
</event>
<event>
 5    1  0.6043464E+000  0.9917546E+02  0.7546771E-02  0.1282039E+00
          2   -1    0    0  501    0  0.00000000000E+00  0.00000000000E+00  0.23345048496E+03  0.23345048496E+03  0.00000000000E+00 0. -1.
         -2   -1    0    0    0  501 -0.00000000000E+00 -0.00000000000E+00 -0.10533038288E+02  0.10533038288E+02  0.00000000000E+00 0.  1.
         23    2    1    2    0    0  0.00000000000E+00  0.00000000000E+00  0.22291744667E+03  0.24398352325E+03  0.99175458586E+02 0.  0.
        -13    1    3    3    0    0  0.12434690560E+02 -0.47179929603E+02  0.89679281396E+02  0.10209280483E+03  0.00000000000E+00 0.  1.
         13    1    3    3    0    0 -0.12434690560E+02  0.47179929603E+02  0.13323816528E+03  0.14189071842E+03  0.00000000000E+00 0. -1.
<mgrwt>
<rscale>  0 0.99175459E+02</rscale>
<asrwt>0</asrwt>
<pdfrwt beam="1">  1        2 0.35915455E-01 0.99175459E+02</pdfrwt>
<pdfrwt beam="2">  1       -2 0.16204676E-02 0.99175459E+02</pdfrwt>
<totfact> 0.13045809E+05</totfact>
</mgrwt>
</event>
<event>
 5    1  0.6043464E+000  0.9220520E+02  0.7546771E-02  0.1297598E+00
          1   -1    0    0  501    0  0.00000000000E+00  0.00000000000E+00  0.28455962110E+03  0.28455962110E+03  0.00000000000E+00 0. -1.
         -1   -1    0    0    0  501 -0.00000000000E+00 -0.00000000000E+00 -0.74692600366E+01  0.74692600366E+01  0.00000000000E+00 0.  1.
         23    2    1    2    0    0  0.00000000000E+00  0.00000000000E+00  0.27709036107E+03  0.29202888114E+03  0.92205201717E+02 0.  0.
        -13    1    3    3    0    0 -0.34027414728E+02  0.20224184995E+02  0.21339798816E+03  0.21703820853E+03  0.00000000000E+00 0. -1.
         13    1    3    3    0    0  0.34027414728E+02 -0.20224184995E+02  0.63692372907E+02  0.74990672609E+02  0.00000000000E+00 0.  1.
<mgrwt>
<rscale>  0 0.92205202E+02</rscale>
<asrwt>0</asrwt>
<pdfrwt beam="1">  1        1 0.43778395E-01 0.92205202E+02</pdfrwt>
<pdfrwt beam="2">  1       -1 0.11491171E-02 0.92205202E+02</pdfrwt>
<totfact> 0.12308758E+05</totfact>
</mgrwt>
</event>
<event>
 5    1  0.6043464E+000  0.8673543E+02  0.7546771E-02  0.1310956E+00
         -1   -1    0    0    0  501 -0.00000000000E+00  0.00000000000E+00  0.82477451890E+01  0.82477451890E+01  0.00000000000E+00 0.  1.
          1   -1    0    0  501    0  0.00000000000E+00 -0.00000000000E+00 -0.22803306529E+03  0.22803306529E+03  0.00000000000E+00 0. -1.
         23    2    1    2    0    0  0.00000000000E+00  0.00000000000E+00 -0.21978532010E+03  0.23628081048E+03  0.86735427990E+02 0.  0.
        -13    1    3    3    0    0 -0.32060337842E+02  0.25953825243E+02 -0.14636912621E+03  0.15207033707E+03  0.00000000000E+00 0.  1.
         13    1    3    3    0    0  0.32060337842E+02 -0.25953825243E+02 -0.73416193888E+02  0.84210473412E+02  0.00000000000E+00 0. -1.
<mgrwt>
<rscale>  0 0.86735428E+02</rscale>
<asrwt>0</asrwt>
<pdfrwt beam="2">  1        1 0.35082007E-01 0.86735428E+02</pdfrwt>
<pdfrwt beam="1">  1       -1 0.12688840E-02 0.86735428E+02</pdfrwt>
<totfact> 0.13877402E+05</totfact>
</mgrwt>
</event>
<event>
 5    1  0.6043464E+000  0.8724212E+02  0.7546771E-02  0.1309671E+00
          1   -1    0    0  501    0  0.00000000000E+00  0.00000000000E+00  0.88845083177E+02  0.88845083177E+02  0.00000000000E+00 0. -1.
         -1   -1    0    0    0  501 -0.00000000000E+00 -0.00000000000E+00 -0.21417020653E+02  0.21417020653E+02  0.00000000000E+00 0.  1.
         23    2    1    2    0    0  0.00000000000E+00  0.00000000000E+00  0.67428062523E+02  0.11026210383E+03  0.87242122426E+02 0.  0.
        -13    1    3    3    0    0 -0.35374942154E+02  0.28208138295E+01  0.65773669822E+02  0.74736330957E+02  0.00000000000E+00 0. -1.
         13    1    3    3    0    0  0.35374942154E+02 -0.28208138295E+01  0.16543927019E+01  0.35525772874E+02  0.00000000000E+00 0.  1.
<mgrwt>
<rscale>  0 0.87242122E+02</rscale>
<asrwt>0</asrwt>
<pdfrwt beam="1">  1        1 0.13668474E-01 0.87242122E+02</pdfrwt>
<pdfrwt beam="2">  1       -1 0.32949263E-02 0.87242122E+02</pdfrwt>
<totfact> 0.11553389E+05</totfact>
</mgrwt>
</event>
<event>
 5    1  0.6043464E+000  0.8997607E+02  0.7546771E-02  0.1302910E+00
         -3   -1    0    0    0  501 -0.00000000000E+00  0.00000000000E+00  0.14787856957E+02  0.14787856957E+02  0.00000000000E+00 0.  1.
          3   -1    0    0  501    0  0.00000000000E+00 -0.00000000000E+00 -0.13686386389E+03  0.13686386389E+03  0.00000000000E+00 0. -1.
         23    2    1    2    0    0  0.00000000000E+00  0.00000000000E+00 -0.12207600693E+03  0.15165172085E+03  0.89976068859E+02 0.  0.
        -13    1    3    3    0    0 -0.26843599768E+01 -0.28192019554E+02 -0.21206750944E+01  0.28398820713E+02  0.00000000000E+00 0.  1.
         13    1    3    3    0    0  0.26843599768E+01  0.28192019554E+02 -0.11995533184E+03  0.12325290013E+03  0.00000000000E+00 0. -1.
<mgrwt>
<rscale>  0 0.89976069E+02</rscale>
<asrwt>0</asrwt>
<pdfrwt beam="2">  1        3 0.21055978E-01 0.89976069E+02</pdfrwt>
<pdfrwt beam="1">  1       -3 0.22750551E-02 0.89976069E+02</pdfrwt>
<totfact> 0.32344407E+04</totfact>
</mgrwt>
</event>
<event>
 5    1  0.6043464E+000  0.9174273E+02  0.7546771E-02  0.1298685E+00
         -2   -1    0    0    0  501 -0.00000000000E+00  0.00000000000E+00  0.76899535656E+02  0.76899535656E+02  0.00000000000E+00 0.  1.
          2   -1    0    0  501    0  0.00000000000E+00 -0.00000000000E+00 -0.27362742829E+02  0.27362742829E+02  0.00000000000E+00 0. -1.
         23    2    1    2    0    0  0.00000000000E+00  0.00000000000E+00  0.49536792826E+02  0.10426227848E+03  0.91742731981E+02 0.  0.
        -13    1    3    3    0    0  0.39324147756E+02 -0.36169507636E+01  0.51292378779E+02  0.64733137189E+02  0.00000000000E+00 0.  1.
         13    1    3    3    0    0 -0.39324147756E+02  0.36169507636E+01 -0.17555859524E+01  0.39529141296E+02  0.00000000000E+00 0. -1.
<mgrwt>
<rscale>  0 0.91742732E+02</rscale>
<asrwt>0</asrwt>
<pdfrwt beam="2">  1        2 0.42096528E-02 0.91742732E+02</pdfrwt>
<pdfrwt beam="1">  1       -2 0.11830698E-01 0.91742732E+02</pdfrwt>
<totfact> 0.84712123E+04</totfact>
</mgrwt>
</event>
<event>
 5    1  0.6043464E+000  0.9129393E+02  0.7546771E-02  0.1299748E+00
          3   -1    0    0  501    0  0.00000000000E+00  0.00000000000E+00  0.24097792671E+02  0.24097792671E+02  0.00000000000E+00 0. -1.
         -3   -1    0    0    0  501 -0.00000000000E+00 -0.00000000000E+00 -0.86466228923E+02  0.86466228923E+02  0.00000000000E+00 0.  1.
         23    2    1    2    0    0  0.00000000000E+00  0.00000000000E+00 -0.62368436252E+02  0.11056402159E+03  0.91293926582E+02 0.  0.
        -13    1    3    3    0    0  0.16001207315E+02  0.78941933204E+01  0.19699608717E+02  0.26578779267E+02  0.00000000000E+00 0. -1.
         13    1    3    3    0    0 -0.16001207315E+02 -0.78941933204E+01 -0.82068044969E+02  0.83985242327E+02  0.00000000000E+00 0.  1.
<mgrwt>
<rscale>  0 0.91293927E+02</rscale>
<asrwt>0</asrwt>
<pdfrwt beam="1">  1        3 0.37073528E-02 0.91293927E+02</pdfrwt>
<pdfrwt beam="2">  1       -3 0.13302496E-01 0.91293927E+02</pdfrwt>
<totfact> 0.33787945E+04</totfact>
</mgrwt>
</event>
<event>
 5    1  0.6043464E+000  0.9069471E+02  0.7546771E-02  0.1301178E+00
         -1   -1    0    0    0  501 -0.00000000000E+00  0.00000000000E+00  0.48384994114E+01  0.48384994114E+01  0.00000000000E+00 0.  1.
          1   -1    0    0  501    0  0.00000000000E+00 -0.00000000000E+00 -0.42500423143E+03  0.42500423143E+03  0.00000000000E+00 0. -1.
         23    2    1    2    0    0  0.00000000000E+00  0.00000000000E+00 -0.42016573202E+03  0.42984273084E+03  0.90694712604E+02 0.  0.
        -13    1    3    3    0    0  0.45087527200E+02  0.27710328415E+01 -0.22893311169E+03  0.23334723774E+03  0.00000000000E+00 0. -1.
         13    1    3    3    0    0 -0.45087527200E+02 -0.27710328415E+01 -0.19123262033E+03  0.19649549310E+03  0.00000000000E+00 0.  1.
<mgrwt>
<rscale>  0 0.90694713E+02</rscale>
<asrwt>0</asrwt>
<pdfrwt beam="2">  1        1 0.65385243E-01 0.90694713E+02</pdfrwt>
<pdfrwt beam="1">  1       -1 0.74438479E-03 0.90694713E+02</pdfrwt>
<totfact> 0.13812635E+05</totfact>
</mgrwt>
</event>
<event>
 5    1  0.6043464E+000  0.1009502E+03  0.7546771E-02  0.1278310E+00
          1   -1    0    0  501    0  0.00000000000E+00  0.00000000000E+00  0.40295853777E+02  0.40295853777E+02  0.00000000000E+00 0. -1.
         -1   -1    0    0    0  501 -0.00000000000E+00 -0.00000000000E+00 -0.63225780985E+02  0.63225780985E+02  0.00000000000E+00 0.  1.
         23    2    1    2    0    0  0.00000000000E+00  0.00000000000E+00 -0.22929927209E+02  0.10352163476E+03  0.10095022190E+03 0.  0.
        -13    1    3    3    0    0 -0.16836346905E+02 -0.44740266527E+02  0.51522032500E+01  0.48080133365E+02  0.00000000000E+00 0. -1.
         13    1    3    3    0    0  0.16836346905E+02  0.44740266527E+02 -0.28082130459E+02  0.55441501397E+02  0.00000000000E+00 0.  1.
<mgrwt>
<rscale>  0 0.10095022E+03</rscale>
<asrwt>0</asrwt>
<pdfrwt beam="1">  1        1 0.61993621E-02 0.10095022E+03</pdfrwt>
<pdfrwt beam="2">  1       -1 0.97270432E-02 0.10095022E+03</pdfrwt>
<totfact> 0.67894736E+04</totfact>
</mgrwt>
</event>
<event>
 5    1  0.6043464E+000  0.9331905E+02  0.7546771E-02  0.1295008E+00
          2   -1    0    0  501    0  0.00000000000E+00  0.00000000000E+00  0.16738928463E+03  0.16738928463E+03  0.00000000000E+00 0.  1.
         -2   -1    0    0    0  501 -0.00000000000E+00 -0.00000000000E+00 -0.13006276161E+02  0.13006276161E+02  0.00000000000E+00 0. -1.
         23    2    1    2    0    0  0.00000000000E+00  0.00000000000E+00  0.15438300847E+03  0.18039556079E+03  0.93319049767E+02 0.  0.
        -13    1    3    3    0    0  0.40017946460E+02  0.23895543564E+02  0.73010352605E+02  0.86619539531E+02  0.00000000000E+00 0.  1.
         13    1    3    3    0    0 -0.40017946460E+02 -0.23895543564E+02  0.81372655863E+02  0.93776021260E+02  0.00000000000E+00 0. -1.
<mgrwt>
<rscale>  0 0.93319050E+02</rscale>
<asrwt>0</asrwt>
<pdfrwt beam="1">  1        2 0.25752196E-01 0.93319050E+02</pdfrwt>
<pdfrwt beam="2">  1       -2 0.20009657E-02 0.93319050E+02</pdfrwt>
<totfact> 0.13633209E+05</totfact>
</mgrwt>
</event>
<event>
 5    1  0.6043464E+000  0.9090324E+02  0.7546771E-02  0.1300679E+00
         -1   -1    0    0    0  501 -0.00000000000E+00  0.00000000000E+00  0.14137235454E+02  0.14137235454E+02  0.00000000000E+00 0.  1.
          1   -1    0    0  501    0  0.00000000000E+00 -0.00000000000E+00 -0.14612825967E+03  0.14612825967E+03  0.00000000000E+00 0. -1.
         23    2    1    2    0    0  0.00000000000E+00  0.00000000000E+00 -0.13199102421E+03  0.16026549512E+03  0.90903236761E+02 0.  0.
        -13    1    3    3    0    0  0.34320045822E+02  0.22885720276E+02 -0.32348440478E+02  0.52421783060E+02  0.00000000000E+00 0.  1.
         13    1    3    3    0    0 -0.34320045822E+02 -0.22885720276E+02 -0.99642583735E+02  0.10784371206E+03  0.00000000000E+00 0. -1.
<mgrwt>
<rscale>  0 0.90903237E+02</rscale>
<asrwt>0</asrwt>
<pdfrwt beam="2">  1        1 0.22481272E-01 0.90903237E+02</pdfrwt>
<pdfrwt beam="1">  1       -1 0.21749592E-02 0.90903237E+02</pdfrwt>
<totfact> 0.11250531E+05</totfact>
</mgrwt>
</event>
<event>
 5    1  0.6043464E+000  0.8955992E+02  0.7546771E-02  0.1303921E+00
         -2   -1    0    0    0  501 -0.00000000000E+00  0.00000000000E+00  0.34986531400E+02  0.34986531400E+02  0.00000000000E+00 0.  1.
          2   -1    0    0  501    0  0.00000000000E+00 -0.00000000000E+00 -0.57314759588E+02  0.57314759588E+02  0.00000000000E+00 0. -1.
         23    2    1    2    0    0  0.00000000000E+00  0.00000000000E+00 -0.22328228188E+02  0.92301290987E+02  0.89559915944E+02 0.  0.
        -13    1    3    3    0    0 -0.31111791201E+02  0.21292602758E+01  0.21956268485E+02  0.38138629064E+02  0.00000000000E+00 0.  1.
         13    1    3    3    0    0  0.31111791201E+02 -0.21292602758E+01 -0.44284496673E+02  0.54162661924E+02  0.00000000000E+00 0. -1.
<mgrwt>
<rscale>  0 0.89559916E+02</rscale>
<asrwt>0</asrwt>
<pdfrwt beam="2">  1        2 0.88176552E-02 0.89559916E+02</pdfrwt>
<pdfrwt beam="1">  1       -2 0.53825434E-02 0.89559916E+02</pdfrwt>
<totfact> 0.11020455E+05</totfact>
</mgrwt>
</event>
<event>
 5    1  0.6043464E+000  0.8992630E+02  0.7546771E-02  0.1303030E+00
          4   -1    0    0  501    0  0.00000000000E+00  0.00000000000E+00  0.14376379404E+02  0.14376379404E+02  0.00000000000E+00 0. -1.
         -4   -1    0    0    0  501 -0.00000000000E+00 -0.00000000000E+00 -0.14062544414E+03  0.14062544414E+03  0.00000000000E+00 0.  1.
         23    2    1    2    0    0  0.00000000000E+00  0.00000000000E+00 -0.12624906474E+03  0.15500182355E+03  0.89926297352E+02 0.  0.
        -13    1    3    3    0    0  0.42887821232E+02  0.98523979541E+01 -0.47209895351E+02  0.64538431763E+02  0.00000000000E+00 0.  1.
         13    1    3    3    0    0 -0.42887821232E+02 -0.98523979541E+01 -0.79039169388E+02  0.90463391783E+02  0.00000000000E+00 0. -1.
<mgrwt>
<rscale>  0 0.89926297E+02</rscale>
<asrwt>0</asrwt>
<pdfrwt beam="1">  1        4 0.22117506E-02 0.89926297E+02</pdfrwt>
<pdfrwt beam="2">  1       -4 0.21634684E-01 0.89926297E+02</pdfrwt>
<totfact> 0.24308653E+04</totfact>
</mgrwt>
</event>
<event>
 5    1  0.6043464E+000  0.9190814E+02  0.7546771E-02  0.1298296E+00
         -1   -1    0    0    0  501 -0.00000000000E+00  0.00000000000E+00  0.41208427800E+02  0.41208427800E+02  0.00000000000E+00 0.  1.
          1   -1    0    0  501    0  0.00000000000E+00 -0.00000000000E+00 -0.51246232612E+02  0.51246232612E+02  0.00000000000E+00 0. -1.
         23    2    1    2    0    0  0.00000000000E+00  0.00000000000E+00 -0.10037804812E+02  0.92454660412E+02  0.91908142764E+02 0.  0.
        -13    1    3    3    0    0  0.53335395807E+01 -0.23755884219E+02  0.34187048220E+02  0.41970739158E+02  0.00000000000E+00 0.  1.
         13    1    3    3    0    0 -0.53335395807E+01  0.23755884219E+02 -0.44224853032E+02  0.50483921254E+02  0.00000000000E+00 0. -1.
<mgrwt>
<rscale>  0 0.91908143E+02</rscale>
<asrwt>0</asrwt>
<pdfrwt beam="2">  1        1 0.78840358E-02 0.91908143E+02</pdfrwt>
<pdfrwt beam="1">  1       -1 0.63397581E-02 0.91908143E+02</pdfrwt>
<totfact> 0.92031669E+04</totfact>
</mgrwt>
</event>
<event>
 5    1  0.6043464E+000  0.9272564E+02  0.7546771E-02  0.1296382E+00
         -3   -1    0    0    0  501 -0.00000000000E+00  0.00000000000E+00  0.79770037780E+02  0.79770037780E+02  0.00000000000E+00 0.  1.
          3   -1    0    0  501    0  0.00000000000E+00 -0.00000000000E+00 -0.26946347878E+02  0.26946347878E+02  0.00000000000E+00 0. -1.
         23    2    1    2    0    0  0.00000000000E+00  0.00000000000E+00  0.52823689901E+02  0.10671638566E+03  0.92725642370E+02 0.  0.
        -13    1    3    3    0    0  0.25463305311E+02 -0.16548167957E+02  0.66730380593E+02  0.73315520009E+02  0.00000000000E+00 0.  1.
         13    1    3    3    0    0 -0.25463305311E+02  0.16548167957E+02 -0.13906690691E+02  0.33400865649E+02  0.00000000000E+00 0. -1.
<mgrwt>
<rscale>  0 0.92725642E+02</rscale>
<asrwt>0</asrwt>
<pdfrwt beam="2">  1        3 0.41455920E-02 0.92725642E+02</pdfrwt>
<pdfrwt beam="1">  1       -3 0.12272313E-01 0.92725642E+02</pdfrwt>
<totfact> 0.32647356E+04</totfact>
</mgrwt>
</event>
<event>
 5    1  0.6043464E+000  0.9101086E+02  0.7546771E-02  0.1300422E+00
          2   -1    0    0  501    0  0.00000000000E+00  0.00000000000E+00  0.18616973533E+03  0.18616973533E+03  0.00000000000E+00 0. -1.
         -2   -1    0    0    0  501 -0.00000000000E+00 -0.00000000000E+00 -0.11122883866E+02  0.11122883866E+02  0.00000000000E+00 0.  1.
         23    2    1    2    0    0  0.00000000000E+00  0.00000000000E+00  0.17504685146E+03  0.19729261919E+03  0.91010864087E+02 0.  0.
        -13    1    3    3    0    0  0.14517443442E+02 -0.28063819967E+02  0.16533280162E+02  0.35660671729E+02  0.00000000000E+00 0.  1.
         13    1    3    3    0    0 -0.14517443442E+02  0.28063819967E+02  0.15851357130E+03  0.16163194746E+03  0.00000000000E+00 0. -1.
<mgrwt>
<rscale>  0 0.91010864E+02</rscale>
<asrwt>0</asrwt>
<pdfrwt beam="1">  1        2 0.28641496E-01 0.91010864E+02</pdfrwt>
<pdfrwt beam="2">  1       -2 0.17112130E-02 0.91010864E+02</pdfrwt>
<totfact> 0.15148851E+05</totfact>
</mgrwt>
</event>
<event>
 5    1  0.6043464E+000  0.9010641E+02  0.7546771E-02  0.1302594E+00
          3   -1    0    0  501    0  0.00000000000E+00  0.00000000000E+00  0.17512154570E+03  0.17512154570E+03  0.00000000000E+00 0. -1.
         -3   -1    0    0    0  501 -0.00000000000E+00 -0.00000000000E+00 -0.11590756040E+02  0.11590756040E+02  0.00000000000E+00 0.  1.
         23    2    1    2    0    0  0.00000000000E+00  0.00000000000E+00  0.16353078966E+03  0.18671230174E+03  0.90106406286E+02 0.  0.
        -13    1    3    3    0    0 -0.12467606637E+02 -0.36920560466E+02  0.12861674158E+03  0.13439060687E+03  0.00000000000E+00 0. -1.
         13    1    3    3    0    0  0.12467606637E+02  0.36920560466E+02  0.34914048075E+02  0.52321694863E+02  0.00000000000E+00 0.  1.
<mgrwt>
<rscale>  0 0.90106406E+02</rscale>
<asrwt>0</asrwt>
<pdfrwt beam="1">  1        3 0.26941774E-01 0.90106406E+02</pdfrwt>
<pdfrwt beam="2">  1       -3 0.17831934E-02 0.90106406E+02</pdfrwt>
<totfact> 0.30144678E+04</totfact>
</mgrwt>
</event>
<event>
 5    1  0.6043464E+000  0.9092801E+02  0.7546771E-02  0.1300620E+00
         -1   -1    0    0    0  501 -0.00000000000E+00  0.00000000000E+00  0.12668139469E+03  0.12668139469E+03  0.00000000000E+00 0.  1.
          1   -1    0    0  501    0  0.00000000000E+00 -0.00000000000E+00 -0.16316331161E+02  0.16316331161E+02  0.00000000000E+00 0. -1.
         23    2    1    2    0    0  0.00000000000E+00  0.00000000000E+00  0.11036506353E+03  0.14299772585E+03  0.90928006414E+02 0.  0.
        -13    1    3    3    0    0  0.48959096119E+01 -0.41015571025E+02  0.25313458807E+02  0.48446033834E+02  0.00000000000E+00 0. -1.
         13    1    3    3    0    0 -0.48959096119E+01  0.41015571025E+02  0.85051604720E+02  0.94551692014E+02  0.00000000000E+00 0.  1.
<mgrwt>
<rscale>  0 0.90928006E+02</rscale>
<asrwt>0</asrwt>
<pdfrwt beam="2">  1        1 0.25102049E-02 0.90928006E+02</pdfrwt>
<pdfrwt beam="1">  1       -1 0.19489445E-01 0.90928006E+02</pdfrwt>
<totfact> 0.78202190E+04</totfact>
</mgrwt>
</event>
<event>
 5    1  0.6043464E+000  0.9133607E+02  0.7546771E-02  0.1299648E+00
          1   -1    0    0  501    0  0.00000000000E+00  0.00000000000E+00  0.16055342557E+02  0.16055342557E+02  0.00000000000E+00 0. -1.
         -1   -1    0    0    0  501 -0.00000000000E+00 -0.00000000000E+00 -0.12989878806E+03  0.12989878806E+03  0.00000000000E+00 0.  1.
         23    2    1    2    0    0  0.00000000000E+00  0.00000000000E+00 -0.11384344550E+03  0.14595413061E+03  0.91336072611E+02 0.  0.
        -13    1    3    3    0    0  0.22744804177E+02 -0.31781908473E+02 -0.94674679243E+02  0.10242417055E+03  0.00000000000E+00 0.  1.
         13    1    3    3    0    0 -0.22744804177E+02  0.31781908473E+02 -0.19168766256E+02  0.43529960063E+02  0.00000000000E+00 0. -1.
<mgrwt>
<rscale>  0 0.91336073E+02</rscale>
<asrwt>0</asrwt>
<pdfrwt beam="1">  1        1 0.24700526E-02 0.91336073E+02</pdfrwt>
<pdfrwt beam="2">  1       -1 0.19984430E-01 0.91336073E+02</pdfrwt>
<totfact> 0.76889184E+04</totfact>
</mgrwt>
</event>
<event>
 4    1  0.6043464E+000  0.3055577E+02  0.7546771E-02  0.1592025E+00
          1   -1    0    0  501    0  0.00000000000E+00  0.00000000000E+00  0.73636964330E+01  0.73636964330E+01  0.00000000000E+00 0. -1.
         -1   -1    0    0    0  501 -0.00000000000E+00 -0.00000000000E+00 -0.31697912524E+02  0.31697912524E+02  0.00000000000E+00 0.  1.
        -13    1    1    2    0    0 -0.89846906035E+01 -0.69221306610E+01 -0.25252359266E+02  0.27682525293E+02  0.00000000000E+00 0.  1.
         13    1    1    2    0    0  0.89846906035E+01  0.69221306610E+01  0.91814317506E+00  0.11379083663E+02  0.00000000000E+00 0. -1.
<mgrwt>
<rscale>  0 0.30555772E+02</rscale>
<asrwt>0</asrwt>
<pdfrwt beam="1">  1        1 0.11328764E-02 0.30555772E+02</pdfrwt>
<pdfrwt beam="2">  1       -1 0.48766018E-02 0.30555772E+02</pdfrwt>
<totfact> 0.13885414E+06</totfact>
</mgrwt>
</event>
<event>
 5    1  0.6043464E+000  0.9153551E+02  0.7546771E-02  0.1299175E+00
          2   -1    0    0  501    0  0.00000000000E+00  0.00000000000E+00  0.25352724584E+03  0.25352724584E+03  0.00000000000E+00 0. -1.
         -2   -1    0    0    0  501 -0.00000000000E+00 -0.00000000000E+00 -0.82621789069E+01  0.82621789069E+01  0.00000000000E+00 0.  1.
         23    2    1    2    0    0  0.00000000000E+00  0.00000000000E+00  0.24526506693E+03  0.26178942475E+03  0.91535511424E+02 0.  0.
        -13    1    3    3    0    0  0.15048994460E+02  0.43158636952E+02  0.12936854357E+03  0.13720554013E+03  0.00000000000E+00 0. -1.
         13    1    3    3    0    0 -0.15048994460E+02 -0.43158636952E+02  0.11589652336E+03  0.12458388461E+03  0.00000000000E+00 0.  1.
<mgrwt>
<rscale>  0 0.91535511E+02</rscale>
<asrwt>0</asrwt>
<pdfrwt beam="1">  1        2 0.39004186E-01 0.91535511E+02</pdfrwt>
<pdfrwt beam="2">  1       -2 0.12711046E-02 0.91535511E+02</pdfrwt>
<totfact> 0.16696741E+05</totfact>
</mgrwt>
</event>
<event>
 5    1  0.6043464E+000  0.9108729E+02  0.7546771E-02  0.1300240E+00
          1   -1    0    0  501    0  0.00000000000E+00  0.00000000000E+00  0.44133079570E+02  0.44133079570E+02  0.00000000000E+00 0. -1.
         -1   -1    0    0    0  501 -0.00000000000E+00 -0.00000000000E+00 -0.46999298849E+02  0.46999298849E+02  0.00000000000E+00 0.  1.
         23    2    1    2    0    0  0.00000000000E+00  0.00000000000E+00 -0.28662192795E+01  0.91132378419E+02  0.91087294303E+02 0.  0.
        -13    1    3    3    0    0 -0.34905461521E+02 -0.18211431098E+02 -0.24339339034E+02  0.46286616762E+02  0.00000000000E+00 0.  1.
         13    1    3    3    0    0  0.34905461521E+02  0.18211431098E+02  0.21473119754E+02  0.44845761657E+02  0.00000000000E+00 0. -1.
<mgrwt>
<rscale>  0 0.91087294E+02</rscale>
<asrwt>0</asrwt>
<pdfrwt beam="1">  1        1 0.67897046E-02 0.91087294E+02</pdfrwt>
<pdfrwt beam="2">  1       -1 0.72306613E-02 0.91087294E+02</pdfrwt>
<totfact> 0.92276692E+04</totfact>
</mgrwt>
</event>
<event>
 5    1  0.6043464E+000  0.9033264E+02  0.7546771E-02  0.1302048E+00
          1   -1    0    0  501    0  0.00000000000E+00  0.00000000000E+00  0.31976764714E+02  0.31976764714E+02  0.00000000000E+00 0. -1.
         -1   -1    0    0    0  501 -0.00000000000E+00 -0.00000000000E+00 -0.63796216575E+02  0.63796216575E+02  0.00000000000E+00 0.  1.
         23    2    1    2    0    0  0.00000000000E+00  0.00000000000E+00 -0.31819451861E+02  0.95772981290E+02  0.90332643205E+02 0.  0.
        -13    1    3    3    0    0 -0.30772233470E+02 -0.20640138669E+02  0.11473069723E+02  0.38788877347E+02  0.00000000000E+00 0. -1.
         13    1    3    3    0    0  0.30772233470E+02  0.20640138669E+02 -0.43292521584E+02  0.56984103942E+02  0.00000000000E+00 0.  1.
<mgrwt>
<rscale>  0 0.90332643E+02</rscale>
<asrwt>0</asrwt>
<pdfrwt beam="1">  1        1 0.49195023E-02 0.90332643E+02</pdfrwt>
<pdfrwt beam="2">  1       -1 0.98148024E-02 0.90332643E+02</pdfrwt>
<totfact> 0.89930908E+04</totfact>
</mgrwt>
</event>
<event>
 5    1  0.6043464E+000  0.9472396E+02  0.7546771E-02  0.1291799E+00
         -3   -1    0    0    0  501 -0.00000000000E+00  0.00000000000E+00  0.31201062159E+03  0.31201062159E+03  0.00000000000E+00 0.  1.
          3   -1    0    0  501    0  0.00000000000E+00 -0.00000000000E+00 -0.71893612823E+01  0.71893612823E+01  0.00000000000E+00 0. -1.
         23    2    1    2    0    0  0.00000000000E+00  0.00000000000E+00  0.30482126030E+03  0.31919998287E+03  0.94723958585E+02 0.  0.
        -13    1    3    3    0    0 -0.37825726885E+02  0.13126520658E+02  0.67156510664E+02  0.78186239732E+02  0.00000000000E+00 0. -1.
         13    1    3    3    0    0  0.37825726885E+02 -0.13126520658E+02  0.23766474964E+03  0.24101374314E+03  0.00000000000E+00 0.  1.
<mgrwt>
<rscale>  0 0.94723959E+02</rscale>
<asrwt>0</asrwt>
<pdfrwt beam="2">  1        3 0.11060558E-02 0.94723959E+02</pdfrwt>
<pdfrwt beam="1">  1       -3 0.48001623E-01 0.94723959E+02</pdfrwt>
<totfact> 0.21023759E+04</totfact>
</mgrwt>
</event>
<event>
 5    1  0.6043464E+000  0.9095474E+02  0.7546771E-02  0.1300556E+00
         -2   -1    0    0    0  501 -0.00000000000E+00  0.00000000000E+00  0.12607715886E+02  0.12607715886E+02  0.00000000000E+00 0.  1.
          2   -1    0    0  501    0  0.00000000000E+00 -0.00000000000E+00 -0.16404170805E+03  0.16404170805E+03  0.00000000000E+00 0. -1.
         23    2    1    2    0    0  0.00000000000E+00  0.00000000000E+00 -0.15143399216E+03  0.17664942394E+03  0.90954741462E+02 0.  0.
        -13    1    3    3    0    0  0.20338456848E+02 -0.36375757136E+02 -0.40364051317E+02  0.58018145204E+02  0.00000000000E+00 0.  1.
         13    1    3    3    0    0 -0.20338456848E+02  0.36375757136E+02 -0.11106994085E+03  0.11863127873E+03  0.00000000000E+00 0. -1.
<mgrwt>
<rscale>  0 0.90954741E+02</rscale>
<asrwt>0</asrwt>
<pdfrwt beam="2">  1        2 0.25237184E-01 0.90954741E+02</pdfrwt>
<pdfrwt beam="1">  1       -2 0.19396487E-02 0.90954741E+02</pdfrwt>
<totfact> 0.14513059E+05</totfact>
</mgrwt>
</event>
<event>
 5    1  0.6043464E+000  0.9684210E+02  0.7546771E-02  0.1287080E+00
         -3   -1    0    0    0  501 -0.00000000000E+00  0.00000000000E+00  0.90376924195E+02  0.90376924195E+02  0.00000000000E+00 0.  1.
          3   -1    0    0  501    0  0.00000000000E+00 -0.00000000000E+00 -0.25942439131E+02  0.25942439131E+02  0.00000000000E+00 0. -1.
         23    2    1    2    0    0  0.00000000000E+00  0.00000000000E+00  0.64434485064E+02  0.11631936333E+03  0.96842095284E+02 0.  0.
        -13    1    3    3    0    0 -0.45393950543E+01  0.48023879254E+02  0.37270359660E+02  0.60958828690E+02  0.00000000000E+00 0.  1.
         13    1    3    3    0    0  0.45393950543E+01 -0.48023879254E+02  0.27164125404E+02  0.55360534635E+02  0.00000000000E+00 0. -1.
<mgrwt>
<rscale>  0 0.96842095E+02</rscale>
<asrwt>0</asrwt>
<pdfrwt beam="2">  1        3 0.39911445E-02 0.96842095E+02</pdfrwt>
<pdfrwt beam="1">  1       -3 0.13904142E-01 0.96842095E+02</pdfrwt>
<totfact> 0.28418066E+04</totfact>
</mgrwt>
</event>
<event>
 5    1  0.6043464E+000  0.9122648E+02  0.7546771E-02  0.1299908E+00
          3   -1    0    0  501    0  0.00000000000E+00  0.00000000000E+00  0.65704161133E+02  0.65704161133E+02  0.00000000000E+00 0. -1.
         -3   -1    0    0    0  501 -0.00000000000E+00 -0.00000000000E+00 -0.31665692581E+02  0.31665692581E+02  0.00000000000E+00 0.  1.
         23    2    1    2    0    0  0.00000000000E+00  0.00000000000E+00  0.34038468552E+02  0.97369853714E+02  0.91226482290E+02 0.  0.
        -13    1    3    3    0    0  0.12508872933E+02 -0.21132304995E+02 -0.24007835589E+02  0.34342719551E+02  0.00000000000E+00 0.  1.
         13    1    3    3    0    0 -0.12508872933E+02  0.21132304995E+02  0.58046304141E+02  0.63027134164E+02  0.00000000000E+00 0. -1.
<mgrwt>
<rscale>  0 0.91226482E+02</rscale>
<asrwt>0</asrwt>
<pdfrwt beam="1">  1        3 0.10108332E-01 0.91226482E+02</pdfrwt>
<pdfrwt beam="2">  1       -3 0.48716450E-02 0.91226482E+02</pdfrwt>
<totfact> 0.34815488E+04</totfact>
</mgrwt>
</event>
<event>
 5    1  0.6043464E+000  0.9061415E+02  0.7546771E-02  0.1301371E+00
         -1   -1    0    0    0  501 -0.00000000000E+00  0.00000000000E+00  0.35109230763E+02  0.35109230763E+02  0.00000000000E+00 0.  1.
          1   -1    0    0  501    0  0.00000000000E+00 -0.00000000000E+00 -0.58466988527E+02  0.58466988527E+02  0.00000000000E+00 0. -1.
         23    2    1    2    0    0  0.00000000000E+00  0.00000000000E+00 -0.23357757764E+02  0.93576219290E+02  0.90614148834E+02 0.  0.
        -13    1    3    3    0    0 -0.99535733823E+01  0.36750645287E+02  0.13680885748E+02  0.40458005227E+02  0.00000000000E+00 0.  1.
         13    1    3    3    0    0  0.99535733823E+01 -0.36750645287E+02 -0.37038643512E+02  0.53118214063E+02  0.00000000000E+00 0. -1.
<mgrwt>
<rscale>  0 0.90614149E+02</rscale>
<asrwt>0</asrwt>
<pdfrwt beam="2">  1        1 0.89949213E-02 0.90614149E+02</pdfrwt>
<pdfrwt beam="1">  1       -1 0.54014201E-02 0.90614149E+02</pdfrwt>
<totfact> 0.97657622E+04</totfact>
</mgrwt>
</event>
<event>
 5    1  0.6043464E+000  0.9085877E+02  0.7546771E-02  0.1300785E+00
         -4   -1    0    0    0  501 -0.00000000000E+00  0.00000000000E+00  0.14019114177E+02  0.14019114177E+02  0.00000000000E+00 0.  1.
          4   -1    0    0  501    0  0.00000000000E+00 -0.00000000000E+00 -0.14721536898E+03  0.14721536898E+03  0.00000000000E+00 0. -1.
         23    2    1    2    0    0  0.00000000000E+00  0.00000000000E+00 -0.13319625480E+03  0.16123448316E+03  0.90858770988E+02 0.  0.
        -13    1    3    3    0    0  0.41446521255E+02  0.45838297712E+01 -0.34606594122E+02  0.54188946993E+02  0.00000000000E+00 0.  1.
         13    1    3    3    0    0 -0.41446521255E+02 -0.45838297712E+01 -0.98589660680E+02  0.10704553616E+03  0.00000000000E+00 0. -1.
<mgrwt>
<rscale>  0 0.90858771E+02</rscale>
<asrwt>0</asrwt>
<pdfrwt beam="2">  1        4 0.22648519E-01 0.90858771E+02</pdfrwt>
<pdfrwt beam="1">  1       -4 0.21567867E-02 0.90858771E+02</pdfrwt>
<totfact> 0.23339649E+04</totfact>
</mgrwt>
</event>
<event>
 5    1  0.6043464E+000  0.8395149E+02  0.7546771E-02  0.1318197E+00
         -2   -1    0    0    0  501 -0.00000000000E+00  0.00000000000E+00  0.33257484312E+02  0.33257484312E+02  0.00000000000E+00 0.  1.
          2   -1    0    0  501    0  0.00000000000E+00 -0.00000000000E+00 -0.52979449912E+02  0.52979449912E+02  0.00000000000E+00 0. -1.
         23    2    1    2    0    0  0.00000000000E+00  0.00000000000E+00 -0.19721965600E+02  0.86236934224E+02  0.83951491334E+02 0.  0.
        -13    1    3    3    0    0  0.29044352892E+02  0.20386323338E+02  0.13172348000E+02  0.37850856873E+02  0.00000000000E+00 0.  1.
         13    1    3    3    0    0 -0.29044352892E+02 -0.20386323338E+02 -0.32894313600E+02  0.48386077351E+02  0.00000000000E+00 0. -1.
<mgrwt>
<rscale>  0 0.83951491E+02</rscale>
<asrwt>0</asrwt>
<pdfrwt beam="2">  1        2 0.81506846E-02 0.83951491E+02</pdfrwt>
<pdfrwt beam="1">  1       -2 0.51165360E-02 0.83951491E+02</pdfrwt>
<totfact> 0.12949934E+05</totfact>
</mgrwt>
</event>
<event>
 5    1  0.6043464E+000  0.9196568E+02  0.7546771E-02  0.1298160E+00
         -2   -1    0    0    0  501 -0.00000000000E+00  0.00000000000E+00  0.90891306612E+01  0.90891306612E+01  0.00000000000E+00 0.  1.
          2   -1    0    0  501    0  0.00000000000E+00 -0.00000000000E+00 -0.23263189667E+03  0.23263189667E+03  0.00000000000E+00 0. -1.
         23    2    1    2    0    0  0.00000000000E+00  0.00000000000E+00 -0.22354276601E+03  0.24172102734E+03  0.91965682835E+02 0.  0.
        -13    1    3    3    0    0  0.88399226085E+01  0.44566243972E+02 -0.13038051417E+03  0.13807017349E+03  0.00000000000E+00 0.  1.
         13    1    3    3    0    0 -0.88399226085E+01 -0.44566243972E+02 -0.93162251843E+02  0.10365085384E+03  0.00000000000E+00 0. -1.
<mgrwt>
<rscale>  0 0.91965683E+02</rscale>
<asrwt>0</asrwt>
<pdfrwt beam="2">  1        2 0.35789521E-01 0.91965683E+02</pdfrwt>
<pdfrwt beam="1">  1       -2 0.13983279E-02 0.91965683E+02</pdfrwt>
<totfact> 0.15971891E+05</totfact>
</mgrwt>
</event>
<event>
 5    1  0.6043464E+000  0.9127059E+02  0.7546771E-02  0.1299804E+00
         -2   -1    0    0    0  501 -0.00000000000E+00  0.00000000000E+00  0.34676912939E+02  0.34676912939E+02  0.00000000000E+00 0.  1.
          2   -1    0    0  501    0  0.00000000000E+00 -0.00000000000E+00 -0.60056675899E+02  0.60056675899E+02  0.00000000000E+00 0. -1.
         23    2    1    2    0    0  0.00000000000E+00  0.00000000000E+00 -0.25379762960E+02  0.94733588838E+02  0.91270589382E+02 0.  0.
        -13    1    3    3    0    0  0.33298538126E+02 -0.27471740218E+01 -0.44953699326E+02  0.56010487318E+02  0.00000000000E+00 0. -1.
         13    1    3    3    0    0 -0.33298538126E+02  0.27471740218E+01  0.19573936366E+02  0.38723101520E+02  0.00000000000E+00 0.  1.
<mgrwt>
<rscale>  0 0.91270589E+02</rscale>
<asrwt>0</asrwt>
<pdfrwt beam="2">  1        2 0.92394886E-02 0.91270589E+02</pdfrwt>
<pdfrwt beam="1">  1       -2 0.53349097E-02 0.91270589E+02</pdfrwt>
<totfact> 0.10578877E+05</totfact>
</mgrwt>
</event>
<event>
 5    1  0.6043464E+000  0.9023015E+02  0.7546771E-02  0.1302295E+00
          2   -1    0    0  501    0  0.00000000000E+00  0.00000000000E+00  0.33247606745E+02  0.33247606745E+02  0.00000000000E+00 0. -1.
         -2   -1    0    0    0  501 -0.00000000000E+00 -0.00000000000E+00 -0.61218547129E+02  0.61218547129E+02  0.00000000000E+00 0.  1.
         23    2    1    2    0    0  0.00000000000E+00  0.00000000000E+00 -0.27970940384E+02  0.94466153874E+02  0.90230154171E+02 0.  0.
        -13    1    3    3    0    0 -0.27458967039E+02  0.34926064825E+02 -0.22198851773E+02  0.49665016813E+02  0.00000000000E+00 0.  1.
         13    1    3    3    0    0  0.27458967039E+02 -0.34926064825E+02 -0.57720886113E+01  0.44801137061E+02  0.00000000000E+00 0. -1.
<mgrwt>
<rscale>  0 0.90230154E+02</rscale>
<asrwt>0</asrwt>
<pdfrwt beam="1">  1        2 0.51150165E-02 0.90230154E+02</pdfrwt>
<pdfrwt beam="2">  1       -2 0.94182379E-02 0.90230154E+02</pdfrwt>
<totfact> 0.93734360E+04</totfact>
</mgrwt>
</event>
<event>
 5    1  0.6043464E+000  0.8901775E+02  0.7546771E-02  0.1305248E+00
         -1   -1    0    0    0  501 -0.00000000000E+00  0.00000000000E+00  0.30611476935E+02  0.30611476935E+02  0.00000000000E+00 0.  1.
          1   -1    0    0  501    0  0.00000000000E+00 -0.00000000000E+00 -0.64715589170E+02  0.64715589170E+02  0.00000000000E+00 0. -1.
         23    2    1    2    0    0  0.00000000000E+00  0.00000000000E+00 -0.34104112234E+02  0.95327066105E+02  0.89017745764E+02 0.  0.
        -13    1    3    3    0    0  0.38350403886E+02 -0.22485671202E+02 -0.14735177522E+02  0.46834648971E+02  0.00000000000E+00 0.  1.
         13    1    3    3    0    0 -0.38350403886E+02  0.22485671202E+02 -0.19368934712E+02  0.48492417134E+02  0.00000000000E+00 0. -1.
<mgrwt>
<rscale>  0 0.89017746E+02</rscale>
<asrwt>0</asrwt>
<pdfrwt beam="2">  1        1 0.99562443E-02 0.89017746E+02</pdfrwt>
<pdfrwt beam="1">  1       -1 0.47094581E-02 0.89017746E+02</pdfrwt>
<totfact> 0.10414832E+05</totfact>
</mgrwt>
</event>
<event>
 5    1  0.6043464E+000  0.9367709E+02  0.7546771E-02  0.1294184E+00
         -2   -1    0    0    0  501 -0.00000000000E+00  0.00000000000E+00  0.60735247233E+02  0.60735247233E+02  0.00000000000E+00 0.  1.
          2   -1    0    0  501    0  0.00000000000E+00 -0.00000000000E+00 -0.36121516594E+02  0.36121516594E+02  0.00000000000E+00 0. -1.
         23    2    1    2    0    0  0.00000000000E+00  0.00000000000E+00  0.24613730639E+02  0.96856763826E+02  0.93677088783E+02 0.  0.
        -13    1    3    3    0    0  0.32667224719E+02 -0.31495685638E+02  0.24307885786E+02  0.51478141924E+02  0.00000000000E+00 0.  1.
         13    1    3    3    0    0 -0.32667224719E+02  0.31495685638E+02  0.30584485325E+00  0.45378621902E+02  0.00000000000E+00 0. -1.
<mgrwt>
<rscale>  0 0.93677089E+02</rscale>
<asrwt>0</asrwt>
<pdfrwt beam="2">  1        2 0.55571564E-02 0.93677089E+02</pdfrwt>
<pdfrwt beam="1">  1       -2 0.93438842E-02 0.93677089E+02</pdfrwt>
<totfact> 0.85814140E+04</totfact>
</mgrwt>
</event>
<event>
 5    1  0.6043464E+000  0.9054209E+02  0.7546771E-02  0.1301544E+00
          3   -1    0    0  501    0  0.00000000000E+00  0.00000000000E+00  0.72613551547E+02  0.72613551547E+02  0.00000000000E+00 0. -1.
         -3   -1    0    0    0  501 -0.00000000000E+00 -0.00000000000E+00 -0.28224310693E+02  0.28224310693E+02  0.00000000000E+00 0.  1.
         23    2    1    2    0    0  0.00000000000E+00  0.00000000000E+00  0.44389240854E+02  0.10083786224E+03  0.90542088321E+02 0.  0.
        -13    1    3    3    0    0  0.37386262475E+02  0.10007976662E+02  0.48350871449E+02  0.61933020180E+02  0.00000000000E+00 0. -1.
         13    1    3    3    0    0 -0.37386262475E+02 -0.10007976662E+02 -0.39616305957E+01  0.38904842060E+02  0.00000000000E+00 0.  1.
<mgrwt>
<rscale>  0 0.90542088E+02</rscale>
<asrwt>0</asrwt>
<pdfrwt beam="1">  1        3 0.11171316E-01 0.90542088E+02</pdfrwt>
<pdfrwt beam="2">  1       -3 0.43422017E-02 0.90542088E+02</pdfrwt>
<totfact> 0.35272496E+04</totfact>
</mgrwt>
</event>
<event>
 5    1  0.6043464E+000  0.9078161E+02  0.7546771E-02  0.1300970E+00
          2   -1    0    0  501    0  0.00000000000E+00  0.00000000000E+00  0.21224791212E+02  0.21224791212E+02  0.00000000000E+00 0. -1.
         -2   -1    0    0    0  501 -0.00000000000E+00 -0.00000000000E+00 -0.97071635859E+02  0.97071635859E+02  0.00000000000E+00 0.  1.
         23    2    1    2    0    0  0.00000000000E+00  0.00000000000E+00 -0.75846844647E+02  0.11829642707E+03  0.90781610554E+02 0.  0.
        -13    1    3    3    0    0  0.16789508888E+02  0.78082092101E+01 -0.91926468323E+02  0.93772764266E+02  0.00000000000E+00 0.  1.
         13    1    3    3    0    0 -0.16789508888E+02 -0.78082092101E+01  0.16079623677E+02  0.24523662804E+02  0.00000000000E+00 0. -1.
<mgrwt>
<rscale>  0 0.90781611E+02</rscale>
<asrwt>0</asrwt>
<pdfrwt beam="1">  1        2 0.32653525E-02 0.90781611E+02</pdfrwt>
<pdfrwt beam="2">  1       -2 0.14934098E-01 0.90781611E+02</pdfrwt>
<totfact> 0.81386499E+04</totfact>
</mgrwt>
</event>
<event>
 5    1  0.6043464E+000  0.9820833E+02  0.7546771E-02  0.1284109E+00
         -4   -1    0    0    0  501 -0.00000000000E+00  0.00000000000E+00  0.67545832801E+02  0.67545832801E+02  0.00000000000E+00 0.  1.
          4   -1    0    0  501    0  0.00000000000E+00 -0.00000000000E+00 -0.35697520872E+02  0.35697520872E+02  0.00000000000E+00 0. -1.
         23    2    1    2    0    0  0.00000000000E+00  0.00000000000E+00  0.31848311929E+02  0.10324335367E+03  0.98208325028E+02 0.  0.
        -13    1    3    3    0    0 -0.20411638523E+02 -0.42383246964E+02  0.30725938076E+02  0.56187702222E+02  0.00000000000E+00 0. -1.
         13    1    3    3    0    0  0.20411638523E+02  0.42383246964E+02  0.11223738528E+01  0.47055651450E+02  0.00000000000E+00 0.  1.
<mgrwt>
<rscale>  0 0.98208325E+02</rscale>
<asrwt>0</asrwt>
<pdfrwt beam="2">  1        4 0.54919263E-02 0.98208325E+02</pdfrwt>
<pdfrwt beam="1">  1       -4 0.10391667E-01 0.98208325E+02</pdfrwt>
<totfact> 0.21443508E+04</totfact>
</mgrwt>
</event>
<event>
 5    1  0.6043464E+000  0.9201234E+02  0.7546771E-02  0.1298050E+00
          2   -1    0    0  501    0  0.00000000000E+00  0.00000000000E+00  0.12552977326E+02  0.12552977326E+02  0.00000000000E+00 0. -1.
         -2   -1    0    0    0  501 -0.00000000000E+00 -0.00000000000E+00 -0.16861079686E+03  0.16861079686E+03  0.00000000000E+00 0.  1.
         23    2    1    2    0    0  0.00000000000E+00  0.00000000000E+00 -0.15605781954E+03  0.18116377419E+03  0.92012336345E+02 0.  0.
        -13    1    3    3    0    0 -0.13267921453E+02  0.43966306162E+02 -0.72639102440E+02  0.85939007560E+02  0.00000000000E+00 0.  1.
         13    1    3    3    0    0  0.13267921453E+02 -0.43966306162E+02 -0.83418717099E+02  0.95224766630E+02  0.00000000000E+00 0. -1.
<mgrwt>
<rscale>  0 0.92012336E+02</rscale>
<asrwt>0</asrwt>
<pdfrwt beam="1">  1        2 0.19312273E-02 0.92012336E+02</pdfrwt>
<pdfrwt beam="2">  1       -2 0.25940122E-01 0.92012336E+02</pdfrwt>
<totfact> 0.65314206E+04</totfact>
</mgrwt>
</event>
<event>
 5    1  0.6043464E+000  0.9386603E+02  0.7546771E-02  0.1293751E+00
          3   -1    0    0  501    0  0.00000000000E+00  0.00000000000E+00  0.51390867216E+02  0.51390867216E+02  0.00000000000E+00 0. -1.
         -3   -1    0    0    0  501 -0.00000000000E+00 -0.00000000000E+00 -0.42861855282E+02  0.42861855282E+02  0.00000000000E+00 0.  1.
         23    2    1    2    0    0  0.00000000000E+00  0.00000000000E+00  0.85290119345E+01  0.94252722498E+02  0.93866030350E+02 0.  0.
        -13    1    3    3    0    0 -0.17216294319E+02 -0.37415719905E+02 -0.18330885842E+02  0.45081684328E+02  0.00000000000E+00 0.  1.
         13    1    3    3    0    0  0.17216294319E+02  0.37415719905E+02  0.26859897777E+02  0.49171038170E+02  0.00000000000E+00 0. -1.
<mgrwt>
<rscale>  0 0.93866030E+02</rscale>
<asrwt>0</asrwt>
<pdfrwt beam="1">  1        3 0.79062873E-02 0.93866030E+02</pdfrwt>
<pdfrwt beam="2">  1       -3 0.65941315E-02 0.93866030E+02</pdfrwt>
<totfact> 0.32422965E+04</totfact>
</mgrwt>
</event>
<event>
 5    1  0.6043464E+000  0.9103194E+02  0.7546771E-02  0.1300372E+00
         -1   -1    0    0    0  501 -0.00000000000E+00  0.00000000000E+00  0.35841222960E+02  0.35841222960E+02  0.00000000000E+00 0.  1.
          1   -1    0    0  501    0  0.00000000000E+00 -0.00000000000E+00 -0.57802249266E+02  0.57802249266E+02  0.00000000000E+00 0. -1.
         23    2    1    2    0    0  0.00000000000E+00  0.00000000000E+00 -0.21961026306E+02  0.93643472226E+02  0.91031935133E+02 0.  0.
        -13    1    3    3    0    0 -0.17309505530E+02 -0.11834073180E+02  0.30576947705E+02  0.37075787256E+02  0.00000000000E+00 0.  1.
         13    1    3    3    0    0  0.17309505530E+02  0.11834073180E+02 -0.52537974011E+02  0.56567684970E+02  0.00000000000E+00 0. -1.
<mgrwt>
<rscale>  0 0.91031935E+02</rscale>
<asrwt>0</asrwt>
<pdfrwt beam="2">  1        1 0.88926536E-02 0.91031935E+02</pdfrwt>
<pdfrwt beam="1">  1       -1 0.55140344E-02 0.91031935E+02</pdfrwt>
<totfact> 0.96254158E+04</totfact>
</mgrwt>
</event>
<event>
 5    1  0.6043464E+000  0.9227297E+02  0.7546771E-02  0.1297439E+00
          3   -1    0    0  501    0  0.00000000000E+00  0.00000000000E+00  0.10168312920E+02  0.10168312920E+02  0.00000000000E+00 0. -1.
         -3   -1    0    0    0  501 -0.00000000000E+00 -0.00000000000E+00 -0.20933415192E+03  0.20933415192E+03  0.00000000000E+00 0.  1.
         23    2    1    2    0    0  0.00000000000E+00  0.00000000000E+00 -0.19916583900E+03  0.21950246484E+03  0.92272968125E+02 0.  0.
        -13    1    3    3    0    0  0.49386811448E+01 -0.32529418474E+02 -0.22645924221E+02  0.39942352479E+02  0.00000000000E+00 0. -1.
         13    1    3    3    0    0 -0.49386811448E+01  0.32529418474E+02 -0.17651991478E+03  0.17956011236E+03  0.00000000000E+00 0.  1.
<mgrwt>
<rscale>  0 0.92272968E+02</rscale>
<asrwt>0</asrwt>
<pdfrwt beam="1">  1        3 0.15643558E-02 0.92272968E+02</pdfrwt>
<pdfrwt beam="2">  1       -3 0.32205254E-01 0.92272968E+02</pdfrwt>
<totfact> 0.26644457E+04</totfact>
</mgrwt>
</event>
<event>
 5    1  0.6043464E+000  0.9070954E+02  0.7546771E-02  0.1301142E+00
         -2   -1    0    0    0  501 -0.00000000000E+00  0.00000000000E+00  0.87558211126E+01  0.87558211126E+01  0.00000000000E+00 0.  1.
          2   -1    0    0  501    0  0.00000000000E+00 -0.00000000000E+00 -0.23493569748E+03  0.23493569748E+03  0.00000000000E+00 0. -1.
         23    2    1    2    0    0  0.00000000000E+00  0.00000000000E+00 -0.22617987636E+03  0.24369151859E+03  0.90709535112E+02 0.  0.
        -13    1    3    3    0    0  0.32099666815E+02 -0.16612826793E+02 -0.39483638201E+02  0.53528798878E+02  0.00000000000E+00 0.  1.
         13    1    3    3    0    0 -0.32099666815E+02  0.16612826793E+02 -0.18669623816E+03  0.19016271971E+03  0.00000000000E+00 0. -1.
<mgrwt>
<rscale>  0 0.90709535E+02</rscale>
<asrwt>0</asrwt>
<pdfrwt beam="2">  1        2 0.36143954E-01 0.90709535E+02</pdfrwt>
<pdfrwt beam="1">  1       -2 0.13470494E-02 0.90709535E+02</pdfrwt>
<totfact> 0.16632662E+05</totfact>
</mgrwt>
</event>
<event>
 5    1  0.6043464E+000  0.9062773E+02  0.7546771E-02  0.1301339E+00
          2   -1    0    0  501    0  0.00000000000E+00  0.00000000000E+00  0.10383285331E+03  0.10383285331E+03  0.00000000000E+00 0. -1.
         -2   -1    0    0    0  501 -0.00000000000E+00 -0.00000000000E+00 -0.19775499072E+02  0.19775499072E+02  0.00000000000E+00 0.  1.
         23    2    1    2    0    0  0.00000000000E+00  0.00000000000E+00  0.84057354242E+02  0.12360835239E+03  0.90627732937E+02 0.  0.
        -13    1    3    3    0    0 -0.26089265533E+02  0.14444371943E+02  0.88563042389E+02  0.93448927945E+02  0.00000000000E+00 0. -1.
         13    1    3    3    0    0  0.26089265533E+02 -0.14444371943E+02 -0.45056881478E+01  0.30159424440E+02  0.00000000000E+00 0.  1.
<mgrwt>
<rscale>  0 0.90627733E+02</rscale>
<asrwt>0</asrwt>
<pdfrwt beam="1">  1        2 0.15974285E-01 0.90627733E+02</pdfrwt>
<pdfrwt beam="2">  1       -2 0.30423845E-02 0.90627733E+02</pdfrwt>
<totfact> 0.12617283E+05</totfact>
</mgrwt>
</event>
<event>
 5    1  0.6043464E+000  0.1092174E+03  0.7546771E-02  0.1262026E+00
          2   -1    0    0  501    0  0.00000000000E+00  0.00000000000E+00  0.20635020482E+03  0.20635020482E+03  0.00000000000E+00 0. -1.
         -2   -1    0    0    0  501 -0.00000000000E+00 -0.00000000000E+00 -0.14451704367E+02  0.14451704367E+02  0.00000000000E+00 0.  1.
         23    2    1    2    0    0  0.00000000000E+00  0.00000000000E+00  0.19189850045E+03  0.22080190918E+03  0.10921743736E+03 0.  0.
        -13    1    3    3    0    0  0.44566179261E+02  0.31333720336E+02  0.10355831483E+03  0.11701397752E+03  0.00000000000E+00 0.  1.
         13    1    3    3    0    0 -0.44566179261E+02 -0.31333720336E+02  0.88340185621E+02  0.10378793167E+03  0.00000000000E+00 0. -1.
<mgrwt>
<rscale>  0 0.10921744E+03</rscale>
<asrwt>0</asrwt>
<pdfrwt beam="1">  1        2 0.31746183E-01 0.10921744E+03</pdfrwt>
<pdfrwt beam="2">  1       -2 0.22233393E-02 0.10921744E+03</pdfrwt>
<totfact> 0.95724509E+04</totfact>
</mgrwt>
</event>
<event>
 5    1  0.6043464E+000  0.9107991E+02  0.7546771E-02  0.1300257E+00
          4   -1    0    0  501    0  0.00000000000E+00  0.00000000000E+00  0.16180994159E+03  0.16180994159E+03  0.00000000000E+00 0. -1.
         -4   -1    0    0    0  501 -0.00000000000E+00 -0.00000000000E+00 -0.12816810920E+02  0.12816810920E+02  0.00000000000E+00 0.  1.
         23    2    1    2    0    0  0.00000000000E+00  0.00000000000E+00  0.14899313067E+03  0.17462675251E+03  0.91079908352E+02 0.  0.
        -13    1    3    3    0    0 -0.32713531402E+02 -0.31488563453E+02  0.81188616871E+02  0.93023095382E+02  0.00000000000E+00 0.  1.
         13    1    3    3    0    0  0.32713531402E+02  0.31488563453E+02  0.67804513803E+02  0.81603657131E+02  0.00000000000E+00 0. -1.
<mgrwt>
<rscale>  0 0.91079908E+02</rscale>
<asrwt>0</asrwt>
<pdfrwt beam="1">  1        4 0.24893836E-01 0.91079908E+02</pdfrwt>
<pdfrwt beam="2">  1       -4 0.19718172E-02 0.91079908E+02</pdfrwt>
<totfact> 0.22558836E+04</totfact>
</mgrwt>
</event>
<event>
 5    1  0.6043464E+000  0.9211216E+02  0.7546771E-02  0.1297816E+00
          3   -1    0    0  501    0  0.00000000000E+00  0.00000000000E+00  0.31186149987E+02  0.31186149987E+02  0.00000000000E+00 0. -1.
         -3   -1    0    0    0  501 -0.00000000000E+00 -0.00000000000E+00 -0.68016168441E+02  0.68016168441E+02  0.00000000000E+00 0.  1.
         23    2    1    2    0    0  0.00000000000E+00  0.00000000000E+00 -0.36830018453E+02  0.99202318428E+02  0.92112158384E+02 0.  0.
        -13    1    3    3    0    0  0.44392103448E+02 -0.12227272160E+02 -0.19490580030E+02  0.50000477427E+02  0.00000000000E+00 0. -1.
         13    1    3    3    0    0 -0.44392103448E+02  0.12227272160E+02 -0.17339438424E+02  0.49201841001E+02  0.00000000000E+00 0.  1.
<mgrwt>
<rscale>  0 0.92112158E+02</rscale>
<asrwt>0</asrwt>
<pdfrwt beam="1">  1        3 0.47978693E-02 0.92112158E+02</pdfrwt>
<pdfrwt beam="2">  1       -3 0.10464026E-01 0.92112158E+02</pdfrwt>
<totfact> 0.33777713E+04</totfact>
</mgrwt>
</event>
<event>
 5    1  0.6043464E+000  0.9096956E+02  0.7546771E-02  0.1300521E+00
          1   -1    0    0  501    0  0.00000000000E+00  0.00000000000E+00  0.12932940031E+02  0.12932940031E+02  0.00000000000E+00 0. -1.
         -1   -1    0    0    0  501 -0.00000000000E+00 -0.00000000000E+00 -0.15996865849E+03  0.15996865849E+03  0.00000000000E+00 0.  1.
         23    2    1    2    0    0  0.00000000000E+00  0.00000000000E+00 -0.14703571846E+03  0.17290159852E+03  0.90969556823E+02 0.  0.
        -13    1    3    3    0    0 -0.45382468862E+02  0.61326767514E+00 -0.79194576730E+02  0.91278286359E+02  0.00000000000E+00 0.  1.
         13    1    3    3    0    0  0.45382468862E+02 -0.61326767514E+00 -0.67841141732E+02  0.81623312164E+02  0.00000000000E+00 0. -1.
<mgrwt>
<rscale>  0 0.90969557E+02</rscale>
<asrwt>0</asrwt>
<pdfrwt beam="1">  1        1 0.19896830E-02 0.90969557E+02</pdfrwt>
<pdfrwt beam="2">  1       -1 0.24610563E-01 0.90969557E+02</pdfrwt>
<totfact> 0.74083640E+04</totfact>
</mgrwt>
</event>
<event>
 5    1  0.6043464E+000  0.9127460E+02  0.7546771E-02  0.1299794E+00
          1   -1    0    0  501    0  0.00000000000E+00  0.00000000000E+00  0.36047343174E+02  0.36047343174E+02  0.00000000000E+00 0. -1.
         -1   -1    0    0    0  501 -0.00000000000E+00 -0.00000000000E+00 -0.57778548869E+02  0.57778548869E+02  0.00000000000E+00 0.  1.
         23    2    1    2    0    0  0.00000000000E+00  0.00000000000E+00 -0.21731205694E+02  0.93825892043E+02  0.91274600611E+02 0.  0.
        -13    1    3    3    0    0  0.11948140788E+02 -0.30268962774E+02  0.22025562705E+02  0.39294956269E+02  0.00000000000E+00 0. -1.
         13    1    3    3    0    0 -0.11948140788E+02  0.30268962774E+02 -0.43756768399E+02  0.54530935774E+02  0.00000000000E+00 0.  1.
<mgrwt>
<rscale>  0 0.91274601E+02</rscale>
<asrwt>0</asrwt>
<pdfrwt beam="1">  1        1 0.55457451E-02 0.91274601E+02</pdfrwt>
<pdfrwt beam="2">  1       -1 0.88890075E-02 0.91274601E+02</pdfrwt>
<totfact> 0.88959286E+04</totfact>
</mgrwt>
</event>
<event>
 5    1  0.6043464E+000  0.8480828E+02  0.7546771E-02  0.1315935E+00
         -1   -1    0    0    0  501 -0.00000000000E+00  0.00000000000E+00  0.48274974354E+02  0.48274974354E+02  0.00000000000E+00 0.  1.
          1   -1    0    0  501    0  0.00000000000E+00 -0.00000000000E+00 -0.37247276153E+02  0.37247276153E+02  0.00000000000E+00 0. -1.
         23    2    1    2    0    0  0.00000000000E+00  0.00000000000E+00  0.11027698201E+02  0.85522250507E+02  0.84808284997E+02 0.  0.
        -13    1    3    3    0    0  0.14567456495E+02  0.22346348580E+02  0.38754073170E+02  0.47047298232E+02  0.00000000000E+00 0.  1.
         13    1    3    3    0    0 -0.14567456495E+02 -0.22346348580E+02 -0.27726374970E+02  0.38474952275E+02  0.00000000000E+00 0. -1.
<mgrwt>
<rscale>  0 0.84808285E+02</rscale>
<asrwt>0</asrwt>
<pdfrwt beam="2">  1        1 0.57303502E-02 0.84808285E+02</pdfrwt>
<pdfrwt beam="1">  1       -1 0.74269191E-02 0.84808285E+02</pdfrwt>
<totfact> 0.10995919E+05</totfact>
</mgrwt>
</event>
<event>
 5    1  0.6043464E+000  0.5919513E+02  0.7546771E-02  0.1401241E+00
         -2   -1    0    0    0  501 -0.00000000000E+00  0.00000000000E+00  0.16238682886E+02  0.16238682886E+02  0.00000000000E+00 0.  1.
          2   -1    0    0  501    0  0.00000000000E+00 -0.00000000000E+00 -0.53946244440E+02  0.53946244440E+02  0.00000000000E+00 0. -1.
         23    2    1    2    0    0  0.00000000000E+00  0.00000000000E+00 -0.37707561554E+02  0.70184927326E+02  0.59195133460E+02 0.  0.
        -13    1    3    3    0    0  0.47557704047E+01 -0.15655833937E+02  0.10388714399E+02  0.19381637580E+02  0.00000000000E+00 0.  1.
         13    1    3    3    0    0 -0.47557704047E+01  0.15655833937E+02 -0.48096275954E+02  0.50803289746E+02  0.00000000000E+00 0. -1.
<mgrwt>
<rscale>  0 0.59195133E+02</rscale>
<asrwt>0</asrwt>
<pdfrwt beam="2">  1        2 0.82994222E-02 0.59195133E+02</pdfrwt>
<pdfrwt beam="1">  1       -2 0.24982589E-02 0.59195133E+02</pdfrwt>
<totfact> 0.33554052E+05</totfact>
</mgrwt>
</event>
<event>
 5    1  0.6043464E+000  0.9255695E+02  0.7546771E-02  0.1296775E+00
          3   -1    0    0  501    0  0.00000000000E+00  0.00000000000E+00  0.12240064251E+03  0.12240064251E+03  0.00000000000E+00 0. -1.
         -3   -1    0    0    0  501 -0.00000000000E+00 -0.00000000000E+00 -0.17497433178E+02  0.17497433178E+02  0.00000000000E+00 0.  1.
         23    2    1    2    0    0  0.00000000000E+00  0.00000000000E+00  0.10490320933E+03  0.13989807569E+03  0.92556946003E+02 0.  0.
        -13    1    3    3    0    0 -0.17762251927E+02  0.42710906038E+02  0.50325849929E+02  0.68355030972E+02  0.00000000000E+00 0.  1.
         13    1    3    3    0    0  0.17762251927E+02 -0.42710906038E+02  0.54577359406E+02  0.71543044720E+02  0.00000000000E+00 0. -1.
<mgrwt>
<rscale>  0 0.92556946E+02</rscale>
<asrwt>0</asrwt>
<pdfrwt beam="1">  1        3 0.18830868E-01 0.92556946E+02</pdfrwt>
<pdfrwt beam="2">  1       -3 0.26919129E-02 0.92556946E+02</pdfrwt>
<totfact> 0.30659394E+04</totfact>
</mgrwt>
</event>
<event>
 5    1  0.6043464E+000  0.8516900E+02  0.7546771E-02  0.1314991E+00
         -2   -1    0    0    0  501 -0.00000000000E+00  0.00000000000E+00  0.34438880434E+02  0.34438880434E+02  0.00000000000E+00 0.  1.
          2   -1    0    0  501    0  0.00000000000E+00 -0.00000000000E+00 -0.52656755706E+02  0.52656755706E+02  0.00000000000E+00 0. -1.
         23    2    1    2    0    0  0.00000000000E+00  0.00000000000E+00 -0.18217875272E+02  0.87095636141E+02  0.85169001728E+02 0.  0.
        -13    1    3    3    0    0  0.17371202026E+02  0.20049808770E+02 -0.43174450808E+02  0.50673333165E+02  0.00000000000E+00 0. -1.
         13    1    3    3    0    0 -0.17371202026E+02 -0.20049808770E+02  0.24956575536E+02  0.36422302975E+02  0.00000000000E+00 0.  1.
<mgrwt>
<rscale>  0 0.85169002E+02</rscale>
<asrwt>0</asrwt>
<pdfrwt beam="2">  1        2 0.81010393E-02 0.85169002E+02</pdfrwt>
<pdfrwt beam="1">  1       -2 0.52982893E-02 0.85169002E+02</pdfrwt>
<totfact> 0.12419070E+05</totfact>
</mgrwt>
</event>
<event>
 5    1  0.6043464E+000  0.9014077E+02  0.7546771E-02  0.1302511E+00
         -3   -1    0    0    0  501 -0.00000000000E+00  0.00000000000E+00  0.59163282859E+02  0.59163282859E+02  0.00000000000E+00 0.  1.
          3   -1    0    0  501    0  0.00000000000E+00 -0.00000000000E+00 -0.34334463935E+02  0.34334463935E+02  0.00000000000E+00 0. -1.
         23    2    1    2    0    0  0.00000000000E+00  0.00000000000E+00  0.24828818924E+02  0.93497746795E+02  0.90140769946E+02 0.  0.
        -13    1    3    3    0    0 -0.13153759328E+02 -0.22166581628E+02 -0.25934933181E+02  0.36565003550E+02  0.00000000000E+00 0. -1.
         13    1    3    3    0    0  0.13153759328E+02  0.22166581628E+02  0.50763752105E+02  0.56932743244E+02  0.00000000000E+00 0.  1.
<mgrwt>
<rscale>  0 0.90140770E+02</rscale>
<asrwt>0</asrwt>
<pdfrwt beam="2">  1        3 0.52822252E-02 0.90140770E+02</pdfrwt>
<pdfrwt beam="1">  1       -3 0.91020435E-02 0.90140770E+02</pdfrwt>
<totfact> 0.36271208E+04</totfact>
</mgrwt>
</event>
<event>
 5    1  0.6043464E+000  0.8979032E+02  0.7546771E-02  0.1303360E+00
          3   -1    0    0  501    0  0.00000000000E+00  0.00000000000E+00  0.60566545350E+02  0.60566545350E+02  0.00000000000E+00 0. -1.
         -3   -1    0    0    0  501 -0.00000000000E+00 -0.00000000000E+00 -0.33278690719E+02  0.33278690719E+02  0.00000000000E+00 0.  1.
         23    2    1    2    0    0  0.00000000000E+00  0.00000000000E+00  0.27287854631E+02  0.93845236069E+02  0.89790318646E+02 0.  0.
        -13    1    3    3    0    0  0.41966363910E+02 -0.13773517183E+02  0.22050148405E+02  0.49366937519E+02  0.00000000000E+00 0. -1.
         13    1    3    3    0    0 -0.41966363910E+02  0.13773517183E+02  0.52377062264E+01  0.44478298550E+02  0.00000000000E+00 0.  1.
<mgrwt>
<rscale>  0 0.89790319E+02</rscale>
<asrwt>0</asrwt>
<pdfrwt beam="1">  1        3 0.93179300E-02 0.89790319E+02</pdfrwt>
<pdfrwt beam="2">  1       -3 0.51197986E-02 0.89790319E+02</pdfrwt>
<totfact> 0.36627951E+04</totfact>
</mgrwt>
</event>
<event>
 5    1  0.6043464E+000  0.9230552E+02  0.7546771E-02  0.1297363E+00
          2   -1    0    0  501    0  0.00000000000E+00  0.00000000000E+00  0.16781847338E+03  0.16781847338E+03  0.00000000000E+00 0.  1.
         -2   -1    0    0    0  501 -0.00000000000E+00 -0.00000000000E+00 -0.12692744694E+02  0.12692744694E+02  0.00000000000E+00 0. -1.
         23    2    1    2    0    0  0.00000000000E+00  0.00000000000E+00  0.15512572868E+03  0.18051121807E+03  0.92305515276E+02 0.  0.
        -13    1    3    3    0    0  0.73969109768E+01 -0.45475426649E+02  0.72261709648E+02  0.85699961506E+02  0.00000000000E+00 0.  1.
         13    1    3    3    0    0 -0.73969109768E+01  0.45475426649E+02  0.82864019035E+02  0.94811256566E+02  0.00000000000E+00 0. -1.
<mgrwt>
<rscale>  0 0.92305515E+02</rscale>
<asrwt>0</asrwt>
<pdfrwt beam="1">  1        2 0.25818225E-01 0.92305515E+02</pdfrwt>
<pdfrwt beam="2">  1       -2 0.19527301E-02 0.92305515E+02</pdfrwt>
<totfact> 0.14055770E+05</totfact>
</mgrwt>
</event>
<event>
 5    1  0.6043464E+000  0.9203154E+02  0.7546771E-02  0.1298005E+00
         -2   -1    0    0    0  501 -0.00000000000E+00  0.00000000000E+00  0.71317234874E+01  0.71317234874E+01  0.00000000000E+00 0.  1.
          2   -1    0    0  501    0  0.00000000000E+00 -0.00000000000E+00 -0.29690594894E+03  0.29690594894E+03  0.00000000000E+00 0. -1.
         23    2    1    2    0    0  0.00000000000E+00  0.00000000000E+00 -0.28977422545E+03  0.30403767243E+03  0.92031540889E+02 0.  0.
        -13    1    3    3    0    0 -0.43843104010E+02  0.13604840900E+02 -0.15540782938E+03  0.16204599007E+03  0.00000000000E+00 0.  1.
         13    1    3    3    0    0  0.43843104010E+02 -0.13604840900E+02 -0.13436639607E+03  0.14199168236E+03  0.00000000000E+00 0. -1.
<mgrwt>
<rscale>  0 0.92031541E+02</rscale>
<asrwt>0</asrwt>
<pdfrwt beam="2">  1        2 0.45677832E-01 0.92031541E+02</pdfrwt>
<pdfrwt beam="1">  1       -2 0.10971884E-02 0.92031541E+02</pdfrwt>
<totfact> 0.17456134E+05</totfact>
</mgrwt>
</event>
<event>
 5    1  0.6043464E+000  0.9048362E+02  0.7546771E-02  0.1301685E+00
          4   -1    0    0  501    0  0.00000000000E+00  0.00000000000E+00  0.18303249307E+03  0.18303249307E+03  0.00000000000E+00 0. -1.
         -4   -1    0    0    0  501 -0.00000000000E+00 -0.00000000000E+00 -0.11182830997E+02  0.11182830997E+02  0.00000000000E+00 0.  1.
         23    2    1    2    0    0  0.00000000000E+00  0.00000000000E+00  0.17184966207E+03  0.19421532406E+03  0.90483621435E+02 0.  0.
        -13    1    3    3    0    0  0.37024812986E+02 -0.21178055578E+02  0.53552051025E+02  0.68462902244E+02  0.00000000000E+00 0.  1.
         13    1    3    3    0    0 -0.37024812986E+02  0.21178055578E+02  0.11829761104E+03  0.12575242182E+03  0.00000000000E+00 0. -1.
<mgrwt>
<rscale>  0 0.90483621E+02</rscale>
<asrwt>0</asrwt>
<pdfrwt beam="1">  1        4 0.28158843E-01 0.90483621E+02</pdfrwt>
<pdfrwt beam="2">  1       -4 0.17204357E-02 0.90483621E+02</pdfrwt>
<totfact> 0.22076193E+04</totfact>
</mgrwt>
</event>
<event>
 5    1  0.6043464E+000  0.8929168E+02  0.7546771E-02  0.1304576E+00
          1   -1    0    0  501    0  0.00000000000E+00  0.00000000000E+00  0.52655044256E+02  0.52655044256E+02  0.00000000000E+00 0. -1.
         -1   -1    0    0    0  501 -0.00000000000E+00 -0.00000000000E+00 -0.37854890721E+02  0.37854890721E+02  0.00000000000E+00 0.  1.
         23    2    1    2    0    0  0.00000000000E+00  0.00000000000E+00  0.14800153536E+02  0.90509934977E+02  0.89291678139E+02 0.  0.
        -13    1    3    3    0    0 -0.36986073857E+02  0.10810585208E+01 -0.17923015814E+02  0.41114144072E+02  0.00000000000E+00 0.  1.
         13    1    3    3    0    0  0.36986073857E+02 -0.10810585208E+01  0.32723169350E+02  0.49395790905E+02  0.00000000000E+00 0. -1.
<mgrwt>
<rscale>  0 0.89291678E+02</rscale>
<asrwt>0</asrwt>
<pdfrwt beam="1">  1        1 0.81007760E-02 0.89291678E+02</pdfrwt>
<pdfrwt beam="2">  1       -1 0.58238294E-02 0.89291678E+02</pdfrwt>
<totfact> 0.10014941E+05</totfact>
</mgrwt>
</event>
<event>
 5    1  0.6043464E+000  0.8882751E+02  0.7546771E-02  0.1305716E+00
          1   -1    0    0  501    0  0.00000000000E+00  0.00000000000E+00  0.38970069137E+02  0.38970069137E+02  0.00000000000E+00 0. -1.
         -1   -1    0    0    0  501 -0.00000000000E+00 -0.00000000000E+00 -0.50617865295E+02  0.50617865295E+02  0.00000000000E+00 0.  1.
         23    2    1    2    0    0  0.00000000000E+00  0.00000000000E+00 -0.11647796158E+02  0.89587934432E+02  0.88827511732E+02 0.  0.
        -13    1    3    3    0    0 -0.22541206257E+02  0.37629148279E+02 -0.12849370566E+02  0.45707385658E+02  0.00000000000E+00 0.  1.
         13    1    3    3    0    0  0.22541206257E+02 -0.37629148279E+02  0.12015744079E+01  0.43880548775E+02  0.00000000000E+00 0. -1.
<mgrwt>
<rscale>  0 0.88827512E+02</rscale>
<asrwt>0</asrwt>
<pdfrwt beam="1">  1        1 0.59953953E-02 0.88827512E+02</pdfrwt>
<pdfrwt beam="2">  1       -1 0.77873639E-02 0.88827512E+02</pdfrwt>
<totfact> 0.97202256E+04</totfact>
</mgrwt>
</event>
<event>
 5    1  0.6043464E+000  0.8993400E+02  0.7546771E-02  0.1303012E+00
         -4   -1    0    0    0  501 -0.00000000000E+00  0.00000000000E+00  0.27373283521E+02  0.27373283521E+02  0.00000000000E+00 0.  1.
          4   -1    0    0  501    0  0.00000000000E+00 -0.00000000000E+00 -0.73868779583E+02  0.73868779583E+02  0.00000000000E+00 0. -1.
         23    2    1    2    0    0  0.00000000000E+00  0.00000000000E+00 -0.46495496062E+02  0.10124206310E+03  0.89933999064E+02 0.  0.
        -13    1    3    3    0    0 -0.31714012207E+02  0.14326843770E+02  0.88109520234E+01  0.35898048669E+02  0.00000000000E+00 0.  1.
         13    1    3    3    0    0  0.31714012207E+02 -0.14326843770E+02 -0.55306448086E+02  0.65344014436E+02  0.00000000000E+00 0. -1.
<mgrwt>
<rscale>  0 0.89933999E+02</rscale>
<asrwt>0</asrwt>
<pdfrwt beam="2">  1        4 0.11364428E-01 0.89933999E+02</pdfrwt>
<pdfrwt beam="1">  1       -4 0.42112744E-02 0.89933999E+02</pdfrwt>
<totfact> 0.27378697E+04</totfact>
</mgrwt>
</event>
<event>
 5    1  0.6043464E+000  0.8894999E+02  0.7546771E-02  0.1305415E+00
         -2   -1    0    0    0  501 -0.00000000000E+00  0.00000000000E+00  0.83019029130E+02  0.83019029130E+02  0.00000000000E+00 0. -1.
          2   -1    0    0  501    0  0.00000000000E+00 -0.00000000000E+00 -0.23826163981E+02  0.23826163981E+02  0.00000000000E+00 0.  1.
         23    2    1    2    0    0  0.00000000000E+00  0.00000000000E+00  0.59192865149E+02  0.10684519311E+03  0.88949985982E+02 0.  0.
        -13    1    3    3    0    0  0.16607970301E+02 -0.13020747019E+02  0.76621787564E+02  0.79474919692E+02  0.00000000000E+00 0. -1.
         13    1    3    3    0    0 -0.16607970301E+02  0.13020747019E+02 -0.17428922415E+02  0.27370273418E+02  0.00000000000E+00 0.  1.
<mgrwt>
<rscale>  0 0.88949986E+02</rscale>
<asrwt>0</asrwt>
<pdfrwt beam="2">  1        2 0.36655637E-02 0.88949986E+02</pdfrwt>
<pdfrwt beam="1">  1       -2 0.12772158E-01 0.88949986E+02</pdfrwt>
<totfact> 0.89492292E+04</totfact>
</mgrwt>
</event>
<event>
 5    1  0.6043464E+000  0.9153978E+02  0.7546771E-02  0.1299165E+00
          1   -1    0    0  501    0  0.00000000000E+00  0.00000000000E+00  0.13266175692E+03  0.13266175692E+03  0.00000000000E+00 0. -1.
         -1   -1    0    0    0  501 -0.00000000000E+00 -0.00000000000E+00 -0.15791157663E+02  0.15791157663E+02  0.00000000000E+00 0.  1.
         23    2    1    2    0    0  0.00000000000E+00  0.00000000000E+00  0.11687059925E+03  0.14845291458E+03  0.91539777567E+02 0.  0.
        -13    1    3    3    0    0  0.21862529409E+02 -0.18316909632E+02  0.11648791671E+03  0.11992878766E+03  0.00000000000E+00 0. -1.
         13    1    3    3    0    0 -0.21862529409E+02  0.18316909632E+02  0.38268254735E+00  0.28524126920E+02  0.00000000000E+00 0.  1.
<mgrwt>
<rscale>  0 0.91539778E+02</rscale>
<asrwt>0</asrwt>
<pdfrwt beam="1">  1        1 0.20409500E-01 0.91539778E+02</pdfrwt>
<pdfrwt beam="2">  1       -1 0.24294090E-02 0.91539778E+02</pdfrwt>
<totfact> 0.10848908E+05</totfact>
</mgrwt>
</event>
<event>
 5    1  0.6043464E+000  0.9262865E+02  0.7546771E-02  0.1296608E+00
          2   -1    0    0  501    0  0.00000000000E+00  0.00000000000E+00  0.14420266347E+03  0.14420266347E+03  0.00000000000E+00 0. -1.
         -2   -1    0    0    0  501 -0.00000000000E+00 -0.00000000000E+00 -0.14875015595E+02  0.14875015595E+02  0.00000000000E+00 0.  1.
         23    2    1    2    0    0  0.00000000000E+00  0.00000000000E+00  0.12932764787E+03  0.15907767906E+03  0.92628653621E+02 0.  0.
        -13    1    3    3    0    0  0.15942280649E+02  0.41640259078E+02  0.86178940144E+02  0.97030290181E+02  0.00000000000E+00 0. -1.
         13    1    3    3    0    0 -0.15942280649E+02 -0.41640259078E+02  0.43148707729E+02  0.62047388882E+02  0.00000000000E+00 0.  1.
<mgrwt>
<rscale>  0 0.92628654E+02</rscale>
<asrwt>0</asrwt>
<pdfrwt beam="1">  1        2 0.22185024E-01 0.92628654E+02</pdfrwt>
<pdfrwt beam="2">  1       -2 0.22884640E-02 0.92628654E+02</pdfrwt>
<totfact> 0.13214870E+05</totfact>
</mgrwt>
</event>
<event>
 5    1  0.6043464E+000  0.8933782E+02  0.7546771E-02  0.1304463E+00
          1   -1    0    0  501    0  0.00000000000E+00  0.00000000000E+00  0.25344756162E+02  0.25344756162E+02  0.00000000000E+00 0. -1.
         -1   -1    0    0    0  501 -0.00000000000E+00 -0.00000000000E+00 -0.78726801029E+02  0.78726801029E+02  0.00000000000E+00 0.  1.
         23    2    1    2    0    0  0.00000000000E+00  0.00000000000E+00 -0.53382044867E+02  0.10407155719E+03  0.89337821230E+02 0.  0.
        -13    1    3    3    0    0  0.33687019592E+02 -0.25172984061E+02 -0.91467787748E+01  0.43036705003E+02  0.00000000000E+00 0. -1.
         13    1    3    3    0    0 -0.33687019592E+02  0.25172984061E+02 -0.44235266092E+02  0.61034852189E+02  0.00000000000E+00 0.  1.
<mgrwt>
<rscale>  0 0.89337821E+02</rscale>
<asrwt>0</asrwt>
<pdfrwt beam="1">  1        1 0.38991933E-02 0.89337821E+02</pdfrwt>
<pdfrwt beam="2">  1       -1 0.12111815E-01 0.89337821E+02</pdfrwt>
<totfact> 0.89417250E+04</totfact>
</mgrwt>
</event>
<event>
 5    1  0.6043464E+000  0.8854056E+02  0.7546771E-02  0.1306425E+00
         -2   -1    0    0    0  501 -0.00000000000E+00  0.00000000000E+00  0.48783884525E+02  0.48783884525E+02  0.00000000000E+00 0.  1.
          2   -1    0    0  501    0  0.00000000000E+00 -0.00000000000E+00 -0.40174288627E+02  0.40174288627E+02  0.00000000000E+00 0. -1.
         23    2    1    2    0    0  0.00000000000E+00  0.00000000000E+00  0.86095958982E+01  0.88958173152E+02  0.88540563749E+02 0.  0.
        -13    1    3    3    0    0 -0.13299336900E+02 -0.36224140315E+02 -0.17495402510E+02  0.42369208306E+02  0.00000000000E+00 0.  1.
         13    1    3    3    0    0  0.13299336900E+02  0.36224140315E+02  0.26104998408E+02  0.46588964846E+02  0.00000000000E+00 0. -1.
<mgrwt>
<rscale>  0 0.88540564E+02</rscale>
<asrwt>0</asrwt>
<pdfrwt beam="2">  1        2 0.61806598E-02 0.88540564E+02</pdfrwt>
<pdfrwt beam="1">  1       -2 0.75052130E-02 0.88540564E+02</pdfrwt>
<totfact> 0.10392884E+05</totfact>
</mgrwt>
</event>
<event>
 5    1  0.6043464E+000  0.9025294E+02  0.7546771E-02  0.1302240E+00
         -4   -1    0    0    0  501 -0.00000000000E+00  0.00000000000E+00  0.75893282235E+01  0.75893282235E+01  0.00000000000E+00 0.  1.
          4   -1    0    0  501    0  0.00000000000E+00 -0.00000000000E+00 -0.26832392956E+03  0.26832392956E+03  0.00000000000E+00 0. -1.
         23    2    1    2    0    0  0.00000000000E+00  0.00000000000E+00 -0.26073460134E+03  0.27591325778E+03  0.90252941706E+02 0.  0.
        -13    1    3    3    0    0  0.28246900935E+02  0.34112631951E+02 -0.10392032212E+03  0.11296456268E+03  0.00000000000E+00 0.  1.
         13    1    3    3    0    0 -0.28246900935E+02 -0.34112631951E+02 -0.15681427922E+03  0.16294869511E+03  0.00000000000E+00 0. -1.
<mgrwt>
<rscale>  0 0.90252942E+02</rscale>
<asrwt>0</asrwt>
<pdfrwt beam="2">  1        4 0.41280607E-01 0.90252942E+02</pdfrwt>
<pdfrwt beam="1">  1       -4 0.11675889E-02 0.90252942E+02</pdfrwt>
<totfact> 0.19090878E+04</totfact>
</mgrwt>
</event>
<event>
 5    1  0.6043464E+000  0.9112385E+02  0.7546771E-02  0.1300153E+00
          2   -1    0    0  501    0  0.00000000000E+00  0.00000000000E+00  0.41434018828E+03  0.41434018828E+03  0.00000000000E+00 0. -1.
         -2   -1    0    0    0  501 -0.00000000000E+00 -0.00000000000E+00 -0.50101079918E+01  0.50101079918E+01  0.00000000000E+00 0.  1.
         23    2    1    2    0    0  0.00000000000E+00  0.00000000000E+00  0.40933008028E+03  0.41935029627E+03  0.91123851731E+02 0.  0.
        -13    1    3    3    0    0 -0.41928241405E+02  0.14236931251E+02  0.25406328894E+03  0.25789304455E+03  0.00000000000E+00 0.  1.
         13    1    3    3    0    0  0.41928241405E+02 -0.14236931251E+02  0.15526679134E+03  0.16145725172E+03  0.00000000000E+00 0. -1.
<mgrwt>
<rscale>  0 0.91123852E+02</rscale>
<asrwt>0</asrwt>
<pdfrwt beam="1">  1        2 0.63744617E-01 0.91123852E+02</pdfrwt>
<pdfrwt beam="2">  1       -2 0.77078617E-03 0.91123852E+02</pdfrwt>
<totfact> 0.20245323E+05</totfact>
</mgrwt>
</event>
<event>
 5    1  0.6043464E+000  0.9228257E+02  0.7546771E-02  0.1297416E+00
          2   -1    0    0  501    0  0.00000000000E+00  0.00000000000E+00  0.21422354271E+02  0.21422354271E+02  0.00000000000E+00 0. -1.
         -2   -1    0    0    0  501 -0.00000000000E+00 -0.00000000000E+00 -0.99383011864E+02  0.99383011864E+02  0.00000000000E+00 0.  1.
         23    2    1    2    0    0  0.00000000000E+00  0.00000000000E+00 -0.77960657593E+02  0.12080536613E+03  0.92282567988E+02 0.  0.
        -13    1    3    3    0    0  0.14333568824E+02 -0.30315753928E+02  0.25099422196E+01  0.33627309459E+02  0.00000000000E+00 0. -1.
         13    1    3    3    0    0 -0.14333568824E+02  0.30315753928E+02 -0.80470599813E+02  0.87178056675E+02  0.00000000000E+00 0.  1.
<mgrwt>
<rscale>  0 0.92282568E+02</rscale>
<asrwt>0</asrwt>
<pdfrwt beam="1">  1        2 0.32957468E-02 0.92282568E+02</pdfrwt>
<pdfrwt beam="2">  1       -2 0.15289694E-01 0.92282568E+02</pdfrwt>
<totfact> 0.77589617E+04</totfact>
</mgrwt>
</event>
<event>
 5    1  0.6043464E+000  0.9207500E+02  0.7546771E-02  0.1297903E+00
         -4   -1    0    0    0  501 -0.00000000000E+00  0.00000000000E+00  0.14001802292E+02  0.14001802292E+02  0.00000000000E+00 0.  1.
          4   -1    0    0  501    0  0.00000000000E+00 -0.00000000000E+00 -0.15136989523E+03  0.15136989523E+03  0.00000000000E+00 0. -1.
         23    2    1    2    0    0  0.00000000000E+00  0.00000000000E+00 -0.13736809294E+03  0.16537169752E+03  0.92074998691E+02 0.  0.
        -13    1    3    3    0    0 -0.21139022999E+02 -0.24640029176E+02 -0.10058291484E+02  0.33987623611E+02  0.00000000000E+00 0.  1.
         13    1    3    3    0    0  0.21139022999E+02  0.24640029176E+02 -0.12730980146E+03  0.13138407391E+03  0.00000000000E+00 0. -1.
<mgrwt>
<rscale>  0 0.92074999E+02</rscale>
<asrwt>0</asrwt>
<pdfrwt beam="2">  1        4 0.23287676E-01 0.92074999E+02</pdfrwt>
<pdfrwt beam="1">  1       -4 0.21541235E-02 0.92074999E+02</pdfrwt>
<totfact> 0.22327163E+04</totfact>
</mgrwt>
</event>
<event>
 5    1  0.6043464E+000  0.9302887E+02  0.7546771E-02  0.1295678E+00
         -1   -1    0    0    0  501 -0.00000000000E+00  0.00000000000E+00  0.81411130052E+02  0.81411130052E+02  0.00000000000E+00 0.  1.
          1   -1    0    0  501    0  0.00000000000E+00 -0.00000000000E+00 -0.26576128657E+02  0.26576128657E+02  0.00000000000E+00 0. -1.
         23    2    1    2    0    0  0.00000000000E+00  0.00000000000E+00  0.54835001395E+02  0.10798725871E+03  0.93028870064E+02 0.  0.
        -13    1    3    3    0    0 -0.22168270870E+02 -0.36581362392E+02  0.62043669223E+01  0.43221782434E+02  0.00000000000E+00 0. -1.
         13    1    3    3    0    0  0.22168270870E+02  0.36581362392E+02  0.48630634473E+02  0.64765476275E+02  0.00000000000E+00 0.  1.
<mgrwt>
<rscale>  0 0.93028870E+02</rscale>
<asrwt>0</asrwt>
<pdfrwt beam="2">  1        1 0.40886352E-02 0.93028870E+02</pdfrwt>
<pdfrwt beam="1">  1       -1 0.12524789E-01 0.93028870E+02</pdfrwt>
<totfact> 0.80158188E+04</totfact>
</mgrwt>
</event>
<event>
 5    1  0.6043464E+000  0.8988584E+02  0.7546771E-02  0.1303128E+00
         -1   -1    0    0    0  501 -0.00000000000E+00  0.00000000000E+00  0.26237539834E+02  0.26237539834E+02  0.00000000000E+00 0.  1.
          1   -1    0    0  501    0  0.00000000000E+00 -0.00000000000E+00 -0.76983826576E+02  0.76983826576E+02  0.00000000000E+00 0. -1.
         23    2    1    2    0    0  0.00000000000E+00  0.00000000000E+00 -0.50746286742E+02  0.10322136641E+03  0.89885843521E+02 0.  0.
        -13    1    3    3    0    0  0.94637845678E+01 -0.39827902101E+02 -0.46673336446E+02  0.62082407646E+02  0.00000000000E+00 0. -1.
         13    1    3    3    0    0 -0.94637845678E+01  0.39827902101E+02 -0.40729502953E+01  0.41138958764E+02  0.00000000000E+00 0.  1.
<mgrwt>
<rscale>  0 0.89885844E+02</rscale>
<asrwt>0</asrwt>
<pdfrwt beam="2">  1        1 0.11843665E-01 0.89885844E+02</pdfrwt>
<pdfrwt beam="1">  1       -1 0.40365447E-02 0.89885844E+02</pdfrwt>
<totfact> 0.10413252E+05</totfact>
</mgrwt>
</event>
<event>
 5    1  0.6043464E+000  0.8984137E+02  0.7546771E-02  0.1303236E+00
          3   -1    0    0  501    0  0.00000000000E+00  0.00000000000E+00  0.11740894430E+02  0.11740894430E+02  0.00000000000E+00 0. -1.
         -3   -1    0    0    0  501 -0.00000000000E+00 -0.00000000000E+00 -0.17186663705E+03  0.17186663705E+03  0.00000000000E+00 0.  1.
         23    2    1    2    0    0  0.00000000000E+00  0.00000000000E+00 -0.16012574262E+03  0.18360753148E+03  0.89841372244E+02 0.  0.
        -13    1    3    3    0    0  0.21166341301E+02 -0.31584572462E+02 -0.12895220936E+03  0.13444058732E+03  0.00000000000E+00 0.  1.
         13    1    3    3    0    0 -0.21166341301E+02  0.31584572462E+02 -0.31173533264E+02  0.49166944158E+02  0.00000000000E+00 0. -1.
<mgrwt>
<rscale>  0 0.89841372E+02</rscale>
<asrwt>0</asrwt>
<pdfrwt beam="1">  1        3 0.18062916E-02 0.89841372E+02</pdfrwt>
<pdfrwt beam="2">  1       -3 0.26441019E-01 0.89841372E+02</pdfrwt>
<totfact> 0.30559543E+04</totfact>
</mgrwt>
</event>
<event>
 5    1  0.6043464E+000  0.8070890E+02  0.7546771E-02  0.1327052E+00
         -3   -1    0    0    0  501 -0.00000000000E+00  0.00000000000E+00  0.14907178729E+03  0.14907178729E+03  0.00000000000E+00 0.  1.
          3   -1    0    0  501    0  0.00000000000E+00 -0.00000000000E+00 -0.10924144958E+02  0.10924144958E+02  0.00000000000E+00 0. -1.
         23    2    1    2    0    0  0.00000000000E+00  0.00000000000E+00  0.13814764233E+03  0.15999593225E+03  0.80708904430E+02 0.  0.
        -13    1    3    3    0    0 -0.47611755943E+01 -0.39420933601E+02  0.83341883756E+02  0.92317649380E+02  0.00000000000E+00 0. -1.
         13    1    3    3    0    0  0.47611755943E+01  0.39420933601E+02  0.54805758577E+02  0.67678282870E+02  0.00000000000E+00 0.  1.
<mgrwt>
<rscale>  0 0.80708904E+02</rscale>
<asrwt>0</asrwt>
<pdfrwt beam="2">  1        3 0.16806378E-02 0.80708904E+02</pdfrwt>
<pdfrwt beam="1">  1       -3 0.22934120E-01 0.80708904E+02</pdfrwt>
<totfact> 0.42595481E+04</totfact>
</mgrwt>
</event>
<event>
 5    1  0.6043464E+000  0.7940339E+02  0.7546771E-02  0.1330753E+00
          2   -1    0    0  501    0  0.00000000000E+00  0.00000000000E+00  0.22094848677E+03  0.22094848677E+03  0.00000000000E+00 0.  1.
         -2   -1    0    0    0  501 -0.00000000000E+00 -0.00000000000E+00 -0.71339008698E+01  0.71339008698E+01  0.00000000000E+00 0. -1.
         23    2    1    2    0    0  0.00000000000E+00  0.00000000000E+00  0.21381458590E+03  0.22808238764E+03  0.79403390405E+02 0.  0.
        -13    1    3    3    0    0 -0.58161361730E+01  0.39039240906E+02  0.94607687944E+02  0.10251099643E+03  0.00000000000E+00 0. -1.
         13    1    3    3    0    0  0.58161361730E+01 -0.39039240906E+02  0.11920689796E+03  0.12557139121E+03  0.00000000000E+00 0.  1.
<mgrwt>
<rscale>  0 0.79403390E+02</rscale>
<asrwt>0</asrwt>
<pdfrwt beam="1">  1        2 0.33992070E-01 0.79403390E+02</pdfrwt>
<pdfrwt beam="2">  1       -2 0.10975234E-02 0.79403390E+02</pdfrwt>
<totfact> 0.23178666E+05</totfact>
</mgrwt>
</event>
<event>
 5    1  0.6043464E+000  0.9325626E+02  0.7546771E-02  0.1295152E+00
          1   -1    0    0  501    0  0.00000000000E+00  0.00000000000E+00  0.63186356383E+02  0.63186356383E+02  0.00000000000E+00 0. -1.
         -1   -1    0    0    0  501 -0.00000000000E+00 -0.00000000000E+00 -0.34409053109E+02  0.34409053109E+02  0.00000000000E+00 0.  1.
         23    2    1    2    0    0  0.00000000000E+00  0.00000000000E+00  0.28777303274E+02  0.97595409492E+02  0.93256263973E+02 0.  0.
        -13    1    3    3    0    0 -0.34960318072E+02  0.28760552344E+02  0.26979556130E+01  0.45350547685E+02  0.00000000000E+00 0.  1.
         13    1    3    3    0    0  0.34960318072E+02 -0.28760552344E+02  0.26079347661E+02  0.52244861807E+02  0.00000000000E+00 0. -1.
<mgrwt>
<rscale>  0 0.93256264E+02</rscale>
<asrwt>0</asrwt>
<pdfrwt beam="1">  1        1 0.97209779E-02 0.93256264E+02</pdfrwt>
<pdfrwt beam="2">  1       -1 0.52937005E-02 0.93256264E+02</pdfrwt>
<totfact> 0.91238039E+04</totfact>
</mgrwt>
</event>
<event>
 5    1  0.6043464E+000  0.9042927E+02  0.7546771E-02  0.1301815E+00
          2   -1    0    0  501    0  0.00000000000E+00  0.00000000000E+00  0.86471801259E+02  0.86471801259E+02  0.00000000000E+00 0. -1.
         -2   -1    0    0    0  501 -0.00000000000E+00 -0.00000000000E+00 -0.23641966001E+02  0.23641966001E+02  0.00000000000E+00 0.  1.
         23    2    1    2    0    0  0.00000000000E+00  0.00000000000E+00  0.62829835258E+02  0.11011376726E+03  0.90429273698E+02 0.  0.
        -13    1    3    3    0    0 -0.27313277625E+02 -0.39735458400E+01  0.75023431425E+02  0.79939473753E+02  0.00000000000E+00 0. -1.
         13    1    3    3    0    0  0.27313277625E+02  0.39735458400E+01 -0.12193596167E+02  0.30174293507E+02  0.00000000000E+00 0.  1.
<mgrwt>
<rscale>  0 0.90429274E+02</rscale>
<asrwt>0</asrwt>
<pdfrwt beam="1">  1        2 0.13303354E-01 0.90429274E+02</pdfrwt>
<pdfrwt beam="2">  1       -2 0.36372256E-02 0.90429274E+02</pdfrwt>
<totfact> 0.12017458E+05</totfact>
</mgrwt>
</event>
<event>
 5    1  0.6043464E+000  0.8806689E+02  0.7546771E-02  0.1307602E+00
         -1   -1    0    0    0  501 -0.00000000000E+00  0.00000000000E+00  0.60125797773E+02  0.60125797773E+02  0.00000000000E+00 0.  1.
          1   -1    0    0  501    0  0.00000000000E+00 -0.00000000000E+00 -0.32248124991E+02  0.32248124991E+02  0.00000000000E+00 0. -1.
         23    2    1    2    0    0  0.00000000000E+00  0.00000000000E+00  0.27877672781E+02  0.92373922764E+02  0.88066889164E+02 0.  0.
        -13    1    3    3    0    0  0.49023082640E+01 -0.37971277744E+02 -0.88756294566E+01  0.39301747519E+02  0.00000000000E+00 0. -1.
         13    1    3    3    0    0 -0.49023082640E+01  0.37971277744E+02  0.36753302238E+02  0.53072175245E+02  0.00000000000E+00 0.  1.
<mgrwt>
<rscale>  0 0.88066889E+02</rscale>
<asrwt>0</asrwt>
<pdfrwt beam="2">  1        1 0.49612500E-02 0.88066889E+02</pdfrwt>
<pdfrwt beam="1">  1       -1 0.92501228E-02 0.88066889E+02</pdfrwt>
<totfact> 0.96797201E+04</totfact>
</mgrwt>
</event>
<event>
 5    1  0.6043464E+000  0.8906448E+02  0.7546771E-02  0.1305133E+00
          3   -1    0    0  501    0  0.00000000000E+00  0.00000000000E+00  0.30227094965E+02  0.30227094965E+02  0.00000000000E+00 0. -1.
         -3   -1    0    0    0  501 -0.00000000000E+00 -0.00000000000E+00 -0.65607376089E+02  0.65607376089E+02  0.00000000000E+00 0.  1.
         23    2    1    2    0    0  0.00000000000E+00  0.00000000000E+00 -0.35380281125E+02  0.95834471054E+02  0.89064479731E+02 0.  0.
        -13    1    3    3    0    0 -0.16244366727E+02  0.58042583944E+01  0.26486046756E+02  0.31608219479E+02  0.00000000000E+00 0. -1.
         13    1    3    3    0    0  0.16244366727E+02 -0.58042583944E+01 -0.61866327881E+02  0.64226251575E+02  0.00000000000E+00 0.  1.
<mgrwt>
<rscale>  0 0.89064480E+02</rscale>
<asrwt>0</asrwt>
<pdfrwt beam="1">  1        3 0.46503223E-02 0.89064480E+02</pdfrwt>
<pdfrwt beam="2">  1       -3 0.10093442E-01 0.89064480E+02</pdfrwt>
<totfact> 0.37283036E+04</totfact>
</mgrwt>
</event>
<event>
 5    1  0.6043464E+000  0.8141837E+02  0.7546771E-02  0.1325074E+00
          2   -1    0    0  501    0  0.00000000000E+00  0.00000000000E+00  0.23036773074E+03  0.23036773074E+03  0.00000000000E+00 0.  1.
         -2   -1    0    0    0  501 -0.00000000000E+00 -0.00000000000E+00 -0.71938794735E+01  0.71938794735E+01  0.00000000000E+00 0. -1.
         23    2    1    2    0    0  0.00000000000E+00  0.00000000000E+00  0.22317385127E+03  0.23756161021E+03  0.81418368677E+02 0.  0.
        -13    1    3    3    0    0 -0.34519567307E+01 -0.32160899286E+02  0.18370993572E+03  0.18653573366E+03  0.00000000000E+00 0.  1.
         13    1    3    3    0    0  0.34519567307E+01  0.32160899286E+02  0.39463915544E+02  0.51025876555E+02  0.00000000000E+00 0. -1.
<mgrwt>
<rscale>  0 0.81418369E+02</rscale>
<asrwt>0</asrwt>
<pdfrwt beam="1">  1        2 0.35441184E-01 0.81418369E+02</pdfrwt>
<pdfrwt beam="2">  1       -2 0.11067509E-02 0.81418369E+02</pdfrwt>
<totfact> 0.22020270E+05</totfact>
</mgrwt>
</event>
<event>
 5    1  0.6043464E+000  0.9336352E+02  0.7546771E-02  0.1294905E+00
         -2   -1    0    0    0  501 -0.00000000000E+00  0.00000000000E+00  0.25451658498E+02  0.25451658498E+02  0.00000000000E+00 0.  1.
          2   -1    0    0  501    0  0.00000000000E+00 -0.00000000000E+00 -0.85620609809E+02  0.85620609809E+02  0.00000000000E+00 0. -1.
         23    2    1    2    0    0  0.00000000000E+00  0.00000000000E+00 -0.60168951312E+02  0.11107226831E+03  0.93363515812E+02 0.  0.
        -13    1    3    3    0    0  0.34664863558E+02  0.64792588856E+01  0.63038968570E+01  0.35824191223E+02  0.00000000000E+00 0.  1.
         13    1    3    3    0    0 -0.34664863558E+02 -0.64792588856E+01 -0.66472848169E+02  0.75248077084E+02  0.00000000000E+00 0. -1.
<mgrwt>
<rscale>  0 0.93363516E+02</rscale>
<asrwt>0</asrwt>
<pdfrwt beam="2">  1        2 0.13172402E-01 0.93363516E+02</pdfrwt>
<pdfrwt beam="1">  1       -2 0.39156397E-02 0.93363516E+02</pdfrwt>
<totfact> 0.10966551E+05</totfact>
</mgrwt>
</event>
<event>
 5    1  0.6043464E+000  0.9040689E+02  0.7546771E-02  0.1301869E+00
         -2   -1    0    0    0  501 -0.00000000000E+00  0.00000000000E+00  0.21385178818E+02  0.21385178818E+02  0.00000000000E+00 0.  1.
          2   -1    0    0  501    0  0.00000000000E+00 -0.00000000000E+00 -0.95549887845E+02  0.95549887845E+02  0.00000000000E+00 0. -1.
         23    2    1    2    0    0  0.00000000000E+00  0.00000000000E+00 -0.74164709027E+02  0.11693506666E+03  0.90406889949E+02 0.  0.
        -13    1    3    3    0    0 -0.30650353448E+02  0.30842221309E+01 -0.79871169332E+02  0.85605842576E+02  0.00000000000E+00 0. -1.
         13    1    3    3    0    0  0.30650353448E+02 -0.30842221309E+01  0.57064603051E+01  0.31329224087E+02  0.00000000000E+00 0.  1.
<mgrwt>
<rscale>  0 0.90406890E+02</rscale>
<asrwt>0</asrwt>
<pdfrwt beam="2">  1        2 0.14699982E-01 0.90406890E+02</pdfrwt>
<pdfrwt beam="1">  1       -2 0.32900276E-02 0.90406890E+02</pdfrwt>
<totfact> 0.12385789E+05</totfact>
</mgrwt>
</event>
<event>
 5    1  0.6043464E+000  0.9702256E+02  0.7546771E-02  0.1286685E+00
          2   -1    0    0  501    0  0.00000000000E+00  0.00000000000E+00  0.31405491039E+02  0.31405491039E+02  0.00000000000E+00 0. -1.
         -2   -1    0    0    0  501 -0.00000000000E+00 -0.00000000000E+00 -0.74934173528E+02  0.74934173528E+02  0.00000000000E+00 0.  1.
         23    2    1    2    0    0  0.00000000000E+00  0.00000000000E+00 -0.43528682490E+02  0.10633966457E+03  0.97022564700E+02 0.  0.
        -13    1    3    3    0    0  0.23694731011E+02  0.10106830019E+02 -0.66818466585E+02  0.71612120255E+02  0.00000000000E+00 0.  1.
         13    1    3    3    0    0 -0.23694731011E+02 -0.10106830019E+02  0.23289784095E+02  0.34727544312E+02  0.00000000000E+00 0. -1.
<mgrwt>
<rscale>  0 0.97022565E+02</rscale>
<asrwt>0</asrwt>
<pdfrwt beam="1">  1        2 0.48316141E-02 0.97022565E+02</pdfrwt>
<pdfrwt beam="2">  1       -2 0.11528334E-01 0.97022565E+02</pdfrwt>
<totfact> 0.74408133E+04</totfact>
</mgrwt>
</event>
<event>
 5    1  0.6043464E+000  0.9090989E+02  0.7546771E-02  0.1300663E+00
          2   -1    0    0  501    0  0.00000000000E+00  0.00000000000E+00  0.24240892735E+03  0.24240892735E+03  0.00000000000E+00 0. -1.
         -2   -1    0    0    0  501 -0.00000000000E+00 -0.00000000000E+00 -0.85234164736E+01  0.85234164736E+01  0.00000000000E+00 0.  1.
         23    2    1    2    0    0  0.00000000000E+00  0.00000000000E+00  0.23388551088E+03  0.25093234383E+03  0.90909894835E+02 0.  0.
        -13    1    3    3    0    0 -0.17446110221E+02  0.39077794588E+02  0.15923031562E+03  0.16488096980E+03  0.00000000000E+00 0. -1.
         13    1    3    3    0    0  0.17446110221E+02 -0.39077794588E+02  0.74655195262E+02  0.86051374023E+02  0.00000000000E+00 0.  1.
<mgrwt>
<rscale>  0 0.90909895E+02</rscale>
<asrwt>0</asrwt>
<pdfrwt beam="1">  1        2 0.37293676E-01 0.90909895E+02</pdfrwt>
<pdfrwt beam="2">  1       -2 0.13112950E-02 0.90909895E+02</pdfrwt>
<totfact> 0.16726670E+05</totfact>
</mgrwt>
</event>
<event>
 5    1  0.6043464E+000  0.8135328E+02  0.7546771E-02  0.1325254E+00
          4   -1    0    0  501    0  0.00000000000E+00  0.00000000000E+00  0.61909863656E+02  0.61909863656E+02  0.00000000000E+00 0. -1.
         -4   -1    0    0    0  501 -0.00000000000E+00 -0.00000000000E+00 -0.26725775448E+02  0.26725775448E+02  0.00000000000E+00 0.  1.
         23    2    1    2    0    0  0.00000000000E+00  0.00000000000E+00  0.35184088208E+02  0.88635639104E+02  0.81353281780E+02 0.  0.
        -13    1    3    3    0    0 -0.27372758565E+02 -0.14165236594E+01 -0.15153546933E+02  0.31319393918E+02  0.00000000000E+00 0.  1.
         13    1    3    3    0    0  0.27372758565E+02  0.14165236594E+01  0.50337635141E+02  0.57316245186E+02  0.00000000000E+00 0. -1.
<mgrwt>
<rscale>  0 0.81353282E+02</rscale>
<asrwt>0</asrwt>
<pdfrwt beam="1">  1        4 0.95245944E-02 0.81353282E+02</pdfrwt>
<pdfrwt beam="2">  1       -4 0.41116578E-02 0.81353282E+02</pdfrwt>
<totfact> 0.36938130E+04</totfact>
</mgrwt>
</event>
<event>
 5    1  0.6043464E+000  0.9143815E+02  0.7546771E-02  0.1299406E+00
          2   -1    0    0  501    0  0.00000000000E+00  0.00000000000E+00  0.22699637958E+02  0.22699637958E+02  0.00000000000E+00 0. -1.
         -2   -1    0    0    0  501 -0.00000000000E+00 -0.00000000000E+00 -0.92082251321E+02  0.92082251321E+02  0.00000000000E+00 0.  1.
         23    2    1    2    0    0  0.00000000000E+00  0.00000000000E+00 -0.69382613363E+02  0.11478188928E+03  0.91438148874E+02 0.  0.
        -13    1    3    3    0    0 -0.13193553993E+02  0.34096468225E+02 -0.23133811039E+00  0.36560805923E+02  0.00000000000E+00 0. -1.
         13    1    3    3    0    0  0.13193553993E+02 -0.34096468225E+02 -0.69151275252E+02  0.78221083356E+02  0.00000000000E+00 0.  1.
<mgrwt>
<rscale>  0 0.91438149E+02</rscale>
<asrwt>0</asrwt>
<pdfrwt beam="1">  1        2 0.34922519E-02 0.91438149E+02</pdfrwt>
<pdfrwt beam="2">  1       -2 0.14166501E-01 0.91438149E+02</pdfrwt>
<totfact> 0.81185440E+04</totfact>
</mgrwt>
</event>
<event>
 5    1  0.6043464E+000  0.8937505E+02  0.7546771E-02  0.1304372E+00
          1   -1    0    0  501    0  0.00000000000E+00  0.00000000000E+00  0.80822233373E+02  0.80822233373E+02  0.00000000000E+00 0. -1.
         -1   -1    0    0    0  501 -0.00000000000E+00 -0.00000000000E+00 -0.24708238940E+02  0.24708238940E+02  0.00000000000E+00 0.  1.
         23    2    1    2    0    0  0.00000000000E+00  0.00000000000E+00  0.56113994432E+02  0.10553047231E+03  0.89375053653E+02 0.  0.
        -13    1    3    3    0    0 -0.34988390862E+02 -0.12270593842E+01 -0.47350198783E+01  0.35328651023E+02  0.00000000000E+00 0.  1.
         13    1    3    3    0    0  0.34988390862E+02  0.12270593842E+01  0.60849014311E+02  0.70201821290E+02  0.00000000000E+00 0. -1.
<mgrwt>
<rscale>  0 0.89375054E+02</rscale>
<asrwt>0</asrwt>
<pdfrwt beam="1">  1        1 0.12434190E-01 0.89375054E+02</pdfrwt>
<pdfrwt beam="2">  1       -1 0.38012676E-02 0.89375054E+02</pdfrwt>
<totfact> 0.10657474E+05</totfact>
</mgrwt>
</event>
<event>
 5    1  0.6043464E+000  0.9173576E+02  0.7546771E-02  0.1298702E+00
          2   -1    0    0  501    0  0.00000000000E+00  0.00000000000E+00  0.18228457603E+03  0.18228457603E+03  0.00000000000E+00 0. -1.
         -2   -1    0    0    0  501 -0.00000000000E+00 -0.00000000000E+00 -0.11541636250E+02  0.11541636250E+02  0.00000000000E+00 0.  1.
         23    2    1    2    0    0  0.00000000000E+00  0.00000000000E+00  0.17074293978E+03  0.19382621228E+03  0.91735756833E+02 0.  0.
        -13    1    3    3    0    0 -0.39601181998E+01 -0.42589482353E+02  0.12036592328E+03  0.12773997820E+03  0.00000000000E+00 0. -1.
         13    1    3    3    0    0  0.39601181998E+01  0.42589482353E+02  0.50377016493E+02  0.66086234074E+02  0.00000000000E+00 0.  1.
<mgrwt>
<rscale>  0 0.91735757E+02</rscale>
<asrwt>0</asrwt>
<pdfrwt beam="1">  1        2 0.28043779E-01 0.91735757E+02</pdfrwt>
<pdfrwt beam="2">  1       -2 0.17756365E-02 0.91735757E+02</pdfrwt>
<totfact> 0.14716556E+05</totfact>
</mgrwt>
</event>
<event>
 5    1  0.6043464E+000  0.9532002E+02  0.7546771E-02  0.1290457E+00
         -2   -1    0    0    0  501 -0.00000000000E+00  0.00000000000E+00  0.82831172017E+02  0.82831172017E+02  0.00000000000E+00 0.  1.
          2   -1    0    0  501    0  0.00000000000E+00 -0.00000000000E+00 -0.27422967764E+02  0.27422967764E+02  0.00000000000E+00 0. -1.
         23    2    1    2    0    0  0.00000000000E+00  0.00000000000E+00  0.55408204253E+02  0.11025413978E+03  0.95320020143E+02 0.  0.
        -13    1    3    3    0    0  0.35446941110E+02 -0.17247163105E+02 -0.32793417617E+01  0.39556344012E+02  0.00000000000E+00 0. -1.
         13    1    3    3    0    0 -0.35446941110E+02  0.17247163105E+02  0.58687546015E+02  0.70697795768E+02  0.00000000000E+00 0.  1.
<mgrwt>
<rscale>  0 0.95320020E+02</rscale>
<asrwt>0</asrwt>
<pdfrwt beam="2">  1        2 0.42189181E-02 0.95320020E+02</pdfrwt>
<pdfrwt beam="1">  1       -2 0.12743257E-01 0.95320020E+02</pdfrwt>
<totfact> 0.75528658E+04</totfact>
</mgrwt>
</event>
<event>
 5    1  0.6043464E+000  0.9416348E+02  0.7546771E-02  0.1293071E+00
          2   -1    0    0  501    0  0.00000000000E+00  0.00000000000E+00  0.35668451790E+03  0.35668451790E+03  0.00000000000E+00 0. -1.
         -2   -1    0    0    0  501 -0.00000000000E+00 -0.00000000000E+00 -0.62147084551E+01  0.62147084551E+01  0.00000000000E+00 0.  1.
         23    2    1    2    0    0  0.00000000000E+00  0.00000000000E+00  0.35046980944E+03  0.36289922635E+03  0.94163481015E+02 0.  0.
        -13    1    3    3    0    0  0.26480775472E+02 -0.35924379131E+02  0.11743912271E+03  0.12563335556E+03  0.00000000000E+00 0.  1.
         13    1    3    3    0    0 -0.26480775472E+02  0.35924379131E+02  0.23303068673E+03  0.23726587080E+03  0.00000000000E+00 0. -1.
<mgrwt>
<rscale>  0 0.94163481E+02</rscale>
<asrwt>0</asrwt>
<pdfrwt beam="1">  1        2 0.54874525E-01 0.94163481E+02</pdfrwt>
<pdfrwt beam="2">  1       -2 0.95610927E-03 0.94163481E+02</pdfrwt>
<totfact> 0.17574809E+05</totfact>
</mgrwt>
</event>
<event>
 5    1  0.6043464E+000  0.9124683E+02  0.7546771E-02  0.1299860E+00
          3   -1    0    0  501    0  0.00000000000E+00  0.00000000000E+00  0.90881426989E+02  0.90881426989E+02  0.00000000000E+00 0. -1.
         -3   -1    0    0    0  501 -0.00000000000E+00 -0.00000000000E+00 -0.22903427116E+02  0.22903427116E+02  0.00000000000E+00 0.  1.
         23    2    1    2    0    0  0.00000000000E+00  0.00000000000E+00  0.67977999873E+02  0.11378485410E+03  0.91246833133E+02 0.  0.
        -13    1    3    3    0    0 -0.35283156260E+02 -0.28650810529E+02  0.38934120574E+02  0.59846769374E+02  0.00000000000E+00 0. -1.
         13    1    3    3    0    0  0.35283156260E+02  0.28650810529E+02  0.29043879300E+02  0.53938084731E+02  0.00000000000E+00 0.  1.
<mgrwt>
<rscale>  0 0.91246833E+02</rscale>
<asrwt>0</asrwt>
<pdfrwt beam="1">  1        3 0.13981758E-01 0.91246833E+02</pdfrwt>
<pdfrwt beam="2">  1       -3 0.35236042E-02 0.91246833E+02</pdfrwt>
<totfact> 0.33606614E+04</totfact>
</mgrwt>
</event>
<event>
 5    1  0.6043464E+000  0.9807458E+02  0.7546771E-02  0.1284398E+00
         -1   -1    0    0    0  501 -0.00000000000E+00  0.00000000000E+00  0.14424811958E+02  0.14424811958E+02  0.00000000000E+00 0.  1.
          1   -1    0    0  501    0  0.00000000000E+00 -0.00000000000E+00 -0.16670275037E+03  0.16670275037E+03  0.00000000000E+00 0. -1.
         23    2    1    2    0    0  0.00000000000E+00  0.00000000000E+00 -0.15227793841E+03  0.18112756233E+03  0.98074580334E+02 0.  0.
        -13    1    3    3    0    0 -0.37835448010E+02  0.10640449490E+02 -0.13029614162E+03  0.13609491104E+03  0.00000000000E+00 0. -1.
         13    1    3    3    0    0  0.37835448010E+02 -0.10640449490E+02 -0.21981796798E+02  0.45032651287E+02  0.00000000000E+00 0.  1.
<mgrwt>
<rscale>  0 0.98074580E+02</rscale>
<asrwt>0</asrwt>
<pdfrwt beam="2">  1        1 0.25646577E-01 0.98074580E+02</pdfrwt>
<pdfrwt beam="1">  1       -1 0.22192018E-02 0.98074580E+02</pdfrwt>
<totfact> 0.93883634E+04</totfact>
</mgrwt>
</event>
<event>
 5    1  0.6043464E+000  0.8448863E+02  0.7546771E-02  0.1316775E+00
          1   -1    0    0  501    0  0.00000000000E+00  0.00000000000E+00  0.13471292953E+03  0.13471292953E+03  0.00000000000E+00 0. -1.
         -1   -1    0    0    0  501 -0.00000000000E+00 -0.00000000000E+00 -0.13247296859E+02  0.13247296859E+02  0.00000000000E+00 0.  1.
         23    2    1    2    0    0  0.00000000000E+00  0.00000000000E+00  0.12146563267E+03  0.14796022639E+03  0.84488630437E+02 0.  0.
        -13    1    3    3    0    0  0.11101632124E+02 -0.33627950591E+02  0.20397252658E+02  0.40867263338E+02  0.00000000000E+00 0.  1.
         13    1    3    3    0    0 -0.11101632124E+02  0.33627950591E+02  0.10106838001E+03  0.10709296305E+03  0.00000000000E+00 0. -1.
<mgrwt>
<rscale>  0 0.84488630E+02</rscale>
<asrwt>0</asrwt>
<pdfrwt beam="1">  1        1 0.20725065E-01 0.84488630E+02</pdfrwt>
<pdfrwt beam="2">  1       -1 0.20380458E-02 0.84488630E+02</pdfrwt>
<totfact> 0.13497918E+05</totfact>
</mgrwt>
</event>
<event>
 5    1  0.6043464E+000  0.9063532E+02  0.7546771E-02  0.1301320E+00
          2   -1    0    0  501    0  0.00000000000E+00  0.00000000000E+00  0.42739234661E+03  0.42739234661E+03  0.00000000000E+00 0. -1.
         -2   -1    0    0    0  501 -0.00000000000E+00 -0.00000000000E+00 -0.48051640660E+01  0.48051640660E+01  0.00000000000E+00 0.  1.
         23    2    1    2    0    0  0.00000000000E+00  0.00000000000E+00  0.42258718254E+03  0.43219751067E+03  0.90635320842E+02 0.  0.
        -13    1    3    3    0    0  0.58773958149E+01  0.43660035648E+02  0.26197209361E+03  0.26565037234E+03  0.00000000000E+00 0. -1.
         13    1    3    3    0    0 -0.58773958149E+01 -0.43660035648E+02  0.16061508893E+03  0.16654713834E+03  0.00000000000E+00 0.  1.
<mgrwt>
<rscale>  0 0.90635321E+02</rscale>
<asrwt>0</asrwt>
<pdfrwt beam="1">  1        2 0.65752639E-01 0.90635321E+02</pdfrwt>
<pdfrwt beam="2">  1       -2 0.73925635E-03 0.90635321E+02</pdfrwt>
<totfact> 0.20761105E+05</totfact>
</mgrwt>
</event>
<event>
 5    1  0.6043464E+000  0.9335673E+02  0.7546771E-02  0.1294921E+00
          2   -1    0    0  501    0  0.00000000000E+00  0.00000000000E+00  0.14662488523E+02  0.14662488523E+02  0.00000000000E+00 0. -1.
         -2   -1    0    0    0  501 -0.00000000000E+00 -0.00000000000E+00 -0.14860163988E+03  0.14860163988E+03  0.00000000000E+00 0.  1.
         23    2    1    2    0    0  0.00000000000E+00  0.00000000000E+00 -0.13393915136E+03  0.16326412840E+03  0.93356731718E+02 0.  0.
        -13    1    3    3    0    0 -0.35789748074E+02 -0.24761845525E+02 -0.96483461637E+02  0.10584476100E+03  0.00000000000E+00 0.  1.
         13    1    3    3    0    0  0.35789748074E+02  0.24761845525E+02 -0.37455689722E+02  0.57419367408E+02  0.00000000000E+00 0. -1.
<mgrwt>
<rscale>  0 0.93356732E+02</rscale>
<asrwt>0</asrwt>
<pdfrwt beam="1">  1        2 0.22557675E-02 0.93356732E+02</pdfrwt>
<pdfrwt beam="2">  1       -2 0.22861791E-01 0.93356732E+02</pdfrwt>
<totfact> 0.66022047E+04</totfact>
</mgrwt>
</event>
<event>
 5    1  0.6043464E+000  0.9091075E+02  0.7546771E-02  0.1300661E+00
         -1   -1    0    0    0  501 -0.00000000000E+00  0.00000000000E+00  0.52222256104E+02  0.52222256104E+02  0.00000000000E+00 0.  1.
          1   -1    0    0  501    0  0.00000000000E+00 -0.00000000000E+00 -0.39565332671E+02  0.39565332671E+02  0.00000000000E+00 0. -1.
         23    2    1    2    0    0  0.00000000000E+00  0.00000000000E+00  0.12656923433E+02  0.91787588775E+02  0.90910746023E+02 0.  0.
        -13    1    3    3    0    0  0.13487687266E+02  0.19696778410E+02  0.45383723240E+02  0.51279266011E+02  0.00000000000E+00 0.  1.
         13    1    3    3    0    0 -0.13487687266E+02 -0.19696778410E+02 -0.32726799807E+02  0.40508322764E+02  0.00000000000E+00 0. -1.
<mgrwt>
<rscale>  0 0.90910746E+02</rscale>
<asrwt>0</asrwt>
<pdfrwt beam="2">  1        1 0.60869743E-02 0.90910746E+02</pdfrwt>
<pdfrwt beam="1">  1       -1 0.80341932E-02 0.90910746E+02</pdfrwt>
<totfact> 0.91263848E+04</totfact>
</mgrwt>
</event>
<event>
 5    1  0.6043464E+000  0.9111079E+02  0.7546771E-02  0.1300184E+00
          1   -1    0    0  501    0  0.00000000000E+00  0.00000000000E+00  0.72267902316E+02  0.72267902316E+02  0.00000000000E+00 0. -1.
         -1   -1    0    0    0  501 -0.00000000000E+00 -0.00000000000E+00 -0.28716678869E+02  0.28716678869E+02  0.00000000000E+00 0.  1.
         23    2    1    2    0    0  0.00000000000E+00  0.00000000000E+00  0.43551223446E+02  0.10098458118E+03  0.91110792848E+02 0.  0.
        -13    1    3    3    0    0 -0.40026724676E+01 -0.45291285855E+02  0.24905103732E+02  0.51841934312E+02  0.00000000000E+00 0. -1.
         13    1    3    3    0    0  0.40026724676E+01  0.45291285855E+02  0.18646119714E+02  0.49142646873E+02  0.00000000000E+00 0.  1.
<mgrwt>
<rscale>  0 0.91110793E+02</rscale>
<asrwt>0</asrwt>
<pdfrwt beam="1">  1        1 0.11118139E-01 0.91110793E+02</pdfrwt>
<pdfrwt beam="2">  1       -1 0.44179506E-02 0.91110793E+02</pdfrwt>
<totfact> 0.99353298E+04</totfact>
</mgrwt>
</event>
<event>
 5    1  0.6043464E+000  0.9200645E+02  0.7546771E-02  0.1298064E+00
          1   -1    0    0  501    0  0.00000000000E+00  0.00000000000E+00  0.21789445524E+02  0.21789445524E+02  0.00000000000E+00 0. -1.
         -1   -1    0    0    0  501 -0.00000000000E+00 -0.00000000000E+00 -0.97124843731E+02  0.97124843731E+02  0.00000000000E+00 0.  1.
         23    2    1    2    0    0  0.00000000000E+00  0.00000000000E+00 -0.75335398207E+02  0.11891428925E+03  0.92006445241E+02 0.  0.
        -13    1    3    3    0    0  0.20229028129E+02 -0.12581659583E+02  0.13196396320E+02  0.27233373143E+02  0.00000000000E+00 0. -1.
         13    1    3    3    0    0 -0.20229028129E+02  0.12581659583E+02 -0.88531794527E+02  0.91680916112E+02  0.00000000000E+00 0.  1.
<mgrwt>
<rscale>  0 0.92006445E+02</rscale>
<asrwt>0</asrwt>
<pdfrwt beam="1">  1        1 0.33522224E-02 0.92006445E+02</pdfrwt>
<pdfrwt beam="2">  1       -1 0.14942284E-01 0.92006445E+02</pdfrwt>
<totfact> 0.79923224E+04</totfact>
</mgrwt>
</event>
<event>
 5    1  0.6043464E+000  0.9157218E+02  0.7546771E-02  0.1299088E+00
         -2   -1    0    0    0  501 -0.00000000000E+00  0.00000000000E+00  0.26380546684E+02  0.26380546684E+02  0.00000000000E+00 0.  1.
          2   -1    0    0  501    0  0.00000000000E+00 -0.00000000000E+00 -0.79466363157E+02  0.79466363157E+02  0.00000000000E+00 0. -1.
         23    2    1    2    0    0  0.00000000000E+00  0.00000000000E+00 -0.53085816473E+02  0.10584690984E+03  0.91572181432E+02 0.  0.
        -13    1    3    3    0    0  0.36110753982E+02  0.90247513790E+01 -0.57362656442E+02  0.68380604302E+02  0.00000000000E+00 0. -1.
         13    1    3    3    0    0 -0.36110753982E+02 -0.90247513790E+01  0.42768399685E+01  0.37466305539E+02  0.00000000000E+00 0.  1.
<mgrwt>
<rscale>  0 0.91572181E+02</rscale>
<asrwt>0</asrwt>
<pdfrwt beam="2">  1        2 0.12225594E-01 0.91572181E+02</pdfrwt>
<pdfrwt beam="1">  1       -2 0.40585457E-02 0.91572181E+02</pdfrwt>
<totfact> 0.11326381E+05</totfact>
</mgrwt>
</event>
<event>
 5    1  0.6043464E+000  0.9090398E+02  0.7546771E-02  0.1300677E+00
         -1   -1    0    0    0  501 -0.00000000000E+00  0.00000000000E+00  0.11172575974E+03  0.11172575974E+03  0.00000000000E+00 0.  1.
          1   -1    0    0  501    0  0.00000000000E+00 -0.00000000000E+00 -0.18490663443E+02  0.18490663443E+02  0.00000000000E+00 0. -1.
         23    2    1    2    0    0  0.00000000000E+00  0.00000000000E+00  0.93235096298E+02  0.13021642318E+03  0.90903980580E+02 0.  0.
        -13    1    3    3    0    0  0.17924048743E+01  0.34681739997E+02  0.88621834158E+02  0.95183324663E+02  0.00000000000E+00 0.  1.
         13    1    3    3    0    0 -0.17924048743E+01 -0.34681739997E+02  0.46132621403E+01  0.35033098521E+02  0.00000000000E+00 0. -1.
<mgrwt>
<rscale>  0 0.90903981E+02</rscale>
<asrwt>0</asrwt>
<pdfrwt beam="2">  1        1 0.28447175E-02 0.90903981E+02</pdfrwt>
<pdfrwt beam="1">  1       -1 0.17188578E-01 0.90903981E+02</pdfrwt>
<totfact> 0.80282745E+04</totfact>
</mgrwt>
</event>
<event>
 5    1  0.6043464E+000  0.9090420E+02  0.7546771E-02  0.1300677E+00
          1   -1    0    0  501    0  0.00000000000E+00  0.00000000000E+00  0.21715231390E+02  0.21715231390E+02  0.00000000000E+00 0. -1.
         -1   -1    0    0    0  501 -0.00000000000E+00 -0.00000000000E+00 -0.95135686343E+02  0.95135686343E+02  0.00000000000E+00 0.  1.
         23    2    1    2    0    0  0.00000000000E+00  0.00000000000E+00 -0.73420454953E+02  0.11685091773E+03  0.90904201056E+02 0.  0.
        -13    1    3    3    0    0 -0.63605863335E+01  0.15142701394E+02 -0.91187788855E+02  0.92655120206E+02  0.00000000000E+00 0.  1.
         13    1    3    3    0    0  0.63605863335E+01 -0.15142701394E+02  0.17767333902E+02  0.24195797528E+02  0.00000000000E+00 0. -1.
<mgrwt>
<rscale>  0 0.90904201E+02</rscale>
<asrwt>0</asrwt>
<pdfrwt beam="1">  1        1 0.33408049E-02 0.90904201E+02</pdfrwt>
<pdfrwt beam="2">  1       -1 0.14636259E-01 0.90904201E+02</pdfrwt>
<totfact> 0.82754882E+04</totfact>
</mgrwt>
</event>
<event>
 5    1  0.6043464E+000  0.9253323E+02  0.7546771E-02  0.1296831E+00
         -3   -1    0    0    0  501 -0.00000000000E+00  0.00000000000E+00  0.47249580902E+02  0.47249580902E+02  0.00000000000E+00 0.  1.
          3   -1    0    0  501    0  0.00000000000E+00 -0.00000000000E+00 -0.45304096564E+02  0.45304096564E+02  0.00000000000E+00 0. -1.
         23    2    1    2    0    0  0.00000000000E+00  0.00000000000E+00  0.19454843376E+01  0.92553677466E+02  0.92533228103E+02 0.  0.
        -13    1    3    3    0    0 -0.77993311417E+01 -0.10778925066E+02  0.45294889724E+02  0.47208493166E+02  0.00000000000E+00 0.  1.
         13    1    3    3    0    0  0.77993311417E+01  0.10778925066E+02 -0.43349405387E+02  0.45345184300E+02  0.00000000000E+00 0. -1.
<mgrwt>
<rscale>  0 0.92533228E+02</rscale>
<asrwt>0</asrwt>
<pdfrwt beam="2">  1        3 0.69698610E-02 0.92533228E+02</pdfrwt>
<pdfrwt beam="1">  1       -3 0.72691663E-02 0.92533228E+02</pdfrwt>
<totfact> 0.33840183E+04</totfact>
</mgrwt>
</event>
<event>
 5    1  0.6043464E+000  0.8926845E+02  0.7546771E-02  0.1304633E+00
         -2   -1    0    0    0  501 -0.00000000000E+00  0.00000000000E+00  0.49304925436E+02  0.49304925436E+02  0.00000000000E+00 0.  1.
          2   -1    0    0  501    0  0.00000000000E+00 -0.00000000000E+00 -0.40405981588E+02  0.40405981588E+02  0.00000000000E+00 0. -1.
         23    2    1    2    0    0  0.00000000000E+00  0.00000000000E+00  0.88989438477E+01  0.89710907023E+02  0.89268447042E+02 0.  0.
        -13    1    3    3    0    0  0.46588216740E+01 -0.21459844915E+02  0.43500591601E+02  0.48729159984E+02  0.00000000000E+00 0.  1.
         13    1    3    3    0    0 -0.46588216740E+01  0.21459844915E+02 -0.34601647753E+02  0.40981747039E+02  0.00000000000E+00 0. -1.
<mgrwt>
<rscale>  0 0.89268447E+02</rscale>
<asrwt>0</asrwt>
<pdfrwt beam="2">  1        2 0.62163049E-02 0.89268447E+02</pdfrwt>
<pdfrwt beam="1">  1       -2 0.75853732E-02 0.89268447E+02</pdfrwt>
<totfact> 0.10165750E+05</totfact>
</mgrwt>
</event>
<event>
 5    1  0.6043464E+000  0.9118777E+02  0.7546771E-02  0.1300001E+00
         -2   -1    0    0    0  501 -0.00000000000E+00  0.00000000000E+00  0.20502503386E+03  0.20502503386E+03  0.00000000000E+00 0.  1.
          2   -1    0    0  501    0  0.00000000000E+00 -0.00000000000E+00 -0.10139261835E+02  0.10139261835E+02  0.00000000000E+00 0. -1.
         23    2    1    2    0    0  0.00000000000E+00  0.00000000000E+00  0.19488577202E+03  0.21516429569E+03  0.91187773327E+02 0.  0.
        -13    1    3    3    0    0 -0.22739632890E+02  0.27117646752E+02  0.29614067411E+02  0.46145971200E+02  0.00000000000E+00 0. -1.
         13    1    3    3    0    0  0.22739632890E+02 -0.27117646752E+02  0.16527170461E+03  0.16901832450E+03  0.00000000000E+00 0.  1.
<mgrwt>
<rscale>  0 0.91187773E+02</rscale>
<asrwt>0</asrwt>
<pdfrwt beam="2">  1        2 0.15598866E-02 0.91187773E+02</pdfrwt>
<pdfrwt beam="1">  1       -2 0.31542310E-01 0.91187773E+02</pdfrwt>
<totfact> 0.61629179E+04</totfact>
</mgrwt>
</event>
<event>
 5    1  0.6043464E+000  0.6279568E+02  0.7546771E-02  0.1386460E+00
          1   -1    0    0  501    0  0.00000000000E+00  0.00000000000E+00  0.10681094246E+02  0.10681094246E+02  0.00000000000E+00 0. -1.
         -1   -1    0    0    0  501 -0.00000000000E+00 -0.00000000000E+00 -0.92296184205E+02  0.92296184205E+02  0.00000000000E+00 0.  1.
         23    2    1    2    0    0  0.00000000000E+00  0.00000000000E+00 -0.81615089959E+02  0.10297727845E+03  0.62795676349E+02 0.  0.
        -13    1    3    3    0    0  0.18186897946E+02 -0.85215925777E+01 -0.12309388840E+01  0.20122027917E+02  0.00000000000E+00 0. -1.
         13    1    3    3    0    0 -0.18186897946E+02  0.85215925777E+01 -0.80384151075E+02  0.82855250534E+02  0.00000000000E+00 0.  1.
<mgrwt>
<rscale>  0 0.62795676E+02</rscale>
<asrwt>0</asrwt>
<pdfrwt beam="1">  1        1 0.16432454E-02 0.62795676E+02</pdfrwt>
<pdfrwt beam="2">  1       -1 0.14199412E-01 0.62795676E+02</pdfrwt>
<totfact> 0.21350860E+05</totfact>
</mgrwt>
</event>
<event>
 5    1  0.6043464E+000  0.8895009E+02  0.7546771E-02  0.1305414E+00
          3   -1    0    0  501    0  0.00000000000E+00  0.00000000000E+00  0.25726434174E+02  0.25726434174E+02  0.00000000000E+00 0. -1.
         -3   -1    0    0    0  501 -0.00000000000E+00 -0.00000000000E+00 -0.76887051630E+02  0.76887051630E+02  0.00000000000E+00 0.  1.
         23    2    1    2    0    0  0.00000000000E+00  0.00000000000E+00 -0.51160617456E+02  0.10261348580E+03  0.88950091008E+02 0.  0.
        -13    1    3    3    0    0 -0.42064540487E+02  0.12257371053E+02 -0.34393217242E+02  0.55700647247E+02  0.00000000000E+00 0.  1.
         13    1    3    3    0    0  0.42064540487E+02 -0.12257371053E+02 -0.16767400214E+02  0.46912838557E+02  0.00000000000E+00 0. -1.
<mgrwt>
<rscale>  0 0.88950091E+02</rscale>
<asrwt>0</asrwt>
<pdfrwt beam="1">  1        3 0.39579130E-02 0.88950091E+02</pdfrwt>
<pdfrwt beam="2">  1       -3 0.11828777E-01 0.88950091E+02</pdfrwt>
<totfact> 0.36872023E+04</totfact>
</mgrwt>
</event>
<event>
 5    1  0.6043464E+000  0.8979418E+02  0.7546771E-02  0.1303351E+00
          4   -1    0    0  501    0  0.00000000000E+00  0.00000000000E+00  0.15864628055E+02  0.15864628055E+02  0.00000000000E+00 0. -1.
         -4   -1    0    0    0  501 -0.00000000000E+00 -0.00000000000E+00 -0.12705930815E+03  0.12705930815E+03  0.00000000000E+00 0.  1.
         23    2    1    2    0    0  0.00000000000E+00  0.00000000000E+00 -0.11119468009E+03  0.14292393620E+03  0.89794179427E+02 0.  0.
        -13    1    3    3    0    0  0.24097991157E+02 -0.13370198233E+01  0.46610374934E+01  0.24581010360E+02  0.00000000000E+00 0. -1.
         13    1    3    3    0    0 -0.24097991157E+02  0.13370198233E+01 -0.11585571759E+03  0.11834292584E+03  0.00000000000E+00 0.  1.
<mgrwt>
<rscale>  0 0.89794179E+02</rscale>
<asrwt>0</asrwt>
<pdfrwt beam="1">  1        4 0.24407121E-02 0.89794179E+02</pdfrwt>
<pdfrwt beam="2">  1       -4 0.19547585E-01 0.89794179E+02</pdfrwt>
<totfact> 0.25040256E+04</totfact>
</mgrwt>
</event>
<event>
 5    1  0.6043464E+000  0.9090149E+02  0.7546771E-02  0.1300683E+00
          2   -1    0    0  501    0  0.00000000000E+00  0.00000000000E+00  0.20899215935E+03  0.20899215935E+03  0.00000000000E+00 0. -1.
         -2   -1    0    0    0  501 -0.00000000000E+00 -0.00000000000E+00 -0.98844390926E+01  0.98844390926E+01  0.00000000000E+00 0.  1.
         23    2    1    2    0    0  0.00000000000E+00  0.00000000000E+00  0.19910772026E+03  0.21887659844E+03  0.90901491075E+02 0.  0.
        -13    1    3    3    0    0 -0.28203098141E+02 -0.28274958638E+02  0.47304078632E+02  0.61907704577E+02  0.00000000000E+00 0. -1.
         13    1    3    3    0    0  0.28203098141E+02  0.28274958638E+02  0.15180364162E+03  0.15696889386E+03  0.00000000000E+00 0.  1.
<mgrwt>
<rscale>  0 0.90901491E+02</rscale>
<asrwt>0</asrwt>
<pdfrwt beam="1">  1        2 0.32152637E-01 0.90901491E+02</pdfrwt>
<pdfrwt beam="2">  1       -2 0.15206831E-02 0.90901491E+02</pdfrwt>
<totfact> 0.15845073E+05</totfact>
</mgrwt>
</event>
<event>
 5    1  0.6043464E+000  0.9106929E+02  0.7546771E-02  0.1300283E+00
          1   -1    0    0  501    0  0.00000000000E+00  0.00000000000E+00  0.11308763853E+02  0.11308763853E+02  0.00000000000E+00 0.  1.
         -1   -1    0    0    0  501 -0.00000000000E+00 -0.00000000000E+00 -0.18334487243E+03  0.18334487243E+03  0.00000000000E+00 0. -1.
         23    2    1    2    0    0  0.00000000000E+00  0.00000000000E+00 -0.17203610858E+03  0.19465363628E+03  0.91069289356E+02 0.  0.
        -13    1    3    3    0    0 -0.62409245436E+00 -0.38041141773E+02 -0.13949149875E+03  0.14458698483E+03  0.00000000000E+00 0. -1.
         13    1    3    3    0    0  0.62409245436E+00  0.38041141773E+02 -0.32544609825E+02  0.50066651450E+02  0.00000000000E+00 0.  1.
<mgrwt>
<rscale>  0 0.91069289E+02</rscale>
<asrwt>0</asrwt>
<pdfrwt beam="1">  1        1 0.17398099E-02 0.91069289E+02</pdfrwt>
<pdfrwt beam="2">  1       -1 0.28206902E-01 0.91069289E+02</pdfrwt>
<totfact> 0.71337775E+04</totfact>
</mgrwt>
</event>
<event>
 5    1  0.6043464E+000  0.6505692E+02  0.7546771E-02  0.1377758E+00
          4   -1    0    0  501    0  0.00000000000E+00  0.00000000000E+00  0.53360538886E+01  0.53360538886E+01  0.00000000000E+00 0. -1.
         -4   -1    0    0    0  501 -0.00000000000E+00 -0.00000000000E+00 -0.19829270946E+03  0.19829270946E+03  0.00000000000E+00 0.  1.
         23    2    1    2    0    0  0.00000000000E+00  0.00000000000E+00 -0.19295665558E+03  0.20362876335E+03  0.65056916109E+02 0.  0.
        -13    1    3    3    0    0  0.32428146314E+02  0.20975188868E+01 -0.10103173813E+03  0.10612914947E+03  0.00000000000E+00 0.  1.
         13    1    3    3    0    0 -0.32428146314E+02 -0.20975188868E+01 -0.91924917450E+02  0.97499613882E+02  0.00000000000E+00 0. -1.
<mgrwt>
<rscale>  0 0.65056916E+02</rscale>
<asrwt>0</asrwt>
<pdfrwt beam="1">  1        4 0.82093134E-03 0.65056916E+02</pdfrwt>
<pdfrwt beam="2">  1       -4 0.30506572E-01 0.65056916E+02</pdfrwt>
<totfact> 0.51246950E+04</totfact>
</mgrwt>
</event>
<event>
 5    1  0.6043464E+000  0.9234854E+02  0.7546771E-02  0.1297262E+00
          2   -1    0    0  501    0  0.00000000000E+00  0.00000000000E+00  0.14310844599E+03  0.14310844599E+03  0.00000000000E+00 0. -1.
         -2   -1    0    0    0  501 -0.00000000000E+00 -0.00000000000E+00 -0.14898234364E+02  0.14898234364E+02  0.00000000000E+00 0.  1.
         23    2    1    2    0    0  0.00000000000E+00  0.00000000000E+00  0.12821021163E+03  0.15800668036E+03  0.92348539088E+02 0.  0.
        -13    1    3    3    0    0 -0.38220711721E+02 -0.11554989353E+02  0.24429409444E+02  0.46809578392E+02  0.00000000000E+00 0.  1.
         13    1    3    3    0    0  0.38220711721E+02  0.11554989353E+02  0.10378080218E+03  0.11119710196E+03  0.00000000000E+00 0. -1.
<mgrwt>
<rscale>  0 0.92348539E+02</rscale>
<asrwt>0</asrwt>
<pdfrwt beam="1">  1        2 0.22016683E-01 0.92348539E+02</pdfrwt>
<pdfrwt beam="2">  1       -2 0.22920362E-02 0.92348539E+02</pdfrwt>
<totfact> 0.13290143E+05</totfact>
</mgrwt>
</event>
<event>
 5    1  0.6043464E+000  0.8851301E+02  0.7546771E-02  0.1306493E+00
          1   -1    0    0  501    0  0.00000000000E+00  0.00000000000E+00  0.97452383357E+02  0.97452383357E+02  0.00000000000E+00 0. -1.
         -1   -1    0    0    0  501 -0.00000000000E+00 -0.00000000000E+00 -0.20098411916E+02  0.20098411916E+02  0.00000000000E+00 0.  1.
         23    2    1    2    0    0  0.00000000000E+00  0.00000000000E+00  0.77353971441E+02  0.11755079527E+03  0.88513007924E+02 0.  0.
        -13    1    3    3    0    0  0.37169762057E+02  0.16804385284E+02  0.61474040620E+02  0.73776935734E+02  0.00000000000E+00 0. -1.
         13    1    3    3    0    0 -0.37169762057E+02 -0.16804385284E+02  0.15879930821E+02  0.43773859540E+02  0.00000000000E+00 0.  1.
<mgrwt>
<rscale>  0 0.88513008E+02</rscale>
<asrwt>0</asrwt>
<pdfrwt beam="1">  1        1 0.14992674E-01 0.88513008E+02</pdfrwt>
<pdfrwt beam="2">  1       -1 0.30920634E-02 0.88513008E+02</pdfrwt>
<totfact> 0.11274387E+05</totfact>
</mgrwt>
</event>
<event>
 5    1  0.6043464E+000  0.9294970E+02  0.7546771E-02  0.1295862E+00
          2   -1    0    0  501    0  0.00000000000E+00  0.00000000000E+00  0.18823788071E+02  0.18823788071E+02  0.00000000000E+00 0. -1.
         -2   -1    0    0    0  501 -0.00000000000E+00 -0.00000000000E+00 -0.11474373786E+03  0.11474373786E+03  0.00000000000E+00 0.  1.
         23    2    1    2    0    0  0.00000000000E+00  0.00000000000E+00 -0.95919949787E+02  0.13356752593E+03  0.92949702613E+02 0.  0.
        -13    1    3    3    0    0  0.71956473124E+01 -0.32423301249E+02 -0.94675628481E+02  0.10033206084E+03  0.00000000000E+00 0.  1.
         13    1    3    3    0    0 -0.71956473124E+01  0.32423301249E+02 -0.12443213051E+01  0.33235465089E+02  0.00000000000E+00 0. -1.
<mgrwt>
<rscale>  0 0.92949703E+02</rscale>
<asrwt>0</asrwt>
<pdfrwt beam="1">  1        2 0.28959674E-02 0.92949703E+02</pdfrwt>
<pdfrwt beam="2">  1       -2 0.17652883E-01 0.92949703E+02</pdfrwt>
<totfact> 0.72899786E+04</totfact>
</mgrwt>
</event>
<event>
 5    1  0.6043464E+000  0.9143688E+02  0.7546771E-02  0.1299409E+00
         -1   -1    0    0    0  501 -0.00000000000E+00  0.00000000000E+00  0.12803175669E+02  0.12803175669E+02  0.00000000000E+00 0.  1.
          1   -1    0    0  501    0  0.00000000000E+00 -0.00000000000E+00 -0.16325446036E+03  0.16325446036E+03  0.00000000000E+00 0. -1.
         23    2    1    2    0    0  0.00000000000E+00  0.00000000000E+00 -0.15045128469E+03  0.17605763603E+03  0.91436875159E+02 0.  0.
        -13    1    3    3    0    0  0.13161490282E+02 -0.42040485729E+02 -0.98772024280E+02  0.10815054344E+03  0.00000000000E+00 0. -1.
         13    1    3    3    0    0 -0.13161490282E+02  0.42040485729E+02 -0.51679260413E+02  0.67907092587E+02  0.00000000000E+00 0.  1.
<mgrwt>
<rscale>  0 0.91436875E+02</rscale>
<asrwt>0</asrwt>
<pdfrwt beam="2">  1        1 0.25116069E-01 0.91436875E+02</pdfrwt>
<pdfrwt beam="1">  1       -1 0.19697194E-02 0.91436875E+02</pdfrwt>
<totfact> 0.11303611E+05</totfact>
</mgrwt>
</event>
<event>
 5    1  0.6043464E+000  0.9127034E+02  0.7546771E-02  0.1299804E+00
          1   -1    0    0  501    0  0.00000000000E+00  0.00000000000E+00  0.38015809640E+02  0.38015809640E+02  0.00000000000E+00 0. -1.
         -1   -1    0    0    0  501 -0.00000000000E+00 -0.00000000000E+00 -0.54781652409E+02  0.54781652409E+02  0.00000000000E+00 0.  1.
         23    2    1    2    0    0  0.00000000000E+00  0.00000000000E+00 -0.16765842769E+02  0.92797462049E+02  0.91270342823E+02 0.  0.
        -13    1    3    3    0    0 -0.23113127437E+02 -0.35405375475E+02 -0.25840286647E+02  0.49552776778E+02  0.00000000000E+00 0. -1.
         13    1    3    3    0    0  0.23113127437E+02  0.35405375475E+02  0.90744438772E+01  0.43244685271E+02  0.00000000000E+00 0.  1.
<mgrwt>
<rscale>  0 0.91270343E+02</rscale>
<asrwt>0</asrwt>
<pdfrwt beam="1">  1        1 0.58485861E-02 0.91270343E+02</pdfrwt>
<pdfrwt beam="2">  1       -1 0.84279465E-02 0.91270343E+02</pdfrwt>
<totfact> 0.89701877E+04</totfact>
</mgrwt>
</event>
<event>
 5    1  0.6043464E+000  0.9302732E+02  0.7546771E-02  0.1295682E+00
         -1   -1    0    0    0  501 -0.00000000000E+00  0.00000000000E+00  0.34532347595E+02  0.34532347595E+02  0.00000000000E+00 0.  1.
          1   -1    0    0  501    0  0.00000000000E+00 -0.00000000000E+00 -0.62651994470E+02  0.62651994470E+02  0.00000000000E+00 0. -1.
         23    2    1    2    0    0  0.00000000000E+00  0.00000000000E+00 -0.28119646875E+02  0.97184342065E+02  0.93027317506E+02 0.  0.
        -13    1    3    3    0    0  0.35043193530E+02  0.12751084896E+02 -0.43103314856E+02  0.56995713263E+02  0.00000000000E+00 0. -1.
         13    1    3    3    0    0 -0.35043193530E+02 -0.12751084896E+02  0.14983667981E+02  0.40188628802E+02  0.00000000000E+00 0.  1.
<mgrwt>
<rscale>  0 0.93027318E+02</rscale>
<asrwt>0</asrwt>
<pdfrwt beam="2">  1        1 0.96387684E-02 0.93027318E+02</pdfrwt>
<pdfrwt beam="1">  1       -1 0.53126689E-02 0.93027318E+02</pdfrwt>
<totfact> 0.91743240E+04</totfact>
</mgrwt>
</event>
<event>
 5    1  0.6043464E+000  0.9070902E+02  0.7546771E-02  0.1301144E+00
          1   -1    0    0  501    0  0.00000000000E+00  0.00000000000E+00  0.39627961187E+02  0.39627961187E+02  0.00000000000E+00 0. -1.
         -1   -1    0    0    0  501 -0.00000000000E+00 -0.00000000000E+00 -0.51908584791E+02  0.51908584791E+02  0.00000000000E+00 0.  1.
         23    2    1    2    0    0  0.00000000000E+00  0.00000000000E+00 -0.12280623604E+02  0.91536545978E+02  0.90709015723E+02 0.  0.
        -13    1    3    3    0    0 -0.25559627438E+01  0.26801703899E+02  0.30691528528E+02  0.40826880861E+02  0.00000000000E+00 0. -1.
         13    1    3    3    0    0  0.25559627438E+01 -0.26801703899E+02 -0.42972152133E+02  0.50709665118E+02  0.00000000000E+00 0.  1.
<mgrwt>
<rscale>  0 0.90709016E+02</rscale>
<asrwt>0</asrwt>
<pdfrwt beam="1">  1        1 0.60966094E-02 0.90709016E+02</pdfrwt>
<pdfrwt beam="2">  1       -1 0.79859361E-02 0.90709016E+02</pdfrwt>
<totfact> 0.91859664E+04</totfact>
</mgrwt>
</event>
<event>
 5    1  0.6043464E+000  0.9166257E+02  0.7546771E-02  0.1298875E+00
         -3   -1    0    0    0  501 -0.00000000000E+00  0.00000000000E+00  0.14383379898E+03  0.14383379898E+03  0.00000000000E+00 0.  1.
          3   -1    0    0  501    0  0.00000000000E+00 -0.00000000000E+00 -0.14603707785E+02  0.14603707785E+02  0.00000000000E+00 0. -1.
         23    2    1    2    0    0  0.00000000000E+00  0.00000000000E+00  0.12923009119E+03  0.15843750676E+03  0.91662571856E+02 0.  0.
        -13    1    3    3    0    0 -0.31956537441E+02  0.27997900063E+02  0.94323099506E+02  0.10345022858E+03  0.00000000000E+00 0.  1.
         13    1    3    3    0    0  0.31956537441E+02 -0.27997900063E+02  0.34906991687E+02  0.54987278181E+02  0.00000000000E+00 0. -1.
<mgrwt>
<rscale>  0 0.91662572E+02</rscale>
<asrwt>0</asrwt>
<pdfrwt beam="2">  1        3 0.22467244E-02 0.91662572E+02</pdfrwt>
<pdfrwt beam="1">  1       -3 0.22128276E-01 0.91662572E+02</pdfrwt>
<totfact> 0.30358958E+04</totfact>
</mgrwt>
</event>
<event>
 5    1  0.6043464E+000  0.8785118E+02  0.7546771E-02  0.1308140E+00
          3   -1    0    0  501    0  0.00000000000E+00  0.00000000000E+00  0.19321370642E+02  0.19321370642E+02  0.00000000000E+00 0. -1.
         -3   -1    0    0    0  501 -0.00000000000E+00 -0.00000000000E+00 -0.99861309991E+02  0.99861309991E+02  0.00000000000E+00 0.  1.
         23    2    1    2    0    0  0.00000000000E+00  0.00000000000E+00 -0.80539939349E+02  0.11918268063E+03  0.87851178323E+02 0.  0.
        -13    1    3    3    0    0 -0.36375025659E+02  0.24337483448E+02 -0.35193551949E+02  0.56160855505E+02  0.00000000000E+00 0.  1.
         13    1    3    3    0    0  0.36375025659E+02 -0.24337483448E+02 -0.45346387400E+02  0.63021825128E+02  0.00000000000E+00 0. -1.
<mgrwt>
<rscale>  0 0.87851178E+02</rscale>
<asrwt>0</asrwt>
<pdfrwt beam="1">  1        3 0.29725185E-02 0.87851178E+02</pdfrwt>
<pdfrwt beam="2">  1       -3 0.15363279E-01 0.87851178E+02</pdfrwt>
<totfact> 0.36827070E+04</totfact>
</mgrwt>
</event>
<event>
 5    1  0.6043464E+000  0.8790319E+02  0.7546771E-02  0.1308010E+00
          1   -1    0    0  501    0  0.00000000000E+00  0.00000000000E+00  0.20964543458E+03  0.20964543458E+03  0.00000000000E+00 0. -1.
         -1   -1    0    0    0  501 -0.00000000000E+00 -0.00000000000E+00 -0.92143332143E+01  0.92143332143E+01  0.00000000000E+00 0.  1.
         23    2    1    2    0    0  0.00000000000E+00  0.00000000000E+00  0.20043110137E+03  0.21885976779E+03  0.87903194278E+02 0.  0.
        -13    1    3    3    0    0 -0.16002792990E+02  0.39303561580E+02  0.71731364360E+02  0.83344153780E+02  0.00000000000E+00 0.  1.
         13    1    3    3    0    0  0.16002792990E+02 -0.39303561580E+02  0.12869973701E+03  0.13551561402E+03  0.00000000000E+00 0. -1.
<mgrwt>
<rscale>  0 0.87903194E+02</rscale>
<asrwt>0</asrwt>
<pdfrwt beam="1">  1        1 0.32253140E-01 0.87903194E+02</pdfrwt>
<pdfrwt beam="2">  1       -1 0.14175899E-02 0.87903194E+02</pdfrwt>
<totfact> 0.13176156E+05</totfact>
</mgrwt>
</event>
<event>
 5    1  0.6043464E+000  0.9169319E+02  0.7546771E-02  0.1298802E+00
         -1   -1    0    0    0  501 -0.00000000000E+00  0.00000000000E+00  0.89804950808E+01  0.89804950808E+01  0.00000000000E+00 0.  1.
          1   -1    0    0  501    0  0.00000000000E+00 -0.00000000000E+00 -0.23405283965E+03  0.23405283965E+03  0.00000000000E+00 0. -1.
         23    2    1    2    0    0  0.00000000000E+00  0.00000000000E+00 -0.22507234457E+03  0.24303333473E+03  0.91693192226E+02 0.  0.
        -13    1    3    3    0    0 -0.27126169818E+02 -0.33508874307E+02 -0.71198764302E+02  0.83234234450E+02  0.00000000000E+00 0.  1.
         13    1    3    3    0    0  0.27126169818E+02  0.33508874307E+02 -0.15387358027E+03  0.15979910028E+03  0.00000000000E+00 0. -1.
<mgrwt>
<rscale>  0 0.91693192E+02</rscale>
<asrwt>0</asrwt>
<pdfrwt beam="2">  1        1 0.36008124E-01 0.91693192E+02</pdfrwt>
<pdfrwt beam="1">  1       -1 0.13816148E-02 0.91693192E+02</pdfrwt>
<totfact> 0.12025868E+05</totfact>
</mgrwt>
</event>
<event>
 5    1  0.6043464E+000  0.9040932E+02  0.7546771E-02  0.1301863E+00
          1   -1    0    0  501    0  0.00000000000E+00  0.00000000000E+00  0.92750773846E+01  0.92750773846E+01  0.00000000000E+00 0. -1.
         -1   -1    0    0    0  501 -0.00000000000E+00 -0.00000000000E+00 -0.22031744423E+03  0.22031744423E+03  0.00000000000E+00 0.  1.
         23    2    1    2    0    0  0.00000000000E+00  0.00000000000E+00 -0.21104236684E+03  0.22959252161E+03  0.90409321298E+02 0.  0.
        -13    1    3    3    0    0  0.30090867097E+02 -0.33461009526E+02 -0.11640304949E+03  0.12479891575E+03  0.00000000000E+00 0.  1.
         13    1    3    3    0    0 -0.30090867097E+02  0.33461009526E+02 -0.94639317351E+02  0.10479360586E+03  0.00000000000E+00 0. -1.
<mgrwt>
<rscale>  0 0.90409321E+02</rscale>
<asrwt>0</asrwt>
<pdfrwt beam="1">  1        1 0.14269350E-02 0.90409321E+02</pdfrwt>
<pdfrwt beam="2">  1       -1 0.33894992E-01 0.90409321E+02</pdfrwt>
<totfact> 0.68964115E+04</totfact>
</mgrwt>
</event>
<event>
 5    1  0.6043464E+000  0.9050088E+02  0.7546771E-02  0.1301643E+00
          2   -1    0    0  501    0  0.00000000000E+00  0.00000000000E+00  0.77100688864E+01  0.77100688864E+01  0.00000000000E+00 0. -1.
         -2   -1    0    0    0  501 -0.00000000000E+00 -0.00000000000E+00 -0.26557509492E+03  0.26557509492E+03  0.00000000000E+00 0.  1.
         23    2    1    2    0    0  0.00000000000E+00  0.00000000000E+00 -0.25786502603E+03  0.27328516380E+03  0.90500879030E+02 0.  0.
        -13    1    3    3    0    0 -0.40299826640E+02  0.91845966034E+01 -0.73320116418E+02  0.84168119342E+02  0.00000000000E+00 0. -1.
         13    1    3    3    0    0  0.40299826640E+02 -0.91845966034E+01 -0.18454490961E+03  0.18911704446E+03  0.00000000000E+00 0.  1.
<mgrwt>
<rscale>  0 0.90500879E+02</rscale>
<asrwt>0</asrwt>
<pdfrwt beam="1">  1        2 0.11861644E-02 0.90500879E+02</pdfrwt>
<pdfrwt beam="2">  1       -2 0.40857708E-01 0.90500879E+02</pdfrwt>
<totfact> 0.55525644E+04</totfact>
</mgrwt>
</event>
<event>
 5    1  0.6043464E+000  0.8970903E+02  0.7546771E-02  0.1303558E+00
          2   -1    0    0  501    0  0.00000000000E+00  0.00000000000E+00  0.77165563593E+01  0.77165563593E+01  0.00000000000E+00 0.  1.
         -2   -1    0    0    0  501 -0.00000000000E+00 -0.00000000000E+00 -0.26072866059E+03  0.26072866059E+03  0.00000000000E+00 0. -1.
         23    2    1    2    0    0  0.00000000000E+00  0.00000000000E+00 -0.25301210424E+03  0.26844521695E+03  0.89709027505E+02 0.  0.
        -13    1    3    3    0    0  0.12794557658E+02 -0.34382636108E+02 -0.20373436275E+03  0.20701100680E+03  0.00000000000E+00 0. -1.
         13    1    3    3    0    0 -0.12794557658E+02  0.34382636108E+02 -0.49277741490E+02  0.61434210158E+02  0.00000000000E+00 0.  1.
<mgrwt>
<rscale>  0 0.89709028E+02</rscale>
<asrwt>0</asrwt>
<pdfrwt beam="1">  1        2 0.11871626E-02 0.89709028E+02</pdfrwt>
<pdfrwt beam="2">  1       -2 0.40112098E-01 0.89709028E+02</pdfrwt>
<totfact> 0.57333885E+04</totfact>
</mgrwt>
</event>
<event>
 5    1  0.6043464E+000  0.9423766E+02  0.7546771E-02  0.1292902E+00
          3   -1    0    0  501    0  0.00000000000E+00  0.00000000000E+00  0.21626608707E+02  0.21626608707E+02  0.00000000000E+00 0. -1.
         -3   -1    0    0    0  501 -0.00000000000E+00 -0.00000000000E+00 -0.10265982886E+03  0.10265982886E+03  0.00000000000E+00 0.  1.
         23    2    1    2    0    0  0.00000000000E+00  0.00000000000E+00 -0.81033220151E+02  0.12428643757E+03  0.94237655928E+02 0.  0.
        -13    1    3    3    0    0  0.33512888617E+02 -0.86297555127E+01 -0.82691275133E+02  0.89640578795E+02  0.00000000000E+00 0.  1.
         13    1    3    3    0    0 -0.33512888617E+02  0.86297555127E+01  0.16580549816E+01  0.34645858771E+02  0.00000000000E+00 0. -1.
<mgrwt>
<rscale>  0 0.94237656E+02</rscale>
<asrwt>0</asrwt>
<pdfrwt beam="1">  1        3 0.33271705E-02 0.94237656E+02</pdfrwt>
<pdfrwt beam="2">  1       -3 0.15793820E-01 0.94237656E+02</pdfrwt>
<totfact> 0.30122251E+04</totfact>
</mgrwt>
</event>
<event>
 5    1  0.6043464E+000  0.8157627E+02  0.7546771E-02  0.1324637E+00
         -4   -1    0    0    0  501 -0.00000000000E+00  0.00000000000E+00  0.36364596293E+03  0.36364596293E+03  0.00000000000E+00 0.  1.
          4   -1    0    0  501    0  0.00000000000E+00 -0.00000000000E+00 -0.45749774079E+01  0.45749774079E+01  0.00000000000E+00 0. -1.
         23    2    1    2    0    0  0.00000000000E+00  0.00000000000E+00  0.35907098552E+03  0.36822094034E+03  0.81576272650E+02 0.  0.
        -13    1    3    3    0    0 -0.34020790111E+02  0.22373596204E+02  0.16877771574E+03  0.17362001410E+03  0.00000000000E+00 0.  1.
         13    1    3    3    0    0  0.34020790111E+02 -0.22373596204E+02  0.19029326978E+03  0.19460092623E+03  0.00000000000E+00 0. -1.
<mgrwt>
<rscale>  0 0.81576273E+02</rscale>
<asrwt>0</asrwt>
<pdfrwt beam="2">  1        4 0.70384296E-03 0.81576273E+02</pdfrwt>
<pdfrwt beam="1">  1       -4 0.55945510E-01 0.81576273E+02</pdfrwt>
<totfact> 0.21327832E+04</totfact>
</mgrwt>
</event>
<event>
 5    1  0.6043464E+000  0.9249173E+02  0.7546771E-02  0.1296927E+00
          2   -1    0    0  501    0  0.00000000000E+00  0.00000000000E+00  0.54404445965E+01  0.54404445965E+01  0.00000000000E+00 0. -1.
         -2   -1    0    0    0  501 -0.00000000000E+00 -0.00000000000E+00 -0.39310761947E+03  0.39310761947E+03  0.00000000000E+00 0.  1.
         23    2    1    2    0    0  0.00000000000E+00  0.00000000000E+00 -0.38766717487E+03  0.39854806406E+03  0.92491734207E+02 0.  0.
        -13    1    3    3    0    0 -0.44346223419E+02 -0.22662912888E+01 -0.13815610382E+03  0.14511661735E+03  0.00000000000E+00 0.  1.
         13    1    3    3    0    0  0.44346223419E+02  0.22662912888E+01 -0.24951107105E+03  0.25343144671E+03  0.00000000000E+00 0. -1.
<mgrwt>
<rscale>  0 0.92491734E+02</rscale>
<asrwt>0</asrwt>
<pdfrwt beam="1">  1        2 0.83699099E-03 0.92491734E+02</pdfrwt>
<pdfrwt beam="2">  1       -2 0.60478130E-01 0.92491734E+02</pdfrwt>
<totfact> 0.41623717E+04</totfact>
</mgrwt>
</event>
<event>
 5    1  0.6043464E+000  0.9085611E+02  0.7546771E-02  0.1300792E+00
         -1   -1    0    0    0  501 -0.00000000000E+00  0.00000000000E+00  0.16405340254E+03  0.16405340254E+03  0.00000000000E+00 0.  1.
          1   -1    0    0  501    0  0.00000000000E+00 -0.00000000000E+00 -0.12579488924E+02  0.12579488924E+02  0.00000000000E+00 0. -1.
         23    2    1    2    0    0  0.00000000000E+00  0.00000000000E+00  0.15147391362E+03  0.17663289147E+03  0.90856105138E+02 0.  0.
        -13    1    3    3    0    0 -0.41800567805E+02 -0.61835844147E+01  0.10816220891E+03  0.11612315712E+03  0.00000000000E+00 0.  1.
         13    1    3    3    0    0  0.41800567805E+02  0.61835844147E+01  0.43311704713E+02  0.60509734343E+02  0.00000000000E+00 0. -1.
<mgrwt>
<rscale>  0 0.90856105E+02</rscale>
<asrwt>0</asrwt>
<pdfrwt beam="2">  1        1 0.19353061E-02 0.90856105E+02</pdfrwt>
<pdfrwt beam="1">  1       -1 0.25238983E-01 0.90856105E+02</pdfrwt>
<totfact> 0.73863919E+04</totfact>
</mgrwt>
</event>
<event>
 5    1  0.6043464E+000  0.6590217E+02  0.7546771E-02  0.1374610E+00
          1   -1    0    0  501    0  0.00000000000E+00  0.00000000000E+00  0.34862774148E+02  0.34862774148E+02  0.00000000000E+00 0. -1.
         -1   -1    0    0    0  501 -0.00000000000E+00 -0.00000000000E+00 -0.31144227026E+02  0.31144227026E+02  0.00000000000E+00 0.  1.
         23    2    1    2    0    0  0.00000000000E+00  0.00000000000E+00  0.37185471217E+01  0.66007001174E+02  0.65902174557E+02 0.  0.
        -13    1    3    3    0    0 -0.27188336755E+02  0.10253673676E+02  0.17422028546E+02  0.33880238459E+02  0.00000000000E+00 0. -1.
         13    1    3    3    0    0  0.27188336755E+02 -0.10253673676E+02 -0.13703481425E+02  0.32126762715E+02  0.00000000000E+00 0.  1.
<mgrwt>
<rscale>  0 0.65902175E+02</rscale>
<asrwt>0</asrwt>
<pdfrwt beam="1">  1        1 0.53635037E-02 0.65902175E+02</pdfrwt>
<pdfrwt beam="2">  1       -1 0.47914195E-02 0.65902175E+02</pdfrwt>
<totfact> 0.21783014E+05</totfact>
</mgrwt>
</event>
<event>
 5    1  0.6043464E+000  0.9014727E+02  0.7546771E-02  0.1302495E+00
          4   -1    0    0  501    0  0.00000000000E+00  0.00000000000E+00  0.50722124281E+02  0.50722124281E+02  0.00000000000E+00 0. -1.
         -4   -1    0    0    0  501 -0.00000000000E+00 -0.00000000000E+00 -0.40054167057E+02  0.40054167057E+02  0.00000000000E+00 0.  1.
         23    2    1    2    0    0  0.00000000000E+00  0.00000000000E+00  0.10667957224E+02  0.90776291338E+02  0.90147267056E+02 0.  0.
        -13    1    3    3    0    0 -0.25565429086E+02 -0.35606112508E+02 -0.52390971641E+01  0.44145606252E+02  0.00000000000E+00 0. -1.
         13    1    3    3    0    0  0.25565429086E+02  0.35606112508E+02  0.15907054388E+02  0.46630685086E+02  0.00000000000E+00 0.  1.
<mgrwt>
<rscale>  0 0.90147267E+02</rscale>
<asrwt>0</asrwt>
<pdfrwt beam="1">  1        4 0.78034038E-02 0.90147267E+02</pdfrwt>
<pdfrwt beam="2">  1       -4 0.61621795E-02 0.90147267E+02</pdfrwt>
<totfact> 0.27887145E+04</totfact>
</mgrwt>
</event>
<event>
 5    1  0.6043464E+000  0.9275199E+02  0.7546771E-02  0.1296321E+00
          1   -1    0    0  501    0  0.00000000000E+00  0.00000000000E+00  0.56288722183E+02  0.56288722183E+02  0.00000000000E+00 0. -1.
         -1   -1    0    0    0  501 -0.00000000000E+00 -0.00000000000E+00 -0.38208950835E+02  0.38208950835E+02  0.00000000000E+00 0.  1.
         23    2    1    2    0    0  0.00000000000E+00  0.00000000000E+00  0.18079771347E+02  0.94497673018E+02  0.92751992291E+02 0.  0.
        -13    1    3    3    0    0 -0.36924965339E+02  0.12123626184E+02 -0.16740464871E+02  0.42316409834E+02  0.00000000000E+00 0.  1.
         13    1    3    3    0    0  0.36924965339E+02 -0.12123626184E+02  0.34820236219E+02  0.52181263184E+02  0.00000000000E+00 0. -1.
<mgrwt>
<rscale>  0 0.92751992E+02</rscale>
<asrwt>0</asrwt>
<pdfrwt beam="1">  1        1 0.86598034E-02 0.92751992E+02</pdfrwt>
<pdfrwt beam="2">  1       -1 0.58783002E-02 0.92751992E+02</pdfrwt>
<totfact> 0.90997555E+04</totfact>
</mgrwt>
</event>
<event>
 5    1  0.6043464E+000  0.9174766E+02  0.7546771E-02  0.1298674E+00
         -3   -1    0    0    0  501 -0.00000000000E+00  0.00000000000E+00  0.33767526512E+02  0.33767526512E+02  0.00000000000E+00 0.  1.
          3   -1    0    0  501    0  0.00000000000E+00 -0.00000000000E+00 -0.62320474364E+02  0.62320474364E+02  0.00000000000E+00 0. -1.
         23    2    1    2    0    0  0.00000000000E+00  0.00000000000E+00 -0.28552947852E+02  0.96088000875E+02  0.91747659813E+02 0.  0.
        -13    1    3    3    0    0  0.28875639327E+02 -0.26863442008E+02  0.10261855367E+02  0.40752334150E+02  0.00000000000E+00 0.  1.
         13    1    3    3    0    0 -0.28875639327E+02  0.26863442008E+02 -0.38814803219E+02  0.55335666726E+02  0.00000000000E+00 0. -1.
<mgrwt>
<rscale>  0 0.91747660E+02</rscale>
<asrwt>0</asrwt>
<pdfrwt beam="2">  1        3 0.95877652E-02 0.91747660E+02</pdfrwt>
<pdfrwt beam="1">  1       -3 0.51950041E-02 0.91747660E+02</pdfrwt>
<totfact> 0.34373566E+04</totfact>
</mgrwt>
</event>
<event>
 5    1  0.6043464E+000  0.9086121E+02  0.7546771E-02  0.1300779E+00
          4   -1    0    0  501    0  0.00000000000E+00  0.00000000000E+00  0.18603471433E+02  0.18603471433E+02  0.00000000000E+00 0. -1.
         -4   -1    0    0    0  501 -0.00000000000E+00 -0.00000000000E+00 -0.11094380137E+03  0.11094380137E+03  0.00000000000E+00 0.  1.
         23    2    1    2    0    0  0.00000000000E+00  0.00000000000E+00 -0.92340329933E+02  0.12954727280E+03  0.90861209311E+02 0.  0.
        -13    1    3    3    0    0  0.24259885446E+02  0.26847902294E+02 -0.85335756654E+02  0.92690578071E+02  0.00000000000E+00 0.  1.
         13    1    3    3    0    0 -0.24259885446E+02 -0.26847902294E+02 -0.70045732790E+01  0.36856694728E+02  0.00000000000E+00 0. -1.
<mgrwt>
<rscale>  0 0.90861209E+02</rscale>
<asrwt>0</asrwt>
<pdfrwt beam="1">  1        4 0.28620725E-02 0.90861209E+02</pdfrwt>
<pdfrwt beam="2">  1       -4 0.17068277E-01 0.90861209E+02</pdfrwt>
<totfact> 0.24974902E+04</totfact>
</mgrwt>
</event>
<event>
 5    1  0.6043464E+000  0.9290323E+02  0.7546771E-02  0.1295970E+00
          1   -1    0    0  501    0  0.00000000000E+00  0.00000000000E+00  0.82007520585E+01  0.82007520585E+01  0.00000000000E+00 0. -1.
         -1   -1    0    0    0  501 -0.00000000000E+00 -0.00000000000E+00 -0.26311639997E+03  0.26311639997E+03  0.00000000000E+00 0.  1.
         23    2    1    2    0    0  0.00000000000E+00  0.00000000000E+00 -0.25491564791E+03  0.27131715202E+03  0.92903226180E+02 0.  0.
        -13    1    3    3    0    0  0.34883311188E+02 -0.30227430899E+02 -0.14269153735E+03  0.14997138997E+03  0.00000000000E+00 0.  1.
         13    1    3    3    0    0 -0.34883311188E+02  0.30227430899E+02 -0.11222411056E+03  0.12134576206E+03  0.00000000000E+00 0. -1.
<mgrwt>
<rscale>  0 0.92903226E+02</rscale>
<asrwt>0</asrwt>
<pdfrwt beam="1">  1        1 0.12616543E-02 0.92903226E+02</pdfrwt>
<pdfrwt beam="2">  1       -1 0.40479442E-01 0.92903226E+02</pdfrwt>
<totfact> 0.60581401E+04</totfact>
</mgrwt>
</event>
<event>
 5    1  0.6043464E+000  0.8988432E+02  0.7546771E-02  0.1303132E+00
          2   -1    0    0  501    0  0.00000000000E+00  0.00000000000E+00  0.19192759593E+02  0.19192759593E+02  0.00000000000E+00 0. -1.
         -2   -1    0    0    0  501 -0.00000000000E+00 -0.00000000000E+00 -0.10523747364E+03  0.10523747364E+03  0.00000000000E+00 0.  1.
         23    2    1    2    0    0  0.00000000000E+00  0.00000000000E+00 -0.86044714051E+02  0.12443023324E+03  0.89884315247E+02 0.  0.
        -13    1    3    3    0    0 -0.41811740333E+02  0.14676498385E+02 -0.53398084506E+02  0.69390032883E+02  0.00000000000E+00 0. -1.
         13    1    3    3    0    0  0.41811740333E+02 -0.14676498385E+02 -0.32646629544E+02  0.55040200355E+02  0.00000000000E+00 0.  1.
<mgrwt>
<rscale>  0 0.89884315E+02</rscale>
<asrwt>0</asrwt>
<pdfrwt beam="1">  1        2 0.29527323E-02 0.89884315E+02</pdfrwt>
<pdfrwt beam="2">  1       -2 0.16190380E-01 0.89884315E+02</pdfrwt>
<totfact> 0.81434999E+04</totfact>
</mgrwt>
</event>
<event>
 5    1  0.6043464E+000  0.9556484E+02  0.7546771E-02  0.1289909E+00
         -2   -1    0    0    0  501 -0.00000000000E+00  0.00000000000E+00  0.21713397081E+03  0.21713397081E+03  0.00000000000E+00 0.  1.
          2   -1    0    0  501    0  0.00000000000E+00 -0.00000000000E+00 -0.10514980693E+02  0.10514980693E+02  0.00000000000E+00 0. -1.
         23    2    1    2    0    0  0.00000000000E+00  0.00000000000E+00  0.20661899012E+03  0.22764895150E+03  0.95564836858E+02 0.  0.
        -13    1    3    3    0    0  0.16504611061E+01  0.47599436097E+02  0.11245182106E+03  0.12212224367E+03  0.00000000000E+00 0.  1.
         13    1    3    3    0    0 -0.16504611061E+01 -0.47599436097E+02  0.94167169054E+02  0.10552670783E+03  0.00000000000E+00 0. -1.
<mgrwt>
<rscale>  0 0.95564837E+02</rscale>
<asrwt>0</asrwt>
<pdfrwt beam="2">  1        2 0.16176895E-02 0.95564837E+02</pdfrwt>
<pdfrwt beam="1">  1       -2 0.33405223E-01 0.95564837E+02</pdfrwt>
<totfact> 0.53266042E+04</totfact>
</mgrwt>
</event>
<event>
 5    1  0.6043464E+000  0.8387708E+02  0.7546771E-02  0.1318395E+00
          1   -1    0    0  501    0  0.00000000000E+00  0.00000000000E+00  0.13099707520E+02  0.13099707520E+02  0.00000000000E+00 0. -1.
         -1   -1    0    0    0  501 -0.00000000000E+00 -0.00000000000E+00 -0.13426569056E+03  0.13426569056E+03  0.00000000000E+00 0.  1.
         23    2    1    2    0    0  0.00000000000E+00  0.00000000000E+00 -0.12116598304E+03  0.14736539808E+03  0.83877083315E+02 0.  0.
        -13    1    3    3    0    0  0.12853780401E+02  0.31170875739E+02 -0.10440040466E+03  0.10971001622E+03  0.00000000000E+00 0.  1.
         13    1    3    3    0    0 -0.12853780401E+02 -0.31170875739E+02 -0.16765578380E+02  0.37655381865E+02  0.00000000000E+00 0. -1.
<mgrwt>
<rscale>  0 0.83877083E+02</rscale>
<asrwt>0</asrwt>
<pdfrwt beam="1">  1        1 0.20153397E-02 0.83877083E+02</pdfrwt>
<pdfrwt beam="2">  1       -1 0.20656259E-01 0.83877083E+02</pdfrwt>
<totfact> 0.95139262E+04</totfact>
</mgrwt>
</event>
<event>
 5    1  0.6043464E+000  0.8543344E+02  0.7546771E-02  0.1314303E+00
          1   -1    0    0  501    0  0.00000000000E+00  0.00000000000E+00  0.61573699743E+02  0.61573699743E+02  0.00000000000E+00 0. -1.
         -1   -1    0    0    0  501 -0.00000000000E+00 -0.00000000000E+00 -0.29634699536E+02  0.29634699536E+02  0.00000000000E+00 0.  1.
         23    2    1    2    0    0  0.00000000000E+00  0.00000000000E+00  0.31939000207E+02  0.91208399279E+02  0.85433438212E+02 0.  0.
        -13    1    3    3    0    0 -0.24547271935E+02 -0.34060556136E+02  0.24377660821E+02  0.48548536444E+02  0.00000000000E+00 0. -1.
         13    1    3    3    0    0  0.24547271935E+02  0.34060556136E+02  0.75613393860E+01  0.42659862835E+02  0.00000000000E+00 0.  1.
<mgrwt>
<rscale>  0 0.85433438E+02</rscale>
<asrwt>0</asrwt>
<pdfrwt beam="1">  1        1 0.94728769E-02 0.85433438E+02</pdfrwt>
<pdfrwt beam="2">  1       -1 0.45591845E-02 0.85433438E+02</pdfrwt>
<totfact> 0.11574841E+05</totfact>
</mgrwt>
</event>
<event>
 5    1  0.6043464E+000  0.9185262E+02  0.7546771E-02  0.1298426E+00
         -1   -1    0    0    0  501 -0.00000000000E+00  0.00000000000E+00  0.18936082333E+02  0.18936082333E+02  0.00000000000E+00 0.  1.
          1   -1    0    0  501    0  0.00000000000E+00 -0.00000000000E+00 -0.11138659507E+03  0.11138659507E+03  0.00000000000E+00 0. -1.
         23    2    1    2    0    0  0.00000000000E+00  0.00000000000E+00 -0.92450512739E+02  0.13032267740E+03  0.91852615314E+02 0.  0.
        -13    1    3    3    0    0 -0.27745105212E+02  0.33134850372E+02 -0.24175594865E+02  0.49519375597E+02  0.00000000000E+00 0. -1.
         13    1    3    3    0    0  0.27745105212E+02 -0.33134850372E+02 -0.68274917874E+02  0.80803301808E+02  0.00000000000E+00 0.  1.
<mgrwt>
<rscale>  0 0.91852615E+02</rscale>
<asrwt>0</asrwt>
<pdfrwt beam="2">  1        1 0.17136399E-01 0.91852615E+02</pdfrwt>
<pdfrwt beam="1">  1       -1 0.29132435E-02 0.91852615E+02</pdfrwt>
<totfact> 0.10425033E+05</totfact>
</mgrwt>
</event>
<event>
 5    1  0.6043464E+000  0.9155065E+02  0.7546771E-02  0.1299139E+00
         -1   -1    0    0    0  501 -0.00000000000E+00  0.00000000000E+00  0.42371235531E+02  0.42371235531E+02  0.00000000000E+00 0.  1.
          1   -1    0    0  501    0  0.00000000000E+00 -0.00000000000E+00 -0.49452896239E+02  0.49452896239E+02  0.00000000000E+00 0. -1.
         23    2    1    2    0    0  0.00000000000E+00  0.00000000000E+00 -0.70816607081E+01  0.91824131769E+02  0.91550648588E+02 0.  0.
        -13    1    3    3    0    0 -0.24625287249E+02  0.25174238722E+02  0.25790900617E+02  0.43649944123E+02  0.00000000000E+00 0.  1.
         13    1    3    3    0    0  0.24625287249E+02 -0.25174238722E+02 -0.32872561325E+02  0.48174187646E+02  0.00000000000E+00 0. -1.
<mgrwt>
<rscale>  0 0.91550649E+02</rscale>
<asrwt>0</asrwt>
<pdfrwt beam="2">  1        1 0.76081378E-02 0.91550649E+02</pdfrwt>
<pdfrwt beam="1">  1       -1 0.65186517E-02 0.91550649E+02</pdfrwt>
<totfact> 0.92542803E+04</totfact>
</mgrwt>
</event>
<event>
 5    1  0.6043464E+000  0.8984177E+02  0.7546771E-02  0.1303235E+00
          1   -1    0    0  501    0  0.00000000000E+00  0.00000000000E+00  0.11499373819E+03  0.11499373819E+03  0.00000000000E+00 0. -1.
         -1   -1    0    0    0  501 -0.00000000000E+00 -0.00000000000E+00 -0.17547791427E+02  0.17547791427E+02  0.00000000000E+00 0.  1.
         23    2    1    2    0    0  0.00000000000E+00  0.00000000000E+00  0.97445946764E+02  0.13254152962E+03  0.89841774986E+02 0.  0.
        -13    1    3    3    0    0 -0.35279090243E+02 -0.16760736922E+02  0.15988115528E+02  0.42203748040E+02  0.00000000000E+00 0.  1.
         13    1    3    3    0    0  0.35279090243E+02  0.16760736922E+02  0.81457831236E+02  0.90337781577E+02  0.00000000000E+00 0. -1.
<mgrwt>
<rscale>  0 0.89841775E+02</rscale>
<asrwt>0</asrwt>
<pdfrwt beam="1">  1        1 0.17691344E-01 0.89841775E+02</pdfrwt>
<pdfrwt beam="2">  1       -1 0.26996603E-02 0.89841775E+02</pdfrwt>
<totfact> 0.11131118E+05</totfact>
</mgrwt>
</event>
<event>
 5    1  0.6043464E+000  0.9115845E+02  0.7546771E-02  0.1300070E+00
          1   -1    0    0  501    0  0.00000000000E+00  0.00000000000E+00  0.44544756020E+02  0.44544756020E+02  0.00000000000E+00 0. -1.
         -1   -1    0    0    0  501 -0.00000000000E+00 -0.00000000000E+00 -0.46637714879E+02  0.46637714879E+02  0.00000000000E+00 0.  1.
         23    2    1    2    0    0  0.00000000000E+00  0.00000000000E+00 -0.20929588590E+01  0.91182470899E+02  0.91158447346E+02 0.  0.
        -13    1    3    3    0    0  0.17179166990E+02  0.98252619402E+01 -0.42115868748E+02  0.46533922584E+02  0.00000000000E+00 0. -1.
         13    1    3    3    0    0 -0.17179166990E+02 -0.98252619402E+01  0.40022909889E+02  0.44648548315E+02  0.00000000000E+00 0.  1.
<mgrwt>
<rscale>  0 0.91158447E+02</rscale>
<asrwt>0</asrwt>
<pdfrwt beam="1">  1        1 0.68530394E-02 0.91158447E+02</pdfrwt>
<pdfrwt beam="2">  1       -1 0.71750331E-02 0.91158447E+02</pdfrwt>
<totfact> 0.92202963E+04</totfact>
</mgrwt>
</event>
<event>
 5    1  0.6043464E+000  0.9252643E+02  0.7546771E-02  0.1296846E+00
          2   -1    0    0  501    0  0.00000000000E+00  0.00000000000E+00  0.96374176755E+02  0.96374176755E+02  0.00000000000E+00 0. -1.
         -2   -1    0    0    0  501 -0.00000000000E+00 -0.00000000000E+00 -0.22208075277E+02  0.22208075277E+02  0.00000000000E+00 0.  1.
         23    2    1    2    0    0  0.00000000000E+00  0.00000000000E+00  0.74166101478E+02  0.11858225203E+03  0.92526428054E+02 0.  0.
        -13    1    3    3    0    0  0.32875030486E+02 -0.80228064457E+01 -0.33464696779E+01  0.34004880709E+02  0.00000000000E+00 0.  1.
         13    1    3    3    0    0 -0.32875030486E+02  0.80228064457E+01  0.77512571156E+02  0.84577371323E+02  0.00000000000E+00 0. -1.
<mgrwt>
<rscale>  0 0.92526428E+02</rscale>
<asrwt>0</asrwt>
<pdfrwt beam="1">  1        2 0.14826796E-01 0.92526428E+02</pdfrwt>
<pdfrwt beam="2">  1       -2 0.34166270E-02 0.92526428E+02</pdfrwt>
<totfact> 0.11648568E+05</totfact>
</mgrwt>
</event>
<event>
 5    1  0.6043464E+000  0.9278651E+02  0.7546771E-02  0.1296241E+00
         -2   -1    0    0    0  501 -0.00000000000E+00  0.00000000000E+00  0.26651844594E+02  0.26651844594E+02  0.00000000000E+00 0.  1.
          2   -1    0    0  501    0  0.00000000000E+00 -0.00000000000E+00 -0.80757420375E+02  0.80757420375E+02  0.00000000000E+00 0. -1.
         23    2    1    2    0    0  0.00000000000E+00  0.00000000000E+00 -0.54105575781E+02  0.10740926497E+03  0.92786512331E+02 0.  0.
        -13    1    3    3    0    0  0.29971624446E+02 -0.29458003554E+02 -0.43019251251E+01  0.42244275412E+02  0.00000000000E+00 0.  1.
         13    1    3    3    0    0 -0.29971624446E+02  0.29458003554E+02 -0.49803650656E+02  0.65164989557E+02  0.00000000000E+00 0. -1.
<mgrwt>
<rscale>  0 0.92786512E+02</rscale>
<asrwt>0</asrwt>
<pdfrwt beam="2">  1        2 0.12424218E-01 0.92786512E+02</pdfrwt>
<pdfrwt beam="1">  1       -2 0.41002839E-02 0.92786512E+02</pdfrwt>
<totfact> 0.10968864E+05</totfact>
</mgrwt>
</event>
<event>
 5    1  0.6043464E+000  0.8998147E+02  0.7546771E-02  0.1302897E+00
          1   -1    0    0  501    0  0.00000000000E+00  0.00000000000E+00  0.91938672648E+02  0.91938672648E+02  0.00000000000E+00 0. -1.
         -1   -1    0    0    0  501 -0.00000000000E+00 -0.00000000000E+00 -0.22016485470E+02  0.22016485470E+02  0.00000000000E+00 0.  1.
         23    2    1    2    0    0  0.00000000000E+00  0.00000000000E+00  0.69922187179E+02  0.11395515812E+03  0.89981474770E+02 0.  0.
        -13    1    3    3    0    0  0.41624506747E+02 -0.11839033887E+02  0.19378139447E+02  0.47415973825E+02  0.00000000000E+00 0.  1.
         13    1    3    3    0    0 -0.41624506747E+02  0.11839033887E+02  0.50544047731E+02  0.66539184293E+02  0.00000000000E+00 0. -1.
<mgrwt>
<rscale>  0 0.89981475E+02</rscale>
<asrwt>0</asrwt>
<pdfrwt beam="1">  1        1 0.14144411E-01 0.89981475E+02</pdfrwt>
<pdfrwt beam="2">  1       -1 0.33871517E-02 0.89981475E+02</pdfrwt>
<totfact> 0.10679361E+05</totfact>
</mgrwt>
</event>
<event>
 5    1  0.6043464E+000  0.8906827E+02  0.7546771E-02  0.1305124E+00
         -4   -1    0    0    0  501 -0.00000000000E+00  0.00000000000E+00  0.22018005842E+02  0.22018005842E+02  0.00000000000E+00 0.  1.
          4   -1    0    0  501    0  0.00000000000E+00 -0.00000000000E+00 -0.90075785700E+02  0.90075785700E+02  0.00000000000E+00 0. -1.
         23    2    1    2    0    0  0.00000000000E+00  0.00000000000E+00 -0.68057779858E+02  0.11209379154E+03  0.89068269900E+02 0.  0.
        -13    1    3    3    0    0 -0.21644197916E+02  0.37753721305E+02 -0.22124478170E+02  0.48819128526E+02  0.00000000000E+00 0.  1.
         13    1    3    3    0    0  0.21644197916E+02 -0.37753721305E+02 -0.45933301688E+02  0.63274663015E+02  0.00000000000E+00 0. -1.
<mgrwt>
<rscale>  0 0.89068270E+02</rscale>
<asrwt>0</asrwt>
<pdfrwt beam="2">  1        4 0.13857813E-01 0.89068270E+02</pdfrwt>
<pdfrwt beam="1">  1       -4 0.33873855E-02 0.89068270E+02</pdfrwt>
<totfact> 0.27404062E+04</totfact>
</mgrwt>
</event>
<event>
 5    1  0.6043464E+000  0.9148606E+02  0.7546771E-02  0.1299292E+00
          2   -1    0    0  501    0  0.00000000000E+00  0.00000000000E+00  0.24342484754E+03  0.24342484754E+03  0.00000000000E+00 0. -1.
         -2   -1    0    0    0  501 -0.00000000000E+00 -0.00000000000E+00 -0.85957736795E+01  0.85957736795E+01  0.00000000000E+00 0.  1.
         23    2    1    2    0    0  0.00000000000E+00  0.00000000000E+00  0.23482907386E+03  0.25202062122E+03  0.91486062271E+02 0.  0.
        -13    1    3    3    0    0 -0.42299904101E+02 -0.13827569056E+02  0.88268708644E+02  0.98852660453E+02  0.00000000000E+00 0.  1.
         13    1    3    3    0    0  0.42299904101E+02  0.13827569056E+02  0.14656036522E+03  0.15316796077E+03  0.00000000000E+00 0. -1.
<mgrwt>
<rscale>  0 0.91486062E+02</rscale>
<asrwt>0</asrwt>
<pdfrwt beam="1">  1        2 0.37449971E-01 0.91486062E+02</pdfrwt>
<pdfrwt beam="2">  1       -2 0.13224269E-02 0.91486062E+02</pdfrwt>
<totfact> 0.16471172E+05</totfact>
</mgrwt>
</event>
<event>
 5    1  0.6043464E+000  0.8437870E+02  0.7546771E-02  0.1317065E+00
          2   -1    0    0  501    0  0.00000000000E+00  0.00000000000E+00  0.23800254461E+02  0.23800254461E+02  0.00000000000E+00 0. -1.
         -2   -1    0    0    0  501 -0.00000000000E+00 -0.00000000000E+00 -0.74786644491E+02  0.74786644491E+02  0.00000000000E+00 0.  1.
         23    2    1    2    0    0  0.00000000000E+00  0.00000000000E+00 -0.50986390029E+02  0.98586898952E+02  0.84378698003E+02 0.  0.
        -13    1    3    3    0    0  0.10846424483E+02 -0.40391830439E+02 -0.31977083077E+02  0.52646735249E+02  0.00000000000E+00 0.  1.
         13    1    3    3    0    0 -0.10846424483E+02  0.40391830439E+02 -0.19009306952E+02  0.45940163703E+02  0.00000000000E+00 0. -1.
<mgrwt>
<rscale>  0 0.84378698E+02</rscale>
<asrwt>0</asrwt>
<pdfrwt beam="1">  1        2 0.36615776E-02 0.84378698E+02</pdfrwt>
<pdfrwt beam="2">  1       -2 0.11505638E-01 0.84378698E+02</pdfrwt>
<totfact> 0.10476741E+05</totfact>
</mgrwt>
</event>
<event>
 5    1  0.6043464E+000  0.8712289E+02  0.7546771E-02  0.1309972E+00
         -4   -1    0    0    0  501 -0.00000000000E+00  0.00000000000E+00  0.61740956043E+01  0.61740956043E+01  0.00000000000E+00 0.  1.
          4   -1    0    0  501    0  0.00000000000E+00 -0.00000000000E+00 -0.30734854185E+03  0.30734854185E+03  0.00000000000E+00 0. -1.
         23    2    1    2    0    0  0.00000000000E+00  0.00000000000E+00 -0.30117444624E+03  0.31352263745E+03  0.87122885196E+02 0.  0.
        -13    1    3    3    0    0 -0.39514830706E+02  0.17807654954E+02 -0.16630001908E+03  0.17185526110E+03  0.00000000000E+00 0.  1.
         13    1    3    3    0    0  0.39514830706E+02 -0.17807654954E+02 -0.13487442716E+03  0.14166737636E+03  0.00000000000E+00 0. -1.
<mgrwt>
<rscale>  0 0.87122885E+02</rscale>
<asrwt>0</asrwt>
<pdfrwt beam="2">  1        4 0.47284378E-01 0.87122885E+02</pdfrwt>
<pdfrwt beam="1">  1       -4 0.94986112E-03 0.87122885E+02</pdfrwt>
<totfact> 0.19640838E+04</totfact>
</mgrwt>
</event>
<event>
 5    1  0.6043464E+000  0.9114611E+02  0.7546771E-02  0.1300100E+00
         -2   -1    0    0    0  501 -0.00000000000E+00  0.00000000000E+00  0.29415624375E+03  0.29415624375E+03  0.00000000000E+00 0.  1.
          2   -1    0    0  501    0  0.00000000000E+00 -0.00000000000E+00 -0.70605450897E+01  0.70605450897E+01  0.00000000000E+00 0. -1.
         23    2    1    2    0    0  0.00000000000E+00  0.00000000000E+00  0.28709569866E+03  0.30121678884E+03  0.91146111764E+02 0.  0.
        -13    1    3    3    0    0  0.40312894128E+02 -0.14671312348E+02  0.19437327294E+03  0.19905111422E+03  0.00000000000E+00 0.  1.
         13    1    3    3    0    0 -0.40312894128E+02  0.14671312348E+02  0.92722425722E+02  0.10216567462E+03  0.00000000000E+00 0. -1.
<mgrwt>
<rscale>  0 0.91146112E+02</rscale>
<asrwt>0</asrwt>
<pdfrwt beam="2">  1        2 0.10862379E-02 0.91146112E+02</pdfrwt>
<pdfrwt beam="1">  1       -2 0.45254797E-01 0.91146112E+02</pdfrwt>
<totfact> 0.51609753E+04</totfact>
</mgrwt>
</event>
<event>
 5    1  0.6043464E+000  0.9118804E+02  0.7546771E-02  0.1300000E+00
          2   -1    0    0  501    0  0.00000000000E+00  0.00000000000E+00  0.55338890652E+02  0.55338890652E+02  0.00000000000E+00 0. -1.
         -2   -1    0    0    0  501 -0.00000000000E+00 -0.00000000000E+00 -0.37565167110E+02  0.37565167110E+02  0.00000000000E+00 0.  1.
         23    2    1    2    0    0  0.00000000000E+00  0.00000000000E+00  0.17773723542E+02  0.92904057762E+02  0.91188040335E+02 0.  0.
        -13    1    3    3    0    0 -0.23890755647E+02  0.71172318739E+01 -0.30007344540E+02  0.39011074341E+02  0.00000000000E+00 0.  1.
         13    1    3    3    0    0  0.23890755647E+02 -0.71172318739E+01  0.47781068082E+02  0.53892983421E+02  0.00000000000E+00 0. -1.
<mgrwt>
<rscale>  0 0.91188040E+02</rscale>
<asrwt>0</asrwt>
<pdfrwt beam="1">  1        2 0.85136754E-02 0.91188040E+02</pdfrwt>
<pdfrwt beam="2">  1       -2 0.57792565E-02 0.91188040E+02</pdfrwt>
<totfact> 0.10377290E+05</totfact>
</mgrwt>
</event>
<event>
 5    1  0.6043464E+000  0.8553484E+02  0.7546771E-02  0.1314040E+00
          1   -1    0    0  501    0  0.00000000000E+00  0.00000000000E+00  0.11476265974E+02  0.11476265974E+02  0.00000000000E+00 0. -1.
         -1   -1    0    0    0  501 -0.00000000000E+00 -0.00000000000E+00 -0.15937694067E+03  0.15937694067E+03  0.00000000000E+00 0.  1.
         23    2    1    2    0    0  0.00000000000E+00  0.00000000000E+00 -0.14790067469E+03  0.17085320664E+03  0.85534838778E+02 0.  0.
        -13    1    3    3    0    0  0.23688456814E+02  0.36957757971E+01 -0.32091703434E+01  0.24188851135E+02  0.00000000000E+00 0. -1.
         13    1    3    3    0    0 -0.23688456814E+02 -0.36957757971E+01 -0.14469150435E+03  0.14666435550E+03  0.00000000000E+00 0.  1.
<mgrwt>
<rscale>  0 0.85534839E+02</rscale>
<asrwt>0</asrwt>
<pdfrwt beam="1">  1        1 0.17655794E-02 0.85534839E+02</pdfrwt>
<pdfrwt beam="2">  1       -1 0.24519528E-01 0.85534839E+02</pdfrwt>
<totfact> 0.86983163E+04</totfact>
</mgrwt>
</event>
<event>
 5    1  0.6043464E+000  0.9135140E+02  0.7546771E-02  0.1299612E+00
          1   -1    0    0  501    0  0.00000000000E+00  0.00000000000E+00  0.12148763582E+02  0.12148763582E+02  0.00000000000E+00 0. -1.
         -1   -1    0    0    0  501 -0.00000000000E+00 -0.00000000000E+00 -0.17172689791E+03  0.17172689791E+03  0.00000000000E+00 0.  1.
         23    2    1    2    0    0  0.00000000000E+00  0.00000000000E+00 -0.15957813432E+03  0.18387566149E+03  0.91351398091E+02 0.  0.
        -13    1    3    3    0    0  0.45016276509E+01 -0.40641150778E+02 -0.12075920309E+03  0.12749412896E+03  0.00000000000E+00 0.  1.
         13    1    3    3    0    0 -0.45016276509E+01  0.40641150778E+02 -0.38818931232E+02  0.56381532527E+02  0.00000000000E+00 0. -1.
<mgrwt>
<rscale>  0 0.91351398E+02</rscale>
<asrwt>0</asrwt>
<pdfrwt beam="1">  1        1 0.18690407E-02 0.91351398E+02</pdfrwt>
<pdfrwt beam="2">  1       -1 0.26419521E-01 0.91351398E+02</pdfrwt>
<totfact> 0.71992069E+04</totfact>
</mgrwt>
</event>
<event>
 5    1  0.6043464E+000  0.8663481E+02  0.7546771E-02  0.1311212E+00
          3   -1    0    0  501    0  0.00000000000E+00  0.00000000000E+00  0.23147926765E+03  0.23147926765E+03  0.00000000000E+00 0. -1.
         -3   -1    0    0    0  501 -0.00000000000E+00 -0.00000000000E+00 -0.81061156317E+01  0.81061156317E+01  0.00000000000E+00 0.  1.
         23    2    1    2    0    0  0.00000000000E+00  0.00000000000E+00  0.22337315202E+03  0.23958538328E+03  0.86634813093E+02 0.  0.
        -13    1    3    3    0    0  0.40599438979E+02 -0.95945531009E+01  0.79432712956E+02  0.89721378624E+02  0.00000000000E+00 0. -1.
         13    1    3    3    0    0 -0.40599438979E+02  0.95945531009E+01  0.14394043907E+03  0.14986400466E+03  0.00000000000E+00 0.  1.
<mgrwt>
<rscale>  0 0.86634813E+02</rscale>
<asrwt>0</asrwt>
<pdfrwt beam="1">  1        3 0.35612190E-01 0.86634813E+02</pdfrwt>
<pdfrwt beam="2">  1       -3 0.12470949E-02 0.86634813E+02</pdfrwt>
<totfact> 0.30473503E+04</totfact>
</mgrwt>
</event>
<event>
 5    1  0.6043464E+000  0.9453965E+02  0.7546771E-02  0.1292216E+00
         -2   -1    0    0    0  501 -0.00000000000E+00  0.00000000000E+00  0.14947305399E+02  0.14947305399E+02  0.00000000000E+00 0.  1.
          2   -1    0    0  501    0  0.00000000000E+00 -0.00000000000E+00 -0.14948758270E+03  0.14948758270E+03  0.00000000000E+00 0. -1.
         23    2    1    2    0    0  0.00000000000E+00  0.00000000000E+00 -0.13454027730E+03  0.16443488810E+03  0.94539654155E+02 0.  0.
        -13    1    3    3    0    0 -0.43445718597E+02  0.17196671069E+02 -0.54826923541E+02  0.72036431791E+02  0.00000000000E+00 0.  1.
         13    1    3    3    0    0  0.43445718597E+02 -0.17196671069E+02 -0.79713353763E+02  0.92398456309E+02  0.00000000000E+00 0. -1.
<mgrwt>
<rscale>  0 0.94539654E+02</rscale>
<asrwt>0</asrwt>
<pdfrwt beam="2">  1        2 0.22998090E-01 0.94539654E+02</pdfrwt>
<pdfrwt beam="1">  1       -2 0.22995854E-02 0.94539654E+02</pdfrwt>
<totfact> 0.12653222E+05</totfact>
</mgrwt>
</event>
<event>
 5    1  0.6043464E+000  0.9184513E+02  0.7546771E-02  0.1298444E+00
          3   -1    0    0  501    0  0.00000000000E+00  0.00000000000E+00  0.90298506586E+01  0.90298506586E+01  0.00000000000E+00 0. -1.
         -3   -1    0    0    0  501 -0.00000000000E+00 -0.00000000000E+00 -0.23354562931E+03  0.23354562931E+03  0.00000000000E+00 0.  1.
         23    2    1    2    0    0  0.00000000000E+00  0.00000000000E+00 -0.22451577865E+03  0.24257547997E+03  0.91845133886E+02 0.  0.
        -13    1    3    3    0    0 -0.36717686050E+02 -0.24214536683E+02 -0.14713187604E+03  0.15356536459E+03  0.00000000000E+00 0.  1.
         13    1    3    3    0    0  0.36717686050E+02  0.24214536683E+02 -0.77383902608E+02  0.89010115372E+02  0.00000000000E+00 0. -1.
<mgrwt>
<rscale>  0 0.91845134E+02</rscale>
<asrwt>0</asrwt>
<pdfrwt beam="1">  1        3 0.13892080E-02 0.91845134E+02</pdfrwt>
<pdfrwt beam="2">  1       -3 0.35930092E-01 0.91845134E+02</pdfrwt>
<totfact> 0.25917952E+04</totfact>
</mgrwt>
</event>
<event>
 5    1  0.6043464E+000  0.9397295E+02  0.7546771E-02  0.1293506E+00
         -3   -1    0    0    0  501 -0.00000000000E+00  0.00000000000E+00  0.28929724556E+02  0.28929724556E+02  0.00000000000E+00 0.  1.
          3   -1    0    0  501    0  0.00000000000E+00 -0.00000000000E+00 -0.76313512395E+02  0.76313512395E+02  0.00000000000E+00 0. -1.
         23    2    1    2    0    0  0.00000000000E+00  0.00000000000E+00 -0.47383787838E+02  0.10524323695E+03  0.93972951289E+02 0.  0.
        -13    1    3    3    0    0 -0.32632890741E+02  0.18161439022E+02  0.82405914686E+01  0.38244617572E+02  0.00000000000E+00 0.  1.
         13    1    3    3    0    0  0.32632890741E+02 -0.18161439022E+02 -0.55624379307E+02  0.66998619379E+02  0.00000000000E+00 0. -1.
<mgrwt>
<rscale>  0 0.93972951E+02</rscale>
<asrwt>0</asrwt>
<pdfrwt beam="2">  1        3 0.11740540E-01 0.93972951E+02</pdfrwt>
<pdfrwt beam="1">  1       -3 0.44507269E-02 0.93972951E+02</pdfrwt>
<totfact> 0.31573446E+04</totfact>
</mgrwt>
</event>
<event>
 5    1  0.6043464E+000  0.9076872E+02  0.7546771E-02  0.1301001E+00
         -2   -1    0    0    0  501 -0.00000000000E+00  0.00000000000E+00  0.34362665294E+02  0.34362665294E+02  0.00000000000E+00 0.  1.
          2   -1    0    0  501    0  0.00000000000E+00 -0.00000000000E+00 -0.59941222823E+02  0.59941222823E+02  0.00000000000E+00 0. -1.
         23    2    1    2    0    0  0.00000000000E+00  0.00000000000E+00 -0.25578557529E+02  0.94303888117E+02  0.90768720982E+02 0.  0.
        -13    1    3    3    0    0 -0.38622199755E+02 -0.13003529030E+02 -0.33541554668E+02  0.52780696952E+02  0.00000000000E+00 0. -1.
         13    1    3    3    0    0  0.38622199755E+02  0.13003529030E+02  0.79629971390E+01  0.41523191166E+02  0.00000000000E+00 0.  1.
<mgrwt>
<rscale>  0 0.90768721E+02</rscale>
<asrwt>0</asrwt>
<pdfrwt beam="2">  1        2 0.92217265E-02 0.90768721E+02</pdfrwt>
<pdfrwt beam="1">  1       -2 0.52865639E-02 0.90768721E+02</pdfrwt>
<totfact> 0.10739093E+05</totfact>
</mgrwt>
</event>
<event>
 5    1  0.6043464E+000  0.9031288E+02  0.7546771E-02  0.1302096E+00
          1   -1    0    0  501    0  0.00000000000E+00  0.00000000000E+00  0.13272899114E+03  0.13272899114E+03  0.00000000000E+00 0. -1.
         -1   -1    0    0    0  501 -0.00000000000E+00 -0.00000000000E+00 -0.15362912587E+02  0.15362912587E+02  0.00000000000E+00 0.  1.
         23    2    1    2    0    0  0.00000000000E+00  0.00000000000E+00  0.11736607855E+03  0.14809190372E+03  0.90312875906E+02 0.  0.
        -13    1    3    3    0    0  0.21804568138E+02 -0.39369422753E+02  0.64755319776E+02  0.78858367209E+02  0.00000000000E+00 0.  1.
         13    1    3    3    0    0 -0.21804568138E+02  0.39369422753E+02  0.52610758773E+02  0.69233536514E+02  0.00000000000E+00 0. -1.
<mgrwt>
<rscale>  0 0.90312876E+02</rscale>
<asrwt>0</asrwt>
<pdfrwt beam="1">  1        1 0.20419844E-01 0.90312876E+02</pdfrwt>
<pdfrwt beam="2">  1       -1 0.23635251E-02 0.90312876E+02</pdfrwt>
<totfact> 0.11253086E+05</totfact>
</mgrwt>
</event>
<event>
 5    1  0.6043464E+000  0.9143535E+02  0.7546771E-02  0.1299413E+00
         -2   -1    0    0    0  501 -0.00000000000E+00  0.00000000000E+00  0.10306510460E+02  0.10306510460E+02  0.00000000000E+00 0.  1.
          2   -1    0    0  501    0  0.00000000000E+00 -0.00000000000E+00 -0.20279469947E+03  0.20279469947E+03  0.00000000000E+00 0. -1.
         23    2    1    2    0    0  0.00000000000E+00  0.00000000000E+00 -0.19248818901E+03  0.21310120993E+03  0.91435347462E+02 0.  0.
        -13    1    3    3    0    0 -0.27979277829E+02  0.14338620938E+02 -0.18887473861E+02  0.36676596176E+02  0.00000000000E+00 0.  1.
         13    1    3    3    0    0  0.27979277829E+02 -0.14338620938E+02 -0.17360071515E+03  0.17642461375E+03  0.00000000000E+00 0. -1.
<mgrwt>
<rscale>  0 0.91435347E+02</rscale>
<asrwt>0</asrwt>
<pdfrwt beam="2">  1        2 0.31199180E-01 0.91435347E+02</pdfrwt>
<pdfrwt beam="1">  1       -2 0.15856172E-02 0.91435347E+02</pdfrwt>
<totfact> 0.15427735E+05</totfact>
</mgrwt>
</event>
<event>
 5    1  0.6043464E+000  0.9207711E+02  0.7546771E-02  0.1297898E+00
          2   -1    0    0  501    0  0.00000000000E+00  0.00000000000E+00  0.36913436071E+02  0.36913436071E+02  0.00000000000E+00 0. -1.
         -2   -1    0    0    0  501 -0.00000000000E+00 -0.00000000000E+00 -0.57419431181E+02  0.57419431181E+02  0.00000000000E+00 0.  1.
         23    2    1    2    0    0  0.00000000000E+00  0.00000000000E+00 -0.20505995110E+02  0.94332867252E+02  0.92077109037E+02 0.  0.
        -13    1    3    3    0    0  0.74545928056E+01  0.43411914032E+02  0.34685257013E+01  0.44183661057E+02  0.00000000000E+00 0.  1.
         13    1    3    3    0    0 -0.74545928056E+01 -0.43411914032E+02 -0.23974520811E+02  0.50149206195E+02  0.00000000000E+00 0. -1.
<mgrwt>
<rscale>  0 0.92077109E+02</rscale>
<asrwt>0</asrwt>
<pdfrwt beam="1">  1        2 0.56789902E-02 0.92077109E+02</pdfrwt>
<pdfrwt beam="2">  1       -2 0.88337585E-02 0.92077109E+02</pdfrwt>
<totfact> 0.90780794E+04</totfact>
</mgrwt>
</event>
<event>
 5    1  0.6043464E+000  0.9182510E+02  0.7546771E-02  0.1298491E+00
          3   -1    0    0  501    0  0.00000000000E+00  0.00000000000E+00  0.65837376201E+02  0.65837376201E+02  0.00000000000E+00 0. -1.
         -3   -1    0    0    0  501 -0.00000000000E+00 -0.00000000000E+00 -0.32017713507E+02  0.32017713507E+02  0.00000000000E+00 0.  1.
         23    2    1    2    0    0  0.00000000000E+00  0.00000000000E+00  0.33819662694E+02  0.97855089709E+02  0.91825100039E+02 0.  0.
        -13    1    3    3    0    0 -0.42213674520E+02 -0.16739690619E+02  0.24117931912E+02  0.51418733923E+02  0.00000000000E+00 0. -1.
         13    1    3    3    0    0  0.42213674520E+02  0.16739690619E+02  0.97017307821E+01  0.46436355786E+02  0.00000000000E+00 0.  1.
<mgrwt>
<rscale>  0 0.91825100E+02</rscale>
<asrwt>0</asrwt>
<pdfrwt beam="1">  1        3 0.10128827E-01 0.91825100E+02</pdfrwt>
<pdfrwt beam="2">  1       -3 0.49258021E-02 0.91825100E+02</pdfrwt>
<totfact> 0.34164092E+04</totfact>
</mgrwt>
</event>
<event>
 5    1  0.6043464E+000  0.8875365E+02  0.7546771E-02  0.1305898E+00
          1   -1    0    0  501    0  0.00000000000E+00  0.00000000000E+00  0.30954649520E+02  0.30954649520E+02  0.00000000000E+00 0. -1.
         -1   -1    0    0    0  501 -0.00000000000E+00 -0.00000000000E+00 -0.63618958387E+02  0.63618958387E+02  0.00000000000E+00 0.  1.
         23    2    1    2    0    0  0.00000000000E+00  0.00000000000E+00 -0.32664308867E+02  0.94573607906E+02  0.88753649157E+02 0.  0.
        -13    1    3    3    0    0 -0.34179155132E+02  0.50124644538E+01  0.13350605365E+02  0.37034822924E+02  0.00000000000E+00 0. -1.
         13    1    3    3    0    0  0.34179155132E+02 -0.50124644538E+01 -0.46014914232E+02  0.57538784982E+02  0.00000000000E+00 0.  1.
<mgrwt>
<rscale>  0 0.88753649E+02</rscale>
<asrwt>0</asrwt>
<pdfrwt beam="1">  1        1 0.47622538E-02 0.88753649E+02</pdfrwt>
<pdfrwt beam="2">  1       -1 0.97875319E-02 0.88753649E+02</pdfrwt>
<totfact> 0.94088112E+04</totfact>
</mgrwt>
</event>
<event>
 5    1  0.6043464E+000  0.9211416E+02  0.7546771E-02  0.1297811E+00
          1   -1    0    0  501    0  0.00000000000E+00  0.00000000000E+00  0.10142011237E+03  0.10142011237E+03  0.00000000000E+00 0. -1.
         -1   -1    0    0    0  501 -0.00000000000E+00 -0.00000000000E+00 -0.20915523251E+02  0.20915523251E+02  0.00000000000E+00 0.  1.
         23    2    1    2    0    0  0.00000000000E+00  0.00000000000E+00  0.80504589120E+02  0.12233563562E+03  0.92114162177E+02 0.  0.
        -13    1    3    3    0    0 -0.34739662770E+02 -0.14375538510E+01  0.13737887545E+00  0.34769664988E+02  0.00000000000E+00 0.  1.
         13    1    3    3    0    0  0.34739662770E+02  0.14375538510E+01  0.80367210244E+02  0.87565970633E+02  0.00000000000E+00 0. -1.
<mgrwt>
<rscale>  0 0.92114162E+02</rscale>
<asrwt>0</asrwt>
<pdfrwt beam="1">  1        1 0.15603094E-01 0.92114162E+02</pdfrwt>
<pdfrwt beam="2">  1       -1 0.32177729E-02 0.92114162E+02</pdfrwt>
<totfact> 0.10181514E+05</totfact>
</mgrwt>
</event>
<event>
 5    1  0.6043464E+000  0.9419259E+02  0.7546771E-02  0.1293005E+00
         -1   -1    0    0    0  501 -0.00000000000E+00  0.00000000000E+00  0.37782786987E+02  0.37782786987E+02  0.00000000000E+00 0. -1.
          1   -1    0    0  501    0  0.00000000000E+00 -0.00000000000E+00 -0.58705598340E+02  0.58705598340E+02  0.00000000000E+00 0.  1.
         23    2    1    2    0    0  0.00000000000E+00  0.00000000000E+00 -0.20922811353E+02  0.96488385327E+02  0.94192592427E+02 0.  0.
        -13    1    3    3    0    0  0.34134707313E+02 -0.32448050416E+02 -0.10376327825E+02  0.48225744144E+02  0.00000000000E+00 0.  1.
         13    1    3    3    0    0 -0.34134707313E+02  0.32448050416E+02 -0.10546483528E+02  0.48262641183E+02  0.00000000000E+00 0. -1.
<mgrwt>
<rscale>  0 0.94192592E+02</rscale>
<asrwt>0</asrwt>
<pdfrwt beam="2">  1        1 0.90316306E-02 0.94192592E+02</pdfrwt>
<pdfrwt beam="1">  1       -1 0.58127364E-02 0.94192592E+02</pdfrwt>
<totfact> 0.87730313E+04</totfact>
</mgrwt>
</event>
<event>
 5    1  0.6043464E+000  0.8939565E+02  0.7546771E-02  0.1304322E+00
          1   -1    0    0  501    0  0.00000000000E+00  0.00000000000E+00  0.46352635833E+02  0.46352635833E+02  0.00000000000E+00 0. -1.
         -1   -1    0    0    0  501 -0.00000000000E+00 -0.00000000000E+00 -0.43102091544E+02  0.43102091544E+02  0.00000000000E+00 0.  1.
         23    2    1    2    0    0  0.00000000000E+00  0.00000000000E+00  0.32505442887E+01  0.89454727377E+02  0.89395649849E+02 0.  0.
        -13    1    3    3    0    0 -0.99323050442E+01 -0.19520386645E+02 -0.37364555451E+02  0.43310578180E+02  0.00000000000E+00 0. -1.
         13    1    3    3    0    0  0.99323050442E+01  0.19520386645E+02  0.40615099739E+02  0.46144149197E+02  0.00000000000E+00 0.  1.
<mgrwt>
<rscale>  0 0.89395650E+02</rscale>
<asrwt>0</asrwt>
<pdfrwt beam="1">  1        1 0.71311748E-02 0.89395650E+02</pdfrwt>
<pdfrwt beam="2">  1       -1 0.66310910E-02 0.89395650E+02</pdfrwt>
<totfact> 0.97964769E+04</totfact>
</mgrwt>
</event>
<event>
 5    1  0.6043464E+000  0.9297082E+02  0.7546771E-02  0.1295813E+00
          2   -1    0    0  501    0  0.00000000000E+00  0.00000000000E+00  0.53318146078E+02  0.53318146078E+02  0.00000000000E+00 0. -1.
         -2   -1    0    0    0  501 -0.00000000000E+00 -0.00000000000E+00 -0.40528290863E+02  0.40528290863E+02  0.00000000000E+00 0.  1.
         23    2    1    2    0    0  0.00000000000E+00  0.00000000000E+00  0.12789855215E+02  0.93846436941E+02  0.92970819778E+02 0.  0.
        -13    1    3    3    0    0  0.44228669496E+02 -0.12286547782E+02 -0.10061711048E+01  0.45914560241E+02  0.00000000000E+00 0. -1.
         13    1    3    3    0    0 -0.44228669496E+02  0.12286547782E+02  0.13796026320E+02  0.47931876700E+02  0.00000000000E+00 0.  1.
<mgrwt>
<rscale>  0 0.92970820E+02</rscale>
<asrwt>0</asrwt>
<pdfrwt beam="1">  1        2 0.82027918E-02 0.92970820E+02</pdfrwt>
<pdfrwt beam="2">  1       -2 0.62351216E-02 0.92970820E+02</pdfrwt>
<totfact> 0.97245492E+04</totfact>
</mgrwt>
</event>
<event>
 5    1  0.6043464E+000  0.9186960E+02  0.7546771E-02  0.1298386E+00
         -1   -1    0    0    0  501 -0.00000000000E+00  0.00000000000E+00  0.67861356206E+02  0.67861356206E+02  0.00000000000E+00 0.  1.
          1   -1    0    0  501    0  0.00000000000E+00 -0.00000000000E+00 -0.31092894766E+02  0.31092894766E+02  0.00000000000E+00 0. -1.
         23    2    1    2    0    0  0.00000000000E+00  0.00000000000E+00  0.36768461440E+02  0.98954250972E+02  0.91869603399E+02 0.  0.
        -13    1    3    3    0    0  0.21359964363E+02 -0.39093773860E+02  0.63207789603E+01  0.44994705009E+02  0.00000000000E+00 0. -1.
         13    1    3    3    0    0 -0.21359964363E+02  0.39093773860E+02  0.30447682479E+02  0.53959545963E+02  0.00000000000E+00 0.  1.
<mgrwt>
<rscale>  0 0.91869603E+02</rscale>
<asrwt>0</asrwt>
<pdfrwt beam="2">  1        1 0.47835223E-02 0.91869603E+02</pdfrwt>
<pdfrwt beam="1">  1       -1 0.10440209E-01 0.91869603E+02</pdfrwt>
<totfact> 0.85310490E+04</totfact>
</mgrwt>
</event>
<event>
 5    1  0.6043464E+000  0.9467753E+02  0.7546771E-02  0.1291904E+00
         -2   -1    0    0    0  501 -0.00000000000E+00  0.00000000000E+00  0.10195060675E+03  0.10195060675E+03  0.00000000000E+00 0.  1.
          2   -1    0    0  501    0  0.00000000000E+00 -0.00000000000E+00 -0.21980827041E+02  0.21980827041E+02  0.00000000000E+00 0. -1.
         23    2    1    2    0    0  0.00000000000E+00  0.00000000000E+00  0.79969779712E+02  0.12393143380E+03  0.94677529622E+02 0.  0.
        -13    1    3    3    0    0 -0.10981019674E+02 -0.42562344356E+02  0.16981641570E+02  0.47122310009E+02  0.00000000000E+00 0.  1.
         13    1    3    3    0    0  0.10981019674E+02  0.42562344356E+02  0.62988138142E+02  0.76809123786E+02  0.00000000000E+00 0. -1.
<mgrwt>
<rscale>  0 0.94677530E+02</rscale>
<asrwt>0</asrwt>
<pdfrwt beam="2">  1        2 0.33816657E-02 0.94677530E+02</pdfrwt>
<pdfrwt beam="1">  1       -2 0.15684709E-01 0.94677530E+02</pdfrwt>
<totfact> 0.72235060E+04</totfact>
</mgrwt>
</event>
<event>
 5    1  0.6043464E+000  0.9014951E+02  0.7546771E-02  0.1302490E+00
          1   -1    0    0  501    0  0.00000000000E+00  0.00000000000E+00  0.69993467055E+01  0.69993467055E+01  0.00000000000E+00 0. -1.
         -1   -1    0    0    0  501 -0.00000000000E+00 -0.00000000000E+00 -0.29027476504E+03  0.29027476504E+03  0.00000000000E+00 0.  1.
         23    2    1    2    0    0  0.00000000000E+00  0.00000000000E+00 -0.28327541834E+03  0.29727411175E+03  0.90149514039E+02 0.  0.
        -13    1    3    3    0    0  0.23051884770E+02  0.34544259201E+02 -0.19941938155E+03  0.20369777852E+03  0.00000000000E+00 0.  1.
         13    1    3    3    0    0 -0.23051884770E+02 -0.34544259201E+02 -0.83856036786E+02  0.93576333229E+02  0.00000000000E+00 0. -1.
<mgrwt>
<rscale>  0 0.90149514E+02</rscale>
<asrwt>0</asrwt>
<pdfrwt beam="1">  1        1 0.10768226E-02 0.90149514E+02</pdfrwt>
<pdfrwt beam="2">  1       -1 0.44657654E-01 0.90149514E+02</pdfrwt>
<totfact> 0.63210495E+04</totfact>
</mgrwt>
</event>
<event>
 5    1  0.6043464E+000  0.8990433E+02  0.7546771E-02  0.1303084E+00
          3   -1    0    0  501    0  0.00000000000E+00  0.00000000000E+00  0.16705393031E+02  0.16705393031E+02  0.00000000000E+00 0. -1.
         -3   -1    0    0    0  501 -0.00000000000E+00 -0.00000000000E+00 -0.12096075557E+03  0.12096075557E+03  0.00000000000E+00 0.  1.
         23    2    1    2    0    0  0.00000000000E+00  0.00000000000E+00 -0.10425536254E+03  0.13766614860E+03  0.89904326104E+02 0.  0.
        -13    1    3    3    0    0 -0.39562510533E+02 -0.14122322879E+02 -0.76630804584E+02  0.87389429878E+02  0.00000000000E+00 0.  1.
         13    1    3    3    0    0  0.39562510533E+02  0.14122322879E+02 -0.27624557952E+02  0.50276718720E+02  0.00000000000E+00 0. -1.
<mgrwt>
<rscale>  0 0.89904326E+02</rscale>
<asrwt>0</asrwt>
<pdfrwt beam="1">  1        3 0.25700604E-02 0.89904326E+02</pdfrwt>
<pdfrwt beam="2">  1       -3 0.18609348E-01 0.89904326E+02</pdfrwt>
<totfact> 0.33323496E+04</totfact>
</mgrwt>
</event>
<event>
 5    1  0.6043464E+000  0.9016602E+02  0.7546771E-02  0.1302450E+00
          2   -1    0    0  501    0  0.00000000000E+00  0.00000000000E+00  0.42592227176E+02  0.42592227176E+02  0.00000000000E+00 0.  1.
         -2   -1    0    0    0  501 -0.00000000000E+00 -0.00000000000E+00 -0.47719452580E+02  0.47719452580E+02  0.00000000000E+00 0. -1.
         23    2    1    2    0    0  0.00000000000E+00  0.00000000000E+00 -0.51272254037E+01  0.90311679755E+02  0.90166019430E+02 0.  0.
        -13    1    3    3    0    0  0.30684139423E+02  0.35634267546E+01  0.30326354714E+02  0.43288592176E+02  0.00000000000E+00 0.  1.
         13    1    3    3    0    0 -0.30684139423E+02 -0.35634267546E+01 -0.35453580117E+02  0.47023087579E+02  0.00000000000E+00 0. -1.
<mgrwt>
<rscale>  0 0.90166019E+02</rscale>
<asrwt>0</asrwt>
<pdfrwt beam="1">  1        2 0.65526504E-02 0.90166019E+02</pdfrwt>
<pdfrwt beam="2">  1       -2 0.73414542E-02 0.90166019E+02</pdfrwt>
<totfact> 0.10011239E+05</totfact>
</mgrwt>
</event>
<event>
 5    1  0.6043464E+000  0.9325791E+02  0.7546771E-02  0.1295149E+00
         -1   -1    0    0    0  501 -0.00000000000E+00  0.00000000000E+00  0.39350669408E+02  0.39350669408E+02  0.00000000000E+00 0.  1.
          1   -1    0    0  501    0  0.00000000000E+00 -0.00000000000E+00 -0.55253423767E+02  0.55253423767E+02  0.00000000000E+00 0. -1.
         23    2    1    2    0    0  0.00000000000E+00  0.00000000000E+00 -0.15902754359E+02  0.94604093175E+02  0.93257905023E+02 0.  0.
        -13    1    3    3    0    0 -0.33125414448E+02 -0.74008293200E+00  0.25331037699E+02  0.41707340793E+02  0.00000000000E+00 0.  1.
         13    1    3    3    0    0  0.33125414448E+02  0.74008293200E+00 -0.41233792058E+02  0.52896752382E+02  0.00000000000E+00 0. -1.
<mgrwt>
<rscale>  0 0.93257905E+02</rscale>
<asrwt>0</asrwt>
<pdfrwt beam="2">  1        1 0.85005267E-02 0.93257905E+02</pdfrwt>
<pdfrwt beam="1">  1       -1 0.60539492E-02 0.93257905E+02</pdfrwt>
<totfact> 0.89371788E+04</totfact>
</mgrwt>
</event>
<event>
 5    1  0.6043464E+000  0.8613025E+02  0.7546771E-02  0.1312503E+00
         -1   -1    0    0    0  501 -0.00000000000E+00  0.00000000000E+00  0.12462160406E+03  0.12462160406E+03  0.00000000000E+00 0.  1.
          1   -1    0    0  501    0  0.00000000000E+00 -0.00000000000E+00 -0.14881888581E+02  0.14881888581E+02  0.00000000000E+00 0. -1.
         23    2    1    2    0    0  0.00000000000E+00  0.00000000000E+00  0.10973971548E+03  0.13950349264E+03  0.86130246173E+02 0.  0.
        -13    1    3    3    0    0 -0.47080078843E+01  0.26170948951E+02  0.30493358271E-02  0.26591049556E+02  0.00000000000E+00 0. -1.
         13    1    3    3    0    0  0.47080078843E+01 -0.26170948951E+02  0.10973666614E+03  0.11291244308E+03  0.00000000000E+00 0.  1.
<mgrwt>
<rscale>  0 0.86130246E+02</rscale>
<asrwt>0</asrwt>
<pdfrwt beam="2">  1        1 0.22895214E-02 0.86130246E+02</pdfrwt>
<pdfrwt beam="1">  1       -1 0.19172554E-01 0.86130246E+02</pdfrwt>
<totfact> 0.90258901E+04</totfact>
</mgrwt>
</event>
<event>
 5    1  0.6043464E+000  0.8543663E+02  0.7546771E-02  0.1314295E+00
         -1   -1    0    0    0  501 -0.00000000000E+00  0.00000000000E+00  0.81419324921E+02  0.81419324921E+02  0.00000000000E+00 0. -1.
          1   -1    0    0  501    0  0.00000000000E+00 -0.00000000000E+00 -0.22413040296E+02  0.22413040296E+02  0.00000000000E+00 0.  1.
         23    2    1    2    0    0  0.00000000000E+00  0.00000000000E+00  0.59006284625E+02  0.10383236522E+03  0.85436634071E+02 0.  0.
        -13    1    3    3    0    0  0.70431502590E+01  0.41730882519E+02  0.22439448477E+02  0.47901997551E+02  0.00000000000E+00 0.  1.
         13    1    3    3    0    0 -0.70431502590E+01 -0.41730882519E+02  0.36566836148E+02  0.55930367666E+02  0.00000000000E+00 0. -1.
<mgrwt>
<rscale>  0 0.85436634E+02</rscale>
<asrwt>0</asrwt>
<pdfrwt beam="2">  1        1 0.34481601E-02 0.85436634E+02</pdfrwt>
<pdfrwt beam="1">  1       -1 0.12526050E-01 0.85436634E+02</pdfrwt>
<totfact> 0.99665538E+04</totfact>
</mgrwt>
</event>
<event>
 5    1  0.6043464E+000  0.9057915E+02  0.7546771E-02  0.1301455E+00
          1   -1    0    0  501    0  0.00000000000E+00  0.00000000000E+00  0.18193584860E+02  0.18193584860E+02  0.00000000000E+00 0. -1.
         -1   -1    0    0    0  501 -0.00000000000E+00 -0.00000000000E+00 -0.11274003878E+03  0.11274003878E+03  0.00000000000E+00 0.  1.
         23    2    1    2    0    0  0.00000000000E+00  0.00000000000E+00 -0.94546453921E+02  0.13093362364E+03  0.90579146888E+02 0.  0.
        -13    1    3    3    0    0  0.19109818141E+02  0.36449930012E+02 -0.74599330063E+02  0.85198841501E+02  0.00000000000E+00 0.  1.
         13    1    3    3    0    0 -0.19109818141E+02 -0.36449930012E+02 -0.19947123858E+02  0.45734782141E+02  0.00000000000E+00 0. -1.
<mgrwt>
<rscale>  0 0.90579147E+02</rscale>
<asrwt>0</asrwt>
<pdfrwt beam="1">  1        1 0.27990130E-02 0.90579147E+02</pdfrwt>
<pdfrwt beam="2">  1       -1 0.17344621E-01 0.90579147E+02</pdfrwt>
<totfact> 0.80883108E+04</totfact>
</mgrwt>
</event>
<event>
 5    1  0.6043464E+000  0.9051824E+02  0.7546771E-02  0.1301602E+00
          3   -1    0    0  501    0  0.00000000000E+00  0.00000000000E+00  0.54064795720E+02  0.54064795720E+02  0.00000000000E+00 0. -1.
         -3   -1    0    0    0  501 -0.00000000000E+00 -0.00000000000E+00 -0.37887648155E+02  0.37887648155E+02  0.00000000000E+00 0.  1.
         23    2    1    2    0    0  0.00000000000E+00  0.00000000000E+00  0.16177147565E+02  0.91952443874E+02  0.90518240323E+02 0.  0.
        -13    1    3    3    0    0  0.35307907916E+02 -0.78388892396E+01 -0.19550821003E+02  0.41113637005E+02  0.00000000000E+00 0.  1.
         13    1    3    3    0    0 -0.35307907916E+02  0.78388892396E+01  0.35727968568E+02  0.50838806869E+02  0.00000000000E+00 0. -1.
<mgrwt>
<rscale>  0 0.90518240E+02</rscale>
<asrwt>0</asrwt>
<pdfrwt beam="1">  1        3 0.83176608E-02 0.90518240E+02</pdfrwt>
<pdfrwt beam="2">  1       -3 0.58288690E-02 0.90518240E+02</pdfrwt>
<totfact> 0.35981855E+04</totfact>
</mgrwt>
</event>
<event>
 5    1  0.6043464E+000  0.9327838E+02  0.7546771E-02  0.1295101E+00
         -1   -1    0    0    0  501 -0.00000000000E+00  0.00000000000E+00  0.15386647946E+02  0.15386647946E+02  0.00000000000E+00 0.  1.
          1   -1    0    0  501    0  0.00000000000E+00 -0.00000000000E+00 -0.14137023809E+03  0.14137023809E+03  0.00000000000E+00 0. -1.
         23    2    1    2    0    0  0.00000000000E+00  0.00000000000E+00 -0.12598359015E+03  0.15675688604E+03  0.93278380851E+02 0.  0.
        -13    1    3    3    0    0 -0.11666922580E+02 -0.39511430273E+02 -0.99731366062E+02  0.10790558642E+03  0.00000000000E+00 0. -1.
         13    1    3    3    0    0  0.11666922580E+02  0.39511430273E+02 -0.26252224084E+02  0.48851299615E+02  0.00000000000E+00 0.  1.
<mgrwt>
<rscale>  0 0.93278381E+02</rscale>
<asrwt>0</asrwt>
<pdfrwt beam="2">  1        1 0.21749268E-01 0.93278381E+02</pdfrwt>
<pdfrwt beam="1">  1       -1 0.23671766E-02 0.93278381E+02</pdfrwt>
<totfact> 0.10428920E+05</totfact>
</mgrwt>
</event>
<event>
 5    1  0.6043464E+000  0.9102189E+02  0.7546771E-02  0.1300396E+00
          1   -1    0    0  501    0  0.00000000000E+00  0.00000000000E+00  0.10190244732E+02  0.10190244732E+02  0.00000000000E+00 0.  1.
         -1   -1    0    0    0  501 -0.00000000000E+00 -0.00000000000E+00 -0.20325773659E+03  0.20325773659E+03  0.00000000000E+00 0. -1.
         23    2    1    2    0    0  0.00000000000E+00  0.00000000000E+00 -0.19306749186E+03  0.21344798132E+03  0.91021889225E+02 0.  0.
        -13    1    3    3    0    0 -0.28686972551E+02  0.32430947533E+02 -0.63658521253E+02  0.76987765782E+02  0.00000000000E+00 0.  1.
         13    1    3    3    0    0  0.28686972551E+02 -0.32430947533E+02 -0.12940897061E+03  0.13646021554E+03  0.00000000000E+00 0. -1.
<mgrwt>
<rscale>  0 0.91021889E+02</rscale>
<asrwt>0</asrwt>
<pdfrwt beam="1">  1        1 0.15677300E-02 0.91021889E+02</pdfrwt>
<pdfrwt beam="2">  1       -1 0.31270420E-01 0.91021889E+02</pdfrwt>
<totfact> 0.69409747E+04</totfact>
</mgrwt>
</event>
<event>
 5    1  0.6043464E+000  0.8843597E+02  0.7546771E-02  0.1306684E+00
         -4   -1    0    0    0  501 -0.00000000000E+00  0.00000000000E+00  0.43683905601E+02  0.43683905601E+02  0.00000000000E+00 0. -1.
          4   -1    0    0  501    0  0.00000000000E+00 -0.00000000000E+00 -0.44758590902E+02  0.44758590902E+02  0.00000000000E+00 0.  1.
         23    2    1    2    0    0  0.00000000000E+00  0.00000000000E+00 -0.10746853014E+01  0.88442496504E+02  0.88435966887E+02 0.  0.
        -13    1    3    3    0    0  0.24683029514E+02 -0.21137742485E+02 -0.30525786114E+02  0.44585644788E+02  0.00000000000E+00 0.  1.
         13    1    3    3    0    0 -0.24683029514E+02  0.21137742485E+02  0.29451100812E+02  0.43856851715E+02  0.00000000000E+00 0. -1.
<mgrwt>
<rscale>  0 0.88435967E+02</rscale>
<asrwt>0</asrwt>
<pdfrwt beam="2">  1        4 0.68859371E-02 0.88435967E+02</pdfrwt>
<pdfrwt beam="1">  1       -4 0.67206009E-02 0.88435967E+02</pdfrwt>
<totfact> 0.29534645E+04</totfact>
</mgrwt>
</event>
<event>
 5    1  0.6043464E+000  0.9049561E+02  0.7546771E-02  0.1301656E+00
         -1   -1    0    0    0  501 -0.00000000000E+00  0.00000000000E+00  0.64167556866E+02  0.64167556866E+02  0.00000000000E+00 0.  1.
          1   -1    0    0  501    0  0.00000000000E+00 -0.00000000000E+00 -0.31906527309E+02  0.31906527309E+02  0.00000000000E+00 0. -1.
         23    2    1    2    0    0  0.00000000000E+00  0.00000000000E+00  0.32261029557E+02  0.96074084174E+02  0.90495611064E+02 0.  0.
        -13    1    3    3    0    0  0.65472966026E+01 -0.25877129757E+02 -0.22657573935E+02  0.35012263478E+02  0.00000000000E+00 0. -1.
         13    1    3    3    0    0 -0.65472966026E+01  0.25877129757E+02  0.54918603491E+02  0.61061820696E+02  0.00000000000E+00 0.  1.
<mgrwt>
<rscale>  0 0.90495611E+02</rscale>
<asrwt>0</asrwt>
<pdfrwt beam="2">  1        1 0.49086965E-02 0.90495611E+02</pdfrwt>
<pdfrwt beam="1">  1       -1 0.98719318E-02 0.90495611E+02</pdfrwt>
<totfact> 0.89438739E+04</totfact>
</mgrwt>
</event>
<event>
 5    1  0.6043464E+000  0.6757516E+02  0.7546771E-02  0.1368539E+00
          4   -1    0    0  501    0  0.00000000000E+00  0.00000000000E+00  0.62148518150E+02  0.62148518150E+02  0.00000000000E+00 0. -1.
         -4   -1    0    0    0  501 -0.00000000000E+00 -0.00000000000E+00 -0.18368908279E+02  0.18368908279E+02  0.00000000000E+00 0.  1.
         23    2    1    2    0    0  0.00000000000E+00  0.00000000000E+00  0.43779609871E+02  0.80517426429E+02  0.67575156074E+02 0.  0.
        -13    1    3    3    0    0 -0.23467928929E+02  0.20540787825E+02  0.64030727457E+01  0.31838137403E+02  0.00000000000E+00 0.  1.
         13    1    3    3    0    0  0.23467928929E+02 -0.20540787825E+02  0.37376537125E+02  0.48679289027E+02  0.00000000000E+00 0. -1.
<mgrwt>
<rscale>  0 0.67575156E+02</rscale>
<asrwt>0</asrwt>
<pdfrwt beam="1">  1        4 0.95613103E-02 0.67575156E+02</pdfrwt>
<pdfrwt beam="2">  1       -4 0.28259859E-02 0.67575156E+02</pdfrwt>
<totfact> 0.61468925E+04</totfact>
</mgrwt>
</event>
<event>
 5    1  0.6043464E+000  0.8975314E+02  0.7546771E-02  0.1303451E+00
          1   -1    0    0  501    0  0.00000000000E+00  0.00000000000E+00  0.64299043061E+02  0.64299043061E+02  0.00000000000E+00 0. -1.
         -1   -1    0    0    0  501 -0.00000000000E+00 -0.00000000000E+00 -0.31320938531E+02  0.31320938531E+02  0.00000000000E+00 0.  1.
         23    2    1    2    0    0  0.00000000000E+00  0.00000000000E+00  0.32978104530E+02  0.95619981593E+02  0.89753136443E+02 0.  0.
        -13    1    3    3    0    0 -0.15764604551E+02  0.41880506907E+02  0.20087209780E+02  0.49050949147E+02  0.00000000000E+00 0.  1.
         13    1    3    3    0    0  0.15764604551E+02 -0.41880506907E+02  0.12890894750E+02  0.46569032445E+02  0.00000000000E+00 0. -1.
<mgrwt>
<rscale>  0 0.89753136E+02</rscale>
<asrwt>0</asrwt>
<pdfrwt beam="1">  1        1 0.98921605E-02 0.89753136E+02</pdfrwt>
<pdfrwt beam="2">  1       -1 0.48186059E-02 0.89753136E+02</pdfrwt>
<totfact> 0.10171485E+05</totfact>
</mgrwt>
</event>
<event>
 5    1  0.6043464E+000  0.9309950E+02  0.7546771E-02  0.1295515E+00
         -1   -1    0    0    0  501 -0.00000000000E+00  0.00000000000E+00  0.97257229750E+02  0.97257229750E+02  0.00000000000E+00 0.  1.
          1   -1    0    0  501    0  0.00000000000E+00 -0.00000000000E+00 -0.22279877092E+02  0.22279877092E+02  0.00000000000E+00 0. -1.
         23    2    1    2    0    0  0.00000000000E+00  0.00000000000E+00  0.74977352658E+02  0.11953710684E+03  0.93099497854E+02 0.  0.
        -13    1    3    3    0    0 -0.34537423342E+02 -0.26707230184E+02  0.58222704806E+02  0.72773574257E+02  0.00000000000E+00 0.  1.
         13    1    3    3    0    0  0.34537423342E+02  0.26707230184E+02  0.16754647853E+02  0.46763532586E+02  0.00000000000E+00 0. -1.
<mgrwt>
<rscale>  0 0.93099498E+02</rscale>
<asrwt>0</asrwt>
<pdfrwt beam="2">  1        1 0.34276735E-02 0.93099498E+02</pdfrwt>
<pdfrwt beam="1">  1       -1 0.14962650E-01 0.93099498E+02</pdfrwt>
<totfact> 0.77507988E+04</totfact>
</mgrwt>
</event>
<event>
 5    1  0.6043464E+000  0.9201079E+02  0.7546771E-02  0.1298054E+00
         -2   -1    0    0    0  501 -0.00000000000E+00  0.00000000000E+00  0.94182810087E+02  0.94182810087E+02  0.00000000000E+00 0.  1.
          2   -1    0    0  501    0  0.00000000000E+00 -0.00000000000E+00 -0.22472214321E+02  0.22472214321E+02  0.00000000000E+00 0. -1.
         23    2    1    2    0    0  0.00000000000E+00  0.00000000000E+00  0.71710595766E+02  0.11665502441E+03  0.92010788360E+02 0.  0.
        -13    1    3    3    0    0  0.29306286316E+02 -0.29046540658E+02  0.61650057259E+02  0.74184159373E+02  0.00000000000E+00 0.  1.
         13    1    3    3    0    0 -0.29306286316E+02  0.29046540658E+02  0.10060538507E+02  0.42470865035E+02  0.00000000000E+00 0. -1.
<mgrwt>
<rscale>  0 0.92010788E+02</rscale>
<asrwt>0</asrwt>
<pdfrwt beam="2">  1        2 0.34572638E-02 0.92010788E+02</pdfrwt>
<pdfrwt beam="1">  1       -2 0.14489663E-01 0.92010788E+02</pdfrwt>
<totfact> 0.79414049E+04</totfact>
</mgrwt>
</event>
<event>
 5    1  0.6043464E+000  0.9189227E+02  0.7546771E-02  0.1298333E+00
         -4   -1    0    0    0  501 -0.00000000000E+00  0.00000000000E+00  0.13719562093E+03  0.13719562093E+03  0.00000000000E+00 0. -1.
          4   -1    0    0  501    0  0.00000000000E+00 -0.00000000000E+00 -0.15387134253E+02  0.15387134253E+02  0.00000000000E+00 0.  1.
         23    2    1    2    0    0  0.00000000000E+00  0.00000000000E+00  0.12180848668E+03  0.15258275518E+03  0.91892272540E+02 0.  0.
        -13    1    3    3    0    0 -0.21029902437E+02 -0.85834109773E+01 -0.54124029315E+01  0.23350071649E+02  0.00000000000E+00 0.  1.
         13    1    3    3    0    0  0.21029902437E+02  0.85834109773E+01  0.12722088961E+03  0.12923268353E+03  0.00000000000E+00 0. -1.
<mgrwt>
<rscale>  0 0.91892273E+02</rscale>
<asrwt>0</asrwt>
<pdfrwt beam="2">  1        4 0.23672515E-02 0.91892273E+02</pdfrwt>
<pdfrwt beam="1">  1       -4 0.21107018E-01 0.91892273E+02</pdfrwt>
<totfact> 0.23053117E+04</totfact>
</mgrwt>
</event>
<event>
 5    1  0.6043464E+000  0.8897053E+02  0.7546771E-02  0.1305364E+00
         -2   -1    0    0    0  501 -0.00000000000E+00  0.00000000000E+00  0.12169789804E+02  0.12169789804E+02  0.00000000000E+00 0.  1.
          2   -1    0    0  501    0  0.00000000000E+00 -0.00000000000E+00 -0.16261076959E+03  0.16261076959E+03  0.00000000000E+00 0. -1.
         23    2    1    2    0    0  0.00000000000E+00  0.00000000000E+00 -0.15044097979E+03  0.17478055940E+03  0.88970531883E+02 0.  0.
        -13    1    3    3    0    0  0.64449484231E+01 -0.26623102143E+02 -0.14407847448E+03  0.14665924361E+03  0.00000000000E+00 0. -1.
         13    1    3    3    0    0 -0.64449484231E+01  0.26623102143E+02 -0.63625053110E+01  0.28121315789E+02  0.00000000000E+00 0.  1.
<mgrwt>
<rscale>  0 0.88970532E+02</rscale>
<asrwt>0</asrwt>
<pdfrwt beam="2">  1        2 0.25017041E-01 0.88970532E+02</pdfrwt>
<pdfrwt beam="1">  1       -2 0.18722754E-02 0.88970532E+02</pdfrwt>
<totfact> 0.15357123E+05</totfact>
</mgrwt>
</event>
<event>
 5    1  0.6043464E+000  0.9111986E+02  0.7546771E-02  0.1300162E+00
         -2   -1    0    0    0  501 -0.00000000000E+00  0.00000000000E+00  0.50231109789E+02  0.50231109789E+02  0.00000000000E+00 0.  1.
          2   -1    0    0  501    0  0.00000000000E+00 -0.00000000000E+00 -0.41323138527E+02  0.41323138527E+02  0.00000000000E+00 0. -1.
         23    2    1    2    0    0  0.00000000000E+00  0.00000000000E+00  0.89079712616E+01  0.91554248316E+02  0.91119857510E+02 0.  0.
        -13    1    3    3    0    0 -0.28776348713E+02 -0.29821707663E+02  0.23472895041E+02  0.47627610635E+02  0.00000000000E+00 0.  1.
         13    1    3    3    0    0  0.28776348713E+02  0.29821707663E+02 -0.14564923780E+02  0.43926637680E+02  0.00000000000E+00 0. -1.
<mgrwt>
<rscale>  0 0.91119858E+02</rscale>
<asrwt>0</asrwt>
<pdfrwt beam="2">  1        2 0.63574059E-02 0.91119858E+02</pdfrwt>
<pdfrwt beam="1">  1       -2 0.77278630E-02 0.91119858E+02</pdfrwt>
<totfact> 0.96369296E+04</totfact>
</mgrwt>
</event>
<event>
 5    1  0.6043464E+000  0.9067445E+02  0.7546771E-02  0.1301227E+00
         -1   -1    0    0    0  501 -0.00000000000E+00  0.00000000000E+00  0.30515223564E+02  0.30515223564E+02  0.00000000000E+00 0.  1.
          1   -1    0    0  501    0  0.00000000000E+00 -0.00000000000E+00 -0.67358642557E+02  0.67358642557E+02  0.00000000000E+00 0. -1.
         23    2    1    2    0    0  0.00000000000E+00  0.00000000000E+00 -0.36843418994E+02  0.97873866121E+02  0.90674451453E+02 0.  0.
        -13    1    3    3    0    0  0.11918479635E+02 -0.28744113051E+02 -0.54012243179E+02  0.62334553862E+02  0.00000000000E+00 0. -1.
         13    1    3    3    0    0 -0.11918479635E+02  0.28744113051E+02  0.17168824186E+02  0.35539312259E+02  0.00000000000E+00 0.  1.
<mgrwt>
<rscale>  0 0.90674451E+02</rscale>
<asrwt>0</asrwt>
<pdfrwt beam="2">  1        1 0.10362868E-01 0.90674451E+02</pdfrwt>
<pdfrwt beam="1">  1       -1 0.46946498E-02 0.90674451E+02</pdfrwt>
<totfact> 0.99591543E+04</totfact>
</mgrwt>
</event>
<event>
 5    1  0.6043464E+000  0.8923900E+02  0.7546771E-02  0.1304705E+00
          2   -1    0    0  501    0  0.00000000000E+00  0.00000000000E+00  0.50465723469E+02  0.50465723469E+02  0.00000000000E+00 0. -1.
         -2   -1    0    0    0  501 -0.00000000000E+00 -0.00000000000E+00 -0.39450532761E+02  0.39450532761E+02  0.00000000000E+00 0.  1.
         23    2    1    2    0    0  0.00000000000E+00  0.00000000000E+00  0.11015190707E+02  0.89916256230E+02  0.89238997687E+02 0.  0.
        -13    1    3    3    0    0  0.78126429887E+01  0.43925822005E+02  0.61323395119E+01  0.45034662396E+02  0.00000000000E+00 0. -1.
         13    1    3    3    0    0 -0.78126429887E+01 -0.43925822005E+02  0.48828511954E+01  0.44881593834E+02  0.00000000000E+00 0.  1.
<mgrwt>
<rscale>  0 0.89238998E+02</rscale>
<asrwt>0</asrwt>
<pdfrwt beam="1">  1        2 0.77639574E-02 0.89238998E+02</pdfrwt>
<pdfrwt beam="2">  1       -2 0.60693127E-02 0.89238998E+02</pdfrwt>
<totfact> 0.10770190E+05</totfact>
</mgrwt>
</event>
<event>
 5    1  0.6043464E+000  0.9001955E+02  0.7546771E-02  0.1302804E+00
          1   -1    0    0  501    0  0.00000000000E+00  0.00000000000E+00  0.13291543236E+03  0.13291543236E+03  0.00000000000E+00 0. -1.
         -1   -1    0    0    0  501 -0.00000000000E+00 -0.00000000000E+00 -0.15241870180E+02  0.15241870180E+02  0.00000000000E+00 0.  1.
         23    2    1    2    0    0  0.00000000000E+00  0.00000000000E+00  0.11767356218E+03  0.14815730254E+03  0.90019548209E+02 0.  0.
        -13    1    3    3    0    0  0.92380291378E+01  0.29907693200E+02  0.56055770790E+01  0.31799902347E+02  0.00000000000E+00 0.  1.
         13    1    3    3    0    0 -0.92380291378E+01 -0.29907693200E+02  0.11206798510E+03  0.11635740019E+03  0.00000000000E+00 0. -1.
<mgrwt>
<rscale>  0 0.90019548E+02</rscale>
<asrwt>0</asrwt>
<pdfrwt beam="1">  1        1 0.20448527E-01 0.90019548E+02</pdfrwt>
<pdfrwt beam="2">  1       -1 0.23449032E-02 0.90019548E+02</pdfrwt>
<totfact> 0.11355178E+05</totfact>
</mgrwt>
</event>
<event>
 5    1  0.6043464E+000  0.8695100E+02  0.7546771E-02  0.1310408E+00
          2   -1    0    0  501    0  0.00000000000E+00  0.00000000000E+00  0.20352778621E+03  0.20352778621E+03  0.00000000000E+00 0. -1.
         -2   -1    0    0    0  501 -0.00000000000E+00 -0.00000000000E+00 -0.92867859882E+01  0.92867859882E+01  0.00000000000E+00 0.  1.
         23    2    1    2    0    0  0.00000000000E+00  0.00000000000E+00  0.19424100022E+03  0.21281457220E+03  0.86950997538E+02 0.  0.
        -13    1    3    3    0    0  0.35070679684E+01  0.40853332819E+02  0.61751914697E+02  0.74125523924E+02  0.00000000000E+00 0.  1.
         13    1    3    3    0    0 -0.35070679684E+01 -0.40853332819E+02  0.13248908553E+03  0.13868904828E+03  0.00000000000E+00 0. -1.
<mgrwt>
<rscale>  0 0.86950998E+02</rscale>
<asrwt>0</asrwt>
<pdfrwt beam="1">  1        2 0.31311964E-01 0.86950998E+02</pdfrwt>
<pdfrwt beam="2">  1       -2 0.14287365E-02 0.86950998E+02</pdfrwt>
<totfact> 0.17678937E+05</totfact>
</mgrwt>
</event>
<event>
 5    1  0.6043464E+000  0.9140312E+02  0.7546771E-02  0.1299489E+00
          1   -1    0    0  501    0  0.00000000000E+00  0.00000000000E+00  0.11782827747E+02  0.11782827747E+02  0.00000000000E+00 0. -1.
         -1   -1    0    0    0  501 -0.00000000000E+00 -0.00000000000E+00 -0.17726071984E+03  0.17726071984E+03  0.00000000000E+00 0.  1.
         23    2    1    2    0    0  0.00000000000E+00  0.00000000000E+00 -0.16547789210E+03  0.18904354759E+03  0.91403118728E+02 0.  0.
        -13    1    3    3    0    0  0.15231198453E+02  0.25955920802E+02 -0.15387355896E+03  0.15678893895E+03  0.00000000000E+00 0.  1.
         13    1    3    3    0    0 -0.15231198453E+02 -0.25955920802E+02 -0.11604333139E+02  0.32254608641E+02  0.00000000000E+00 0. -1.
<mgrwt>
<rscale>  0 0.91403119E+02</rscale>
<asrwt>0</asrwt>
<pdfrwt beam="1">  1        1 0.18127428E-02 0.91403119E+02</pdfrwt>
<pdfrwt beam="2">  1       -1 0.27270880E-01 0.91403119E+02</pdfrwt>
<totfact> 0.71297497E+04</totfact>
</mgrwt>
</event>
<event>
 5    1  0.6043464E+000  0.8883802E+02  0.7546771E-02  0.1305690E+00
          1   -1    0    0  501    0  0.00000000000E+00  0.00000000000E+00  0.37203366229E+02  0.37203366229E+02  0.00000000000E+00 0. -1.
         -1   -1    0    0    0  501 -0.00000000000E+00 -0.00000000000E+00 -0.53034141587E+02  0.53034141587E+02  0.00000000000E+00 0.  1.
         23    2    1    2    0    0  0.00000000000E+00  0.00000000000E+00 -0.15830775359E+02  0.90237507816E+02  0.88838023213E+02 0.  0.
        -13    1    3    3    0    0 -0.29963284128E+02  0.24102814707E+02  0.14667813160E+02  0.41156880536E+02  0.00000000000E+00 0. -1.
         13    1    3    3    0    0  0.29963284128E+02 -0.24102814707E+02 -0.30498588519E+02  0.49080627280E+02  0.00000000000E+00 0.  1.
<mgrwt>
<rscale>  0 0.88838023E+02</rscale>
<asrwt>0</asrwt>
<pdfrwt beam="1">  1        1 0.57235948E-02 0.88838023E+02</pdfrwt>
<pdfrwt beam="2">  1       -1 0.81590987E-02 0.88838023E+02</pdfrwt>
<totfact> 0.96499388E+04</totfact>
</mgrwt>
</event>
<event>
 5    1  0.6043464E+000  0.8938801E+02  0.7546771E-02  0.1304341E+00
          2   -1    0    0  501    0  0.00000000000E+00  0.00000000000E+00  0.45065233137E+02  0.45065233137E+02  0.00000000000E+00 0. -1.
         -2   -1    0    0    0  501 -0.00000000000E+00 -0.00000000000E+00 -0.44325836671E+02  0.44325836671E+02  0.00000000000E+00 0.  1.
         23    2    1    2    0    0  0.00000000000E+00  0.00000000000E+00  0.73939646580E+00  0.89391069808E+02  0.89388011804E+02 0.  0.
        -13    1    3    3    0    0 -0.61775158227E+01 -0.35576893904E+02 -0.25968952924E+02  0.44477675272E+02  0.00000000000E+00 0.  1.
         13    1    3    3    0    0  0.61775158227E+01  0.35576893904E+02  0.26708349390E+02  0.44913394536E+02  0.00000000000E+00 0. -1.
<mgrwt>
<rscale>  0 0.89388012E+02</rscale>
<asrwt>0</asrwt>
<pdfrwt beam="1">  1        2 0.69331128E-02 0.89388012E+02</pdfrwt>
<pdfrwt beam="2">  1       -2 0.68193595E-02 0.89388012E+02</pdfrwt>
<totfact> 0.10412363E+05</totfact>
</mgrwt>
</event>
<event>
 5    1  0.6043464E+000  0.9097797E+02  0.7546771E-02  0.1300501E+00
         -1   -1    0    0    0  501 -0.00000000000E+00  0.00000000000E+00  0.17906986912E+02  0.17906986912E+02  0.00000000000E+00 0.  1.
          1   -1    0    0  501    0  0.00000000000E+00 -0.00000000000E+00 -0.11555531992E+03  0.11555531992E+03  0.00000000000E+00 0. -1.
         23    2    1    2    0    0  0.00000000000E+00  0.00000000000E+00 -0.97648333007E+02  0.13346230683E+03  0.90977966593E+02 0.  0.
        -13    1    3    3    0    0  0.37072940394E+01 -0.43953167696E+02 -0.32513512463E+02  0.54797385634E+02  0.00000000000E+00 0. -1.
         13    1    3    3    0    0 -0.37072940394E+01  0.43953167696E+02 -0.65134820543E+02  0.78664921196E+02  0.00000000000E+00 0.  1.
<mgrwt>
<rscale>  0 0.90977967E+02</rscale>
<asrwt>0</asrwt>
<pdfrwt beam="2">  1        1 0.17777742E-01 0.90977967E+02</pdfrwt>
<pdfrwt beam="1">  1       -1 0.27549210E-02 0.90977967E+02</pdfrwt>
<totfact> 0.10767451E+05</totfact>
</mgrwt>
</event>
<event>
 5    1  0.6043464E+000  0.9080893E+02  0.7546771E-02  0.1300905E+00
         -2   -1    0    0    0  501 -0.00000000000E+00  0.00000000000E+00  0.22375195500E+03  0.22375195500E+03  0.00000000000E+00 0.  1.
          2   -1    0    0  501    0  0.00000000000E+00 -0.00000000000E+00 -0.92136193242E+01  0.92136193242E+01  0.00000000000E+00 0. -1.
         23    2    1    2    0    0  0.00000000000E+00  0.00000000000E+00  0.21453833567E+03  0.23296557432E+03  0.90808927675E+02 0.  0.
        -13    1    3    3    0    0 -0.30444456495E+02 -0.28033138041E+02  0.59353387264E+02  0.72357075255E+02  0.00000000000E+00 0. -1.
         13    1    3    3    0    0  0.30444456495E+02  0.28033138041E+02  0.15518494841E+03  0.16060849907E+03  0.00000000000E+00 0.  1.
<mgrwt>
<rscale>  0 0.90808928E+02</rscale>
<asrwt>0</asrwt>
<pdfrwt beam="2">  1        2 0.14174801E-02 0.90808928E+02</pdfrwt>
<pdfrwt beam="1">  1       -2 0.34423374E-01 0.90808928E+02</pdfrwt>
<totfact> 0.59876390E+04</totfact>
</mgrwt>
</event>
<event>
 5    1  0.6043464E+000  0.9709535E+02  0.7546771E-02  0.1286525E+00
          1   -1    0    0  501    0  0.00000000000E+00  0.00000000000E+00  0.28040818174E+03  0.28040818174E+03  0.00000000000E+00 0. -1.
         -1   -1    0    0    0  501 -0.00000000000E+00 -0.00000000000E+00 -0.84051647559E+01  0.84051647559E+01  0.00000000000E+00 0.  1.
         23    2    1    2    0    0  0.00000000000E+00  0.00000000000E+00  0.27200301699E+03  0.28881334650E+03  0.97095354502E+02 0.  0.
        -13    1    3    3    0    0 -0.42542616650E+02 -0.21077396725E+02  0.16615248919E+03  0.17280272147E+03  0.00000000000E+00 0. -1.
         13    1    3    3    0    0  0.42542616650E+02  0.21077396725E+02  0.10585052780E+03  0.11601062503E+03  0.00000000000E+00 0.  1.
<mgrwt>
<rscale>  0 0.97095355E+02</rscale>
<asrwt>0</asrwt>
<pdfrwt beam="1">  1        1 0.43139713E-01 0.97095355E+02</pdfrwt>
<pdfrwt beam="2">  1       -1 0.12931025E-02 0.97095355E+02</pdfrwt>
<totfact> 0.10687096E+05</totfact>
</mgrwt>
</event>
<event>
 5    1  0.6043464E+000  0.9872051E+02  0.7546771E-02  0.1283010E+00
         -2   -1    0    0    0  501 -0.00000000000E+00  0.00000000000E+00  0.19368511480E+02  0.19368511480E+02  0.00000000000E+00 0.  1.
          2   -1    0    0  501    0  0.00000000000E+00 -0.00000000000E+00 -0.12579359809E+03  0.12579359809E+03  0.00000000000E+00 0. -1.
         23    2    1    2    0    0  0.00000000000E+00  0.00000000000E+00 -0.10642508661E+03  0.14516210957E+03  0.98720509493E+02 0.  0.
        -13    1    3    3    0    0  0.23692436247E+02 -0.40470610310E+02 -0.30564360853E+02  0.55976620017E+02  0.00000000000E+00 0.  1.
         13    1    3    3    0    0 -0.23692436247E+02  0.40470610310E+02 -0.75860725756E+02  0.89185489551E+02  0.00000000000E+00 0. -1.
<mgrwt>
<rscale>  0 0.98720509E+02</rscale>
<asrwt>0</asrwt>
<pdfrwt beam="2">  1        2 0.19352861E-01 0.98720509E+02</pdfrwt>
<pdfrwt beam="1">  1       -2 0.29797710E-02 0.98720509E+02</pdfrwt>
<totfact> 0.10599527E+05</totfact>
</mgrwt>
</event>
<event>
 5    1  0.6043464E+000  0.9266046E+02  0.7546771E-02  0.1296534E+00
          2   -1    0    0  501    0  0.00000000000E+00  0.00000000000E+00  0.29380243624E+02  0.29380243624E+02  0.00000000000E+00 0. -1.
         -2   -1    0    0    0  501 -0.00000000000E+00 -0.00000000000E+00 -0.73058964667E+02  0.73058964667E+02  0.00000000000E+00 0.  1.
         23    2    1    2    0    0  0.00000000000E+00  0.00000000000E+00 -0.43678721043E+02  0.10243920829E+03  0.92660459330E+02 0.  0.
        -13    1    3    3    0    0 -0.36715429775E+02 -0.11166549136E+02  0.68571702940E+01  0.38983783649E+02  0.00000000000E+00 0. -1.
         13    1    3    3    0    0  0.36715429775E+02  0.11166549136E+02 -0.50535891337E+02  0.63455424641E+02  0.00000000000E+00 0.  1.
<mgrwt>
<rscale>  0 0.92660459E+02</rscale>
<asrwt>0</asrwt>
<pdfrwt beam="1">  1        2 0.45200375E-02 0.92660459E+02</pdfrwt>
<pdfrwt beam="2">  1       -2 0.11239841E-01 0.92660459E+02</pdfrwt>
<totfact> 0.83838929E+04</totfact>
</mgrwt>
</event>
<event>
 5    1  0.6043464E+000  0.9452511E+02  0.7546771E-02  0.1292249E+00
          2   -1    0    0  501    0  0.00000000000E+00  0.00000000000E+00  0.40263159584E+02  0.40263159584E+02  0.00000000000E+00 0. -1.
         -2   -1    0    0    0  501 -0.00000000000E+00 -0.00000000000E+00 -0.55478730944E+02  0.55478730944E+02  0.00000000000E+00 0.  1.
         23    2    1    2    0    0  0.00000000000E+00  0.00000000000E+00 -0.15215571360E+02  0.95741890529E+02  0.94525107724E+02 0.  0.
        -13    1    3    3    0    0  0.15752472068E+02 -0.38168355129E+02  0.15683555637E+02  0.44169419590E+02  0.00000000000E+00 0. -1.
         13    1    3    3    0    0 -0.15752472068E+02  0.38168355129E+02 -0.30899126997E+02  0.51572470938E+02  0.00000000000E+00 0.  1.
<mgrwt>
<rscale>  0 0.94525108E+02</rscale>
<asrwt>0</asrwt>
<pdfrwt beam="1">  1        2 0.61943323E-02 0.94525108E+02</pdfrwt>
<pdfrwt beam="2">  1       -2 0.85351894E-02 0.94525108E+02</pdfrwt>
<totfact> 0.86033405E+04</totfact>
</mgrwt>
</event>
<event>
 5    1  0.6043464E+000  0.9181948E+02  0.7546771E-02  0.1298504E+00
         -1   -1    0    0    0  501 -0.00000000000E+00  0.00000000000E+00  0.67665112258E+02  0.67665112258E+02  0.00000000000E+00 0.  1.
          1   -1    0    0  501    0  0.00000000000E+00 -0.00000000000E+00 -0.31149055846E+02  0.31149055846E+02  0.00000000000E+00 0. -1.
         23    2    1    2    0    0  0.00000000000E+00  0.00000000000E+00  0.36516056412E+02  0.98814168103E+02  0.91819482911E+02 0.  0.
        -13    1    3    3    0    0  0.22094359532E+02  0.88845368406E+01 -0.23982616785E+02  0.33797361226E+02  0.00000000000E+00 0. -1.
         13    1    3    3    0    0 -0.22094359532E+02 -0.88845368406E+01  0.60498673197E+02  0.65016806877E+02  0.00000000000E+00 0.  1.
<mgrwt>
<rscale>  0 0.91819483E+02</rscale>
<asrwt>0</asrwt>
<pdfrwt beam="2">  1        1 0.47921624E-02 0.91819483E+02</pdfrwt>
<pdfrwt beam="1">  1       -1 0.10410017E-01 0.91819483E+02</pdfrwt>
<totfact> 0.85469087E+04</totfact>
</mgrwt>
</event>
<event>
 5    1  0.6043464E+000  0.9276840E+02  0.7546771E-02  0.1296283E+00
          1   -1    0    0  501    0  0.00000000000E+00  0.00000000000E+00  0.48972670214E+02  0.48972670214E+02  0.00000000000E+00 0. -1.
         -1   -1    0    0    0  501 -0.00000000000E+00 -0.00000000000E+00 -0.43932548469E+02  0.43932548469E+02  0.00000000000E+00 0.  1.
         23    2    1    2    0    0  0.00000000000E+00  0.00000000000E+00  0.50401217449E+01  0.92905218683E+02  0.92768404273E+02 0.  0.
        -13    1    3    3    0    0 -0.38253918265E+01 -0.17551874774E+02  0.45347510521E+02  0.48776004769E+02  0.00000000000E+00 0. -1.
         13    1    3    3    0    0  0.38253918265E+01  0.17551874774E+02 -0.40307388776E+02  0.44129213914E+02  0.00000000000E+00 0.  1.
<mgrwt>
<rscale>  0 0.92768404E+02</rscale>
<asrwt>0</asrwt>
<pdfrwt beam="1">  1        1 0.75342569E-02 0.92768404E+02</pdfrwt>
<pdfrwt beam="2">  1       -1 0.67588537E-02 0.92768404E+02</pdfrwt>
<totfact> 0.89044276E+04</totfact>
</mgrwt>
</event>
<event>
 5    1  0.6043464E+000  0.9737591E+02  0.7546771E-02  0.1285913E+00
         -2   -1    0    0    0  501 -0.00000000000E+00  0.00000000000E+00  0.61147877421E+01  0.61147877421E+01  0.00000000000E+00 0.  1.
          2   -1    0    0  501    0  0.00000000000E+00 -0.00000000000E+00 -0.38766951996E+03  0.38766951996E+03  0.00000000000E+00 0. -1.
         23    2    1    2    0    0  0.00000000000E+00  0.00000000000E+00 -0.38155473222E+03  0.39378430770E+03  0.97375907259E+02 0.  0.
        -13    1    3    3    0    0 -0.91986057794E+01  0.47811110733E+02 -0.19083022562E+03  0.19694337173E+03  0.00000000000E+00 0. -1.
         13    1    3    3    0    0  0.91986057794E+01 -0.47811110733E+02 -0.19072450659E+03  0.19684093597E+03  0.00000000000E+00 0.  1.
<mgrwt>
<rscale>  0 0.97375907E+02</rscale>
<asrwt>0</asrwt>
<pdfrwt beam="2">  1        2 0.59641455E-01 0.97375907E+02</pdfrwt>
<pdfrwt beam="1">  1       -2 0.94073673E-03 0.97375907E+02</pdfrwt>
<totfact> 0.16563645E+05</totfact>
</mgrwt>
</event>
<event>
 5    1  0.6043464E+000  0.8872891E+02  0.7546771E-02  0.1305959E+00
          2   -1    0    0  501    0  0.00000000000E+00  0.00000000000E+00  0.22206574251E+03  0.22206574251E+03  0.00000000000E+00 0. -1.
         -2   -1    0    0    0  501 -0.00000000000E+00 -0.00000000000E+00 -0.88631638851E+01  0.88631638851E+01  0.00000000000E+00 0.  1.
         23    2    1    2    0    0  0.00000000000E+00  0.00000000000E+00  0.21320257863E+03  0.23092890640E+03  0.88728914546E+02 0.  0.
        -13    1    3    3    0    0 -0.57993411777E+01  0.35112923492E+02  0.37660692324E+02  0.51815803579E+02  0.00000000000E+00 0.  1.
         13    1    3    3    0    0  0.57993411777E+01 -0.35112923492E+02  0.17554188630E+03  0.17911310282E+03  0.00000000000E+00 0. -1.
<mgrwt>
<rscale>  0 0.88728915E+02</rscale>
<asrwt>0</asrwt>
<pdfrwt beam="1">  1        2 0.34163956E-01 0.88728915E+02</pdfrwt>
<pdfrwt beam="2">  1       -2 0.13635638E-02 0.88728915E+02</pdfrwt>
<totfact> 0.17284508E+05</totfact>
</mgrwt>
</event>
<event>
 4    1  0.6043464E+000  0.5374969E+02  0.7546771E-02  0.1426106E+00
          1   -1    0    0  501    0  0.00000000000E+00  0.00000000000E+00  0.44056859852E+02  0.44056859852E+02  0.00000000000E+00 0. -1.
         -1   -1    0    0    0  501 -0.00000000000E+00 -0.00000000000E+00 -0.16393753501E+02  0.16393753501E+02  0.00000000000E+00 0.  1.
        -13    1    1    2    0    0  0.16077655166E+02  0.14841214928E+01 -0.10330874295E+02  0.19168217861E+02  0.00000000000E+00 0.  1.
         13    1    1    2    0    0 -0.16077655166E+02 -0.14841214928E+01  0.37993980646E+02  0.41282395492E+02  0.00000000000E+00 0. -1.
<mgrwt>
<rscale>  0 0.53749690E+02</rscale>
<asrwt>0</asrwt>
<pdfrwt beam="1">  1        1 0.67779784E-02 0.53749690E+02</pdfrwt>
<pdfrwt beam="2">  1       -1 0.25221159E-02 0.53749690E+02</pdfrwt>
<totfact> 0.38230267E+05</totfact>
</mgrwt>
</event>
<event>
 5    1  0.6043464E+000  0.1046541E+03  0.7546771E-02  0.1270803E+00
          2   -1    0    0  501    0  0.00000000000E+00  0.00000000000E+00  0.27937529789E+03  0.27937529789E+03  0.00000000000E+00 0. -1.
         -2   -1    0    0    0  501 -0.00000000000E+00 -0.00000000000E+00 -0.98008740174E+01  0.98008740174E+01  0.00000000000E+00 0.  1.
         23    2    1    2    0    0  0.00000000000E+00  0.00000000000E+00  0.26957442387E+03  0.28917617191E+03  0.10465413701E+03 0.  0.
        -13    1    3    3    0    0  0.15627734467E+02 -0.49869064181E+02  0.12749097633E+03  0.13778642419E+03  0.00000000000E+00 0.  1.
         13    1    3    3    0    0 -0.15627734467E+02  0.49869064181E+02  0.14208344754E+03  0.15138974771E+03  0.00000000000E+00 0. -1.
<mgrwt>
<rscale>  0 0.10465414E+03</rscale>
<asrwt>0</asrwt>
<pdfrwt beam="1">  1        2 0.42980809E-01 0.10465414E+03</pdfrwt>
<pdfrwt beam="2">  1       -2 0.15078270E-02 0.10465414E+03</pdfrwt>
<totfact> 0.12068002E+05</totfact>
</mgrwt>
</event>
<event>
 5    1  0.6043464E+000  0.7867916E+02  0.7546771E-02  0.1332842E+00
         -2   -1    0    0    0  501 -0.00000000000E+00  0.00000000000E+00  0.66634831160E+01  0.66634831160E+01  0.00000000000E+00 0. -1.
          2   -1    0    0  501    0  0.00000000000E+00 -0.00000000000E+00 -0.23225128725E+03  0.23225128725E+03  0.00000000000E+00 0.  1.
         23    2    1    2    0    0  0.00000000000E+00  0.00000000000E+00 -0.22558780413E+03  0.23891477036E+03  0.78679159406E+02 0.  0.
        -13    1    3    3    0    0  0.16263351246E+02 -0.34754839253E+02 -0.86460154433E+02  0.94592567096E+02  0.00000000000E+00 0. -1.
         13    1    3    3    0    0 -0.16263351246E+02  0.34754839253E+02 -0.13912764970E+03  0.14432220327E+03  0.00000000000E+00 0.  1.
<mgrwt>
<rscale>  0 0.78679159E+02</rscale>
<asrwt>0</asrwt>
<pdfrwt beam="2">  1        2 0.35730967E-01 0.78679159E+02</pdfrwt>
<pdfrwt beam="1">  1       -2 0.10251513E-02 0.78679159E+02</pdfrwt>
<totfact> 0.24175440E+05</totfact>
</mgrwt>
</event>
<event>
 5    1  0.6043464E+000  0.8555978E+02  0.7546771E-02  0.1313975E+00
          1   -1    0    0  501    0  0.00000000000E+00  0.00000000000E+00  0.25641076016E+02  0.25641076016E+02  0.00000000000E+00 0. -1.
         -1   -1    0    0    0  501 -0.00000000000E+00 -0.00000000000E+00 -0.71374496394E+02  0.71374496394E+02  0.00000000000E+00 0.  1.
         23    2    1    2    0    0  0.00000000000E+00  0.00000000000E+00 -0.45733420379E+02  0.97015572410E+02  0.85559777644E+02 0.  0.
        -13    1    3    3    0    0  0.36863332770E+02  0.18637670359E+02 -0.10247817101E+02  0.42559203642E+02  0.00000000000E+00 0.  1.
         13    1    3    3    0    0 -0.36863332770E+02 -0.18637670359E+02 -0.35485603278E+02  0.54456368768E+02  0.00000000000E+00 0. -1.
<mgrwt>
<rscale>  0 0.85559778E+02</rscale>
<asrwt>0</asrwt>
<pdfrwt beam="1">  1        1 0.39447810E-02 0.85559778E+02</pdfrwt>
<pdfrwt beam="2">  1       -1 0.10980692E-01 0.85559778E+02</pdfrwt>
<totfact> 0.10143457E+05</totfact>
</mgrwt>
</event>
<event>
 5    1  0.6043464E+000  0.1054551E+03  0.7546771E-02  0.1269226E+00
         -2   -1    0    0    0  501 -0.00000000000E+00  0.00000000000E+00  0.29076771192E+03  0.29076771192E+03  0.00000000000E+00 0.  1.
          2   -1    0    0  501    0  0.00000000000E+00 -0.00000000000E+00 -0.95615657256E+01  0.95615657256E+01  0.00000000000E+00 0. -1.
         23    2    1    2    0    0  0.00000000000E+00  0.00000000000E+00  0.28120614619E+03  0.30032927765E+03  0.10545510113E+03 0.  0.
        -13    1    3    3    0    0  0.42074676748E+02  0.93935670136E+01  0.22706391678E+03  0.23112018481E+03  0.00000000000E+00 0.  1.
         13    1    3    3    0    0 -0.42074676748E+02 -0.93935670136E+01  0.54142229414E+02  0.69209092832E+02  0.00000000000E+00 0. -1.
<mgrwt>
<rscale>  0 0.10545510E+03</rscale>
<asrwt>0</asrwt>
<pdfrwt beam="2">  1        2 0.14710103E-02 0.10545510E+03</pdfrwt>
<pdfrwt beam="1">  1       -2 0.44733487E-01 0.10545510E+03</pdfrwt>
<totfact> 0.35643817E+04</totfact>
</mgrwt>
</event>
<event>
 5    1  0.6043464E+000  0.8822351E+02  0.7546771E-02  0.1307212E+00
          1   -1    0    0  501    0  0.00000000000E+00  0.00000000000E+00  0.13902405256E+03  0.13902405256E+03  0.00000000000E+00 0. -1.
         -1   -1    0    0    0  501 -0.00000000000E+00 -0.00000000000E+00 -0.13996478177E+02  0.13996478177E+02  0.00000000000E+00 0.  1.
         23    2    1    2    0    0  0.00000000000E+00  0.00000000000E+00  0.12502757438E+03  0.15302053074E+03  0.88223514276E+02 0.  0.
        -13    1    3    3    0    0 -0.26648695631E+02  0.33916634389E+02  0.78538214118E+02  0.89603248512E+02  0.00000000000E+00 0.  1.
         13    1    3    3    0    0  0.26648695631E+02 -0.33916634389E+02  0.46489360266E+02  0.63417282227E+02  0.00000000000E+00 0. -1.
<mgrwt>
<rscale>  0 0.88223514E+02</rscale>
<asrwt>0</asrwt>
<pdfrwt beam="1">  1        1 0.21388315E-01 0.88223514E+02</pdfrwt>
<pdfrwt beam="2">  1       -1 0.21533044E-02 0.88223514E+02</pdfrwt>
<totfact> 0.12085285E+05</totfact>
</mgrwt>
</event>
<event>
 5    1  0.6043464E+000  0.8188628E+02  0.7546771E-02  0.1323782E+00
          1   -1    0    0  501    0  0.00000000000E+00  0.00000000000E+00  0.14194595981E+02  0.14194595981E+02  0.00000000000E+00 0.  1.
         -1   -1    0    0    0  501 -0.00000000000E+00 -0.00000000000E+00 -0.11809711873E+03  0.11809711873E+03  0.00000000000E+00 0. -1.
         23    2    1    2    0    0  0.00000000000E+00  0.00000000000E+00 -0.10390252275E+03  0.13229171472E+03  0.81886284247E+02 0.  0.
        -13    1    3    3    0    0 -0.12390185891E+02 -0.24222743480E+02 -0.10137989805E+03  0.10496733653E+03  0.00000000000E+00 0. -1.
         13    1    3    3    0    0  0.12390185891E+02  0.24222743480E+02 -0.25226247016E+01  0.27324378191E+02  0.00000000000E+00 0.  1.
<mgrwt>
<rscale>  0 0.81886284E+02</rscale>
<asrwt>0</asrwt>
<pdfrwt beam="1">  1        1 0.21837840E-02 0.81886284E+02</pdfrwt>
<pdfrwt beam="2">  1       -1 0.18168787E-01 0.81886284E+02</pdfrwt>
<totfact> 0.10392413E+05</totfact>
</mgrwt>
</event>
<event>
 5    1  0.6043464E+000  0.9055808E+02  0.7546771E-02  0.1301506E+00
          3   -1    0    0  501    0  0.00000000000E+00  0.00000000000E+00  0.87436273946E+02  0.87436273946E+02  0.00000000000E+00 0. -1.
         -3   -1    0    0    0  501 -0.00000000000E+00 -0.00000000000E+00 -0.23447835537E+02  0.23447835537E+02  0.00000000000E+00 0.  1.
         23    2    1    2    0    0  0.00000000000E+00  0.00000000000E+00  0.63988438409E+02  0.11088410948E+03  0.90558077971E+02 0.  0.
        -13    1    3    3    0    0  0.41438029312E+02  0.53145304330E+01  0.10615786674E+02  0.43105097538E+02  0.00000000000E+00 0. -1.
         13    1    3    3    0    0 -0.41438029312E+02 -0.53145304330E+01  0.53372651735E+02  0.67779011945E+02  0.00000000000E+00 0.  1.
<mgrwt>
<rscale>  0 0.90558078E+02</rscale>
<asrwt>0</asrwt>
<pdfrwt beam="1">  1        3 0.13451734E-01 0.90558078E+02</pdfrwt>
<pdfrwt beam="2">  1       -3 0.36073594E-02 0.90558078E+02</pdfrwt>
<totfact> 0.34513841E+04</totfact>
</mgrwt>
</event>
<event>
 5    1  0.6043464E+000  0.9451401E+02  0.7546771E-02  0.1292274E+00
          1   -1    0    0  501    0  0.00000000000E+00  0.00000000000E+00  0.91376277700E+01  0.91376277700E+01  0.00000000000E+00 0. -1.
         -1   -1    0    0    0  501 -0.00000000000E+00 -0.00000000000E+00 -0.24439873125E+03  0.24439873125E+03  0.00000000000E+00 0.  1.
         23    2    1    2    0    0  0.00000000000E+00  0.00000000000E+00 -0.23526110348E+03  0.25353635902E+03  0.94514012371E+02 0.  0.
        -13    1    3    3    0    0  0.32787691946E+02 -0.23513155315E+02 -0.18362961726E+03  0.18800994003E+03  0.00000000000E+00 0.  1.
         13    1    3    3    0    0 -0.32787691946E+02  0.23513155315E+02 -0.51631486217E+02  0.65526418984E+02  0.00000000000E+00 0. -1.
<mgrwt>
<rscale>  0 0.94514012E+02</rscale>
<asrwt>0</asrwt>
<pdfrwt beam="1">  1        1 0.14057889E-02 0.94514012E+02</pdfrwt>
<pdfrwt beam="2">  1       -1 0.37599806E-01 0.94514012E+02</pdfrwt>
<totfact> 0.59403784E+04</totfact>
</mgrwt>
</event>
<event>
 5    1  0.6043464E+000  0.9049338E+02  0.7546771E-02  0.1301661E+00
         -2   -1    0    0    0  501 -0.00000000000E+00  0.00000000000E+00  0.87257564517E+02  0.87257564517E+02  0.00000000000E+00 0.  1.
          2   -1    0    0  501    0  0.00000000000E+00 -0.00000000000E+00 -0.23462295645E+02  0.23462295645E+02  0.00000000000E+00 0. -1.
         23    2    1    2    0    0  0.00000000000E+00  0.00000000000E+00  0.63795268872E+02  0.11071986016E+03  0.90493376021E+02 0.  0.
        -13    1    3    3    0    0 -0.22125748624E+02  0.38758055887E+02  0.22780437370E+02  0.50106725847E+02  0.00000000000E+00 0. -1.
         13    1    3    3    0    0  0.22125748624E+02 -0.38758055887E+02  0.41014831502E+02  0.60613134315E+02  0.00000000000E+00 0.  1.
<mgrwt>
<rscale>  0 0.90493376E+02</rscale>
<asrwt>0</asrwt>
<pdfrwt beam="2">  1        2 0.36095840E-02 0.90493376E+02</pdfrwt>
<pdfrwt beam="1">  1       -2 0.13424241E-01 0.90493376E+02</pdfrwt>
<totfact> 0.84591669E+04</totfact>
</mgrwt>
</event>
<event>
 5    1  0.6043464E+000  0.9056413E+02  0.7546771E-02  0.1301491E+00
         -1   -1    0    0    0  501 -0.00000000000E+00  0.00000000000E+00  0.72992857919E+02  0.72992857919E+02  0.00000000000E+00 0.  1.
          1   -1    0    0  501    0  0.00000000000E+00 -0.00000000000E+00 -0.28091318273E+02  0.28091318273E+02  0.00000000000E+00 0. -1.
         23    2    1    2    0    0  0.00000000000E+00  0.00000000000E+00  0.44901539647E+02  0.10108417619E+03  0.90564134257E+02 0.  0.
        -13    1    3    3    0    0 -0.15763856446E+02  0.18133113195E+02 -0.20389421321E+02  0.31512496981E+02  0.00000000000E+00 0. -1.
         13    1    3    3    0    0  0.15763856446E+02 -0.18133113195E+02  0.65290960967E+02  0.69571679211E+02  0.00000000000E+00 0.  1.
<mgrwt>
<rscale>  0 0.90564134E+02</rscale>
<asrwt>0</asrwt>
<pdfrwt beam="2">  1        1 0.43217413E-02 0.90564134E+02</pdfrwt>
<pdfrwt beam="1">  1       -1 0.11229670E-01 0.90564134E+02</pdfrwt>
<totfact> 0.87442879E+04</totfact>
</mgrwt>
</event>
<event>
 5    1  0.6043464E+000  0.9224311E+02  0.7546771E-02  0.1297509E+00
          1   -1    0    0  501    0  0.00000000000E+00  0.00000000000E+00  0.28836092901E+03  0.28836092901E+03  0.00000000000E+00 0.  1.
         -1   -1    0    0    0  501 -0.00000000000E+00 -0.00000000000E+00 -0.73768592791E+01  0.73768592791E+01  0.00000000000E+00 0. -1.
         23    2    1    2    0    0  0.00000000000E+00  0.00000000000E+00  0.28098406973E+03  0.29573778828E+03  0.92243113453E+02 0.  0.
        -13    1    3    3    0    0  0.30598013814E+02 -0.22203301480E+02  0.55790327811E+02  0.67392772040E+02  0.00000000000E+00 0. -1.
         13    1    3    3    0    0 -0.30598013814E+02  0.22203301480E+02  0.22519374191E+03  0.22834501624E+03  0.00000000000E+00 0.  1.
<mgrwt>
<rscale>  0 0.92243113E+02</rscale>
<asrwt>0</asrwt>
<pdfrwt beam="1">  1        1 0.44363211E-01 0.92243113E+02</pdfrwt>
<pdfrwt beam="2">  1       -1 0.11349016E-02 0.92243113E+02</pdfrwt>
<totfact> 0.12326834E+05</totfact>
</mgrwt>
</event>
<event>
 5    1  0.6043464E+000  0.9105133E+02  0.7546771E-02  0.1300326E+00
         -3   -1    0    0    0  501 -0.00000000000E+00  0.00000000000E+00  0.76682662508E+01  0.76682662508E+01  0.00000000000E+00 0.  1.
          3   -1    0    0  501    0  0.00000000000E+00 -0.00000000000E+00 -0.27028093675E+03  0.27028093675E+03  0.00000000000E+00 0. -1.
         23    2    1    2    0    0  0.00000000000E+00  0.00000000000E+00 -0.26261267050E+03  0.27794920301E+03  0.91051330260E+02 0.  0.
        -13    1    3    3    0    0  0.37692422335E+02 -0.13479150184E+02 -0.65113465347E+02  0.76434086379E+02  0.00000000000E+00 0.  1.
         13    1    3    3    0    0 -0.37692422335E+02  0.13479150184E+02 -0.19749920516E+03  0.20151511663E+03  0.00000000000E+00 0. -1.
<mgrwt>
<rscale>  0 0.91051330E+02</rscale>
<asrwt>0</asrwt>
<pdfrwt beam="2">  1        3 0.41581682E-01 0.91051330E+02</pdfrwt>
<pdfrwt beam="1">  1       -3 0.11797333E-02 0.91051330E+02</pdfrwt>
<totfact> 0.25002670E+04</totfact>
</mgrwt>
</event>
<event>
 5    1  0.6043464E+000  0.9202364E+02  0.7546771E-02  0.1298024E+00
         -1   -1    0    0    0  501 -0.00000000000E+00  0.00000000000E+00  0.41696495345E+02  0.41696495345E+02  0.00000000000E+00 0.  1.
          1   -1    0    0  501    0  0.00000000000E+00 -0.00000000000E+00 -0.50773749701E+02  0.50773749701E+02  0.00000000000E+00 0. -1.
         23    2    1    2    0    0  0.00000000000E+00  0.00000000000E+00 -0.90772543558E+01  0.92470245046E+02  0.92023636487E+02 0.  0.
        -13    1    3    3    0    0  0.12264309722E+02  0.27032218793E+02  0.30787833593E+02  0.42767333833E+02  0.00000000000E+00 0.  1.
         13    1    3    3    0    0 -0.12264309722E+02 -0.27032218793E+02 -0.39865087949E+02  0.49702911213E+02  0.00000000000E+00 0. -1.
<mgrwt>
<rscale>  0 0.92023636E+02</rscale>
<asrwt>0</asrwt>
<pdfrwt beam="2">  1        1 0.78113461E-02 0.92023636E+02</pdfrwt>
<pdfrwt beam="1">  1       -1 0.64148455E-02 0.92023636E+02</pdfrwt>
<totfact> 0.91580383E+04</totfact>
</mgrwt>
</event>
<event>
 5    1  0.6043464E+000  0.9046123E+02  0.7546771E-02  0.1301739E+00
          1   -1    0    0  501    0  0.00000000000E+00  0.00000000000E+00  0.21947279704E+03  0.21947279704E+03  0.00000000000E+00 0. -1.
         -1   -1    0    0    0  501 -0.00000000000E+00 -0.00000000000E+00 -0.93214674407E+01  0.93214674407E+01  0.00000000000E+00 0.  1.
         23    2    1    2    0    0  0.00000000000E+00  0.00000000000E+00  0.21015132960E+03  0.22879426448E+03  0.90461229966E+02 0.  0.
        -13    1    3    3    0    0 -0.33832386722E+02 -0.13505239097E+02  0.37267397317E+02  0.52114113032E+02  0.00000000000E+00 0.  1.
         13    1    3    3    0    0  0.33832386722E+02  0.13505239097E+02  0.17288393228E+03  0.17668015145E+03  0.00000000000E+00 0. -1.
<mgrwt>
<rscale>  0 0.90461230E+02</rscale>
<asrwt>0</asrwt>
<pdfrwt beam="1">  1        1 0.33765042E-01 0.90461230E+02</pdfrwt>
<pdfrwt beam="2">  1       -1 0.14340721E-02 0.90461230E+02</pdfrwt>
<totfact> 0.12313517E+05</totfact>
</mgrwt>
</event>
<event>
 5    1  0.6043464E+000  0.9260280E+02  0.7546771E-02  0.1296668E+00
         -1   -1    0    0    0  501 -0.00000000000E+00  0.00000000000E+00  0.37546860971E+02  0.37546860971E+02  0.00000000000E+00 0.  1.
          1   -1    0    0  501    0  0.00000000000E+00 -0.00000000000E+00 -0.57097175711E+02  0.57097175711E+02  0.00000000000E+00 0. -1.
         23    2    1    2    0    0  0.00000000000E+00  0.00000000000E+00 -0.19550314740E+02  0.94644036682E+02  0.92602801648E+02 0.  0.
        -13    1    3    3    0    0 -0.10651999081E+02 -0.41859165599E+02  0.72707562983E+01  0.43800898692E+02  0.00000000000E+00 0.  1.
         13    1    3    3    0    0  0.10651999081E+02  0.41859165599E+02 -0.26821071039E+02  0.50843137991E+02  0.00000000000E+00 0. -1.
<mgrwt>
<rscale>  0 0.92602802E+02</rscale>
<asrwt>0</asrwt>
<pdfrwt beam="2">  1        1 0.87841809E-02 0.92602802E+02</pdfrwt>
<pdfrwt beam="1">  1       -1 0.57764402E-02 0.92602802E+02</pdfrwt>
<totfact> 0.91606047E+04</totfact>
</mgrwt>
</event>
<event>
 5    1  0.6043464E+000  0.1086012E+03  0.7546771E-02  0.1263182E+00
         -2   -1    0    0    0  501 -0.00000000000E+00  0.00000000000E+00  0.12849641562E+02  0.12849641562E+02  0.00000000000E+00 0.  1.
          2   -1    0    0  501    0  0.00000000000E+00 -0.00000000000E+00 -0.22946582864E+03  0.22946582864E+03  0.00000000000E+00 0. -1.
         23    2    1    2    0    0  0.00000000000E+00  0.00000000000E+00 -0.21661618708E+03  0.24231547020E+03  0.10860117216E+03 0.  0.
        -13    1    3    3    0    0 -0.37113237704E+02 -0.33193272060E+02 -0.15664772482E+03  0.16437060386E+03  0.00000000000E+00 0.  1.
         13    1    3    3    0    0  0.37113237704E+02  0.33193272060E+02 -0.59968462255E+02  0.77944866336E+02  0.00000000000E+00 0. -1.
<mgrwt>
<rscale>  0 0.10860117E+03</rscale>
<asrwt>0</asrwt>
<pdfrwt beam="2">  1        2 0.35302431E-01 0.10860117E+03</pdfrwt>
<pdfrwt beam="1">  1       -2 0.19768682E-02 0.10860117E+03</pdfrwt>
<totfact> 0.10121111E+05</totfact>
</mgrwt>
</event>
<event>
 5    1  0.6043464E+000  0.9294226E+02  0.7546771E-02  0.1295879E+00
          2   -1    0    0  501    0  0.00000000000E+00  0.00000000000E+00  0.21967464535E+03  0.21967464535E+03  0.00000000000E+00 0. -1.
         -2   -1    0    0    0  501 -0.00000000000E+00 -0.00000000000E+00 -0.98307480242E+01  0.98307480242E+01  0.00000000000E+00 0.  1.
         23    2    1    2    0    0  0.00000000000E+00  0.00000000000E+00  0.20984389733E+03  0.22950539338E+03  0.92942263493E+02 0.  0.
        -13    1    3    3    0    0  0.63129470796E+01  0.45780004535E+02  0.92848963525E+02  0.10371399203E+03  0.00000000000E+00 0.  1.
         13    1    3    3    0    0 -0.63129470796E+01 -0.45780004535E+02  0.11699493380E+03  0.12579140134E+03  0.00000000000E+00 0. -1.
<mgrwt>
<rscale>  0 0.92942263E+02</rscale>
<asrwt>0</asrwt>
<pdfrwt beam="1">  1        2 0.33796096E-01 0.92942263E+02</pdfrwt>
<pdfrwt beam="2">  1       -2 0.15124229E-02 0.92942263E+02</pdfrwt>
<totfact> 0.15200257E+05</totfact>
</mgrwt>
</event>
<event>
 5    1  0.6043464E+000  0.9117877E+02  0.7546771E-02  0.1300022E+00
         -4   -1    0    0    0  501 -0.00000000000E+00  0.00000000000E+00  0.13134766010E+03  0.13134766010E+03  0.00000000000E+00 0.  1.
          4   -1    0    0  501    0  0.00000000000E+00 -0.00000000000E+00 -0.15823594134E+02  0.15823594134E+02  0.00000000000E+00 0. -1.
         23    2    1    2    0    0  0.00000000000E+00  0.00000000000E+00  0.11552406596E+03  0.14717125423E+03  0.91178770858E+02 0.  0.
        -13    1    3    3    0    0 -0.42604060962E+02 -0.15669644307E+01  0.31693980239E+02  0.53123156640E+02  0.00000000000E+00 0. -1.
         13    1    3    3    0    0  0.42604060962E+02  0.15669644307E+01  0.83830085723E+02  0.94048097590E+02  0.00000000000E+00 0.  1.
<mgrwt>
<rscale>  0 0.91178771E+02</rscale>
<asrwt>0</asrwt>
<pdfrwt beam="2">  1        4 0.24343992E-02 0.91178771E+02</pdfrwt>
<pdfrwt beam="1">  1       -4 0.20207332E-01 0.91178771E+02</pdfrwt>
<totfact> 0.23814550E+04</totfact>
</mgrwt>
</event>
<event>
 5    1  0.6043464E+000  0.9240184E+02  0.7546771E-02  0.1297137E+00
          4   -1    0    0  501    0  0.00000000000E+00  0.00000000000E+00  0.70076527311E+01  0.70076527311E+01  0.00000000000E+00 0. -1.
         -4   -1    0    0    0  501 -0.00000000000E+00 -0.00000000000E+00 -0.30459915264E+03  0.30459915264E+03  0.00000000000E+00 0.  1.
         23    2    1    2    0    0  0.00000000000E+00  0.00000000000E+00 -0.29759149991E+03  0.31160680537E+03  0.92401841625E+02 0.  0.
        -13    1    3    3    0    0  0.39576467209E+02  0.93937255588E+01 -0.74913399418E+02  0.85244098030E+02  0.00000000000E+00 0. -1.
         13    1    3    3    0    0 -0.39576467209E+02 -0.93937255588E+01 -0.22267810049E+03  0.22636270734E+03  0.00000000000E+00 0.  1.
<mgrwt>
<rscale>  0 0.92401842E+02</rscale>
<asrwt>0</asrwt>
<pdfrwt beam="1">  1        4 0.10781005E-02 0.92401842E+02</pdfrwt>
<pdfrwt beam="2">  1       -4 0.46861406E-01 0.92401842E+02</pdfrwt>
<totfact> 0.16861743E+04</totfact>
</mgrwt>
</event>
<event>
 5    1  0.6043464E+000  0.9161919E+02  0.7546771E-02  0.1298977E+00
         -2   -1    0    0    0  501 -0.00000000000E+00  0.00000000000E+00  0.89955754600E+01  0.89955754600E+01  0.00000000000E+00 0.  1.
          2   -1    0    0  501    0  0.00000000000E+00 -0.00000000000E+00 -0.23328346112E+03  0.23328346112E+03  0.00000000000E+00 0. -1.
         23    2    1    2    0    0  0.00000000000E+00  0.00000000000E+00 -0.22428788566E+03  0.24227903658E+03  0.91619189651E+02 0.  0.
        -13    1    3    3    0    0  0.17746774633E+02 -0.37871275564E+02 -0.62718340790E+02  0.75384161428E+02  0.00000000000E+00 0.  1.
         13    1    3    3    0    0 -0.17746774633E+02  0.37871275564E+02 -0.16156954487E+03  0.16689487516E+03  0.00000000000E+00 0. -1.
<mgrwt>
<rscale>  0 0.91619190E+02</rscale>
<asrwt>0</asrwt>
<pdfrwt beam="2">  1        2 0.35889759E-01 0.91619190E+02</pdfrwt>
<pdfrwt beam="1">  1       -2 0.13839349E-02 0.91619190E+02</pdfrwt>
<totfact> 0.16151334E+05</totfact>
</mgrwt>
</event>
<event>
 5    1  0.6043464E+000  0.9164836E+02  0.7546771E-02  0.1298908E+00
          2   -1    0    0  501    0  0.00000000000E+00  0.00000000000E+00  0.13525046219E+02  0.13525046219E+02  0.00000000000E+00 0. -1.
         -2   -1    0    0    0  501 -0.00000000000E+00 -0.00000000000E+00 -0.15525681876E+03  0.15525681876E+03  0.00000000000E+00 0.  1.
         23    2    1    2    0    0  0.00000000000E+00  0.00000000000E+00 -0.14173177254E+03  0.16878186498E+03  0.91648363861E+02 0.  0.
        -13    1    3    3    0    0 -0.36942959017E+01 -0.41280045631E+02 -0.10686790848E+03  0.11462303369E+03  0.00000000000E+00 0.  1.
         13    1    3    3    0    0  0.36942959017E+01  0.41280045631E+02 -0.34863864067E+02  0.54158831294E+02  0.00000000000E+00 0. -1.
<mgrwt>
<rscale>  0 0.91648364E+02</rscale>
<asrwt>0</asrwt>
<pdfrwt beam="1">  1        2 0.20807764E-02 0.91648364E+02</pdfrwt>
<pdfrwt beam="2">  1       -2 0.23885664E-01 0.91648364E+02</pdfrwt>
<totfact> 0.68080818E+04</totfact>
</mgrwt>
</event>
<event>
 5    1  0.6043464E+000  0.9103577E+02  0.7546771E-02  0.1300363E+00
         -2   -1    0    0    0  501 -0.00000000000E+00  0.00000000000E+00  0.21324222191E+02  0.21324222191E+02  0.00000000000E+00 0.  1.
          2   -1    0    0  501    0  0.00000000000E+00 -0.00000000000E+00 -0.97160779429E+02  0.97160779429E+02  0.00000000000E+00 0. -1.
         23    2    1    2    0    0  0.00000000000E+00  0.00000000000E+00 -0.75836557238E+02  0.11848500162E+03  0.91035774261E+02 0.  0.
        -13    1    3    3    0    0  0.44051984428E+02 -0.75914983811E+01 -0.26747170948E+02  0.52092411476E+02  0.00000000000E+00 0.  1.
         13    1    3    3    0    0 -0.44051984428E+02  0.75914983811E+01 -0.49089386289E+02  0.66392590143E+02  0.00000000000E+00 0. -1.
<mgrwt>
<rscale>  0 0.91035774E+02</rscale>
<asrwt>0</asrwt>
<pdfrwt beam="2">  1        2 0.14947812E-01 0.91035774E+02</pdfrwt>
<pdfrwt beam="1">  1       -2 0.32806496E-02 0.91035774E+02</pdfrwt>
<totfact> 0.12212973E+05</totfact>
</mgrwt>
</event>
<event>
 5    1  0.6043464E+000  0.9187057E+02  0.7546771E-02  0.1298384E+00
          1   -1    0    0  501    0  0.00000000000E+00  0.00000000000E+00  0.13127718246E+02  0.13127718246E+02  0.00000000000E+00 0. -1.
         -1   -1    0    0    0  501 -0.00000000000E+00 -0.00000000000E+00 -0.16073244428E+03  0.16073244428E+03  0.00000000000E+00 0.  1.
         23    2    1    2    0    0  0.00000000000E+00  0.00000000000E+00 -0.14760472604E+03  0.17386016253E+03  0.91870566377E+02 0.  0.
        -13    1    3    3    0    0  0.45313671250E+02  0.50787774189E+01 -0.63278000236E+02  0.77995051741E+02  0.00000000000E+00 0.  1.
         13    1    3    3    0    0 -0.45313671250E+02 -0.50787774189E+01 -0.84326725802E+02  0.95865110790E+02  0.00000000000E+00 0. -1.
<mgrwt>
<rscale>  0 0.91870566E+02</rscale>
<asrwt>0</asrwt>
<pdfrwt beam="1">  1        1 0.20196488E-02 0.91870566E+02</pdfrwt>
<pdfrwt beam="2">  1       -1 0.24728070E-01 0.91870566E+02</pdfrwt>
<totfact> 0.72124969E+04</totfact>
</mgrwt>
</event>
<event>
 5    1  0.6043464E+000  0.9178829E+02  0.7546771E-02  0.1298578E+00
         -3   -1    0    0    0  501 -0.00000000000E+00  0.00000000000E+00  0.32434295650E+03  0.32434295650E+03  0.00000000000E+00 0.  1.
          3   -1    0    0  501    0  0.00000000000E+00 -0.00000000000E+00 -0.64939671629E+01  0.64939671629E+01  0.00000000000E+00 0. -1.
         23    2    1    2    0    0  0.00000000000E+00  0.00000000000E+00  0.31784898934E+03  0.33083692367E+03  0.91788289211E+02 0.  0.
        -13    1    3    3    0    0  0.35316297146E+02 -0.22362028985E+02  0.22721441048E+03  0.23102746484E+03  0.00000000000E+00 0.  1.
         13    1    3    3    0    0 -0.35316297146E+02  0.22362028985E+02  0.90634578865E+02  0.99809458822E+02  0.00000000000E+00 0. -1.
<mgrwt>
<rscale>  0 0.91788289E+02</rscale>
<asrwt>0</asrwt>
<pdfrwt beam="2">  1        3 0.99907212E-03 0.91788289E+02</pdfrwt>
<pdfrwt beam="1">  1       -3 0.49898904E-01 0.91788289E+02</pdfrwt>
<totfact> 0.22468456E+04</totfact>
</mgrwt>
</event>
<event>
 5    1  0.6043464E+000  0.9157428E+02  0.7546771E-02  0.1299084E+00
         -3   -1    0    0    0  501 -0.00000000000E+00  0.00000000000E+00  0.31044359643E+02  0.31044359643E+02  0.00000000000E+00 0.  1.
          3   -1    0    0  501    0  0.00000000000E+00 -0.00000000000E+00 -0.67531175500E+02  0.67531175500E+02  0.00000000000E+00 0. -1.
         23    2    1    2    0    0  0.00000000000E+00  0.00000000000E+00 -0.36486815857E+02  0.98575535144E+02  0.91574278034E+02 0.  0.
        -13    1    3    3    0    0 -0.73031636550E+01  0.38492860902E+02  0.72625553621E+01  0.39846972911E+02  0.00000000000E+00 0.  1.
         13    1    3    3    0    0  0.73031636550E+01 -0.38492860902E+02 -0.43749371219E+02  0.58728562232E+02  0.00000000000E+00 0. -1.
<mgrwt>
<rscale>  0 0.91574278E+02</rscale>
<asrwt>0</asrwt>
<pdfrwt beam="2">  1        3 0.10389412E-01 0.91574278E+02</pdfrwt>
<pdfrwt beam="1">  1       -3 0.47760553E-02 0.91574278E+02</pdfrwt>
<totfact> 0.34366812E+04</totfact>
</mgrwt>
</event>
<event>
 5    1  0.6043464E+000  0.9139252E+02  0.7546771E-02  0.1299514E+00
         -1   -1    0    0    0  501 -0.00000000000E+00  0.00000000000E+00  0.36469780365E+02  0.36469780365E+02  0.00000000000E+00 0.  1.
          1   -1    0    0  501    0  0.00000000000E+00 -0.00000000000E+00 -0.57256941850E+02  0.57256941850E+02  0.00000000000E+00 0. -1.
         23    2    1    2    0    0  0.00000000000E+00  0.00000000000E+00 -0.20787161485E+02  0.93726722215E+02  0.91392518154E+02 0.  0.
        -13    1    3    3    0    0  0.65184368825E+01 -0.35566705220E+02  0.18260458440E+02  0.40508331020E+02  0.00000000000E+00 0.  1.
         13    1    3    3    0    0 -0.65184368825E+01  0.35566705220E+02 -0.39047619925E+02  0.53218391195E+02  0.00000000000E+00 0. -1.
<mgrwt>
<rscale>  0 0.91392518E+02</rscale>
<asrwt>0</asrwt>
<pdfrwt beam="2">  1        1 0.88087602E-02 0.91392518E+02</pdfrwt>
<pdfrwt beam="1">  1       -1 0.56107355E-02 0.91392518E+02</pdfrwt>
<totfact> 0.95065604E+04</totfact>
</mgrwt>
</event>
<event>
 5    1  0.6043464E+000  0.8790281E+02  0.7546771E-02  0.1308011E+00
         -2   -1    0    0    0  501 -0.00000000000E+00  0.00000000000E+00  0.37813837287E+02  0.37813837287E+02  0.00000000000E+00 0.  1.
          2   -1    0    0  501    0  0.00000000000E+00 -0.00000000000E+00 -0.51085166369E+02  0.51085166369E+02  0.00000000000E+00 0. -1.
         23    2    1    2    0    0  0.00000000000E+00  0.00000000000E+00 -0.13271329082E+02  0.88899003656E+02  0.87902813809E+02 0.  0.
        -13    1    3    3    0    0 -0.28106135675E+02  0.97262949941E+01  0.26091080586E+02  0.39563874470E+02  0.00000000000E+00 0.  1.
         13    1    3    3    0    0  0.28106135675E+02 -0.97262949941E+01 -0.39362409669E+02  0.49335129186E+02  0.00000000000E+00 0. -1.
<mgrwt>
<rscale>  0 0.87902814E+02</rscale>
<asrwt>0</asrwt>
<pdfrwt beam="2">  1        2 0.78592563E-02 0.87902814E+02</pdfrwt>
<pdfrwt beam="1">  1       -2 0.58175134E-02 0.87902814E+02</pdfrwt>
<totfact> 0.11275297E+05</totfact>
</mgrwt>
</event>
<event>
 5    1  0.6043464E+000  0.9278299E+02  0.7546771E-02  0.1296249E+00
          4   -1    0    0  501    0  0.00000000000E+00  0.00000000000E+00  0.15379998338E+03  0.15379998338E+03  0.00000000000E+00 0. -1.
         -4   -1    0    0    0  501 -0.00000000000E+00 -0.00000000000E+00 -0.13993310215E+02  0.13993310215E+02  0.00000000000E+00 0.  1.
         23    2    1    2    0    0  0.00000000000E+00  0.00000000000E+00  0.13980667317E+03  0.16779329360E+03  0.92782991514E+02 0.  0.
        -13    1    3    3    0    0  0.77473800243E+00  0.32051409340E+02  0.92655906367E+01  0.33372806737E+02  0.00000000000E+00 0.  1.
         13    1    3    3    0    0 -0.77473800243E+00 -0.32051409340E+02  0.13054108253E+03  0.13442048686E+03  0.00000000000E+00 0. -1.
<mgrwt>
<rscale>  0 0.92782992E+02</rscale>
<asrwt>0</asrwt>
<pdfrwt beam="1">  1        4 0.23661535E-01 0.92782992E+02</pdfrwt>
<pdfrwt beam="2">  1       -4 0.21528171E-02 0.92782992E+02</pdfrwt>
<totfact> 0.21762351E+04</totfact>
</mgrwt>
</event>
<event>
 5    1  0.6043464E+000  0.9438330E+02  0.7546771E-02  0.1292571E+00
         -2   -1    0    0    0  501 -0.00000000000E+00  0.00000000000E+00  0.27513923431E+02  0.27513923431E+02  0.00000000000E+00 0.  1.
          2   -1    0    0  501    0  0.00000000000E+00 -0.00000000000E+00 -0.80942714093E+02  0.80942714093E+02  0.00000000000E+00 0. -1.
         23    2    1    2    0    0  0.00000000000E+00  0.00000000000E+00 -0.53428790662E+02  0.10845663752E+03  0.94383295934E+02 0.  0.
        -13    1    3    3    0    0 -0.10761716212E+02 -0.22464421861E+02  0.19344455811E+02  0.31538432998E+02  0.00000000000E+00 0.  1.
         13    1    3    3    0    0  0.10761716212E+02  0.22464421861E+02 -0.72773246473E+02  0.76918204526E+02  0.00000000000E+00 0. -1.
<mgrwt>
<rscale>  0 0.94383296E+02</rscale>
<asrwt>0</asrwt>
<pdfrwt beam="2">  1        2 0.12452725E-01 0.94383296E+02</pdfrwt>
<pdfrwt beam="1">  1       -2 0.42329114E-02 0.94383296E+02</pdfrwt>
<totfact> 0.10465562E+05</totfact>
</mgrwt>
</event>
<event>
 5    1  0.6043464E+000  0.9122079E+02  0.7546771E-02  0.1299922E+00
          2   -1    0    0  501    0  0.00000000000E+00  0.00000000000E+00  0.65760543466E+01  0.65760543466E+01  0.00000000000E+00 0. -1.
         -2   -1    0    0    0  501 -0.00000000000E+00 -0.00000000000E+00 -0.31634597458E+03  0.31634597458E+03  0.00000000000E+00 0.  1.
         23    2    1    2    0    0  0.00000000000E+00  0.00000000000E+00 -0.30976992024E+03  0.32292202893E+03  0.91220794147E+02 0.  0.
        -13    1    3    3    0    0  0.44500836041E+02 -0.81642895158E+01 -0.13444828051E+03  0.14185668882E+03  0.00000000000E+00 0. -1.
         13    1    3    3    0    0 -0.44500836041E+02  0.81642895158E+01 -0.17532163973E+03  0.18106534011E+03  0.00000000000E+00 0.  1.
<mgrwt>
<rscale>  0 0.91220794E+02</rscale>
<asrwt>0</asrwt>
<pdfrwt beam="1">  1        2 0.10117006E-02 0.91220794E+02</pdfrwt>
<pdfrwt beam="2">  1       -2 0.48668613E-01 0.91220794E+02</pdfrwt>
<totfact> 0.49414904E+04</totfact>
</mgrwt>
</event>
<event>
 5    1  0.6043464E+000  0.9210985E+02  0.7546771E-02  0.1297821E+00
         -1   -1    0    0    0  501 -0.00000000000E+00  0.00000000000E+00  0.85565297395E+01  0.85565297395E+01  0.00000000000E+00 0.  1.
          1   -1    0    0  501    0  0.00000000000E+00 -0.00000000000E+00 -0.24788742791E+03  0.24788742791E+03  0.00000000000E+00 0. -1.
         23    2    1    2    0    0  0.00000000000E+00  0.00000000000E+00 -0.23933089817E+03  0.25644395765E+03  0.92109850699E+02 0.  0.
        -13    1    3    3    0    0 -0.13957471698E+02 -0.41951280499E+02 -0.83758502880E+02  0.94711180736E+02  0.00000000000E+00 0. -1.
         13    1    3    3    0    0  0.13957471698E+02  0.41951280499E+02 -0.15557239529E+03  0.16173277691E+03  0.00000000000E+00 0.  1.
<mgrwt>
<rscale>  0 0.92109851E+02</rscale>
<asrwt>0</asrwt>
<pdfrwt beam="2">  1        1 0.38136523E-01 0.92109851E+02</pdfrwt>
<pdfrwt beam="1">  1       -1 0.13163893E-02 0.92109851E+02</pdfrwt>
<totfact> 0.12014844E+05</totfact>
</mgrwt>
</event>
<event>
 5    1  0.6043464E+000  0.9173293E+02  0.7546771E-02  0.1298709E+00
         -3   -1    0    0    0  501 -0.00000000000E+00  0.00000000000E+00  0.29899741937E+02  0.29899741937E+02  0.00000000000E+00 0.  1.
          3   -1    0    0  501    0  0.00000000000E+00 -0.00000000000E+00 -0.70359560593E+02  0.70359560593E+02  0.00000000000E+00 0. -1.
         23    2    1    2    0    0  0.00000000000E+00  0.00000000000E+00 -0.40459818656E+02  0.10025930253E+03  0.91732932026E+02 0.  0.
        -13    1    3    3    0    0  0.38016776189E+02  0.11737722779E+02  0.47095036610E+01  0.40065307094E+02  0.00000000000E+00 0.  1.
         13    1    3    3    0    0 -0.38016776189E+02 -0.11737722779E+02 -0.45169322317E+02  0.60193995435E+02  0.00000000000E+00 0. -1.
<mgrwt>
<rscale>  0 0.91732932E+02</rscale>
<asrwt>0</asrwt>
<pdfrwt beam="2">  1        3 0.10824548E-01 0.91732932E+02</pdfrwt>
<pdfrwt beam="1">  1       -3 0.45999603E-02 0.91732932E+02</pdfrwt>
<totfact> 0.34081873E+04</totfact>
</mgrwt>
</event>
<event>
 5    1  0.6043464E+000  0.9411142E+02  0.7546771E-02  0.1293190E+00
         -1   -1    0    0    0  501 -0.00000000000E+00  0.00000000000E+00  0.10403609960E+03  0.10403609960E+03  0.00000000000E+00 0.  1.
          1   -1    0    0  501    0  0.00000000000E+00 -0.00000000000E+00 -0.21283382245E+02  0.21283382245E+02  0.00000000000E+00 0. -1.
         23    2    1    2    0    0  0.00000000000E+00  0.00000000000E+00  0.82752717357E+02  0.12531948185E+03  0.94111424920E+02 0.  0.
        -13    1    3    3    0    0  0.27844583245E+02  0.13496528353E+02 -0.58302640896E+01  0.31487601894E+02  0.00000000000E+00 0. -1.
         13    1    3    3    0    0 -0.27844583245E+02 -0.13496528353E+02  0.88582981446E+02  0.93831879953E+02  0.00000000000E+00 0.  1.
<mgrwt>
<rscale>  0 0.94111425E+02</rscale>
<asrwt>0</asrwt>
<pdfrwt beam="2">  1        1 0.32743666E-02 0.94111425E+02</pdfrwt>
<pdfrwt beam="1">  1       -1 0.16005554E-01 0.94111425E+02</pdfrwt>
<totfact> 0.74426622E+04</totfact>
</mgrwt>
</event>
<event>
 5    1  0.6043464E+000  0.9338900E+02  0.7546771E-02  0.1294846E+00
         -1   -1    0    0    0  501 -0.00000000000E+00  0.00000000000E+00  0.53136684454E+01  0.53136684454E+01  0.00000000000E+00 0.  1.
          1   -1    0    0  501    0  0.00000000000E+00 -0.00000000000E+00 -0.41033353154E+03  0.41033353154E+03  0.00000000000E+00 0. -1.
         23    2    1    2    0    0  0.00000000000E+00  0.00000000000E+00 -0.40501986309E+03  0.41564719998E+03  0.93389000179E+02 0.  0.
        -13    1    3    3    0    0  0.43704410524E+02  0.13047498448E+02 -0.15798869210E+03  0.16444068702E+03  0.00000000000E+00 0. -1.
         13    1    3    3    0    0 -0.43704410524E+02 -0.13047498448E+02 -0.24703117099E+03  0.25120651297E+03  0.00000000000E+00 0.  1.
<mgrwt>
<rscale>  0 0.93389000E+02</rscale>
<asrwt>0</asrwt>
<pdfrwt beam="2">  1        1 0.63128261E-01 0.93389000E+02</pdfrwt>
<pdfrwt beam="1">  1       -1 0.81748712E-03 0.93389000E+02</pdfrwt>
<totfact> 0.12708460E+05</totfact>
</mgrwt>
</event>
<event>
 5    1  0.6043464E+000  0.9114162E+02  0.7546771E-02  0.1300110E+00
         -2   -1    0    0    0  501 -0.00000000000E+00  0.00000000000E+00  0.30031424450E+03  0.30031424450E+03  0.00000000000E+00 0.  1.
          2   -1    0    0  501    0  0.00000000000E+00 -0.00000000000E+00 -0.69150856244E+01  0.69150856244E+01  0.00000000000E+00 0. -1.
         23    2    1    2    0    0  0.00000000000E+00  0.00000000000E+00  0.29339915888E+03  0.30722933013E+03  0.91141619800E+02 0.  0.
        -13    1    3    3    0    0 -0.14909412970E+02 -0.37396242423E+02  0.74722433507E+02  0.84877627274E+02  0.00000000000E+00 0. -1.
         13    1    3    3    0    0  0.14909412970E+02  0.37396242423E+02  0.21867672537E+03  0.22235170286E+03  0.00000000000E+00 0.  1.
<mgrwt>
<rscale>  0 0.91141620E+02</rscale>
<asrwt>0</asrwt>
<pdfrwt beam="2">  1        2 0.10638596E-02 0.91141620E+02</pdfrwt>
<pdfrwt beam="1">  1       -2 0.46202181E-01 0.91141620E+02</pdfrwt>
<totfact> 0.51022063E+04</totfact>
</mgrwt>
</event>
<event>
 5    1  0.6043464E+000  0.1080517E+03  0.7546771E-02  0.1264221E+00
          1   -1    0    0  501    0  0.00000000000E+00  0.00000000000E+00  0.76266506495E+02  0.76266506495E+02  0.00000000000E+00 0. -1.
         -1   -1    0    0    0  501 -0.00000000000E+00 -0.00000000000E+00 -0.38270978164E+02  0.38270978164E+02  0.00000000000E+00 0.  1.
         23    2    1    2    0    0  0.00000000000E+00  0.00000000000E+00  0.37995528332E+02  0.11453748466E+03  0.10805172474E+03 0.  0.
        -13    1    3    3    0    0 -0.36866990888E+02  0.39489674357E+02  0.19452966338E+02  0.57419746580E+02  0.00000000000E+00 0. -1.
         13    1    3    3    0    0  0.36866990888E+02 -0.39489674357E+02  0.18542561994E+02  0.57117738079E+02  0.00000000000E+00 0.  1.
<mgrwt>
<rscale>  0 0.10805172E+03</rscale>
<asrwt>0</asrwt>
<pdfrwt beam="1">  1        1 0.11733309E-01 0.10805172E+03</pdfrwt>
<pdfrwt beam="2">  1       -1 0.58878428E-02 0.10805172E+03</pdfrwt>
<totfact> 0.62318573E+04</totfact>
</mgrwt>
</event>
<event>
 5    1  0.6043464E+000  0.9222184E+02  0.7546771E-02  0.1297559E+00
         -2   -1    0    0    0  501 -0.00000000000E+00  0.00000000000E+00  0.84017973102E+01  0.84017973102E+01  0.00000000000E+00 0.  1.
          2   -1    0    0  501    0  0.00000000000E+00 -0.00000000000E+00 -0.25306690772E+03  0.25306690772E+03  0.00000000000E+00 0. -1.
         23    2    1    2    0    0  0.00000000000E+00  0.00000000000E+00 -0.24466511041E+03  0.26146870503E+03  0.92221838294E+02 0.  0.
        -13    1    3    3    0    0 -0.15409485734E+00  0.42576662895E+02 -0.17252633661E+03  0.17770237138E+03  0.00000000000E+00 0. -1.
         13    1    3    3    0    0  0.15409485734E+00 -0.42576662895E+02 -0.72138773798E+02  0.83766333652E+02  0.00000000000E+00 0.  1.
<mgrwt>
<rscale>  0 0.92221838E+02</rscale>
<asrwt>0</asrwt>
<pdfrwt beam="2">  1        2 0.38933363E-01 0.92221838E+02</pdfrwt>
<pdfrwt beam="1">  1       -2 0.12925845E-02 0.92221838E+02</pdfrwt>
<totfact> 0.16354598E+05</totfact>
</mgrwt>
</event>
<event>
 5    1  0.6043464E+000  0.9202192E+02  0.7546771E-02  0.1298028E+00
          3   -1    0    0  501    0  0.00000000000E+00  0.00000000000E+00  0.79879362979E+02  0.79879362979E+02  0.00000000000E+00 0. -1.
         -3   -1    0    0    0  501 -0.00000000000E+00 -0.00000000000E+00 -0.26502568435E+02  0.26502568435E+02  0.00000000000E+00 0.  1.
         23    2    1    2    0    0  0.00000000000E+00  0.00000000000E+00  0.53376794544E+02  0.10638193141E+03  0.92021916605E+02 0.  0.
        -13    1    3    3    0    0 -0.36126697388E+02 -0.28476676219E+02  0.27814541394E+02  0.53756004926E+02  0.00000000000E+00 0. -1.
         13    1    3    3    0    0  0.36126697388E+02  0.28476676219E+02  0.25562253150E+02  0.52625926488E+02  0.00000000000E+00 0.  1.
<mgrwt>
<rscale>  0 0.92021917E+02</rscale>
<asrwt>0</asrwt>
<pdfrwt beam="1">  1        3 0.12289133E-01 0.92021917E+02</pdfrwt>
<pdfrwt beam="2">  1       -3 0.40773183E-02 0.92021917E+02</pdfrwt>
<totfact> 0.33354923E+04</totfact>
</mgrwt>
</event>
<event>
 5    1  0.6043464E+000  0.9277885E+02  0.7546771E-02  0.1296258E+00
          3   -1    0    0  501    0  0.00000000000E+00  0.00000000000E+00  0.13454487472E+03  0.13454487472E+03  0.00000000000E+00 0. -1.
         -3   -1    0    0    0  501 -0.00000000000E+00 -0.00000000000E+00 -0.15994506015E+02  0.15994506015E+02  0.00000000000E+00 0.  1.
         23    2    1    2    0    0  0.00000000000E+00  0.00000000000E+00  0.11855036870E+03  0.15053938073E+03  0.92778851211E+02 0.  0.
        -13    1    3    3    0    0  0.13378603815E+02  0.33927539558E+02  0.10579246066E+03  0.11190223283E+03  0.00000000000E+00 0. -1.
         13    1    3    3    0    0 -0.13378603815E+02 -0.33927539558E+02  0.12757908047E+02  0.38637147905E+02  0.00000000000E+00 0.  1.
<mgrwt>
<rscale>  0 0.92778851E+02</rscale>
<asrwt>0</asrwt>
<pdfrwt beam="1">  1        3 0.20699211E-01 0.92778851E+02</pdfrwt>
<pdfrwt beam="2">  1       -3 0.24606933E-02 0.92778851E+02</pdfrwt>
<totfact> 0.29829629E+04</totfact>
</mgrwt>
</event>
<event>
 5    1  0.6043464E+000  0.9192417E+02  0.7546771E-02  0.1298258E+00
          2   -1    0    0  501    0  0.00000000000E+00  0.00000000000E+00  0.53016559670E+02  0.53016559670E+02  0.00000000000E+00 0. -1.
         -2   -1    0    0    0  501 -0.00000000000E+00 -0.00000000000E+00 -0.39846287921E+02  0.39846287921E+02  0.00000000000E+00 0.  1.
         23    2    1    2    0    0  0.00000000000E+00  0.00000000000E+00  0.13170271749E+02  0.92862847591E+02  0.91924166598E+02 0.  0.
        -13    1    3    3    0    0 -0.12457640081E+02 -0.26943418993E+02 -0.28864111334E+02  0.41403834925E+02  0.00000000000E+00 0.  1.
         13    1    3    3    0    0  0.12457640081E+02  0.26943418993E+02  0.42034383083E+02  0.51459012666E+02  0.00000000000E+00 0. -1.
<mgrwt>
<rscale>  0 0.91924167E+02</rscale>
<asrwt>0</asrwt>
<pdfrwt beam="1">  1        2 0.81563938E-02 0.91924167E+02</pdfrwt>
<pdfrwt beam="2">  1       -2 0.61301981E-02 0.91924167E+02</pdfrwt>
<totfact> 0.10028474E+05</totfact>
</mgrwt>
</event>
<event>
 5    1  0.6043464E+000  0.9216787E+02  0.7546771E-02  0.1297685E+00
         -3   -1    0    0    0  501 -0.00000000000E+00  0.00000000000E+00  0.27367313895E+03  0.27367313895E+03  0.00000000000E+00 0.  1.
          3   -1    0    0  501    0  0.00000000000E+00 -0.00000000000E+00 -0.77600933496E+01  0.77600933496E+01  0.00000000000E+00 0. -1.
         23    2    1    2    0    0  0.00000000000E+00  0.00000000000E+00  0.26591304560E+03  0.28143323230E+03  0.92167870877E+02 0.  0.
        -13    1    3    3    0    0 -0.18342612142E+02 -0.39325587964E+02  0.18033730822E+03  0.18548449538E+03  0.00000000000E+00 0.  1.
         13    1    3    3    0    0  0.18342612142E+02  0.39325587964E+02  0.85575737379E+02  0.95948736922E+02  0.00000000000E+00 0. -1.
<mgrwt>
<rscale>  0 0.92167871E+02</rscale>
<asrwt>0</asrwt>
<pdfrwt beam="2">  1        3 0.11938607E-02 0.92167871E+02</pdfrwt>
<pdfrwt beam="1">  1       -3 0.42103552E-01 0.92167871E+02</pdfrwt>
<totfact> 0.24051251E+04</totfact>
</mgrwt>
</event>
<event>
 5    1  0.6043464E+000  0.9188717E+02  0.7546771E-02  0.1298345E+00
         -4   -1    0    0    0  501 -0.00000000000E+00  0.00000000000E+00  0.62483639288E+02  0.62483639288E+02  0.00000000000E+00 0.  1.
          4   -1    0    0  501    0  0.00000000000E+00 -0.00000000000E+00 -0.33781850282E+02  0.33781850282E+02  0.00000000000E+00 0. -1.
         23    2    1    2    0    0  0.00000000000E+00  0.00000000000E+00  0.28701789006E+02  0.96265489570E+02  0.91887168800E+02 0.  0.
        -13    1    3    3    0    0  0.20127455648E+02 -0.52189538116E+01  0.57272047550E+02  0.60929790582E+02  0.00000000000E+00 0.  1.
         13    1    3    3    0    0 -0.20127455648E+02  0.52189538116E+01 -0.28570258544E+02  0.35335698988E+02  0.00000000000E+00 0. -1.
<mgrwt>
<rscale>  0 0.91887169E+02</rscale>
<asrwt>0</asrwt>
<pdfrwt beam="2">  1        4 0.51972077E-02 0.91887169E+02</pdfrwt>
<pdfrwt beam="1">  1       -4 0.96128676E-02 0.91887169E+02</pdfrwt>
<totfact> 0.26134396E+04</totfact>
</mgrwt>
</event>
<event>
 5    1  0.6043464E+000  0.8805593E+02  0.7546771E-02  0.1307629E+00
         -1   -1    0    0    0  501 -0.00000000000E+00  0.00000000000E+00  0.77610793682E+02  0.77610793682E+02  0.00000000000E+00 0.  1.
          1   -1    0    0  501    0  0.00000000000E+00 -0.00000000000E+00 -0.24976701127E+02  0.24976701127E+02  0.00000000000E+00 0. -1.
         23    2    1    2    0    0  0.00000000000E+00  0.00000000000E+00  0.52634092555E+02  0.10258749481E+03  0.88055927638E+02 0.  0.
        -13    1    3    3    0    0  0.31428943914E+02  0.28357162566E+02  0.40420818293E+02  0.58529904629E+02  0.00000000000E+00 0.  1.
         13    1    3    3    0    0 -0.31428943914E+02 -0.28357162566E+02  0.12213274262E+02  0.44057590181E+02  0.00000000000E+00 0. -1.
<mgrwt>
<rscale>  0 0.88055928E+02</rscale>
<asrwt>0</asrwt>
<pdfrwt beam="2">  1        1 0.38425695E-02 0.88055928E+02</pdfrwt>
<pdfrwt beam="1">  1       -1 0.11940122E-01 0.88055928E+02</pdfrwt>
<totfact> 0.92999368E+04</totfact>
</mgrwt>
</event>
<event>
 5    1  0.6043464E+000  0.9027921E+02  0.7546771E-02  0.1302177E+00
         -1   -1    0    0    0  501 -0.00000000000E+00  0.00000000000E+00  0.96594315715E+01  0.96594315715E+01  0.00000000000E+00 0.  1.
          1   -1    0    0  501    0  0.00000000000E+00 -0.00000000000E+00 -0.21094242618E+03  0.21094242618E+03  0.00000000000E+00 0. -1.
         23    2    1    2    0    0  0.00000000000E+00  0.00000000000E+00 -0.20128299461E+03  0.22060185775E+03  0.90279209815E+02 0.  0.
        -13    1    3    3    0    0 -0.14136541058E+02  0.42497397502E+02 -0.11440225770E+03  0.12285661217E+03  0.00000000000E+00 0. -1.
         13    1    3    3    0    0  0.14136541058E+02 -0.42497397502E+02 -0.86880736907E+02  0.97745245578E+02  0.00000000000E+00 0.  1.
<mgrwt>
<rscale>  0 0.90279210E+02</rscale>
<asrwt>0</asrwt>
<pdfrwt beam="2">  1        1 0.32452680E-01 0.90279210E+02</pdfrwt>
<pdfrwt beam="1">  1       -1 0.14860664E-02 0.90279210E+02</pdfrwt>
<totfact> 0.12284879E+05</totfact>
</mgrwt>
</event>
<event>
 5    1  0.6043464E+000  0.9204451E+02  0.7546771E-02  0.1297975E+00
          2   -1    0    0  501    0  0.00000000000E+00  0.00000000000E+00  0.13697409331E+03  0.13697409331E+03  0.00000000000E+00 0. -1.
         -2   -1    0    0    0  501 -0.00000000000E+00 -0.00000000000E+00 -0.15463126969E+02  0.15463126969E+02  0.00000000000E+00 0.  1.
         23    2    1    2    0    0  0.00000000000E+00  0.00000000000E+00  0.12151096634E+03  0.15243722028E+03  0.92044506545E+02 0.  0.
        -13    1    3    3    0    0  0.32290154332E+02  0.38830102853E+01  0.11468304635E+03  0.11920542335E+03  0.00000000000E+00 0. -1.
         13    1    3    3    0    0 -0.32290154332E+02 -0.38830102853E+01  0.68279199887E+01  0.33231796927E+02  0.00000000000E+00 0.  1.
<mgrwt>
<rscale>  0 0.92044507E+02</rscale>
<asrwt>0</asrwt>
<pdfrwt beam="1">  1        2 0.21072937E-01 0.92044507E+02</pdfrwt>
<pdfrwt beam="2">  1       -2 0.23789427E-02 0.92044507E+02</pdfrwt>
<totfact> 0.13214534E+05</totfact>
</mgrwt>
</event>
<event>
 5    1  0.6043464E+000  0.7926157E+02  0.7546771E-02  0.1331160E+00
         -3   -1    0    0    0  501 -0.00000000000E+00  0.00000000000E+00  0.15161284850E+03  0.15161284850E+03  0.00000000000E+00 0.  1.
          3   -1    0    0  501    0  0.00000000000E+00 -0.00000000000E+00 -0.10359275061E+02  0.10359275061E+02  0.00000000000E+00 0. -1.
         23    2    1    2    0    0  0.00000000000E+00  0.00000000000E+00  0.14125357344E+03  0.16197212356E+03  0.79261572036E+02 0.  0.
        -13    1    3    3    0    0 -0.13009647438E+02 -0.35019956178E+02  0.43597428216E+02  0.57414144636E+02  0.00000000000E+00 0. -1.
         13    1    3    3    0    0  0.13009647438E+02  0.35019956178E+02  0.97656145224E+02  0.10455797893E+03  0.00000000000E+00 0.  1.
<mgrwt>
<rscale>  0 0.79261572E+02</rscale>
<asrwt>0</asrwt>
<pdfrwt beam="2">  1        3 0.15937347E-02 0.79261572E+02</pdfrwt>
<pdfrwt beam="1">  1       -3 0.23325052E-01 0.79261572E+02</pdfrwt>
<totfact> 0.44526471E+04</totfact>
</mgrwt>
</event>
<event>
 5    1  0.6043464E+000  0.8758232E+02  0.7546771E-02  0.1308814E+00
          2   -1    0    0  501    0  0.00000000000E+00  0.00000000000E+00  0.38954244731E+03  0.38954244731E+03  0.00000000000E+00 0. -1.
         -2   -1    0    0    0  501 -0.00000000000E+00 -0.00000000000E+00 -0.49228675081E+01  0.49228675081E+01  0.00000000000E+00 0.  1.
         23    2    1    2    0    0  0.00000000000E+00  0.00000000000E+00  0.38461957980E+03  0.39446531482E+03  0.87582323717E+02 0.  0.
        -13    1    3    3    0    0  0.30728972985E+02  0.30980598202E+02  0.20891864276E+03  0.21342695833E+03  0.00000000000E+00 0.  1.
         13    1    3    3    0    0 -0.30728972985E+02 -0.30980598202E+02  0.17570093704E+03  0.18103835650E+03  0.00000000000E+00 0. -1.
<mgrwt>
<rscale>  0 0.87582324E+02</rscale>
<asrwt>0</asrwt>
<pdfrwt beam="1">  1        2 0.59929583E-01 0.87582324E+02</pdfrwt>
<pdfrwt beam="2">  1       -2 0.75736454E-03 0.87582324E+02</pdfrwt>
<totfact> 0.21996838E+05</totfact>
</mgrwt>
</event>
<event>
 5    1  0.6043464E+000  0.9030599E+02  0.7546771E-02  0.1302112E+00
         -4   -1    0    0    0  501 -0.00000000000E+00  0.00000000000E+00  0.14886119953E+02  0.14886119953E+02  0.00000000000E+00 0.  1.
          4   -1    0    0  501    0  0.00000000000E+00 -0.00000000000E+00 -0.13695932061E+03  0.13695932061E+03  0.00000000000E+00 0. -1.
         23    2    1    2    0    0  0.00000000000E+00  0.00000000000E+00 -0.12207320066E+03  0.15184544057E+03  0.90305988181E+02 0.  0.
        -13    1    3    3    0    0 -0.18063996418E+02  0.16579719144E+02  0.27168817097E+01  0.24669343317E+02  0.00000000000E+00 0.  1.
         13    1    3    3    0    0  0.18063996418E+02 -0.16579719144E+02 -0.12479008237E+03  0.12717609725E+03  0.00000000000E+00 0. -1.
<mgrwt>
<rscale>  0 0.90305988E+02</rscale>
<asrwt>0</asrwt>
<pdfrwt beam="2">  1        4 0.21070664E-01 0.90305988E+02</pdfrwt>
<pdfrwt beam="1">  1       -4 0.22901724E-02 0.90305988E+02</pdfrwt>
<totfact> 0.24196318E+04</totfact>
</mgrwt>
</event>
<event>
 5    1  0.6043464E+000  0.9225476E+02  0.7546771E-02  0.1297482E+00
         -1   -1    0    0    0  501 -0.00000000000E+00  0.00000000000E+00  0.10413170836E+03  0.10413170836E+03  0.00000000000E+00 0.  1.
          1   -1    0    0  501    0  0.00000000000E+00 -0.00000000000E+00 -0.20433113469E+02  0.20433113469E+02  0.00000000000E+00 0. -1.
         23    2    1    2    0    0  0.00000000000E+00  0.00000000000E+00  0.83698594892E+02  0.12456482183E+03  0.92254756249E+02 0.  0.
        -13    1    3    3    0    0  0.70088428485E+01  0.41674933033E+02  0.16886128219E+02  0.45508957883E+02  0.00000000000E+00 0. -1.
         13    1    3    3    0    0 -0.70088428485E+01 -0.41674933033E+02  0.66812466672E+02  0.79055863946E+02  0.00000000000E+00 0.  1.
<mgrwt>
<rscale>  0 0.92254756E+02</rscale>
<asrwt>0</asrwt>
<pdfrwt beam="2">  1        1 0.31435560E-02 0.92254756E+02</pdfrwt>
<pdfrwt beam="1">  1       -1 0.16020263E-01 0.92254756E+02</pdfrwt>
<totfact> 0.78341688E+04</totfact>
</mgrwt>
</event>
<event>
 5    1  0.6043464E+000  0.9213452E+02  0.7546771E-02  0.1297763E+00
         -1   -1    0    0    0  501 -0.00000000000E+00  0.00000000000E+00  0.12530801649E+02  0.12530801649E+02  0.00000000000E+00 0.  1.
          1   -1    0    0  501    0  0.00000000000E+00 -0.00000000000E+00 -0.16935805924E+03  0.16935805924E+03  0.00000000000E+00 0. -1.
         23    2    1    2    0    0  0.00000000000E+00  0.00000000000E+00 -0.15682725759E+03  0.18188886089E+03  0.92134515748E+02 0.  0.
        -13    1    3    3    0    0 -0.18946227997E+01 -0.31108560352E+02 -0.11441359163E+02  0.33199952142E+02  0.00000000000E+00 0.  1.
         13    1    3    3    0    0  0.18946227997E+01  0.31108560352E+02 -0.14538589843E+03  0.14868890875E+03  0.00000000000E+00 0. -1.
<mgrwt>
<rscale>  0 0.92134516E+02</rscale>
<asrwt>0</asrwt>
<pdfrwt beam="2">  1        1 0.26055085E-01 0.92134516E+02</pdfrwt>
<pdfrwt beam="1">  1       -1 0.19278157E-02 0.92134516E+02</pdfrwt>
<totfact> 0.11151003E+05</totfact>
</mgrwt>
</event>
<event>
 5    1  0.6043464E+000  0.9127442E+02  0.7546771E-02  0.1299795E+00
          1   -1    0    0  501    0  0.00000000000E+00  0.00000000000E+00  0.10465949595E+02  0.10465949595E+02  0.00000000000E+00 0. -1.
         -1   -1    0    0    0  501 -0.00000000000E+00 -0.00000000000E+00 -0.19900296371E+03  0.19900296371E+03  0.00000000000E+00 0.  1.
         23    2    1    2    0    0  0.00000000000E+00  0.00000000000E+00 -0.18853701412E+03  0.20946891331E+03  0.91274421117E+02 0.  0.
        -13    1    3    3    0    0  0.25420731163E+02 -0.31075776246E+02 -0.14406583456E+03  0.14955561551E+03  0.00000000000E+00 0.  1.
         13    1    3    3    0    0 -0.25420731163E+02  0.31075776246E+02 -0.44471179554E+02  0.59913297798E+02  0.00000000000E+00 0. -1.
<mgrwt>
<rscale>  0 0.91274421E+02</rscale>
<asrwt>0</asrwt>
<pdfrwt beam="1">  1        1 0.16101462E-02 0.91274421E+02</pdfrwt>
<pdfrwt beam="2">  1       -1 0.30615839E-01 0.91274421E+02</pdfrwt>
<totfact> 0.69330075E+04</totfact>
</mgrwt>
</event>
<event>
 5    1  0.6043464E+000  0.9006754E+02  0.7546771E-02  0.1302688E+00
          1   -1    0    0  501    0  0.00000000000E+00  0.00000000000E+00  0.51532415446E+03  0.51532415446E+03  0.00000000000E+00 0. -1.
         -1   -1    0    0    0  501 -0.00000000000E+00 -0.00000000000E+00 -0.39354652574E+01  0.39354652574E+01  0.00000000000E+00 0.  1.
         23    2    1    2    0    0  0.00000000000E+00  0.00000000000E+00  0.51138868920E+03  0.51925961971E+03  0.90067537018E+02 0.  0.
        -13    1    3    3    0    0 -0.22703212339E+02  0.38830212549E+02  0.24303833086E+03  0.24716563581E+03  0.00000000000E+00 0. -1.
         13    1    3    3    0    0  0.22703212339E+02 -0.38830212549E+02  0.26835035834E+03  0.27209398391E+03  0.00000000000E+00 0.  1.
<mgrwt>
<rscale>  0 0.90067537E+02</rscale>
<asrwt>0</asrwt>
<pdfrwt beam="1">  1        1 0.79280586E-01 0.90067537E+02</pdfrwt>
<pdfrwt beam="2">  1       -1 0.60545660E-03 0.90067537E+02</pdfrwt>
<totfact> 0.14434719E+05</totfact>
</mgrwt>
</event>
<event>
 5    1  0.6043464E+000  0.8802788E+02  0.7546771E-02  0.1307699E+00
          3   -1    0    0  501    0  0.00000000000E+00  0.00000000000E+00  0.23936104233E+02  0.23936104233E+02  0.00000000000E+00 0. -1.
         -3   -1    0    0    0  501 -0.00000000000E+00 -0.00000000000E+00 -0.80933263544E+02  0.80933263544E+02  0.00000000000E+00 0.  1.
         23    2    1    2    0    0  0.00000000000E+00  0.00000000000E+00 -0.56997159311E+02  0.10486936778E+03  0.88027882677E+02 0.  0.
        -13    1    3    3    0    0  0.17724978117E+02 -0.63203566150E+01 -0.75899119934E+02  0.78197174909E+02  0.00000000000E+00 0.  1.
         13    1    3    3    0    0 -0.17724978117E+02  0.63203566150E+01  0.18901960624E+02  0.26672192868E+02  0.00000000000E+00 0. -1.
<mgrwt>
<rscale>  0 0.88027883E+02</rscale>
<asrwt>0</asrwt>
<pdfrwt beam="1">  1        3 0.36824776E-02 0.88027883E+02</pdfrwt>
<pdfrwt beam="2">  1       -3 0.12451271E-01 0.88027883E+02</pdfrwt>
<totfact> 0.37745157E+04</totfact>
</mgrwt>
</event>
<event>
 5    1  0.6043464E+000  0.8900933E+02  0.7546771E-02  0.1305269E+00
         -1   -1    0    0    0  501 -0.00000000000E+00  0.00000000000E+00  0.68116035532E+01  0.68116035532E+01  0.00000000000E+00 0.  1.
          1   -1    0    0  501    0  0.00000000000E+00 -0.00000000000E+00 -0.29077811052E+03  0.29077811052E+03  0.00000000000E+00 0. -1.
         23    2    1    2    0    0  0.00000000000E+00  0.00000000000E+00 -0.28396650697E+03  0.29758971408E+03  0.89009330092E+02 0.  0.
        -13    1    3    3    0    0 -0.15385595810E+02 -0.35905526244E+02 -0.70687306825E+02  0.80762731005E+02  0.00000000000E+00 0.  1.
         13    1    3    3    0    0  0.15385595810E+02  0.35905526244E+02 -0.21327920015E+03  0.21682698307E+03  0.00000000000E+00 0. -1.
<mgrwt>
<rscale>  0 0.89009330E+02</rscale>
<asrwt>0</asrwt>
<pdfrwt beam="2">  1        1 0.44735082E-01 0.89009330E+02</pdfrwt>
<pdfrwt beam="1">  1       -1 0.10479393E-02 0.89009330E+02</pdfrwt>
<totfact> 0.13577854E+05</totfact>
</mgrwt>
</event>
<event>
 5    1  0.6043464E+000  0.9222661E+02  0.7546771E-02  0.1297547E+00
         -2   -1    0    0    0  501 -0.00000000000E+00  0.00000000000E+00  0.26870891961E+02  0.26870891961E+02  0.00000000000E+00 0.  1.
          2   -1    0    0  501    0  0.00000000000E+00 -0.00000000000E+00 -0.79135330856E+02  0.79135330856E+02  0.00000000000E+00 0. -1.
         23    2    1    2    0    0  0.00000000000E+00  0.00000000000E+00 -0.52264438896E+02  0.10600622282E+03  0.92226610600E+02 0.  0.
        -13    1    3    3    0    0  0.93108596550E+01  0.38168034317E+02 -0.53883898593E+02  0.66685571743E+02  0.00000000000E+00 0. -1.
         13    1    3    3    0    0 -0.93108596550E+01 -0.38168034317E+02  0.16194596976E+01  0.39320651074E+02  0.00000000000E+00 0.  1.
<mgrwt>
<rscale>  0 0.92226611E+02</rscale>
<asrwt>0</asrwt>
<pdfrwt beam="2">  1        2 0.12174666E-01 0.92226611E+02</pdfrwt>
<pdfrwt beam="1">  1       -2 0.41339834E-02 0.92226611E+02</pdfrwt>
<totfact> 0.11090580E+05</totfact>
</mgrwt>
</event>
<event>
 5    1  0.6043464E+000  0.9113893E+02  0.7546771E-02  0.1300117E+00
          3   -1    0    0  501    0  0.00000000000E+00  0.00000000000E+00  0.19440760596E+02  0.19440760596E+02  0.00000000000E+00 0. -1.
         -3   -1    0    0    0  501 -0.00000000000E+00 -0.00000000000E+00 -0.10681558856E+03  0.10681558856E+03  0.00000000000E+00 0.  1.
         23    2    1    2    0    0  0.00000000000E+00  0.00000000000E+00 -0.87374827960E+02  0.12625634915E+03  0.91138933173E+02 0.  0.
        -13    1    3    3    0    0  0.18656606172E+01 -0.41669469789E+02 -0.18265768499E+02  0.45535301700E+02  0.00000000000E+00 0.  1.
         13    1    3    3    0    0 -0.18656606172E+01  0.41669469789E+02 -0.69109059461E+02  0.80721047451E+02  0.00000000000E+00 0. -1.
<mgrwt>
<rscale>  0 0.91138933E+02</rscale>
<asrwt>0</asrwt>
<pdfrwt beam="1">  1        3 0.29908862E-02 0.91138933E+02</pdfrwt>
<pdfrwt beam="2">  1       -3 0.16433167E-01 0.91138933E+02</pdfrwt>
<totfact> 0.32862601E+04</totfact>
</mgrwt>
</event>
<event>
 5    1  0.6043464E+000  0.9248708E+02  0.7546771E-02  0.1296938E+00
          2   -1    0    0  501    0  0.00000000000E+00  0.00000000000E+00  0.25568068805E+03  0.25568068805E+03  0.00000000000E+00 0. -1.
         -2   -1    0    0    0  501 -0.00000000000E+00 -0.00000000000E+00 -0.83638102664E+01  0.83638102664E+01  0.00000000000E+00 0.  1.
         23    2    1    2    0    0  0.00000000000E+00  0.00000000000E+00  0.24731687779E+03  0.26404449832E+03  0.92487075068E+02 0.  0.
        -13    1    3    3    0    0 -0.25279902237E+02  0.33079907066E+02  0.66196123000E+02  0.78200258368E+02  0.00000000000E+00 0.  1.
         13    1    3    3    0    0  0.25279902237E+02 -0.33079907066E+02  0.18112075479E+03  0.18584423995E+03  0.00000000000E+00 0. -1.
<mgrwt>
<rscale>  0 0.92487075E+02</rscale>
<asrwt>0</asrwt>
<pdfrwt beam="1">  1        2 0.39335484E-01 0.92487075E+02</pdfrwt>
<pdfrwt beam="2">  1       -2 0.12867402E-02 0.92487075E+02</pdfrwt>
<totfact> 0.16291091E+05</totfact>
</mgrwt>
</event>
<event>
 5    1  0.6043464E+000  0.9078756E+02  0.7546771E-02  0.1300956E+00
          3   -1    0    0  501    0  0.00000000000E+00  0.00000000000E+00  0.17139119739E+02  0.17139119739E+02  0.00000000000E+00 0. -1.
         -3   -1    0    0    0  501 -0.00000000000E+00 -0.00000000000E+00 -0.12022759754E+03  0.12022759754E+03  0.00000000000E+00 0.  1.
         23    2    1    2    0    0  0.00000000000E+00  0.00000000000E+00 -0.10308847780E+03  0.13736671728E+03  0.90787558402E+02 0.  0.
        -13    1    3    3    0    0  0.35434144313E+02 -0.14075137737E+02 -0.88819122336E+02  0.96656735813E+02  0.00000000000E+00 0.  1.
         13    1    3    3    0    0 -0.35434144313E+02  0.14075137737E+02 -0.14269355464E+02  0.40709981465E+02  0.00000000000E+00 0. -1.
<mgrwt>
<rscale>  0 0.90787558E+02</rscale>
<asrwt>0</asrwt>
<pdfrwt beam="1">  1        3 0.26367876E-02 0.90787558E+02</pdfrwt>
<pdfrwt beam="2">  1       -3 0.18496554E-01 0.90787558E+02</pdfrwt>
<totfact> 0.32473672E+04</totfact>
</mgrwt>
</event>
<event>
 5    1  0.6043464E+000  0.1140362E+03  0.7546771E-02  0.1253273E+00
         -1   -1    0    0    0  501 -0.00000000000E+00  0.00000000000E+00  0.16323413569E+02  0.16323413569E+02  0.00000000000E+00 0.  1.
          1   -1    0    0  501    0  0.00000000000E+00 -0.00000000000E+00 -0.19916565801E+03  0.19916565801E+03  0.00000000000E+00 0. -1.
         23    2    1    2    0    0  0.00000000000E+00  0.00000000000E+00 -0.18284224444E+03  0.21548907158E+03  0.11403619433E+03 0.  0.
        -13    1    3    3    0    0  0.42691748142E+02  0.30638232858E+02 -0.13324088927E+03  0.14322856296E+03  0.00000000000E+00 0. -1.
         13    1    3    3    0    0 -0.42691748142E+02 -0.30638232858E+02 -0.49601355168E+02  0.72260508624E+02  0.00000000000E+00 0.  1.
<mgrwt>
<rscale>  0 0.11403619E+03</rscale>
<asrwt>0</asrwt>
<pdfrwt beam="2">  1        1 0.30640871E-01 0.11403619E+03</pdfrwt>
<pdfrwt beam="1">  1       -1 0.25112944E-02 0.11403619E+03</pdfrwt>
<totfact> 0.64419584E+04</totfact>
</mgrwt>
</event>
<event>
 5    1  0.6043464E+000  0.9082200E+02  0.7546771E-02  0.1300873E+00
          1   -1    0    0  501    0  0.00000000000E+00  0.00000000000E+00  0.35790182450E+02  0.35790182450E+02  0.00000000000E+00 0. -1.
         -1   -1    0    0    0  501 -0.00000000000E+00 -0.00000000000E+00 -0.57618003359E+02  0.57618003359E+02  0.00000000000E+00 0.  1.
         23    2    1    2    0    0  0.00000000000E+00  0.00000000000E+00 -0.21827820909E+02  0.93408185809E+02  0.90821998494E+02 0.  0.
        -13    1    3    3    0    0  0.17360056475E+02  0.33402596940E+02  0.15207213212E+02  0.40600053902E+02  0.00000000000E+00 0. -1.
         13    1    3    3    0    0 -0.17360056475E+02 -0.33402596940E+02 -0.37035034121E+02  0.52808131907E+02  0.00000000000E+00 0.  1.
<mgrwt>
<rscale>  0 0.90821998E+02</rscale>
<asrwt>0</asrwt>
<pdfrwt beam="1">  1        1 0.55061820E-02 0.90821998E+02</pdfrwt>
<pdfrwt beam="2">  1       -1 0.88643082E-02 0.90821998E+02</pdfrwt>
<totfact> 0.90124612E+04</totfact>
</mgrwt>
</event>
<event>
 5    1  0.6043464E+000  0.9285893E+02  0.7546771E-02  0.1296072E+00
          3   -1    0    0  501    0  0.00000000000E+00  0.00000000000E+00  0.85215771493E+01  0.85215771493E+01  0.00000000000E+00 0. -1.
         -3   -1    0    0    0  501 -0.00000000000E+00 -0.00000000000E+00 -0.25296904134E+03  0.25296904134E+03  0.00000000000E+00 0.  1.
         23    2    1    2    0    0  0.00000000000E+00  0.00000000000E+00 -0.24444746419E+03  0.26149061849E+03  0.92858929612E+02 0.  0.
        -13    1    3    3    0    0  0.27512256771E+02  0.33094268230E+02 -0.73162251868E+02  0.84881505410E+02  0.00000000000E+00 0. -1.
         13    1    3    3    0    0 -0.27512256771E+02 -0.33094268230E+02 -0.17128521232E+03  0.17660911308E+03  0.00000000000E+00 0.  1.
<mgrwt>
<rscale>  0 0.92858930E+02</rscale>
<asrwt>0</asrwt>
<pdfrwt beam="1">  1        3 0.13110121E-02 0.92858930E+02</pdfrwt>
<pdfrwt beam="2">  1       -3 0.38918308E-01 0.92858930E+02</pdfrwt>
<totfact> 0.24366242E+04</totfact>
</mgrwt>
</event>
<event>
 5    1  0.6043464E+000  0.9121933E+02  0.7546771E-02  0.1299925E+00
          1   -1    0    0  501    0  0.00000000000E+00  0.00000000000E+00  0.17371300704E+03  0.17371300704E+03  0.00000000000E+00 0. -1.
         -1   -1    0    0    0  501 -0.00000000000E+00 -0.00000000000E+00 -0.11975163113E+02  0.11975163113E+02  0.00000000000E+00 0.  1.
         23    2    1    2    0    0  0.00000000000E+00  0.00000000000E+00  0.16173784392E+03  0.18568817015E+03  0.91219331154E+02 0.  0.
        -13    1    3    3    0    0  0.32952224363E+01 -0.44775314764E+02  0.97224274533E+02  0.10708990084E+03  0.00000000000E+00 0. -1.
         13    1    3    3    0    0 -0.32952224363E+01  0.44775314764E+02  0.64513569391E+02  0.78598269311E+02  0.00000000000E+00 0.  1.
<mgrwt>
<rscale>  0 0.91219331E+02</rscale>
<asrwt>0</asrwt>
<pdfrwt beam="1">  1        1 0.26725076E-01 0.91219331E+02</pdfrwt>
<pdfrwt beam="2">  1       -1 0.18423329E-02 0.91219331E+02</pdfrwt>
<totfact> 0.11509989E+05</totfact>
</mgrwt>
</event>
<event>
 5    1  0.6043464E+000  0.6877028E+02  0.7546771E-02  0.1364325E+00
         -4   -1    0    0    0  501 -0.00000000000E+00  0.00000000000E+00  0.11298468056E+02  0.11298468056E+02  0.00000000000E+00 0.  1.
          4   -1    0    0  501    0  0.00000000000E+00 -0.00000000000E+00 -0.10464586884E+03  0.10464586884E+03  0.00000000000E+00 0. -1.
         23    2    1    2    0    0  0.00000000000E+00  0.00000000000E+00 -0.93347400783E+02  0.11594433689E+03  0.68770284461E+02 0.  0.
        -13    1    3    3    0    0 -0.23859991684E+02 -0.12991255405E+02 -0.11137556377E+02  0.29361830362E+02  0.00000000000E+00 0.  1.
         13    1    3    3    0    0  0.23859991684E+02  0.12991255405E+02 -0.82209844406E+02  0.86582506532E+02  0.00000000000E+00 0. -1.
<mgrwt>
<rscale>  0 0.68770284E+02</rscale>
<asrwt>0</asrwt>
<pdfrwt beam="2">  1        4 0.16099364E-01 0.68770284E+02</pdfrwt>
<pdfrwt beam="1">  1       -4 0.17382259E-02 0.68770284E+02</pdfrwt>
<totfact> 0.53786491E+04</totfact>
</mgrwt>
</event>
<event>
 5    1  0.6043464E+000  0.9167267E+02  0.7546771E-02  0.1298851E+00
         -2   -1    0    0    0  501 -0.00000000000E+00  0.00000000000E+00  0.44603667453E+02  0.44603667453E+02  0.00000000000E+00 0.  1.
          2   -1    0    0  501    0  0.00000000000E+00 -0.00000000000E+00 -0.47103063707E+02  0.47103063707E+02  0.00000000000E+00 0. -1.
         23    2    1    2    0    0  0.00000000000E+00  0.00000000000E+00 -0.24993962544E+01  0.91706731160E+02  0.91672665274E+02 0.  0.
        -13    1    3    3    0    0 -0.29006421955E+02  0.18208976042E+02 -0.31724604413E+02  0.46683935655E+02  0.00000000000E+00 0. -1.
         13    1    3    3    0    0  0.29006421955E+02 -0.18208976042E+02  0.29225208159E+02  0.45022795504E+02  0.00000000000E+00 0.  1.
<mgrwt>
<rscale>  0 0.91672665E+02</rscale>
<asrwt>0</asrwt>
<pdfrwt beam="2">  1        2 0.72466252E-02 0.91672665E+02</pdfrwt>
<pdfrwt beam="1">  1       -2 0.68621027E-02 0.91672665E+02</pdfrwt>
<totfact> 0.97980362E+04</totfact>
</mgrwt>
</event>
<event>
 5    1  0.6043464E+000  0.9109889E+02  0.7546771E-02  0.1300212E+00
          3   -1    0    0  501    0  0.00000000000E+00  0.00000000000E+00  0.10992264816E+03  0.10992264816E+03  0.00000000000E+00 0. -1.
         -3   -1    0    0    0  501 -0.00000000000E+00 -0.00000000000E+00 -0.18874654124E+02  0.18874654124E+02  0.00000000000E+00 0.  1.
         23    2    1    2    0    0  0.00000000000E+00  0.00000000000E+00  0.91047994040E+02  0.12879730229E+03  0.91098890543E+02 0.  0.
        -13    1    3    3    0    0 -0.39438611275E+02  0.17884588129E+02  0.65492872306E+02  0.78514832196E+02  0.00000000000E+00 0.  1.
         13    1    3    3    0    0  0.39438611275E+02 -0.17884588129E+02  0.25555121734E+02  0.50282470093E+02  0.00000000000E+00 0. -1.
<mgrwt>
<rscale>  0 0.91098891E+02</rscale>
<asrwt>0</asrwt>
<pdfrwt beam="1">  1        3 0.16911176E-01 0.91098891E+02</pdfrwt>
<pdfrwt beam="2">  1       -3 0.29037930E-02 0.91098891E+02</pdfrwt>
<totfact> 0.32731161E+04</totfact>
</mgrwt>
</event>
<event>
 5    1  0.6043464E+000  0.1011031E+03  0.7546771E-02  0.1277993E+00
          3   -1    0    0  501    0  0.00000000000E+00  0.00000000000E+00  0.85523455704E+02  0.85523455704E+02  0.00000000000E+00 0. -1.
         -3   -1    0    0    0  501 -0.00000000000E+00 -0.00000000000E+00 -0.29880217959E+02  0.29880217959E+02  0.00000000000E+00 0.  1.
         23    2    1    2    0    0  0.00000000000E+00  0.00000000000E+00  0.55643237745E+02  0.11540367366E+03  0.10110310573E+03 0.  0.
        -13    1    3    3    0    0  0.50389482020E+02 -0.32735846627E-01  0.23204965835E+02  0.55475863304E+02  0.00000000000E+00 0.  1.
         13    1    3    3    0    0 -0.50389482020E+02  0.32735846627E-01  0.32438271910E+02  0.59927810359E+02  0.00000000000E+00 0. -1.
<mgrwt>
<rscale>  0 0.10110311E+03</rscale>
<asrwt>0</asrwt>
<pdfrwt beam="1">  1        3 0.13157455E-01 0.10110311E+03</pdfrwt>
<pdfrwt beam="2">  1       -3 0.45969567E-02 0.10110311E+03</pdfrwt>
<totfact> 0.25296083E+04</totfact>
</mgrwt>
</event>
<event>
 5    1  0.6043464E+000  0.8866720E+02  0.7546771E-02  0.1306112E+00
          2   -1    0    0  501    0  0.00000000000E+00  0.00000000000E+00  0.73304876258E+01  0.73304876258E+01  0.00000000000E+00 0. -1.
         -2   -1    0    0    0  501 -0.00000000000E+00 -0.00000000000E+00 -0.26812239944E+03  0.26812239944E+03  0.00000000000E+00 0.  1.
         23    2    1    2    0    0  0.00000000000E+00  0.00000000000E+00 -0.26079191182E+03  0.27545288707E+03  0.88667196444E+02 0.  0.
        -13    1    3    3    0    0 -0.43417520283E+02 -0.77860216942E+01 -0.11658480743E+03  0.12465039320E+03  0.00000000000E+00 0. -1.
         13    1    3    3    0    0  0.43417520283E+02  0.77860216942E+01 -0.14420710439E+03  0.15080249387E+03  0.00000000000E+00 0.  1.
<mgrwt>
<rscale>  0 0.88667196E+02</rscale>
<asrwt>0</asrwt>
<pdfrwt beam="1">  1        2 0.11277674E-02 0.88667196E+02</pdfrwt>
<pdfrwt beam="2">  1       -2 0.41249597E-01 0.88667196E+02</pdfrwt>
<totfact> 0.58230214E+04</totfact>
</mgrwt>
</event>
<event>
 5    1  0.6043464E+000  0.9162318E+02  0.7546771E-02  0.1298968E+00
          1   -1    0    0  501    0  0.00000000000E+00  0.00000000000E+00  0.17559672981E+03  0.17559672981E+03  0.00000000000E+00 0. -1.
         -1   -1    0    0    0  501 -0.00000000000E+00 -0.00000000000E+00 -0.11951828334E+02  0.11951828334E+02  0.00000000000E+00 0.  1.
         23    2    1    2    0    0  0.00000000000E+00  0.00000000000E+00  0.16364490148E+03  0.18754855814E+03  0.91623184198E+02 0.  0.
        -13    1    3    3    0    0  0.23345865047E+02 -0.20201503164E+02  0.15110430632E+03  0.15422594312E+03  0.00000000000E+00 0. -1.
         13    1    3    3    0    0 -0.23345865047E+02  0.20201503164E+02  0.12540595160E+02  0.33322615021E+02  0.00000000000E+00 0.  1.
<mgrwt>
<rscale>  0 0.91623184E+02</rscale>
<asrwt>0</asrwt>
<pdfrwt beam="1">  1        1 0.27014880E-01 0.91623184E+02</pdfrwt>
<pdfrwt beam="2">  1       -1 0.18387429E-02 0.91623184E+02</pdfrwt>
<totfact> 0.11397186E+05</totfact>
</mgrwt>
</event>
<event>
 5    1  0.6043464E+000  0.9008409E+02  0.7546771E-02  0.1302648E+00
         -2   -1    0    0    0  501 -0.00000000000E+00  0.00000000000E+00  0.25694525122E+02  0.25694525122E+02  0.00000000000E+00 0.  1.
          2   -1    0    0  501    0  0.00000000000E+00 -0.00000000000E+00 -0.78957896630E+02  0.78957896630E+02  0.00000000000E+00 0. -1.
         23    2    1    2    0    0  0.00000000000E+00  0.00000000000E+00 -0.53263371507E+02  0.10465242175E+03  0.90084086465E+02 0.  0.
        -13    1    3    3    0    0 -0.24430926663E+02  0.32161913454E+02 -0.34692401452E+01  0.40537568771E+02  0.00000000000E+00 0.  1.
         13    1    3    3    0    0  0.24430926663E+02 -0.32161913454E+02 -0.49794131362E+02  0.64114852981E+02  0.00000000000E+00 0. -1.
<mgrwt>
<rscale>  0 0.90084086E+02</rscale>
<asrwt>0</asrwt>
<pdfrwt beam="2">  1        2 0.12147369E-01 0.90084086E+02</pdfrwt>
<pdfrwt beam="1">  1       -2 0.39530039E-02 0.90084086E+02</pdfrwt>
<totfact> 0.11832166E+05</totfact>
</mgrwt>
</event>
<event>
 5    1  0.6043464E+000  0.7670007E+02  0.7546771E-02  0.1338686E+00
          2   -1    0    0  501    0  0.00000000000E+00  0.00000000000E+00  0.21644291820E+02  0.21644291820E+02  0.00000000000E+00 0. -1.
         -2   -1    0    0    0  501 -0.00000000000E+00 -0.00000000000E+00 -0.67949790604E+02  0.67949790604E+02  0.00000000000E+00 0.  1.
         23    2    1    2    0    0  0.00000000000E+00  0.00000000000E+00 -0.46305498784E+02  0.89594082424E+02  0.76700067716E+02 0.  0.
        -13    1    3    3    0    0  0.16931355536E+02 -0.19113446128E+02 -0.56576413358E+02  0.62071613252E+02  0.00000000000E+00 0.  1.
         13    1    3    3    0    0 -0.16931355536E+02  0.19113446128E+02  0.10270914574E+02  0.27522469172E+02  0.00000000000E+00 0. -1.
<mgrwt>
<rscale>  0 0.76700068E+02</rscale>
<asrwt>0</asrwt>
<pdfrwt beam="1">  1        2 0.33298910E-02 0.76700068E+02</pdfrwt>
<pdfrwt beam="2">  1       -2 0.10453814E-01 0.76700068E+02</pdfrwt>
<totfact> 0.13556920E+05</totfact>
</mgrwt>
</event>
<event>
 5    1  0.6043464E+000  0.9145857E+02  0.7546771E-02  0.1299358E+00
          1   -1    0    0  501    0  0.00000000000E+00  0.00000000000E+00  0.30665521092E+03  0.30665521092E+03  0.00000000000E+00 0. -1.
         -1   -1    0    0    0  501 -0.00000000000E+00 -0.00000000000E+00 -0.68192794423E+01  0.68192794423E+01  0.00000000000E+00 0.  1.
         23    2    1    2    0    0  0.00000000000E+00  0.00000000000E+00  0.29983593148E+03  0.31347449037E+03  0.91458571512E+02 0.  0.
        -13    1    3    3    0    0  0.13116364241E+02 -0.37594400746E+02  0.72834232891E+02  0.83007249437E+02  0.00000000000E+00 0.  1.
         13    1    3    3    0    0 -0.13116364241E+02  0.37594400746E+02  0.22700169859E+03  0.23046724093E+03  0.00000000000E+00 0. -1.
<mgrwt>
<rscale>  0 0.91458572E+02</rscale>
<asrwt>0</asrwt>
<pdfrwt beam="1">  1        1 0.47177714E-01 0.91458572E+02</pdfrwt>
<pdfrwt beam="2">  1       -1 0.10491202E-02 0.91458572E+02</pdfrwt>
<totfact> 0.12760331E+05</totfact>
</mgrwt>
</event>
<event>
 5    1  0.6043464E+000  0.9245628E+02  0.7546771E-02  0.1297010E+00
          1   -1    0    0  501    0  0.00000000000E+00  0.00000000000E+00  0.21099508647E+02  0.21099508647E+02  0.00000000000E+00 0. -1.
         -1   -1    0    0    0  501 -0.00000000000E+00 -0.00000000000E+00 -0.10128391416E+03  0.10128391416E+03  0.00000000000E+00 0.  1.
         23    2    1    2    0    0  0.00000000000E+00  0.00000000000E+00 -0.80184405509E+02  0.12238342280E+03  0.92456277723E+02 0.  0.
        -13    1    3    3    0    0  0.18714296659E+02 -0.16286599410E+02 -0.91725647875E+02  0.95021432834E+02  0.00000000000E+00 0.  1.
         13    1    3    3    0    0 -0.18714296659E+02  0.16286599410E+02  0.11541242366E+02  0.27361989970E+02  0.00000000000E+00 0. -1.
<mgrwt>
<rscale>  0 0.92456278E+02</rscale>
<asrwt>0</asrwt>
<pdfrwt beam="1">  1        1 0.32460783E-02 0.92456278E+02</pdfrwt>
<pdfrwt beam="2">  1       -1 0.15582141E-01 0.92456278E+02</pdfrwt>
<totfact> 0.78311502E+04</totfact>
</mgrwt>
</event>
<event>
 5    1  0.6043464E+000  0.9078670E+02  0.7546771E-02  0.1300958E+00
          2   -1    0    0  501    0  0.00000000000E+00  0.00000000000E+00  0.44013309257E+03  0.44013309257E+03  0.00000000000E+00 0. -1.
         -2   -1    0    0    0  501 -0.00000000000E+00 -0.00000000000E+00 -0.46816665780E+01  0.46816665780E+01  0.00000000000E+00 0.  1.
         23    2    1    2    0    0  0.00000000000E+00  0.00000000000E+00  0.43545142599E+03  0.44481475915E+03  0.90786703638E+02 0.  0.
        -13    1    3    3    0    0  0.28797795546E+02  0.34275083786E+02  0.18090984526E+03  0.18636648440E+03  0.00000000000E+00 0.  1.
         13    1    3    3    0    0 -0.28797795546E+02 -0.34275083786E+02  0.25454158073E+03  0.25844827475E+03  0.00000000000E+00 0. -1.
<mgrwt>
<rscale>  0 0.90786704E+02</rscale>
<asrwt>0</asrwt>
<pdfrwt beam="1">  1        2 0.67712751E-01 0.90786704E+02</pdfrwt>
<pdfrwt beam="2">  1       -2 0.72025674E-03 0.90786704E+02</pdfrwt>
<totfact> 0.20881744E+05</totfact>
</mgrwt>
</event>
<event>
 5    1  0.6043464E+000  0.9256257E+02  0.7546771E-02  0.1296762E+00
          3   -1    0    0  501    0  0.00000000000E+00  0.00000000000E+00  0.15535968124E+02  0.15535968124E+02  0.00000000000E+00 0.  1.
         -3   -1    0    0    0  501 -0.00000000000E+00 -0.00000000000E+00 -0.13787087561E+03  0.13787087561E+03  0.00000000000E+00 0. -1.
         23    2    1    2    0    0  0.00000000000E+00  0.00000000000E+00 -0.12233490748E+03  0.15340684373E+03  0.92562574051E+02 0.  0.
        -13    1    3    3    0    0  0.11198462022E+02  0.32485454327E+02 -0.97835775064E+01  0.35727142109E+02  0.00000000000E+00 0.  1.
         13    1    3    3    0    0 -0.11198462022E+02 -0.32485454327E+02 -0.11255132998E+03  0.11767970162E+03  0.00000000000E+00 0. -1.
<mgrwt>
<rscale>  0 0.92562574E+02</rscale>
<asrwt>0</asrwt>
<pdfrwt beam="1">  1        3 0.23901489E-02 0.92562574E+02</pdfrwt>
<pdfrwt beam="2">  1       -3 0.21210904E-01 0.92562574E+02</pdfrwt>
<totfact> 0.29853399E+04</totfact>
</mgrwt>
</event>
<event>
 5    1  0.6043464E+000  0.8964554E+02  0.7546771E-02  0.1303712E+00
         -1   -1    0    0    0  501 -0.00000000000E+00  0.00000000000E+00  0.20749376909E+02  0.20749376909E+02  0.00000000000E+00 0.  1.
          1   -1    0    0  501    0  0.00000000000E+00 -0.00000000000E+00 -0.96826080849E+02  0.96826080849E+02  0.00000000000E+00 0. -1.
         23    2    1    2    0    0  0.00000000000E+00  0.00000000000E+00 -0.76076703941E+02  0.11757545776E+03  0.89645543026E+02 0.  0.
        -13    1    3    3    0    0 -0.19552978529E+02 -0.12454543901E+02  0.12275745245E+02  0.26232204530E+02  0.00000000000E+00 0.  1.
         13    1    3    3    0    0  0.19552978529E+02  0.12454543901E+02 -0.88352449186E+02  0.91343253228E+02  0.00000000000E+00 0. -1.
<mgrwt>
<rscale>  0 0.89645543E+02</rscale>
<asrwt>0</asrwt>
<pdfrwt beam="2">  1        1 0.14896320E-01 0.89645543E+02</pdfrwt>
<pdfrwt beam="1">  1       -1 0.31922119E-02 0.89645543E+02</pdfrwt>
<totfact> 0.10880012E+05</totfact>
</mgrwt>
</event>
<event>
 5    1  0.6043464E+000  0.9401370E+02  0.7546771E-02  0.1293413E+00
          2   -1    0    0  501    0  0.00000000000E+00  0.00000000000E+00  0.27025132901E+03  0.27025132901E+03  0.00000000000E+00 0.  1.
         -2   -1    0    0    0  501 -0.00000000000E+00 -0.00000000000E+00 -0.81762547653E+01  0.81762547653E+01  0.00000000000E+00 0. -1.
         23    2    1    2    0    0  0.00000000000E+00  0.00000000000E+00  0.26207507425E+03  0.27842758378E+03  0.94013695102E+02 0.  0.
        -13    1    3    3    0    0 -0.15067140782E+02  0.43853189576E+02  0.10818877756E+03  0.11770697752E+03  0.00000000000E+00 0.  1.
         13    1    3    3    0    0  0.15067140782E+02 -0.43853189576E+02  0.15388629669E+03  0.16072060626E+03  0.00000000000E+00 0. -1.
<mgrwt>
<rscale>  0 0.94013695E+02</rscale>
<asrwt>0</asrwt>
<pdfrwt beam="1">  1        2 0.41577121E-01 0.94013695E+02</pdfrwt>
<pdfrwt beam="2">  1       -2 0.12578856E-02 0.94013695E+02</pdfrwt>
<totfact> 0.15917450E+05</totfact>
</mgrwt>
</event>
<event>
 5    1  0.6043464E+000  0.8404372E+02  0.7546771E-02  0.1317952E+00
         -1   -1    0    0    0  501 -0.00000000000E+00  0.00000000000E+00  0.65968200538E+02  0.65968200538E+02  0.00000000000E+00 0.  1.
          1   -1    0    0  501    0  0.00000000000E+00 -0.00000000000E+00 -0.26768000842E+02  0.26768000842E+02  0.00000000000E+00 0. -1.
         23    2    1    2    0    0  0.00000000000E+00  0.00000000000E+00  0.39200199697E+02  0.92736201380E+02  0.84043723086E+02 0.  0.
        -13    1    3    3    0    0  0.39416319986E+02  0.13461289777E+02  0.13458033970E+02  0.43771809216E+02  0.00000000000E+00 0.  1.
         13    1    3    3    0    0 -0.39416319986E+02 -0.13461289777E+02  0.25742165727E+02  0.48964392164E+02  0.00000000000E+00 0. -1.
<mgrwt>
<rscale>  0 0.84043723E+02</rscale>
<asrwt>0</asrwt>
<pdfrwt beam="2">  1        1 0.41181540E-02 0.84043723E+02</pdfrwt>
<pdfrwt beam="1">  1       -1 0.10148954E-01 0.84043723E+02</pdfrwt>
<totfact> 0.10745690E+05</totfact>
</mgrwt>
</event>
<event>
 5    1  0.6043464E+000  0.9129350E+02  0.7546771E-02  0.1299749E+00
          2   -1    0    0  501    0  0.00000000000E+00  0.00000000000E+00  0.15360106293E+02  0.15360106293E+02  0.00000000000E+00 0. -1.
         -2   -1    0    0    0  501 -0.00000000000E+00 -0.00000000000E+00 -0.13565177500E+03  0.13565177500E+03  0.00000000000E+00 0.  1.
         23    2    1    2    0    0  0.00000000000E+00  0.00000000000E+00 -0.12029166871E+03  0.15101188129E+03  0.91293497749E+02 0.  0.
        -13    1    3    3    0    0  0.22136008740E+02  0.29017662235E+02 -0.10549445710E+03  0.11162933343E+03  0.00000000000E+00 0.  1.
         13    1    3    3    0    0 -0.22136008740E+02 -0.29017662235E+02 -0.14797211611E+02  0.39382547861E+02  0.00000000000E+00 0. -1.
<mgrwt>
<rscale>  0 0.91293498E+02</rscale>
<asrwt>0</asrwt>
<pdfrwt beam="1">  1        2 0.23630933E-02 0.91293498E+02</pdfrwt>
<pdfrwt beam="2">  1       -2 0.20869504E-01 0.91293498E+02</pdfrwt>
<totfact> 0.72156275E+04</totfact>
</mgrwt>
</event>
<event>
 5    1  0.6043464E+000  0.9055580E+02  0.7546771E-02  0.1301511E+00
         -1   -1    0    0    0  501 -0.00000000000E+00  0.00000000000E+00  0.19941313158E+02  0.19941313158E+02  0.00000000000E+00 0.  1.
          1   -1    0    0  501    0  0.00000000000E+00 -0.00000000000E+00 -0.10280608124E+03  0.10280608124E+03  0.00000000000E+00 0. -1.
         23    2    1    2    0    0  0.00000000000E+00  0.00000000000E+00 -0.82864768083E+02  0.12274739440E+03  0.90555800710E+02 0.  0.
        -13    1    3    3    0    0  0.71762760347E+01  0.15117145591E+02 -0.98460648127E+02  0.99872550073E+02  0.00000000000E+00 0. -1.
         13    1    3    3    0    0 -0.71762760347E+01 -0.15117145591E+02  0.15595880044E+02  0.22874844325E+02  0.00000000000E+00 0.  1.
<mgrwt>
<rscale>  0 0.90555801E+02</rscale>
<asrwt>0</asrwt>
<pdfrwt beam="2">  1        1 0.15816320E-01 0.90555801E+02</pdfrwt>
<pdfrwt beam="1">  1       -1 0.30678944E-02 0.90555801E+02</pdfrwt>
<totfact> 0.10690503E+05</totfact>
</mgrwt>
</event>
<event>
 5    1  0.6043464E+000  0.9386136E+02  0.7546771E-02  0.1293761E+00
         -3   -1    0    0    0  501 -0.00000000000E+00  0.00000000000E+00  0.35646217957E+02  0.35646217957E+02  0.00000000000E+00 0. -1.
          3   -1    0    0  501    0  0.00000000000E+00 -0.00000000000E+00 -0.61787449181E+02  0.61787449181E+02  0.00000000000E+00 0.  1.
         23    2    1    2    0    0  0.00000000000E+00  0.00000000000E+00 -0.26141231224E+02  0.97433667138E+02  0.93861363308E+02 0.  0.
        -13    1    3    3    0    0 -0.20728205971E+02 -0.32342148195E+02  0.14914968302E+02  0.41208365074E+02  0.00000000000E+00 0. -1.
         13    1    3    3    0    0  0.20728205971E+02  0.32342148195E+02 -0.41056199526E+02  0.56225302064E+02  0.00000000000E+00 0.  1.
<mgrwt>
<rscale>  0 0.93861363E+02</rscale>
<asrwt>0</asrwt>
<pdfrwt beam="2">  1        3 0.95057612E-02 0.93861363E+02</pdfrwt>
<pdfrwt beam="1">  1       -3 0.54840336E-02 0.93861363E+02</pdfrwt>
<totfact> 0.32206331E+04</totfact>
</mgrwt>
</event>
<event>
 5    1  0.6043464E+000  0.9582557E+02  0.7546771E-02  0.1289327E+00
          1   -1    0    0  501    0  0.00000000000E+00  0.00000000000E+00  0.10616389498E+03  0.10616389498E+03  0.00000000000E+00 0. -1.
         -1   -1    0    0    0  501 -0.00000000000E+00 -0.00000000000E+00 -0.21623499168E+02  0.21623499168E+02  0.00000000000E+00 0.  1.
         23    2    1    2    0    0  0.00000000000E+00  0.00000000000E+00  0.84540395810E+02  0.12778739415E+03  0.95825568503E+02 0.  0.
        -13    1    3    3    0    0 -0.75325432475E+01  0.18162503895E+02  0.10053573456E+03  0.10244046895E+03  0.00000000000E+00 0. -1.
         13    1    3    3    0    0  0.75325432475E+01 -0.18162503895E+02 -0.15995338745E+02  0.25346925199E+02  0.00000000000E+00 0.  1.
<mgrwt>
<rscale>  0 0.95825569E+02</rscale>
<asrwt>0</asrwt>
<pdfrwt beam="1">  1        1 0.16332907E-01 0.95825569E+02</pdfrwt>
<pdfrwt beam="2">  1       -1 0.33266922E-02 0.95825569E+02</pdfrwt>
<totfact> 0.92099336E+04</totfact>
</mgrwt>
</event>
<event>
 5    1  0.6043464E+000  0.9376593E+02  0.7546771E-02  0.1293980E+00
         -1   -1    0    0    0  501 -0.00000000000E+00  0.00000000000E+00  0.12199329623E+02  0.12199329623E+02  0.00000000000E+00 0.  1.
          1   -1    0    0  501    0  0.00000000000E+00 -0.00000000000E+00 -0.18017484147E+03  0.18017484147E+03  0.00000000000E+00 0. -1.
         23    2    1    2    0    0  0.00000000000E+00  0.00000000000E+00 -0.16797551185E+03  0.19237417109E+03  0.93765927304E+02 0.  0.
        -13    1    3    3    0    0 -0.29425141231E+02  0.58675586657E+01 -0.10078912294E+02  0.31652040285E+02  0.00000000000E+00 0.  1.
         13    1    3    3    0    0  0.29425141231E+02 -0.58675586657E+01 -0.15789659955E+03  0.16072213081E+03  0.00000000000E+00 0. -1.
<mgrwt>
<rscale>  0 0.93765927E+02</rscale>
<asrwt>0</asrwt>
<pdfrwt beam="2">  1        1 0.27719205E-01 0.93765927E+02</pdfrwt>
<pdfrwt beam="1">  1       -1 0.18768201E-02 0.93765927E+02</pdfrwt>
<totfact> 0.10761768E+05</totfact>
</mgrwt>
</event>
<event>
 5    1  0.6043464E+000  0.9902505E+02  0.7546771E-02  0.1282360E+00
         -2   -1    0    0    0  501 -0.00000000000E+00  0.00000000000E+00  0.41963187956E+03  0.41963187956E+03  0.00000000000E+00 0.  1.
          2   -1    0    0  501    0  0.00000000000E+00 -0.00000000000E+00 -0.58420011477E+01  0.58420011477E+01  0.00000000000E+00 0. -1.
         23    2    1    2    0    0  0.00000000000E+00  0.00000000000E+00  0.41378987842E+03  0.42547388071E+03  0.99025045762E+02 0.  0.
        -13    1    3    3    0    0  0.11676700079E+02  0.47364455517E+02  0.17049943537E+03  0.17734089893E+03  0.00000000000E+00 0.  1.
         13    1    3    3    0    0 -0.11676700079E+02 -0.47364455517E+02  0.24329044304E+03  0.24813298178E+03  0.00000000000E+00 0. -1.
<mgrwt>
<rscale>  0 0.99025046E+02</rscale>
<asrwt>0</asrwt>
<pdfrwt beam="2">  1        2 0.89876974E-03 0.99025046E+02</pdfrwt>
<pdfrwt beam="1">  1       -2 0.64558727E-01 0.99025046E+02</pdfrwt>
<totfact> 0.33347117E+04</totfact>
</mgrwt>
</event>
<event>
 5    1  0.6043464E+000  0.9493719E+02  0.7546771E-02  0.1291318E+00
          2   -1    0    0  501    0  0.00000000000E+00  0.00000000000E+00  0.23900137618E+03  0.23900137618E+03  0.00000000000E+00 0. -1.
         -2   -1    0    0    0  501 -0.00000000000E+00 -0.00000000000E+00 -0.94278441814E+01  0.94278441814E+01  0.00000000000E+00 0.  1.
         23    2    1    2    0    0  0.00000000000E+00  0.00000000000E+00  0.22957353199E+03  0.24842922036E+03  0.94937194686E+02 0.  0.
        -13    1    3    3    0    0  0.44669344196E+02  0.14408096430E+02  0.96223489405E+02  0.10706027959E+03  0.00000000000E+00 0.  1.
         13    1    3    3    0    0 -0.44669344196E+02 -0.14408096430E+02  0.13335004259E+03  0.14136894076E+03  0.00000000000E+00 0. -1.
<mgrwt>
<rscale>  0 0.94937195E+02</rscale>
<asrwt>0</asrwt>
<pdfrwt beam="1">  1        2 0.36769438E-01 0.94937195E+02</pdfrwt>
<pdfrwt beam="2">  1       -2 0.14504377E-02 0.94937195E+02</pdfrwt>
<totfact> 0.14809249E+05</totfact>
</mgrwt>
</event>
<event>
 5    1  0.6043464E+000  0.9038148E+02  0.7546771E-02  0.1301930E+00
         -4   -1    0    0    0  501 -0.00000000000E+00  0.00000000000E+00  0.11330389802E+03  0.11330389802E+03  0.00000000000E+00 0.  1.
          4   -1    0    0  501    0  0.00000000000E+00 -0.00000000000E+00 -0.18024121011E+02  0.18024121011E+02  0.00000000000E+00 0. -1.
         23    2    1    2    0    0  0.00000000000E+00  0.00000000000E+00  0.95279777014E+02  0.13132801904E+03  0.90381484143E+02 0.  0.
        -13    1    3    3    0    0 -0.12970022222E+02 -0.38110677474E+02  0.77473550801E+02  0.87308626651E+02  0.00000000000E+00 0.  1.
         13    1    3    3    0    0  0.12970022222E+02  0.38110677474E+02  0.17806226213E+02  0.44019392384E+02  0.00000000000E+00 0. -1.
<mgrwt>
<rscale>  0 0.90381484E+02</rscale>
<asrwt>0</asrwt>
<pdfrwt beam="2">  1        4 0.27729418E-02 0.90381484E+02</pdfrwt>
<pdfrwt beam="1">  1       -4 0.17431369E-01 0.90381484E+02</pdfrwt>
<totfact> 0.25233963E+04</totfact>
</mgrwt>
</event>
<event>
 5    1  0.6043464E+000  0.9096695E+02  0.7546771E-02  0.1300527E+00
          3   -1    0    0  501    0  0.00000000000E+00  0.00000000000E+00  0.18716215267E+02  0.18716215267E+02  0.00000000000E+00 0.  1.
         -3   -1    0    0    0  501 -0.00000000000E+00 -0.00000000000E+00 -0.11053231542E+03  0.11053231542E+03  0.00000000000E+00 0. -1.
         23    2    1    2    0    0  0.00000000000E+00  0.00000000000E+00 -0.91816100153E+02  0.12924853069E+03  0.90966952446E+02 0.  0.
        -13    1    3    3    0    0 -0.26627402225E+02  0.13126090538E+02  0.30525434722E+01  0.29843438537E+02  0.00000000000E+00 0.  1.
         13    1    3    3    0    0  0.26627402225E+02 -0.13126090538E+02 -0.94868643625E+02  0.99405092150E+02  0.00000000000E+00 0. -1.
<mgrwt>
<rscale>  0 0.90966952E+02</rscale>
<asrwt>0</asrwt>
<pdfrwt beam="1">  1        3 0.28794177E-02 0.90966952E+02</pdfrwt>
<pdfrwt beam="2">  1       -3 0.17004972E-01 0.90966952E+02</pdfrwt>
<totfact> 0.32831748E+04</totfact>
</mgrwt>
</event>
<event>
 5    1  0.6043464E+000  0.9275702E+02  0.7546771E-02  0.1296309E+00
         -1   -1    0    0    0  501 -0.00000000000E+00  0.00000000000E+00  0.47605141418E+02  0.47605141418E+02  0.00000000000E+00 0.  1.
          1   -1    0    0  501    0  0.00000000000E+00 -0.00000000000E+00 -0.45183483600E+02  0.45183483600E+02  0.00000000000E+00 0. -1.
         23    2    1    2    0    0  0.00000000000E+00  0.00000000000E+00  0.24216578174E+01  0.92788625018E+02  0.92757018636E+02 0.  0.
        -13    1    3    3    0    0 -0.10920698293E+02 -0.29938351699E+02  0.34918001224E+02  0.47274024191E+02  0.00000000000E+00 0.  1.
         13    1    3    3    0    0  0.10920698293E+02  0.29938351699E+02 -0.32496343407E+02  0.45514600827E+02  0.00000000000E+00 0. -1.
<mgrwt>
<rscale>  0 0.92757019E+02</rscale>
<asrwt>0</asrwt>
<pdfrwt beam="2">  1        1 0.69513051E-02 0.92757019E+02</pdfrwt>
<pdfrwt beam="1">  1       -1 0.73238679E-02 0.92757019E+02</pdfrwt>
<totfact> 0.87988185E+04</totfact>
</mgrwt>
</event>
<event>
 5    1  0.6043464E+000  0.9435223E+02  0.7546771E-02  0.1292642E+00
         -2   -1    0    0    0  501 -0.00000000000E+00  0.00000000000E+00  0.93098384599E+02  0.93098384599E+02  0.00000000000E+00 0.  1.
          2   -1    0    0  501    0  0.00000000000E+00 -0.00000000000E+00 -0.23905740483E+02  0.23905740483E+02  0.00000000000E+00 0. -1.
         23    2    1    2    0    0  0.00000000000E+00  0.00000000000E+00  0.69192644116E+02  0.11700412508E+03  0.94352229896E+02 0.  0.
        -13    1    3    3    0    0  0.41046408267E+02  0.22865224812E+02  0.29341011893E+02  0.55394233601E+02  0.00000000000E+00 0.  1.
         13    1    3    3    0    0 -0.41046408267E+02 -0.22865224812E+02  0.39851632223E+02  0.61609891480E+02  0.00000000000E+00 0. -1.
<mgrwt>
<rscale>  0 0.94352230E+02</rscale>
<asrwt>0</asrwt>
<pdfrwt beam="2">  1        2 0.36778063E-02 0.94352230E+02</pdfrwt>
<pdfrwt beam="1">  1       -2 0.14322828E-01 0.94352230E+02</pdfrwt>
<totfact> 0.74870011E+04</totfact>
</mgrwt>
</event>
<event>
 5    1  0.6043464E+000  0.9379488E+02  0.7546771E-02  0.1293914E+00
         -1   -1    0    0    0  501 -0.00000000000E+00  0.00000000000E+00  0.28316512986E+02  0.28316512986E+02  0.00000000000E+00 0.  1.
          1   -1    0    0  501    0  0.00000000000E+00 -0.00000000000E+00 -0.77670921196E+02  0.77670921196E+02  0.00000000000E+00 0. -1.
         23    2    1    2    0    0  0.00000000000E+00  0.00000000000E+00 -0.49354408210E+02  0.10598743418E+03  0.93794875099E+02 0.  0.
        -13    1    3    3    0    0 -0.18529568973E+02 -0.36185073563E+02  0.17429881004E+01  0.40690815703E+02  0.00000000000E+00 0.  1.
         13    1    3    3    0    0  0.18529568973E+02  0.36185073563E+02 -0.51097396311E+02  0.65296618479E+02  0.00000000000E+00 0. -1.
<mgrwt>
<rscale>  0 0.93794875E+02</rscale>
<asrwt>0</asrwt>
<pdfrwt beam="2">  1        1 0.11949372E-01 0.93794875E+02</pdfrwt>
<pdfrwt beam="1">  1       -1 0.43563866E-02 0.93794875E+02</pdfrwt>
<totfact> 0.92751543E+04</totfact>
</mgrwt>
</event>
<event>
 5    1  0.6043464E+000  0.9116930E+02  0.7546771E-02  0.1300045E+00
          4   -1    0    0  501    0  0.00000000000E+00  0.00000000000E+00  0.17771881711E+02  0.17771881711E+02  0.00000000000E+00 0. -1.
         -4   -1    0    0    0  501 -0.00000000000E+00 -0.00000000000E+00 -0.11692404841E+03  0.11692404841E+03  0.00000000000E+00 0.  1.
         23    2    1    2    0    0  0.00000000000E+00  0.00000000000E+00 -0.99152166702E+02  0.13469593012E+03  0.91169300920E+02 0.  0.
        -13    1    3    3    0    0 -0.56224285265E+01 -0.18643772280E+02  0.11317517876E+02  0.22523058367E+02  0.00000000000E+00 0. -1.
         13    1    3    3    0    0  0.56224285265E+01  0.18643772280E+02 -0.11046968458E+03  0.11217287176E+03  0.00000000000E+00 0.  1.
<mgrwt>
<rscale>  0 0.91169301E+02</rscale>
<asrwt>0</asrwt>
<pdfrwt beam="1">  1        4 0.27341357E-02 0.91169301E+02</pdfrwt>
<pdfrwt beam="2">  1       -4 0.17988315E-01 0.91169301E+02</pdfrwt>
<totfact> 0.24470503E+04</totfact>
</mgrwt>
</event>
<event>
 5    1  0.6043464E+000  0.9108038E+02  0.7546771E-02  0.1300256E+00
          1   -1    0    0  501    0  0.00000000000E+00  0.00000000000E+00  0.20888836752E+03  0.20888836752E+03  0.00000000000E+00 0. -1.
         -1   -1    0    0    0  501 -0.00000000000E+00 -0.00000000000E+00 -0.99283113480E+01  0.99283113480E+01  0.00000000000E+00 0.  1.
         23    2    1    2    0    0  0.00000000000E+00  0.00000000000E+00  0.19896005617E+03  0.21881667887E+03  0.91080376585E+02 0.  0.
        -13    1    3    3    0    0 -0.35915767296E+02  0.72613537196E+01  0.34514148540E+02  0.50337819259E+02  0.00000000000E+00 0.  1.
         13    1    3    3    0    0  0.35915767296E+02 -0.72613537196E+01  0.16444590763E+03  0.16847885961E+03  0.00000000000E+00 0. -1.
<mgrwt>
<rscale>  0 0.91080377E+02</rscale>
<asrwt>0</asrwt>
<pdfrwt beam="1">  1        1 0.32136669E-01 0.91080377E+02</pdfrwt>
<pdfrwt beam="2">  1       -1 0.15274327E-02 0.91080377E+02</pdfrwt>
<totfact> 0.11975015E+05</totfact>
</mgrwt>
</event>
<event>
 5    1  0.6043464E+000  0.9306111E+02  0.7546771E-02  0.1295604E+00
         -2   -1    0    0    0  501 -0.00000000000E+00  0.00000000000E+00  0.11439072496E+03  0.11439072496E+03  0.00000000000E+00 0.  1.
          2   -1    0    0  501    0  0.00000000000E+00 -0.00000000000E+00 -0.18927166958E+02  0.18927166958E+02  0.00000000000E+00 0. -1.
         23    2    1    2    0    0  0.00000000000E+00  0.00000000000E+00  0.95463558003E+02  0.13331789192E+03  0.93061105726E+02 0.  0.
        -13    1    3    3    0    0  0.24366586047E+02  0.15427428360E+02  0.10004281681E+03  0.10411676741E+03  0.00000000000E+00 0.  1.
         13    1    3    3    0    0 -0.24366586047E+02 -0.15427428360E+02 -0.45792588034E+01  0.29201124508E+02  0.00000000000E+00 0. -1.
<mgrwt>
<rscale>  0 0.93061106E+02</rscale>
<asrwt>0</asrwt>
<pdfrwt beam="2">  1        2 0.29118719E-02 0.93061106E+02</pdfrwt>
<pdfrwt beam="1">  1       -2 0.17598573E-01 0.93061106E+02</pdfrwt>
<totfact> 0.72752692E+04</totfact>
</mgrwt>
</event>
<event>
 5    1  0.6043464E+000  0.8716218E+02  0.7546771E-02  0.1309873E+00
          2   -1    0    0  501    0  0.00000000000E+00  0.00000000000E+00  0.19394374925E+03  0.19394374925E+03  0.00000000000E+00 0.  1.
         -2   -1    0    0    0  501 -0.00000000000E+00 -0.00000000000E+00 -0.97931035508E+01  0.97931035508E+01  0.00000000000E+00 0. -1.
         23    2    1    2    0    0  0.00000000000E+00  0.00000000000E+00  0.18415064569E+03  0.20373685280E+03  0.87162175728E+02 0.  0.
        -13    1    3    3    0    0 -0.36573972465E+02 -0.20221712323E+02  0.63187471921E+02  0.75757704023E+02  0.00000000000E+00 0. -1.
         13    1    3    3    0    0  0.36573972465E+02  0.20221712323E+02  0.12096317377E+03  0.12797914877E+03  0.00000000000E+00 0.  1.
<mgrwt>
<rscale>  0 0.87162176E+02</rscale>
<asrwt>0</asrwt>
<pdfrwt beam="1">  1        2 0.29837497E-01 0.87162176E+02</pdfrwt>
<pdfrwt beam="2">  1       -2 0.15066315E-02 0.87162176E+02</pdfrwt>
<totfact> 0.17263655E+05</totfact>
</mgrwt>
</event>
<event>
 5    1  0.6043464E+000  0.9183782E+02  0.7546771E-02  0.1298461E+00
         -1   -1    0    0    0  501 -0.00000000000E+00  0.00000000000E+00  0.20606291545E+03  0.20606291545E+03  0.00000000000E+00 0.  1.
          1   -1    0    0  501    0  0.00000000000E+00 -0.00000000000E+00 -0.10232536430E+02  0.10232536430E+02  0.00000000000E+00 0. -1.
         23    2    1    2    0    0  0.00000000000E+00  0.00000000000E+00  0.19583037902E+03  0.21629545188E+03  0.91837819861E+02 0.  0.
        -13    1    3    3    0    0  0.19045421617E+02 -0.40680639873E+02  0.75460000871E+02  0.87817163906E+02  0.00000000000E+00 0.  1.
         13    1    3    3    0    0 -0.19045421617E+02  0.40680639873E+02  0.12037037815E+03  0.12847828798E+03  0.00000000000E+00 0. -1.
<mgrwt>
<rscale>  0 0.91837820E+02</rscale>
<asrwt>0</asrwt>
<pdfrwt beam="2">  1        1 0.15742365E-02 0.91837820E+02</pdfrwt>
<pdfrwt beam="1">  1       -1 0.31701984E-01 0.91837820E+02</pdfrwt>
<totfact> 0.67542566E+04</totfact>
</mgrwt>
</event>
<event>
 5    1  0.6043464E+000  0.7565783E+02  0.7546771E-02  0.1341846E+00
          1   -1    0    0  501    0  0.00000000000E+00  0.00000000000E+00  0.39218328109E+01  0.39218328109E+01  0.00000000000E+00 0. -1.
         -1   -1    0    0    0  501 -0.00000000000E+00 -0.00000000000E+00 -0.36488729910E+03  0.36488729910E+03  0.00000000000E+00 0.  1.
         23    2    1    2    0    0  0.00000000000E+00  0.00000000000E+00 -0.36096546629E+03  0.36880913191E+03  0.75657834541E+02 0.  0.
        -13    1    3    3    0    0 -0.66205201271E+01  0.36798325861E+02 -0.20851920416E+03  0.21184477000E+03  0.00000000000E+00 0.  1.
         13    1    3    3    0    0  0.66205201271E+01 -0.36798325861E+02 -0.15244626213E+03  0.15696436191E+03  0.00000000000E+00 0. -1.
<mgrwt>
<rscale>  0 0.75657835E+02</rscale>
<asrwt>0</asrwt>
<pdfrwt beam="1">  1        1 0.60335885E-03 0.75657835E+02</pdfrwt>
<pdfrwt beam="2">  1       -1 0.56136511E-01 0.75657835E+02</pdfrwt>
<totfact> 0.90501046E+04</totfact>
</mgrwt>
</event>
<event>
 5    1  0.6043464E+000  0.9676753E+02  0.7546771E-02  0.1287244E+00
          1   -1    0    0  501    0  0.00000000000E+00  0.00000000000E+00  0.31470220966E+02  0.31470220966E+02  0.00000000000E+00 0. -1.
         -1   -1    0    0    0  501 -0.00000000000E+00 -0.00000000000E+00 -0.74387419139E+02  0.74387419139E+02  0.00000000000E+00 0.  1.
         23    2    1    2    0    0  0.00000000000E+00  0.00000000000E+00 -0.42917198172E+02  0.10585764010E+03  0.96767525904E+02 0.  0.
        -13    1    3    3    0    0 -0.13000422510E+02 -0.28530388062E+02 -0.61771270100E+02  0.69272533071E+02  0.00000000000E+00 0.  1.
         13    1    3    3    0    0  0.13000422510E+02  0.28530388062E+02  0.18854071928E+02  0.36585107033E+02  0.00000000000E+00 0. -1.
<mgrwt>
<rscale>  0 0.96767526E+02</rscale>
<asrwt>0</asrwt>
<pdfrwt beam="1">  1        1 0.48415724E-02 0.96767526E+02</pdfrwt>
<pdfrwt beam="2">  1       -1 0.11444218E-01 0.96767526E+02</pdfrwt>
<totfact> 0.73587028E+04</totfact>
</mgrwt>
</event>
<event>
 5    1  0.6043464E+000  0.8582433E+02  0.7546771E-02  0.1313291E+00
          1   -1    0    0  501    0  0.00000000000E+00  0.00000000000E+00  0.52576470134E+01  0.52576470134E+01  0.00000000000E+00 0. -1.
         -1   -1    0    0    0  501 -0.00000000000E+00 -0.00000000000E+00 -0.35024294594E+03  0.35024294594E+03  0.00000000000E+00 0.  1.
         23    2    1    2    0    0  0.00000000000E+00  0.00000000000E+00 -0.34498529893E+03  0.35550059295E+03  0.85824327056E+02 0.  0.
        -13    1    3    3    0    0  0.41182759356E+02 -0.16403766959E+01 -0.12300375518E+03  0.12972522612E+03  0.00000000000E+00 0. -1.
         13    1    3    3    0    0 -0.41182759356E+02  0.16403766959E+01 -0.22198154375E+03  0.22577536683E+03  0.00000000000E+00 0.  1.
<mgrwt>
<rscale>  0 0.85824327E+02</rscale>
<asrwt>0</asrwt>
<pdfrwt beam="1">  1        1 0.80886846E-03 0.85824327E+02</pdfrwt>
<pdfrwt beam="2">  1       -1 0.53883551E-01 0.85824327E+02</pdfrwt>
<totfact> 0.66483519E+04</totfact>
</mgrwt>
</event>
<event>
 5    1  0.6043464E+000  0.8981153E+02  0.7546771E-02  0.1303309E+00
         -1   -1    0    0    0  501 -0.00000000000E+00  0.00000000000E+00  0.12961213942E+02  0.12961213942E+02  0.00000000000E+00 0.  1.
          1   -1    0    0  501    0  0.00000000000E+00 -0.00000000000E+00 -0.15558171107E+03  0.15558171107E+03  0.00000000000E+00 0. -1.
         23    2    1    2    0    0  0.00000000000E+00  0.00000000000E+00 -0.14262049712E+03  0.16854292501E+03  0.89811532504E+02 0.  0.
        -13    1    3    3    0    0  0.22839184034E+02  0.37724069425E+02 -0.87211188661E+02  0.97726788390E+02  0.00000000000E+00 0. -1.
         13    1    3    3    0    0 -0.22839184034E+02 -0.37724069425E+02 -0.55409308462E+02  0.70816136618E+02  0.00000000000E+00 0.  1.
<mgrwt>
<rscale>  0 0.89811533E+02</rscale>
<asrwt>0</asrwt>
<pdfrwt beam="2">  1        1 0.23935647E-01 0.89811533E+02</pdfrwt>
<pdfrwt beam="1">  1       -1 0.19940330E-02 0.89811533E+02</pdfrwt>
<totfact> 0.11756975E+05</totfact>
</mgrwt>
</event>
<event>
 5    1  0.6043464E+000  0.9207572E+02  0.7546771E-02  0.1297901E+00
          2   -1    0    0  501    0  0.00000000000E+00  0.00000000000E+00  0.19515477826E+03  0.19515477826E+03  0.00000000000E+00 0.  1.
         -2   -1    0    0    0  501 -0.00000000000E+00 -0.00000000000E+00 -0.10860531339E+02  0.10860531339E+02  0.00000000000E+00 0. -1.
         23    2    1    2    0    0  0.00000000000E+00  0.00000000000E+00  0.18429424692E+03  0.20601530959E+03  0.92075720690E+02 0.  0.
        -13    1    3    3    0    0 -0.10357987137E+02 -0.33713637675E+02  0.15835415264E+03  0.16223419775E+03  0.00000000000E+00 0.  1.
         13    1    3    3    0    0  0.10357987137E+02  0.33713637675E+02  0.25940094278E+02  0.43781111841E+02  0.00000000000E+00 0. -1.
<mgrwt>
<rscale>  0 0.92075721E+02</rscale>
<asrwt>0</asrwt>
<pdfrwt beam="1">  1        2 0.30023809E-01 0.92075721E+02</pdfrwt>
<pdfrwt beam="2">  1       -2 0.16708511E-02 0.92075721E+02</pdfrwt>
<totfact> 0.14931210E+05</totfact>
</mgrwt>
</event>
<event>
 5    1  0.6043464E+000  0.9106086E+02  0.7546771E-02  0.1300303E+00
         -4   -1    0    0    0  501 -0.00000000000E+00  0.00000000000E+00  0.17659827613E+02  0.17659827613E+02  0.00000000000E+00 0.  1.
          4   -1    0    0  501    0  0.00000000000E+00 -0.00000000000E+00 -0.11738621205E+03  0.11738621205E+03  0.00000000000E+00 0. -1.
         23    2    1    2    0    0  0.00000000000E+00  0.00000000000E+00 -0.99726384442E+02  0.13504603967E+03  0.91060864678E+02 0.  0.
        -13    1    3    3    0    0  0.22450881086E+01  0.43831966877E+02 -0.67827982932E+02  0.80789337226E+02  0.00000000000E+00 0. -1.
         13    1    3    3    0    0 -0.22450881086E+01 -0.43831966877E+02 -0.31898401511E+02  0.54256702441E+02  0.00000000000E+00 0.  1.
<mgrwt>
<rscale>  0 0.91060865E+02</rscale>
<asrwt>0</asrwt>
<pdfrwt beam="2">  1        4 0.18059417E-01 0.91060865E+02</pdfrwt>
<pdfrwt beam="1">  1       -4 0.27168966E-02 0.91060865E+02</pdfrwt>
<totfact> 0.24530571E+04</totfact>
</mgrwt>
</event>
<event>
 5    1  0.6043464E+000  0.8701315E+02  0.7546771E-02  0.1310250E+00
         -1   -1    0    0    0  501 -0.00000000000E+00  0.00000000000E+00  0.63305497854E+02  0.63305497854E+02  0.00000000000E+00 0.  1.
          1   -1    0    0  501    0  0.00000000000E+00 -0.00000000000E+00 -0.29899808079E+02  0.29899808079E+02  0.00000000000E+00 0. -1.
         23    2    1    2    0    0  0.00000000000E+00  0.00000000000E+00  0.33405689774E+02  0.93205305933E+02  0.87013153861E+02 0.  0.
        -13    1    3    3    0    0  0.39712911201E+02  0.87072001843E+01  0.33293488453E+02  0.52548901268E+02  0.00000000000E+00 0. -1.
         13    1    3    3    0    0 -0.39712911201E+02 -0.87072001843E+01  0.11220132139E+00  0.40656404665E+02  0.00000000000E+00 0.  1.
<mgrwt>
<rscale>  0 0.87013154E+02</rscale>
<asrwt>0</asrwt>
<pdfrwt beam="2">  1        1 0.45999705E-02 0.87013154E+02</pdfrwt>
<pdfrwt beam="1">  1       -1 0.97393074E-02 0.87013154E+02</pdfrwt>
<totfact> 0.99012831E+04</totfact>
</mgrwt>
</event>
<event>
 5    1  0.6043464E+000  0.9106317E+02  0.7546771E-02  0.1300297E+00
          2   -1    0    0  501    0  0.00000000000E+00  0.00000000000E+00  0.30046462617E+03  0.30046462617E+03  0.00000000000E+00 0. -1.
         -2   -1    0    0    0  501 -0.00000000000E+00 -0.00000000000E+00 -0.68997309404E+01  0.68997309404E+01  0.00000000000E+00 0.  1.
         23    2    1    2    0    0  0.00000000000E+00  0.00000000000E+00  0.29356489523E+03  0.30736435711E+03  0.91063166598E+02 0.  0.
        -13    1    3    3    0    0 -0.42194719887E+02  0.16550377406E+02  0.16142345416E+03  0.16766586096E+03  0.00000000000E+00 0. -1.
         13    1    3    3    0    0  0.42194719887E+02 -0.16550377406E+02  0.13214144107E+03  0.13969849615E+03  0.00000000000E+00 0.  1.
<mgrwt>
<rscale>  0 0.91063167E+02</rscale>
<asrwt>0</asrwt>
<pdfrwt beam="1">  1        2 0.46225317E-01 0.91063167E+02</pdfrwt>
<pdfrwt beam="2">  1       -2 0.10614973E-02 0.91063167E+02</pdfrwt>
<totfact> 0.18036341E+05</totfact>
</mgrwt>
</event>
<event>
 5    1  0.6043464E+000  0.8691810E+02  0.7546771E-02  0.1310491E+00
          1   -1    0    0  501    0  0.00000000000E+00  0.00000000000E+00  0.13213334983E+03  0.13213334983E+03  0.00000000000E+00 0.  1.
         -1   -1    0    0    0  501 -0.00000000000E+00 -0.00000000000E+00 -0.14293810487E+02  0.14293810487E+02  0.00000000000E+00 0. -1.
         23    2    1    2    0    0  0.00000000000E+00  0.00000000000E+00  0.11783953934E+03  0.14642716031E+03  0.86918100794E+02 0.  0.
        -13    1    3    3    0    0 -0.27996763866E+02 -0.26289148617E+02  0.24652389059E+02  0.45636371551E+02  0.00000000000E+00 0. -1.
         13    1    3    3    0    0  0.27996763866E+02  0.26289148617E+02  0.93187150281E+02  0.10079078876E+03  0.00000000000E+00 0.  1.
<mgrwt>
<rscale>  0 0.86918101E+02</rscale>
<asrwt>0</asrwt>
<pdfrwt beam="1">  1        1 0.20328207E-01 0.86918101E+02</pdfrwt>
<pdfrwt beam="2">  1       -1 0.21990479E-02 0.86918101E+02</pdfrwt>
<totfact> 0.12466815E+05</totfact>
</mgrwt>
</event>
<event>
 5    1  0.6043464E+000  0.8666485E+02  0.7546771E-02  0.1311135E+00
         -1   -1    0    0    0  501 -0.00000000000E+00  0.00000000000E+00  0.14876588751E+03  0.14876588751E+03  0.00000000000E+00 0.  1.
          1   -1    0    0  501    0  0.00000000000E+00 -0.00000000000E+00 -0.12621837685E+02  0.12621837685E+02  0.00000000000E+00 0. -1.
         23    2    1    2    0    0  0.00000000000E+00  0.00000000000E+00  0.13614404982E+03  0.16138772519E+03  0.86664846048E+02 0.  0.
        -13    1    3    3    0    0  0.24473433215E+02 -0.22954495525E+02  0.11913317095E+03  0.12376821166E+03  0.00000000000E+00 0.  1.
         13    1    3    3    0    0 -0.24473433215E+02  0.22954495525E+02  0.17010878875E+02  0.37619513530E+02  0.00000000000E+00 0. -1.
<mgrwt>
<rscale>  0 0.86664846E+02</rscale>
<asrwt>0</asrwt>
<pdfrwt beam="2">  1        1 0.19418213E-02 0.86664846E+02</pdfrwt>
<pdfrwt beam="1">  1       -1 0.22887058E-01 0.86664846E+02</pdfrwt>
<totfact> 0.85458569E+04</totfact>
</mgrwt>
</event>
<event>
 5    1  0.6043464E+000  0.9120770E+02  0.7546771E-02  0.1299953E+00
         -2   -1    0    0    0  501 -0.00000000000E+00  0.00000000000E+00  0.12607980876E+02  0.12607980876E+02  0.00000000000E+00 0.  1.
          2   -1    0    0  501    0  0.00000000000E+00 -0.00000000000E+00 -0.16495197376E+03  0.16495197376E+03  0.00000000000E+00 0. -1.
         23    2    1    2    0    0  0.00000000000E+00  0.00000000000E+00 -0.15234399288E+03  0.17755995463E+03  0.91207704292E+02 0.  0.
        -13    1    3    3    0    0  0.26196695496E+02  0.26204497722E+02 -0.24417012547E+02  0.44374914732E+02  0.00000000000E+00 0.  1.
         13    1    3    3    0    0 -0.26196695496E+02 -0.26204497722E+02 -0.12792698034E+03  0.13318503990E+03  0.00000000000E+00 0. -1.
<mgrwt>
<rscale>  0 0.91207704E+02</rscale>
<asrwt>0</asrwt>
<pdfrwt beam="2">  1        2 0.25377226E-01 0.91207704E+02</pdfrwt>
<pdfrwt beam="1">  1       -2 0.19396894E-02 0.91207704E+02</pdfrwt>
<totfact> 0.14432049E+05</totfact>
</mgrwt>
</event>
<event>
 5    1  0.6043464E+000  0.9371539E+02  0.7546771E-02  0.1294096E+00
         -3   -1    0    0    0  501 -0.00000000000E+00  0.00000000000E+00  0.74525440161E+02  0.74525440161E+02  0.00000000000E+00 0.  1.
          3   -1    0    0  501    0  0.00000000000E+00 -0.00000000000E+00 -0.29461665767E+02  0.29461665767E+02  0.00000000000E+00 0. -1.
         23    2    1    2    0    0  0.00000000000E+00  0.00000000000E+00  0.45063774394E+02  0.10398710593E+03  0.93715390607E+02 0.  0.
        -13    1    3    3    0    0  0.27783427558E+02  0.37720844661E+02  0.23562471332E+02  0.52440166134E+02  0.00000000000E+00 0.  1.
         13    1    3    3    0    0 -0.27783427558E+02 -0.37720844661E+02  0.21501303063E+02  0.51546939795E+02  0.00000000000E+00 0. -1.
<mgrwt>
<rscale>  0 0.93715391E+02</rscale>
<asrwt>0</asrwt>
<pdfrwt beam="2">  1        3 0.45325640E-02 0.93715391E+02</pdfrwt>
<pdfrwt beam="1">  1       -3 0.11465452E-01 0.93715391E+02</pdfrwt>
<totfact> 0.31896743E+04</totfact>
</mgrwt>
</event>
<event>
 5    1  0.6043464E+000  0.9153727E+02  0.7546771E-02  0.1299171E+00
          2   -1    0    0  501    0  0.00000000000E+00  0.00000000000E+00  0.29094774137E+02  0.29094774137E+02  0.00000000000E+00 0. -1.
         -2   -1    0    0    0  501 -0.00000000000E+00 -0.00000000000E+00 -0.71998084731E+02  0.71998084731E+02  0.00000000000E+00 0.  1.
         23    2    1    2    0    0  0.00000000000E+00  0.00000000000E+00 -0.42903310594E+02  0.10109285887E+03  0.91537271394E+02 0.  0.
        -13    1    3    3    0    0  0.37399403356E+02 -0.13346124762E+02  0.36822258575E+01  0.39879734262E+02  0.00000000000E+00 0. -1.
         13    1    3    3    0    0 -0.37399403356E+02  0.13346124762E+02 -0.46585536451E+02  0.61213124606E+02  0.00000000000E+00 0.  1.
<mgrwt>
<rscale>  0 0.91537271E+02</rscale>
<asrwt>0</asrwt>
<pdfrwt beam="1">  1        2 0.44761191E-02 0.91537271E+02</pdfrwt>
<pdfrwt beam="2">  1       -2 0.11076628E-01 0.91537271E+02</pdfrwt>
<totfact> 0.86717388E+04</totfact>
</mgrwt>
</event>
<event>
 5    1  0.6043464E+000  0.1044690E+03  0.7546771E-02  0.1271169E+00
          4   -1    0    0  501    0  0.00000000000E+00  0.00000000000E+00  0.20197186866E+03  0.20197186866E+03  0.00000000000E+00 0. -1.
         -4   -1    0    0    0  501 -0.00000000000E+00 -0.00000000000E+00 -0.13509031743E+02  0.13509031743E+02  0.00000000000E+00 0.  1.
         23    2    1    2    0    0  0.00000000000E+00  0.00000000000E+00  0.18846283692E+03  0.21548090040E+03  0.10446902670E+03 0.  0.
        -13    1    3    3    0    0  0.19908877928E+02  0.48089327859E+02  0.10333916245E+03  0.11570622010E+03  0.00000000000E+00 0. -1.
         13    1    3    3    0    0 -0.19908877928E+02 -0.48089327859E+02  0.85123674464E+02  0.99774680299E+02  0.00000000000E+00 0.  1.
<mgrwt>
<rscale>  0 0.10446903E+03</rscale>
<asrwt>0</asrwt>
<pdfrwt beam="1">  1        4 0.31072593E-01 0.10446903E+03</pdfrwt>
<pdfrwt beam="2">  1       -4 0.20783127E-02 0.10446903E+03</pdfrwt>
<totfact> 0.14372451E+04</totfact>
</mgrwt>
</event>
<event>
 5    1  0.6043464E+000  0.8836097E+02  0.7546771E-02  0.1306870E+00
         -2   -1    0    0    0  501 -0.00000000000E+00  0.00000000000E+00  0.48489408059E+02  0.48489408059E+02  0.00000000000E+00 0.  1.
          2   -1    0    0  501    0  0.00000000000E+00 -0.00000000000E+00 -0.40254467707E+02  0.40254467707E+02  0.00000000000E+00 0. -1.
         23    2    1    2    0    0  0.00000000000E+00  0.00000000000E+00  0.82349403518E+01  0.88743875766E+02  0.88360971268E+02 0.  0.
        -13    1    3    3    0    0 -0.23296644215E+02  0.37468593441E+02  0.18083364911E+01  0.44157663061E+02  0.00000000000E+00 0. -1.
         13    1    3    3    0    0  0.23296644215E+02 -0.37468593441E+02  0.64266038607E+01  0.44586212705E+02  0.00000000000E+00 0.  1.
<mgrwt>
<rscale>  0 0.88360971E+02</rscale>
<asrwt>0</asrwt>
<pdfrwt beam="2">  1        2 0.61929950E-02 0.88360971E+02</pdfrwt>
<pdfrwt beam="1">  1       -2 0.74599089E-02 0.88360971E+02</pdfrwt>
<totfact> 0.10458978E+05</totfact>
</mgrwt>
</event>
<event>
 5    1  0.6043464E+000  0.9227265E+02  0.7546771E-02  0.1297440E+00
         -1   -1    0    0    0  501 -0.00000000000E+00  0.00000000000E+00  0.71028470236E+01  0.71028470236E+01  0.00000000000E+00 0.  1.
          1   -1    0    0  501    0  0.00000000000E+00 -0.00000000000E+00 -0.29967711085E+03  0.29967711085E+03  0.00000000000E+00 0. -1.
         23    2    1    2    0    0  0.00000000000E+00  0.00000000000E+00 -0.29257426383E+03  0.30677995788E+03  0.92272654126E+02 0.  0.
        -13    1    3    3    0    0  0.37980153848E+02 -0.75736461774E+01 -0.62923116157E+02  0.73886201348E+02  0.00000000000E+00 0.  1.
         13    1    3    3    0    0 -0.37980153848E+02  0.75736461774E+01 -0.22965114767E+03  0.23289375653E+03  0.00000000000E+00 0. -1.
<mgrwt>
<rscale>  0 0.92272654E+02</rscale>
<asrwt>0</asrwt>
<pdfrwt beam="2">  1        1 0.46104166E-01 0.92272654E+02</pdfrwt>
<pdfrwt beam="1">  1       -1 0.10927458E-02 0.92272654E+02</pdfrwt>
<totfact> 0.12407719E+05</totfact>
</mgrwt>
</event>
<event>
 5    1  0.6043464E+000  0.8712998E+02  0.7546771E-02  0.1309955E+00
         -1   -1    0    0    0  501 -0.00000000000E+00  0.00000000000E+00  0.28558409482E+02  0.28558409482E+02  0.00000000000E+00 0.  1.
          1   -1    0    0  501    0  0.00000000000E+00 -0.00000000000E+00 -0.66457073854E+02  0.66457073854E+02  0.00000000000E+00 0. -1.
         23    2    1    2    0    0  0.00000000000E+00  0.00000000000E+00 -0.37898664372E+02  0.95015483337E+02  0.87129979413E+02 0.  0.
        -13    1    3    3    0    0 -0.20955488982E+02 -0.25544929201E+02 -0.49913320475E+02  0.59858295058E+02  0.00000000000E+00 0. -1.
         13    1    3    3    0    0  0.20955488982E+02  0.25544929201E+02  0.12014656103E+02  0.35157188279E+02  0.00000000000E+00 0.  1.
<mgrwt>
<rscale>  0 0.87129979E+02</rscale>
<asrwt>0</asrwt>
<pdfrwt beam="2">  1        1 0.10224165E-01 0.87129979E+02</pdfrwt>
<pdfrwt beam="1">  1       -1 0.43936015E-02 0.87129979E+02</pdfrwt>
<totfact> 0.11090712E+05</totfact>
</mgrwt>
</event>
<event>
 5    1  0.6043464E+000  0.9135614E+02  0.7546771E-02  0.1299600E+00
         -1   -1    0    0    0  501 -0.00000000000E+00  0.00000000000E+00  0.14012643138E+03  0.14012643138E+03  0.00000000000E+00 0.  1.
          1   -1    0    0  501    0  0.00000000000E+00 -0.00000000000E+00 -0.14890026592E+02  0.14890026592E+02  0.00000000000E+00 0. -1.
         23    2    1    2    0    0  0.00000000000E+00  0.00000000000E+00  0.12523640479E+03  0.15501645797E+03  0.91356144611E+02 0.  0.
        -13    1    3    3    0    0  0.30500891479E+01  0.22238166076E+02 -0.48862012607E+01  0.22972027272E+02  0.00000000000E+00 0. -1.
         13    1    3    3    0    0 -0.30500891479E+01 -0.22238166076E+02  0.13012260605E+03  0.13204443070E+03  0.00000000000E+00 0.  1.
<mgrwt>
<rscale>  0 0.91356145E+02</rscale>
<asrwt>0</asrwt>
<pdfrwt beam="2">  1        1 0.22907734E-02 0.91356145E+02</pdfrwt>
<pdfrwt beam="1">  1       -1 0.21557912E-01 0.91356145E+02</pdfrwt>
<totfact> 0.75578370E+04</totfact>
</mgrwt>
</event>
<event>
 5    1  0.6043464E+000  0.9015981E+02  0.7546771E-02  0.1302465E+00
         -2   -1    0    0    0  501 -0.00000000000E+00  0.00000000000E+00  0.95874446198E+01  0.95874446198E+01  0.00000000000E+00 0.  1.
          2   -1    0    0  501    0  0.00000000000E+00 -0.00000000000E+00 -0.21196450518E+03  0.21196450518E+03  0.00000000000E+00 0. -1.
         23    2    1    2    0    0  0.00000000000E+00  0.00000000000E+00 -0.20237706056E+03  0.22155194980E+03  0.90159812662E+02 0.  0.
        -13    1    3    3    0    0  0.28288410822E+02 -0.23947682901E+02 -0.16424524135E+03  0.16837525059E+03  0.00000000000E+00 0. -1.
         13    1    3    3    0    0 -0.28288410822E+02  0.23947682901E+02 -0.38131819209E+02  0.53176699215E+02  0.00000000000E+00 0.  1.
<mgrwt>
<rscale>  0 0.90159813E+02</rscale>
<asrwt>0</asrwt>
<pdfrwt beam="2">  1        2 0.32609921E-01 0.90159813E+02</pdfrwt>
<pdfrwt beam="1">  1       -2 0.14749916E-02 0.90159813E+02</pdfrwt>
<totfact> 0.16280852E+05</totfact>
</mgrwt>
</event>
<event>
 5    1  0.6043464E+000  0.9776884E+02  0.7546771E-02  0.1285059E+00
          2   -1    0    0  501    0  0.00000000000E+00  0.00000000000E+00  0.36911605188E+03  0.36911605188E+03  0.00000000000E+00 0. -1.
         -2   -1    0    0    0  501 -0.00000000000E+00 -0.00000000000E+00 -0.64740793602E+01  0.64740793602E+01  0.00000000000E+00 0.  1.
         23    2    1    2    0    0  0.00000000000E+00  0.00000000000E+00  0.36264197252E+03  0.37559013124E+03  0.97768841928E+02 0.  0.
        -13    1    3    3    0    0 -0.36235667384E+02  0.32788464596E+02  0.17649274603E+03  0.18313327498E+03  0.00000000000E+00 0.  1.
         13    1    3    3    0    0  0.36235667384E+02 -0.32788464596E+02  0.18614922648E+03  0.19245685626E+03  0.00000000000E+00 0. -1.
<mgrwt>
<rscale>  0 0.97768842E+02</rscale>
<asrwt>0</asrwt>
<pdfrwt beam="1">  1        2 0.56787068E-01 0.97768842E+02</pdfrwt>
<pdfrwt beam="2">  1       -2 0.99601250E-03 0.97768842E+02</pdfrwt>
<totfact> 0.16094980E+05</totfact>
</mgrwt>
</event>
<event>
 5    1  0.6043464E+000  0.9075988E+02  0.7546771E-02  0.1301022E+00
         -3   -1    0    0    0  501 -0.00000000000E+00  0.00000000000E+00  0.67345729942E+02  0.67345729942E+02  0.00000000000E+00 0.  1.
          3   -1    0    0  501    0  0.00000000000E+00 -0.00000000000E+00 -0.30578615373E+02  0.30578615373E+02  0.00000000000E+00 0. -1.
         23    2    1    2    0    0  0.00000000000E+00  0.00000000000E+00  0.36767114570E+02  0.97924345315E+02  0.90759884815E+02 0.  0.
        -13    1    3    3    0    0 -0.13426208615E+01 -0.22932280293E+02 -0.23842068238E+02  0.33107949620E+02  0.00000000000E+00 0. -1.
         13    1    3    3    0    0  0.13426208615E+01  0.22932280293E+02  0.60609182808E+02  0.64816395695E+02  0.00000000000E+00 0.  1.
<mgrwt>
<rscale>  0 0.90759885E+02</rscale>
<asrwt>0</asrwt>
<pdfrwt beam="2">  1        3 0.47044024E-02 0.90759885E+02</pdfrwt>
<pdfrwt beam="1">  1       -3 0.10360882E-01 0.90759885E+02</pdfrwt>
<totfact> 0.35263801E+04</totfact>
</mgrwt>
</event>
<event>
 5    1  0.6043464E+000  0.9730915E+02  0.7546771E-02  0.1286058E+00
          4   -1    0    0  501    0  0.00000000000E+00  0.00000000000E+00  0.85253299508E+01  0.85253299508E+01  0.00000000000E+00 0. -1.
         -4   -1    0    0    0  501 -0.00000000000E+00 -0.00000000000E+00 -0.27767459949E+03  0.27767459949E+03  0.00000000000E+00 0.  1.
         23    2    1    2    0    0  0.00000000000E+00  0.00000000000E+00 -0.26914926954E+03  0.28619992945E+03  0.97309148175E+02 0.  0.
        -13    1    3    3    0    0 -0.38517025890E+02  0.23605618587E+02 -0.18771748610E+03  0.19307677514E+03  0.00000000000E+00 0.  1.
         13    1    3    3    0    0  0.38517025890E+02 -0.23605618587E+02 -0.81431783447E+02  0.93123154305E+02  0.00000000000E+00 0. -1.
<mgrwt>
<rscale>  0 0.97309148E+02</rscale>
<asrwt>0</asrwt>
<pdfrwt beam="1">  1        4 0.13115893E-02 0.97309148E+02</pdfrwt>
<pdfrwt beam="2">  1       -4 0.42719166E-01 0.97309148E+02</pdfrwt>
<totfact> 0.15332825E+04</totfact>
</mgrwt>
</event>
<event>
 5    1  0.6043464E+000  0.8990536E+02  0.7546771E-02  0.1303081E+00
         -1   -1    0    0    0  501 -0.00000000000E+00  0.00000000000E+00  0.68253867367E+02  0.68253867367E+02  0.00000000000E+00 0. -1.
          1   -1    0    0  501    0  0.00000000000E+00 -0.00000000000E+00 -0.29606284913E+02  0.29606284913E+02  0.00000000000E+00 0.  1.
         23    2    1    2    0    0  0.00000000000E+00  0.00000000000E+00  0.38647582454E+02  0.97860152280E+02  0.89905360100E+02 0.  0.
        -13    1    3    3    0    0  0.57106943965E+01 -0.37763760884E+02 -0.64809771502E+01  0.38739085320E+02  0.00000000000E+00 0.  1.
         13    1    3    3    0    0 -0.57106943965E+01  0.37763760884E+02  0.45128559604E+02  0.59121066960E+02  0.00000000000E+00 0. -1.
<mgrwt>
<rscale>  0 0.89905360E+02</rscale>
<asrwt>0</asrwt>
<pdfrwt beam="2">  1        1 0.45548131E-02 0.89905360E+02</pdfrwt>
<pdfrwt beam="1">  1       -1 0.10500595E-01 0.89905360E+02</pdfrwt>
<totfact> 0.90053807E+04</totfact>
</mgrwt>
</event>
<event>
 5    1  0.6043464E+000  0.9297872E+02  0.7546771E-02  0.1295795E+00
         -1   -1    0    0    0  501 -0.00000000000E+00  0.00000000000E+00  0.14280987190E+03  0.14280987190E+03  0.00000000000E+00 0.  1.
          1   -1    0    0  501    0  0.00000000000E+00 -0.00000000000E+00 -0.15133831250E+02  0.15133831250E+02  0.00000000000E+00 0. -1.
         23    2    1    2    0    0  0.00000000000E+00  0.00000000000E+00  0.12767604065E+03  0.15794370315E+03  0.92978718044E+02 0.  0.
        -13    1    3    3    0    0 -0.36170089992E+02 -0.23702852794E+02  0.92823768482E+02  0.10240289369E+03  0.00000000000E+00 0.  1.
         13    1    3    3    0    0  0.36170089992E+02  0.23702852794E+02  0.34852272172E+02  0.55540809466E+02  0.00000000000E+00 0. -1.
<mgrwt>
<rscale>  0 0.92978718E+02</rscale>
<asrwt>0</asrwt>
<pdfrwt beam="2">  1        1 0.23282818E-02 0.92978718E+02</pdfrwt>
<pdfrwt beam="1">  1       -1 0.21970749E-01 0.92978718E+02</pdfrwt>
<totfact> 0.71892081E+04</totfact>
</mgrwt>
</event>
<event>
 5    1  0.6043464E+000  0.9177085E+02  0.7546771E-02  0.1298619E+00
          2   -1    0    0  501    0  0.00000000000E+00  0.00000000000E+00  0.24667506080E+02  0.24667506080E+02  0.00000000000E+00 0. -1.
         -2   -1    0    0    0  501 -0.00000000000E+00 -0.00000000000E+00 -0.85354082324E+02  0.85354082324E+02  0.00000000000E+00 0.  1.
         23    2    1    2    0    0  0.00000000000E+00  0.00000000000E+00 -0.60686576244E+02  0.11002158840E+03  0.91770852555E+02 0.  0.
        -13    1    3    3    0    0  0.29146603082E+02 -0.35214559793E+02 -0.25565414524E+02  0.52375376967E+02  0.00000000000E+00 0. -1.
         13    1    3    3    0    0 -0.29146603082E+02  0.35214559793E+02 -0.35121161719E+02  0.57646211437E+02  0.00000000000E+00 0.  1.
<mgrwt>
<rscale>  0 0.91770853E+02</rscale>
<asrwt>0</asrwt>
<pdfrwt beam="1">  1        2 0.37950009E-02 0.91770853E+02</pdfrwt>
<pdfrwt beam="2">  1       -2 0.13131397E-01 0.91770853E+02</pdfrwt>
<totfact> 0.82226157E+04</totfact>
</mgrwt>
</event>
<event>
 5    1  0.6043464E+000  0.8821214E+02  0.7546771E-02  0.1307240E+00
         -3   -1    0    0    0  501 -0.00000000000E+00  0.00000000000E+00  0.37213063828E+03  0.37213063828E+03  0.00000000000E+00 0.  1.
          3   -1    0    0  501    0  0.00000000000E+00 -0.00000000000E+00 -0.52275873996E+01  0.52275873996E+01  0.00000000000E+00 0. -1.
         23    2    1    2    0    0  0.00000000000E+00  0.00000000000E+00  0.36690305088E+03  0.37735822568E+03  0.88212140563E+02 0.  0.
        -13    1    3    3    0    0 -0.23396915910E+02 -0.35230228435E+02  0.12989108386E+03  0.13660262932E+03  0.00000000000E+00 0. -1.
         13    1    3    3    0    0  0.23396915910E+02  0.35230228435E+02  0.23701196702E+03  0.24075559636E+03  0.00000000000E+00 0.  1.
<mgrwt>
<rscale>  0 0.88212141E+02</rscale>
<asrwt>0</asrwt>
<pdfrwt beam="2">  1        3 0.80424451E-03 0.88212141E+02</pdfrwt>
<pdfrwt beam="1">  1       -3 0.57250847E-01 0.88212141E+02</pdfrwt>
<totfact> 0.23268083E+04</totfact>
</mgrwt>
</event>
<event>
 5    1  0.6043464E+000  0.8863840E+02  0.7546771E-02  0.1306183E+00
         -4   -1    0    0    0  501 -0.00000000000E+00  0.00000000000E+00  0.50787730020E+01  0.50787730020E+01  0.00000000000E+00 0.  1.
          4   -1    0    0  501    0  0.00000000000E+00 -0.00000000000E+00 -0.38674524047E+03  0.38674524047E+03  0.00000000000E+00 0. -1.
         23    2    1    2    0    0  0.00000000000E+00  0.00000000000E+00 -0.38166646746E+03  0.39182401347E+03  0.88638395426E+02 0.  0.
        -13    1    3    3    0    0 -0.38688887699E+02 -0.18324883853E+02 -0.14013055461E+03  0.14652373096E+03  0.00000000000E+00 0.  1.
         13    1    3    3    0    0  0.38688887699E+02  0.18324883853E+02 -0.24153591286E+03  0.24530028251E+03  0.00000000000E+00 0. -1.
<mgrwt>
<rscale>  0 0.88638395E+02</rscale>
<asrwt>0</asrwt>
<pdfrwt beam="2">  1        4 0.59499275E-01 0.88638395E+02</pdfrwt>
<pdfrwt beam="1">  1       -4 0.78134960E-03 0.88638395E+02</pdfrwt>
<totfact> 0.16529367E+04</totfact>
</mgrwt>
</event>
<event>
 5    1  0.6043464E+000  0.1016918E+03  0.7546771E-02  0.1276778E+00
          1   -1    0    0  501    0  0.00000000000E+00  0.00000000000E+00  0.79579109182E+02  0.79579109182E+02  0.00000000000E+00 0. -1.
         -1   -1    0    0    0  501 -0.00000000000E+00 -0.00000000000E+00 -0.32487220116E+02  0.32487220116E+02  0.00000000000E+00 0.  1.
         23    2    1    2    0    0  0.00000000000E+00  0.00000000000E+00  0.47091889066E+02  0.11206632930E+03  0.10169177030E+03 0.  0.
        -13    1    3    3    0    0  0.27847869577E+02  0.39144350692E+02  0.41904414647E+02  0.63747658765E+02  0.00000000000E+00 0. -1.
         13    1    3    3    0    0 -0.27847869577E+02 -0.39144350692E+02  0.51874744185E+01  0.48318670532E+02  0.00000000000E+00 0.  1.
<mgrwt>
<rscale>  0 0.10169177E+03</rscale>
<asrwt>0</asrwt>
<pdfrwt beam="1">  1        1 0.12242940E-01 0.10169177E+03</pdfrwt>
<pdfrwt beam="2">  1       -1 0.49980339E-02 0.10169177E+03</pdfrwt>
<totfact> 0.74410150E+04</totfact>
</mgrwt>
</event>
<event>
 5    1  0.6043464E+000  0.9122680E+02  0.7546771E-02  0.1299908E+00
         -3   -1    0    0    0  501 -0.00000000000E+00  0.00000000000E+00  0.11109453128E+03  0.11109453128E+03  0.00000000000E+00 0.  1.
          3   -1    0    0  501    0  0.00000000000E+00 -0.00000000000E+00 -0.18728035657E+02  0.18728035657E+02  0.00000000000E+00 0. -1.
         23    2    1    2    0    0  0.00000000000E+00  0.00000000000E+00  0.92366495619E+02  0.12982256693E+03  0.91226801831E+02 0.  0.
        -13    1    3    3    0    0  0.17169224550E+01 -0.43337616817E+02  0.26083833755E+02  0.50610900382E+02  0.00000000000E+00 0. -1.
         13    1    3    3    0    0 -0.17169224550E+01  0.43337616817E+02  0.66282661864E+02  0.79211666552E+02  0.00000000000E+00 0.  1.
<mgrwt>
<rscale>  0 0.91226802E+02</rscale>
<asrwt>0</asrwt>
<pdfrwt beam="2">  1        3 0.28812363E-02 0.91226802E+02</pdfrwt>
<pdfrwt beam="1">  1       -3 0.17091466E-01 0.91226802E+02</pdfrwt>
<totfact> 0.32540678E+04</totfact>
</mgrwt>
</event>
<event>
 5    1  0.6043464E+000  0.9243614E+02  0.7546771E-02  0.1297057E+00
         -1   -1    0    0    0  501 -0.00000000000E+00  0.00000000000E+00  0.33024038566E+03  0.33024038566E+03  0.00000000000E+00 0.  1.
          1   -1    0    0  501    0  0.00000000000E+00 -0.00000000000E+00 -0.64683482000E+01  0.64683482000E+01  0.00000000000E+00 0. -1.
         23    2    1    2    0    0  0.00000000000E+00  0.00000000000E+00  0.32377203746E+03  0.33670873386E+03  0.92436135880E+02 0.  0.
        -13    1    3    3    0    0  0.17409188093E+02  0.42730154903E+02  0.15213644969E+03  0.15897938637E+03  0.00000000000E+00 0. -1.
         13    1    3    3    0    0 -0.17409188093E+02 -0.42730154903E+02  0.17163558777E+03  0.17772934748E+03  0.00000000000E+00 0.  1.
<mgrwt>
<rscale>  0 0.92436136E+02</rscale>
<asrwt>0</asrwt>
<pdfrwt beam="2">  1        1 0.99513075E-03 0.92436136E+02</pdfrwt>
<pdfrwt beam="1">  1       -1 0.50806200E-01 0.92436136E+02</pdfrwt>
<totfact> 0.56192113E+04</totfact>
</mgrwt>
</event>
<event>
 5    1  0.6043464E+000  0.9150482E+02  0.7546771E-02  0.1299248E+00
          4   -1    0    0  501    0  0.00000000000E+00  0.00000000000E+00  0.22634457327E+02  0.22634457327E+02  0.00000000000E+00 0. -1.
         -4   -1    0    0    0  501 -0.00000000000E+00 -0.00000000000E+00 -0.92482147539E+02  0.92482147539E+02  0.00000000000E+00 0.  1.
         23    2    1    2    0    0  0.00000000000E+00  0.00000000000E+00 -0.69847690211E+02  0.11511660487E+03  0.91504824398E+02 0.  0.
        -13    1    3    3    0    0 -0.33630867341E+02  0.87595248707E+01  0.25124490366E+01  0.34843606504E+02  0.00000000000E+00 0. -1.
         13    1    3    3    0    0  0.33630867341E+02 -0.87595248707E+01 -0.72360139248E+02  0.80272998362E+02  0.00000000000E+00 0.  1.
<mgrwt>
<rscale>  0 0.91504824E+02</rscale>
<asrwt>0</asrwt>
<pdfrwt beam="1">  1        4 0.34822243E-02 0.91504824E+02</pdfrwt>
<pdfrwt beam="2">  1       -4 0.14228022E-01 0.91504824E+02</pdfrwt>
<totfact> 0.25305246E+04</totfact>
</mgrwt>
</event>
<event>
 5    1  0.6043464E+000  0.9388748E+02  0.7546771E-02  0.1293702E+00
          2   -1    0    0  501    0  0.00000000000E+00  0.00000000000E+00  0.14629288863E+03  0.14629288863E+03  0.00000000000E+00 0. -1.
         -2   -1    0    0    0  501 -0.00000000000E+00 -0.00000000000E+00 -0.15063716429E+02  0.15063716429E+02  0.00000000000E+00 0.  1.
         23    2    1    2    0    0  0.00000000000E+00  0.00000000000E+00  0.13122917220E+03  0.16135660506E+03  0.93887477116E+02 0.  0.
        -13    1    3    3    0    0 -0.25882267056E+02 -0.28970375812E+02  0.11090723932E+03  0.11751421258E+03  0.00000000000E+00 0. -1.
         13    1    3    3    0    0  0.25882267056E+02  0.28970375812E+02  0.20321932875E+02  0.43842392481E+02  0.00000000000E+00 0.  1.
<mgrwt>
<rscale>  0 0.93887477E+02</rscale>
<asrwt>0</asrwt>
<pdfrwt beam="1">  1        2 0.22506597E-01 0.93887477E+02</pdfrwt>
<pdfrwt beam="2">  1       -2 0.23174949E-02 0.93887477E+02</pdfrwt>
<totfact> 0.12799656E+05</totfact>
</mgrwt>
</event>
