<event>
 4    1  0.2260076E+006  0.2583523E+02  0.7546771E-02  0.1649287E+00
         21   -1    0    0  501  502  0.00000000000E+00  0.00000000000E+00  0.20538585402E+02  0.20538585402E+02  0.00000000000E+00 0.  1.
          1   -1    0    0  503    0 -0.00000000000E+00 -0.00000000000E+00 -0.26165678860E+03  0.26165678860E+03  0.00000000000E+00 0.  1.
         21    1    1    2  503  502 -0.19787828640E+02  0.16610266697E+02  0.11486009547E+02  0.28273442262E+02  0.00000000000E+00 0.  1.
          1    1    1    2  501    0  0.19787828640E+02 -0.16610266697E+02 -0.25260421275E+03  0.25392193174E+03  0.00000000000E+00 0.  1.
<mgrwt>
<rscale>  2 0.25835230E+02</rscale>
<asrwt>0</asrwt>
<pdfrwt beam="1">  1       21 0.31597825E-02 0.25835230E+02</pdfrwt>
<pdfrwt beam="2">  1        1 0.40254889E-01 0.25835230E+02</pdfrwt>
<totfact> 0.53041803E+05</totfact>
</mgrwt>
</event>
<event>
 4    1  0.2260076E+006  0.2238697E+02  0.7546771E-02  0.1701644E+00
         21   -1    0    0  501  502  0.00000000000E+00  0.00000000000E+00  0.89111535549E+00  0.89111535549E+00  0.00000000000E+00 0. -1.
         -1   -1    0    0    0  501 -0.00000000000E+00 -0.00000000000E+00 -0.11061545168E+04  0.11061545168E+04  0.00000000000E+00 0. -1.
         21    1    1    2  503  502  0.86052416313E+01  0.20667028349E+02 -0.16454991895E+03  0.16606580645E+03  0.00000000000E+00 0. -1.
         -1    1    1    2    0  503 -0.86052416313E+01 -0.20667028349E+02 -0.94071348250E+03  0.94097982571E+03  0.00000000000E+00 0. -1.
<mgrwt>
<rscale>  2 0.22386966E+02</rscale>
<asrwt>0</asrwt>
<pdfrwt beam="1">  1       21 0.13709456E-03 0.22386966E+02</pdfrwt>
<pdfrwt beam="2">  1       -1 0.17017776E+00 0.22386966E+02</pdfrwt>
<totfact> 0.14828776E+06</totfact>
</mgrwt>
</event>
<event>
 4    1  0.2260076E+006  0.2016491E+02  0.7546771E-02  0.1742068E+00
          3   -1    0    0  503    0 -0.00000000000E+00  0.00000000000E+00  0.13622458977E+03  0.13622458977E+03  0.00000000000E+00 0.  1.
         21   -1    0    0  501  502  0.00000000000E+00 -0.00000000000E+00 -0.91500478095E+01  0.91500478095E+01  0.00000000000E+00 0.  1.
         21    1    1    2  503  502  0.57905352911E+01 -0.19315619514E+02  0.38726360462E+01  0.20533406101E+02  0.00000000000E+00 0.  1.
          3    1    1    2  501    0 -0.57905352911E+01  0.19315619514E+02  0.12320190591E+03  0.12484123148E+03  0.00000000000E+00 0.  1.
<mgrwt>
<rscale>  2 0.20164907E+02</rscale>
<asrwt>0</asrwt>
<pdfrwt beam="2">  1       21 0.14076998E-02 0.20164907E+02</pdfrwt>
<pdfrwt beam="1">  1        3 0.20957628E-01 0.20164907E+02</pdfrwt>
<totfact> 0.12455709E+06</totfact>
</mgrwt>
</event>
<event>
 4    1  0.2260076E+006  0.2473045E+02  0.7546771E-02  0.1664904E+00
         21   -1    0    0  503  502  0.00000000000E+00  0.00000000000E+00  0.12414295735E+01  0.12414295735E+01  0.00000000000E+00 0.  1.
          2   -1    0    0  502    0 -0.00000000000E+00 -0.00000000000E+00 -0.19079151225E+04  0.19079151225E+04  0.00000000000E+00 0.  1.
         21    1    1    2  503  501  0.14838463416E+02  0.19784215241E+02 -0.13118825103E+03  0.13349888531E+03  0.00000000000E+00 0.  1.
          2    1    1    2  501    0 -0.14838463416E+02 -0.19784215241E+02 -0.17754854419E+04  0.17756576668E+04  0.00000000000E+00 0.  1.
<mgrwt>
<rscale>  2 0.24730450E+02</rscale>
<asrwt>0</asrwt>
<pdfrwt beam="1">  1       21 0.19098943E-03 0.24730450E+02</pdfrwt>
<pdfrwt beam="2">  1        2 0.29352500E+00 0.24730450E+02</pdfrwt>
<totfact> 0.42546954E+06</totfact>
</mgrwt>
</event>
<event>
 4    1  0.2260076E+006  0.9015995E+02  0.7546771E-02  0.1302465E+00
         21   -1    0    0  503  502  0.00000000000E+00  0.00000000000E+00  0.73904312701E+02  0.73904312701E+02  0.00000000000E+00 0.  1.
         -3   -1    0    0    0  501 -0.00000000000E+00 -0.00000000000E+00 -0.19636074752E+03  0.19636074752E+03  0.00000000000E+00 0. -1.
         21    1    1    2  503  501 -0.27386251704E+02  0.85899994317E+02  0.28393481456E+02  0.94525158531E+02  0.00000000000E+00 0.  1.
         -3    1    1    2    0  502  0.27386251704E+02 -0.85899994317E+02 -0.15084991628E+03  0.17573990169E+03  0.00000000000E+00 0. -1.
<mgrwt>
<rscale>  2 0.90159946E+02</rscale>
<asrwt>0</asrwt>
<pdfrwt beam="1">  1       21 0.11369894E-01 0.90159946E+02</pdfrwt>
<pdfrwt beam="2">  1       -3 0.30209346E-01 0.90159946E+02</pdfrwt>
<totfact> 0.31634663E+04</totfact>
</mgrwt>
</event>
<event>
 4    1  0.2260076E+006  0.2931814E+02  0.7546771E-02  0.1605750E+00
          2   -1    0    0  503    0 -0.00000000000E+00  0.00000000000E+00  0.75960415026E+03  0.75960415026E+03  0.00000000000E+00 0.  1.
         21   -1    0    0  501  502  0.00000000000E+00 -0.00000000000E+00 -0.11915311569E+02  0.11915311569E+02  0.00000000000E+00 0.  1.
         21    1    1    2  503  502  0.10798250387E+02  0.27257127993E+02  0.68590816550E+01  0.30109803038E+02  0.00000000000E+00 0.  1.
          2    1    1    2  501    0 -0.10798250387E+02 -0.27257127993E+02  0.74082975704E+03  0.74140965879E+03  0.00000000000E+00 0.  1.
<mgrwt>
<rscale>  2 0.29318138E+02</rscale>
<asrwt>0</asrwt>
<pdfrwt beam="2">  1       21 0.18331255E-02 0.29318138E+02</pdfrwt>
<pdfrwt beam="1">  1        2 0.11686214E+00 0.29318138E+02</pdfrwt>
<totfact> 0.57769335E+05</totfact>
</mgrwt>
</event>
<event>
 4    1  0.2260076E+006  0.2086676E+02  0.7546771E-02  0.1728621E+00
         -2   -1    0    0    0  501 -0.00000000000E+00  0.00000000000E+00  0.81738612394E+02  0.81738612394E+02  0.00000000000E+00 0.  1.
         21   -1    0    0  503  502  0.00000000000E+00 -0.00000000000E+00 -0.13556020530E+03  0.13556020530E+03  0.00000000000E+00 0.  1.
         21    1    1    2  503  501 -0.10051523363E+02 -0.18286288862E+02 -0.13340405737E+03  0.13502616044E+03  0.00000000000E+00 0.  1.
         -2    1    1    2    0  502  0.10051523363E+02  0.18286288862E+02  0.79582464458E+02  0.82272657253E+02  0.00000000000E+00 0.  1.
<mgrwt>
<rscale>  2 0.20866755E+02</rscale>
<asrwt>0</asrwt>
<pdfrwt beam="2">  1       21 0.20855416E-01 0.20866755E+02</pdfrwt>
<pdfrwt beam="1">  1       -2 0.12575171E-01 0.20866755E+02</pdfrwt>
<totfact> 0.65350146E+04</totfact>
</mgrwt>
</event>
<event>
 4    1  0.2260076E+006  0.2575314E+02  0.7546771E-02  0.1650414E+00
         21   -1    0    0  501  502  0.00000000000E+00  0.00000000000E+00  0.10265383057E+01  0.10265383057E+01  0.00000000000E+00 0.  1.
          1   -1    0    0  503    0 -0.00000000000E+00 -0.00000000000E+00 -0.90666927877E+03  0.90666927877E+03  0.00000000000E+00 0.  1.
         21    1    1    2  503  502  0.73270420778E+01 -0.24688834089E+02 -0.20950820043E+03  0.21108507792E+03  0.00000000000E+00 0.  1.
          1    1    1    2  501    0 -0.73270420778E+01  0.24688834089E+02 -0.69613454004E+03  0.69661073916E+03  0.00000000000E+00 0.  1.
<mgrwt>
<rscale>  2 0.25753137E+02</rscale>
<asrwt>0</asrwt>
<pdfrwt beam="1">  1       21 0.15792826E-03 0.25753137E+02</pdfrwt>
<pdfrwt beam="2">  1        1 0.13948821E+00 0.25753137E+02</pdfrwt>
<totfact> 0.10034575E+07</totfact>
</mgrwt>
</event>
<event>
 4    1  0.2260076E+006  0.3007347E+02  0.7546771E-02  0.1597278E+00
         21   -1    0    0  501  502  0.00000000000E+00  0.00000000000E+00  0.43383527218E+01  0.43383527218E+01  0.00000000000E+00 0. -1.
          4   -1    0    0  503    0 -0.00000000000E+00 -0.00000000000E+00 -0.38504766938E+03  0.38504766938E+03  0.00000000000E+00 0. -1.
         21    1    1    2  503  502 -0.15421188722E+02  0.25818613102E+02 -0.58510247250E+02  0.65786494643E+02  0.00000000000E+00 0. -1.
          4    1    1    2  501    0  0.15421188722E+02 -0.25818613102E+02 -0.32219906941E+03  0.32359952746E+03  0.00000000000E+00 0. -1.
<mgrwt>
<rscale>  2 0.30073474E+02</rscale>
<asrwt>0</asrwt>
<pdfrwt beam="1">  1       21 0.66743889E-03 0.30073474E+02</pdfrwt>
<pdfrwt beam="2">  1        4 0.59238102E-01 0.30073474E+02</pdfrwt>
<totfact> 0.51770036E+05</totfact>
</mgrwt>
</event>
<event>
 4    1  0.2260076E+006  0.3844019E+02  0.7546771E-02  0.1520014E+00
          1   -1    0    0  503    0 -0.00000000000E+00  0.00000000000E+00  0.99464654520E+03  0.99464654520E+03  0.00000000000E+00 0. -1.
         21   -1    0    0  501  502  0.00000000000E+00 -0.00000000000E+00 -0.20060645334E+02  0.20060645334E+02  0.00000000000E+00 0.  1.
         21    1    1    2  503  502 -0.19090254101E+02  0.33364806746E+02 -0.91316993293E+00  0.38451033929E+02  0.00000000000E+00 0.  1.
          1    1    1    2  501    0  0.19090254101E+02 -0.33364806746E+02  0.97549906979E+03  0.97625615660E+03  0.00000000000E+00 0. -1.
<mgrwt>
<rscale>  2 0.38440189E+02</rscale>
<asrwt>0</asrwt>
<pdfrwt beam="2">  1       21 0.30862539E-02 0.38440189E+02</pdfrwt>
<pdfrwt beam="1">  1        1 0.15302251E+00 0.38440189E+02</pdfrwt>
<totfact> 0.10480422E+05</totfact>
</mgrwt>
</event>
<event>
 4    1  0.2260076E+006  0.2172833E+02  0.7546771E-02  0.1712993E+00
         21   -1    0    0  501  502  0.00000000000E+00  0.00000000000E+00  0.10179326622E+01  0.10179326622E+01  0.00000000000E+00 0. -1.
          1   -1    0    0  503    0 -0.00000000000E+00 -0.00000000000E+00 -0.12646997979E+04  0.12646997979E+04  0.00000000000E+00 0. -1.
         21    1    1    2  503  502 -0.82496382003E+01  0.20101334816E+02 -0.12822271638E+03  0.13005070238E+03  0.00000000000E+00 0. -1.
          1    1    1    2  501    0  0.82496382003E+01 -0.20101334816E+02 -0.11354591488E+04  0.11356670282E+04  0.00000000000E+00 0. -1.
<mgrwt>
<rscale>  2 0.21728327E+02</rscale>
<asrwt>0</asrwt>
<pdfrwt beam="1">  1       21 0.15660549E-03 0.21728327E+02</pdfrwt>
<pdfrwt beam="2">  1        1 0.19456862E+00 0.21728327E+02</pdfrwt>
<totfact> 0.56906377E+06</totfact>
</mgrwt>
</event>
<event>
 4    1  0.2260076E+006  0.3362399E+02  0.7546771E-02  0.1561171E+00
          2   -1    0    0  502    0 -0.00000000000E+00  0.00000000000E+00  0.20147622813E+04  0.20147622813E+04  0.00000000000E+00 0.  1.
         21   -1    0    0  503  502  0.00000000000E+00 -0.00000000000E+00 -0.40876451185E+01  0.40876451185E+01  0.00000000000E+00 0. -1.
         21    1    1    2  503  501 -0.32241372110E+02 -0.95428712151E+01  0.67754931389E+02  0.75639296626E+02  0.00000000000E+00 0. -1.
          2    1    1    2  501    0  0.32241372110E+02  0.95428712151E+01  0.19429197048E+04  0.19432106298E+04  0.00000000000E+00 0.  1.
<mgrwt>
<rscale>  2 0.33623986E+02</rscale>
<asrwt>0</asrwt>
<pdfrwt beam="2">  1       21 0.62887009E-03 0.33623986E+02</pdfrwt>
<pdfrwt beam="1">  1        2 0.30996264E+00 0.33623986E+02</pdfrwt>
<totfact> 0.68128384E+05</totfact>
</mgrwt>
</event>
<event>
 4    1  0.2260076E+006  0.9120682E+02  0.7546771E-02  0.1299955E+00
          2   -1    0    0  503    0 -0.00000000000E+00  0.00000000000E+00  0.26281734636E+04  0.26281734636E+04  0.00000000000E+00 0. -1.
         21   -1    0    0  501  502  0.00000000000E+00 -0.00000000000E+00 -0.41867535946E+02  0.41867535946E+02  0.00000000000E+00 0.  1.
         21    1    1    2  503  502  0.82446787506E+02 -0.39002698913E+02  0.95880208746E+01  0.91709396666E+02  0.00000000000E+00 0.  1.
          2    1    1    2  501    0 -0.82446787506E+02  0.39002698913E+02  0.25767179067E+04  0.25783316028E+04  0.00000000000E+00 0. -1.
<mgrwt>
<rscale>  2 0.91206816E+02</rscale>
<asrwt>0</asrwt>
<pdfrwt beam="2">  1       21 0.64411614E-02 0.91206816E+02</pdfrwt>
<pdfrwt beam="1">  1        2 0.40433425E+00 0.91206816E+02</pdfrwt>
<totfact> 0.83442359E+03</totfact>
</mgrwt>
</event>
<event>
 4    1  0.2260076E+006  0.2350355E+02  0.7546771E-02  0.1683475E+00
          4   -1    0    0  502    0 -0.00000000000E+00  0.00000000000E+00  0.14141359682E+03  0.14141359682E+03  0.00000000000E+00 0. -1.
         21   -1    0    0  503  502  0.00000000000E+00 -0.00000000000E+00 -0.13545149960E+02  0.13545149960E+02  0.00000000000E+00 0. -1.
         21    1    1    2  503  501  0.59363362192E+01 -0.22741522212E+02 -0.14246762227E+01  0.23546690268E+02  0.00000000000E+00 0. -1.
          4    1    1    2  501    0 -0.59363362192E+01  0.22741522212E+02  0.12929312308E+03  0.13141205651E+03  0.00000000000E+00 0. -1.
<mgrwt>
<rscale>  2 0.23503551E+02</rscale>
<asrwt>0</asrwt>
<pdfrwt beam="2">  1       21 0.20838693E-02 0.23503551E+02</pdfrwt>
<pdfrwt beam="1">  1        4 0.21755937E-01 0.23503551E+02</pdfrwt>
<totfact> 0.54235098E+05</totfact>
</mgrwt>
</event>
<event>
 4    1  0.2260076E+006  0.2957600E+02  0.7546771E-02  0.1602823E+00
         21   -1    0    0  503  502  0.00000000000E+00  0.00000000000E+00  0.14935078093E+01  0.14935078093E+01  0.00000000000E+00 0. -1.
          2   -1    0    0  502    0 -0.00000000000E+00 -0.00000000000E+00 -0.13076576500E+04  0.13076576500E+04  0.00000000000E+00 0.  1.
         21    1    1    2  503  501 -0.18238698603E+02  0.23282813721E+02 -0.16670819759E+03  0.16931143696E+03  0.00000000000E+00 0. -1.
          2    1    1    2  501    0  0.18238698603E+02 -0.23282813721E+02 -0.11394559446E+04  0.11398397208E+04  0.00000000000E+00 0.  1.
<mgrwt>
<rscale>  2 0.29575996E+02</rscale>
<asrwt>0</asrwt>
<pdfrwt beam="1">  1       21 0.22977050E-03 0.29575996E+02</pdfrwt>
<pdfrwt beam="2">  1        2 0.20117804E+00 0.29575996E+02</pdfrwt>
<totfact> 0.64786300E+06</totfact>
</mgrwt>
</event>
<event>
 4    1  0.2260076E+006  0.2119599E+02  0.7546771E-02  0.1722540E+00
          1   -1    0    0  502    0 -0.00000000000E+00  0.00000000000E+00  0.55674180160E+03  0.55674180160E+03  0.00000000000E+00 0. -1.
         21   -1    0    0  503  502  0.00000000000E+00 -0.00000000000E+00 -0.12813654257E+01  0.12813654257E+01  0.00000000000E+00 0.  1.
         21    1    1    2  503  501 -0.12734244339E+02 -0.16944288732E+02  0.10796086468E+03  0.11002189874E+03  0.00000000000E+00 0.  1.
          1    1    1    2  501    0  0.12734244339E+02  0.16944288732E+02  0.44749957150E+03  0.44800126829E+03  0.00000000000E+00 0. -1.
<mgrwt>
<rscale>  2 0.21195988E+02</rscale>
<asrwt>0</asrwt>
<pdfrwt beam="2">  1       21 0.19713359E-03 0.21195988E+02</pdfrwt>
<pdfrwt beam="1">  1        1 0.85652392E-01 0.21195988E+02</pdfrwt>
<totfact> 0.13262991E+07</totfact>
</mgrwt>
</event>
<event>
 4    1  0.2260076E+006  0.2130550E+02  0.7546771E-02  0.1720547E+00
          2   -1    0    0  503    0 -0.00000000000E+00  0.00000000000E+00  0.93932542820E+03  0.93932542820E+03  0.00000000000E+00 0. -1.
         21   -1    0    0  501  502  0.00000000000E+00 -0.00000000000E+00 -0.10035318503E+01  0.10035318503E+01  0.00000000000E+00 0.  1.
         21    1    1    2  503  502 -0.17930445175E+02 -0.11507545363E+02  0.13062437426E+03  0.13235048778E+03  0.00000000000E+00 0.  1.
          2    1    1    2  501    0  0.17930445175E+02  0.11507545363E+02  0.80769752209E+03  0.80797847227E+03  0.00000000000E+00 0. -1.
<mgrwt>
<rscale>  2 0.21305503E+02</rscale>
<asrwt>0</asrwt>
<pdfrwt beam="2">  1       21 0.15439027E-03 0.21305503E+02</pdfrwt>
<pdfrwt beam="1">  1        2 0.14451090E+00 0.21305503E+02</pdfrwt>
<totfact> 0.16587808E+07</totfact>
</mgrwt>
</event>
<event>
 4    1  0.2260076E+006  0.3098047E+02  0.7546771E-02  0.1587497E+00
          1   -1    0    0  503    0 -0.00000000000E+00  0.00000000000E+00  0.15940595550E+01  0.15940595550E+01  0.00000000000E+00 0.  1.
         21   -1    0    0  501  502  0.00000000000E+00 -0.00000000000E+00 -0.71111491056E+03  0.71111491056E+03  0.00000000000E+00 0.  1.
         21    1    1    2  503  502 -0.11385477075E+02 -0.28812499741E+02 -0.49428407456E+03  0.49525401118E+03  0.00000000000E+00 0.  1.
          1    1    1    2  501    0  0.11385477075E+02  0.28812499741E+02 -0.21523677644E+03  0.21745495893E+03  0.00000000000E+00 0.  1.
<mgrwt>
<rscale>  2 0.30980465E+02</rscale>
<asrwt>0</asrwt>
<pdfrwt beam="2">  1       21 0.10940220E+00 0.30980465E+02</pdfrwt>
<pdfrwt beam="1">  1        1 0.24524014E-03 0.30980465E+02</pdfrwt>
<totfact> 0.65005330E+05</totfact>
</mgrwt>
</event>
<event>
 4    1  0.2260076E+006  0.2179526E+02  0.7546771E-02  0.1711817E+00
         21   -1    0    0  503  502  0.00000000000E+00  0.00000000000E+00  0.21640132867E+01  0.21640132867E+01  0.00000000000E+00 0.  1.
          2   -1    0    0  502    0 -0.00000000000E+00 -0.00000000000E+00 -0.94567258045E+03  0.94567258045E+03  0.00000000000E+00 0.  1.
         21    1    1    2  503  501  0.19475006118E+02 -0.97855729605E+01 -0.56467102484E+02  0.60527406721E+02  0.00000000000E+00 0.  1.
          2    1    1    2  501    0 -0.19475006118E+02  0.97855729605E+01 -0.88704146468E+03  0.88730918702E+03  0.00000000000E+00 0.  1.
<mgrwt>
<rscale>  2 0.21795259E+02</rscale>
<asrwt>0</asrwt>
<pdfrwt beam="1">  1       21 0.33292455E-03 0.21795259E+02</pdfrwt>
<pdfrwt beam="2">  1        2 0.14548834E+00 0.21795259E+02</pdfrwt>
<totfact> 0.54522767E+06</totfact>
</mgrwt>
</event>
<event>
 4    1  0.2260076E+006  0.4141329E+02  0.7546771E-02  0.1498061E+00
          1   -1    0    0  503    0 -0.00000000000E+00  0.00000000000E+00  0.36615470056E+02  0.36615470056E+02  0.00000000000E+00 0. -1.
         21   -1    0    0  501  502  0.00000000000E+00 -0.00000000000E+00 -0.22616400654E+03  0.22616400654E+03  0.00000000000E+00 0. -1.
         21    1    1    2  503  502 -0.36009263203E+02  0.20454672168E+02 -0.21176977511E+03  0.21578113518E+03  0.00000000000E+00 0. -1.
          1    1    1    2  501    0  0.36009263203E+02 -0.20454672168E+02  0.22221238624E+02  0.46998341417E+02  0.00000000000E+00 0. -1.
<mgrwt>
<rscale>  2 0.41413291E+02</rscale>
<asrwt>0</asrwt>
<pdfrwt beam="2">  1       21 0.34794461E-01 0.41413291E+02</pdfrwt>
<pdfrwt beam="1">  1        1 0.56331495E-02 0.41413291E+02</pdfrwt>
<totfact> 0.10808815E+05</totfact>
</mgrwt>
</event>
<event>
 4    1  0.2260076E+006  0.5200847E+02  0.7546771E-02  0.1434800E+00
         21   -1    0    0  503  502  0.00000000000E+00  0.00000000000E+00  0.51184701390E+02  0.51184701390E+02  0.00000000000E+00 0.  1.
         -1   -1    0    0    0  501 -0.00000000000E+00 -0.00000000000E+00 -0.81806501058E+02  0.81806501058E+02  0.00000000000E+00 0.  1.
         21    1    1    2  503  501 -0.39140488573E+01  0.51860979835E+02  0.24253612025E+02  0.57385701217E+02  0.00000000000E+00 0.  1.
         -1    1    1    2    0  502  0.39140488573E+01 -0.51860979835E+02 -0.54875411693E+02  0.75605501231E+02  0.00000000000E+00 0.  1.
<mgrwt>
<rscale>  2 0.52008471E+02</rscale>
<asrwt>0</asrwt>
<pdfrwt beam="1">  1       21 0.78745695E-02 0.52008471E+02</pdfrwt>
<pdfrwt beam="2">  1       -1 0.12585615E-01 0.52008471E+02</pdfrwt>
<totfact> 0.41235570E+05</totfact>
</mgrwt>
</event>
<event>
 4    1  0.2260076E+006  0.2440914E+02  0.7546771E-02  0.1669636E+00
         21   -1    0    0  501  502  0.00000000000E+00  0.00000000000E+00  0.25434530078E+03  0.25434530078E+03  0.00000000000E+00 0. -1.
         -4   -1    0    0    0  501 -0.00000000000E+00 -0.00000000000E+00 -0.12628867121E+02  0.12628867121E+02  0.00000000000E+00 0.  1.
         21    1    1    2  503  502 -0.12881783027E+02 -0.20733210631E+02  0.24133069735E+03  0.24256197526E+03  0.00000000000E+00 0. -1.
         -4    1    1    2    0  503  0.12881783027E+02  0.20733210631E+02  0.38573630565E+00  0.24412192641E+02  0.00000000000E+00 0.  1.
<mgrwt>
<rscale>  2 0.24409145E+02</rscale>
<asrwt>0</asrwt>
<pdfrwt beam="1">  1       21 0.39130043E-01 0.24409145E+02</pdfrwt>
<pdfrwt beam="2">  1       -4 0.19429028E-02 0.24409145E+02</pdfrwt>
<totfact> 0.18594845E+05</totfact>
</mgrwt>
</event>
<event>
 4    1  0.2260076E+006  0.2182021E+02  0.7546771E-02  0.1711380E+00
          2   -1    0    0  503    0 -0.00000000000E+00  0.00000000000E+00  0.49400637612E+03  0.49400637612E+03  0.00000000000E+00 0.  1.
         21   -1    0    0  501  502  0.00000000000E+00 -0.00000000000E+00 -0.15362580297E+02  0.15362580297E+02  0.00000000000E+00 0.  1.
         21    1    1    2  503  502 -0.21820151033E+02 -0.49209383780E-01 -0.72441682273E+01  0.22991289350E+02  0.00000000000E+00 0.  1.
          2    1    1    2  501    0  0.21820151033E+02  0.49209383780E-01  0.48588796405E+03  0.48637766707E+03  0.00000000000E+00 0.  1.
<mgrwt>
<rscale>  2 0.21820207E+02</rscale>
<asrwt>0</asrwt>
<pdfrwt beam="2">  1       21 0.23634743E-02 0.21820207E+02</pdfrwt>
<pdfrwt beam="1">  1        2 0.76000969E-01 0.21820207E+02</pdfrwt>
<totfact> 0.58800577E+05</totfact>
</mgrwt>
</event>
<event>
 4    1  0.2260076E+006  0.2009772E+02  0.7546771E-02  0.1743392E+00
         21   -1    0    0  503  502  0.00000000000E+00  0.00000000000E+00  0.62071017220E+02  0.62071017220E+02  0.00000000000E+00 0. -1.
         -4   -1    0    0    0  501 -0.00000000000E+00 -0.00000000000E+00 -0.11548979025E+02  0.11548979025E+02  0.00000000000E+00 0.  1.
         21    1    1    2  503  501  0.39390107530E+01 -0.19707931066E+02  0.49581887742E+02  0.53500298547E+02  0.00000000000E+00 0. -1.
         -4    1    1    2    0  502 -0.39390107530E+01  0.19707931066E+02  0.94015045279E+00  0.20119697698E+02  0.00000000000E+00 0.  1.
<mgrwt>
<rscale>  2 0.20097720E+02</rscale>
<asrwt>0</asrwt>
<pdfrwt beam="1">  1       21 0.95493871E-02 0.20097720E+02</pdfrwt>
<pdfrwt beam="2">  1       -4 0.17767660E-02 0.20097720E+02</pdfrwt>
<totfact> 0.23005355E+06</totfact>
</mgrwt>
</event>
<event>
 4    1  0.2260076E+006  0.2022069E+02  0.7546771E-02  0.1740975E+00
         21   -1    0    0  503  502  0.00000000000E+00  0.00000000000E+00  0.11993486001E+03  0.11993486001E+03  0.00000000000E+00 0. -1.
         -1   -1    0    0    0  501 -0.00000000000E+00 -0.00000000000E+00 -0.19920680235E+02  0.19920680235E+02  0.00000000000E+00 0. -1.
         21    1    1    2  503  501 -0.17536940149E+02 -0.10066376255E+02  0.11367069523E+03  0.11545519977E+03  0.00000000000E+00 0. -1.
         -1    1    1    2    0  502  0.17536940149E+02  0.10066376255E+02 -0.13656515456E+02  0.24400340471E+02  0.00000000000E+00 0. -1.
<mgrwt>
<rscale>  2 0.20220687E+02</rscale>
<asrwt>0</asrwt>
<pdfrwt beam="1">  1       21 0.18451517E-01 0.20220687E+02</pdfrwt>
<pdfrwt beam="2">  1       -1 0.30647201E-02 0.20220687E+02</pdfrwt>
<totfact> 0.62149829E+05</totfact>
</mgrwt>
</event>
<event>
 4    1  0.2260076E+006  0.2304818E+02  0.7546771E-02  0.1690730E+00
         21   -1    0    0  503  502  0.00000000000E+00  0.00000000000E+00  0.37144838415E+01  0.37144838415E+01  0.00000000000E+00 0. -1.
          1   -1    0    0  502    0 -0.00000000000E+00 -0.00000000000E+00 -0.17227174836E+04  0.17227174836E+04  0.00000000000E+00 0. -1.
         21    1    1    2  503  501 -0.23036917844E+02  0.72050151878E+00 -0.32891991452E+02  0.40163438696E+02  0.00000000000E+00 0. -1.
          1    1    1    2  501    0  0.23036917844E+02 -0.72050151878E+00 -0.16861110083E+04  0.16862685288E+04  0.00000000000E+00 0. -1.
<mgrwt>
<rscale>  2 0.23048182E+02</rscale>
<asrwt>0</asrwt>
<pdfrwt beam="1">  1       21 0.57145853E-03 0.23048182E+02</pdfrwt>
<pdfrwt beam="2">  1        1 0.26503370E+00 0.23048182E+02</pdfrwt>
<totfact> 0.46396372E+05</totfact>
</mgrwt>
</event>
<event>
 4    1  0.2260076E+006  0.2285162E+02  0.7546771E-02  0.1693927E+00
         21   -1    0    0  503  502  0.00000000000E+00  0.00000000000E+00  0.26387400693E+03  0.26387400693E+03  0.00000000000E+00 0.  1.
         -4   -1    0    0    0  501 -0.00000000000E+00 -0.00000000000E+00 -0.22037791278E+01  0.22037791278E+01  0.00000000000E+00 0.  1.
         21    1    1    2  503  501  0.17953563372E+02 -0.14137408387E+02  0.17332727741E+03  0.17482717709E+03  0.00000000000E+00 0.  1.
         -4    1    1    2    0  502 -0.17953563372E+02  0.14137408387E+02  0.88342950391E+02  0.91250608970E+02  0.00000000000E+00 0.  1.
<mgrwt>
<rscale>  2 0.22851625E+02</rscale>
<asrwt>0</asrwt>
<pdfrwt beam="1">  1       21 0.40595976E-01 0.22851625E+02</pdfrwt>
<pdfrwt beam="2">  1       -4 0.33904315E-03 0.22851625E+02</pdfrwt>
<totfact> 0.20748511E+06</totfact>
</mgrwt>
</event>
<event>
 4    1  0.2260076E+006  0.3375399E+02  0.7546771E-02  0.1559952E+00
         21   -1    0    0  501  502  0.00000000000E+00  0.00000000000E+00  0.95233483255E+02  0.95233483255E+02  0.00000000000E+00 0. -1.
          3   -1    0    0  503    0 -0.00000000000E+00 -0.00000000000E+00 -0.21232675443E+02  0.21232675443E+02  0.00000000000E+00 0. -1.
         21    1    1    2  503  502 -0.33507428781E+02  0.40723900433E+01  0.75476090661E+02  0.82679939560E+02  0.00000000000E+00 0. -1.
          3    1    1    2  501    0  0.33507428781E+02 -0.40723900433E+01 -0.14752828478E+01  0.33786219138E+02  0.00000000000E+00 0. -1.
<mgrwt>
<rscale>  2 0.33753994E+02</rscale>
<asrwt>0</asrwt>
<pdfrwt beam="1">  1       21 0.14651305E-01 0.33753994E+02</pdfrwt>
<pdfrwt beam="2">  1        3 0.32665655E-02 0.33753994E+02</pdfrwt>
<totfact> 0.64035582E+05</totfact>
</mgrwt>
</event>
<event>
 4    1  0.2260076E+006  0.2113302E+02  0.7546771E-02  0.1723692E+00
         21   -1    0    0  503  502  0.00000000000E+00  0.00000000000E+00  0.46065296261E+02  0.46065296261E+02  0.00000000000E+00 0.  1.
         -1   -1    0    0    0  501 -0.00000000000E+00 -0.00000000000E+00 -0.11215363296E+02  0.11215363296E+02  0.00000000000E+00 0. -1.
         21    1    1    2  503  501  0.19802536863E+02 -0.73799668548E+01  0.27969828630E+02  0.35055893807E+02  0.00000000000E+00 0.  1.
         -1    1    1    2    0  502 -0.19802536863E+02  0.73799668548E+01  0.68801043352E+01  0.22224765750E+02  0.00000000000E+00 0. -1.
<mgrwt>
<rscale>  2 0.21133016E+02</rscale>
<asrwt>0</asrwt>
<pdfrwt beam="1">  1       21 0.70869686E-02 0.21133016E+02</pdfrwt>
<pdfrwt beam="2">  1       -1 0.17254405E-02 0.21133016E+02</pdfrwt>
<totfact> 0.67502308E+06</totfact>
</mgrwt>
</event>
<event>
 4    1  0.2260076E+006  0.2890723E+02  0.7546771E-02  0.1610492E+00
         21   -1    0    0  501  502  0.00000000000E+00  0.00000000000E+00  0.86182885672E+03  0.86182885672E+03  0.00000000000E+00 0. -1.
         -1   -1    0    0    0  501 -0.00000000000E+00 -0.00000000000E+00 -0.17580582774E+01  0.17580582774E+01  0.00000000000E+00 0.  1.
         21    1    1    2  503  502  0.28444303033E+02  0.51526241632E+01  0.71920272152E+03  0.71978342753E+03  0.00000000000E+00 0. -1.
         -1    1    1    2    0  503 -0.28444303033E+02 -0.51526241632E+01  0.14086807693E+03  0.14380348747E+03  0.00000000000E+00 0.  1.
<mgrwt>
<rscale>  2 0.28907229E+02</rscale>
<asrwt>0</asrwt>
<pdfrwt beam="1">  1       21 0.13258872E+00 0.28907229E+02</pdfrwt>
<pdfrwt beam="2">  1       -1 0.27047119E-03 0.28907229E+02</pdfrwt>
<totfact> 0.35976054E+05</totfact>
</mgrwt>
</event>
<event>
 4    1  0.2260076E+006  0.2487427E+02  0.7546771E-02  0.1662814E+00
         -2   -1    0    0    0  501 -0.00000000000E+00  0.00000000000E+00  0.20687915638E+03  0.20687915638E+03  0.00000000000E+00 0. -1.
         21   -1    0    0  503  502  0.00000000000E+00 -0.00000000000E+00 -0.84183834580E+01  0.84183834580E+01  0.00000000000E+00 0.  1.
         21    1    1    2  503  501  0.17808805540E+02 -0.17365943507E+02  0.12793548623E+02  0.27971493257E+02  0.00000000000E+00 0.  1.
         -2    1    1    2    0  502 -0.17808805540E+02  0.17365943507E+02  0.18566722430E+03  0.18732604658E+03  0.00000000000E+00 0. -1.
<mgrwt>
<rscale>  2 0.24874275E+02</rscale>
<asrwt>0</asrwt>
<pdfrwt beam="2">  1       21 0.12951361E-02 0.24874275E+02</pdfrwt>
<pdfrwt beam="1">  1       -2 0.31827559E-01 0.24874275E+02</pdfrwt>
<totfact> 0.13073208E+06</totfact>
</mgrwt>
</event>
<event>
 4    1  0.2260076E+006  0.2150256E+02  0.7546771E-02  0.1717000E+00
         -3   -1    0    0    0  501 -0.00000000000E+00  0.00000000000E+00  0.79990543451E+02  0.79990543451E+02  0.00000000000E+00 0.  1.
         21   -1    0    0  501  502  0.00000000000E+00 -0.00000000000E+00 -0.22227795568E+02  0.22227795568E+02  0.00000000000E+00 0. -1.
         21    1    1    2  503  502  0.10235257128E+02 -0.18910299603E+02 -0.15083119204E+02  0.26265193784E+02  0.00000000000E+00 0. -1.
         -3    1    1    2    0  503 -0.10235257128E+02  0.18910299603E+02  0.72845867086E+02  0.75953145235E+02  0.00000000000E+00 0.  1.
<mgrwt>
<rscale>  2 0.21502556E+02</rscale>
<asrwt>0</asrwt>
<pdfrwt beam="2">  1       21 0.34196609E-02 0.21502556E+02</pdfrwt>
<pdfrwt beam="1">  1       -3 0.12306237E-01 0.21502556E+02</pdfrwt>
<totfact> 0.77989297E+05</totfact>
</mgrwt>
</event>
<event>
 4    1  0.2260076E+006  0.2322438E+02  0.7546771E-02  0.1687899E+00
         21   -1    0    0  501  502  0.00000000000E+00  0.00000000000E+00  0.73033594698E+02  0.73033594698E+02  0.00000000000E+00 0.  1.
          4   -1    0    0  503    0 -0.00000000000E+00 -0.00000000000E+00 -0.40321444770E+02  0.40321444770E+02  0.00000000000E+00 0.  1.
         21    1    1    2  503  502 -0.22284865426E+02 -0.65388498378E+01  0.67580780043E+02  0.71460014103E+02  0.00000000000E+00 0.  1.
          4    1    1    2  501    0  0.22284865426E+02  0.65388498378E+01 -0.34868630115E+02  0.41895025365E+02  0.00000000000E+00 0.  1.
<mgrwt>
<rscale>  2 0.23224379E+02</rscale>
<asrwt>0</asrwt>
<pdfrwt beam="1">  1       21 0.11235938E-01 0.23224379E+02</pdfrwt>
<pdfrwt beam="2">  1        4 0.62032992E-02 0.23224379E+02</pdfrwt>
<totfact> 0.28558742E+05</totfact>
</mgrwt>
</event>
<event>
 4    1  0.2260076E+006  0.2039464E+02  0.7546771E-02  0.1737592E+00
          1   -1    0    0  503    0 -0.00000000000E+00  0.00000000000E+00  0.10877182204E+02  0.10877182204E+02  0.00000000000E+00 0.  1.
         21   -1    0    0  501  502  0.00000000000E+00 -0.00000000000E+00 -0.44239002925E+02  0.44239002925E+02  0.00000000000E+00 0. -1.
         21    1    1    2  503  502  0.45222389626E+01 -0.19886951321E+02 -0.26829193603E+02  0.33700847281E+02  0.00000000000E+00 0. -1.
          1    1    1    2  501    0 -0.45222389626E+01  0.19886951321E+02 -0.65326271182E+01  0.21415337848E+02  0.00000000000E+00 0.  1.
<mgrwt>
<rscale>  2 0.20394643E+02</rscale>
<asrwt>0</asrwt>
<pdfrwt beam="2">  1       21 0.68060005E-02 0.20394643E+02</pdfrwt>
<pdfrwt beam="1">  1        1 0.16734126E-02 0.20394643E+02</pdfrwt>
<totfact> 0.77881544E+06</totfact>
</mgrwt>
</event>
<event>
 4    1  0.2260076E+006  0.2346054E+02  0.7546771E-02  0.1684152E+00
         -4   -1    0    0    0  501 -0.00000000000E+00  0.00000000000E+00  0.15873285565E+04  0.15873285565E+04  0.00000000000E+00 0. -1.
         21   -1    0    0  503  502  0.00000000000E+00 -0.00000000000E+00 -0.24681569940E+01  0.24681569940E+01  0.00000000000E+00 0.  1.
         21    1    1    2  503  501  0.23239481297E+02 -0.32130246718E+01  0.55480582609E+02  0.60236965936E+02  0.00000000000E+00 0.  1.
         -4    1    1    2    0  502 -0.23239481297E+02  0.32130246718E+01  0.15293798169E+04  0.15295597476E+04  0.00000000000E+00 0. -1.
<mgrwt>
<rscale>  2 0.23460542E+02</rscale>
<asrwt>0</asrwt>
<pdfrwt beam="2">  1       21 0.37971773E-03 0.23460542E+02</pdfrwt>
<pdfrwt beam="1">  1       -4 0.24420358E+00 0.23460542E+02</pdfrwt>
<totfact> 0.40206350E+04</totfact>
</mgrwt>
</event>
<event>
 4    1  0.2260076E+006  0.2748884E+02  0.7546771E-02  0.1627629E+00
          2   -1    0    0  502    0 -0.00000000000E+00  0.00000000000E+00  0.15561397540E+04  0.15561397540E+04  0.00000000000E+00 0. -1.
         21   -1    0    0  503  502  0.00000000000E+00 -0.00000000000E+00 -0.11805767742E+02  0.11805767742E+02  0.00000000000E+00 0. -1.
         21    1    1    2  503  501  0.48526354239E+01  0.27057130736E+02  0.44863394847E+01  0.27852533749E+02  0.00000000000E+00 0. -1.
          2    1    1    2  501    0 -0.48526354239E+01 -0.27057130736E+02  0.15398476468E+04  0.15400929880E+04  0.00000000000E+00 0. -1.
<mgrwt>
<rscale>  2 0.27488841E+02</rscale>
<asrwt>0</asrwt>
<pdfrwt beam="2">  1       21 0.18162732E-02 0.27488841E+02</pdfrwt>
<pdfrwt beam="1">  1        2 0.23940595E+00 0.27488841E+02</pdfrwt>
<totfact> 0.22039586E+05</totfact>
</mgrwt>
</event>
<event>
 4    1  0.2260076E+006  0.2932153E+02  0.7546771E-02  0.1605712E+00
         -3   -1    0    0    0  501 -0.00000000000E+00  0.00000000000E+00  0.14437566784E+03  0.14437566784E+03  0.00000000000E+00 0. -1.
         21   -1    0    0  501  502  0.00000000000E+00 -0.00000000000E+00 -0.35368502672E+02  0.35368502672E+02  0.00000000000E+00 0.  1.
         21    1    1    2  503  502 -0.27932283500E+02  0.89184906206E+01 -0.27454184566E+02  0.40168198698E+02  0.00000000000E+00 0.  1.
         -3    1    1    2    0  503  0.27932283500E+02 -0.89184906206E+01  0.13646134973E+03  0.13957597181E+03  0.00000000000E+00 0. -1.
<mgrwt>
<rscale>  2 0.29321527E+02</rscale>
<asrwt>0</asrwt>
<pdfrwt beam="2">  1       21 0.54413082E-02 0.29321527E+02</pdfrwt>
<pdfrwt beam="1">  1       -3 0.22211641E-01 0.29321527E+02</pdfrwt>
<totfact> 0.15498482E+05</totfact>
</mgrwt>
</event>
<event>
 4    1  0.2260076E+006  0.2746575E+02  0.7546771E-02  0.1627919E+00
         -1   -1    0    0    0  501 -0.00000000000E+00  0.00000000000E+00  0.38773919580E+03  0.38773919580E+03  0.00000000000E+00 0. -1.
         21   -1    0    0  501  502  0.00000000000E+00 -0.00000000000E+00 -0.21965424140E+02  0.21965424140E+02  0.00000000000E+00 0. -1.
         21    1    1    2  503  502  0.26430019545E+02 -0.74713697187E+01 -0.12682874525E+02  0.30252646245E+02  0.00000000000E+00 0. -1.
         -1    1    1    2    0  503 -0.26430019545E+02  0.74713697187E+01  0.37845664619E+03  0.37945197370E+03  0.00000000000E+00 0. -1.
<mgrwt>
<rscale>  2 0.27465748E+02</rscale>
<asrwt>0</asrwt>
<pdfrwt beam="2">  1       21 0.33792963E-02 0.27465748E+02</pdfrwt>
<pdfrwt beam="1">  1       -1 0.59652179E-01 0.27465748E+02</pdfrwt>
<totfact> 0.12061541E+05</totfact>
</mgrwt>
</event>
<event>
 4    1  0.2260076E+006  0.3730439E+02  0.7546771E-02  0.1529040E+00
          1   -1    0    0  503    0 -0.00000000000E+00  0.00000000000E+00  0.91636538774E+02  0.91636538774E+02  0.00000000000E+00 0.  1.
         21   -1    0    0  501  502  0.00000000000E+00 -0.00000000000E+00 -0.29457718313E+02  0.29457718313E+02  0.00000000000E+00 0.  1.
         21    1    1    2  503  502  0.69999127663E+00 -0.37297823991E+02 -0.11053832545E+02  0.38907645473E+02  0.00000000000E+00 0.  1.
          1    1    1    2  501    0 -0.69999127663E+00  0.37297823991E+02  0.73232653006E+02  0.82186611614E+02  0.00000000000E+00 0.  1.
<mgrwt>
<rscale>  2 0.37304392E+02</rscale>
<asrwt>0</asrwt>
<pdfrwt beam="2">  1       21 0.45319567E-02 0.37304392E+02</pdfrwt>
<pdfrwt beam="1">  1        1 0.14097929E-01 0.37304392E+02</pdfrwt>
<totfact> 0.11166395E+06</totfact>
</mgrwt>
</event>
<event>
 4    1  0.2260076E+006  0.3202741E+02  0.7546771E-02  0.1576702E+00
         -2   -1    0    0    0  501 -0.00000000000E+00  0.00000000000E+00  0.14328068302E+02  0.14328068302E+02  0.00000000000E+00 0. -1.
         21   -1    0    0  503  502  0.00000000000E+00 -0.00000000000E+00 -0.18702820052E+03  0.18702820052E+03  0.00000000000E+00 0.  1.
         21    1    1    2  503  501  0.27503778708E+02 -0.16410281936E+02 -0.16544619562E+03  0.16851765143E+03  0.00000000000E+00 0.  1.
         -2    1    1    2    0  502 -0.27503778708E+02  0.16410281936E+02 -0.72539365979E+01  0.32838617398E+02  0.00000000000E+00 0. -1.
<mgrwt>
<rscale>  2 0.32027413E+02</rscale>
<asrwt>0</asrwt>
<pdfrwt beam="2">  1       21 0.28773568E-01 0.32027413E+02</pdfrwt>
<pdfrwt beam="1">  1       -2 0.22043183E-02 0.32027413E+02</pdfrwt>
<totfact> 0.47985927E+05</totfact>
</mgrwt>
</event>
<event>
 4    1  0.2260076E+006  0.2030314E+02  0.7546771E-02  0.1739366E+00
         -3   -1    0    0    0  501 -0.00000000000E+00  0.00000000000E+00  0.34897528273E+03  0.34897528273E+03  0.00000000000E+00 0. -1.
         21   -1    0    0  501  502  0.00000000000E+00 -0.00000000000E+00 -0.56773407940E+02  0.56773407940E+02  0.00000000000E+00 0. -1.
         21    1    1    2  503  502 -0.15691155284E+02 -0.12884295614E+02 -0.54651821862E+02  0.58301278377E+02  0.00000000000E+00 0. -1.
         -3    1    1    2    0  503  0.15691155284E+02  0.12884295614E+02  0.34685369665E+03  0.34744741229E+03  0.00000000000E+00 0. -1.
<mgrwt>
<rscale>  2 0.20303138E+02</rscale>
<asrwt>0</asrwt>
<pdfrwt beam="2">  1       21 0.87343707E-02 0.20303138E+02</pdfrwt>
<pdfrwt beam="1">  1       -3 0.53688504E-01 0.20303138E+02</pdfrwt>
<totfact> 0.13414223E+04</totfact>
</mgrwt>
</event>
<event>
 4    1  0.2260076E+006  0.2154873E+02  0.7546771E-02  0.1716175E+00
          1   -1    0    0  502    0 -0.00000000000E+00  0.00000000000E+00  0.70749245636E+03  0.70749245636E+03  0.00000000000E+00 0. -1.
         21   -1    0    0  503  502  0.00000000000E+00 -0.00000000000E+00 -0.99871256869E+00  0.99871256869E+00  0.00000000000E+00 0. -1.
         21    1    1    2  503  501  0.17197431092E+02  0.12984454232E+02  0.14583158560E+03  0.14741505706E+03  0.00000000000E+00 0. -1.
          1    1    1    2  501    0 -0.17197431092E+02 -0.12984454232E+02  0.56066215819E+03  0.56107611187E+03  0.00000000000E+00 0. -1.
<mgrwt>
<rscale>  2 0.21548728E+02</rscale>
<asrwt>0</asrwt>
<pdfrwt beam="2">  1       21 0.15364865E-03 0.21548728E+02</pdfrwt>
<pdfrwt beam="1">  1        1 0.10884459E+00 0.21548728E+02</pdfrwt>
<totfact> 0.14071106E+07</totfact>
</mgrwt>
</event>
<event>
 4    1  0.2260076E+006  0.2010816E+02  0.7546771E-02  0.1743186E+00
         21   -1    0    0  501  502  0.00000000000E+00  0.00000000000E+00  0.18864358638E+02  0.18864358638E+02  0.00000000000E+00 0. -1.
         -2   -1    0    0    0  501 -0.00000000000E+00 -0.00000000000E+00 -0.99080036035E+02  0.99080036035E+02  0.00000000000E+00 0.  1.
         21    1    1    2  503  502 -0.91708935969E+01 -0.17895050282E+02  0.12097384654E+02  0.23466674870E+02  0.00000000000E+00 0. -1.
         -2    1    1    2    0  503  0.91708935969E+01  0.17895050282E+02 -0.92313062051E+02  0.94477719804E+02  0.00000000000E+00 0.  1.
<mgrwt>
<rscale>  2 0.20108160E+02</rscale>
<asrwt>0</asrwt>
<pdfrwt beam="1">  1       21 0.29022090E-02 0.20108160E+02</pdfrwt>
<pdfrwt beam="2">  1       -2 0.15243082E-01 0.20108160E+02</pdfrwt>
<totfact> 0.12007418E+06</totfact>
</mgrwt>
</event>
<event>
 4    1  0.2260076E+006  0.2583575E+02  0.7546771E-02  0.1649280E+00
          2   -1    0    0  502    0 -0.00000000000E+00  0.00000000000E+00  0.67519158709E+02  0.67519158709E+02  0.00000000000E+00 0.  1.
         21   -1    0    0  503  502  0.00000000000E+00 -0.00000000000E+00 -0.58437123583E+03  0.58437123583E+03  0.00000000000E+00 0. -1.
         21    1    1    2  503  501  0.16294263039E+02  0.20049514163E+02 -0.58160244957E+03  0.58217600034E+03  0.00000000000E+00 0. -1.
          2    1    1    2  501    0 -0.16294263039E+02 -0.20049514163E+02  0.64750372450E+02  0.69714394199E+02  0.00000000000E+00 0.  1.
<mgrwt>
<rscale>  2 0.25835751E+02</rscale>
<asrwt>0</asrwt>
<pdfrwt beam="2">  1       21 0.89903272E-01 0.25835751E+02</pdfrwt>
<pdfrwt beam="1">  1        2 0.10387562E-01 0.25835751E+02</pdfrwt>
<totfact> 0.81707363E+03</totfact>
</mgrwt>
</event>
<event>
 4    1  0.2260076E+006  0.2323088E+02  0.7546771E-02  0.1687795E+00
         21   -1    0    0  501  502  0.00000000000E+00  0.00000000000E+00  0.73856607812E+02  0.73856607812E+02  0.00000000000E+00 0. -1.
          2   -1    0    0  503    0 -0.00000000000E+00 -0.00000000000E+00 -0.17951614338E+02  0.17951614338E+02  0.00000000000E+00 0.  1.
         21    1    1    2  503  502 -0.23194616778E+02  0.12975970706E+01  0.63300407561E+02  0.67428596330E+02  0.00000000000E+00 0. -1.
          2    1    1    2  501    0  0.23194616778E+02 -0.12975970706E+01 -0.73954140858E+01  0.24379625821E+02  0.00000000000E+00 0.  1.
<mgrwt>
<rscale>  2 0.23230885E+02</rscale>
<asrwt>0</asrwt>
<pdfrwt beam="1">  1       21 0.11362555E-01 0.23230885E+02</pdfrwt>
<pdfrwt beam="2">  1        2 0.27617869E-02 0.23230885E+02</pdfrwt>
<totfact> 0.19019600E+06</totfact>
</mgrwt>
</event>
<event>
 4    1  0.2260076E+006  0.2070884E+02  0.7546771E-02  0.1731589E+00
         21   -1    0    0  501  502  0.00000000000E+00  0.00000000000E+00  0.31143139932E+01  0.31143139932E+01  0.00000000000E+00 0. -1.
          2   -1    0    0  503    0 -0.00000000000E+00 -0.00000000000E+00 -0.45568523669E+03  0.45568523669E+03  0.00000000000E+00 0.  1.
         21    1    1    2  503  502  0.84193254000E+01 -0.18920120986E+02 -0.34656695539E+02  0.40372547157E+02  0.00000000000E+00 0. -1.
          2    1    1    2  501    0 -0.84193254000E+01  0.18920120986E+02 -0.41791422716E+03  0.41842700353E+03  0.00000000000E+00 0.  1.
<mgrwt>
<rscale>  2 0.20708839E+02</rscale>
<asrwt>0</asrwt>
<pdfrwt beam="1">  1       21 0.47912507E-03 0.20708839E+02</pdfrwt>
<pdfrwt beam="2">  1        2 0.70105444E-01 0.20708839E+02</pdfrwt>
<totfact> 0.69208243E+06</totfact>
</mgrwt>
</event>
<event>
 4    1  0.2260076E+006  0.2798003E+02  0.7546771E-02  0.1621554E+00
         21   -1    0    0  503  502  0.00000000000E+00  0.00000000000E+00  0.84685482322E+02  0.84685482322E+02  0.00000000000E+00 0. -1.
         -2   -1    0    0    0  501 -0.00000000000E+00 -0.00000000000E+00 -0.92629953045E+01  0.92629953045E+01  0.00000000000E+00 0.  1.
         21    1    1    2  503  501 -0.24282371887E+02  0.13901392298E+02  0.35617163607E+02  0.45293096998E+02  0.00000000000E+00 0. -1.
         -2    1    1    2    0  502  0.24282371887E+02 -0.13901392298E+02  0.39805323410E+02  0.48655380628E+02  0.00000000000E+00 0.  1.
<mgrwt>
<rscale>  2 0.27980034E+02</rscale>
<asrwt>0</asrwt>
<pdfrwt beam="1">  1       21 0.13028535E-01 0.27980034E+02</pdfrwt>
<pdfrwt beam="2">  1       -2 0.14250763E-02 0.27980034E+02</pdfrwt>
<totfact> 0.34392000E+06</totfact>
</mgrwt>
</event>
<event>
 4    1  0.2260076E+006  0.3009317E+02  0.7546771E-02  0.1597061E+00
          1   -1    0    0  503    0 -0.00000000000E+00  0.00000000000E+00  0.72605045733E+03  0.72605045733E+03  0.00000000000E+00 0. -1.
         21   -1    0    0  501  502  0.00000000000E+00 -0.00000000000E+00 -0.13325327111E+01  0.13325327111E+01  0.00000000000E+00 0. -1.
         21    1    1    2  503  502 -0.16083736937E+02 -0.25434467892E+02  0.27037516405E+03  0.27204471707E+03  0.00000000000E+00 0. -1.
          1    1    1    2  501    0  0.16083736937E+02  0.25434467892E+02  0.45434276057E+03  0.45533827297E+03  0.00000000000E+00 0. -1.
<mgrwt>
<rscale>  2 0.30093168E+02</rscale>
<asrwt>0</asrwt>
<pdfrwt beam="2">  1       21 0.20500561E-03 0.30093168E+02</pdfrwt>
<pdfrwt beam="1">  1        1 0.11169975E+00 0.30093168E+02</pdfrwt>
<totfact> 0.97514963E+06</totfact>
</mgrwt>
</event>
<event>
 4    1  0.2260076E+006  0.2288416E+02  0.7546771E-02  0.1693395E+00
         21   -1    0    0  503  502  0.00000000000E+00  0.00000000000E+00  0.17614105292E+01  0.17614105292E+01  0.00000000000E+00 0.  1.
          2   -1    0    0  502    0 -0.00000000000E+00 -0.00000000000E+00 -0.56833706397E+03  0.56833706397E+03  0.00000000000E+00 0.  1.
         21    1    1    2  503  501 -0.15599781106E+02  0.16743109625E+02 -0.86443339118E+02  0.89421114779E+02  0.00000000000E+00 0.  1.
          2    1    1    2  501    0  0.15599781106E+02 -0.16743109625E+02 -0.48013231432E+03  0.48067735972E+03  0.00000000000E+00 0.  1.
<mgrwt>
<rscale>  2 0.22884162E+02</rscale>
<asrwt>0</asrwt>
<pdfrwt beam="1">  1       21 0.27098588E-03 0.22884162E+02</pdfrwt>
<pdfrwt beam="2">  1        2 0.87436586E-01 0.22884162E+02</pdfrwt>
<totfact> 0.13077038E+07</totfact>
</mgrwt>
</event>
<event>
 4    1  0.2260076E+006  0.2439238E+02  0.7546771E-02  0.1669886E+00
          2   -1    0    0  503    0 -0.00000000000E+00  0.00000000000E+00  0.57577766269E+03  0.57577766269E+03  0.00000000000E+00 0.  1.
         21   -1    0    0  501  502  0.00000000000E+00 -0.00000000000E+00 -0.31691907076E+01  0.31691907076E+01  0.00000000000E+00 0.  1.
         21    1    1    2  503  502  0.23797739530E+02 -0.53531204510E+01  0.48665380726E+02  0.54436270872E+02  0.00000000000E+00 0.  1.
          2    1    1    2  501    0 -0.23797739530E+02  0.53531204510E+01  0.52394309125E+03  0.52451058252E+03  0.00000000000E+00 0.  1.
<mgrwt>
<rscale>  2 0.24392382E+02</rscale>
<asrwt>0</asrwt>
<pdfrwt beam="2">  1       21 0.48756826E-03 0.24392382E+02</pdfrwt>
<pdfrwt beam="1">  1        2 0.88581095E-01 0.24392382E+02</pdfrwt>
<totfact> 0.55479494E+06</totfact>
</mgrwt>
</event>
<event>
 4    1  0.2260076E+006  0.2495618E+02  0.7546771E-02  0.1661632E+00
         21   -1    0    0  501  502  0.00000000000E+00  0.00000000000E+00  0.20124977478E+01  0.20124977478E+01  0.00000000000E+00 0.  1.
          2   -1    0    0  503    0 -0.00000000000E+00 -0.00000000000E+00 -0.31133085395E+03  0.31133085395E+03  0.00000000000E+00 0.  1.
         21    1    1    2  503  502 -0.22763810465E+02  0.10228390189E+02 -0.16676630081E+03  0.16862327870E+03  0.00000000000E+00 0.  1.
          2    1    1    2  501    0  0.22763810465E+02 -0.10228390189E+02 -0.14255205539E+03  0.14472007300E+03  0.00000000000E+00 0.  1.
<mgrwt>
<rscale>  2 0.24956182E+02</rscale>
<asrwt>0</asrwt>
<pdfrwt beam="1">  1       21 0.30961523E-03 0.24956182E+02</pdfrwt>
<pdfrwt beam="2">  1        2 0.47897025E-01 0.24956182E+02</pdfrwt>
<totfact> 0.20142441E+07</totfact>
</mgrwt>
</event>
<event>
 4    1  0.2260076E+006  0.3607333E+02  0.7546771E-02  0.1539271E+00
         21   -1    0    0  501  502  0.00000000000E+00  0.00000000000E+00  0.24703780090E+03  0.24703780090E+03  0.00000000000E+00 0. -1.
          3   -1    0    0  503    0 -0.00000000000E+00 -0.00000000000E+00 -0.70635242143E+01  0.70635242143E+01  0.00000000000E+00 0.  1.
         21    1    1    2  503  502  0.46340430786E+01 -0.35774439919E+02  0.18405139689E+03  0.18755319673E+03  0.00000000000E+00 0. -1.
          3    1    1    2  501    0 -0.46340430786E+01  0.35774439919E+02  0.55922879796E+02  0.66548128384E+02  0.00000000000E+00 0.  1.
<mgrwt>
<rscale>  2 0.36073327E+02</rscale>
<asrwt>0</asrwt>
<pdfrwt beam="1">  1       21 0.38005809E-01 0.36073327E+02</pdfrwt>
<pdfrwt beam="2">  1        3 0.10866962E-02 0.36073327E+02</pdfrwt>
<totfact> 0.58734907E+05</totfact>
</mgrwt>
</event>
<event>
 4    1  0.2260076E+006  0.2084269E+02  0.7546771E-02  0.1729071E+00
          3   -1    0    0  503    0 -0.00000000000E+00  0.00000000000E+00  0.11064210024E+03  0.11064210024E+03  0.00000000000E+00 0. -1.
         21   -1    0    0  501  502  0.00000000000E+00 -0.00000000000E+00 -0.44109337071E+01  0.44109337071E+01  0.00000000000E+00 0. -1.
         21    1    1    2  503  502  0.20842248540E+02 -0.13614615083E+00  0.34048059023E+02  0.39921024326E+02  0.00000000000E+00 0. -1.
          3    1    1    2  501    0 -0.20842248540E+02  0.13614615083E+00  0.72183107505E+02  0.75132009617E+02  0.00000000000E+00 0. -1.
<mgrwt>
<rscale>  2 0.20842693E+02</rscale>
<asrwt>0</asrwt>
<pdfrwt beam="2">  1       21 0.67860527E-03 0.20842693E+02</pdfrwt>
<pdfrwt beam="1">  1        3 0.17021860E-01 0.20842693E+02</pdfrwt>
<totfact> 0.53065917E+06</totfact>
</mgrwt>
</event>
<event>
 4    1  0.2260076E+006  0.2131973E+02  0.7546771E-02  0.1720290E+00
         -4   -1    0    0    0  501 -0.00000000000E+00  0.00000000000E+00  0.74222580124E+03  0.74222580124E+03  0.00000000000E+00 0.  1.
         21   -1    0    0  503  502  0.00000000000E+00 -0.00000000000E+00 -0.12288812099E+01  0.12288812099E+01  0.00000000000E+00 0.  1.
         21    1    1    2  503  501  0.21308093401E+02  0.70435310945E+00  0.10720908691E+03  0.10930836782E+03  0.00000000000E+00 0.  1.
         -4    1    1    2    0  502 -0.21308093401E+02 -0.70435310945E+00  0.63378783311E+03  0.63414631463E+03  0.00000000000E+00 0.  1.
<mgrwt>
<rscale>  2 0.21319732E+02</rscale>
<asrwt>0</asrwt>
<pdfrwt beam="2">  1       21 0.18905924E-03 0.21319732E+02</pdfrwt>
<pdfrwt beam="1">  1       -4 0.11418823E+00 0.21319732E+02</pdfrwt>
<totfact> 0.71331219E+05</totfact>
</mgrwt>
</event>
<event>
 4    1  0.2260076E+006  0.4129212E+02  0.7546771E-02  0.1498912E+00
          4   -1    0    0  502    0 -0.00000000000E+00  0.00000000000E+00  0.18267460705E+02  0.18267460705E+02  0.00000000000E+00 0.  1.
         21   -1    0    0  503  502  0.00000000000E+00 -0.00000000000E+00 -0.19067038521E+03  0.19067038521E+03  0.00000000000E+00 0.  1.
         21    1    1    2  503  501 -0.32028274303E+02 -0.26062024986E+02 -0.16084208369E+03  0.16605786759E+03  0.00000000000E+00 0.  1.
          4    1    1    2  501    0  0.32028274303E+02  0.26062024986E+02 -0.11560840814E+02  0.42879978329E+02  0.00000000000E+00 0.  1.
<mgrwt>
<rscale>  2 0.41292124E+02</rscale>
<asrwt>0</asrwt>
<pdfrwt beam="2">  1       21 0.29333903E-01 0.41292124E+02</pdfrwt>
<pdfrwt beam="1">  1        4 0.28103788E-02 0.41292124E+02</pdfrwt>
<totfact> 0.21281133E+05</totfact>
</mgrwt>
</event>
<event>
 4    1  0.2260076E+006  0.5583031E+02  0.7546771E-02  0.1416213E+00
         21   -1    0    0  503  502  0.00000000000E+00  0.00000000000E+00  0.55400884469E+02  0.55400884469E+02  0.00000000000E+00 0.  1.
          4   -1    0    0  502    0 -0.00000000000E+00 -0.00000000000E+00 -0.56794142315E+02  0.56794142315E+02  0.00000000000E+00 0.  1.
         21    1    1    2  503  501 -0.55154797403E+02  0.86586313302E+01 -0.61212654718E+01  0.56164877496E+02  0.00000000000E+00 0.  1.
          4    1    1    2  501    0  0.55154797403E+02 -0.86586313302E+01  0.47280076258E+01  0.56030149288E+02  0.00000000000E+00 0.  1.
<mgrwt>
<rscale>  2 0.55830311E+02</rscale>
<asrwt>0</asrwt>
<pdfrwt beam="1">  1       21 0.85232130E-02 0.55830311E+02</pdfrwt>
<pdfrwt beam="2">  1        4 0.87375603E-02 0.55830311E+02</pdfrwt>
<totfact> 0.34132062E+05</totfact>
</mgrwt>
</event>
<event>
 4    1  0.2260076E+006  0.2131022E+02  0.7546771E-02  0.1720462E+00
         21   -1    0    0  503  502  0.00000000000E+00  0.00000000000E+00  0.26487482983E+01  0.26487482983E+01  0.00000000000E+00 0.  1.
         -1   -1    0    0    0  501 -0.00000000000E+00 -0.00000000000E+00 -0.19054455082E+03  0.19054455082E+03  0.00000000000E+00 0. -1.
         21    1    1    2  503  501 -0.11880253147E+02  0.17691378882E+02 -0.63368452155E+02  0.66855710527E+02  0.00000000000E+00 0.  1.
         -1    1    1    2    0  502  0.11880253147E+02 -0.17691378882E+02 -0.12452735036E+03  0.12633758859E+03  0.00000000000E+00 0. -1.
<mgrwt>
<rscale>  2 0.21310216E+02</rscale>
<asrwt>0</asrwt>
<pdfrwt beam="1">  1       21 0.40749981E-03 0.21310216E+02</pdfrwt>
<pdfrwt beam="2">  1       -1 0.29314541E-01 0.21310216E+02</pdfrwt>
<totfact> 0.92484729E+06</totfact>
</mgrwt>
</event>
<event>
 4    1  0.2260076E+006  0.2123101E+02  0.7546771E-02  0.1721901E+00
          2   -1    0    0  503    0 -0.00000000000E+00  0.00000000000E+00  0.83782729076E+02  0.83782729076E+02  0.00000000000E+00 0.  1.
         21   -1    0    0  501  502  0.00000000000E+00 -0.00000000000E+00 -0.20923765066E+02  0.20923765066E+02  0.00000000000E+00 0. -1.
         21    1    1    2  503  502  0.21188461447E+02 -0.13434460989E+01 -0.13693837328E+02  0.25264143102E+02  0.00000000000E+00 0. -1.
          2    1    1    2  501    0 -0.21188461447E+02  0.13434460989E+01  0.76552801339E+02  0.79442351040E+02  0.00000000000E+00 0.  1.
<mgrwt>
<rscale>  2 0.21231009E+02</rscale>
<asrwt>0</asrwt>
<pdfrwt beam="2">  1       21 0.32190408E-02 0.21231009E+02</pdfrwt>
<pdfrwt beam="1">  1        2 0.12889650E-01 0.21231009E+02</pdfrwt>
<totfact> 0.22244312E+06</totfact>
</mgrwt>
</event>
<event>
 4    1  0.2260076E+006  0.2140268E+02  0.7546771E-02  0.1718792E+00
         21   -1    0    0  501  502  0.00000000000E+00  0.00000000000E+00  0.45855693273E+01  0.45855693273E+01  0.00000000000E+00 0. -1.
         -1   -1    0    0    0  501 -0.00000000000E+00 -0.00000000000E+00 -0.10479410847E+03  0.10479410847E+03  0.00000000000E+00 0.  1.
         21    1    1    2  503  502 -0.18396027194E+02 -0.10938971095E+02 -0.38279246832E+02  0.43856306767E+02  0.00000000000E+00 0. -1.
         -1    1    1    2    0  503  0.18396027194E+02  0.10938971095E+02 -0.61929292310E+02  0.65523371030E+02  0.00000000000E+00 0.  1.
<mgrwt>
<rscale>  2 0.21402685E+02</rscale>
<asrwt>0</asrwt>
<pdfrwt beam="1">  1       21 0.70547227E-03 0.21402685E+02</pdfrwt>
<pdfrwt beam="2">  1       -1 0.16122169E-01 0.21402685E+02</pdfrwt>
<totfact> 0.10288001E+07</totfact>
</mgrwt>
</event>
<event>
 4    1  0.2260076E+006  0.2382744E+02  0.7546771E-02  0.1678438E+00
         21   -1    0    0  501  502  0.00000000000E+00  0.00000000000E+00  0.11257538156E+02  0.11257538156E+02  0.00000000000E+00 0.  1.
          2   -1    0    0  503    0 -0.00000000000E+00 -0.00000000000E+00 -0.27229907111E+03  0.27229907111E+03  0.00000000000E+00 0. -1.
         21    1    1    2  503  502  0.16570210721E+02  0.17122354433E+02 -0.25435859406E+01  0.23962819828E+02  0.00000000000E+00 0.  1.
          2    1    1    2  501    0 -0.16570210721E+02 -0.17122354433E+02 -0.25849794701E+03  0.25959378944E+03  0.00000000000E+00 0. -1.
<mgrwt>
<rscale>  2 0.23827440E+02</rscale>
<asrwt>0</asrwt>
<pdfrwt beam="1">  1       21 0.17319291E-02 0.23827440E+02</pdfrwt>
<pdfrwt beam="2">  1        2 0.41892161E-01 0.23827440E+02</pdfrwt>
<totfact> 0.17375215E+06</totfact>
</mgrwt>
</event>
<event>
 4    1  0.2260076E+006  0.4374121E+02  0.7546771E-02  0.1482357E+00
          2   -1    0    0  502    0 -0.00000000000E+00  0.00000000000E+00  0.14530897021E+04  0.14530897021E+04  0.00000000000E+00 0. -1.
         21   -1    0    0  503  502  0.00000000000E+00 -0.00000000000E+00 -0.28700535383E+01  0.28700535383E+01  0.00000000000E+00 0.  1.
         21    1    1    2  503  501  0.21805904083E+02 -0.37918281909E+02  0.18954932684E+03  0.19453082239E+03  0.00000000000E+00 0.  1.
          2    1    1    2  501    0 -0.21805904083E+02  0.37918281909E+02  0.12606703218E+04  0.12614289333E+04  0.00000000000E+00 0. -1.
<mgrwt>
<rscale>  2 0.43741211E+02</rscale>
<asrwt>0</asrwt>
<pdfrwt beam="2">  1       21 0.44154786E-03 0.43741211E+02</pdfrwt>
<pdfrwt beam="1">  1        2 0.22355167E+00 0.43741211E+02</pdfrwt>
<totfact> 0.22193730E+06</totfact>
</mgrwt>
</event>
<event>
 4    1  0.2260076E+006  0.2654423E+02  0.7546771E-02  0.1639763E+00
         21   -1    0    0  503  502  0.00000000000E+00  0.00000000000E+00  0.50339531831E+01  0.50339531831E+01  0.00000000000E+00 0.  1.
         -1   -1    0    0    0  501 -0.00000000000E+00 -0.00000000000E+00 -0.26472383035E+03  0.26472383035E+03  0.00000000000E+00 0. -1.
         21    1    1    2  503  501  0.24947080151E+02  0.90686032941E+01 -0.37252289965E+02  0.45741988166E+02  0.00000000000E+00 0.  1.
         -1    1    1    2    0  502 -0.24947080151E+02 -0.90686032941E+01 -0.22243758720E+03  0.22401579536E+03  0.00000000000E+00 0. -1.
<mgrwt>
<rscale>  2 0.26544234E+02</rscale>
<asrwt>0</asrwt>
<pdfrwt beam="1">  1       21 0.77445386E-03 0.26544234E+02</pdfrwt>
<pdfrwt beam="2">  1       -1 0.40726768E-01 0.26544234E+02</pdfrwt>
<totfact> 0.22277244E+06</totfact>
</mgrwt>
</event>
<event>
 4    1  0.2260076E+006  0.2210657E+02  0.7546771E-02  0.1706415E+00
          2   -1    0    0  502    0 -0.00000000000E+00  0.00000000000E+00  0.29531145999E+03  0.29531145999E+03  0.00000000000E+00 0. -1.
         21   -1    0    0  503  502  0.00000000000E+00 -0.00000000000E+00 -0.34224261354E+01  0.34224261354E+01  0.00000000000E+00 0.  1.
         21    1    1    2  503  501  0.13418553301E+02  0.17568233924E+02  0.38601264700E+02  0.44483233385E+02  0.00000000000E+00 0.  1.
          2    1    1    2  501    0 -0.13418553301E+02 -0.17568233924E+02  0.25328776915E+03  0.25425065274E+03  0.00000000000E+00 0. -1.
<mgrwt>
<rscale>  2 0.22106570E+02</rscale>
<asrwt>0</asrwt>
<pdfrwt beam="2">  1       21 0.52652733E-03 0.22106570E+02</pdfrwt>
<pdfrwt beam="1">  1        2 0.45432512E-01 0.22106570E+02</pdfrwt>
<totfact> 0.93970392E+06</totfact>
</mgrwt>
</event>
<event>
 4    1  0.2260076E+006  0.2308152E+02  0.7546771E-02  0.1690192E+00
         -4   -1    0    0    0  501 -0.00000000000E+00  0.00000000000E+00  0.54094801687E+02  0.54094801687E+02  0.00000000000E+00 0. -1.
         21   -1    0    0  501  502  0.00000000000E+00 -0.00000000000E+00 -0.17992016952E+02  0.17992016952E+02  0.00000000000E+00 0. -1.
         21    1    1    2  503  502 -0.20487667872E+02 -0.10630708450E+02 -0.61973961725E+01  0.23899042163E+02  0.00000000000E+00 0. -1.
         -4    1    1    2    0  503  0.20487667872E+02  0.10630708450E+02  0.42300180908E+02  0.48187776477E+02  0.00000000000E+00 0. -1.
<mgrwt>
<rscale>  2 0.23081519E+02</rscale>
<asrwt>0</asrwt>
<pdfrwt beam="2">  1       21 0.27680026E-02 0.23081519E+02</pdfrwt>
<pdfrwt beam="1">  1       -4 0.83222772E-02 0.23081519E+02</pdfrwt>
<totfact> 0.16992254E+06</totfact>
</mgrwt>
</event>
<event>
 4    1  0.2260076E+006  0.2054711E+02  0.7546771E-02  0.1734662E+00
         21   -1    0    0  501  502  0.00000000000E+00  0.00000000000E+00  0.23293940335E+01  0.23293940335E+01  0.00000000000E+00 0.  1.
          2   -1    0    0  503    0 -0.00000000000E+00 -0.00000000000E+00 -0.32072134580E+03  0.32072134580E+03  0.00000000000E+00 0.  1.
         21    1    1    2  503  502 -0.55409697389E+01  0.19785885265E+02 -0.52675756765E+02  0.56541303064E+02  0.00000000000E+00 0.  1.
          2    1    1    2  501    0  0.55409697389E+01 -0.19785885265E+02 -0.26571619500E+03  0.26650943677E+03  0.00000000000E+00 0.  1.
<mgrwt>
<rscale>  2 0.20547107E+02</rscale>
<asrwt>0</asrwt>
<pdfrwt beam="1">  1       21 0.35836837E-03 0.20547107E+02</pdfrwt>
<pdfrwt beam="2">  1        2 0.49341738E-01 0.20547107E+02</pdfrwt>
<totfact> 0.14911736E+07</totfact>
</mgrwt>
</event>
<event>
 4    1  0.2260076E+006  0.5587845E+02  0.7546771E-02  0.1415990E+00
         -2   -1    0    0    0  501 -0.00000000000E+00  0.00000000000E+00  0.80719014731E+02  0.80719014731E+02  0.00000000000E+00 0.  1.
         21   -1    0    0  503  502  0.00000000000E+00 -0.00000000000E+00 -0.65140007597E+02  0.65140007597E+02  0.00000000000E+00 0.  1.
         21    1    1    2  503  501 -0.35061032870E+01  0.55768344476E+02 -0.38689318567E+02  0.67965170323E+02  0.00000000000E+00 0.  1.
         -2    1    1    2    0  502  0.35061032870E+01 -0.55768344476E+02  0.54268325701E+02  0.77893852005E+02  0.00000000000E+00 0.  1.
<mgrwt>
<rscale>  2 0.55878448E+02</rscale>
<asrwt>0</asrwt>
<pdfrwt beam="2">  1       21 0.10021540E-01 0.55878448E+02</pdfrwt>
<pdfrwt beam="1">  1       -2 0.12418310E-01 0.55878448E+02</pdfrwt>
<totfact> 0.26645666E+05</totfact>
</mgrwt>
</event>
<event>
 4    1  0.2260076E+006  0.2282119E+02  0.7546771E-02  0.1694425E+00
         21   -1    0    0  501  502  0.00000000000E+00  0.00000000000E+00  0.10622668025E+03  0.10622668025E+03  0.00000000000E+00 0.  1.
          1   -1    0    0  503    0 -0.00000000000E+00 -0.00000000000E+00 -0.50340017174E+01  0.50340017174E+01  0.00000000000E+00 0. -1.
         21    1    1    2  503  502  0.17251529723E+02  0.14939596448E+02  0.59577775808E+02  0.63799045370E+02  0.00000000000E+00 0.  1.
          1    1    1    2  501    0 -0.17251529723E+02 -0.14939596448E+02  0.41614902726E+02  0.47461636600E+02  0.00000000000E+00 0. -1.
<mgrwt>
<rscale>  2 0.22821192E+02</rscale>
<asrwt>0</asrwt>
<pdfrwt beam="1">  1       21 0.16342564E-01 0.22821192E+02</pdfrwt>
<pdfrwt beam="2">  1        1 0.77446188E-03 0.22821192E+02</pdfrwt>
<totfact> 0.51978606E+06</totfact>
</mgrwt>
</event>
<event>
 4    1  0.2260076E+006  0.2148619E+02  0.7546771E-02  0.1717293E+00
          2   -1    0    0  502    0 -0.00000000000E+00  0.00000000000E+00  0.11360008333E+04  0.11360008333E+04  0.00000000000E+00 0. -1.
         21   -1    0    0  503  502  0.00000000000E+00 -0.00000000000E+00 -0.23485804634E+02  0.23485804634E+02  0.00000000000E+00 0. -1.
         21    1    1    2  503  501 -0.20071496940E+02  0.76675447963E+01 -0.18448115300E+02  0.28319413673E+02  0.00000000000E+00 0. -1.
          2    1    1    2  501    0  0.20071496940E+02 -0.76675447963E+01  0.11309631439E+04  0.11311672242E+04  0.00000000000E+00 0. -1.
<mgrwt>
<rscale>  2 0.21486187E+02</rscale>
<asrwt>0</asrwt>
<pdfrwt beam="2">  1       21 0.36132016E-02 0.21486187E+02</pdfrwt>
<pdfrwt beam="1">  1        2 0.17476932E+00 0.21486187E+02</pdfrwt>
<totfact> 0.11902983E+05</totfact>
</mgrwt>
</event>
<event>
 4    1  0.2260076E+006  0.2159817E+02  0.7546771E-02  0.1715295E+00
         21   -1    0    0  503  502  0.00000000000E+00  0.00000000000E+00  0.17761927732E+02  0.17761927732E+02  0.00000000000E+00 0.  1.
         -1   -1    0    0    0  501 -0.00000000000E+00 -0.00000000000E+00 -0.20154481873E+03  0.20154481873E+03  0.00000000000E+00 0. -1.
         21    1    1    2  503  501 -0.19494146880E+02  0.92983461534E+01  0.10368285964E+02  0.23957928908E+02  0.00000000000E+00 0.  1.
         -1    1    1    2    0  502  0.19494146880E+02 -0.92983461534E+01 -0.19415117696E+03  0.19534881755E+03  0.00000000000E+00 0. -1.
<mgrwt>
<rscale>  2 0.21598171E+02</rscale>
<asrwt>0</asrwt>
<pdfrwt beam="1">  1       21 0.27326042E-02 0.21598171E+02</pdfrwt>
<pdfrwt beam="2">  1       -1 0.31006896E-01 0.21598171E+02</pdfrwt>
<totfact> 0.48691350E+05</totfact>
</mgrwt>
</event>
<event>
 4    1  0.2260076E+006  0.8162339E+02  0.7546771E-02  0.1324507E+00
         21   -1    0    0  503  502  0.00000000000E+00  0.00000000000E+00  0.11408131513E+03  0.11408131513E+03  0.00000000000E+00 0. -1.
         -2   -1    0    0    0  501 -0.00000000000E+00 -0.00000000000E+00 -0.12761378221E+03  0.12761378221E+03  0.00000000000E+00 0. -1.
         21    1    1    2  503  501  0.76140862687E+01 -0.81267476915E+02  0.82232651855E+02  0.11586451633E+03  0.00000000000E+00 0. -1.
         -2    1    1    2    0  502 -0.76140862687E+01  0.81267476915E+02 -0.95765118935E+02  0.12583058101E+03  0.00000000000E+00 0. -1.
<mgrwt>
<rscale>  2 0.81623386E+02</rscale>
<asrwt>0</asrwt>
<pdfrwt beam="1">  1       21 0.17550972E-01 0.81623386E+02</pdfrwt>
<pdfrwt beam="2">  1       -2 0.19632889E-01 0.81623386E+02</pdfrwt>
<totfact> 0.49152908E+04</totfact>
</mgrwt>
</event>
<event>
 4    1  0.2260076E+006  0.2203761E+02  0.7546771E-02  0.1707602E+00
         -2   -1    0    0    0  501 -0.00000000000E+00  0.00000000000E+00  0.17634352446E+03  0.17634352446E+03  0.00000000000E+00 0.  1.
         21   -1    0    0  501  502  0.00000000000E+00 -0.00000000000E+00 -0.63552177943E+02  0.63552177943E+02  0.00000000000E+00 0. -1.
         21    1    1    2  503  502  0.15591771945E+02 -0.15574113892E+02 -0.60924422088E+02  0.64787665359E+02  0.00000000000E+00 0. -1.
         -2    1    1    2    0  503 -0.15591771945E+02  0.15574113892E+02  0.17371576861E+03  0.17510803705E+03  0.00000000000E+00 0.  1.
<mgrwt>
<rscale>  2 0.22037613E+02</rscale>
<asrwt>0</asrwt>
<pdfrwt beam="2">  1       21 0.97772583E-02 0.22037613E+02</pdfrwt>
<pdfrwt beam="1">  1       -2 0.27129773E-01 0.22037613E+02</pdfrwt>
<totfact> 0.69713678E+04</totfact>
</mgrwt>
</event>
<event>
 4    1  0.2260076E+006  0.2138457E+02  0.7546771E-02  0.1719118E+00
         21   -1    0    0  503  502  0.00000000000E+00  0.00000000000E+00  0.40782118305E+03  0.40782118305E+03  0.00000000000E+00 0.  1.
          4   -1    0    0  502    0 -0.00000000000E+00 -0.00000000000E+00 -0.76920492607E+02  0.76920492607E+02  0.00000000000E+00 0. -1.
         21    1    1    2  503  501 -0.20815991925E+02  0.48984048719E+01  0.40604809173E+03  0.40661081231E+03  0.00000000000E+00 0.  1.
          4    1    1    2  501    0  0.20815991925E+02 -0.48984048719E+01 -0.75147401277E+02  0.78130863356E+02  0.00000000000E+00 0. -1.
<mgrwt>
<rscale>  2 0.21384571E+02</rscale>
<asrwt>0</asrwt>
<pdfrwt beam="1">  1       21 0.62741719E-01 0.21384571E+02</pdfrwt>
<pdfrwt beam="2">  1        4 0.11833922E-01 0.21384571E+02</pdfrwt>
<totfact> 0.44697687E+03</totfact>
</mgrwt>
</event>
<event>
 4    1  0.2260076E+006  0.2410961E+02  0.7546771E-02  0.1674130E+00
          4   -1    0    0  502    0 -0.00000000000E+00  0.00000000000E+00  0.89942145251E+01  0.89942145251E+01  0.00000000000E+00 0.  1.
         21   -1    0    0  503  502  0.00000000000E+00 -0.00000000000E+00 -0.57864432318E+03  0.57864432318E+03  0.00000000000E+00 0. -1.
         21    1    1    2  503  501  0.18931064332E+02 -0.14929440531E+02 -0.56175065196E+03  0.56226779062E+03  0.00000000000E+00 0. -1.
          4    1    1    2  501    0 -0.18931064332E+02  0.14929440531E+02 -0.78994566872E+01  0.25370747077E+02  0.00000000000E+00 0.  1.
<mgrwt>
<rscale>  2 0.24109612E+02</rscale>
<asrwt>0</asrwt>
<pdfrwt beam="2">  1       21 0.89022208E-01 0.24109612E+02</pdfrwt>
<pdfrwt beam="1">  1        4 0.13837252E-02 0.24109612E+02</pdfrwt>
<totfact> 0.58672007E+04</totfact>
</mgrwt>
</event>
<event>
 4    1  0.2260076E+006  0.2077785E+02  0.7546771E-02  0.1730288E+00
         21   -1    0    0  501  502  0.00000000000E+00  0.00000000000E+00  0.10844450791E+02  0.10844450791E+02  0.00000000000E+00 0. -1.
          2   -1    0    0  503    0 -0.00000000000E+00 -0.00000000000E+00 -0.10247406385E+03  0.10247406385E+03  0.00000000000E+00 0.  1.
         21    1    1    2  503  502  0.10851033875E+01 -0.20749499718E+02 -0.15077740118E+01  0.20832488339E+02  0.00000000000E+00 0. -1.
          2    1    1    2  501    0 -0.10851033875E+01  0.20749499718E+02 -0.90121839052E+02  0.92486026307E+02  0.00000000000E+00 0.  1.
<mgrwt>
<rscale>  2 0.20777853E+02</rscale>
<asrwt>0</asrwt>
<pdfrwt beam="1">  1       21 0.16683770E-02 0.20777853E+02</pdfrwt>
<pdfrwt beam="2">  1        2 0.15765241E-01 0.20777853E+02</pdfrwt>
<totfact> 0.48689286E+06</totfact>
</mgrwt>
</event>
<event>
 4    1  0.2260076E+006  0.2028606E+02  0.7546771E-02  0.1739699E+00
         21   -1    0    0  501  502  0.00000000000E+00  0.00000000000E+00  0.89105755389E+01  0.89105755389E+01  0.00000000000E+00 0.  1.
          2   -1    0    0  503    0 -0.00000000000E+00 -0.00000000000E+00 -0.19046698385E+03  0.19046698385E+03  0.00000000000E+00 0. -1.
         21    1    1    2  503  502  0.71419034404E+01  0.18987296839E+02 -0.40132606765E+01  0.20679228401E+02  0.00000000000E+00 0.  1.
          2    1    1    2  501    0 -0.71419034404E+01 -0.18987296839E+02 -0.17754314763E+03  0.17869833099E+03  0.00000000000E+00 0. -1.
<mgrwt>
<rscale>  2 0.20286060E+02</rscale>
<asrwt>0</asrwt>
<pdfrwt beam="1">  1       21 0.13708578E-02 0.20286060E+02</pdfrwt>
<pdfrwt beam="2">  1        2 0.29302612E-01 0.20286060E+02</pdfrwt>
<totfact> 0.34073364E+06</totfact>
</mgrwt>
</event>
<event>
 4    1  0.2260076E+006  0.2469477E+02  0.7546771E-02  0.1665425E+00
         21   -1    0    0  501  502  0.00000000000E+00  0.00000000000E+00  0.16466167297E+02  0.16466167297E+02  0.00000000000E+00 0. -1.
          4   -1    0    0  503    0 -0.00000000000E+00 -0.00000000000E+00 -0.20221243185E+03  0.20221243185E+03  0.00000000000E+00 0. -1.
         21    1    1    2  503  502 -0.76582771740E+01  0.23477272369E+02  0.59473924442E+01  0.25400846522E+02  0.00000000000E+00 0. -1.
          4    1    1    2  501    0  0.76582771740E+01 -0.23477272369E+02 -0.19169365700E+03  0.19327775263E+03  0.00000000000E+00 0. -1.
<mgrwt>
<rscale>  2 0.24694767E+02</rscale>
<asrwt>0</asrwt>
<pdfrwt beam="1">  1       21 0.25332566E-02 0.24694767E+02</pdfrwt>
<pdfrwt beam="2">  1        4 0.31109604E-01 0.24694767E+02</pdfrwt>
<totfact> 0.21672286E+05</totfact>
</mgrwt>
</event>
<event>
 4    1  0.2260076E+006  0.2566401E+02  0.7546771E-02  0.1651644E+00
         21   -1    0    0  503  502  0.00000000000E+00  0.00000000000E+00  0.61737426724E+01  0.61737426724E+01  0.00000000000E+00 0.  1.
         -2   -1    0    0    0  501 -0.00000000000E+00 -0.00000000000E+00 -0.12791366846E+03  0.12791366846E+03  0.00000000000E+00 0. -1.
         21    1    1    2  503  501  0.73351002502E+01 -0.24593451170E+02 -0.33557059393E+02  0.42245920173E+02  0.00000000000E+00 0.  1.
         -2    1    1    2    0  502 -0.73351002502E+01  0.24593451170E+02 -0.88182866399E+02  0.91841490964E+02  0.00000000000E+00 0. -1.
<mgrwt>
<rscale>  2 0.25664012E+02</rscale>
<asrwt>0</asrwt>
<pdfrwt beam="1">  1       21 0.94980650E-03 0.25664012E+02</pdfrwt>
<pdfrwt beam="2">  1       -2 0.19679027E-01 0.25664012E+02</pdfrwt>
<totfact> 0.47064902E+06</totfact>
</mgrwt>
</event>
<event>
 4    1  0.2260076E+006  0.5213817E+02  0.7546771E-02  0.1434139E+00
          1   -1    0    0  503    0 -0.00000000000E+00  0.00000000000E+00  0.27443404412E+03  0.27443404412E+03  0.00000000000E+00 0. -1.
         21   -1    0    0  501  502  0.00000000000E+00 -0.00000000000E+00 -0.13149213908E+03  0.13149213908E+03  0.00000000000E+00 0. -1.
         21    1    1    2  503  502  0.47368194851E+02 -0.21786310034E+02 -0.12369776729E+03  0.13423683109E+03  0.00000000000E+00 0. -1.
          1    1    1    2  501    0 -0.47368194851E+02  0.21786310034E+02  0.26663967233E+03  0.27168935211E+03  0.00000000000E+00 0. -1.
<mgrwt>
<rscale>  2 0.52138174E+02</rscale>
<asrwt>0</asrwt>
<pdfrwt beam="2">  1       21 0.20229560E-01 0.52138174E+02</pdfrwt>
<pdfrwt beam="1">  1        1 0.42220622E-01 0.52138174E+02</pdfrwt>
<totfact> 0.24119365E+04</totfact>
</mgrwt>
</event>
<event>
 4    1  0.2260076E+006  0.5405946E+02  0.7546771E-02  0.1424600E+00
         21   -1    0    0  503  502  0.00000000000E+00  0.00000000000E+00  0.67625123682E+02  0.67625123682E+02  0.00000000000E+00 0.  1.
         -2   -1    0    0    0  501 -0.00000000000E+00 -0.00000000000E+00 -0.95537857365E+02  0.95537857365E+02  0.00000000000E+00 0.  1.
         21    1    1    2  503  501  0.54043247686E+02  0.13240370270E+01  0.46417535374E+02  0.71253163331E+02  0.00000000000E+00 0.  1.
         -2    1    1    2    0  502 -0.54043247686E+02 -0.13240370270E+01 -0.74330269057E+02  0.91909817716E+02  0.00000000000E+00 0.  1.
<mgrwt>
<rscale>  2 0.54059464E+02</rscale>
<asrwt>0</asrwt>
<pdfrwt beam="1">  1       21 0.10403865E-01 0.54059464E+02</pdfrwt>
<pdfrwt beam="2">  1       -2 0.14698132E-01 0.54059464E+02</pdfrwt>
<totfact> 0.19086203E+05</totfact>
</mgrwt>
</event>
<event>
 4    1  0.2260076E+006  0.2120425E+02  0.7546771E-02  0.1722389E+00
         21   -1    0    0  503  502  0.00000000000E+00  0.00000000000E+00  0.43712016400E+02  0.43712016400E+02  0.00000000000E+00 0. -1.
          1   -1    0    0  502    0 -0.00000000000E+00 -0.00000000000E+00 -0.38191318949E+03  0.38191318949E+03  0.00000000000E+00 0.  1.
         21    1    1    2  503  501  0.20594952999E+02  0.50465761727E+01  0.40826645438E+02  0.46004727994E+02  0.00000000000E+00 0. -1.
          1    1    1    2  501    0 -0.20594952999E+02 -0.50465761727E+01 -0.37902781853E+03  0.37962047790E+03  0.00000000000E+00 0.  1.
<mgrwt>
<rscale>  2 0.21204245E+02</rscale>
<asrwt>0</asrwt>
<pdfrwt beam="1">  1       21 0.67249257E-02 0.21204245E+02</pdfrwt>
<pdfrwt beam="2">  1        1 0.58755875E-01 0.21204245E+02</pdfrwt>
<totfact> 0.10039273E+05</totfact>
</mgrwt>
</event>
<event>
 4    1  0.2260076E+006  0.2549173E+02  0.7546771E-02  0.1654038E+00
         21   -1    0    0  503  502  0.00000000000E+00  0.00000000000E+00  0.43276073096E+02  0.43276073096E+02  0.00000000000E+00 0.  1.
         -1   -1    0    0    0  501 -0.00000000000E+00 -0.00000000000E+00 -0.35410904189E+03  0.35410904189E+03  0.00000000000E+00 0. -1.
         21    1    1    2  503  501  0.25290092966E+02  0.31999535263E+01  0.39017692078E+02  0.46606960852E+02  0.00000000000E+00 0.  1.
         -1    1    1    2    0  502 -0.25290092966E+02 -0.31999535263E+01 -0.34985066087E+03  0.35077815413E+03  0.00000000000E+00 0. -1.
<mgrwt>
<rscale>  2 0.25491734E+02</rscale>
<asrwt>0</asrwt>
<pdfrwt beam="1">  1       21 0.66578574E-02 0.25491734E+02</pdfrwt>
<pdfrwt beam="2">  1       -1 0.54478314E-01 0.25491734E+02</pdfrwt>
<totfact> 0.47593996E+04</totfact>
</mgrwt>
</event>
<event>
 4    1  0.2260076E+006  0.2280725E+02  0.7546771E-02  0.1694654E+00
          2   -1    0    0  502    0 -0.00000000000E+00  0.00000000000E+00  0.33756397443E+03  0.33756397443E+03  0.00000000000E+00 0. -1.
         21   -1    0    0  503  502  0.00000000000E+00 -0.00000000000E+00 -0.35178655300E+01  0.35178655300E+01  0.00000000000E+00 0. -1.
         21    1    1    2  503  501 -0.19453442758E+02  0.11905223604E+02  0.39178413647E+02  0.45333419021E+02  0.00000000000E+00 0. -1.
          2    1    1    2  501    0  0.19453442758E+02 -0.11905223604E+02  0.29486769525E+03  0.29574842094E+03  0.00000000000E+00 0. -1.
<mgrwt>
<rscale>  2 0.22807253E+02</rscale>
<asrwt>0</asrwt>
<pdfrwt beam="2">  1       21 0.54121035E-03 0.22807253E+02</pdfrwt>
<pdfrwt beam="1">  1        2 0.51932893E-01 0.22807253E+02</pdfrwt>
<totfact> 0.79800693E+06</totfact>
</mgrwt>
</event>
<event>
 4    1  0.2260076E+006  0.2385730E+02  0.7546771E-02  0.1677979E+00
         21   -1    0    0  501  502  0.00000000000E+00  0.00000000000E+00  0.11575762085E+04  0.11575762085E+04  0.00000000000E+00 0.  1.
          1   -1    0    0  503    0 -0.00000000000E+00 -0.00000000000E+00 -0.52522125480E+01  0.52522125480E+01  0.00000000000E+00 0.  1.
         21    1    1    2  503  502 -0.13358546237E+02 -0.19766638107E+02  0.11296927156E+04  0.11299446015E+04  0.00000000000E+00 0.  1.
          1    1    1    2  501    0  0.13358546237E+02  0.19766638107E+02  0.22631280390E+02  0.32883819604E+02  0.00000000000E+00 0.  1.
<mgrwt>
<rscale>  2 0.23857300E+02</rscale>
<asrwt>0</asrwt>
<pdfrwt beam="1">  1       21 0.17808844E+00 0.23857300E+02</pdfrwt>
<pdfrwt beam="2">  1        1 0.80803362E-03 0.23857300E+02</pdfrwt>
<totfact> 0.40833660E+04</totfact>
</mgrwt>
</event>
<event>
 4    1  0.2260076E+006  0.2701002E+02  0.7546771E-02  0.1633704E+00
         21   -1    0    0  503  502  0.00000000000E+00  0.00000000000E+00  0.15690340260E+02  0.15690340260E+02  0.00000000000E+00 0. -1.
          4   -1    0    0  502    0 -0.00000000000E+00 -0.00000000000E+00 -0.61399950796E+03  0.61399950796E+03  0.00000000000E+00 0.  1.
         21    1    1    2  503  501 -0.26038986057E+02  0.71772013232E+01  0.35345897759E+01  0.27240307241E+02  0.00000000000E+00 0. -1.
          4    1    1    2  501    0  0.26038986057E+02 -0.71772013232E+01 -0.60184375748E+03  0.60244954098E+03  0.00000000000E+00 0.  1.
<mgrwt>
<rscale>  2 0.27010017E+02</rscale>
<asrwt>0</asrwt>
<pdfrwt beam="1">  1       21 0.24138987E-02 0.27010017E+02</pdfrwt>
<pdfrwt beam="2">  1        4 0.94461455E-01 0.27010017E+02</pdfrwt>
<totfact> 0.26492009E+04</totfact>
</mgrwt>
</event>
<event>
 4    1  0.2260076E+006  0.3552946E+02  0.7546771E-02  0.1543948E+00
         -2   -1    0    0    0  501 -0.00000000000E+00  0.00000000000E+00  0.29882637692E+03  0.29882637692E+03  0.00000000000E+00 0.  1.
         21   -1    0    0  503  502  0.00000000000E+00 -0.00000000000E+00 -0.11106496236E+02  0.11106496236E+02  0.00000000000E+00 0.  1.
         21    1    1    2  503  501  0.35498008407E+02  0.14947193246E+01  0.21873509512E+02  0.41722813964E+02  0.00000000000E+00 0.  1.
         -2    1    1    2    0  502 -0.35498008407E+02 -0.14947193246E+01  0.26584637117E+03  0.26821005919E+03  0.00000000000E+00 0.  1.
<mgrwt>
<rscale>  2 0.35529464E+02</rscale>
<asrwt>0</asrwt>
<pdfrwt beam="2">  1       21 0.17086920E-02 0.35529464E+02</pdfrwt>
<pdfrwt beam="1">  1       -2 0.45973283E-01 0.35529464E+02</pdfrwt>
<totfact> 0.47308637E+05</totfact>
</mgrwt>
</event>
<event>
 4    1  0.2260076E+006  0.2747769E+02  0.7546771E-02  0.1627769E+00
          1   -1    0    0  502    0 -0.00000000000E+00  0.00000000000E+00  0.51010173304E+02  0.51010173304E+02  0.00000000000E+00 0. -1.
         21   -1    0    0  503  502  0.00000000000E+00 -0.00000000000E+00 -0.28825870339E+02  0.28825870339E+02  0.00000000000E+00 0. -1.
         21    1    1    2  503  501  0.12656306880E+02 -0.24389364340E+02 -0.16751145608E+02  0.32181113653E+02  0.00000000000E+00 0. -1.
          1    1    1    2  501    0 -0.12656306880E+02  0.24389364340E+02  0.38935448574E+02  0.47654929990E+02  0.00000000000E+00 0. -1.
<mgrwt>
<rscale>  2 0.27477685E+02</rscale>
<asrwt>0</asrwt>
<pdfrwt beam="2">  1       21 0.44347493E-02 0.27477685E+02</pdfrwt>
<pdfrwt beam="1">  1        1 0.78477189E-02 0.27477685E+02</pdfrwt>
<totfact> 0.22710243E+06</totfact>
</mgrwt>
</event>
<event>
 4    1  0.2260076E+006  0.2016241E+02  0.7546771E-02  0.1742117E+00
         21   -1    0    0  503  502  0.00000000000E+00  0.00000000000E+00  0.29317537272E+03  0.29317537272E+03  0.00000000000E+00 0. -1.
         -3   -1    0    0    0  501 -0.00000000000E+00 -0.00000000000E+00 -0.29974058295E+01  0.29974058295E+01  0.00000000000E+00 0.  1.
         21    1    1    2  503  501 -0.65907382289E+01  0.19054788164E+02  0.25364684876E+03  0.25444694273E+03  0.00000000000E+00 0. -1.
         -3    1    1    2    0  502  0.65907382289E+01 -0.19054788164E+02  0.36531118129E+02  0.41725835811E+02  0.00000000000E+00 0.  1.
<mgrwt>
<rscale>  2 0.20162410E+02</rscale>
<asrwt>0</asrwt>
<pdfrwt beam="1">  1       21 0.45103881E-01 0.20162410E+02</pdfrwt>
<pdfrwt beam="2">  1       -3 0.46113959E-03 0.20162410E+02</pdfrwt>
<totfact> 0.12127550E+06</totfact>
</mgrwt>
</event>
<event>
 4    1  0.2260076E+006  0.2463063E+02  0.7546771E-02  0.1666365E+00
         21   -1    0    0  503  502  0.00000000000E+00  0.00000000000E+00  0.33548056928E+02  0.33548056928E+02  0.00000000000E+00 0. -1.
          1   -1    0    0  502    0 -0.00000000000E+00 -0.00000000000E+00 -0.99451577141E+03  0.99451577141E+03  0.00000000000E+00 0.  1.
         21    1    1    2  503  501 -0.23283000184E+02 -0.80355249798E+01  0.28853227920E+02  0.37936480077E+02  0.00000000000E+00 0. -1.
          1    1    1    2  501    0  0.23283000184E+02  0.80355249798E+01 -0.98982094240E+03  0.99012734826E+03  0.00000000000E+00 0.  1.
<mgrwt>
<rscale>  2 0.24630626E+02</rscale>
<asrwt>0</asrwt>
<pdfrwt beam="1">  1       21 0.51612390E-02 0.24630626E+02</pdfrwt>
<pdfrwt beam="2">  1        1 0.15300244E+00 0.24630626E+02</pdfrwt>
<totfact> 0.45116461E+04</totfact>
</mgrwt>
</event>
<event>
 4    1  0.2260076E+006  0.2261375E+02  0.7546771E-02  0.1697849E+00
         -1   -1    0    0    0  501 -0.00000000000E+00  0.00000000000E+00  0.21524785440E+03  0.21524785440E+03  0.00000000000E+00 0. -1.
         21   -1    0    0  503  502  0.00000000000E+00 -0.00000000000E+00 -0.75818135301E+01  0.75818135301E+01  0.00000000000E+00 0. -1.
         21    1    1    2  503  501 -0.15241339528E+01  0.22562328694E+02  0.11510016564E+02  0.25374438746E+02  0.00000000000E+00 0. -1.
         -1    1    1    2    0  502  0.15241339528E+01 -0.22562328694E+02  0.19615602430E+03  0.19745522918E+03  0.00000000000E+00 0. -1.
<mgrwt>
<rscale>  2 0.22613749E+02</rscale>
<asrwt>0</asrwt>
<pdfrwt beam="2">  1       21 0.11664330E-02 0.22613749E+02</pdfrwt>
<pdfrwt beam="1">  1       -1 0.33115050E-01 0.22613749E+02</pdfrwt>
<totfact> 0.16247530E+06</totfact>
</mgrwt>
</event>
<event>
 4    1  0.2260076E+006  0.4251347E+02  0.7546771E-02  0.1490490E+00
          2   -1    0    0  503    0 -0.00000000000E+00  0.00000000000E+00  0.16232745724E+03  0.16232745724E+03  0.00000000000E+00 0.  1.
         21   -1    0    0  501  502  0.00000000000E+00 -0.00000000000E+00 -0.81026907094E+02  0.81026907094E+02  0.00000000000E+00 0.  1.
         21    1    1    2  503  502  0.37604038913E+02  0.19832575721E+02 -0.72358009495E+02  0.83923038198E+02  0.00000000000E+00 0.  1.
          2    1    1    2  501    0 -0.37604038913E+02 -0.19832575721E+02  0.15365855964E+03  0.15943132613E+03  0.00000000000E+00 0.  1.
<mgrwt>
<rscale>  2 0.42513466E+02</rscale>
<asrwt>0</asrwt>
<pdfrwt beam="2">  1       21 0.12465678E-01 0.42513466E+02</pdfrwt>
<pdfrwt beam="1">  1        2 0.24973455E-01 0.42513466E+02</pdfrwt>
<totfact> 0.13333292E+05</totfact>
</mgrwt>
</event>
<event>
 4    1  0.2260076E+006  0.2473458E+02  0.7546771E-02  0.1664844E+00
         -3   -1    0    0    0  501 -0.00000000000E+00  0.00000000000E+00  0.10421131622E+02  0.10421131622E+02  0.00000000000E+00 0. -1.
         21   -1    0    0  503  502  0.00000000000E+00 -0.00000000000E+00 -0.68212621464E+02  0.68212621464E+02  0.00000000000E+00 0. -1.
         21    1    1    2  503  501 -0.24139454801E+02  0.53931593054E+01 -0.43572281704E+02  0.50103325022E+02  0.00000000000E+00 0. -1.
         -3    1    1    2    0  502  0.24139454801E+02 -0.53931593054E+01 -0.14219208138E+02  0.28530428063E+02  0.00000000000E+00 0. -1.
<mgrwt>
<rscale>  2 0.24734580E+02</rscale>
<asrwt>0</asrwt>
<pdfrwt beam="2">  1       21 0.10494249E-01 0.24734580E+02</pdfrwt>
<pdfrwt beam="1">  1       -3 0.16032511E-02 0.24734580E+02</pdfrwt>
<totfact> 0.29074650E+06</totfact>
</mgrwt>
</event>
<event>
 4    1  0.2260076E+006  0.3542414E+02  0.7546771E-02  0.1544866E+00
         21   -1    0    0  503  502  0.00000000000E+00  0.00000000000E+00  0.72597014740E+01  0.72597014740E+01  0.00000000000E+00 0. -1.
         -1   -1    0    0    0  501 -0.00000000000E+00 -0.00000000000E+00 -0.16871597238E+04  0.16871597238E+04  0.00000000000E+00 0.  1.
         21    1    1    2  503  501 -0.31466689709E+02 -0.16270137480E+02 -0.37312266810E+02  0.51449734590E+02  0.00000000000E+00 0. -1.
         -1    1    1    2    0  502  0.31466689709E+02  0.16270137480E+02 -0.16425877555E+04  0.16429696907E+04  0.00000000000E+00 0.  1.
<mgrwt>
<rscale>  2 0.35424143E+02</rscale>
<asrwt>0</asrwt>
<pdfrwt beam="1">  1       21 0.11168762E-02 0.35424143E+02</pdfrwt>
<pdfrwt beam="2">  1       -1 0.25956326E+00 0.35424143E+02</pdfrwt>
<totfact> 0.20063863E+04</totfact>
</mgrwt>
</event>
<event>
 4    1  0.2260076E+006  0.2593720E+02  0.7546771E-02  0.1647894E+00
          2   -1    0    0  502    0 -0.00000000000E+00  0.00000000000E+00  0.88024114555E+03  0.88024114555E+03  0.00000000000E+00 0.  1.
         21   -1    0    0  503  502  0.00000000000E+00 -0.00000000000E+00 -0.39000220108E+01  0.39000220108E+01  0.00000000000E+00 0.  1.
         21    1    1    2  503  501  0.18276819773E+02 -0.18403701800E+02  0.41774601728E+02  0.49171696436E+02  0.00000000000E+00 0.  1.
          2    1    1    2  501    0 -0.18276819773E+02  0.18403701800E+02  0.83456652181E+03  0.83496947113E+03  0.00000000000E+00 0.  1.
<mgrwt>
<rscale>  2 0.25937201E+02</rscale>
<asrwt>0</asrwt>
<pdfrwt beam="2">  1       21 0.60000409E-03 0.25937201E+02</pdfrwt>
<pdfrwt beam="1">  1        2 0.13542156E+00 0.25937201E+02</pdfrwt>
<totfact> 0.25897512E+06</totfact>
</mgrwt>
</event>
<event>
 4    1  0.2260076E+006  0.2592975E+02  0.7546771E-02  0.1647996E+00
         21   -1    0    0  503  502  0.00000000000E+00  0.00000000000E+00  0.12196794231E+02  0.12196794231E+02  0.00000000000E+00 0.  1.
          2   -1    0    0  502    0 -0.00000000000E+00 -0.00000000000E+00 -0.76037719547E+03  0.76037719547E+03  0.00000000000E+00 0. -1.
         21    1    1    2  503  501  0.16121091673E+02 -0.20309163423E+02 -0.20690068896E+01  0.26012160718E+02  0.00000000000E+00 0.  1.
          2    1    1    2  501    0 -0.16121091673E+02  0.20309163423E+02 -0.74611139435E+03  0.74656182899E+03  0.00000000000E+00 0. -1.
<mgrwt>
<rscale>  2 0.25929746E+02</rscale>
<asrwt>0</asrwt>
<pdfrwt beam="1">  1       21 0.18764301E-02 0.25929746E+02</pdfrwt>
<pdfrwt beam="2">  1        2 0.11698109E+00 0.25929746E+02</pdfrwt>
<totfact> 0.54708181E+05</totfact>
</mgrwt>
</event>
<event>
 4    1  0.2260076E+006  0.2692842E+02  0.7546771E-02  0.1634754E+00
         -3   -1    0    0    0  501 -0.00000000000E+00  0.00000000000E+00  0.90830560526E+01  0.90830560526E+01  0.00000000000E+00 0.  1.
         21   -1    0    0  503  502  0.00000000000E+00 -0.00000000000E+00 -0.56973106417E+03  0.56973106417E+03  0.00000000000E+00 0. -1.
         21    1    1    2  503  501  0.14387277376E+02  0.22762826298E+02 -0.54868934617E+03  0.54934974161E+03  0.00000000000E+00 0. -1.
         -3    1    1    2    0  502 -0.14387277376E+02 -0.22762826298E+02 -0.11958661953E+02  0.29464378614E+02  0.00000000000E+00 0.  1.
<mgrwt>
<rscale>  2 0.26928424E+02</rscale>
<asrwt>0</asrwt>
<pdfrwt beam="2">  1       21 0.87650960E-01 0.26928424E+02</pdfrwt>
<pdfrwt beam="1">  1       -3 0.13973928E-02 0.26928424E+02</pdfrwt>
<totfact> 0.70827382E+04</totfact>
</mgrwt>
</event>
<event>
 4    1  0.2260076E+006  0.2228227E+02  0.7546771E-02  0.1703416E+00
         -3   -1    0    0    0  501 -0.00000000000E+00  0.00000000000E+00  0.37968676054E+02  0.37968676054E+02  0.00000000000E+00 0.  1.
         21   -1    0    0  503  502  0.00000000000E+00 -0.00000000000E+00 -0.16414885798E+02  0.16414885798E+02  0.00000000000E+00 0.  1.
         21    1    1    2  503  501  0.66651768711E+01 -0.21262051182E+02 -0.14857324049E+01  0.22331744311E+02  0.00000000000E+00 0.  1.
         -3    1    1    2    0  502 -0.66651768711E+01  0.21262051182E+02  0.23039522661E+02  0.32051817541E+02  0.00000000000E+00 0.  1.
<mgrwt>
<rscale>  2 0.22282267E+02</rscale>
<asrwt>0</asrwt>
<pdfrwt beam="2">  1       21 0.25253671E-02 0.22282267E+02</pdfrwt>
<pdfrwt beam="1">  1       -3 0.58413347E-02 0.22282267E+02</pdfrwt>
<totfact> 0.40254710E+06</totfact>
</mgrwt>
</event>
<event>
 4    1  0.2260076E+006  0.4088703E+02  0.7546771E-02  0.1501783E+00
          2   -1    0    0  503    0 -0.00000000000E+00  0.00000000000E+00  0.13062091029E+04  0.13062091029E+04  0.00000000000E+00 0. -1.
         21   -1    0    0  501  502  0.00000000000E+00 -0.00000000000E+00 -0.52775664416E+01  0.52775664416E+01  0.00000000000E+00 0. -1.
         21    1    1    2  503  502  0.40802584115E+02  0.26264895288E+01  0.79745727239E+02  0.89616573972E+02  0.00000000000E+00 0. -1.
          2    1    1    2  501    0 -0.40802584115E+02 -0.26264895288E+01  0.12211858092E+04  0.12218700954E+04  0.00000000000E+00 0. -1.
<mgrwt>
<rscale>  2 0.40887031E+02</rscale>
<asrwt>0</asrwt>
<pdfrwt beam="2">  1       21 0.81193434E-03 0.40887031E+02</pdfrwt>
<pdfrwt beam="1">  1        2 0.20095499E+00 0.40887031E+02</pdfrwt>
<totfact> 0.10391607E+06</totfact>
</mgrwt>
</event>
<event>
 4    1  0.2260076E+006  0.2373861E+02  0.7546771E-02  0.1679810E+00
         21   -1    0    0  501  502  0.00000000000E+00  0.00000000000E+00  0.23149105954E+02  0.23149105954E+02  0.00000000000E+00 0. -1.
          1   -1    0    0  503    0 -0.00000000000E+00 -0.00000000000E+00 -0.27890885176E+03  0.27890885176E+03  0.00000000000E+00 0. -1.
         21    1    1    2  503  502 -0.44890731322E+01  0.23310298589E+02  0.16407755559E+02  0.28857169653E+02  0.00000000000E+00 0. -1.
          1    1    1    2  501    0  0.44890731322E+01 -0.23310298589E+02 -0.27216750137E+03  0.27320078806E+03  0.00000000000E+00 0. -1.
<mgrwt>
<rscale>  2 0.23738614E+02</rscale>
<asrwt>0</asrwt>
<pdfrwt beam="1">  1       21 0.35614010E-02 0.23738614E+02</pdfrwt>
<pdfrwt beam="2">  1        1 0.42909053E-01 0.23738614E+02</pdfrwt>
<totfact> 0.40270353E+05</totfact>
</mgrwt>
</event>
<event>
 4    1  0.2260076E+006  0.2698274E+02  0.7546771E-02  0.1634055E+00
         21   -1    0    0  503  502  0.00000000000E+00  0.00000000000E+00  0.26321556952E+01  0.26321556952E+01  0.00000000000E+00 0.  1.
          3   -1    0    0  502    0 -0.00000000000E+00 -0.00000000000E+00 -0.38463413253E+03  0.38463413253E+03  0.00000000000E+00 0.  1.
         21    1    1    2  503  501  0.11019600618E+02 -0.24629991321E+02 -0.88382470202E+02  0.92409572606E+02  0.00000000000E+00 0.  1.
          3    1    1    2  501    0 -0.11019600618E+02  0.24629991321E+02 -0.29361950663E+03  0.29485671562E+03  0.00000000000E+00 0.  1.
<mgrwt>
<rscale>  2 0.26982737E+02</rscale>
<asrwt>0</asrwt>
<pdfrwt beam="1">  1       21 0.40494686E-03 0.26982737E+02</pdfrwt>
<pdfrwt beam="2">  1        3 0.59174506E-01 0.26982737E+02</pdfrwt>
<totfact> 0.13603930E+06</totfact>
</mgrwt>
</event>
<event>
 4    1  0.2260076E+006  0.2475744E+02  0.7546771E-02  0.1664510E+00
          2   -1    0    0  503    0 -0.00000000000E+00  0.00000000000E+00  0.13347315645E+04  0.13347315645E+04  0.00000000000E+00 0. -1.
         21   -1    0    0  501  502  0.00000000000E+00 -0.00000000000E+00 -0.13426662041E+01  0.13426662041E+01  0.00000000000E+00 0.  1.
         21    1    1    2  503  502  0.20271380113E+02 -0.14212743005E+02  0.12480905039E+03  0.12724083454E+03  0.00000000000E+00 0.  1.
          2    1    1    2  501    0 -0.20271380113E+02  0.14212743005E+02  0.12085798479E+04  0.12088333961E+04  0.00000000000E+00 0. -1.
<mgrwt>
<rscale>  2 0.24757442E+02</rscale>
<asrwt>0</asrwt>
<pdfrwt beam="2">  1       21 0.20656510E-03 0.24757442E+02</pdfrwt>
<pdfrwt beam="1">  1        2 0.20534226E+00 0.24757442E+02</pdfrwt>
<totfact> 0.70776447E+06</totfact>
</mgrwt>
</event>
<event>
 4    1  0.2260076E+006  0.2091215E+02  0.7546771E-02  0.1727775E+00
         -1   -1    0    0    0  501 -0.00000000000E+00  0.00000000000E+00  0.15892311228E+04  0.15892311228E+04  0.00000000000E+00 0.  1.
         21   -1    0    0  503  502  0.00000000000E+00 -0.00000000000E+00 -0.40248148368E+00  0.40248148368E+00  0.00000000000E+00 0.  1.
         21    1    1    2  503  501  0.15947820108E+01  0.20851248916E+02  0.34740351593E+03  0.34803235596E+03  0.00000000000E+00 0.  1.
         -1    1    1    2    0  502 -0.15947820108E+01 -0.20851248916E+02  0.12414251254E+04  0.12416012484E+04  0.00000000000E+00 0.  1.
<mgrwt>
<rscale>  2 0.20912147E+02</rscale>
<asrwt>0</asrwt>
<pdfrwt beam="2">  1       21 0.61921501E-04 0.20912147E+02</pdfrwt>
<pdfrwt beam="1">  1       -1 0.24449207E+00 0.20912147E+02</pdfrwt>
<totfact> 0.15608591E+06</totfact>
</mgrwt>
</event>
<event>
 4    1  0.2260076E+006  0.3298743E+02  0.7546771E-02  0.1567235E+00
          2   -1    0    0  502    0 -0.00000000000E+00  0.00000000000E+00  0.25147454070E+04  0.25147454070E+04  0.00000000000E+00 0. -1.
         21   -1    0    0  503  502  0.00000000000E+00 -0.00000000000E+00 -0.10602223810E+01  0.10602223810E+01  0.00000000000E+00 0. -1.
         21    1    1    2  503  501  0.32589534006E+02  0.51081436420E+01  0.28910493928E+03  0.29098081857E+03  0.00000000000E+00 0. -1.
          2    1    1    2  501    0 -0.32589534006E+02 -0.51081436420E+01  0.22245802453E+04  0.22248248108E+04  0.00000000000E+00 0. -1.
<mgrwt>
<rscale>  2 0.32987435E+02</rscale>
<asrwt>0</asrwt>
<pdfrwt beam="2">  1       21 0.16311315E-03 0.32987435E+02</pdfrwt>
<pdfrwt beam="1">  1        2 0.38687913E+00 0.32987435E+02</pdfrwt>
<totfact> 0.28485052E+06</totfact>
</mgrwt>
</event>
<event>
 4    1  0.2260076E+006  0.6129185E+02  0.7546771E-02  0.1392489E+00
          1   -1    0    0  502    0 -0.00000000000E+00  0.00000000000E+00  0.42106657081E+03  0.42106657081E+03  0.00000000000E+00 0.  1.
         21   -1    0    0  503  502  0.00000000000E+00 -0.00000000000E+00 -0.43990441201E+02  0.43990441201E+02  0.00000000000E+00 0. -1.
         21    1    1    2  503  501  0.51986382115E+02  0.32467019043E+02 -0.19075738633E+02  0.64191705503E+02  0.00000000000E+00 0. -1.
          1    1    1    2  501    0 -0.51986382115E+02 -0.32467019043E+02  0.39615186825E+03  0.40086530651E+03  0.00000000000E+00 0.  1.
<mgrwt>
<rscale>  2 0.61291853E+02</rscale>
<asrwt>0</asrwt>
<pdfrwt beam="2">  1       21 0.67677605E-02 0.61291853E+02</pdfrwt>
<pdfrwt beam="1">  1        1 0.64779470E-01 0.61291853E+02</pdfrwt>
<totfact> 0.96235673E+04</totfact>
</mgrwt>
</event>
<event>
 4    1  0.2260076E+006  0.3324037E+02  0.7546771E-02  0.1564806E+00
         21   -1    0    0  503  502  0.00000000000E+00  0.00000000000E+00  0.58142407242E+02  0.58142407242E+02  0.00000000000E+00 0.  1.
          2   -1    0    0  502    0 -0.00000000000E+00 -0.00000000000E+00 -0.10461421379E+04  0.10461421379E+04  0.00000000000E+00 0. -1.
         21    1    1    2  503  501 -0.32740589322E+02 -0.57424522985E+01  0.53104446627E+02  0.62649853943E+02  0.00000000000E+00 0.  1.
          2    1    1    2  501    0  0.32740589322E+02  0.57424522985E+01 -0.10411041773E+04  0.10416346912E+04  0.00000000000E+00 0. -1.
<mgrwt>
<rscale>  2 0.33240366E+02</rscale>
<asrwt>0</asrwt>
<pdfrwt beam="1">  1       21 0.89449867E-02 0.33240366E+02</pdfrwt>
<pdfrwt beam="2">  1        2 0.16094493E+00 0.33240366E+02</pdfrwt>
<totfact> 0.31442278E+04</totfact>
</mgrwt>
</event>
<event>
 4    1  0.2260076E+006  0.2068530E+02  0.7546771E-02  0.1732034E+00
          2   -1    0    0  502    0 -0.00000000000E+00  0.00000000000E+00  0.81500372653E+03  0.81500372653E+03  0.00000000000E+00 0.  1.
         21   -1    0    0  503  502  0.00000000000E+00 -0.00000000000E+00 -0.58880472214E+00  0.58880472214E+00  0.00000000000E+00 0. -1.
         21    1    1    2  503  501  0.88321063336E+01  0.18704961233E+02  0.27297291440E+03  0.27375553633E+03  0.00000000000E+00 0. -1.
          2    1    1    2  501    0 -0.88321063336E+01 -0.18704961233E+02  0.54144200741E+03  0.54183699492E+03  0.00000000000E+00 0.  1.
<mgrwt>
<rscale>  2 0.20685301E+02</rscale>
<asrwt>0</asrwt>
<pdfrwt beam="2">  1       21 0.90585994E-04 0.20685301E+02</pdfrwt>
<pdfrwt beam="1">  1        2 0.12538429E+00 0.20685301E+02</pdfrwt>
<totfact> 0.41466278E+07</totfact>
</mgrwt>
</event>
<event>
 4    1  0.2260076E+006  0.3946649E+02  0.7546771E-02  0.1512175E+00
         -1   -1    0    0    0  501 -0.00000000000E+00  0.00000000000E+00  0.61325169375E+01  0.61325169375E+01  0.00000000000E+00 0.  1.
         21   -1    0    0  503  502  0.00000000000E+00 -0.00000000000E+00 -0.32774694817E+03  0.32774694817E+03  0.00000000000E+00 0.  1.
         21    1    1    2  503  501 -0.10030616538E+02  0.38170543242E+02 -0.24000064245E+03  0.24322399556E+03  0.00000000000E+00 0.  1.
         -1    1    1    2    0  502  0.10030616538E+02 -0.38170543242E+02 -0.81613788779E+02  0.90655469545E+02  0.00000000000E+00 0.  1.
<mgrwt>
<rscale>  2 0.39466488E+02</rscale>
<asrwt>0</asrwt>
<pdfrwt beam="2">  1       21 0.50422614E-01 0.39466488E+02</pdfrwt>
<pdfrwt beam="1">  1       -1 0.94346403E-03 0.39466488E+02</pdfrwt>
<totfact> 0.55371239E+05</totfact>
</mgrwt>
</event>
<event>
 4    1  0.2260076E+006  0.2629316E+02  0.7546771E-02  0.1643094E+00
         21   -1    0    0  501  502  0.00000000000E+00  0.00000000000E+00  0.50292635765E+01  0.50292635765E+01  0.00000000000E+00 0.  1.
          3   -1    0    0  503    0 -0.00000000000E+00 -0.00000000000E+00 -0.15447760502E+03  0.15447760502E+03  0.00000000000E+00 0.  1.
         21    1    1    2  503  502 -0.26251367663E+02 -0.14818733551E+01 -0.48254632860E+02  0.54953069480E+02  0.00000000000E+00 0.  1.
          3    1    1    2  501    0  0.26251367663E+02  0.14818733551E+01 -0.10119370859E+03  0.10455379912E+03  0.00000000000E+00 0.  1.
<mgrwt>
<rscale>  2 0.26293160E+02</rscale>
<asrwt>0</asrwt>
<pdfrwt beam="1">  1       21 0.77373310E-03 0.26293160E+02</pdfrwt>
<pdfrwt beam="2">  1        3 0.23765778E-01 0.26293160E+02</pdfrwt>
<totfact> 0.27379381E+06</totfact>
</mgrwt>
</event>
<event>
 4    1  0.2260076E+006  0.3297918E+02  0.7546771E-02  0.1567315E+00
         -4   -1    0    0    0  501 -0.00000000000E+00  0.00000000000E+00  0.85303780500E+02  0.85303780500E+02  0.00000000000E+00 0.  1.
         21   -1    0    0  501  502  0.00000000000E+00 -0.00000000000E+00 -0.22902700139E+02  0.22902700139E+02  0.00000000000E+00 0. -1.
         21    1    1    2  503  502 -0.32977916306E+02  0.28852187886E+00 -0.48216370451E+01  0.33329782366E+02  0.00000000000E+00 0. -1.
         -4    1    1    2    0  503  0.32977916306E+02 -0.28852187886E+00  0.67222717406E+02  0.74876698273E+02  0.00000000000E+00 0.  1.
<mgrwt>
<rscale>  2 0.32979178E+02</rscale>
<asrwt>0</asrwt>
<pdfrwt beam="2">  1       21 0.35234924E-02 0.32979178E+02</pdfrwt>
<pdfrwt beam="1">  1       -4 0.13123658E-01 0.32979178E+02</pdfrwt>
<totfact> 0.63741442E+05</totfact>
</mgrwt>
</event>
<event>
 4    1  0.2260076E+006  0.2013833E+02  0.7546771E-02  0.1742591E+00
         -2   -1    0    0    0  501 -0.00000000000E+00  0.00000000000E+00  0.46712758447E+02  0.46712758447E+02  0.00000000000E+00 0.  1.
         21   -1    0    0  501  502  0.00000000000E+00 -0.00000000000E+00 -0.31414175559E+03  0.31414175559E+03  0.00000000000E+00 0.  1.
         21    1    1    2  503  502 -0.16416468814E+02 -0.11664123461E+02 -0.31163108373E+03  0.31228109865E+03  0.00000000000E+00 0.  1.
         -2    1    1    2    0  503  0.16416468814E+02  0.11664123461E+02  0.44202086586E+02  0.48573415393E+02  0.00000000000E+00 0.  1.
<mgrwt>
<rscale>  2 0.20138327E+02</rscale>
<asrwt>0</asrwt>
<pdfrwt beam="2">  1       21 0.48329500E-01 0.20138327E+02</pdfrwt>
<pdfrwt beam="1">  1       -2 0.71865783E-02 0.20138327E+02</pdfrwt>
<totfact> 0.32090919E+04</totfact>
</mgrwt>
</event>
<event>
 4    1  0.2260076E+006  0.3569653E+02  0.7546771E-02  0.1542501E+00
         21   -1    0    0  501  502  0.00000000000E+00  0.00000000000E+00  0.35015350301E+01  0.35015350301E+01  0.00000000000E+00 0.  1.
          2   -1    0    0  503    0 -0.00000000000E+00 -0.00000000000E+00 -0.65030994103E+03  0.65030994103E+03  0.00000000000E+00 0. -1.
         21    1    1    2  503  502 -0.16070154155E+02 -0.31874632638E+02 -0.10645945269E+03  0.11228471458E+03  0.00000000000E+00 0.  1.
          2    1    1    2  501    0  0.16070154155E+02  0.31874632638E+02 -0.54034895331E+03  0.54152676148E+03  0.00000000000E+00 0. -1.
<mgrwt>
<rscale>  2 0.35696527E+02</rscale>
<asrwt>0</asrwt>
<pdfrwt beam="1">  1       21 0.53869819E-03 0.35696527E+02</pdfrwt>
<pdfrwt beam="2">  1        2 0.10004759E+00 0.35696527E+02</pdfrwt>
<totfact> 0.45568782E+06</totfact>
</mgrwt>
</event>
<event>
 4    1  0.2260076E+006  0.2101784E+02  0.7546771E-02  0.1725813E+00
         21   -1    0    0  501  502  0.00000000000E+00  0.00000000000E+00  0.11154143203E+01  0.11154143203E+01  0.00000000000E+00 0. -1.
          1   -1    0    0  503    0 -0.00000000000E+00 -0.00000000000E+00 -0.39652702835E+03  0.39652702835E+03  0.00000000000E+00 0. -1.
         21    1    1    2  503  502 -0.20963509376E+02  0.15103000473E+01 -0.19074458199E+03  0.19189904974E+03  0.00000000000E+00 0. -1.
          1    1    1    2  501    0  0.20963509376E+02 -0.15103000473E+01 -0.20466703204E+03  0.20574339293E+03  0.00000000000E+00 0. -1.
<mgrwt>
<rscale>  2 0.21017843E+02</rscale>
<asrwt>0</asrwt>
<pdfrwt beam="1">  1       21 0.17160216E-03 0.21017843E+02</pdfrwt>
<pdfrwt beam="2">  1        1 0.61004174E-01 0.21017843E+02</pdfrwt>
<totfact> 0.24176684E+07</totfact>
</mgrwt>
</event>
<event>
 4    1  0.2260076E+006  0.2969470E+02  0.7546771E-02  0.1601488E+00
         21   -1    0    0  503  502  0.00000000000E+00  0.00000000000E+00  0.10243884961E+03  0.10243884961E+03  0.00000000000E+00 0. -1.
         -2   -1    0    0    0  501 -0.00000000000E+00 -0.00000000000E+00 -0.95246768900E+01  0.95246768900E+01  0.00000000000E+00 0.  1.
         21    1    1    2  503  501  0.21698543336E+02 -0.20271868360E+02  0.63825959491E+02  0.70395515018E+02  0.00000000000E+00 0. -1.
         -2    1    1    2    0  502 -0.21698543336E+02  0.20271868360E+02  0.29088213229E+02  0.41568011482E+02  0.00000000000E+00 0.  1.
<mgrwt>
<rscale>  2 0.29694704E+02</rscale>
<asrwt>0</asrwt>
<pdfrwt beam="1">  1       21 0.15759822E-01 0.29694704E+02</pdfrwt>
<pdfrwt beam="2">  1       -2 0.14653350E-02 0.29694704E+02</pdfrwt>
<totfact> 0.24251654E+06</totfact>
</mgrwt>
</event>
<event>
 4    1  0.2260076E+006  0.2095148E+02  0.7546771E-02  0.1727043E+00
          1   -1    0    0  503    0 -0.00000000000E+00  0.00000000000E+00  0.17743288577E+04  0.17743288577E+04  0.00000000000E+00 0. -1.
         21   -1    0    0  501  502  0.00000000000E+00 -0.00000000000E+00 -0.32723860641E+00  0.32723860641E+00  0.00000000000E+00 0. -1.
         21    1    1    2  503  502  0.39798414112E+01  0.20570010293E+02  0.44870702552E+03  0.44919590293E+03  0.00000000000E+00 0. -1.
          1    1    1    2  501    0 -0.39798414112E+01 -0.20570010293E+02  0.13252945936E+04  0.13254601934E+04  0.00000000000E+00 0. -1.
<mgrwt>
<rscale>  2 0.20951479E+02</rscale>
<asrwt>0</asrwt>
<pdfrwt beam="2">  1       21 0.50345822E-04 0.20951479E+02</pdfrwt>
<pdfrwt beam="1">  1        1 0.27296597E+00 0.20951479E+02</pdfrwt>
<totfact> 0.13999546E+07</totfact>
</mgrwt>
</event>
<event>
 4    1  0.2260076E+006  0.2471373E+02  0.7546771E-02  0.1665148E+00
          3   -1    0    0  502    0 -0.00000000000E+00  0.00000000000E+00  0.76342724830E+03  0.76342724830E+03  0.00000000000E+00 0.  1.
         21   -1    0    0  503  502  0.00000000000E+00 -0.00000000000E+00 -0.24139107542E+02  0.24139107542E+02  0.00000000000E+00 0. -1.
         21    1    1    2  503  501 -0.15786168539E+02  0.19014871149E+02 -0.17558607850E+02  0.30316219282E+02  0.00000000000E+00 0. -1.
          3    1    1    2  501    0  0.15786168539E+02 -0.19014871149E+02  0.75684674861E+03  0.75725013656E+03  0.00000000000E+00 0.  1.
<mgrwt>
<rscale>  2 0.24713730E+02</rscale>
<asrwt>0</asrwt>
<pdfrwt beam="2">  1       21 0.37137094E-02 0.24713730E+02</pdfrwt>
<pdfrwt beam="1">  1        3 0.11745033E+00 0.24713730E+02</pdfrwt>
<totfact> 0.10897671E+04</totfact>
</mgrwt>
</event>
<event>
 4    1  0.2260076E+006  0.2610892E+02  0.7546771E-02  0.1645567E+00
         21   -1    0    0  501  502  0.00000000000E+00  0.00000000000E+00  0.42093285419E+01  0.42093285419E+01  0.00000000000E+00 0.  1.
         -2   -1    0    0    0  501 -0.00000000000E+00 -0.00000000000E+00 -0.25104591587E+03  0.25104591587E+03  0.00000000000E+00 0. -1.
         21    1    1    2  503  502 -0.24467094001E+02  0.91124533930E+01 -0.47383631205E+02  0.54100683932E+02  0.00000000000E+00 0.  1.
         -2    1    1    2    0  503  0.24467094001E+02 -0.91124533930E+01 -0.19945295612E+03  0.20115456048E+03  0.00000000000E+00 0. -1.
<mgrwt>
<rscale>  2 0.26108916E+02</rscale>
<asrwt>0</asrwt>
<pdfrwt beam="1">  1       21 0.64758895E-03 0.26108916E+02</pdfrwt>
<pdfrwt beam="2">  1       -2 0.38622452E-01 0.26108916E+02</pdfrwt>
<totfact> 0.26627456E+06</totfact>
</mgrwt>
</event>
<event>
 4    1  0.2260076E+006  0.2592094E+02  0.7546771E-02  0.1648116E+00
          1   -1    0    0  503    0 -0.00000000000E+00  0.00000000000E+00  0.14583499513E+04  0.14583499513E+04  0.00000000000E+00 0. -1.
         21   -1    0    0  501  502  0.00000000000E+00 -0.00000000000E+00 -0.83363421142E+01  0.83363421142E+01  0.00000000000E+00 0.  1.
         21    1    1    2  503  502  0.10946454180E+02  0.23496174039E+02  0.12216422249E+02  0.28655471138E+02  0.00000000000E+00 0.  1.
          1    1    1    2  501    0 -0.10946454180E+02 -0.23496174039E+02  0.14377971870E+04  0.14380308223E+04  0.00000000000E+00 0. -1.
<mgrwt>
<rscale>  2 0.25920939E+02</rscale>
<asrwt>0</asrwt>
<pdfrwt beam="2">  1       21 0.12825153E-02 0.25920939E+02</pdfrwt>
<pdfrwt beam="1">  1        1 0.22436133E+00 0.25920939E+02</pdfrwt>
<totfact> 0.20098380E+05</totfact>
</mgrwt>
</event>
<event>
 4    1  0.2260076E+006  0.4382342E+02  0.7546771E-02  0.1481823E+00
          2   -1    0    0  503    0 -0.00000000000E+00  0.00000000000E+00  0.28990554609E+04  0.28990554609E+04  0.00000000000E+00 0. -1.
         21   -1    0    0  501  502  0.00000000000E+00 -0.00000000000E+00 -0.19096066418E+01  0.19096066418E+01  0.00000000000E+00 0. -1.
         21    1    1    2  503  502 -0.21997542232E+01  0.43768172606E+02  0.27637677132E+03  0.27982961169E+03  0.00000000000E+00 0. -1.
          2    1    1    2  501    0  0.21997542232E+01 -0.43768172606E+02  0.26207690829E+04  0.26211354558E+04  0.00000000000E+00 0. -1.
<mgrwt>
<rscale>  2 0.43823417E+02</rscale>
<asrwt>0</asrwt>
<pdfrwt beam="2">  1       21 0.29378796E-03 0.43823417E+02</pdfrwt>
<pdfrwt beam="1">  1        2 0.44600501E+00 0.43823417E+02</pdfrwt>
<totfact> 0.77542243E+05</totfact>
</mgrwt>
</event>
<event>
 4    1  0.2260076E+006  0.6056544E+02  0.7546771E-02  0.1395474E+00
         -2   -1    0    0    0  501 -0.00000000000E+00  0.00000000000E+00  0.99198414178E+03  0.99198414178E+03  0.00000000000E+00 0.  1.
         21   -1    0    0  501  502  0.00000000000E+00 -0.00000000000E+00 -0.61675847333E+01  0.61675847333E+01  0.00000000000E+00 0.  1.
         21    1    1    2  503  502  0.41967657680E+02  0.43667925254E+02  0.17708989925E+03  0.18716037082E+03  0.00000000000E+00 0.  1.
         -2    1    1    2    0  503 -0.41967657680E+02 -0.43667925254E+02  0.80872665779E+03  0.81099135569E+03  0.00000000000E+00 0.  1.
<mgrwt>
<rscale>  2 0.60565436E+02</rscale>
<asrwt>0</asrwt>
<pdfrwt beam="2">  1       21 0.94885998E-03 0.60565436E+02</pdfrwt>
<pdfrwt beam="1">  1       -2 0.15261282E+00 0.60565436E+02</pdfrwt>
<totfact> 0.93283735E+04</totfact>
</mgrwt>
</event>
<event>
 4    1  0.2260076E+006  0.2138725E+02  0.7546771E-02  0.1719070E+00
         21   -1    0    0  501  502  0.00000000000E+00  0.00000000000E+00  0.89235267003E+03  0.89235267003E+03  0.00000000000E+00 0. -1.
          3   -1    0    0  503    0 -0.00000000000E+00 -0.00000000000E+00 -0.52002423866E+00  0.52002423866E+00  0.00000000000E+00 0. -1.
         21    1    1    2  503  502  0.17508907806E+02 -0.12282205259E+02  0.49928124489E+03  0.49973910786E+03  0.00000000000E+00 0. -1.
          3    1    1    2  501    0 -0.17508907806E+02  0.12282205259E+02  0.39255140090E+03  0.39313358642E+03  0.00000000000E+00 0. -1.
<mgrwt>
<rscale>  2 0.21387249E+02</rscale>
<asrwt>0</asrwt>
<pdfrwt beam="1">  1       21 0.13728380E+00 0.21387249E+02</pdfrwt>
<pdfrwt beam="2">  1        3 0.80004443E-04 0.21387249E+02</pdfrwt>
<totfact> 0.13675472E+06</totfact>
</mgrwt>
</event>
<event>
 4    1  0.2260076E+006  0.3989518E+02  0.7546771E-02  0.1508984E+00
          2   -1    0    0  503    0 -0.00000000000E+00  0.00000000000E+00  0.13611590792E+04  0.13611590792E+04  0.00000000000E+00 0.  1.
         21   -1    0    0  501  502  0.00000000000E+00 -0.00000000000E+00 -0.70011527370E+01  0.70011527370E+01  0.00000000000E+00 0.  1.
         21    1    1    2  503  502  0.11604976931E+02 -0.38170015787E+02  0.52733650279E+02  0.66124605606E+02  0.00000000000E+00 0.  1.
          2    1    1    2  501    0 -0.11604976931E+02  0.38170015787E+02  0.13014242762E+04  0.13020356263E+04  0.00000000000E+00 0.  1.
<mgrwt>
<rscale>  2 0.39895183E+02</rscale>
<asrwt>0</asrwt>
<pdfrwt beam="2">  1       21 0.10771015E-02 0.39895183E+02</pdfrwt>
<pdfrwt beam="1">  1        2 0.20940888E+00 0.39895183E+02</pdfrwt>
<totfact> 0.63181886E+05</totfact>
</mgrwt>
</event>
<event>
 4    1  0.2260076E+006  0.2277822E+02  0.7546771E-02  0.1695130E+00
         21   -1    0    0  503  502  0.00000000000E+00  0.00000000000E+00  0.70581724481E+00  0.70581724481E+00  0.00000000000E+00 0.  1.
          2   -1    0    0  502    0 -0.00000000000E+00 -0.00000000000E+00 -0.13179022703E+04  0.13179022703E+04  0.00000000000E+00 0. -1.
         21    1    1    2  503  501  0.16727381643E+02 -0.15460989529E+02 -0.22016435275E+03  0.22133953492E+03  0.00000000000E+00 0.  1.
          2    1    1    2  501    0 -0.16727381643E+02  0.15460989529E+02 -0.10970321003E+04  0.10972685526E+04  0.00000000000E+00 0. -1.
<mgrwt>
<rscale>  2 0.22778224E+02</rscale>
<asrwt>0</asrwt>
<pdfrwt beam="1">  1       21 0.10858779E-03 0.22778224E+02</pdfrwt>
<pdfrwt beam="2">  1        2 0.20275323E+00 0.22778224E+02</pdfrwt>
<totfact> 0.17819102E+07</totfact>
</mgrwt>
</event>
<event>
 4    1  0.2260076E+006  0.2282040E+02  0.7546771E-02  0.1694438E+00
         21   -1    0    0  501  502  0.00000000000E+00  0.00000000000E+00  0.75110083633E+02  0.75110083633E+02  0.00000000000E+00 0.  1.
          1   -1    0    0  503    0 -0.00000000000E+00 -0.00000000000E+00 -0.69797688829E+03  0.69797688829E+03  0.00000000000E+00 0.  1.
         21    1    1    2  503  502 -0.65873739483E+01  0.21848964943E+02  0.73185404936E+02  0.76660773935E+02  0.00000000000E+00 0.  1.
          1    1    1    2  501    0  0.65873739483E+01 -0.21848964943E+02 -0.69605220959E+03  0.69642619799E+03  0.00000000000E+00 0.  1.
<mgrwt>
<rscale>  2 0.22820402E+02</rscale>
<asrwt>0</asrwt>
<pdfrwt beam="1">  1       21 0.11555397E-01 0.22820402E+02</pdfrwt>
<pdfrwt beam="2">  1        1 0.10738106E+00 0.22820402E+02</pdfrwt>
<totfact> 0.19943328E+04</totfact>
</mgrwt>
</event>
<event>
 4    1  0.2260076E+006  0.2219576E+02  0.7546771E-02  0.1704888E+00
         21   -1    0    0  501  502  0.00000000000E+00  0.00000000000E+00  0.91883608415E+01  0.91883608415E+01  0.00000000000E+00 0.  1.
          2   -1    0    0  503    0 -0.00000000000E+00 -0.00000000000E+00 -0.20265945207E+03  0.20265945207E+03  0.00000000000E+00 0.  1.
         21    1    1    2  503  502 -0.19383777584E+02 -0.10813007965E+02 -0.58979544629E+01  0.22966014925E+02  0.00000000000E+00 0.  1.
          2    1    1    2  501    0  0.19383777584E+02  0.10813007965E+02 -0.18757313677E+03  0.18888179799E+03  0.00000000000E+00 0.  1.
<mgrwt>
<rscale>  2 0.22195765E+02</rscale>
<asrwt>0</asrwt>
<pdfrwt beam="1">  1       21 0.14135942E-02 0.22195765E+02</pdfrwt>
<pdfrwt beam="2">  1        2 0.31178373E-01 0.22195765E+02</pdfrwt>
<totfact> 0.31257357E+06</totfact>
</mgrwt>
</event>
<event>
 4    1  0.2260076E+006  0.2007422E+02  0.7546771E-02  0.1743856E+00
         21   -1    0    0  501  502  0.00000000000E+00  0.00000000000E+00  0.25209221970E+01  0.25209221970E+01  0.00000000000E+00 0.  1.
         -2   -1    0    0    0  501 -0.00000000000E+00 -0.00000000000E+00 -0.26730389764E+03  0.26730389764E+03  0.00000000000E+00 0. -1.
         21    1    1    2  503  502 -0.29079342782E+01 -0.19862485842E+02 -0.46854033056E+02  0.50973275736E+02  0.00000000000E+00 0.  1.
         -2    1    1    2    0  503  0.29079342782E+01  0.19862485842E+02 -0.21792894239E+03  0.21885154410E+03  0.00000000000E+00 0. -1.
<mgrwt>
<rscale>  2 0.20074223E+02</rscale>
<asrwt>0</asrwt>
<pdfrwt beam="1">  1       21 0.38783428E-03 0.20074223E+02</pdfrwt>
<pdfrwt beam="2">  1       -2 0.41123666E-01 0.20074223E+02</pdfrwt>
<totfact> 0.46908249E+06</totfact>
</mgrwt>
</event>
<event>
 4    1  0.2260076E+006  0.2122580E+02  0.7546771E-02  0.1721996E+00
          1   -1    0    0  502    0 -0.00000000000E+00  0.00000000000E+00  0.11181976629E+01  0.11181976629E+01  0.00000000000E+00 0.  1.
         21   -1    0    0  503  502  0.00000000000E+00 -0.00000000000E+00 -0.45788931647E+03  0.45788931647E+03  0.00000000000E+00 0.  1.
         21    1    1    2  503  501 -0.68453561511E+01  0.20091684954E+02 -0.30791048314E+03  0.30864121619E+03  0.00000000000E+00 0.  1.
          1    1    1    2  501    0  0.68453561511E+01 -0.20091684954E+02 -0.14886063566E+03  0.15036629794E+03  0.00000000000E+00 0.  1.
<mgrwt>
<rscale>  2 0.21225803E+02</rscale>
<asrwt>0</asrwt>
<pdfrwt beam="2">  1       21 0.70444582E-01 0.21225803E+02</pdfrwt>
<pdfrwt beam="1">  1        1 0.17203023E-03 0.21225803E+02</pdfrwt>
<totfact> 0.24654149E+06</totfact>
</mgrwt>
</event>
<event>
 4    1  0.2260076E+006  0.2939120E+02  0.7546771E-02  0.1604917E+00
          2   -1    0    0  502    0 -0.00000000000E+00  0.00000000000E+00  0.98074725877E+03  0.98074725877E+03  0.00000000000E+00 0.  1.
         21   -1    0    0  503  502  0.00000000000E+00 -0.00000000000E+00 -0.32190043523E+01  0.32190043523E+01  0.00000000000E+00 0.  1.
         21    1    1    2  503  501  0.29387395494E+02 -0.47262525320E+00  0.69458545529E+02  0.75421031123E+02  0.00000000000E+00 0.  1.
          2    1    1    2  501    0 -0.29387395494E+02  0.47262525320E+00  0.90806970888E+03  0.90854523199E+03  0.00000000000E+00 0.  1.
<mgrwt>
<rscale>  2 0.29391196E+02</rscale>
<asrwt>0</asrwt>
<pdfrwt beam="2">  1       21 0.49523222E-03 0.29391196E+02</pdfrwt>
<pdfrwt beam="1">  1        2 0.15088396E+00 0.29391196E+02</pdfrwt>
<totfact> 0.30912741E+06</totfact>
</mgrwt>
</event>
<event>
 4    1  0.2260076E+006  0.2004926E+02  0.7546771E-02  0.1744350E+00
         21   -1    0    0  503  502  0.00000000000E+00  0.00000000000E+00  0.62009255044E+02  0.62009255044E+02  0.00000000000E+00 0.  1.
          1   -1    0    0  502    0 -0.00000000000E+00 -0.00000000000E+00 -0.11790742789E+04  0.11790742789E+04  0.00000000000E+00 0.  1.
         21    1    1    2  503  501 -0.11418668538E+02  0.16479887302E+02  0.60301057706E+02  0.63546756307E+02  0.00000000000E+00 0.  1.
          1    1    1    2  501    0  0.11418668538E+02 -0.16479887302E+02 -0.11773660815E+04  0.11775367776E+04  0.00000000000E+00 0.  1.
<mgrwt>
<rscale>  2 0.20049256E+02</rscale>
<asrwt>0</asrwt>
<pdfrwt beam="1">  1       21 0.95398857E-02 0.20049256E+02</pdfrwt>
<pdfrwt beam="2">  1        1 0.18139604E+00 0.20049256E+02</pdfrwt>
<totfact> 0.12596192E+04</totfact>
</mgrwt>
</event>
<event>
 4    1  0.2260076E+006  0.2252308E+02  0.7546771E-02  0.1699360E+00
         -2   -1    0    0    0  501 -0.00000000000E+00  0.00000000000E+00  0.42791617572E+03  0.42791617572E+03  0.00000000000E+00 0. -1.
         21   -1    0    0  501  502  0.00000000000E+00 -0.00000000000E+00 -0.26059940779E+01  0.26059940779E+01  0.00000000000E+00 0.  1.
         21    1    1    2  503  502  0.19823061701E+02  0.10692762646E+02  0.53727040851E+02  0.58257049932E+02  0.00000000000E+00 0.  1.
         -2    1    1    2    0  503 -0.19823061701E+02 -0.10692762646E+02  0.37158314079E+03  0.37226511986E+03  0.00000000000E+00 0. -1.
<mgrwt>
<rscale>  2 0.22523076E+02</rscale>
<asrwt>0</asrwt>
<pdfrwt beam="2">  1       21 0.40092251E-03 0.22523076E+02</pdfrwt>
<pdfrwt beam="1">  1       -2 0.65833202E-01 0.22523076E+02</pdfrwt>
<totfact> 0.18790711E+06</totfact>
</mgrwt>
</event>
<event>
 4    1  0.2260076E+006  0.3708207E+02  0.7546771E-02  0.1530852E+00
          3   -1    0    0  503    0 -0.00000000000E+00  0.00000000000E+00  0.73594268223E+02  0.73594268223E+02  0.00000000000E+00 0.  1.
         21   -1    0    0  501  502  0.00000000000E+00 -0.00000000000E+00 -0.74462610975E+02  0.74462610975E+02  0.00000000000E+00 0.  1.
         21    1    1    2  503  502  0.37065254762E+02  0.11164429489E+01 -0.64505093121E+02  0.74404210862E+02  0.00000000000E+00 0.  1.
          3    1    1    2  501    0 -0.37065254762E+02 -0.11164429489E+01  0.63636750370E+02  0.73652668336E+02  0.00000000000E+00 0.  1.
<mgrwt>
<rscale>  2 0.37082065E+02</rscale>
<asrwt>0</asrwt>
<pdfrwt beam="2">  1       21 0.11455786E-01 0.37082065E+02</pdfrwt>
<pdfrwt beam="1">  1        3 0.11322195E-01 0.37082065E+02</pdfrwt>
<totfact> 0.14595868E+05</totfact>
</mgrwt>
</event>
<event>
 4    1  0.2260076E+006  0.2130567E+02  0.7546771E-02  0.1720544E+00
         21   -1    0    0  501  502  0.00000000000E+00  0.00000000000E+00  0.90718604949E+00  0.90718604949E+00  0.00000000000E+00 0. -1.
          2   -1    0    0  503    0 -0.00000000000E+00 -0.00000000000E+00 -0.16762112522E+04  0.16762112522E+04  0.00000000000E+00 0.  1.
         21    1    1    2  503  502 -0.16034996155E+02  0.14028912222E+02 -0.13531892898E+03  0.13698592636E+03  0.00000000000E+00 0. -1.
          2    1    1    2  501    0  0.16034996155E+02 -0.14028912222E+02 -0.15399851371E+04  0.15401325118E+04  0.00000000000E+00 0.  1.
<mgrwt>
<rscale>  2 0.21305668E+02</rscale>
<asrwt>0</asrwt>
<pdfrwt beam="1">  1       21 0.13956676E-03 0.21305668E+02</pdfrwt>
<pdfrwt beam="2">  1        2 0.25787926E+00 0.21305668E+02</pdfrwt>
<totfact> 0.83066264E+06</totfact>
</mgrwt>
</event>
<event>
 4    1  0.2260076E+006  0.2183329E+02  0.7546771E-02  0.1711151E+00
          2   -1    0    0  503    0 -0.00000000000E+00  0.00000000000E+00  0.49052472959E+03  0.49052472959E+03  0.00000000000E+00 0. -1.
         21   -1    0    0  501  502  0.00000000000E+00 -0.00000000000E+00 -0.40999667752E+01  0.40999667752E+01  0.00000000000E+00 0.  1.
         21    1    1    2  503  502 -0.42259792792E+01 -0.21420401915E+02  0.27189129828E+02  0.34870349867E+02  0.00000000000E+00 0.  1.
          2    1    1    2  501    0  0.42259792792E+01  0.21420401915E+02  0.45923563298E+03  0.45975434649E+03  0.00000000000E+00 0. -1.
<mgrwt>
<rscale>  2 0.21833289E+02</rscale>
<asrwt>0</asrwt>
<pdfrwt beam="2">  1       21 0.63076451E-03 0.21833289E+02</pdfrwt>
<pdfrwt beam="1">  1        2 0.75465297E-01 0.21833289E+02</pdfrwt>
<totfact> 0.43453097E+06</totfact>
</mgrwt>
</event>
<event>
 4    1  0.2260076E+006  0.2545180E+02  0.7546771E-02  0.1654596E+00
         21   -1    0    0  503  502  0.00000000000E+00  0.00000000000E+00  0.31088090047E+01  0.31088090047E+01  0.00000000000E+00 0.  1.
          2   -1    0    0  502    0 -0.00000000000E+00 -0.00000000000E+00 -0.11490881169E+04  0.11490881169E+04  0.00000000000E+00 0.  1.
         21    1    1    2  503  501  0.29955288103E+01 -0.25274908616E+02 -0.51736209810E+02  0.57657866800E+02  0.00000000000E+00 0.  1.
          2    1    1    2  501    0 -0.29955288103E+01  0.25274908616E+02 -0.10942430980E+04  0.10945390591E+04  0.00000000000E+00 0.  1.
<mgrwt>
<rscale>  2 0.25451801E+02</rscale>
<asrwt>0</asrwt>
<pdfrwt beam="1">  1       21 0.47827840E-03 0.25451801E+02</pdfrwt>
<pdfrwt beam="2">  1        2 0.17678275E+00 0.25451801E+02</pdfrwt>
<totfact> 0.25786825E+06</totfact>
</mgrwt>
</event>
<event>
 4    1  0.2260076E+006  0.2607834E+02  0.7546771E-02  0.1645980E+00
         21   -1    0    0  501  502  0.00000000000E+00  0.00000000000E+00  0.10146901059E+01  0.10146901059E+01  0.00000000000E+00 0.  1.
          2   -1    0    0  503    0 -0.00000000000E+00 -0.00000000000E+00 -0.68169600345E+03  0.68169600345E+03  0.00000000000E+00 0.  1.
         21    1    1    2  503  502  0.89772660039E+01  0.24484452393E+02 -0.29607739956E+03  0.29722366366E+03  0.00000000000E+00 0.  1.
          2    1    1    2  501    0 -0.89772660039E+01 -0.24484452393E+02 -0.38460391378E+03  0.38548702989E+03  0.00000000000E+00 0.  1.
<mgrwt>
<rscale>  2 0.26078338E+02</rscale>
<asrwt>0</asrwt>
<pdfrwt beam="1">  1       21 0.15610622E-03 0.26078338E+02</pdfrwt>
<pdfrwt beam="2">  1        2 0.10487627E+00 0.26078338E+02</pdfrwt>
<totfact> 0.24854203E+07</totfact>
</mgrwt>
</event>
<event>
 4    1  0.2260076E+006  0.2025101E+02  0.7546771E-02  0.1740382E+00
         21   -1    0    0  503  502  0.00000000000E+00  0.00000000000E+00  0.82304567702E+02  0.82304567702E+02  0.00000000000E+00 0. -1.
          1   -1    0    0  502    0 -0.00000000000E+00 -0.00000000000E+00 -0.11360107113E+02  0.11360107113E+02  0.00000000000E+00 0.  1.
         21    1    1    2  503  501 -0.11593699167E+02  0.16603900822E+02  0.70561543337E+02  0.73410045505E+02  0.00000000000E+00 0. -1.
          1    1    1    2  501    0  0.11593699167E+02 -0.16603900822E+02  0.38291725251E+00  0.20254629310E+02  0.00000000000E+00 0.  1.
<mgrwt>
<rscale>  2 0.20251009E+02</rscale>
<asrwt>0</asrwt>
<pdfrwt beam="1">  1       21 0.12662241E-01 0.20251009E+02</pdfrwt>
<pdfrwt beam="2">  1        1 0.17477088E-02 0.20251009E+02</pdfrwt>
<totfact> 0.26551027E+06</totfact>
</mgrwt>
</event>
<event>
 4    1  0.2260076E+006  0.5132729E+02  0.7546771E-02  0.1438311E+00
         21   -1    0    0  501  502  0.00000000000E+00  0.00000000000E+00  0.16279722931E+03  0.16279722931E+03  0.00000000000E+00 0.  1.
          1   -1    0    0  503    0 -0.00000000000E+00 -0.00000000000E+00 -0.16185227306E+02  0.16185227306E+02  0.00000000000E+00 0.  1.
         21    1    1    2  503  502  0.40573453328E+02  0.31437004771E+02  0.72176446893E+02  0.88565963384E+02  0.00000000000E+00 0.  1.
          1    1    1    2  501    0 -0.40573453328E+02 -0.31437004771E+02  0.74435555115E+02  0.90416493237E+02  0.00000000000E+00 0.  1.
<mgrwt>
<rscale>  2 0.51327287E+02</rscale>
<asrwt>0</asrwt>
<pdfrwt beam="1">  1       21 0.25045726E-01 0.51327287E+02</pdfrwt>
<pdfrwt beam="2">  1        1 0.24900351E-02 0.51327287E+02</pdfrwt>
<totfact> 0.60596035E+05</totfact>
</mgrwt>
</event>
<event>
 4    1  0.2260076E+006  0.2157057E+02  0.7546771E-02  0.1715786E+00
         -1   -1    0    0    0  501 -0.00000000000E+00  0.00000000000E+00  0.14007927134E+03  0.14007927134E+03  0.00000000000E+00 0. -1.
         21   -1    0    0  503  502  0.00000000000E+00 -0.00000000000E+00 -0.47006829999E+01  0.47006829999E+01  0.00000000000E+00 0. -1.
         21    1    1    2  503  501 -0.19726148917E+02 -0.87274558312E+01  0.28479842671E+02  0.35726612978E+02  0.00000000000E+00 0. -1.
         -1    1    1    2    0  502  0.19726148917E+02  0.87274558312E+01  0.10689874567E+03  0.10905334136E+03  0.00000000000E+00 0. -1.
<mgrwt>
<rscale>  2 0.21570569E+02</rscale>
<asrwt>0</asrwt>
<pdfrwt beam="2">  1       21 0.72318211E-03 0.21570569E+02</pdfrwt>
<pdfrwt beam="1">  1       -1 0.21550654E-01 0.21570569E+02</pdfrwt>
<totfact> 0.64227342E+06</totfact>
</mgrwt>
</event>
<event>
 4    1  0.2260076E+006  0.2466163E+02  0.7546771E-02  0.1665910E+00
         21   -1    0    0  501  502  0.00000000000E+00  0.00000000000E+00  0.13384319278E+02  0.13384319278E+02  0.00000000000E+00 0. -1.
          4   -1    0    0  503    0 -0.00000000000E+00 -0.00000000000E+00 -0.64700901254E+02  0.64700901254E+02  0.00000000000E+00 0.  1.
         21    1    1    2  503  502  0.55991215096E+01 -0.24017619249E+02 -0.43567382716E+01  0.25043509427E+02  0.00000000000E+00 0. -1.
          4    1    1    2  501    0 -0.55991215096E+01  0.24017619249E+02 -0.46959843705E+02  0.53041711104E+02  0.00000000000E+00 0.  1.
<mgrwt>
<rscale>  2 0.24661634E+02</rscale>
<asrwt>0</asrwt>
<pdfrwt beam="1">  1       21 0.20591260E-02 0.24661634E+02</pdfrwt>
<pdfrwt beam="2">  1        4 0.99539849E-02 0.24661634E+02</pdfrwt>
<totfact> 0.20766416E+06</totfact>
</mgrwt>
</event>
<event>
 4    1  0.2260076E+006  0.3322773E+02  0.7546771E-02  0.1564926E+00
         21   -1    0    0  501  502  0.00000000000E+00  0.00000000000E+00  0.32133316491E+01  0.32133316491E+01  0.00000000000E+00 0. -1.
          1   -1    0    0  503    0 -0.00000000000E+00 -0.00000000000E+00 -0.17781665964E+04  0.17781665964E+04  0.00000000000E+00 0.  1.
         21    1    1    2  503  502 -0.21285317565E+01  0.33159481692E+02 -0.87455274090E+02  0.93554833332E+02  0.00000000000E+00 0. -1.
          1    1    1    2  501    0  0.21285317565E+01 -0.33159481692E+02 -0.16874979907E+04  0.16878250947E+04  0.00000000000E+00 0.  1.
<mgrwt>
<rscale>  2 0.33227727E+02</rscale>
<asrwt>0</asrwt>
<pdfrwt beam="1">  1       21 0.49435943E-03 0.33227727E+02</pdfrwt>
<pdfrwt beam="2">  1        1 0.27356369E+00 0.33227727E+02</pdfrwt>
<totfact> 0.55473339E+05</totfact>
</mgrwt>
</event>
<event>
 4    1  0.2260076E+006  0.2158224E+02  0.7546771E-02  0.1715579E+00
         21   -1    0    0  503  502  0.00000000000E+00  0.00000000000E+00  0.65648152841E+02  0.65648152841E+02  0.00000000000E+00 0. -1.
          3   -1    0    0  502    0 -0.00000000000E+00 -0.00000000000E+00 -0.18067853029E+02  0.18067853029E+02  0.00000000000E+00 0.  1.
         21    1    1    2  503  501 -0.13924569042E+02 -0.16489375396E+02  0.56409788012E+02  0.60397494215E+02  0.00000000000E+00 0. -1.
          3    1    1    2  501    0  0.13924569042E+02  0.16489375396E+02 -0.88294881995E+01  0.23318511655E+02  0.00000000000E+00 0.  1.
<mgrwt>
<rscale>  2 0.21582241E+02</rscale>
<asrwt>0</asrwt>
<pdfrwt beam="1">  1       21 0.10099716E-01 0.21582241E+02</pdfrwt>
<pdfrwt beam="2">  1        3 0.27796697E-02 0.21582241E+02</pdfrwt>
<totfact> 0.13215166E+06</totfact>
</mgrwt>
</event>
<event>
 4    1  0.2260076E+006  0.2175833E+02  0.7546771E-02  0.1712465E+00
         21   -1    0    0  501  502  0.00000000000E+00  0.00000000000E+00  0.41287030181E+00  0.41287030181E+00  0.00000000000E+00 0. -1.
          2   -1    0    0  503    0 -0.00000000000E+00 -0.00000000000E+00 -0.18926845462E+04  0.18926845462E+04  0.00000000000E+00 0.  1.
         21    1    1    2  503  502 -0.82984704937E+00 -0.21742498801E+02 -0.35187342164E+03  0.35254550026E+03  0.00000000000E+00 0. -1.
          2    1    1    2  501    0  0.82984704937E+00  0.21742498801E+02 -0.15403982543E+04  0.15405519163E+04  0.00000000000E+00 0.  1.
<mgrwt>
<rscale>  2 0.21758329E+02</rscale>
<asrwt>0</asrwt>
<pdfrwt beam="1">  1       21 0.63519226E-04 0.21758329E+02</pdfrwt>
<pdfrwt beam="2">  1        2 0.29117895E+00 0.21758329E+02</pdfrwt>
<totfact> 0.20268913E+07</totfact>
</mgrwt>
</event>
<event>
 4    1  0.2260076E+006  0.3225253E+02  0.7546771E-02  0.1574446E+00
          2   -1    0    0  502    0 -0.00000000000E+00  0.00000000000E+00  0.12818959296E+04  0.12818959296E+04  0.00000000000E+00 0.  1.
         21   -1    0    0  503  502  0.00000000000E+00 -0.00000000000E+00 -0.43745854191E+01  0.43745854191E+01  0.00000000000E+00 0. -1.
         21    1    1    2  503  501  0.30530036836E+02  0.10399164259E+02  0.58332419563E+02  0.66655059362E+02  0.00000000000E+00 0. -1.
          2    1    1    2  501    0 -0.30530036836E+02 -0.10399164259E+02  0.12191889246E+04  0.12196154557E+04  0.00000000000E+00 0.  1.
<mgrwt>
<rscale>  2 0.32252531E+02</rscale>
<asrwt>0</asrwt>
<pdfrwt beam="2">  1       21 0.67301416E-03 0.32252531E+02</pdfrwt>
<pdfrwt beam="1">  1        2 0.19721446E+00 0.32252531E+02</pdfrwt>
<totfact> 0.13785530E+06</totfact>
</mgrwt>
</event>
<event>
 4    1  0.2260076E+006  0.2460861E+02  0.7546771E-02  0.1666688E+00
         21   -1    0    0  501  502  0.00000000000E+00  0.00000000000E+00  0.62763775929E+00  0.62763775929E+00  0.00000000000E+00 0.  1.
          2   -1    0    0  503    0 -0.00000000000E+00 -0.00000000000E+00 -0.17167920798E+04  0.17167920798E+04  0.00000000000E+00 0.  1.
         21    1    1    2  503  502  0.19751909811E+02  0.14678070138E+02 -0.28978387520E+03  0.29082688667E+03  0.00000000000E+00 0.  1.
          2    1    1    2  501    0 -0.19751909811E+02 -0.14678070138E+02 -0.14263805668E+04  0.14265928309E+04  0.00000000000E+00 0.  1.
<mgrwt>
<rscale>  2 0.24608610E+02</rscale>
<asrwt>0</asrwt>
<pdfrwt beam="1">  1       21 0.96560253E-04 0.24608610E+02</pdfrwt>
<pdfrwt beam="2">  1        2 0.26412022E+00 0.24608610E+02</pdfrwt>
<totfact> 0.13890669E+07</totfact>
</mgrwt>
</event>
<event>
 4    1  0.2260076E+006  0.2169218E+02  0.7546771E-02  0.1713631E+00
          4   -1    0    0  503    0 -0.00000000000E+00  0.00000000000E+00  0.24249799849E+02  0.24249799849E+02  0.00000000000E+00 0. -1.
         21   -1    0    0  501  502  0.00000000000E+00 -0.00000000000E+00 -0.27864935323E+02  0.27864935323E+02  0.00000000000E+00 0.  1.
         21    1    1    2  503  502 -0.21297771145E+02 -0.41177070490E+01 -0.16165861079E+02  0.27053384844E+02  0.00000000000E+00 0.  1.
          4    1    1    2  501    0  0.21297771145E+02  0.41177070490E+01  0.12550725605E+02  0.25061350329E+02  0.00000000000E+00 0. -1.
<mgrwt>
<rscale>  2 0.21692178E+02</rscale>
<asrwt>0</asrwt>
<pdfrwt beam="2">  1       21 0.42869131E-02 0.21692178E+02</pdfrwt>
<pdfrwt beam="1">  1        4 0.37307384E-02 0.21692178E+02</pdfrwt>
<totfact> 0.28750044E+06</totfact>
</mgrwt>
</event>
<event>
 4    1  0.2260076E+006  0.2096752E+02  0.7546771E-02  0.1726745E+00
         -2   -1    0    0    0  501 -0.00000000000E+00  0.00000000000E+00  0.18677349104E+03  0.18677349104E+03  0.00000000000E+00 0.  1.
         21   -1    0    0  501  502  0.00000000000E+00 -0.00000000000E+00 -0.37295385072E+03  0.37295385072E+03  0.00000000000E+00 0. -1.
         21    1    1    2  503  502 -0.20015698717E+02  0.62456955500E+01 -0.37206929088E+03  0.37265962234E+03  0.00000000000E+00 0. -1.
         -2    1    1    2    0  503  0.20015698717E+02 -0.62456955500E+01  0.18588893120E+03  0.18706771942E+03  0.00000000000E+00 0.  1.
<mgrwt>
<rscale>  2 0.20967520E+02</rscale>
<asrwt>0</asrwt>
<pdfrwt beam="2">  1       21 0.57377515E-01 0.20967520E+02</pdfrwt>
<pdfrwt beam="1">  1       -2 0.28734383E-01 0.20967520E+02</pdfrwt>
<totfact> 0.26874903E+03</totfact>
</mgrwt>
</event>
<event>
 4    1  0.2260076E+006  0.2853393E+02  0.7546771E-02  0.1614883E+00
         21   -1    0    0  503  502  0.00000000000E+00  0.00000000000E+00  0.18776512970E+02  0.18776512970E+02  0.00000000000E+00 0.  1.
          1   -1    0    0  502    0 -0.00000000000E+00 -0.00000000000E+00 -0.61785602941E+03  0.61785602941E+03  0.00000000000E+00 0. -1.
         21    1    1    2  503  501  0.26847081483E+02  0.96653565186E+01  0.74034296642E+01  0.29478732530E+02  0.00000000000E+00 0.  1.
          1    1    1    2  501    0 -0.26847081483E+02 -0.96653565186E+01 -0.60648294611E+03  0.60715380985E+03  0.00000000000E+00 0. -1.
<mgrwt>
<rscale>  2 0.28533925E+02</rscale>
<asrwt>0</asrwt>
<pdfrwt beam="1">  1       21 0.28886943E-02 0.28533925E+02</pdfrwt>
<pdfrwt beam="2">  1        1 0.95054775E-01 0.28533925E+02</pdfrwt>
<totfact> 0.22213115E+05</totfact>
</mgrwt>
</event>
<event>
 4    1  0.2260076E+006  0.3105233E+02  0.7546771E-02  0.1586740E+00
         21   -1    0    0  503  502  0.00000000000E+00  0.00000000000E+00  0.10855436096E+02  0.10855436096E+02  0.00000000000E+00 0. -1.
         -4   -1    0    0    0  501 -0.00000000000E+00 -0.00000000000E+00 -0.34045254721E+03  0.34045254721E+03  0.00000000000E+00 0.  1.
         21    1    1    2  503  501  0.30905478586E+02 -0.30163666331E+01 -0.13787831096E+02  0.33975746653E+02  0.00000000000E+00 0. -1.
         -4    1    1    2    0  502 -0.30905478586E+02  0.30163666331E+01 -0.31580928002E+03  0.31733223666E+03  0.00000000000E+00 0.  1.
<mgrwt>
<rscale>  2 0.31052328E+02</rscale>
<asrwt>0</asrwt>
<pdfrwt beam="1">  1       21 0.16700670E-02 0.31052328E+02</pdfrwt>
<pdfrwt beam="2">  1       -4 0.52377317E-01 0.31052328E+02</pdfrwt>
<totfact> 0.16605434E+05</totfact>
</mgrwt>
</event>
<event>
 4    1  0.2260076E+006  0.3317496E+02  0.7546771E-02  0.1565431E+00
          2   -1    0    0  502    0 -0.00000000000E+00  0.00000000000E+00  0.50108203886E+01  0.50108203886E+01  0.00000000000E+00 0.  1.
         21   -1    0    0  503  502  0.00000000000E+00 -0.00000000000E+00 -0.45941772079E+03  0.45941772079E+03  0.00000000000E+00 0. -1.
         21    1    1    2  503  501 -0.26432447417E+02 -0.20047543078E+02 -0.39496373168E+03  0.39635454785E+03  0.00000000000E+00 0. -1.
          2    1    1    2  501    0  0.26432447417E+02  0.20047543078E+02 -0.59443168721E+02  0.68073993327E+02  0.00000000000E+00 0.  1.
<mgrwt>
<rscale>  2 0.33174964E+02</rscale>
<asrwt>0</asrwt>
<pdfrwt beam="2">  1       21 0.70679664E-01 0.33174964E+02</pdfrwt>
<pdfrwt beam="1">  1        2 0.77089529E-03 0.33174964E+02</pdfrwt>
<totfact> 0.37116327E+05</totfact>
</mgrwt>
</event>
<event>
 4    1  0.2260076E+006  0.3875129E+02  0.7546771E-02  0.1517607E+00
         -1   -1    0    0    0  501 -0.00000000000E+00  0.00000000000E+00  0.73284153940E+03  0.73284153940E+03  0.00000000000E+00 0.  1.
         21   -1    0    0  503  502  0.00000000000E+00 -0.00000000000E+00 -0.86406864451E+01  0.86406864451E+01  0.00000000000E+00 0.  1.
         21    1    1    2  503  501  0.35864513561E+02  0.14676489633E+02  0.38289325244E+02  0.54476922716E+02  0.00000000000E+00 0.  1.
         -1    1    1    2    0  502 -0.35864513561E+02 -0.14676489633E+02  0.68591152771E+03  0.68700530313E+03  0.00000000000E+00 0.  1.
<mgrwt>
<rscale>  2 0.38751293E+02</rscale>
<asrwt>0</asrwt>
<pdfrwt beam="2">  1       21 0.13293370E-02 0.38751293E+02</pdfrwt>
<pdfrwt beam="1">  1       -1 0.11274480E+00 0.38751293E+02</pdfrwt>
<totfact> 0.15157691E+05</totfact>
</mgrwt>
</event>
<event>
 4    1  0.2260076E+006  0.2365162E+02  0.7546771E-02  0.1681160E+00
          3   -1    0    0  503    0 -0.00000000000E+00  0.00000000000E+00  0.11506100136E+01  0.11506100136E+01  0.00000000000E+00 0.  1.
         21   -1    0    0  501  502  0.00000000000E+00 -0.00000000000E+00 -0.80337706193E+03  0.80337706193E+03  0.00000000000E+00 0.  1.
         21    1    1    2  503  502  0.17147995904E+02  0.16289422961E+02 -0.65387915838E+03  0.65430677272E+03  0.00000000000E+00 0.  1.
          3    1    1    2  501    0 -0.17147995904E+02 -0.16289422961E+02 -0.14834729354E+03  0.15022089923E+03  0.00000000000E+00 0.  1.
<mgrwt>
<rscale>  2 0.23651619E+02</rscale>
<asrwt>0</asrwt>
<pdfrwt beam="2">  1       21 0.12359618E+00 0.23651619E+02</pdfrwt>
<pdfrwt beam="1">  1        3 0.17701734E-03 0.23651619E+02</pdfrwt>
<totfact> 0.59765015E+05</totfact>
</mgrwt>
</event>
<event>
 4    1  0.2260076E+006  0.2390063E+02  0.7546771E-02  0.1677314E+00
          2   -1    0    0  503    0 -0.00000000000E+00  0.00000000000E+00  0.31378089687E+02  0.31378089687E+02  0.00000000000E+00 0. -1.
         21   -1    0    0  501  502  0.00000000000E+00 -0.00000000000E+00 -0.27749103898E+02  0.27749103898E+02  0.00000000000E+00 0. -1.
         21    1    1    2  503  502 -0.21477747926E+02 -0.10485529967E+02 -0.15523507594E+02  0.28499461095E+02  0.00000000000E+00 0. -1.
          2    1    1    2  501    0  0.21477747926E+02  0.10485529967E+02  0.19152493383E+02  0.30627732490E+02  0.00000000000E+00 0. -1.
<mgrwt>
<rscale>  2 0.23900627E+02</rscale>
<asrwt>0</asrwt>
<pdfrwt beam="2">  1       21 0.42690929E-02 0.23900627E+02</pdfrwt>
<pdfrwt beam="1">  1        2 0.48273984E-02 0.23900627E+02</pdfrwt>
<totfact> 0.46702689E+06</totfact>
</mgrwt>
</event>
<event>
 4    1  0.2260076E+006  0.2746273E+02  0.7546771E-02  0.1627956E+00
         21   -1    0    0  503  502  0.00000000000E+00  0.00000000000E+00  0.30803972013E+02  0.30803972013E+02  0.00000000000E+00 0. -1.
          3   -1    0    0  502    0 -0.00000000000E+00 -0.00000000000E+00 -0.93473632512E+02  0.93473632512E+02  0.00000000000E+00 0.  1.
         21    1    1    2  503  501  0.24878618429E+02  0.11629966882E+02  0.22049095276E+02  0.35218807292E+02  0.00000000000E+00 0. -1.
          3    1    1    2  501    0 -0.24878618429E+02 -0.11629966882E+02 -0.84718755774E+02  0.89058797233E+02  0.00000000000E+00 0.  1.
<mgrwt>
<rscale>  2 0.27462734E+02</rscale>
<asrwt>0</asrwt>
<pdfrwt beam="1">  1       21 0.47390727E-02 0.27462734E+02</pdfrwt>
<pdfrwt beam="2">  1        3 0.14380559E-01 0.27462734E+02</pdfrwt>
<totfact> 0.39233334E+05</totfact>
</mgrwt>
</event>
<event>
 4    1  0.2260076E+006  0.2316092E+02  0.7546771E-02  0.1688915E+00
         21   -1    0    0  503  502  0.00000000000E+00  0.00000000000E+00  0.69236717736E+01  0.69236717736E+01  0.00000000000E+00 0. -1.
          2   -1    0    0  502    0 -0.00000000000E+00 -0.00000000000E+00 -0.37664284175E+03  0.37664284175E+03  0.00000000000E+00 0.  1.
         21    1    1    2  503  501  0.14684864312E+02  0.17910420575E+02 -0.13936190481E+02  0.27030460784E+02  0.00000000000E+00 0. -1.
          2    1    1    2  501    0 -0.14684864312E+02 -0.17910420575E+02 -0.35578297949E+03  0.35653605274E+03  0.00000000000E+00 0.  1.
<mgrwt>
<rscale>  2 0.23160924E+02</rscale>
<asrwt>0</asrwt>
<pdfrwt beam="1">  1       21 0.10651799E-02 0.23160924E+02</pdfrwt>
<pdfrwt beam="2">  1        2 0.57945075E-01 0.23160924E+02</pdfrwt>
<totfact> 0.26206479E+06</totfact>
</mgrwt>
</event>
<event>
 4    1  0.2260076E+006  0.4842908E+02  0.7546771E-02  0.1454004E+00
          2   -1    0    0  502    0 -0.00000000000E+00  0.00000000000E+00  0.81788994276E+03  0.81788994276E+03  0.00000000000E+00 0.  1.
         21   -1    0    0  503  502  0.00000000000E+00 -0.00000000000E+00 -0.31079395264E+01  0.31079395264E+01  0.00000000000E+00 0. -1.
         21    1    1    2  503  501  0.26728615009E+02  0.40385105797E+02  0.29323611318E+03  0.29720833384E+03  0.00000000000E+00 0. -1.
          2    1    1    2  501    0 -0.26728615009E+02 -0.40385105797E+02  0.52154589006E+03  0.52378954846E+03  0.00000000000E+00 0.  1.
<mgrwt>
<rscale>  2 0.48429078E+02</rscale>
<asrwt>0</asrwt>
<pdfrwt beam="2">  1       21 0.47814519E-03 0.48429078E+02</pdfrwt>
<pdfrwt beam="1">  1        2 0.12582905E+00 0.48429078E+02</pdfrwt>
<totfact> 0.44262218E+06</totfact>
</mgrwt>
</event>
<event>
 4    1  0.2260076E+006  0.3740858E+02  0.7546771E-02  0.1528196E+00
         21   -1    0    0  503  502  0.00000000000E+00  0.00000000000E+00  0.12209717254E+04  0.12209717254E+04  0.00000000000E+00 0. -1.
          4   -1    0    0  502    0 -0.00000000000E+00 -0.00000000000E+00 -0.17193495327E+02  0.17193495327E+02  0.00000000000E+00 0. -1.
         21    1    1    2  503  501 -0.21279341158E+02 -0.30766722042E+02  0.11999815171E+04  0.12005644684E+04  0.00000000000E+00 0. -1.
          4    1    1    2  501    0  0.21279341158E+02  0.30766722042E+02  0.37967130273E+01  0.37600752321E+02  0.00000000000E+00 0. -1.
<mgrwt>
<rscale>  2 0.37408576E+02</rscale>
<asrwt>0</asrwt>
<pdfrwt beam="1">  1       21 0.18784174E+00 0.37408576E+02</pdfrwt>
<pdfrwt beam="2">  1        4 0.26451541E-02 0.37408576E+02</pdfrwt>
<totfact> 0.42157314E+03</totfact>
</mgrwt>
</event>
<event>
 4    1  0.2260076E+006  0.2238429E+02  0.7546771E-02  0.1701689E+00
          1   -1    0    0  502    0 -0.00000000000E+00  0.00000000000E+00  0.16173475196E+03  0.16173475196E+03  0.00000000000E+00 0.  1.
         21   -1    0    0  503  502  0.00000000000E+00 -0.00000000000E+00 -0.46714949501E+01  0.46714949501E+01  0.00000000000E+00 0.  1.
         21    1    1    2  503  501 -0.18876869736E+02 -0.12029972881E+02  0.30243264675E+02  0.37625942071E+02  0.00000000000E+00 0.  1.
          1    1    1    2  501    0  0.18876869736E+02  0.12029972881E+02  0.12681999233E+03  0.12878030484E+03  0.00000000000E+00 0.  1.
<mgrwt>
<rscale>  2 0.22384290E+02</rscale>
<asrwt>0</asrwt>
<pdfrwt beam="2">  1       21 0.71869165E-03 0.22384290E+02</pdfrwt>
<pdfrwt beam="1">  1        1 0.24882265E-01 0.22384290E+02</pdfrwt>
<totfact> 0.85862566E+06</totfact>
</mgrwt>
</event>
<event>
 4    1  0.2260076E+006  0.2172835E+02  0.7546771E-02  0.1712993E+00
         -4   -1    0    0    0  501 -0.00000000000E+00  0.00000000000E+00  0.40946718360E+02  0.40946718360E+02  0.00000000000E+00 0. -1.
         21   -1    0    0  503  502  0.00000000000E+00 -0.00000000000E+00 -0.12481747436E+02  0.12481747436E+02  0.00000000000E+00 0. -1.
         21    1    1    2  503  501 -0.12684910822E+02  0.17641266890E+02  0.68562515646E+01  0.22784412337E+02  0.00000000000E+00 0. -1.
         -4    1    1    2    0  502  0.12684910822E+02 -0.17641266890E+02  0.21608719359E+02  0.30644053459E+02  0.00000000000E+00 0. -1.
<mgrwt>
<rscale>  2 0.21728352E+02</rscale>
<asrwt>0</asrwt>
<pdfrwt beam="2">  1       21 0.19202689E-02 0.21728352E+02</pdfrwt>
<pdfrwt beam="1">  1       -4 0.62994951E-02 0.21728352E+02</pdfrwt>
<totfact> 0.44912422E+06</totfact>
</mgrwt>
</event>
<event>
 4    1  0.2260076E+006  0.2276553E+02  0.7546771E-02  0.1695339E+00
         -2   -1    0    0    0  501 -0.00000000000E+00  0.00000000000E+00  0.53411672753E+02  0.53411672753E+02  0.00000000000E+00 0.  1.
         21   -1    0    0  503  502  0.00000000000E+00 -0.00000000000E+00 -0.13530103564E+03  0.13530103564E+03  0.00000000000E+00 0. -1.
         21    1    1    2  503  501  0.10667135213E+02 -0.20111724225E+02 -0.13185464942E+03  0.13380552231E+03  0.00000000000E+00 0. -1.
         -2    1    1    2    0  502 -0.10667135213E+02  0.20111724225E+02  0.49965286538E+02  0.54907186085E+02  0.00000000000E+00 0.  1.
<mgrwt>
<rscale>  2 0.22765527E+02</rscale>
<asrwt>0</asrwt>
<pdfrwt beam="2">  1       21 0.20815544E-01 0.22765527E+02</pdfrwt>
<pdfrwt beam="1">  1       -2 0.82171805E-02 0.22765527E+02</pdfrwt>
<totfact> 0.12507292E+05</totfact>
</mgrwt>
</event>
<event>
 4    1  0.2260076E+006  0.2684840E+02  0.7546771E-02  0.1635789E+00
         21   -1    0    0  503  502  0.00000000000E+00  0.00000000000E+00  0.16360659122E+03  0.16360659122E+03  0.00000000000E+00 0.  1.
          3   -1    0    0  502    0 -0.00000000000E+00 -0.00000000000E+00 -0.11903126222E+02  0.11903126222E+02  0.00000000000E+00 0. -1.
         21    1    1    2  503  501  0.36464396620E+01 -0.26599621265E+02  0.14549683614E+03  0.14795325512E+03  0.00000000000E+00 0.  1.
          3    1    1    2  501    0 -0.36464396620E+01  0.26599621265E+02  0.62066288515E+01  0.27556462316E+02  0.00000000000E+00 0. -1.
<mgrwt>
<rscale>  2 0.26848396E+02</rscale>
<asrwt>0</asrwt>
<pdfrwt beam="1">  1       21 0.25170243E-01 0.26848396E+02</pdfrwt>
<pdfrwt beam="2">  1        3 0.18312503E-02 0.26848396E+02</pdfrwt>
<totfact> 0.54458478E+05</totfact>
</mgrwt>
</event>
<event>
 4    1  0.2260076E+006  0.2001164E+02  0.7546771E-02  0.1745097E+00
         21   -1    0    0  501  502  0.00000000000E+00  0.00000000000E+00  0.58489355288E+02  0.58489355288E+02  0.00000000000E+00 0.  1.
          2   -1    0    0  503    0 -0.00000000000E+00 -0.00000000000E+00 -0.51091173995E+02  0.51091173995E+02  0.00000000000E+00 0.  1.
         21    1    1    2  503  502  0.32170463771E+01 -0.19751364869E+02  0.54686084865E+02  0.58232582627E+02  0.00000000000E+00 0.  1.
          2    1    1    2  501    0 -0.32170463771E+01  0.19751364869E+02 -0.47287903571E+02  0.51347946656E+02  0.00000000000E+00 0.  1.
<mgrwt>
<rscale>  2 0.20011642E+02</rscale>
<asrwt>0</asrwt>
<pdfrwt beam="1">  1       21 0.89983623E-02 0.20011642E+02</pdfrwt>
<pdfrwt beam="2">  1        2 0.78601806E-02 0.20011642E+02</pdfrwt>
<totfact> 0.75190619E+05</totfact>
</mgrwt>
</event>
<event>
 4    1  0.2260076E+006  0.2032804E+02  0.7546771E-02  0.1738882E+00
          2   -1    0    0  502    0 -0.00000000000E+00  0.00000000000E+00  0.84211312394E+03  0.84211312394E+03  0.00000000000E+00 0. -1.
         21   -1    0    0  503  502  0.00000000000E+00 -0.00000000000E+00 -0.20381049152E+01  0.20381049152E+01  0.00000000000E+00 0. -1.
         21    1    1    2  503  501 -0.81093127611E+00  0.20311862134E+02  0.52265867478E+02  0.56079856063E+02  0.00000000000E+00 0. -1.
          2    1    1    2  501    0  0.81093127611E+00 -0.20311862134E+02  0.78780915155E+03  0.78807137280E+03  0.00000000000E+00 0. -1.
<mgrwt>
<rscale>  2 0.20328044E+02</rscale>
<asrwt>0</asrwt>
<pdfrwt beam="2">  1       21 0.31355527E-03 0.20328044E+02</pdfrwt>
<pdfrwt beam="1">  1        2 0.12955559E+00 0.20328044E+02</pdfrwt>
<totfact> 0.67049281E+06</totfact>
</mgrwt>
</event>
<event>
 4    1  0.2260076E+006  0.2337239E+02  0.7546771E-02  0.1685544E+00
         21   -1    0    0  501  502  0.00000000000E+00  0.00000000000E+00  0.75444970911E+03  0.75444970911E+03  0.00000000000E+00 0.  1.
         -1   -1    0    0    0  501 -0.00000000000E+00 -0.00000000000E+00 -0.49373097126E+01  0.49373097126E+01  0.00000000000E+00 0.  1.
         21    1    1    2  503  502  0.19399332013E+02 -0.13035888148E+02  0.72550522916E+03  0.72588160605E+03  0.00000000000E+00 0.  1.
         -1    1    1    2    0  503 -0.19399332013E+02  0.13035888148E+02  0.24007170242E+02  0.33505412778E+02  0.00000000000E+00 0.  1.
<mgrwt>
<rscale>  2 0.23372387E+02</rscale>
<asrwt>0</asrwt>
<pdfrwt beam="1">  1       21 0.11606909E+00 0.23372387E+02</pdfrwt>
<pdfrwt beam="2">  1       -1 0.75958671E-03 0.23372387E+02</pdfrwt>
<totfact> 0.11864486E+05</totfact>
</mgrwt>
</event>
<event>
 4    1  0.2260076E+006  0.2111492E+02  0.7546771E-02  0.1724024E+00
         21   -1    0    0  503  502  0.00000000000E+00  0.00000000000E+00  0.17205272737E+02  0.17205272737E+02  0.00000000000E+00 0. -1.
          1   -1    0    0  502    0 -0.00000000000E+00 -0.00000000000E+00 -0.10930806522E+03  0.10930806522E+03  0.00000000000E+00 0.  1.
         21    1    1    2  503  501 -0.17270995727E+01  0.21044168034E+02  0.92009143695E+01  0.23032514114E+02  0.00000000000E+00 0. -1.
          1    1    1    2  501    0  0.17270995727E+01 -0.21044168034E+02 -0.10130370685E+03  0.10348082384E+03  0.00000000000E+00 0.  1.
<mgrwt>
<rscale>  2 0.21114921E+02</rscale>
<asrwt>0</asrwt>
<pdfrwt beam="1">  1       21 0.26469651E-02 0.21114921E+02</pdfrwt>
<pdfrwt beam="2">  1        1 0.16816625E-01 0.21114921E+02</pdfrwt>
<totfact> 0.18692928E+06</totfact>
</mgrwt>
</event>
<event>
 4    1  0.2260076E+006  0.3030188E+02  0.7546771E-02  0.1594776E+00
         -1   -1    0    0    0  501 -0.00000000000E+00  0.00000000000E+00  0.10850337414E+02  0.10850337414E+02  0.00000000000E+00 0. -1.
         21   -1    0    0  501  502  0.00000000000E+00 -0.00000000000E+00 -0.13542675749E+03  0.13542675749E+03  0.00000000000E+00 0. -1.
         21    1    1    2  503  502 -0.26193269887E+02 -0.15235362541E+02 -0.10708386386E+03  0.11128862277E+03  0.00000000000E+00 0. -1.
         -1    1    1    2    0  503  0.26193269887E+02  0.15235362541E+02 -0.17492556214E+02  0.34988472131E+02  0.00000000000E+00 0. -1.
<mgrwt>
<rscale>  2 0.30301876E+02</rscale>
<asrwt>0</asrwt>
<pdfrwt beam="2">  1       21 0.20834885E-01 0.30301876E+02</pdfrwt>
<pdfrwt beam="1">  1       -1 0.16692827E-02 0.30301876E+02</pdfrwt>
<totfact> 0.12599295E+06</totfact>
</mgrwt>
</event>
<event>
 4    1  0.2260076E+006  0.2297564E+02  0.7546771E-02  0.1691905E+00
         21   -1    0    0  503  502  0.00000000000E+00  0.00000000000E+00  0.17247774346E+01  0.17247774346E+01  0.00000000000E+00 0.  1.
          2   -1    0    0  502    0 -0.00000000000E+00 -0.00000000000E+00 -0.59884506797E+03  0.59884506797E+03  0.00000000000E+00 0.  1.
         21    1    1    2  503  501  0.18936767818E+02  0.13010712367E+02 -0.88592128894E+02  0.91522921248E+02  0.00000000000E+00 0.  1.
          2    1    1    2  501    0 -0.18936767818E+02 -0.13010712367E+02 -0.50852816164E+03  0.50904692416E+03  0.00000000000E+00 0.  1.
<mgrwt>
<rscale>  2 0.22975635E+02</rscale>
<asrwt>0</asrwt>
<pdfrwt beam="1">  1       21 0.26535039E-03 0.22975635E+02</pdfrwt>
<pdfrwt beam="2">  1        2 0.92130004E-01 0.22975635E+02</pdfrwt>
<totfact> 0.12785425E+07</totfact>
</mgrwt>
</event>
<event>
 4    1  0.2260076E+006  0.2142143E+02  0.7546771E-02  0.1718454E+00
          1   -1    0    0  503    0 -0.00000000000E+00  0.00000000000E+00  0.39805244718E+03  0.39805244718E+03  0.00000000000E+00 0. -1.
         21   -1    0    0  501  502  0.00000000000E+00 -0.00000000000E+00 -0.17545578201E+01  0.17545578201E+01  0.00000000000E+00 0. -1.
         21    1    1    2  503  502  0.60052946754E+01 -0.20562448856E+02  0.81079190229E+02  0.83861272083E+02  0.00000000000E+00 0. -1.
          1    1    1    2  501    0 -0.60052946754E+01  0.20562448856E+02  0.31521869913E+03  0.31594573292E+03  0.00000000000E+00 0. -1.
<mgrwt>
<rscale>  2 0.21421435E+02</rscale>
<asrwt>0</asrwt>
<pdfrwt beam="2">  1       21 0.26993229E-03 0.21421435E+02</pdfrwt>
<pdfrwt beam="1">  1        1 0.61238766E-01 0.21421435E+02</pdfrwt>
<totfact> 0.12595649E+07</totfact>
</mgrwt>
</event>
<event>
 4    1  0.2260076E+006  0.2126462E+02  0.7546771E-02  0.1721289E+00
         -2   -1    0    0    0  501 -0.00000000000E+00  0.00000000000E+00  0.11173424172E+03  0.11173424172E+03  0.00000000000E+00 0.  1.
         21   -1    0    0  501  502  0.00000000000E+00 -0.00000000000E+00 -0.81319695768E+01  0.81319695768E+01  0.00000000000E+00 0.  1.
         21    1    1    2  503  502  0.20991476474E+02 -0.33973644742E+01  0.93230077883E+01  0.23218584025E+02  0.00000000000E+00 0.  1.
         -2    1    1    2    0  503 -0.20991476474E+02  0.33973644742E+01  0.94279264354E+02  0.96647627270E+02  0.00000000000E+00 0.  1.
<mgrwt>
<rscale>  2 0.21264622E+02</rscale>
<asrwt>0</asrwt>
<pdfrwt beam="2">  1       21 0.12510723E-02 0.21264622E+02</pdfrwt>
<pdfrwt beam="1">  1       -2 0.17189882E-01 0.21264622E+02</pdfrwt>
<totfact> 0.36510673E+06</totfact>
</mgrwt>
</event>
<event>
 4    1  0.2260076E+006  0.2097689E+02  0.7546771E-02  0.1726571E+00
          2   -1    0    0  503    0 -0.00000000000E+00  0.00000000000E+00  0.22458344579E+02  0.22458344579E+02  0.00000000000E+00 0. -1.
         21   -1    0    0  501  502  0.00000000000E+00 -0.00000000000E+00 -0.65624149981E+02  0.65624149981E+02  0.00000000000E+00 0. -1.
         21    1    1    2  503  502 -0.17780838686E+02 -0.11129760028E+02 -0.58468171685E+02  0.62117283286E+02  0.00000000000E+00 0. -1.
          2    1    1    2  501    0  0.17780838686E+02  0.11129760028E+02  0.15302366283E+02  0.25965211274E+02  0.00000000000E+00 0. -1.
<mgrwt>
<rscale>  2 0.20976887E+02</rscale>
<asrwt>0</asrwt>
<pdfrwt beam="2">  1       21 0.10096023E-01 0.20976887E+02</pdfrwt>
<pdfrwt beam="1">  1        2 0.34551300E-02 0.20976887E+02</pdfrwt>
<totfact> 0.17035766E+06</totfact>
</mgrwt>
</event>
<event>
 4    1  0.2260076E+006  0.4375363E+02  0.7546771E-02  0.1482276E+00
         21   -1    0    0  503  502  0.00000000000E+00  0.00000000000E+00  0.24483456030E+02  0.24483456030E+02  0.00000000000E+00 0.  1.
         -3   -1    0    0    0  501 -0.00000000000E+00 -0.00000000000E+00 -0.16388203020E+03  0.16388203020E+03  0.00000000000E+00 0. -1.
         21    1    1    2  503  501 -0.43582177817E+02 -0.38696476480E+01 -0.15950832277E+01  0.43782698486E+02  0.00000000000E+00 0.  1.
         -3    1    1    2    0  502  0.43582177817E+02  0.38696476480E+01 -0.13780349094E+03  0.14458278774E+03  0.00000000000E+00 0. -1.
<mgrwt>
<rscale>  2 0.43753633E+02</rscale>
<asrwt>0</asrwt>
<pdfrwt beam="1">  1       21 0.37666855E-02 0.43753633E+02</pdfrwt>
<pdfrwt beam="2">  1       -3 0.25212620E-01 0.43753633E+02</pdfrwt>
<totfact> 0.24739646E+05</totfact>
</mgrwt>
</event>
<event>
 4    1  0.2260076E+006  0.2333081E+02  0.7546771E-02  0.1686203E+00
          1   -1    0    0  503    0 -0.00000000000E+00  0.00000000000E+00  0.23205479941E+03  0.23205479941E+03  0.00000000000E+00 0. -1.
         21   -1    0    0  501  502  0.00000000000E+00 -0.00000000000E+00 -0.14017052498E+02  0.14017052498E+02  0.00000000000E+00 0.  1.
         21    1    1    2  503  502 -0.23028164093E+02 -0.37457346628E+01 -0.32513304933E+01  0.23556273467E+02  0.00000000000E+00 0.  1.
          1    1    1    2  501    0  0.23028164093E+02  0.37457346628E+01  0.22128907740E+03  0.22251557844E+03  0.00000000000E+00 0. -1.
<mgrwt>
<rscale>  2 0.23330814E+02</rscale>
<asrwt>0</asrwt>
<pdfrwt beam="2">  1       21 0.21564698E-02 0.23330814E+02</pdfrwt>
<pdfrwt beam="1">  1        1 0.35700735E-01 0.23330814E+02</pdfrwt>
<totfact> 0.10824164E+06</totfact>
</mgrwt>
</event>
<event>
 4    1  0.2260076E+006  0.4407570E+02  0.7546771E-02  0.1480196E+00
          3   -1    0    0  503    0 -0.00000000000E+00  0.00000000000E+00  0.98501963724E+03  0.98501963724E+03  0.00000000000E+00 0. -1.
         21   -1    0    0  501  502  0.00000000000E+00 -0.00000000000E+00 -0.10854559610E+02  0.10854559610E+02  0.00000000000E+00 0. -1.
         21    1    1    2  503  502 -0.37976756471E+02 -0.22370364869E+02  0.36647392419E+02  0.57321013839E+02  0.00000000000E+00 0. -1.
          3    1    1    2  501    0  0.37976756471E+02  0.22370364869E+02  0.93751768521E+03  0.93855318301E+03  0.00000000000E+00 0. -1.
<mgrwt>
<rscale>  2 0.44075699E+02</rscale>
<asrwt>0</asrwt>
<pdfrwt beam="2">  1       21 0.16699330E-02 0.44075699E+02</pdfrwt>
<pdfrwt beam="1">  1        3 0.15154141E+00 0.44075699E+02</pdfrwt>
<totfact> 0.23385099E+04</totfact>
</mgrwt>
</event>
<event>
 4    1  0.2260076E+006  0.3095976E+02  0.7546771E-02  0.1587716E+00
          3   -1    0    0  503    0 -0.00000000000E+00  0.00000000000E+00  0.22736305112E+02  0.22736305112E+02  0.00000000000E+00 0.  1.
         21   -1    0    0  501  502  0.00000000000E+00 -0.00000000000E+00 -0.74512864680E+02  0.74512864680E+02  0.00000000000E+00 0. -1.
         21    1    1    2  503  502 -0.24503654698E+02 -0.18922935883E+02 -0.57929805392E+02  0.65683856074E+02  0.00000000000E+00 0. -1.
          3    1    1    2  501    0  0.24503654698E+02  0.18922935883E+02  0.61532458244E+01  0.31565313719E+02  0.00000000000E+00 0.  1.
<mgrwt>
<rscale>  2 0.30959758E+02</rscale>
<asrwt>0</asrwt>
<pdfrwt beam="2">  1       21 0.11463518E-01 0.30959758E+02</pdfrwt>
<pdfrwt beam="1">  1        3 0.34978931E-02 0.30959758E+02</pdfrwt>
<totfact> 0.85745092E+05</totfact>
</mgrwt>
</event>
<event>
 4    1  0.2260076E+006  0.2043224E+02  0.7546771E-02  0.1736867E+00
         21   -1    0    0  501  502  0.00000000000E+00  0.00000000000E+00  0.27986394645E+03  0.27986394645E+03  0.00000000000E+00 0. -1.
          2   -1    0    0  503    0 -0.00000000000E+00 -0.00000000000E+00 -0.22181658380E+01  0.22181658380E+01  0.00000000000E+00 0.  1.
         21    1    1    2  503  502  0.19920909266E+02  0.45424451389E+01  0.21953757007E+03  0.22048632862E+03  0.00000000000E+00 0. -1.
          2    1    1    2  501    0 -0.19920909266E+02 -0.45424451389E+01  0.58108210534E+02  0.61595783665E+02  0.00000000000E+00 0.  1.
<mgrwt>
<rscale>  2 0.20432240E+02</rscale>
<asrwt>0</asrwt>
<pdfrwt beam="1">  1       21 0.43055964E-01 0.20432240E+02</pdfrwt>
<pdfrwt beam="2">  1        2 0.34125650E-03 0.20432240E+02</pdfrwt>
<totfact> 0.26322871E+06</totfact>
</mgrwt>
</event>
<event>
 4    1  0.2260076E+006  0.2089845E+02  0.7546771E-02  0.1728030E+00
         21   -1    0    0  501  502  0.00000000000E+00  0.00000000000E+00  0.37550011152E+03  0.37550011152E+03  0.00000000000E+00 0.  1.
          2   -1    0    0  503    0 -0.00000000000E+00 -0.00000000000E+00 -0.11656550348E+01  0.11656550348E+01  0.00000000000E+00 0. -1.
         21    1    1    2  503  502  0.70165407418E+01  0.19685358641E+02  0.17835448675E+03  0.17957468678E+03  0.00000000000E+00 0.  1.
          2    1    1    2  501    0 -0.70165407418E+01 -0.19685358641E+02  0.19597996974E+03  0.19709107977E+03  0.00000000000E+00 0. -1.
<mgrwt>
<rscale>  2 0.20898449E+02</rscale>
<asrwt>0</asrwt>
<pdfrwt beam="1">  1       21 0.57769152E-01 0.20898449E+02</pdfrwt>
<pdfrwt beam="2">  1        2 0.17933184E-03 0.20898449E+02</pdfrwt>
<totfact> 0.34805318E+06</totfact>
</mgrwt>
</event>
<event>
 4    1  0.2260076E+006  0.2259614E+02  0.7546771E-02  0.1698141E+00
         -2   -1    0    0    0  501 -0.00000000000E+00  0.00000000000E+00  0.29199440900E+02  0.29199440900E+02  0.00000000000E+00 0.  1.
         21   -1    0    0  503  502  0.00000000000E+00 -0.00000000000E+00 -0.51284393129E+03  0.51284393129E+03  0.00000000000E+00 0.  1.
         21    1    1    2  503  501 -0.20207655151E+02 -0.10111197730E+02 -0.50818342482E+03  0.50868554029E+03  0.00000000000E+00 0.  1.
         -2    1    1    2    0  502  0.20207655151E+02  0.10111197730E+02  0.24538934425E+02  0.33357831898E+02  0.00000000000E+00 0.  1.
<mgrwt>
<rscale>  2 0.22596142E+02</rscale>
<asrwt>0</asrwt>
<pdfrwt beam="2">  1       21 0.78899068E-01 0.22596142E+02</pdfrwt>
<pdfrwt beam="1">  1       -2 0.44922216E-02 0.22596142E+02</pdfrwt>
<totfact> 0.23726556E+04</totfact>
</mgrwt>
</event>
<event>
 4    1  0.2260076E+006  0.2000675E+02  0.7546771E-02  0.1745194E+00
         -3   -1    0    0    0  501 -0.00000000000E+00  0.00000000000E+00  0.19808218437E+02  0.19808218437E+02  0.00000000000E+00 0. -1.
         21   -1    0    0  503  502  0.00000000000E+00 -0.00000000000E+00 -0.15591828109E+03  0.15591828109E+03  0.00000000000E+00 0. -1.
         21    1    1    2  503  501  0.27680956897E+01 -0.19814327328E+02 -0.15002717528E+03  0.15135528812E+03  0.00000000000E+00 0. -1.
         -3    1    1    2    0  502 -0.27680956897E+01  0.19814327328E+02  0.13917112629E+02  0.24371211400E+02  0.00000000000E+00 0. -1.
<mgrwt>
<rscale>  2 0.20006747E+02</rscale>
<asrwt>0</asrwt>
<pdfrwt beam="2">  1       21 0.23987427E-01 0.20006747E+02</pdfrwt>
<pdfrwt beam="1">  1       -3 0.30474183E-02 0.20006747E+02</pdfrwt>
<totfact> 0.25811714E+05</totfact>
</mgrwt>
</event>
<event>
 4    1  0.2260076E+006  0.3054778E+02  0.7546771E-02  0.1592111E+00
         21   -1    0    0  501  502  0.00000000000E+00  0.00000000000E+00  0.13695587125E+03  0.13695587125E+03  0.00000000000E+00 0. -1.
          1   -1    0    0  503    0 -0.00000000000E+00 -0.00000000000E+00 -0.45699095052E+02  0.45699095052E+02  0.00000000000E+00 0.  1.
         21    1    1    2  503  502 -0.30385777436E+02  0.31418865852E+01  0.12987284331E+03  0.13341709917E+03  0.00000000000E+00 0. -1.
          1    1    1    2  501    0  0.30385777436E+02 -0.31418865852E+01 -0.38616067105E+02  0.49237867139E+02  0.00000000000E+00 0.  1.
<mgrwt>
<rscale>  2 0.30547781E+02</rscale>
<asrwt>0</asrwt>
<pdfrwt beam="1">  1       21 0.21070134E-01 0.30547781E+02</pdfrwt>
<pdfrwt beam="2">  1        1 0.70306301E-02 0.30547781E+02</pdfrwt>
<totfact> 0.19676991E+05</totfact>
</mgrwt>
</event>
<event>
 4    1  0.2260076E+006  0.2181201E+02  0.7546771E-02  0.1711524E+00
         21   -1    0    0  501  502  0.00000000000E+00  0.00000000000E+00  0.20741361686E+03  0.20741361686E+03  0.00000000000E+00 0.  1.
          1   -1    0    0  503    0 -0.00000000000E+00 -0.00000000000E+00 -0.23149063364E+01  0.23149063364E+01  0.00000000000E+00 0. -1.
         21    1    1    2  503  502 -0.21361478494E+02  0.44103442746E+01  0.92534623004E+02  0.95070607206E+02  0.00000000000E+00 0.  1.
          1    1    1    2  501    0  0.21361478494E+02 -0.44103442746E+01  0.11256408752E+03  0.11465791599E+03  0.00000000000E+00 0. -1.
<mgrwt>
<rscale>  2 0.21812013E+02</rscale>
<asrwt>0</asrwt>
<pdfrwt beam="1">  1       21 0.31909772E-01 0.21812013E+02</pdfrwt>
<pdfrwt beam="2">  1        1 0.35613960E-03 0.21812013E+02</pdfrwt>
<totfact> 0.43879248E+06</totfact>
</mgrwt>
</event>
<event>
 4    1  0.2260076E+006  0.3312149E+02  0.7546771E-02  0.1565944E+00
         21   -1    0    0  501  502  0.00000000000E+00  0.00000000000E+00  0.81440253441E+00  0.81440253441E+00  0.00000000000E+00 0.  1.
          2   -1    0    0  503    0 -0.00000000000E+00 -0.00000000000E+00 -0.19462497132E+04  0.19462497132E+04  0.00000000000E+00 0.  1.
         21    1    1    2  503  502  0.32097939282E+02 -0.81704008836E+01 -0.43253549737E+03  0.43380178612E+03  0.00000000000E+00 0.  1.
          2    1    1    2  501    0 -0.32097939282E+02  0.81704008836E+01 -0.15128998133E+04  0.15132623296E+04  0.00000000000E+00 0.  1.
<mgrwt>
<rscale>  2 0.33121491E+02</rscale>
<asrwt>0</asrwt>
<pdfrwt beam="1">  1       21 0.12529333E-03 0.33121491E+02</pdfrwt>
<pdfrwt beam="2">  1        2 0.29942152E+00 0.33121491E+02</pdfrwt>
<totfact> 0.78863790E+06</totfact>
</mgrwt>
</event>
<event>
 4    1  0.2260076E+006  0.3036866E+02  0.7546771E-02  0.1594049E+00
         21   -1    0    0  503  502  0.00000000000E+00  0.00000000000E+00  0.98182610564E+00  0.98182610564E+00  0.00000000000E+00 0. -1.
          1   -1    0    0  502    0 -0.00000000000E+00 -0.00000000000E+00 -0.14742847557E+04  0.14742847557E+04  0.00000000000E+00 0.  1.
         21    1    1    2  503  501  0.11768828768E+02  0.27995533582E+02 -0.29231721682E+03  0.29389047361E+03  0.00000000000E+00 0. -1.
          1    1    1    2  501    0 -0.11768828768E+02 -0.27995533582E+02 -0.11809857128E+04  0.11813761082E+04  0.00000000000E+00 0.  1.
<mgrwt>
<rscale>  2 0.30368655E+02</rscale>
<asrwt>0</asrwt>
<pdfrwt beam="1">  1       21 0.15105023E-03 0.30368655E+02</pdfrwt>
<pdfrwt beam="2">  1        1 0.22681296E+00 0.30368655E+02</pdfrwt>
<totfact> 0.47706794E+06</totfact>
</mgrwt>
</event>
<event>
 4    1  0.2260076E+006  0.2161448E+02  0.7546771E-02  0.1715006E+00
         21   -1    0    0  503  502  0.00000000000E+00  0.00000000000E+00  0.42825994138E+01  0.42825994138E+01  0.00000000000E+00 0.  1.
         -4   -1    0    0    0  501 -0.00000000000E+00 -0.00000000000E+00 -0.16516607206E+03  0.16516607206E+03  0.00000000000E+00 0.  1.
         21    1    1    2  503  501  0.13584895514E+02  0.16811789418E+02 -0.31074437352E+02  0.37852428011E+02  0.00000000000E+00 0.  1.
         -4    1    1    2    0  502 -0.13584895514E+02 -0.16811789418E+02 -0.12980903529E+03  0.13159624346E+03  0.00000000000E+00 0.  1.
<mgrwt>
<rscale>  2 0.21614478E+02</rscale>
<asrwt>0</asrwt>
<pdfrwt beam="1">  1       21 0.65886149E-03 0.21614478E+02</pdfrwt>
<pdfrwt beam="2">  1       -4 0.25410164E-01 0.21614478E+02</pdfrwt>
<totfact> 0.22637061E+06</totfact>
</mgrwt>
</event>
<event>
 4    1  0.2260076E+006  0.2248819E+02  0.7546771E-02  0.1699943E+00
          3   -1    0    0  502    0 -0.00000000000E+00  0.00000000000E+00  0.66267524386E+02  0.66267524386E+02  0.00000000000E+00 0.  1.
         21   -1    0    0  503  502  0.00000000000E+00 -0.00000000000E+00 -0.33242438820E+02  0.33242438820E+02  0.00000000000E+00 0.  1.
         21    1    1    2  503  501  0.21501854503E+02 -0.65870132696E+01 -0.27159464297E+02  0.35261239226E+02  0.00000000000E+00 0.  1.
          3    1    1    2  501    0 -0.21501854503E+02  0.65870132696E+01  0.60184549863E+02  0.64248723980E+02  0.00000000000E+00 0.  1.
<mgrwt>
<rscale>  2 0.22488186E+02</rscale>
<asrwt>0</asrwt>
<pdfrwt beam="2">  1       21 0.51142214E-02 0.22488186E+02</pdfrwt>
<pdfrwt beam="1">  1        3 0.10195004E-01 0.22488186E+02</pdfrwt>
<totfact> 0.56573653E+05</totfact>
</mgrwt>
</event>
<event>
 4    1  0.2260076E+006  0.3323502E+02  0.7546771E-02  0.1564857E+00
         21   -1    0    0  503  502  0.00000000000E+00  0.00000000000E+00  0.65595937733E+01  0.65595937733E+01  0.00000000000E+00 0. -1.
         -4   -1    0    0    0  501 -0.00000000000E+00 -0.00000000000E+00 -0.21281154965E+03  0.21281154965E+03  0.00000000000E+00 0. -1.
         21    1    1    2  503  501 -0.27776672586E+02  0.18248910852E+02 -0.53012848745E+02  0.62569388835E+02  0.00000000000E+00 0. -1.
         -4    1    1    2    0  502  0.27776672586E+02 -0.18248910852E+02 -0.15323910713E+03  0.15680175459E+03  0.00000000000E+00 0. -1.
<mgrwt>
<rscale>  2 0.33235016E+02</rscale>
<asrwt>0</asrwt>
<pdfrwt beam="1">  1       21 0.10091682E-02 0.33235016E+02</pdfrwt>
<pdfrwt beam="2">  1       -4 0.32740239E-01 0.33235016E+02</pdfrwt>
<totfact> 0.90083860E+05</totfact>
</mgrwt>
</event>
<event>
 4    1  0.2260076E+006  0.2128285E+02  0.7546771E-02  0.1720958E+00
          1   -1    0    0  503    0 -0.00000000000E+00  0.00000000000E+00  0.96113963852E+02  0.96113963852E+02  0.00000000000E+00 0. -1.
         21   -1    0    0  501  502  0.00000000000E+00 -0.00000000000E+00 -0.31183688511E+02  0.31183688511E+02  0.00000000000E+00 0. -1.
         21    1    1    2  503  502 -0.20400291652E+02 -0.60653058121E+01 -0.26177221441E+02  0.33737319936E+02  0.00000000000E+00 0. -1.
          1    1    1    2  501    0  0.20400291652E+02  0.60653058121E+01  0.91107496782E+02  0.93560332427E+02  0.00000000000E+00 0. -1.
<mgrwt>
<rscale>  2 0.21282853E+02</rscale>
<asrwt>0</asrwt>
<pdfrwt beam="2">  1       21 0.47974906E-02 0.21282853E+02</pdfrwt>
<pdfrwt beam="1">  1        1 0.14786764E-01 0.21282853E+02</pdfrwt>
<totfact> 0.86296159E+05</totfact>
</mgrwt>
</event>
<event>
 4    1  0.2260076E+006  0.2034181E+02  0.7546771E-02  0.1738615E+00
          1   -1    0    0  502    0 -0.00000000000E+00  0.00000000000E+00  0.10513345473E+04  0.10513345473E+04  0.00000000000E+00 0. -1.
         21   -1    0    0  503  502  0.00000000000E+00 -0.00000000000E+00 -0.98880012309E+00  0.98880012309E+00  0.00000000000E+00 0. -1.
         21    1    1    2  503  501 -0.17633219968E+02  0.10141925376E+02  0.11694554440E+03  0.11870151411E+03  0.00000000000E+00 0. -1.
          1    1    1    2  501    0  0.17633219968E+02 -0.10141925376E+02  0.93340020282E+03  0.93362183335E+03  0.00000000000E+00 0. -1.
<mgrwt>
<rscale>  2 0.20341807E+02</rscale>
<asrwt>0</asrwt>
<pdfrwt beam="2">  1       21 0.15212394E-03 0.20341807E+02</pdfrwt>
<pdfrwt beam="1">  1        1 0.16174288E+00 0.20341807E+02</pdfrwt>
<totfact> 0.79714538E+06</totfact>
</mgrwt>
</event>
<event>
 4    1  0.2260076E+006  0.2262045E+02  0.7546771E-02  0.1697737E+00
          1   -1    0    0  502    0 -0.00000000000E+00  0.00000000000E+00  0.10942286547E+04  0.10942286547E+04  0.00000000000E+00 0. -1.
         21   -1    0    0  503  502  0.00000000000E+00 -0.00000000000E+00 -0.12983408252E+03  0.12983408252E+03  0.00000000000E+00 0.  1.
         21    1    1    2  503  501  0.20204594647E+02  0.10171493683E+02 -0.12873091596E+03  0.13070322740E+03  0.00000000000E+00 0.  1.
          1    1    1    2  501    0 -0.20204594647E+02 -0.10171493683E+02  0.10931254882E+04  0.10933595099E+04  0.00000000000E+00 0. -1.
<mgrwt>
<rscale>  2 0.22620454E+02</rscale>
<asrwt>0</asrwt>
<pdfrwt beam="2">  1       21 0.19974475E-01 0.22620454E+02</pdfrwt>
<pdfrwt beam="1">  1        1 0.16834286E+00 0.22620454E+02</pdfrwt>
<totfact> 0.40873148E+03</totfact>
</mgrwt>
</event>
<event>
 4    1  0.2260076E+006  0.2444105E+02  0.7546771E-02  0.1669163E+00
         21   -1    0    0  501  502  0.00000000000E+00  0.00000000000E+00  0.69369127604E+02  0.69369127604E+02  0.00000000000E+00 0. -1.
         -4   -1    0    0    0  501 -0.00000000000E+00 -0.00000000000E+00 -0.61989827618E+02  0.61989827618E+02  0.00000000000E+00 0. -1.
         21    1    1    2  503  502 -0.11708630299E+02  0.21453972182E+02  0.64636657258E+02  0.69103273492E+02  0.00000000000E+00 0. -1.
         -4    1    1    2    0  503  0.11708630299E+02 -0.21453972182E+02 -0.57257357272E+02  0.62255681730E+02  0.00000000000E+00 0. -1.
<mgrwt>
<rscale>  2 0.24441050E+02</rscale>
<asrwt>0</asrwt>
<pdfrwt beam="1">  1       21 0.10672173E-01 0.24441050E+02</pdfrwt>
<pdfrwt beam="2">  1       -4 0.95368965E-02 0.24441050E+02</pdfrwt>
<totfact> 0.16071989E+05</totfact>
</mgrwt>
</event>
<event>
 4    1  0.2260076E+006  0.2044455E+02  0.7546771E-02  0.1736629E+00
         21   -1    0    0  503  502  0.00000000000E+00  0.00000000000E+00  0.12338361586E+02  0.12338361586E+02  0.00000000000E+00 0.  1.
          2   -1    0    0  502    0 -0.00000000000E+00 -0.00000000000E+00 -0.95575862266E+03  0.95575862266E+03  0.00000000000E+00 0. -1.
         21    1    1    2  503  501  0.10341225512E+02 -0.17636287732E+02  0.36825307999E+01  0.20773555862E+02  0.00000000000E+00 0.  1.
          2    1    1    2  501    0 -0.10341225512E+02  0.17636287732E+02 -0.94710279188E+03  0.94732342839E+03  0.00000000000E+00 0. -1.
<mgrwt>
<rscale>  2 0.20444549E+02</rscale>
<asrwt>0</asrwt>
<pdfrwt beam="1">  1       21 0.18982096E-02 0.20444549E+02</pdfrwt>
<pdfrwt beam="2">  1        2 0.14703978E+00 0.20444549E+02</pdfrwt>
<totfact> 0.39809807E+05</totfact>
</mgrwt>
</event>
<event>
 4    1  0.2260076E+006  0.2848186E+02  0.7546771E-02  0.1615502E+00
          2   -1    0    0  503    0 -0.00000000000E+00  0.00000000000E+00  0.23935097256E+03  0.23935097256E+03  0.00000000000E+00 0. -1.
         21   -1    0    0  501  502  0.00000000000E+00 -0.00000000000E+00 -0.36687112274E+01  0.36687112274E+01  0.00000000000E+00 0.  1.
         21    1    1    2  503  502  0.18936195780E+02  0.21275260743E+02  0.84303789327E+02  0.88985083723E+02  0.00000000000E+00 0.  1.
          2    1    1    2  501    0 -0.18936195780E+02 -0.21275260743E+02  0.15137847201E+03  0.15403460006E+03  0.00000000000E+00 0. -1.
<mgrwt>
<rscale>  2 0.28481858E+02</rscale>
<asrwt>0</asrwt>
<pdfrwt beam="2">  1       21 0.56441730E-03 0.28481858E+02</pdfrwt>
<pdfrwt beam="1">  1        2 0.36823214E-01 0.28481858E+02</pdfrwt>
<totfact> 0.11187259E+07</totfact>
</mgrwt>
</event>
<event>
 4    1  0.2260076E+006  0.2967170E+02  0.7546771E-02  0.1601746E+00
         -3   -1    0    0    0  501 -0.00000000000E+00  0.00000000000E+00  0.10562221917E+03  0.10562221917E+03  0.00000000000E+00 0. -1.
         21   -1    0    0  501  502  0.00000000000E+00 -0.00000000000E+00 -0.17699588230E+02  0.17699588230E+02  0.00000000000E+00 0. -1.
         21    1    1    2  503  502 -0.29664111118E+02 -0.67124294228E+00 -0.88863009428E+00  0.29685008320E+02  0.00000000000E+00 0. -1.
         -3    1    1    2    0  503  0.29664111118E+02  0.67124294228E+00  0.88811261031E+02  0.93636799077E+02  0.00000000000E+00 0. -1.
<mgrwt>
<rscale>  2 0.29671705E+02</rscale>
<asrwt>0</asrwt>
<pdfrwt beam="2">  1       21 0.27230136E-02 0.29671705E+02</pdfrwt>
<pdfrwt beam="1">  1       -3 0.16249572E-01 0.29671705E+02</pdfrwt>
<totfact> 0.78977819E+05</totfact>
</mgrwt>
</event>
<event>
 4    1  0.2260076E+006  0.2099635E+02  0.7546771E-02  0.1726211E+00
         21   -1    0    0  501  502  0.00000000000E+00  0.00000000000E+00  0.13128766550E+03  0.13128766550E+03  0.00000000000E+00 0.  1.
         -2   -1    0    0    0  501 -0.00000000000E+00 -0.00000000000E+00 -0.54315392757E+02  0.54315392757E+02  0.00000000000E+00 0.  1.
         21    1    1    2  503  502  0.17199431989E+01 -0.20925786804E+02  0.12837333150E+03  0.13007904904E+03  0.00000000000E+00 0.  1.
         -2    1    1    2    0  503 -0.17199431989E+01  0.20925786804E+02 -0.51401058760E+02  0.55524009218E+02  0.00000000000E+00 0.  1.
<mgrwt>
<rscale>  2 0.20996351E+02</rscale>
<asrwt>0</asrwt>
<pdfrwt beam="1">  1       21 0.20198102E-01 0.20996351E+02</pdfrwt>
<pdfrwt beam="2">  1       -2 0.83562143E-02 0.20996351E+02</pdfrwt>
<totfact> 0.12706392E+05</totfact>
</mgrwt>
</event>
<event>
 4    1  0.2260076E+006  0.5660541E+02  0.7546771E-02  0.1412656E+00
         21   -1    0    0  501  502  0.00000000000E+00  0.00000000000E+00  0.44410017079E+02  0.44410017079E+02  0.00000000000E+00 0.  1.
         -4   -1    0    0    0  501 -0.00000000000E+00 -0.00000000000E+00 -0.84580014452E+02  0.84580014452E+02  0.00000000000E+00 0.  1.
         21    1    1    2  503  502 -0.24246367146E+02  0.51149647928E+02  0.46397564037E+01  0.56795247534E+02  0.00000000000E+00 0.  1.
         -4    1    1    2    0  503  0.24246367146E+02 -0.51149647928E+02 -0.44809753777E+02  0.72194783998E+02  0.00000000000E+00 0.  1.
<mgrwt>
<rscale>  2 0.56605413E+02</rscale>
<asrwt>0</asrwt>
<pdfrwt beam="1">  1       21 0.68323104E-02 0.56605413E+02</pdfrwt>
<pdfrwt beam="2">  1       -4 0.13012310E-01 0.56605413E+02</pdfrwt>
<totfact> 0.25638369E+05</totfact>
</mgrwt>
</event>
<event>
 4    1  0.2260076E+006  0.3693826E+02  0.7546771E-02  0.1532032E+00
         21   -1    0    0  501  502  0.00000000000E+00  0.00000000000E+00  0.26408950166E+02  0.26408950166E+02  0.00000000000E+00 0. -1.
          1   -1    0    0  503    0 -0.00000000000E+00 -0.00000000000E+00 -0.80531293311E+03  0.80531293311E+03  0.00000000000E+00 0. -1.
         21    1    1    2  503  502 -0.50226750905E+01  0.36595192015E+02  0.12847855316E+02  0.39108857435E+02  0.00000000000E+00 0. -1.
          1    1    1    2  501    0  0.50226750905E+01 -0.36595192015E+02 -0.79175183826E+03  0.79261302584E+03  0.00000000000E+00 0. -1.
<mgrwt>
<rscale>  2 0.36938264E+02</rscale>
<asrwt>0</asrwt>
<pdfrwt beam="1">  1       21 0.40629157E-02 0.36938264E+02</pdfrwt>
<pdfrwt beam="2">  1        1 0.12389429E+00 0.36938264E+02</pdfrwt>
<totfact> 0.92574862E+04</totfact>
</mgrwt>
</event>
<event>
 4    1  0.2260076E+006  0.2518463E+02  0.7546771E-02  0.1658364E+00
          2   -1    0    0  502    0 -0.00000000000E+00  0.00000000000E+00  0.13314142111E+04  0.13314142111E+04  0.00000000000E+00 0. -1.
         21   -1    0    0  503  502  0.00000000000E+00 -0.00000000000E+00 -0.23470310963E+02  0.23470310963E+02  0.00000000000E+00 0.  1.
         21    1    1    2  503  501 -0.24727797473E+02 -0.47751103963E+01 -0.16559927145E+02  0.30141281231E+02  0.00000000000E+00 0.  1.
          2    1    1    2  501    0  0.24727797473E+02  0.47751103963E+01  0.13245038273E+04  0.13247432408E+04  0.00000000000E+00 0. -1.
<mgrwt>
<rscale>  2 0.25184631E+02</rscale>
<asrwt>0</asrwt>
<pdfrwt beam="2">  1       21 0.36108181E-02 0.25184631E+02</pdfrwt>
<pdfrwt beam="1">  1        2 0.20483290E+00 0.25184631E+02</pdfrwt>
<totfact> 0.96399239E+04</totfact>
</mgrwt>
</event>
<event>
 4    1  0.2260076E+006  0.3575694E+02  0.7546771E-02  0.1541980E+00
         21   -1    0    0  501  502  0.00000000000E+00  0.00000000000E+00  0.12838789132E+02  0.12838789132E+02  0.00000000000E+00 0.  1.
          2   -1    0    0  503    0 -0.00000000000E+00 -0.00000000000E+00 -0.26060036624E+04  0.26060036624E+04  0.00000000000E+00 0. -1.
         21    1    1    2  503  502 -0.23834848686E+02 -0.26654425360E+02 -0.12423961664E+02  0.37853840315E+02  0.00000000000E+00 0.  1.
          2    1    1    2  501    0  0.23834848686E+02  0.26654425360E+02 -0.25807409116E+04  0.25809886112E+04  0.00000000000E+00 0. -1.
<mgrwt>
<rscale>  2 0.35756935E+02</rscale>
<asrwt>0</asrwt>
<pdfrwt beam="1">  1       21 0.19751988E-02 0.35756935E+02</pdfrwt>
<pdfrwt beam="2">  1        2 0.40092355E+00 0.35756935E+02</pdfrwt>
<totfact> 0.60916909E+04</totfact>
</mgrwt>
</event>
<event>
 4    1  0.2260076E+006  0.2478335E+02  0.7546771E-02  0.1664133E+00
         21   -1    0    0  503  502  0.00000000000E+00  0.00000000000E+00  0.41594494817E+01  0.41594494817E+01  0.00000000000E+00 0.  1.
         -1   -1    0    0    0  501 -0.00000000000E+00 -0.00000000000E+00 -0.49949415830E+03  0.49949415830E+03  0.00000000000E+00 0.  1.
         21    1    1    2  503  501  0.10809275525E+01 -0.24759767067E+02 -0.36317831220E+02  0.43968162733E+02  0.00000000000E+00 0.  1.
         -1    1    1    2    0  502 -0.10809275525E+01  0.24759767067E+02 -0.45901687760E+03  0.45968544505E+03  0.00000000000E+00 0.  1.
<mgrwt>
<rscale>  2 0.24783351E+02</rscale>
<asrwt>0</asrwt>
<pdfrwt beam="1">  1       21 0.63991540E-03 0.24783351E+02</pdfrwt>
<pdfrwt beam="2">  1       -1 0.76845244E-01 0.24783351E+02</pdfrwt>
<totfact> 0.93882966E+05</totfact>
</mgrwt>
</event>
<event>
 4    1  0.2260076E+006  0.2198892E+02  0.7546771E-02  0.1708444E+00
          2   -1    0    0  503    0 -0.00000000000E+00  0.00000000000E+00  0.14230584451E+04  0.14230584451E+04  0.00000000000E+00 0.  1.
         21   -1    0    0  501  502  0.00000000000E+00 -0.00000000000E+00 -0.27653701946E+01  0.27653701946E+01  0.00000000000E+00 0. -1.
         21    1    1    2  503  502  0.21200017744E+02  0.58370985530E+01  0.42465802646E+02  0.47821092273E+02  0.00000000000E+00 0. -1.
          2    1    1    2  501    0 -0.21200017744E+02 -0.58370985530E+01  0.13778272723E+04  0.13780027231E+04  0.00000000000E+00 0.  1.
<mgrwt>
<rscale>  2 0.21988917E+02</rscale>
<asrwt>0</asrwt>
<pdfrwt beam="2">  1       21 0.42544270E-03 0.21988917E+02</pdfrwt>
<pdfrwt beam="1">  1        2 0.21893148E+00 0.21988917E+02</pdfrwt>
<totfact> 0.21873630E+06</totfact>
</mgrwt>
</event>
<event>
 4    1  0.2260076E+006  0.4473197E+02  0.7546771E-02  0.1476022E+00
          2   -1    0    0  502    0 -0.00000000000E+00  0.00000000000E+00  0.53016338591E+03  0.53016338591E+03  0.00000000000E+00 0.  1.
         21   -1    0    0  503  502  0.00000000000E+00 -0.00000000000E+00 -0.42026808633E+01  0.42026808633E+01  0.00000000000E+00 0.  1.
         21    1    1    2  503  501  0.16563653383E+02 -0.41552313502E+02  0.17766936647E+03  0.18321395458E+03  0.00000000000E+00 0.  1.
          2    1    1    2  501    0 -0.16563653383E+02  0.41552313502E+02  0.34829133858E+03  0.35115211219E+03  0.00000000000E+00 0.  1.
<mgrwt>
<rscale>  2 0.44731973E+02</rscale>
<asrwt>0</asrwt>
<pdfrwt beam="2">  1       21 0.64656670E-03 0.44731973E+02</pdfrwt>
<pdfrwt beam="1">  1        2 0.81563545E-01 0.44731973E+02</pdfrwt>
<totfact> 0.44886795E+06</totfact>
</mgrwt>
</event>
<event>
 4    1  0.2260076E+006  0.3343320E+02  0.7546771E-02  0.1562971E+00
          2   -1    0    0  503    0 -0.00000000000E+00  0.00000000000E+00  0.75849669324E+02  0.75849669324E+02  0.00000000000E+00 0. -1.
         21   -1    0    0  501  502  0.00000000000E+00 -0.00000000000E+00 -0.10942165237E+03  0.10942165237E+03  0.00000000000E+00 0. -1.
         21    1    1    2  503  502  0.23631455403E+02  0.23650230788E+02 -0.10295813434E+03  0.10825043431E+03  0.00000000000E+00 0. -1.
          2    1    1    2  501    0 -0.23631455403E+02 -0.23650230788E+02  0.69386151300E+02  0.77020887382E+02  0.00000000000E+00 0. -1.
<mgrwt>
<rscale>  2 0.33433204E+02</rscale>
<asrwt>0</asrwt>
<pdfrwt beam="2">  1       21 0.16834100E-01 0.33433204E+02</pdfrwt>
<pdfrwt beam="1">  1        2 0.11669180E-01 0.33433204E+02</pdfrwt>
<totfact> 0.17927363E+05</totfact>
</mgrwt>
</event>
<event>
 4    1  0.2260076E+006  0.2596318E+02  0.7546771E-02  0.1647541E+00
          2   -1    0    0  503    0 -0.00000000000E+00  0.00000000000E+00  0.28890036283E+03  0.28890036283E+03  0.00000000000E+00 0.  1.
         21   -1    0    0  501  502  0.00000000000E+00 -0.00000000000E+00 -0.24495708684E+02  0.24495708684E+02  0.00000000000E+00 0. -1.
         21    1    1    2  503  502 -0.19872523492E+02 -0.16708368387E+02 -0.16846025059E+02  0.30949560972E+02  0.00000000000E+00 0. -1.
          2    1    1    2  501    0  0.19872523492E+02  0.16708368387E+02  0.28125067921E+03  0.28244651054E+03  0.00000000000E+00 0.  1.
<mgrwt>
<rscale>  2 0.25963181E+02</rscale>
<asrwt>0</asrwt>
<pdfrwt beam="2">  1       21 0.37685708E-02 0.25963181E+02</pdfrwt>
<pdfrwt beam="1">  1        2 0.44446207E-01 0.25963181E+02</pdfrwt>
<totfact> 0.49782374E+05</totfact>
</mgrwt>
</event>
<event>
 4    1  0.2260076E+006  0.2327716E+02  0.7546771E-02  0.1687057E+00
         21   -1    0    0  501  502  0.00000000000E+00  0.00000000000E+00  0.10756386505E+03  0.10756386505E+03  0.00000000000E+00 0. -1.
          2   -1    0    0  503    0 -0.00000000000E+00 -0.00000000000E+00 -0.25197298761E+02  0.25197298761E+02  0.00000000000E+00 0.  1.
         21    1    1    2  503  502  0.19314272353E+02 -0.12991722068E+02  0.10055913640E+03  0.10321805012E+03  0.00000000000E+00 0. -1.
          2    1    1    2  501    0 -0.19314272353E+02  0.12991722068E+02 -0.18192570111E+02  0.29543113682E+02  0.00000000000E+00 0.  1.
<mgrwt>
<rscale>  2 0.23277155E+02</rscale>
<asrwt>0</asrwt>
<pdfrwt beam="1">  1       21 0.16548287E-01 0.23277155E+02</pdfrwt>
<pdfrwt beam="2">  1        2 0.38765076E-02 0.23277155E+02</pdfrwt>
<totfact> 0.65802786E+05</totfact>
</mgrwt>
</event>
<event>
 4    1  0.2260076E+006  0.2937345E+02  0.7546771E-02  0.1605119E+00
          1   -1    0    0  502    0 -0.00000000000E+00  0.00000000000E+00  0.98036038636E+03  0.98036038636E+03  0.00000000000E+00 0. -1.
         21   -1    0    0  503  502  0.00000000000E+00 -0.00000000000E+00 -0.20063190030E+01  0.20063190030E+01  0.00000000000E+00 0. -1.
         21    1    1    2  503  501  0.11670680629E+02 -0.26955421513E+02  0.12116828146E+03  0.12467779259E+03  0.00000000000E+00 0. -1.
          1    1    1    2  501    0 -0.11670680629E+02  0.26955421513E+02  0.85718578590E+03  0.85768891276E+03  0.00000000000E+00 0. -1.
<mgrwt>
<rscale>  2 0.29373449E+02</rscale>
<asrwt>0</asrwt>
<pdfrwt beam="2">  1       21 0.30866525E-03 0.29373449E+02</pdfrwt>
<pdfrwt beam="1">  1        1 0.15082429E+00 0.29373449E+02</pdfrwt>
<totfact> 0.34569422E+06</totfact>
</mgrwt>
</event>
<event>
 4    1  0.2260076E+006  0.2188292E+02  0.7546771E-02  0.1710285E+00
         -2   -1    0    0    0  501 -0.00000000000E+00  0.00000000000E+00  0.31183925058E+01  0.31183925058E+01  0.00000000000E+00 0. -1.
         21   -1    0    0  503  502  0.00000000000E+00 -0.00000000000E+00 -0.81111917539E+03  0.81111917539E+03  0.00000000000E+00 0. -1.
         21    1    1    2  503  501  0.17354776888E+02  0.13329434495E+02 -0.77056121026E+03  0.77087187059E+03  0.00000000000E+00 0. -1.
         -2    1    1    2    0  502 -0.17354776888E+02 -0.13329434495E+02 -0.37439572622E+02  0.43365697307E+02  0.00000000000E+00 0. -1.
<mgrwt>
<rscale>  2 0.21882918E+02</rscale>
<asrwt>0</asrwt>
<pdfrwt beam="2">  1       21 0.12478746E+00 0.21882918E+02</pdfrwt>
<pdfrwt beam="1">  1       -2 0.47975308E-03 0.21882918E+02</pdfrwt>
<totfact> 0.18417732E+05</totfact>
</mgrwt>
</event>
<event>
 4    1  0.2260076E+006  0.2532182E+02  0.7546771E-02  0.1656422E+00
          2   -1    0    0  502    0 -0.00000000000E+00  0.00000000000E+00  0.11067077554E+03  0.11067077554E+03  0.00000000000E+00 0. -1.
         21   -1    0    0  503  502  0.00000000000E+00 -0.00000000000E+00 -0.59825250277E+01  0.59825250277E+01  0.00000000000E+00 0. -1.
         21    1    1    2  503  501 -0.20821161936E+02 -0.14410892677E+02  0.41982195859E+02  0.49027536969E+02  0.00000000000E+00 0. -1.
          2    1    1    2  501    0  0.20821161936E+02  0.14410892677E+02  0.62706054652E+02  0.67625763598E+02  0.00000000000E+00 0. -1.
<mgrwt>
<rscale>  2 0.25321821E+02</rscale>
<asrwt>0</asrwt>
<pdfrwt beam="2">  1       21 0.92038855E-03 0.25321821E+02</pdfrwt>
<pdfrwt beam="1">  1        2 0.17026272E-01 0.25321821E+02</pdfrwt>
<totfact> 0.11635410E+07</totfact>
</mgrwt>
</event>
<event>
 4    1  0.2260076E+006  0.5274229E+02  0.7546771E-02  0.1431088E+00
          4   -1    0    0  503    0 -0.00000000000E+00  0.00000000000E+00  0.94685379404E+01  0.94685379404E+01  0.00000000000E+00 0. -1.
         21   -1    0    0  501  502  0.00000000000E+00 -0.00000000000E+00 -0.31700443285E+03  0.31700443285E+03  0.00000000000E+00 0. -1.
         21    1    1    2  503  502  0.34815423120E+02  0.39618619735E+02 -0.19794294087E+03  0.20484910680E+03  0.00000000000E+00 0. -1.
          4    1    1    2  501    0 -0.34815423120E+02 -0.39618619735E+02 -0.10959295404E+03  0.12162386399E+03  0.00000000000E+00 0. -1.
<mgrwt>
<rscale>  2 0.52742286E+02</rscale>
<asrwt>0</asrwt>
<pdfrwt beam="2">  1       21 0.48769913E-01 0.52742286E+02</pdfrwt>
<pdfrwt beam="1">  1        4 0.14566981E-02 0.52742286E+02</pdfrwt>
<totfact> 0.22740825E+05</totfact>
</mgrwt>
</event>
<event>
 4    1  0.2260076E+006  0.2535748E+02  0.7546771E-02  0.1655920E+00
          3   -1    0    0  503    0 -0.00000000000E+00  0.00000000000E+00  0.43103919346E+02  0.43103919346E+02  0.00000000000E+00 0.  1.
         21   -1    0    0  501  502  0.00000000000E+00 -0.00000000000E+00 -0.50993338965E+02  0.50993338965E+02  0.00000000000E+00 0.  1.
         21    1    1    2  503  502 -0.35612209099E+01 -0.25106163325E+02 -0.43517676231E+02  0.50366555132E+02  0.00000000000E+00 0.  1.
          3    1    1    2  501    0  0.35612209099E+01  0.25106163325E+02  0.35628256613E+02  0.43730703179E+02  0.00000000000E+00 0.  1.
<mgrwt>
<rscale>  2 0.25357479E+02</rscale>
<asrwt>0</asrwt>
<pdfrwt beam="2">  1       21 0.78451291E-02 0.25357479E+02</pdfrwt>
<pdfrwt beam="1">  1        3 0.66313722E-02 0.25357479E+02</pdfrwt>
<totfact> 0.57533927E+05</totfact>
</mgrwt>
</event>
<event>
 4    1  0.2260076E+006  0.4514086E+02  0.7546771E-02  0.1473464E+00
          2   -1    0    0  502    0 -0.00000000000E+00  0.00000000000E+00  0.27662903856E+03  0.27662903856E+03  0.00000000000E+00 0. -1.
         21   -1    0    0  503  502  0.00000000000E+00 -0.00000000000E+00 -0.10555963756E+02  0.10555963756E+02  0.00000000000E+00 0. -1.
         21    1    1    2  503  501 -0.17462798549E+02 -0.41626285083E+02  0.54102555089E+02  0.70461219193E+02  0.00000000000E+00 0. -1.
          2    1    1    2  501    0  0.17462798549E+02  0.41626285083E+02  0.21197051971E+03  0.21672378312E+03  0.00000000000E+00 0. -1.
<mgrwt>
<rscale>  2 0.45140857E+02</rscale>
<asrwt>0</asrwt>
<pdfrwt beam="2">  1       21 0.16239946E-02 0.45140857E+02</pdfrwt>
<pdfrwt beam="1">  1        2 0.42558308E-01 0.45140857E+02</pdfrwt>
<totfact> 0.21295034E+06</totfact>
</mgrwt>
</event>
<event>
 4    1  0.2260076E+006  0.4018758E+02  0.7546771E-02  0.1506836E+00
         21   -1    0    0  503  502  0.00000000000E+00  0.00000000000E+00  0.18058977400E+01  0.18058977400E+01  0.00000000000E+00 0. -1.
          2   -1    0    0  502    0 -0.00000000000E+00 -0.00000000000E+00 -0.18703288913E+04  0.18703288913E+04  0.00000000000E+00 0. -1.
         21    1    1    2  503  501 -0.18853862045E+02  0.35490475450E+02 -0.25806010304E+03  0.26117055489E+03  0.00000000000E+00 0. -1.
          2    1    1    2  501    0  0.18853862045E+02 -0.35490475450E+02 -0.16104628905E+04  0.16109642341E+04  0.00000000000E+00 0. -1.
<mgrwt>
<rscale>  2 0.40187585E+02</rscale>
<asrwt>0</asrwt>
<pdfrwt beam="1">  1       21 0.27783015E-03 0.40187585E+02</pdfrwt>
<pdfrwt beam="2">  1        2 0.28774319E+00 0.40187585E+02</pdfrwt>
<totfact> 0.27493181E+06</totfact>
</mgrwt>
</event>
<event>
 4    1  0.2260076E+006  0.2667524E+02  0.7546771E-02  0.1638044E+00
          1   -1    0    0  503    0 -0.00000000000E+00  0.00000000000E+00  0.19723412750E+03  0.19723412750E+03  0.00000000000E+00 0. -1.
         21   -1    0    0  501  502  0.00000000000E+00 -0.00000000000E+00 -0.13423635582E+02  0.13423635582E+02  0.00000000000E+00 0. -1.
         21    1    1    2  503  502 -0.19987886547E+02 -0.17665023234E+02  0.18358085583E+01  0.26738340404E+02  0.00000000000E+00 0. -1.
          1    1    1    2  501    0  0.19987886547E+02  0.17665023234E+02  0.18197468336E+03  0.18391942268E+03  0.00000000000E+00 0. -1.
<mgrwt>
<rscale>  2 0.26675244E+02</rscale>
<asrwt>0</asrwt>
<pdfrwt beam="2">  1       21 0.20651749E-02 0.26675244E+02</pdfrwt>
<pdfrwt beam="1">  1        1 0.30343710E-01 0.26675244E+02</pdfrwt>
<totfact> 0.14368580E+06</totfact>
</mgrwt>
</event>
<event>
 4    1  0.2260076E+006  0.3113791E+02  0.7546771E-02  0.1585841E+00
          2   -1    0    0  503    0 -0.00000000000E+00  0.00000000000E+00  0.57844441785E+02  0.57844441785E+02  0.00000000000E+00 0.  1.
         21   -1    0    0  501  502  0.00000000000E+00 -0.00000000000E+00 -0.96913648994E+02  0.96913648994E+02  0.00000000000E+00 0. -1.
         21    1    1    2  503  502  0.29547978760E+02 -0.98227580990E+01 -0.89904678144E+02  0.95144210427E+02  0.00000000000E+00 0. -1.
          2    1    1    2  501    0 -0.29547978760E+02  0.98227580990E+01  0.50835470935E+02  0.59613880352E+02  0.00000000000E+00 0.  1.
<mgrwt>
<rscale>  2 0.31137913E+02</rscale>
<asrwt>0</asrwt>
<pdfrwt beam="2">  1       21 0.14909792E-01 0.31137913E+02</pdfrwt>
<pdfrwt beam="1">  1        2 0.88991449E-02 0.31137913E+02</pdfrwt>
<totfact> 0.30071742E+05</totfact>
</mgrwt>
</event>
<event>
 4    1  0.2260076E+006  0.3505975E+02  0.7546771E-02  0.1548071E+00
          2   -1    0    0  503    0 -0.00000000000E+00  0.00000000000E+00  0.13728914483E+04  0.13728914483E+04  0.00000000000E+00 0. -1.
         21   -1    0    0  501  502  0.00000000000E+00 -0.00000000000E+00 -0.12558168772E+01  0.12558168772E+01  0.00000000000E+00 0.  1.
         21    1    1    2  503  502  0.29544512780E+02  0.18876120507E+02  0.31769991735E+03  0.31962857139E+03  0.00000000000E+00 0.  1.
          2    1    1    2  501    0 -0.29544512780E+02 -0.18876120507E+02  0.10539357140E+04  0.10545186938E+04  0.00000000000E+00 0. -1.
<mgrwt>
<rscale>  2 0.35059751E+02</rscale>
<asrwt>0</asrwt>
<pdfrwt beam="2">  1       21 0.19320369E-03 0.35059751E+02</pdfrwt>
<pdfrwt beam="1">  1        2 0.21121287E+00 0.35059751E+02</pdfrwt>
<totfact> 0.79950454E+06</totfact>
</mgrwt>
</event>
<event>
 4    1  0.2260076E+006  0.2302405E+02  0.7546771E-02  0.1691121E+00
          3   -1    0    0  503    0 -0.00000000000E+00  0.00000000000E+00  0.18348492450E+03  0.18348492450E+03  0.00000000000E+00 0. -1.
         21   -1    0    0  501  502  0.00000000000E+00 -0.00000000000E+00 -0.67562352793E+01  0.67562352793E+01  0.00000000000E+00 0. -1.
         21    1    1    2  503  502  0.40003874624E+01  0.22673853361E+02  0.16400118858E+02  0.28267837283E+02  0.00000000000E+00 0. -1.
          3    1    1    2  501    0 -0.40003874624E+01 -0.22673853361E+02  0.16032857037E+03  0.16197332250E+03  0.00000000000E+00 0. -1.
<mgrwt>
<rscale>  2 0.23024047E+02</rscale>
<asrwt>0</asrwt>
<pdfrwt beam="2">  1       21 0.10394210E-02 0.23024047E+02</pdfrwt>
<pdfrwt beam="1">  1        3 0.28228446E-01 0.23024047E+02</pdfrwt>
<totfact> 0.12425132E+06</totfact>
</mgrwt>
</event>
<event>
 4    1  0.2260076E+006  0.2925684E+02  0.7546771E-02  0.1606452E+00
         -1   -1    0    0    0  501 -0.00000000000E+00  0.00000000000E+00  0.46559100345E+03  0.46559100345E+03  0.00000000000E+00 0. -1.
         21   -1    0    0  503  502  0.00000000000E+00 -0.00000000000E+00 -0.14801726915E+02  0.14801726915E+02  0.00000000000E+00 0. -1.
         21    1    1    2  503  501  0.93632421510E+01 -0.27718083181E+02  0.60941594662E+00  0.29263182100E+02  0.00000000000E+00 0. -1.
         -1    1    1    2    0  502 -0.93632421510E+01  0.27718083181E+02  0.45017986059E+03  0.45112954827E+03  0.00000000000E+00 0. -1.
<mgrwt>
<rscale>  2 0.29256836E+02</rscale>
<asrwt>0</asrwt>
<pdfrwt beam="2">  1       21 0.22771891E-02 0.29256836E+02</pdfrwt>
<pdfrwt beam="1">  1       -1 0.71629374E-01 0.29256836E+02</pdfrwt>
<totfact> 0.16079538E+05</totfact>
</mgrwt>
</event>
<event>
 4    1  0.2260076E+006  0.2177356E+02  0.7546771E-02  0.1712198E+00
         21   -1    0    0  503  502  0.00000000000E+00  0.00000000000E+00  0.31993333009E+01  0.31993333009E+01  0.00000000000E+00 0.  1.
         -2   -1    0    0    0  501 -0.00000000000E+00 -0.00000000000E+00 -0.24614952081E+03  0.24614952081E+03  0.00000000000E+00 0.  1.
         21    1    1    2  503  501 -0.93902461719E+01  0.19644621984E+02 -0.42821970773E+02  0.48039661499E+02  0.00000000000E+00 0.  1.
         -2    1    1    2    0  502  0.93902461719E+01 -0.19644621984E+02 -0.20012821674E+03  0.20130919261E+03  0.00000000000E+00 0.  1.
<mgrwt>
<rscale>  2 0.21773560E+02</rscale>
<asrwt>0</asrwt>
<pdfrwt beam="1">  1       21 0.49220494E-03 0.21773560E+02</pdfrwt>
<pdfrwt beam="2">  1       -2 0.37869172E-01 0.21773560E+02</pdfrwt>
<totfact> 0.39355449E+06</totfact>
</mgrwt>
</event>
<event>
 4    1  0.2260076E+006  0.2415212E+02  0.7546771E-02  0.1673488E+00
         21   -1    0    0  503  502  0.00000000000E+00  0.00000000000E+00  0.43302574670E+01  0.43302574670E+01  0.00000000000E+00 0. -1.
         -1   -1    0    0    0  501 -0.00000000000E+00 -0.00000000000E+00 -0.20159091560E+03  0.20159091560E+03  0.00000000000E+00 0. -1.
         21    1    1    2  503  501  0.18964470605E+02 -0.14955726858E+02 -0.39325550657E+02  0.46150014579E+02  0.00000000000E+00 0. -1.
         -1    1    1    2    0  502 -0.18964470605E+02  0.14955726858E+02 -0.15793510748E+03  0.15977115849E+03  0.00000000000E+00 0. -1.
<mgrwt>
<rscale>  2 0.24152120E+02</rscale>
<asrwt>0</asrwt>
<pdfrwt beam="1">  1       21 0.66619360E-03 0.24152120E+02</pdfrwt>
<pdfrwt beam="2">  1       -1 0.31013980E-01 0.24152120E+02</pdfrwt>
<totfact> 0.42501025E+06</totfact>
</mgrwt>
</event>
<event>
 4    1  0.2260076E+006  0.3301169E+02  0.7546771E-02  0.1567001E+00
         21   -1    0    0  503  502  0.00000000000E+00  0.00000000000E+00  0.14011023818E+03  0.14011023818E+03  0.00000000000E+00 0. -1.
          4   -1    0    0  502    0 -0.00000000000E+00 -0.00000000000E+00 -0.19524248054E+02  0.19524248054E+02  0.00000000000E+00 0.  1.
         21    1    1    2  503  501 -0.63587294086E+01 -0.32393486157E+02  0.12220287285E+03  0.12658322763E+03  0.00000000000E+00 0. -1.
          4    1    1    2  501    0  0.63587294086E+01  0.32393486157E+02 -0.16168827283E+01  0.33051258597E+02  0.00000000000E+00 0.  1.
<mgrwt>
<rscale>  2 0.33011686E+02</rscale>
<asrwt>0</asrwt>
<pdfrwt beam="1">  1       21 0.21555421E-01 0.33011686E+02</pdfrwt>
<pdfrwt beam="2">  1        4 0.30037306E-02 0.33011686E+02</pdfrwt>
<totfact> 0.31703277E+05</totfact>
</mgrwt>
</event>
<event>
 4    1  0.2260076E+006  0.2139055E+02  0.7546771E-02  0.1719010E+00
          1   -1    0    0  503    0 -0.00000000000E+00  0.00000000000E+00  0.17763863235E+03  0.17763863235E+03  0.00000000000E+00 0. -1.
         21   -1    0    0  501  502  0.00000000000E+00 -0.00000000000E+00 -0.98588791674E+01  0.98588791674E+01  0.00000000000E+00 0.  1.
         21    1    1    2  503  502 -0.84100215554E+01  0.19667925652E+02  0.33130361460E+01  0.21645599334E+02  0.00000000000E+00 0.  1.
          1    1    1    2  501    0  0.84100215554E+01 -0.19667925652E+02  0.16446671704E+03  0.16585191218E+03  0.00000000000E+00 0. -1.
<mgrwt>
<rscale>  2 0.21390553E+02</rscale>
<asrwt>0</asrwt>
<pdfrwt beam="2">  1       21 0.15167508E-02 0.21390553E+02</pdfrwt>
<pdfrwt beam="1">  1        1 0.27329018E-01 0.21390553E+02</pdfrwt>
<totfact> 0.24766411E+06</totfact>
</mgrwt>
</event>
<event>
 4    1  0.2260076E+006  0.2838043E+02  0.7546771E-02  0.1616713E+00
          2   -1    0    0  503    0 -0.00000000000E+00  0.00000000000E+00  0.71492972526E+03  0.71492972526E+03  0.00000000000E+00 0.  1.
         21   -1    0    0  501  502  0.00000000000E+00 -0.00000000000E+00 -0.21988525277E+01  0.21988525277E+01  0.00000000000E+00 0.  1.
         21    1    1    2  503  502 -0.27449645013E+02  0.72087111959E+01  0.10597654497E+03  0.10971087736E+03  0.00000000000E+00 0.  1.
          2    1    1    2  501    0  0.27449645013E+02 -0.72087111959E+01  0.60675432777E+03  0.60741770043E+03  0.00000000000E+00 0.  1.
<mgrwt>
<rscale>  2 0.28380425E+02</rscale>
<asrwt>0</asrwt>
<pdfrwt beam="2">  1       21 0.33828557E-03 0.28380425E+02</pdfrwt>
<pdfrwt beam="1">  1        2 0.10998900E+00 0.28380425E+02</pdfrwt>
<totfact> 0.78130452E+06</totfact>
</mgrwt>
</event>
<event>
 4    1  0.2260076E+006  0.2575102E+02  0.7546771E-02  0.1650443E+00
          1   -1    0    0  502    0 -0.00000000000E+00  0.00000000000E+00  0.23632125016E+03  0.23632125016E+03  0.00000000000E+00 0.  1.
         21   -1    0    0  503  502  0.00000000000E+00 -0.00000000000E+00 -0.28112793664E+01  0.28112793664E+01  0.00000000000E+00 0.  1.
         21    1    1    2  503  501  0.25611622413E+02 -0.26757459549E+01  0.11156816555E+03  0.11450139905E+03  0.00000000000E+00 0.  1.
          1    1    1    2  501    0 -0.25611622413E+02  0.26757459549E+01  0.12194180524E+03  0.12463113048E+03  0.00000000000E+00 0.  1.
<mgrwt>
<rscale>  2 0.25751016E+02</rscale>
<asrwt>0</asrwt>
<pdfrwt beam="2">  1       21 0.43250470E-03 0.25751016E+02</pdfrwt>
<pdfrwt beam="1">  1        1 0.36357100E-01 0.25751016E+02</pdfrwt>
<totfact> 0.12181739E+07</totfact>
</mgrwt>
</event>
<event>
 4    1  0.2260076E+006  0.2596697E+02  0.7546771E-02  0.1647489E+00
         21   -1    0    0  501  502  0.00000000000E+00  0.00000000000E+00  0.21791428021E+03  0.21791428021E+03  0.00000000000E+00 0. -1.
          1   -1    0    0  503    0 -0.00000000000E+00 -0.00000000000E+00 -0.17651863392E+02  0.17651863392E+02  0.00000000000E+00 0.  1.
         21    1    1    2  503  502  0.36547756760E+01  0.25708479855E+02  0.20709395531E+03  0.20871557117E+03  0.00000000000E+00 0. -1.
          1    1    1    2  501    0 -0.36547756760E+01 -0.25708479855E+02 -0.68315384949E+01  0.26850572432E+02  0.00000000000E+00 0.  1.
<mgrwt>
<rscale>  2 0.25966966E+02</rscale>
<asrwt>0</asrwt>
<pdfrwt beam="1">  1       21 0.33525272E-01 0.25966966E+02</pdfrwt>
<pdfrwt beam="2">  1        1 0.27156714E-02 0.25966966E+02</pdfrwt>
<totfact> 0.28522435E+05</totfact>
</mgrwt>
</event>
<event>
 4    1  0.2260076E+006  0.3980767E+02  0.7546771E-02  0.1509632E+00
         -2   -1    0    0    0  501 -0.00000000000E+00  0.00000000000E+00  0.43618121952E+03  0.43618121952E+03  0.00000000000E+00 0. -1.
         21   -1    0    0  503  502  0.00000000000E+00 -0.00000000000E+00 -0.13430624331E+02  0.13430624331E+02  0.00000000000E+00 0. -1.
         21    1    1    2  503  501 -0.12644144014E+02  0.37746203870E+02  0.19367069697E+02  0.44268879284E+02  0.00000000000E+00 0. -1.
         -2    1    1    2    0  502  0.12644144014E+02 -0.37746203870E+02  0.40338352549E+03  0.40534296457E+03  0.00000000000E+00 0. -1.
<mgrwt>
<rscale>  2 0.39807666E+02</rscale>
<asrwt>0</asrwt>
<pdfrwt beam="2">  1       21 0.20662502E-02 0.39807666E+02</pdfrwt>
<pdfrwt beam="1">  1       -2 0.67104792E-01 0.39807666E+02</pdfrwt>
<totfact> 0.17019146E+05</totfact>
</mgrwt>
</event>
<event>
 4    1  0.2260076E+006  0.2247900E+02  0.7546771E-02  0.1700097E+00
          3   -1    0    0  502    0 -0.00000000000E+00  0.00000000000E+00  0.63986461759E+02  0.63986461759E+02  0.00000000000E+00 0.  1.
         21   -1    0    0  503  502  0.00000000000E+00 -0.00000000000E+00 -0.97090002515E+01  0.97090002515E+01  0.00000000000E+00 0.  1.
         21    1    1    2  503  501 -0.18744664603E+02  0.12407373209E+02  0.11220506495E+02  0.25123796032E+02  0.00000000000E+00 0.  1.
          3    1    1    2  501    0  0.18744664603E+02 -0.12407373209E+02  0.43056955012E+02  0.48571665979E+02  0.00000000000E+00 0.  1.
<mgrwt>
<rscale>  2 0.22478998E+02</rscale>
<asrwt>0</asrwt>
<pdfrwt beam="2">  1       21 0.14936924E-02 0.22478998E+02</pdfrwt>
<pdfrwt beam="1">  1        3 0.98440708E-02 0.22478998E+02</pdfrwt>
<totfact> 0.40388295E+06</totfact>
</mgrwt>
</event>
<event>
 4    1  0.2260076E+006  0.2027362E+02  0.7546771E-02  0.1739941E+00
         21   -1    0    0  503  502  0.00000000000E+00  0.00000000000E+00  0.53085318952E+03  0.53085318952E+03  0.00000000000E+00 0. -1.
          2   -1    0    0  502    0 -0.00000000000E+00 -0.00000000000E+00 -0.29138487790E+01  0.29138487790E+01  0.00000000000E+00 0. -1.
         21    1    1    2  503  501 -0.97430094325E+01 -0.17779020994E+02  0.49266280825E+03  0.49307977291E+03  0.00000000000E+00 0. -1.
          2    1    1    2  501    0  0.97430094325E+01  0.17779020994E+02  0.35276532496E+02  0.40687265394E+02  0.00000000000E+00 0. -1.
<mgrwt>
<rscale>  2 0.20273624E+02</rscale>
<asrwt>0</asrwt>
<pdfrwt beam="1">  1       21 0.81669645E-01 0.20273624E+02</pdfrwt>
<pdfrwt beam="2">  1        2 0.44828485E-03 0.20273624E+02</pdfrwt>
<totfact> 0.51536436E+05</totfact>
</mgrwt>
</event>
<event>
 4    1  0.2260076E+006  0.2311036E+02  0.7546771E-02  0.1689727E+00
         21   -1    0    0  501  502  0.00000000000E+00  0.00000000000E+00  0.14779195217E+03  0.14779195217E+03  0.00000000000E+00 0. -1.
          2   -1    0    0  503    0 -0.00000000000E+00 -0.00000000000E+00 -0.42580925701E+01  0.42580925701E+01  0.00000000000E+00 0. -1.
         21    1    1    2  503  502 -0.22884064856E+02  0.32262240224E+01  0.10133985212E+03  0.10394159213E+03  0.00000000000E+00 0. -1.
          2    1    1    2  501    0  0.22884064856E+02 -0.32262240224E+01  0.42194007474E+02  0.48108452609E+02  0.00000000000E+00 0. -1.
<mgrwt>
<rscale>  2 0.23110364E+02</rscale>
<asrwt>0</asrwt>
<pdfrwt beam="1">  1       21 0.22737219E-01 0.23110364E+02</pdfrwt>
<pdfrwt beam="2">  1        2 0.65509128E-03 0.23110364E+02</pdfrwt>
<totfact> 0.37158143E+06</totfact>
</mgrwt>
</event>
<event>
 4    1  0.2260076E+006  0.2259538E+02  0.7546771E-02  0.1698154E+00
         21   -1    0    0  501  502  0.00000000000E+00  0.00000000000E+00  0.63441620618E+02  0.63441620618E+02  0.00000000000E+00 0. -1.
         -1   -1    0    0    0  501 -0.00000000000E+00 -0.00000000000E+00 -0.16440812559E+03  0.16440812559E+03  0.00000000000E+00 0. -1.
         21    1    1    2  503  502  0.18304559805E+02 -0.13247425948E+02  0.60618397805E+02  0.64692668490E+02  0.00000000000E+00 0. -1.
         -1    1    1    2    0  503 -0.18304559805E+02  0.13247425948E+02 -0.16158490277E+03  0.16315707771E+03  0.00000000000E+00 0. -1.
<mgrwt>
<rscale>  2 0.22595380E+02</rscale>
<asrwt>0</asrwt>
<pdfrwt beam="1">  1       21 0.97602495E-02 0.22595380E+02</pdfrwt>
<pdfrwt beam="2">  1       -1 0.25293557E-01 0.22595380E+02</pdfrwt>
<totfact> 0.88836219E+04</totfact>
</mgrwt>
</event>
<event>
 4    1  0.2260076E+006  0.4322651E+02  0.7546771E-02  0.1485727E+00
         21   -1    0    0  503  502  0.00000000000E+00  0.00000000000E+00  0.15908879682E+01  0.15908879682E+01  0.00000000000E+00 0.  1.
          2   -1    0    0  502    0 -0.00000000000E+00 -0.00000000000E+00 -0.13185751693E+04  0.13185751693E+04  0.00000000000E+00 0.  1.
         21    1    1    2  503  501  0.43226509396E+02 -0.22854709143E-02 -0.44031500642E+03  0.44243173032E+03  0.00000000000E+00 0.  1.
          2    1    1    2  501    0 -0.43226509396E+02  0.22854709143E-02 -0.87666927489E+03  0.87773432692E+03  0.00000000000E+00 0.  1.
<mgrwt>
<rscale>  2 0.43226509E+02</rscale>
<asrwt>0</asrwt>
<pdfrwt beam="1">  1       21 0.24475150E-03 0.43226509E+02</pdfrwt>
<pdfrwt beam="2">  1        2 0.20285813E+00 0.43226509E+02</pdfrwt>
<totfact> 0.62262971E+06</totfact>
</mgrwt>
</event>
<event>
 4    1  0.2260076E+006  0.2020438E+02  0.7546771E-02  0.1741294E+00
         21   -1    0    0  501  502  0.00000000000E+00  0.00000000000E+00  0.12555311414E+02  0.12555311414E+02  0.00000000000E+00 0. -1.
         -2   -1    0    0    0  501 -0.00000000000E+00 -0.00000000000E+00 -0.37702685735E+02  0.37702685735E+02  0.00000000000E+00 0.  1.
         21    1    1    2  503  502 -0.19618951284E+02  0.48284381837E+01 -0.32510491401E+01  0.20464270944E+02  0.00000000000E+00 0. -1.
         -2    1    1    2    0  503  0.19618951284E+02 -0.48284381837E+01 -0.21896325181E+02  0.29793726205E+02  0.00000000000E+00 0.  1.
<mgrwt>
<rscale>  2 0.20204382E+02</rscale>
<asrwt>0</asrwt>
<pdfrwt beam="1">  1       21 0.19315864E-02 0.20204382E+02</pdfrwt>
<pdfrwt beam="2">  1       -2 0.58004131E-02 0.20204382E+02</pdfrwt>
<totfact> 0.93742180E+06</totfact>
</mgrwt>
</event>
<event>
 4    1  0.2260076E+006  0.2254708E+02  0.7546771E-02  0.1698959E+00
         -2   -1    0    0    0  501 -0.00000000000E+00  0.00000000000E+00  0.17559318361E+03  0.17559318361E+03  0.00000000000E+00 0. -1.
         21   -1    0    0  501  502  0.00000000000E+00 -0.00000000000E+00 -0.28247939945E+02  0.28247939945E+02  0.00000000000E+00 0. -1.
         21    1    1    2  503  502  0.20361674477E+02  0.96836577084E+01 -0.22883803642E+02  0.32125371332E+02  0.00000000000E+00 0. -1.
         -2    1    1    2    0  503 -0.20361674477E+02 -0.96836577084E+01  0.17022904731E+03  0.17171575222E+03  0.00000000000E+00 0. -1.
<mgrwt>
<rscale>  2 0.22547084E+02</rscale>
<asrwt>0</asrwt>
<pdfrwt beam="2">  1       21 0.43458370E-02 0.22547084E+02</pdfrwt>
<pdfrwt beam="1">  1       -2 0.27014335E-01 0.22547084E+02</pdfrwt>
<totfact> 0.26053394E+05</totfact>
</mgrwt>
</event>
<event>
 4    1  0.2260076E+006  0.2432963E+02  0.7546771E-02  0.1670822E+00
          3   -1    0    0  503    0 -0.00000000000E+00  0.00000000000E+00  0.18091159130E+02  0.18091159130E+02  0.00000000000E+00 0. -1.
         21   -1    0    0  501  502  0.00000000000E+00 -0.00000000000E+00 -0.47271619363E+02  0.47271619363E+02  0.00000000000E+00 0.  1.
         21    1    1    2  503  502 -0.16086943425E+02  0.18252154422E+02 -0.32723064549E+02  0.40776584498E+02  0.00000000000E+00 0.  1.
          3    1    1    2  501    0  0.16086943425E+02 -0.18252154422E+02  0.35426043165E+01  0.24586193995E+02  0.00000000000E+00 0. -1.
<mgrwt>
<rscale>  2 0.24329630E+02</rscale>
<asrwt>0</asrwt>
<pdfrwt beam="2">  1       21 0.72725567E-02 0.24329630E+02</pdfrwt>
<pdfrwt beam="1">  1        3 0.27832553E-02 0.24329630E+02</pdfrwt>
<totfact> 0.23619652E+06</totfact>
</mgrwt>
</event>
<event>
 4    1  0.2260076E+006  0.2030890E+02  0.7546771E-02  0.1739254E+00
         -1   -1    0    0    0  501 -0.00000000000E+00  0.00000000000E+00  0.13078009395E+03  0.13078009395E+03  0.00000000000E+00 0.  1.
         21   -1    0    0  501  502  0.00000000000E+00 -0.00000000000E+00 -0.26254568193E+02  0.26254568193E+02  0.00000000000E+00 0. -1.
         21    1    1    2  503  502 -0.14806414499E+02  0.13900418977E+02 -0.21387871885E+02  0.29493942121E+02  0.00000000000E+00 0. -1.
         -1    1    1    2    0  503  0.14806414499E+02 -0.13900418977E+02  0.12591339764E+03  0.12754072002E+03  0.00000000000E+00 0.  1.
<mgrwt>
<rscale>  2 0.20308903E+02</rscale>
<asrwt>0</asrwt>
<pdfrwt beam="2">  1       21 0.40391644E-02 0.20308903E+02</pdfrwt>
<pdfrwt beam="1">  1       -1 0.20120014E-01 0.20308903E+02</pdfrwt>
<totfact> 0.51105929E+05</totfact>
</mgrwt>
</event>
<event>
 4    1  0.2260076E+006  0.2608266E+02  0.7546771E-02  0.1645921E+00
          2   -1    0    0  503    0 -0.00000000000E+00  0.00000000000E+00  0.20393168799E+03  0.20393168799E+03  0.00000000000E+00 0.  1.
         21   -1    0    0  501  502  0.00000000000E+00 -0.00000000000E+00 -0.48395310831E+01  0.48395310831E+01  0.00000000000E+00 0.  1.
         21    1    1    2  503  502 -0.22850574224E+02 -0.12576035581E+02  0.41362186076E+02  0.48899241817E+02  0.00000000000E+00 0.  1.
          2    1    1    2  501    0  0.22850574224E+02  0.12576035581E+02  0.15772997083E+03  0.15987197725E+03  0.00000000000E+00 0.  1.
<mgrwt>
<rscale>  2 0.26082665E+02</rscale>
<asrwt>0</asrwt>
<pdfrwt beam="2">  1       21 0.74454340E-03 0.26082665E+02</pdfrwt>
<pdfrwt beam="1">  1        2 0.31374099E-01 0.26082665E+02</pdfrwt>
<totfact> 0.84982896E+06</totfact>
</mgrwt>
</event>
<event>
 4    1  0.2260076E+006  0.2128202E+02  0.7546771E-02  0.1720973E+00
         21   -1    0    0  501  502  0.00000000000E+00  0.00000000000E+00  0.51439621571E+01  0.51439621571E+01  0.00000000000E+00 0. -1.
          2   -1    0    0  503    0 -0.00000000000E+00 -0.00000000000E+00 -0.11225505422E+04  0.11225505422E+04  0.00000000000E+00 0. -1.
         21    1    1    2  503  502  0.12684805044E+02 -0.17088601685E+02 -0.17420860300E+02  0.27502926393E+02  0.00000000000E+00 0. -1.
          2    1    1    2  501    0 -0.12684805044E+02  0.17088601685E+02 -0.10999857198E+04  0.11001915780E+04  0.00000000000E+00 0. -1.
<mgrwt>
<rscale>  2 0.21282025E+02</rscale>
<asrwt>0</asrwt>
<pdfrwt beam="1">  1       21 0.79137872E-03 0.21282025E+02</pdfrwt>
<pdfrwt beam="2">  1        2 0.17270010E+00 0.21282025E+02</pdfrwt>
<totfact> 0.12206812E+06</totfact>
</mgrwt>
</event>
<event>
 4    1  0.2260076E+006  0.3931718E+02  0.7546771E-02  0.1513297E+00
         21   -1    0    0  501  502  0.00000000000E+00  0.00000000000E+00  0.13048145259E+04  0.13048145259E+04  0.00000000000E+00 0.  1.
          1   -1    0    0  503    0 -0.00000000000E+00 -0.00000000000E+00 -0.59749009800E+03  0.59749009800E+03  0.00000000000E+00 0.  1.
         21    1    1    2  503  502 -0.12452684081E+02  0.37293051324E+02  0.13038710716E+04  0.13044637260E+04  0.00000000000E+00 0.  1.
          1    1    1    2  501    0  0.12452684081E+02 -0.37293051324E+02 -0.59654664375E+03  0.59784089789E+03  0.00000000000E+00 0.  1.
<mgrwt>
<rscale>  2 0.39317185E+02</rscale>
<asrwt>0</asrwt>
<pdfrwt beam="1">  1       21 0.20074069E+00 0.39317185E+02</pdfrwt>
<pdfrwt beam="2">  1        1 0.91921554E-01 0.39317185E+02</pdfrwt>
<totfact> 0.73120910E+01</totfact>
</mgrwt>
</event>
<event>
 4    1  0.2260076E+006  0.2297716E+02  0.7546771E-02  0.1691881E+00
         -1   -1    0    0    0  501 -0.00000000000E+00  0.00000000000E+00  0.48268228069E+03  0.48268228069E+03  0.00000000000E+00 0.  1.
         21   -1    0    0  503  502  0.00000000000E+00 -0.00000000000E+00 -0.11145948918E+01  0.11145948918E+01  0.00000000000E+00 0. -1.
         21    1    1    2  503  501 -0.53701632141E+01 -0.22340793434E+02  0.20772941498E+03  0.20899631469E+03  0.00000000000E+00 0. -1.
         -1    1    1    2    0  502  0.53701632141E+01  0.22340793434E+02  0.27383827081E+03  0.27480056089E+03  0.00000000000E+00 0.  1.
<mgrwt>
<rscale>  2 0.22977156E+02</rscale>
<asrwt>0</asrwt>
<pdfrwt beam="2">  1       21 0.17147652E-03 0.22977156E+02</pdfrwt>
<pdfrwt beam="1">  1       -1 0.74258646E-01 0.22977156E+02</pdfrwt>
<totfact> 0.67467696E+06</totfact>
</mgrwt>
</event>
<event>
 4    1  0.2260076E+006  0.2103158E+02  0.7546771E-02  0.1725559E+00
         21   -1    0    0  501  502  0.00000000000E+00  0.00000000000E+00  0.22240814842E+03  0.22240814842E+03  0.00000000000E+00 0. -1.
         -1   -1    0    0    0  501 -0.00000000000E+00 -0.00000000000E+00 -0.20723058048E+01  0.20723058048E+01  0.00000000000E+00 0. -1.
         21    1    1    2  503  502 -0.49193734652E+01 -0.20448157189E+02  0.13269765560E+03  0.13435399201E+03  0.00000000000E+00 0. -1.
         -1    1    1    2    0  503  0.49193734652E+01  0.20448157189E+02  0.87638187018E+02  0.90126462216E+02  0.00000000000E+00 0. -1.
<mgrwt>
<rscale>  2 0.21031580E+02</rscale>
<asrwt>0</asrwt>
<pdfrwt beam="1">  1       21 0.34216619E-01 0.21031580E+02</pdfrwt>
<pdfrwt beam="2">  1       -1 0.31881645E-03 0.21031580E+02</pdfrwt>
<totfact> 0.43736843E+06</totfact>
</mgrwt>
</event>
<event>
 4    1  0.2260076E+006  0.3307811E+02  0.7546771E-02  0.1566361E+00
         21   -1    0    0  503  502  0.00000000000E+00  0.00000000000E+00  0.38064751784E+01  0.38064751784E+01  0.00000000000E+00 0. -1.
          1   -1    0    0  502    0 -0.00000000000E+00 -0.00000000000E+00 -0.56297013457E+03  0.56297013457E+03  0.00000000000E+00 0. -1.
         21    1    1    2  503  501 -0.23268443786E+02 -0.23510438318E+02 -0.81329632943E+02  0.87799034054E+02  0.00000000000E+00 0. -1.
          1    1    1    2  501    0  0.23268443786E+02  0.23510438318E+02 -0.47783402645E+03  0.47897757569E+03  0.00000000000E+00 0. -1.
<mgrwt>
<rscale>  2 0.33078107E+02</rscale>
<asrwt>0</asrwt>
<pdfrwt beam="1">  1       21 0.58561126E-03 0.33078107E+02</pdfrwt>
<pdfrwt beam="2">  1        1 0.86610835E-01 0.33078107E+02</pdfrwt>
<totfact> 0.29380154E+06</totfact>
</mgrwt>
</event>
<event>
 4    1  0.2260076E+006  0.2346265E+02  0.7546771E-02  0.1684119E+00
          1   -1    0    0  503    0 -0.00000000000E+00  0.00000000000E+00  0.44744007260E+03  0.44744007260E+03  0.00000000000E+00 0. -1.
         21   -1    0    0  501  502  0.00000000000E+00 -0.00000000000E+00 -0.15483157190E+01  0.15483157190E+01  0.00000000000E+00 0.  1.
         21    1    1    2  503  502 -0.79443017441E+01  0.22076770184E+02  0.12120766809E+03  0.12345766284E+03  0.00000000000E+00 0.  1.
          1    1    1    2  501    0  0.79443017441E+01 -0.22076770184E+02  0.32468408879E+03  0.32553072547E+03  0.00000000000E+00 0. -1.
<mgrwt>
<rscale>  2 0.23462645E+02</rscale>
<asrwt>0</asrwt>
<pdfrwt beam="2">  1       21 0.23820278E-03 0.23462645E+02</pdfrwt>
<pdfrwt beam="1">  1        1 0.68836831E-01 0.23462645E+02</pdfrwt>
<totfact> 0.13511548E+07</totfact>
</mgrwt>
</event>
<event>
 4    1  0.2260076E+006  0.2119261E+02  0.7546771E-02  0.1722601E+00
         -2   -1    0    0    0  501 -0.00000000000E+00  0.00000000000E+00  0.32524499902E+01  0.32524499902E+01  0.00000000000E+00 0.  1.
         21   -1    0    0  503  502  0.00000000000E+00 -0.00000000000E+00 -0.49706460848E+03  0.49706460848E+03  0.00000000000E+00 0. -1.
         21    1    1    2  503  501  0.18324267673E+02 -0.10646497836E+02 -0.45949543943E+03  0.45998389706E+03  0.00000000000E+00 0. -1.
         -2    1    1    2    0  502 -0.18324267673E+02  0.10646497836E+02 -0.34316719059E+02  0.40333161405E+02  0.00000000000E+00 0.  1.
<mgrwt>
<rscale>  2 0.21192610E+02</rscale>
<asrwt>0</asrwt>
<pdfrwt beam="2">  1       21 0.76471454E-01 0.21192610E+02</pdfrwt>
<pdfrwt beam="1">  1       -2 0.50037708E-03 0.21192610E+02</pdfrwt>
<totfact> 0.50143381E+05</totfact>
</mgrwt>
</event>
<event>
 4    1  0.2260076E+006  0.2601142E+02  0.7546771E-02  0.1646886E+00
         21   -1    0    0  503  502  0.00000000000E+00  0.00000000000E+00  0.51934913737E+03  0.51934913737E+03  0.00000000000E+00 0.  1.
          1   -1    0    0  502    0 -0.00000000000E+00 -0.00000000000E+00 -0.10507204960E+03  0.10507204960E+03  0.00000000000E+00 0.  1.
         21    1    1    2  503  501  0.20060744486E+02  0.16557785416E+02  0.51740757441E+03  0.51806099234E+03  0.00000000000E+00 0.  1.
          1    1    1    2  501    0 -0.20060744486E+02 -0.16557785416E+02 -0.10313048664E+03  0.10636019463E+03  0.00000000000E+00 0.  1.
<mgrwt>
<rscale>  2 0.26011415E+02</rscale>
<asrwt>0</asrwt>
<pdfrwt beam="1">  1       21 0.79899866E-01 0.26011415E+02</pdfrwt>
<pdfrwt beam="2">  1        1 0.16164931E-01 0.26011415E+02</pdfrwt>
<totfact> 0.53398735E+03</totfact>
</mgrwt>
</event>
<event>
 4    1  0.2260076E+006  0.2863407E+02  0.7546771E-02  0.1613697E+00
         21   -1    0    0  503  502  0.00000000000E+00  0.00000000000E+00  0.10710710243E+03  0.10710710243E+03  0.00000000000E+00 0.  1.
          2   -1    0    0  502    0 -0.00000000000E+00 -0.00000000000E+00 -0.84163169991E+01  0.84163169991E+01  0.00000000000E+00 0.  1.
         21    1    1    2  503  501 -0.17670012519E+02 -0.22531771931E+02  0.66717314300E+02  0.72602411228E+02  0.00000000000E+00 0.  1.
          2    1    1    2  501    0  0.17670012519E+02  0.22531771931E+02  0.31973471131E+02  0.42921008201E+02  0.00000000000E+00 0.  1.
<mgrwt>
<rscale>  2 0.28634072E+02</rscale>
<asrwt>0</asrwt>
<pdfrwt beam="1">  1       21 0.16478015E-01 0.28634072E+02</pdfrwt>
<pdfrwt beam="2">  1        2 0.12948181E-02 0.28634072E+02</pdfrwt>
<totfact> 0.28224748E+06</totfact>
</mgrwt>
</event>
<event>
 4    1  0.2260076E+006  0.2132502E+02  0.7546771E-02  0.1720194E+00
          2   -1    0    0  502    0 -0.00000000000E+00  0.00000000000E+00  0.11962166112E+04  0.11962166112E+04  0.00000000000E+00 0.  1.
         21   -1    0    0  503  502  0.00000000000E+00 -0.00000000000E+00 -0.41470751992E+00  0.41470751992E+00  0.00000000000E+00 0. -1.
         21    1    1    2  503  501 -0.20800300349E+02  0.47014986288E+01  0.42521669959E+03  0.42575109888E+03  0.00000000000E+00 0. -1.
          2    1    1    2  501    0  0.20800300349E+02 -0.47014986288E+01  0.77058520407E+03  0.77088021982E+03  0.00000000000E+00 0.  1.
<mgrwt>
<rscale>  2 0.21325022E+02</rscale>
<asrwt>0</asrwt>
<pdfrwt beam="2">  1       21 0.63802114E-04 0.21325022E+02</pdfrwt>
<pdfrwt beam="1">  1        2 0.18403056E+00 0.21325022E+02</pdfrwt>
<totfact> 0.42684291E+07</totfact>
</mgrwt>
</event>
<event>
 4    1  0.2260076E+006  0.2149040E+02  0.7546771E-02  0.1717217E+00
          2   -1    0    0  503    0 -0.00000000000E+00  0.00000000000E+00  0.40269169703E+02  0.40269169703E+02  0.00000000000E+00 0.  1.
         21   -1    0    0  501  502  0.00000000000E+00 -0.00000000000E+00 -0.30002109993E+02  0.30002109993E+02  0.00000000000E+00 0.  1.
         21    1    1    2  503  502  0.18352849103E+02 -0.11180802935E+02 -0.22481717413E+02  0.31100884912E+02  0.00000000000E+00 0.  1.
          2    1    1    2  501    0 -0.18352849103E+02  0.11180802935E+02  0.32748777123E+02  0.39170394784E+02  0.00000000000E+00 0.  1.
<mgrwt>
<rscale>  2 0.21490403E+02</rscale>
<asrwt>0</asrwt>
<pdfrwt beam="2">  1       21 0.46157092E-02 0.21490403E+02</pdfrwt>
<pdfrwt beam="1">  1        2 0.61952569E-02 0.21490403E+02</pdfrwt>
<totfact> 0.29627268E+06</totfact>
</mgrwt>
</event>
<event>
 4    1  0.2260076E+006  0.3093650E+02  0.7546771E-02  0.1587962E+00
         21   -1    0    0  501  502  0.00000000000E+00  0.00000000000E+00  0.18545928408E+03  0.18545928408E+03  0.00000000000E+00 0. -1.
         -3   -1    0    0    0  501 -0.00000000000E+00 -0.00000000000E+00 -0.58488203624E+02  0.58488203624E+02  0.00000000000E+00 0. -1.
         21    1    1    2  503  502  0.83483435370E+01  0.29788792903E+02  0.17995406050E+03  0.18259389615E+03  0.00000000000E+00 0. -1.
         -3    1    1    2    0  503 -0.83483435370E+01 -0.29788792903E+02 -0.52982980041E+02  0.61353591553E+02  0.00000000000E+00 0. -1.
<mgrwt>
<rscale>  2 0.30936500E+02</rscale>
<asrwt>0</asrwt>
<pdfrwt beam="1">  1       21 0.28532197E-01 0.30936500E+02</pdfrwt>
<pdfrwt beam="2">  1       -3 0.89981853E-02 0.30936500E+02</pdfrwt>
<totfact> 0.40748217E+04</totfact>
</mgrwt>
</event>
<event>
 4    1  0.2260076E+006  0.3247287E+02  0.7546771E-02  0.1572260E+00
         21   -1    0    0  501  502  0.00000000000E+00  0.00000000000E+00  0.38231141651E+02  0.38231141651E+02  0.00000000000E+00 0.  1.
          1   -1    0    0  503    0 -0.00000000000E+00 -0.00000000000E+00 -0.52936817587E+02  0.52936817587E+02  0.00000000000E+00 0. -1.
         21    1    1    2  503  502  0.17509450874E+02 -0.27347874337E+02  0.24194630869E+02  0.40495274583E+02  0.00000000000E+00 0.  1.
          1    1    1    2  501    0 -0.17509450874E+02  0.27347874337E+02 -0.38900306805E+02  0.50672684655E+02  0.00000000000E+00 0. -1.
<mgrwt>
<rscale>  2 0.32472867E+02</rscale>
<asrwt>0</asrwt>
<pdfrwt beam="1">  1       21 0.58817141E-02 0.32472867E+02</pdfrwt>
<pdfrwt beam="2">  1        1 0.81441257E-02 0.32472867E+02</pdfrwt>
<totfact> 0.14248955E+06</totfact>
</mgrwt>
</event>
<event>
 4    1  0.2260076E+006  0.2097235E+02  0.7546771E-02  0.1726655E+00
         -2   -1    0    0    0  501 -0.00000000000E+00  0.00000000000E+00  0.15132546670E+03  0.15132546670E+03  0.00000000000E+00 0.  1.
         21   -1    0    0  503  502  0.00000000000E+00 -0.00000000000E+00 -0.32079246936E+01  0.32079246936E+01  0.00000000000E+00 0.  1.
         21    1    1    2  503  501  0.14267003456E+02 -0.15371801624E+02  0.50377142373E+02  0.54568270510E+02  0.00000000000E+00 0.  1.
         -2    1    1    2    0  502 -0.14267003456E+02  0.15371801624E+02  0.97740399638E+02  0.99965120888E+02  0.00000000000E+00 0.  1.
<mgrwt>
<rscale>  2 0.20972355E+02</rscale>
<asrwt>0</asrwt>
<pdfrwt beam="2">  1       21 0.49352699E-03 0.20972355E+02</pdfrwt>
<pdfrwt beam="1">  1       -2 0.23280835E-01 0.20972355E+02</pdfrwt>
<totfact> 0.89121211E+06</totfact>
</mgrwt>
</event>
<event>
 4    1  0.2260076E+006  0.2284229E+02  0.7546771E-02  0.1694079E+00
          3   -1    0    0  502    0 -0.00000000000E+00  0.00000000000E+00  0.76870976515E+01  0.76870976515E+01  0.00000000000E+00 0. -1.
         21   -1    0    0  503  502  0.00000000000E+00 -0.00000000000E+00 -0.11888057966E+03  0.11888057966E+03  0.00000000000E+00 0. -1.
         21    1    1    2  503  501 -0.21562723587E+02 -0.75378581188E+01 -0.97048354317E+02  0.99700318100E+02  0.00000000000E+00 0. -1.
          3    1    1    2  501    0  0.21562723587E+02  0.75378581188E+01 -0.14145127688E+02  0.26867359208E+02  0.00000000000E+00 0. -1.
<mgrwt>
<rscale>  2 0.22842293E+02</rscale>
<asrwt>0</asrwt>
<pdfrwt beam="2">  1       21 0.18289319E-01 0.22842293E+02</pdfrwt>
<pdfrwt beam="1">  1        3 0.11826305E-02 0.22842293E+02</pdfrwt>
<totfact> 0.17067644E+06</totfact>
</mgrwt>
</event>
<event>
 4    1  0.2260076E+006  0.2306935E+02  0.7546771E-02  0.1690389E+00
          3   -1    0    0  502    0 -0.00000000000E+00  0.00000000000E+00  0.57837266214E+01  0.57837266214E+01  0.00000000000E+00 0.  1.
         21   -1    0    0  503  502  0.00000000000E+00 -0.00000000000E+00 -0.30977573419E+03  0.30977573419E+03  0.00000000000E+00 0. -1.
         21    1    1    2  503  501 -0.21965827490E+02  0.70496195547E+01 -0.28428277530E+03  0.28521726989E+03  0.00000000000E+00 0. -1.
          3    1    1    2  501    0  0.21965827490E+02 -0.70496195547E+01 -0.19709232274E+02  0.30342190923E+02  0.00000000000E+00 0.  1.
<mgrwt>
<rscale>  2 0.23069346E+02</rscale>
<asrwt>0</asrwt>
<pdfrwt beam="2">  1       21 0.47657797E-01 0.23069346E+02</pdfrwt>
<pdfrwt beam="1">  1        3 0.88980425E-03 0.23069346E+02</pdfrwt>
<totfact> 0.44977160E+05</totfact>
</mgrwt>
</event>
<event>
 4    1  0.2260076E+006  0.2470613E+02  0.7546771E-02  0.1665259E+00
         21   -1    0    0  503  502  0.00000000000E+00  0.00000000000E+00  0.84135670157E+01  0.84135670157E+01  0.00000000000E+00 0.  1.
         -2   -1    0    0    0  501 -0.00000000000E+00 -0.00000000000E+00 -0.13019498218E+03  0.13019498218E+03  0.00000000000E+00 0. -1.
         21    1    1    2  503  501  0.24272463824E+02  0.46087026394E+01 -0.14775000912E+02  0.28787033402E+02  0.00000000000E+00 0.  1.
         -2    1    1    2    0  502 -0.24272463824E+02 -0.46087026394E+01 -0.10700641425E+03  0.10982151579E+03  0.00000000000E+00 0. -1.
<mgrwt>
<rscale>  2 0.24706126E+02</rscale>
<asrwt>0</asrwt>
<pdfrwt beam="1">  1       21 0.12943950E-02 0.24706126E+02</pdfrwt>
<pdfrwt beam="2">  1       -2 0.20029996E-01 0.24706126E+02</pdfrwt>
<totfact> 0.28358469E+06</totfact>
</mgrwt>
</event>
<event>
 4    1  0.2260076E+006  0.2792427E+02  0.7546771E-02  0.1622236E+00
         21   -1    0    0  503  502  0.00000000000E+00  0.00000000000E+00  0.12956223765E+03  0.12956223765E+03  0.00000000000E+00 0. -1.
         -1   -1    0    0    0  501 -0.00000000000E+00 -0.00000000000E+00 -0.96166101387E+02  0.96166101387E+02  0.00000000000E+00 0.  1.
         21    1    1    2  503  501  0.72059869774E+01 -0.26978479645E+02  0.12597343656E+03  0.12903128044E+03  0.00000000000E+00 0. -1.
         -1    1    1    2    0  502 -0.72059869774E+01  0.26978479645E+02 -0.92577300296E+02  0.96697058602E+02  0.00000000000E+00 0.  1.
<mgrwt>
<rscale>  2 0.27924266E+02</rscale>
<asrwt>0</asrwt>
<pdfrwt beam="1">  1       21 0.19932652E-01 0.27924266E+02</pdfrwt>
<pdfrwt beam="2">  1       -1 0.14794785E-01 0.27924266E+02</pdfrwt>
<totfact> 0.61127764E+04</totfact>
</mgrwt>
</event>
<event>
 4    1  0.2260076E+006  0.2107072E+02  0.7546771E-02  0.1724837E+00
         -1   -1    0    0    0  501 -0.00000000000E+00  0.00000000000E+00  0.15822843164E+02  0.15822843164E+02  0.00000000000E+00 0. -1.
         21   -1    0    0  501  502  0.00000000000E+00 -0.00000000000E+00 -0.99420633271E+02  0.99420633271E+02  0.00000000000E+00 0.  1.
         21    1    1    2  503  502  0.89572239251E+01 -0.19072061607E+02 -0.90616902889E+02  0.93034394089E+02  0.00000000000E+00 0.  1.
         -1    1    1    2    0  503 -0.89572239251E+01  0.19072061607E+02  0.70191127815E+01  0.22209082345E+02  0.00000000000E+00 0. -1.
<mgrwt>
<rscale>  2 0.21070724E+02</rscale>
<asrwt>0</asrwt>
<pdfrwt beam="2">  1       21 0.15295482E-01 0.21070724E+02</pdfrwt>
<pdfrwt beam="1">  1       -1 0.24342836E-02 0.21070724E+02</pdfrwt>
<totfact> 0.11842144E+06</totfact>
</mgrwt>
</event>
<event>
 4    1  0.2260076E+006  0.2753583E+02  0.7546771E-02  0.1627041E+00
          3   -1    0    0  502    0 -0.00000000000E+00  0.00000000000E+00  0.83381834014E+03  0.83381834014E+03  0.00000000000E+00 0.  1.
         21   -1    0    0  503  502  0.00000000000E+00 -0.00000000000E+00 -0.12232959836E+01  0.12232959836E+01  0.00000000000E+00 0.  1.
         21    1    1    2  503  501 -0.26095308545E+02  0.87895717722E+01  0.20477873063E+03  0.20662175640E+03  0.00000000000E+00 0.  1.
          3    1    1    2  501    0  0.26095308545E+02 -0.87895717722E+01  0.62781631353E+03  0.62841987972E+03  0.00000000000E+00 0.  1.
<mgrwt>
<rscale>  2 0.27535826E+02</rscale>
<asrwt>0</asrwt>
<pdfrwt beam="2">  1       21 0.18820005E-03 0.27535826E+02</pdfrwt>
<pdfrwt beam="1">  1        3 0.12827929E+00 0.27535826E+02</pdfrwt>
<totfact> 0.81681358E+05</totfact>
</mgrwt>
</event>
<event>
 4    1  0.2260076E+006  0.3369746E+02  0.7546771E-02  0.1560481E+00
          2   -1    0    0  502    0 -0.00000000000E+00  0.00000000000E+00  0.56121818663E+03  0.56121818663E+03  0.00000000000E+00 0. -1.
         21   -1    0    0  503  502  0.00000000000E+00 -0.00000000000E+00 -0.39303346865E+02  0.39303346865E+02  0.00000000000E+00 0.  1.
         21    1    1    2  503  501 -0.33477212553E+02 -0.38464483532E+01 -0.31472619669E+02  0.46109052409E+02  0.00000000000E+00 0.  1.
          2    1    1    2  501    0  0.33477212553E+02  0.38464483532E+01  0.55338745943E+03  0.55441248109E+03  0.00000000000E+00 0. -1.
<mgrwt>
<rscale>  2 0.33697462E+02</rscale>
<asrwt>0</asrwt>
<pdfrwt beam="2">  1       21 0.60466691E-02 0.33697462E+02</pdfrwt>
<pdfrwt beam="1">  1        2 0.86341254E-01 0.33697462E+02</pdfrwt>
<totfact> 0.12308746E+05</totfact>
</mgrwt>
</event>
<event>
 4    1  0.2260076E+006  0.2353570E+02  0.7546771E-02  0.1682971E+00
         21   -1    0    0  501  502  0.00000000000E+00  0.00000000000E+00  0.68647315756E+00  0.68647315756E+00  0.00000000000E+00 0.  1.
          2   -1    0    0  503    0 -0.00000000000E+00 -0.00000000000E+00 -0.80823610889E+03  0.80823610889E+03  0.00000000000E+00 0. -1.
         21    1    1    2  503  502 -0.21733525727E+02 -0.90323261469E+01 -0.42009485333E+03  0.42075362726E+03  0.00000000000E+00 0.  1.
          2    1    1    2  501    0  0.21733525727E+02  0.90323261469E+01 -0.38745478240E+03  0.38816895479E+03  0.00000000000E+00 0. -1.
<mgrwt>
<rscale>  2 0.23535697E+02</rscale>
<asrwt>0</asrwt>
<pdfrwt beam="1">  1       21 0.10561073E-03 0.23535697E+02</pdfrwt>
<pdfrwt beam="2">  1        2 0.12434464E+00 0.23535697E+02</pdfrwt>
<totfact> 0.35002788E+07</totfact>
</mgrwt>
</event>
<event>
 4    1  0.2260076E+006  0.2704058E+02  0.7546771E-02  0.1633311E+00
         21   -1    0    0  501  502  0.00000000000E+00  0.00000000000E+00  0.18068722854E+03  0.18068722854E+03  0.00000000000E+00 0. -1.
         -3   -1    0    0    0  501 -0.00000000000E+00 -0.00000000000E+00 -0.13476917773E+03  0.13476917773E+03  0.00000000000E+00 0.  1.
         21    1    1    2  503  502 -0.19371971576E+02  0.18865839743E+02  0.17830111582E+03  0.18033990434E+03  0.00000000000E+00 0. -1.
         -3    1    1    2    0  503  0.19371971576E+02 -0.18865839743E+02 -0.13238306501E+03  0.13511650193E+03  0.00000000000E+00 0.  1.
<mgrwt>
<rscale>  2 0.27040584E+02</rscale>
<asrwt>0</asrwt>
<pdfrwt beam="1">  1       21 0.27798035E-01 0.27040584E+02</pdfrwt>
<pdfrwt beam="2">  1       -3 0.20733720E-01 0.27040584E+02</pdfrwt>
<totfact> 0.10722965E+04</totfact>
</mgrwt>
</event>
<event>
 4    1  0.2260076E+006  0.2347254E+02  0.7546771E-02  0.1683963E+00
          1   -1    0    0  502    0 -0.00000000000E+00  0.00000000000E+00  0.35373787391E+03  0.35373787391E+03  0.00000000000E+00 0.  1.
         21   -1    0    0  503  502  0.00000000000E+00 -0.00000000000E+00 -0.44993772023E+02  0.44993772023E+02  0.00000000000E+00 0. -1.
         21    1    1    2  503  501 -0.37582397984E+01 -0.23169715112E+02 -0.41512683359E+02  0.47689233003E+02  0.00000000000E+00 0. -1.
          1    1    1    2  501    0  0.37582397984E+01  0.23169715112E+02  0.35025678525E+03  0.35104241293E+03  0.00000000000E+00 0.  1.
<mgrwt>
<rscale>  2 0.23472539E+02</rscale>
<asrwt>0</asrwt>
<pdfrwt beam="2">  1       21 0.69221190E-02 0.23472539E+02</pdfrwt>
<pdfrwt beam="1">  1        1 0.54421209E-01 0.23472539E+02</pdfrwt>
<totfact> 0.10592567E+05</totfact>
</mgrwt>
</event>
<event>
 4    1  0.2260076E+006  0.3576258E+02  0.7546771E-02  0.1541931E+00
          2   -1    0    0  502    0 -0.00000000000E+00  0.00000000000E+00  0.57913841348E+03  0.57913841348E+03  0.00000000000E+00 0.  1.
         21   -1    0    0  503  502  0.00000000000E+00 -0.00000000000E+00 -0.65913507393E+03  0.65913507393E+03  0.00000000000E+00 0.  1.
         21    1    1    2  503  501  0.31164377620E+02 -0.17542628512E+02 -0.65809701564E+03  0.65906801185E+03  0.00000000000E+00 0.  1.
          2    1    1    2  501    0 -0.31164377620E+02  0.17542628512E+02  0.57810035519E+03  0.57920547556E+03  0.00000000000E+00 0.  1.
<mgrwt>
<rscale>  2 0.35762582E+02</rscale>
<asrwt>0</asrwt>
<pdfrwt beam="2">  1       21 0.10140540E+00 0.35762582E+02</pdfrwt>
<pdfrwt beam="1">  1        2 0.89098218E-01 0.35762582E+02</pdfrwt>
<totfact> 0.64331103E+02</totfact>
</mgrwt>
</event>
<event>
 4    1  0.2260076E+006  0.2200100E+02  0.7546771E-02  0.1708235E+00
         21   -1    0    0  501  502  0.00000000000E+00  0.00000000000E+00  0.24462879812E+01  0.24462879812E+01  0.00000000000E+00 0. -1.
          2   -1    0    0  503    0 -0.00000000000E+00 -0.00000000000E+00 -0.21194702474E+03  0.21194702474E+03  0.00000000000E+00 0. -1.
         21    1    1    2  503  502 -0.20915039291E+02  0.68268085687E+01 -0.77122919145E+02  0.80199681054E+02  0.00000000000E+00 0. -1.
          2    1    1    2  501    0  0.20915039291E+02 -0.68268085687E+01 -0.13237781762E+03  0.13419363167E+03  0.00000000000E+00 0. -1.
<mgrwt>
<rscale>  2 0.22001004E+02</rscale>
<asrwt>0</asrwt>
<pdfrwt beam="1">  1       21 0.37635179E-03 0.22001004E+02</pdfrwt>
<pdfrwt beam="2">  1        2 0.32607252E-01 0.22001004E+02</pdfrwt>
<totfact> 0.21346487E+07</totfact>
</mgrwt>
</event>
<event>
 4    1  0.2260076E+006  0.1042672E+03  0.7546771E-02  0.1271570E+00
          1   -1    0    0  502    0 -0.00000000000E+00  0.00000000000E+00  0.17585694496E+03  0.17585694496E+03  0.00000000000E+00 0.  1.
         21   -1    0    0  503  502  0.00000000000E+00 -0.00000000000E+00 -0.10481694566E+03  0.10481694566E+03  0.00000000000E+00 0. -1.
         21    1    1    2  503  501 -0.98979422161E+02  0.32782879142E+02 -0.54361493930E+02  0.11758747892E+03  0.00000000000E+00 0. -1.
          1    1    1    2  501    0  0.98979422161E+02 -0.32782879142E+02  0.12540149323E+03  0.16308641170E+03  0.00000000000E+00 0.  1.
<mgrwt>
<rscale>  2 0.10426717E+03</rscale>
<asrwt>0</asrwt>
<pdfrwt beam="2">  1       21 0.16125684E-01 0.10426717E+03</pdfrwt>
<pdfrwt beam="1">  1        1 0.27054915E-01 0.10426717E+03</pdfrwt>
<totfact> 0.63416610E+04</totfact>
</mgrwt>
</event>
<event>
 4    1  0.2260076E+006  0.3703206E+02  0.7546771E-02  0.1531262E+00
         21   -1    0    0  503  502  0.00000000000E+00  0.00000000000E+00  0.17517594348E+03  0.17517594348E+03  0.00000000000E+00 0.  1.
          3   -1    0    0  502    0 -0.00000000000E+00 -0.00000000000E+00 -0.10994716588E+02  0.10994716588E+02  0.00000000000E+00 0. -1.
         21    1    1    2  503  501  0.13250439620E+02 -0.34580333363E+02  0.13204298533E+03  0.13713760820E+03  0.00000000000E+00 0.  1.
          3    1    1    2  501    0 -0.13250439620E+02  0.34580333363E+02  0.32138241562E+02  0.49033051877E+02  0.00000000000E+00 0. -1.
<mgrwt>
<rscale>  2 0.37032062E+02</rscale>
<asrwt>0</asrwt>
<pdfrwt beam="1">  1       21 0.26950143E-01 0.37032062E+02</pdfrwt>
<pdfrwt beam="2">  1        3 0.16914950E-02 0.37032062E+02</pdfrwt>
<totfact> 0.58924047E+05</totfact>
</mgrwt>
</event>
<event>
 4    1  0.2260076E+006  0.2659529E+02  0.7546771E-02  0.1639092E+00
          1   -1    0    0  502    0 -0.00000000000E+00  0.00000000000E+00  0.77237080916E+03  0.77237080916E+03  0.00000000000E+00 0.  1.
         21   -1    0    0  503  502  0.00000000000E+00 -0.00000000000E+00 -0.17064840851E+01  0.17064840851E+01  0.00000000000E+00 0.  1.
         21    1    1    2  503  501 -0.53196259685E+01 -0.26057836998E+02  0.12187219786E+03  0.12474029783E+03  0.00000000000E+00 0.  1.
          1    1    1    2  501    0  0.53196259685E+01  0.26057836998E+02  0.64879212721E+03  0.64933699542E+03  0.00000000000E+00 0.  1.
<mgrwt>
<rscale>  2 0.26595287E+02</rscale>
<asrwt>0</asrwt>
<pdfrwt beam="2">  1       21 0.26253663E-03 0.26595287E+02</pdfrwt>
<pdfrwt beam="1">  1        1 0.11882600E+00 0.26595287E+02</pdfrwt>
<totfact> 0.60767885E+06</totfact>
</mgrwt>
</event>
<event>
 4    1  0.2260076E+006  0.2246092E+02  0.7546771E-02  0.1700400E+00
         21   -1    0    0  503  502  0.00000000000E+00  0.00000000000E+00  0.21473474394E+01  0.21473474394E+01  0.00000000000E+00 0. -1.
          2   -1    0    0  502    0 -0.00000000000E+00 -0.00000000000E+00 -0.23517127460E+03  0.23517127460E+03  0.00000000000E+00 0. -1.
         21    1    1    2  503  501 -0.14774089052E+02  0.16918015245E+02 -0.12025124750E+03  0.12233092606E+03  0.00000000000E+00 0. -1.
          2    1    1    2  501    0  0.14774089052E+02 -0.16918015245E+02 -0.11277267967E+03  0.11498769598E+03  0.00000000000E+00 0. -1.
<mgrwt>
<rscale>  2 0.22460920E+02</rscale>
<asrwt>0</asrwt>
<pdfrwt beam="1">  1       21 0.33036100E-03 0.22460920E+02</pdfrwt>
<pdfrwt beam="2">  1        2 0.36180212E-01 0.22460920E+02</pdfrwt>
<totfact> 0.23427914E+07</totfact>
</mgrwt>
</event>
<event>
 4    1  0.2260076E+006  0.2675141E+02  0.7546771E-02  0.1637049E+00
          1   -1    0    0  502    0 -0.00000000000E+00  0.00000000000E+00  0.28827571477E+03  0.28827571477E+03  0.00000000000E+00 0. -1.
         21   -1    0    0  503  502  0.00000000000E+00 -0.00000000000E+00 -0.38773605660E+02  0.38773605660E+02  0.00000000000E+00 0. -1.
         21    1    1    2  503  501 -0.15622163269E+02 -0.21716026774E+02 -0.33452194678E+02  0.42833247984E+02  0.00000000000E+00 0. -1.
          1    1    1    2  501    0  0.15622163269E+02  0.21716026774E+02  0.28295430379E+03  0.28421607244E+03  0.00000000000E+00 0. -1.
<mgrwt>
<rscale>  2 0.26751408E+02</rscale>
<asrwt>0</asrwt>
<pdfrwt beam="2">  1       21 0.59651703E-02 0.26751408E+02</pdfrwt>
<pdfrwt beam="1">  1        1 0.44350108E-01 0.26751408E+02</pdfrwt>
<totfact> 0.17344674E+05</totfact>
</mgrwt>
</event>
<event>
 4    1  0.2260076E+006  0.2496576E+02  0.7546771E-02  0.1661494E+00
         21   -1    0    0  501  502  0.00000000000E+00  0.00000000000E+00  0.40553652179E+01  0.40553652179E+01  0.00000000000E+00 0. -1.
          3   -1    0    0  503    0 -0.00000000000E+00 -0.00000000000E+00 -0.61191144272E+03  0.61191144272E+03  0.00000000000E+00 0. -1.
         21    1    1    2  503  502 -0.24785710697E+02 -0.29929157342E+01 -0.37415035073E+02  0.44979704855E+02  0.00000000000E+00 0. -1.
          3    1    1    2  501    0  0.24785710697E+02  0.29929157342E+01 -0.57044104243E+03  0.57098710308E+03  0.00000000000E+00 0. -1.
<mgrwt>
<rscale>  2 0.24965757E+02</rscale>
<asrwt>0</asrwt>
<pdfrwt beam="1">  1       21 0.62390213E-03 0.24965757E+02</pdfrwt>
<pdfrwt beam="2">  1        3 0.94140254E-01 0.24965757E+02</pdfrwt>
<totfact> 0.26992084E+05</totfact>
</mgrwt>
</event>
<event>
 4    1  0.2260076E+006  0.2354555E+02  0.7546771E-02  0.1682816E+00
          3   -1    0    0  503    0 -0.00000000000E+00  0.00000000000E+00  0.96473583635E+01  0.96473583635E+01  0.00000000000E+00 0. -1.
         21   -1    0    0  501  502  0.00000000000E+00 -0.00000000000E+00 -0.19711172999E+03  0.19711172999E+03  0.00000000000E+00 0. -1.
         21    1    1    2  503  502  0.19325625736E+02 -0.13450400132E+02 -0.18074686720E+03  0.18227403292E+03  0.00000000000E+00 0. -1.
          3    1    1    2  501    0 -0.19325625736E+02  0.13450400132E+02 -0.67175044224E+01  0.24485055431E+02  0.00000000000E+00 0. -1.
<mgrwt>
<rscale>  2 0.23545553E+02</rscale>
<asrwt>0</asrwt>
<pdfrwt beam="2">  1       21 0.30324882E-01 0.23545553E+02</pdfrwt>
<pdfrwt beam="1">  1        3 0.14842089E-02 0.23545553E+02</pdfrwt>
<totfact> 0.50710694E+05</totfact>
</mgrwt>
</event>
<event>
 4    1  0.2260076E+006  0.4662318E+02  0.7546771E-02  0.1464456E+00
         21   -1    0    0  501  502  0.00000000000E+00  0.00000000000E+00  0.59247829778E+02  0.59247829778E+02  0.00000000000E+00 0. -1.
          4   -1    0    0  503    0 -0.00000000000E+00 -0.00000000000E+00 -0.46605043908E+02  0.46605043908E+02  0.00000000000E+00 0.  1.
         21    1    1    2  503  502  0.43437930371E+02 -0.16937152395E+02  0.30735104374E+02  0.55842345644E+02  0.00000000000E+00 0. -1.
          4    1    1    2  501    0 -0.43437930371E+02  0.16937152395E+02 -0.18092318504E+02  0.50010528041E+02  0.00000000000E+00 0.  1.
<mgrwt>
<rscale>  2 0.46623180E+02</rscale>
<asrwt>0</asrwt>
<pdfrwt beam="1">  1       21 0.91150507E-02 0.46623180E+02</pdfrwt>
<pdfrwt beam="2">  1        4 0.71700068E-02 0.46623180E+02</pdfrwt>
<totfact> 0.40085500E+05</totfact>
</mgrwt>
</event>
<event>
 4    1  0.2260076E+006  0.2707731E+02  0.7546771E-02  0.1632841E+00
         21   -1    0    0  501  502  0.00000000000E+00  0.00000000000E+00  0.75663150160E+02  0.75663150160E+02  0.00000000000E+00 0. -1.
          1   -1    0    0  503    0 -0.00000000000E+00 -0.00000000000E+00 -0.13999226268E+03  0.13999226268E+03  0.00000000000E+00 0. -1.
         21    1    1    2  503  502  0.20787925318E+02 -0.17350590596E+02  0.71864395295E+02  0.76796302933E+02  0.00000000000E+00 0. -1.
          1    1    1    2  501    0 -0.20787925318E+02  0.17350590596E+02 -0.13619350781E+03  0.13885910991E+03  0.00000000000E+00 0. -1.
<mgrwt>
<rscale>  2 0.27077312E+02</rscale>
<asrwt>0</asrwt>
<pdfrwt beam="1">  1       21 0.11640485E-01 0.27077312E+02</pdfrwt>
<pdfrwt beam="2">  1        1 0.21537271E-01 0.27077312E+02</pdfrwt>
<totfact> 0.13473636E+05</totfact>
</mgrwt>
</event>
<event>
 4    1  0.2260076E+006  0.2486451E+02  0.7546771E-02  0.1662956E+00
         -4   -1    0    0    0  501 -0.00000000000E+00  0.00000000000E+00  0.88010851304E+01  0.88010851304E+01  0.00000000000E+00 0. -1.
         21   -1    0    0  501  502  0.00000000000E+00 -0.00000000000E+00 -0.20879817180E+03  0.20879817180E+03  0.00000000000E+00 0.  1.
         21    1    1    2  503  502  0.63552358680E+01  0.24038615073E+02 -0.18862639028E+03  0.19025813819E+03  0.00000000000E+00 0.  1.
         -4    1    1    2    0  503 -0.63552358680E+01 -0.24038615073E+02 -0.11370696389E+02  0.27341118740E+02  0.00000000000E+00 0. -1.
<mgrwt>
<rscale>  2 0.24864514E+02</rscale>
<asrwt>0</asrwt>
<pdfrwt beam="2">  1       21 0.32122796E-01 0.24864514E+02</pdfrwt>
<pdfrwt beam="1">  1       -4 0.13540131E-02 0.24864514E+02</pdfrwt>
<totfact> 0.45830265E+05</totfact>
</mgrwt>
</event>
<event>
 4    1  0.2260076E+006  0.2412484E+02  0.7546771E-02  0.1673900E+00
         21   -1    0    0  503  502  0.00000000000E+00  0.00000000000E+00  0.30427999715E+01  0.30427999715E+01  0.00000000000E+00 0. -1.
         -1   -1    0    0    0  501 -0.00000000000E+00 -0.00000000000E+00 -0.24972060309E+03  0.24972060309E+03  0.00000000000E+00 0. -1.
         21    1    1    2  503  501 -0.14627863273E+02  0.19184196121E+02 -0.62197192738E+02  0.66712057001E+02  0.00000000000E+00 0. -1.
         -1    1    1    2    0  502  0.14627863273E+02 -0.19184196121E+02 -0.18448061038E+03  0.18605134606E+03  0.00000000000E+00 0. -1.
<mgrwt>
<rscale>  2 0.24124837E+02</rscale>
<asrwt>0</asrwt>
<pdfrwt beam="1">  1       21 0.46812298E-03 0.24124837E+02</pdfrwt>
<pdfrwt beam="2">  1       -1 0.38418562E-01 0.24124837E+02</pdfrwt>
<totfact> 0.50612281E+06</totfact>
</mgrwt>
</event>
<event>
 4    1  0.2260076E+006  0.2824060E+02  0.7546771E-02  0.1618392E+00
         21   -1    0    0  503  502  0.00000000000E+00  0.00000000000E+00  0.21116610142E+03  0.21116610142E+03  0.00000000000E+00 0.  1.
         -1   -1    0    0    0  501 -0.00000000000E+00 -0.00000000000E+00 -0.16767550262E+03  0.16767550262E+03  0.00000000000E+00 0. -1.
         21    1    1    2  503  501  0.28090704649E+02  0.29057814203E+01  0.20902065316E+03  0.21091980632E+03  0.00000000000E+00 0.  1.
         -1    1    1    2    0  502 -0.28090704649E+02 -0.29057814203E+01 -0.16553005436E+03  0.16792179772E+03  0.00000000000E+00 0. -1.
<mgrwt>
<rscale>  2 0.28240596E+02</rscale>
<asrwt>0</asrwt>
<pdfrwt beam="1">  1       21 0.32487093E-01 0.28240596E+02</pdfrwt>
<pdfrwt beam="2">  1       -1 0.25796231E-01 0.28240596E+02</pdfrwt>
<totfact> 0.10844185E+04</totfact>
</mgrwt>
</event>
<event>
 4    1  0.2260076E+006  0.2458916E+02  0.7546771E-02  0.1666974E+00
         21   -1    0    0  503  502  0.00000000000E+00  0.00000000000E+00  0.80296736760E+02  0.80296736760E+02  0.00000000000E+00 0. -1.
         -1   -1    0    0    0  501 -0.00000000000E+00 -0.00000000000E+00 -0.49827503120E+02  0.49827503120E+02  0.00000000000E+00 0. -1.
         21    1    1    2  503  501 -0.24321275501E+02 -0.36197441680E+01  0.75179413092E+02  0.79098490141E+02  0.00000000000E+00 0. -1.
         -1    1    1    2    0  502  0.24321275501E+02  0.36197441680E+01 -0.44710179452E+02  0.51025749739E+02  0.00000000000E+00 0. -1.
<mgrwt>
<rscale>  2 0.24589164E+02</rscale>
<asrwt>0</asrwt>
<pdfrwt beam="1">  1       21 0.12353344E-01 0.24589164E+02</pdfrwt>
<pdfrwt beam="2">  1       -1 0.76657697E-02 0.24589164E+02</pdfrwt>
<totfact> 0.35604145E+05</totfact>
</mgrwt>
</event>
<event>
 4    1  0.2260076E+006  0.2096259E+02  0.7546771E-02  0.1726837E+00
         21   -1    0    0  501  502  0.00000000000E+00  0.00000000000E+00  0.17469361529E+01  0.17469361529E+01  0.00000000000E+00 0. -1.
          1   -1    0    0  503    0 -0.00000000000E+00 -0.00000000000E+00 -0.25154363790E+03  0.25154363790E+03  0.00000000000E+00 0. -1.
         21    1    1    2  503  502 -0.20960447889E+02  0.29992684418E+00 -0.12478641573E+03  0.12653489591E+03  0.00000000000E+00 0. -1.
          1    1    1    2  501    0  0.20960447889E+02 -0.29992684418E+00 -0.12501028601E+03  0.12675567814E+03  0.00000000000E+00 0. -1.
<mgrwt>
<rscale>  2 0.20962594E+02</rscale>
<asrwt>0</asrwt>
<pdfrwt beam="1">  1       21 0.26875966E-03 0.20962594E+02</pdfrwt>
<pdfrwt beam="2">  1        1 0.38698984E-01 0.20962594E+02</pdfrwt>
<totfact> 0.21360253E+07</totfact>
</mgrwt>
</event>
<event>
 4    1  0.2260076E+006  0.2637445E+02  0.7546771E-02  0.1642010E+00
         21   -1    0    0  503  502  0.00000000000E+00  0.00000000000E+00  0.25756430776E+01  0.25756430776E+01  0.00000000000E+00 0. -1.
          2   -1    0    0  502    0 -0.00000000000E+00 -0.00000000000E+00 -0.13649997216E+04  0.13649997216E+04  0.00000000000E+00 0.  1.
         21    1    1    2  503  501 -0.25843562289E+02 -0.52651699475E+01 -0.68794650279E+02  0.73677103861E+02  0.00000000000E+00 0. -1.
          2    1    1    2  501    0  0.25843562289E+02  0.52651699475E+01 -0.12936294282E+04  0.12938982608E+04  0.00000000000E+00 0.  1.
<mgrwt>
<rscale>  2 0.26374452E+02</rscale>
<asrwt>0</asrwt>
<pdfrwt beam="1">  1       21 0.39625200E-03 0.26374452E+02</pdfrwt>
<pdfrwt beam="2">  1        2 0.21000037E+00 0.26374452E+02</pdfrwt>
<totfact> 0.26741098E+06</totfact>
</mgrwt>
</event>
<event>
 4    1  0.2260076E+006  0.2793762E+02  0.7546771E-02  0.1622072E+00
          2   -1    0    0  503    0 -0.00000000000E+00  0.00000000000E+00  0.84290970383E+03  0.84290970383E+03  0.00000000000E+00 0.  1.
         21   -1    0    0  501  502  0.00000000000E+00 -0.00000000000E+00 -0.10929699626E+01  0.10929699626E+01  0.00000000000E+00 0. -1.
         21    1    1    2  503  502  0.21721451850E+02  0.17569558544E+02  0.25595348008E+03  0.25747367792E+03  0.00000000000E+00 0. -1.
          2    1    1    2  501    0 -0.21721451850E+02 -0.17569558544E+02  0.58586325379E+03  0.58652899587E+03  0.00000000000E+00 0.  1.
<mgrwt>
<rscale>  2 0.27937624E+02</rscale>
<asrwt>0</asrwt>
<pdfrwt beam="2">  1       21 0.16814990E-03 0.27937624E+02</pdfrwt>
<pdfrwt beam="1">  1        2 0.12967790E+00 0.27937624E+02</pdfrwt>
<totfact> 0.17902336E+07</totfact>
</mgrwt>
</event>
<event>
 4    1  0.2260076E+006  0.2556364E+02  0.7546771E-02  0.1653036E+00
          1   -1    0    0  503    0 -0.00000000000E+00  0.00000000000E+00  0.11824100831E+04  0.11824100831E+04  0.00000000000E+00 0.  1.
         21   -1    0    0  501  502  0.00000000000E+00 -0.00000000000E+00 -0.62832727486E+00  0.62832727486E+00  0.00000000000E+00 0. -1.
         21    1    1    2  503  502  0.45138041161E+01 -0.25161980115E+02  0.38565194299E+03  0.38649828047E+03  0.00000000000E+00 0. -1.
          1    1    1    2  501    0 -0.45138041161E+01  0.25161980115E+02  0.79612981279E+03  0.79654012986E+03  0.00000000000E+00 0.  1.
<mgrwt>
<rscale>  2 0.25563640E+02</rscale>
<asrwt>0</asrwt>
<pdfrwt beam="2">  1       21 0.96666681E-04 0.25563640E+02</pdfrwt>
<pdfrwt beam="1">  1        1 0.18190746E+00 0.25563640E+02</pdfrwt>
<totfact> 0.13265640E+07</totfact>
</mgrwt>
</event>
<event>
 4    1  0.2260076E+006  0.2261045E+02  0.7546771E-02  0.1697903E+00
          2   -1    0    0  502    0 -0.00000000000E+00  0.00000000000E+00  0.38755936926E+03  0.38755936926E+03  0.00000000000E+00 0.  1.
         21   -1    0    0  503  502  0.00000000000E+00 -0.00000000000E+00 -0.52332968550E+01  0.52332968550E+01  0.00000000000E+00 0. -1.
         21    1    1    2  503  501  0.16645319242E+02  0.15302480367E+02  0.21312628856E+02  0.31071863588E+02  0.00000000000E+00 0. -1.
          2    1    1    2  501    0 -0.16645319242E+02 -0.15302480367E+02  0.36101344354E+03  0.36172080252E+03  0.00000000000E+00 0.  1.
<mgrwt>
<rscale>  2 0.22610452E+02</rscale>
<asrwt>0</asrwt>
<pdfrwt beam="2">  1       21 0.80512290E-03 0.22610452E+02</pdfrwt>
<pdfrwt beam="1">  1        2 0.59624496E-01 0.22610452E+02</pdfrwt>
<totfact> 0.38535820E+06</totfact>
</mgrwt>
</event>
<event>
 4    1  0.2260076E+006  0.2306783E+02  0.7546771E-02  0.1690413E+00
          3   -1    0    0  503    0 -0.00000000000E+00  0.00000000000E+00  0.24393049853E+01  0.24393049853E+01  0.00000000000E+00 0. -1.
         21   -1    0    0  501  502  0.00000000000E+00 -0.00000000000E+00 -0.23166176957E+03  0.23166176957E+03  0.00000000000E+00 0. -1.
         21    1    1    2  503  502 -0.13587081877E+02  0.18641777452E+02 -0.14288387368E+03  0.14473398363E+03  0.00000000000E+00 0. -1.
          3    1    1    2  501    0  0.13587081877E+02 -0.18641777452E+02 -0.86338590910E+02  0.89367090927E+02  0.00000000000E+00 0. -1.
<mgrwt>
<rscale>  2 0.23067827E+02</rscale>
<asrwt>0</asrwt>
<pdfrwt beam="2">  1       21 0.35640277E-01 0.23067827E+02</pdfrwt>
<pdfrwt beam="1">  1        3 0.37527764E-03 0.23067827E+02</pdfrwt>
<totfact> 0.26416380E+06</totfact>
</mgrwt>
</event>
<event>
 4    1  0.2260076E+006  0.2865456E+02  0.7546771E-02  0.1613455E+00
          2   -1    0    0  503    0 -0.00000000000E+00  0.00000000000E+00  0.54549529093E+03  0.54549529093E+03  0.00000000000E+00 0.  1.
         21   -1    0    0  501  502  0.00000000000E+00 -0.00000000000E+00 -0.84059140300E+02  0.84059140300E+02  0.00000000000E+00 0.  1.
         21    1    1    2  503  502  0.21756510607E+02 -0.18647739135E+02 -0.81228124718E+02  0.86134152193E+02  0.00000000000E+00 0.  1.
          2    1    1    2  501    0 -0.21756510607E+02  0.18647739135E+02  0.54266427534E+03  0.54342027903E+03  0.00000000000E+00 0.  1.
<mgrwt>
<rscale>  2 0.28654562E+02</rscale>
<asrwt>0</asrwt>
<pdfrwt beam="2">  1       21 0.12932176E-01 0.28654562E+02</pdfrwt>
<pdfrwt beam="1">  1        2 0.83922351E-01 0.28654562E+02</pdfrwt>
<totfact> 0.35482210E+04</totfact>
</mgrwt>
</event>
<event>
 4    1  0.2260076E+006  0.2657808E+02  0.7546771E-02  0.1639318E+00
         21   -1    0    0  503  502  0.00000000000E+00  0.00000000000E+00  0.38069342410E+02  0.38069342410E+02  0.00000000000E+00 0. -1.
         -1   -1    0    0    0  501 -0.00000000000E+00 -0.00000000000E+00 -0.15340894108E+03  0.15340894108E+03  0.00000000000E+00 0.  1.
         21    1    1    2  503  501 -0.23695721857E+02  0.12037732360E+02  0.32092769246E+02  0.41669414114E+02  0.00000000000E+00 0. -1.
         -1    1    1    2    0  502  0.23695721857E+02 -0.12037732360E+02 -0.14743236791E+03  0.14980886937E+03  0.00000000000E+00 0.  1.
<mgrwt>
<rscale>  2 0.26578078E+02</rscale>
<asrwt>0</asrwt>
<pdfrwt beam="1">  1       21 0.58568220E-02 0.26578078E+02</pdfrwt>
<pdfrwt beam="2">  1       -1 0.23601375E-01 0.26578078E+02</pdfrwt>
<totfact> 0.23314137E+05</totfact>
</mgrwt>
</event>
<event>
 4    1  0.2260076E+006  0.2150406E+02  0.7546771E-02  0.1716973E+00
          2   -1    0    0  502    0 -0.00000000000E+00  0.00000000000E+00  0.12466075425E+04  0.12466075425E+04  0.00000000000E+00 0.  1.
         21   -1    0    0  503  502  0.00000000000E+00 -0.00000000000E+00 -0.66635700611E+00  0.66635700611E+00  0.00000000000E+00 0.  1.
         21    1    1    2  503  501  0.95731294015E+01 -0.19255638121E+02  0.20773793884E+03  0.20884797255E+03  0.00000000000E+00 0.  1.
          2    1    1    2  501    0 -0.95731294015E+01  0.19255638121E+02  0.10382032467E+04  0.10384259270E+04  0.00000000000E+00 0.  1.
<mgrwt>
<rscale>  2 0.21504056E+02</rscale>
<asrwt>0</asrwt>
<pdfrwt beam="2">  1       21 0.10251746E-03 0.21504056E+02</pdfrwt>
<pdfrwt beam="1">  1        2 0.19178391E+00 0.21504056E+02</pdfrwt>
<totfact> 0.20644735E+07</totfact>
</mgrwt>
</event>
<event>
 4    1  0.2260076E+006  0.2362090E+02  0.7546771E-02  0.1681639E+00
         21   -1    0    0  503  502  0.00000000000E+00  0.00000000000E+00  0.25602350047E+03  0.25602350047E+03  0.00000000000E+00 0.  1.
         -2   -1    0    0    0  501 -0.00000000000E+00 -0.00000000000E+00 -0.16146967455E+02  0.16146967455E+02  0.00000000000E+00 0.  1.
         21    1    1    2  503  501 -0.27849258366E+01  0.23456154371E+02  0.24650738861E+03  0.24763650706E+03  0.00000000000E+00 0.  1.
         -2    1    1    2    0  502  0.27849258366E+01 -0.23456154371E+02 -0.66308555938E+01  0.24533960865E+02  0.00000000000E+00 0.  1.
<mgrwt>
<rscale>  2 0.23620902E+02</rscale>
<asrwt>0</asrwt>
<pdfrwt beam="1">  1       21 0.39388228E-01 0.23620902E+02</pdfrwt>
<pdfrwt beam="2">  1       -2 0.24841490E-02 0.23620902E+02</pdfrwt>
<totfact> 0.21575087E+05</totfact>
</mgrwt>
</event>
<event>
 4    1  0.2260076E+006  0.2715300E+02  0.7546771E-02  0.1631874E+00
         -4   -1    0    0    0  501 -0.00000000000E+00  0.00000000000E+00  0.21518438196E+01  0.21518438196E+01  0.00000000000E+00 0.  1.
         21   -1    0    0  501  502  0.00000000000E+00 -0.00000000000E+00 -0.35705023348E+03  0.35705023348E+03  0.00000000000E+00 0.  1.
         21    1    1    2  503  502  0.15830163431E+02 -0.22061083291E+02 -0.21354325778E+03  0.21526264984E+03  0.00000000000E+00 0.  1.
         -4    1    1    2    0  503 -0.15830163431E+02  0.22061083291E+02 -0.14135513188E+03  0.14393942746E+03  0.00000000000E+00 0.  1.
<mgrwt>
<rscale>  2 0.27153001E+02</rscale>
<asrwt>0</asrwt>
<pdfrwt beam="2">  1       21 0.54930822E-01 0.27153001E+02</pdfrwt>
<pdfrwt beam="1">  1       -4 0.33105279E-03 0.27153001E+02</pdfrwt>
<totfact> 0.12757043E+06</totfact>
</mgrwt>
</event>
<event>
 4    1  0.2260076E+006  0.3093838E+02  0.7546771E-02  0.1587942E+00
         21   -1    0    0  501  502  0.00000000000E+00  0.00000000000E+00  0.24830825552E+02  0.24830825552E+02  0.00000000000E+00 0.  1.
          2   -1    0    0  503    0 -0.00000000000E+00 -0.00000000000E+00 -0.19849935930E+04  0.19849935930E+04  0.00000000000E+00 0. -1.
         21    1    1    2  503  502  0.12359070208E+01 -0.30913680910E+02  0.15025389832E+02  0.34393974373E+02  0.00000000000E+00 0.  1.
          2    1    1    2  501    0 -0.12359070208E+01  0.30913680910E+02 -0.19751881573E+04  0.19754304442E+04  0.00000000000E+00 0. -1.
<mgrwt>
<rscale>  2 0.30938376E+02</rscale>
<asrwt>0</asrwt>
<pdfrwt beam="1">  1       21 0.38201252E-02 0.30938376E+02</pdfrwt>
<pdfrwt beam="2">  1        2 0.30538378E+00 0.30938376E+02</pdfrwt>
<totfact> 0.43442209E+04</totfact>
</mgrwt>
</event>
<event>
 4    1  0.2260076E+006  0.2661783E+02  0.7546771E-02  0.1638796E+00
         21   -1    0    0  503  502  0.00000000000E+00  0.00000000000E+00  0.12087637221E+02  0.12087637221E+02  0.00000000000E+00 0. -1.
          2   -1    0    0  502    0 -0.00000000000E+00 -0.00000000000E+00 -0.80300867924E+03  0.80300867924E+03  0.00000000000E+00 0. -1.
         21    1    1    2  503  501 -0.22144046496E+02 -0.14769910966E+02 -0.30683429375E+01  0.26794099976E+02  0.00000000000E+00 0. -1.
          2    1    1    2  501    0  0.22144046496E+02  0.14769910966E+02 -0.78785269908E+03  0.78830221649E+03  0.00000000000E+00 0. -1.
<mgrwt>
<rscale>  2 0.26617834E+02</rscale>
<asrwt>0</asrwt>
<pdfrwt beam="1">  1       21 0.18596364E-02 0.26617834E+02</pdfrwt>
<pdfrwt beam="2">  1        2 0.12353981E+00 0.26617834E+02</pdfrwt>
<totfact> 0.52337675E+05</totfact>
</mgrwt>
</event>
<event>
 4    1  0.2260076E+006  0.3799833E+02  0.7546771E-02  0.1523480E+00
         21   -1    0    0  501  502  0.00000000000E+00  0.00000000000E+00  0.38408030851E+02  0.38408030851E+02  0.00000000000E+00 0. -1.
          2   -1    0    0  503    0 -0.00000000000E+00 -0.00000000000E+00 -0.66259961480E+02  0.66259961480E+02  0.00000000000E+00 0.  1.
         21    1    1    2  503  502  0.37400139364E+02  0.67158679579E+01  0.20497065062E+02  0.43174100837E+02  0.00000000000E+00 0. -1.
          2    1    1    2  501    0 -0.37400139364E+02 -0.67158679579E+01 -0.48348995691E+02  0.61493891495E+02  0.00000000000E+00 0.  1.
<mgrwt>
<rscale>  2 0.37998333E+02</rscale>
<asrwt>0</asrwt>
<pdfrwt beam="1">  1       21 0.59089279E-02 0.37998333E+02</pdfrwt>
<pdfrwt beam="2">  1        2 0.10193840E-01 0.37998333E+02</pdfrwt>
<totfact> 0.12462207E+06</totfact>
</mgrwt>
</event>
<event>
 4    1  0.2260076E+006  0.2242100E+02  0.7546771E-02  0.1701071E+00
          2   -1    0    0  502    0 -0.00000000000E+00  0.00000000000E+00  0.50632223792E+03  0.50632223792E+03  0.00000000000E+00 0.  1.
         21   -1    0    0  503  502  0.00000000000E+00 -0.00000000000E+00 -0.11827782220E+01  0.11827782220E+01  0.00000000000E+00 0.  1.
         21    1    1    2  503  501  0.18942409381E+02  0.11995270222E+02  0.15088519418E+03  0.15254193917E+03  0.00000000000E+00 0.  1.
          2    1    1    2  501    0 -0.18942409381E+02 -0.11995270222E+02  0.35425426551E+03  0.35496307697E+03  0.00000000000E+00 0.  1.
<mgrwt>
<rscale>  2 0.22421003E+02</rscale>
<asrwt>0</asrwt>
<pdfrwt beam="2">  1       21 0.18196628E-03 0.22421003E+02</pdfrwt>
<pdfrwt beam="1">  1        2 0.77895556E-01 0.22421003E+02</pdfrwt>
<totfact> 0.26021077E+07</totfact>
</mgrwt>
</event>
<event>
 4    1  0.2260076E+006  0.2577828E+02  0.7546771E-02  0.1650068E+00
         21   -1    0    0  503  502  0.00000000000E+00  0.00000000000E+00  0.47711909551E+02  0.47711909551E+02  0.00000000000E+00 0.  1.
          3   -1    0    0  502    0 -0.00000000000E+00 -0.00000000000E+00 -0.10250339437E+03  0.10250339437E+03  0.00000000000E+00 0. -1.
         21    1    1    2  503  501 -0.24795057374E+02 -0.70515689223E+01  0.42423032569E+02  0.49641043369E+02  0.00000000000E+00 0.  1.
          3    1    1    2  501    0  0.24795057374E+02  0.70515689223E+01 -0.97214517387E+02  0.10057426055E+03  0.00000000000E+00 0. -1.
<mgrwt>
<rscale>  2 0.25778276E+02</rscale>
<asrwt>0</asrwt>
<pdfrwt beam="1">  1       21 0.73402937E-02 0.25778276E+02</pdfrwt>
<pdfrwt beam="2">  1        3 0.15769753E-01 0.25778276E+02</pdfrwt>
<totfact> 0.16353999E+05</totfact>
</mgrwt>
</event>
<event>
 4    1  0.2260076E+006  0.2257125E+02  0.7546771E-02  0.1698556E+00
          2   -1    0    0  502    0 -0.00000000000E+00  0.00000000000E+00  0.15459220385E+04  0.15459220385E+04  0.00000000000E+00 0.  1.
         21   -1    0    0  503  502  0.00000000000E+00 -0.00000000000E+00 -0.85120949069E+02  0.85120949069E+02  0.00000000000E+00 0. -1.
         21    1    1    2  503  501  0.20376627623E+01 -0.22479088157E+02 -0.83540743165E+02  0.86536219252E+02  0.00000000000E+00 0. -1.
          2    1    1    2  501    0 -0.20376627623E+01  0.22479088157E+02  0.15443418326E+04  0.15445067683E+04  0.00000000000E+00 0.  1.
<mgrwt>
<rscale>  2 0.22571253E+02</rscale>
<asrwt>0</asrwt>
<pdfrwt beam="2">  1       21 0.13095532E-01 0.22571253E+02</pdfrwt>
<pdfrwt beam="1">  1        2 0.23783414E+00 0.22571253E+02</pdfrwt>
<totfact> 0.93915478E+03</totfact>
</mgrwt>
</event>
<event>
 4    1  0.2260076E+006  0.3992031E+02  0.7546771E-02  0.1508799E+00
         21   -1    0    0  501  502  0.00000000000E+00  0.00000000000E+00  0.28710659571E+01  0.28710659571E+01  0.00000000000E+00 0.  1.
          2   -1    0    0  503    0 -0.00000000000E+00 -0.00000000000E+00 -0.73071621060E+03  0.73071621060E+03  0.00000000000E+00 0.  1.
         21    1    1    2  503  502  0.31131655284E+02  0.24989018509E+02 -0.18408857425E+03  0.18836728531E+03  0.00000000000E+00 0.  1.
          2    1    1    2  501    0 -0.31131655284E+02 -0.24989018509E+02 -0.54375657039E+03  0.54521999125E+03  0.00000000000E+00 0.  1.
<mgrwt>
<rscale>  2 0.39920308E+02</rscale>
<asrwt>0</asrwt>
<pdfrwt beam="1">  1       21 0.44170206E-03 0.39920308E+02</pdfrwt>
<pdfrwt beam="2">  1        2 0.11241798E+00 0.39920308E+02</pdfrwt>
<totfact> 0.55007780E+06</totfact>
</mgrwt>
</event>
<event>
 4    1  0.2260076E+006  0.2596346E+02  0.7546771E-02  0.1647537E+00
         21   -1    0    0  501  502  0.00000000000E+00  0.00000000000E+00  0.22224222696E+02  0.22224222696E+02  0.00000000000E+00 0.  1.
          1   -1    0    0  503    0 -0.00000000000E+00 -0.00000000000E+00 -0.22848094068E+03  0.22848094068E+03  0.00000000000E+00 0.  1.
         21    1    1    2  503  502  0.15216577395E+02 -0.21037044480E+02  0.13607518298E+02  0.29313239710E+02  0.00000000000E+00 0.  1.
          1    1    1    2  501    0 -0.15216577395E+02  0.21037044480E+02 -0.21986423628E+03  0.22139192366E+03  0.00000000000E+00 0.  1.
<mgrwt>
<rscale>  2 0.25963464E+02</rscale>
<asrwt>0</asrwt>
<pdfrwt beam="1">  1       21 0.34191114E-02 0.25963464E+02</pdfrwt>
<pdfrwt beam="2">  1        1 0.35150912E-01 0.25963464E+02</pdfrwt>
<totfact> 0.54899475E+05</totfact>
</mgrwt>
</event>
<event>
 4    1  0.2260076E+006  0.2287612E+02  0.7546771E-02  0.1693526E+00
         21   -1    0    0  501  502  0.00000000000E+00  0.00000000000E+00  0.39249210558E+02  0.39249210558E+02  0.00000000000E+00 0.  1.
         -3   -1    0    0    0  501 -0.00000000000E+00 -0.00000000000E+00 -0.59166471835E+02  0.59166471835E+02  0.00000000000E+00 0. -1.
         21    1    1    2  503  502 -0.19445375677E+02  0.12049648387E+02  0.33351252982E+02  0.40442832949E+02  0.00000000000E+00 0.  1.
         -3    1    1    2    0  503  0.19445375677E+02 -0.12049648387E+02 -0.53268514258E+02  0.57972849445E+02  0.00000000000E+00 0. -1.
<mgrwt>
<rscale>  2 0.22876116E+02</rscale>
<asrwt>0</asrwt>
<pdfrwt beam="1">  1       21 0.60383401E-02 0.22876116E+02</pdfrwt>
<pdfrwt beam="2">  1       -3 0.91025341E-02 0.22876116E+02</pdfrwt>
<totfact> 0.52116242E+05</totfact>
</mgrwt>
</event>
<event>
 4    1  0.2260076E+006  0.2556670E+02  0.7546771E-02  0.1652993E+00
          2   -1    0    0  503    0 -0.00000000000E+00  0.00000000000E+00  0.27389209148E+03  0.27389209148E+03  0.00000000000E+00 0.  1.
         21   -1    0    0  501  502  0.00000000000E+00 -0.00000000000E+00 -0.85643589300E+01  0.85643589300E+01  0.00000000000E+00 0. -1.
         21    1    1    2  503  502 -0.25346090511E+02  0.33513615796E+01  0.12716292755E+02  0.28554509803E+02  0.00000000000E+00 0. -1.
          2    1    1    2  501    0  0.25346090511E+02 -0.33513615796E+01  0.25261143979E+03  0.25390194061E+03  0.00000000000E+00 0.  1.
<mgrwt>
<rscale>  2 0.25566696E+02</rscale>
<asrwt>0</asrwt>
<pdfrwt beam="2">  1       21 0.13175939E-02 0.25566696E+02</pdfrwt>
<pdfrwt beam="1">  1        2 0.42137238E-01 0.25566696E+02</pdfrwt>
<totfact> 0.26611899E+06</totfact>
</mgrwt>
</event>
<event>
 4    1  0.2260076E+006  0.2660348E+02  0.7546771E-02  0.1638984E+00
         21   -1    0    0  501  502  0.00000000000E+00  0.00000000000E+00  0.11067478251E+01  0.11067478251E+01  0.00000000000E+00 0. -1.
          2   -1    0    0  503    0 -0.00000000000E+00 -0.00000000000E+00 -0.63958219743E+03  0.63958219743E+03  0.00000000000E+00 0. -1.
         21    1    1    2  503  502  0.22480584203E+02 -0.14225619464E+02 -0.32325446910E+03  0.32434733961E+03  0.00000000000E+00 0. -1.
          2    1    1    2  501    0 -0.22480584203E+02  0.14225619464E+02 -0.31522098051E+03  0.31634160565E+03  0.00000000000E+00 0. -1.
<mgrwt>
<rscale>  2 0.26603476E+02</rscale>
<asrwt>0</asrwt>
<pdfrwt beam="1">  1       21 0.17026922E-03 0.26603476E+02</pdfrwt>
<pdfrwt beam="2">  1        2 0.98397074E-01 0.26603476E+02</pdfrwt>
<totfact> 0.23609841E+07</totfact>
</mgrwt>
</event>
<event>
 4    1  0.2260076E+006  0.4932365E+02  0.7546771E-02  0.1449024E+00
         21   -1    0    0  503  502  0.00000000000E+00  0.00000000000E+00  0.17022823003E+02  0.17022823003E+02  0.00000000000E+00 0.  1.
          2   -1    0    0  502    0 -0.00000000000E+00 -0.00000000000E+00 -0.72895197721E+03  0.72895197721E+03  0.00000000000E+00 0.  1.
         21    1    1    2  503  501 -0.31625556423E+02  0.37850317728E+02 -0.21533144348E+02  0.53819129282E+02  0.00000000000E+00 0.  1.
          2    1    1    2  501    0  0.31625556423E+02 -0.37850317728E+02 -0.69039600986E+03  0.69215567093E+03  0.00000000000E+00 0.  1.
<mgrwt>
<rscale>  2 0.49323649E+02</rscale>
<asrwt>0</asrwt>
<pdfrwt beam="1">  1       21 0.26188969E-02 0.49323649E+02</pdfrwt>
<pdfrwt beam="2">  1        2 0.11214641E+00 0.49323649E+02</pdfrwt>
<totfact> 0.36683639E+05</totfact>
</mgrwt>
</event>
<event>
 4    1  0.2260076E+006  0.2477760E+02  0.7546771E-02  0.1664217E+00
          2   -1    0    0  503    0 -0.00000000000E+00  0.00000000000E+00  0.99896227897E+03  0.99896227897E+03  0.00000000000E+00 0. -1.
         21   -1    0    0  501  502  0.00000000000E+00 -0.00000000000E+00 -0.41570273519E+01  0.41570273519E+01  0.00000000000E+00 0. -1.
         21    1    1    2  503  502  0.21515962963E+02 -0.12287915473E+02  0.34399807682E+02  0.42394295577E+02  0.00000000000E+00 0. -1.
          2    1    1    2  501    0 -0.21515962963E+02  0.12287915473E+02  0.96040544394E+03  0.96072501074E+03  0.00000000000E+00 0. -1.
<mgrwt>
<rscale>  2 0.24777601E+02</rscale>
<asrwt>0</asrwt>
<pdfrwt beam="2">  1       21 0.63954347E-03 0.24777601E+02</pdfrwt>
<pdfrwt beam="1">  1        2 0.15368631E+00 0.24777601E+02</pdfrwt>
<totfact> 0.20016878E+06</totfact>
</mgrwt>
</event>
<event>
 4    1  0.2260076E+006  0.3189546E+02  0.7546771E-02  0.1578035E+00
         21   -1    0    0  501  502  0.00000000000E+00  0.00000000000E+00  0.14622828013E+02  0.14622828013E+02  0.00000000000E+00 0.  1.
          2   -1    0    0  503    0 -0.00000000000E+00 -0.00000000000E+00 -0.10356284161E+03  0.10356284161E+03  0.00000000000E+00 0.  1.
         21    1    1    2  503  502 -0.31694314944E+02 -0.35764281540E+01 -0.10615064027E+02  0.33615472961E+02  0.00000000000E+00 0.  1.
          2    1    1    2  501    0  0.31694314944E+02  0.35764281540E+01 -0.78324949569E+02  0.84570196660E+02  0.00000000000E+00 0.  1.
<mgrwt>
<rscale>  2 0.31895461E+02</rscale>
<asrwt>0</asrwt>
<pdfrwt beam="1">  1       21 0.22496659E-02 0.31895461E+02</pdfrwt>
<pdfrwt beam="2">  1        2 0.15932745E-01 0.31895461E+02</pdfrwt>
<totfact> 0.33777447E+06</totfact>
</mgrwt>
</event>
<event>
 4    1  0.2260076E+006  0.2130463E+02  0.7546771E-02  0.1720563E+00
          2   -1    0    0  503    0 -0.00000000000E+00  0.00000000000E+00  0.11618876610E+03  0.11618876610E+03  0.00000000000E+00 0. -1.
         21   -1    0    0  501  502  0.00000000000E+00 -0.00000000000E+00 -0.40841733476E+01  0.40841733476E+01  0.00000000000E+00 0. -1.
         21    1    1    2  503  502  0.20558961190E+02  0.55871581753E+01  0.43508150648E+02  0.48444260697E+02  0.00000000000E+00 0. -1.
          2    1    1    2  501    0 -0.20558961190E+02 -0.55871581753E+01  0.68596442101E+02  0.71828678747E+02  0.00000000000E+00 0. -1.
<mgrwt>
<rscale>  2 0.21304629E+02</rscale>
<asrwt>0</asrwt>
<pdfrwt beam="2">  1       21 0.62833445E-03 0.21304629E+02</pdfrwt>
<pdfrwt beam="1">  1        2 0.17875192E-01 0.21304629E+02</pdfrwt>
<totfact> 0.18510156E+07</totfact>
</mgrwt>
</event>
<event>
 4    1  0.2260076E+006  0.2101176E+02  0.7546771E-02  0.1725926E+00
          1   -1    0    0  503    0 -0.00000000000E+00  0.00000000000E+00  0.15105131371E+04  0.15105131371E+04  0.00000000000E+00 0.  1.
         21   -1    0    0  501  502  0.00000000000E+00 -0.00000000000E+00 -0.73785030638E+01  0.73785030638E+01  0.00000000000E+00 0.  1.
         21    1    1    2  503  502  0.46190747808E+01  0.20497760333E+02  0.78052470327E+01  0.22414636106E+02  0.00000000000E+00 0.  1.
          1    1    1    2  501    0 -0.46190747808E+01 -0.20497760333E+02  0.14953293870E+04  0.14954770040E+04  0.00000000000E+00 0.  1.
<mgrwt>
<rscale>  2 0.21011759E+02</rscale>
<asrwt>0</asrwt>
<pdfrwt beam="2">  1       21 0.11351555E-02 0.21011759E+02</pdfrwt>
<pdfrwt beam="1">  1        1 0.23238639E+00 0.21011759E+02</pdfrwt>
<totfact> 0.22031321E+05</totfact>
</mgrwt>
</event>
<event>
 4    1  0.2260076E+006  0.2213901E+02  0.7546771E-02  0.1705859E+00
         21   -1    0    0  501  502  0.00000000000E+00  0.00000000000E+00  0.54510005883E+02  0.54510005883E+02  0.00000000000E+00 0.  1.
          2   -1    0    0  503    0 -0.00000000000E+00 -0.00000000000E+00 -0.62653761453E+03  0.62653761453E+03  0.00000000000E+00 0.  1.
         21    1    1    2  503  502 -0.98640322554E+01 -0.19820109669E+02  0.52057685327E+02  0.56569766494E+02  0.00000000000E+00 0.  1.
          2    1    1    2  501    0  0.98640322554E+01  0.19820109669E+02 -0.62408529397E+03  0.62447785392E+03  0.00000000000E+00 0.  1.
<mgrwt>
<rscale>  2 0.22139013E+02</rscale>
<asrwt>0</asrwt>
<pdfrwt beam="1">  1       21 0.83861547E-02 0.22139013E+02</pdfrwt>
<pdfrwt beam="2">  1        2 0.96390403E-01 0.22139013E+02</pdfrwt>
<totfact> 0.62205852E+04</totfact>
</mgrwt>
</event>
<event>
 4    1  0.2260076E+006  0.3267906E+02  0.7546771E-02  0.1570233E+00
         -3   -1    0    0    0  501 -0.00000000000E+00  0.00000000000E+00  0.35227629861E+02  0.35227629861E+02  0.00000000000E+00 0. -1.
         21   -1    0    0  501  502  0.00000000000E+00 -0.00000000000E+00 -0.11395886033E+03  0.11395886033E+03  0.00000000000E+00 0. -1.
         21    1    1    2  503  502  0.86218113475E+01  0.31521185149E+02 -0.10327179316E+03  0.10831889958E+03  0.00000000000E+00 0. -1.
         -3    1    1    2    0  503 -0.86218113475E+01 -0.31521185149E+02  0.24540562697E+02  0.40867590602E+02  0.00000000000E+00 0. -1.
<mgrwt>
<rscale>  2 0.32679057E+02</rscale>
<asrwt>0</asrwt>
<pdfrwt beam="2">  1       21 0.17532133E-01 0.32679057E+02</pdfrwt>
<pdfrwt beam="1">  1       -3 0.54196353E-02 0.32679057E+02</pdfrwt>
<totfact> 0.21622948E+05</totfact>
</mgrwt>
</event>
<event>
 4    1  0.2260076E+006  0.3836052E+02  0.7546771E-02  0.1520635E+00
          4   -1    0    0  502    0 -0.00000000000E+00  0.00000000000E+00  0.52257536075E+03  0.52257536075E+03  0.00000000000E+00 0. -1.
         21   -1    0    0  503  502  0.00000000000E+00 -0.00000000000E+00 -0.13689692162E+02  0.13689692162E+02  0.00000000000E+00 0.  1.
         21    1    1    2  503  501  0.17360971057E+02 -0.34207111482E+02  0.15473156917E+02  0.41363611749E+02  0.00000000000E+00 0.  1.
          4    1    1    2  501    0 -0.17360971057E+02  0.34207111482E+02  0.49341251167E+03  0.49490144116E+03  0.00000000000E+00 0. -1.
<mgrwt>
<rscale>  2 0.38360524E+02</rscale>
<asrwt>0</asrwt>
<pdfrwt beam="2">  1       21 0.21061069E-02 0.38360524E+02</pdfrwt>
<pdfrwt beam="1">  1        4 0.80396194E-01 0.38360524E+02</pdfrwt>
<totfact> 0.50853010E+04</totfact>
</mgrwt>
</event>
<event>
 4    1  0.2260076E+006  0.2140610E+02  0.7546771E-02  0.1718730E+00
          2   -1    0    0  503    0 -0.00000000000E+00  0.00000000000E+00  0.69994871538E+03  0.69994871538E+03  0.00000000000E+00 0.  1.
         21   -1    0    0  501  502  0.00000000000E+00 -0.00000000000E+00 -0.33672038747E+01  0.33672038747E+01  0.00000000000E+00 0.  1.
         21    1    1    2  503  502  0.16871486873E+02 -0.13174756995E+02  0.32663174323E+02  0.39052583116E+02  0.00000000000E+00 0.  1.
          2    1    1    2  501    0 -0.16871486873E+02  0.13174756995E+02  0.66391833718E+03  0.66426333614E+03  0.00000000000E+00 0.  1.
<mgrwt>
<rscale>  2 0.21406104E+02</rscale>
<asrwt>0</asrwt>
<pdfrwt beam="2">  1       21 0.51803192E-03 0.21406104E+02</pdfrwt>
<pdfrwt beam="1">  1        2 0.10768430E+00 0.21406104E+02</pdfrwt>
<totfact> 0.40010270E+06</totfact>
</mgrwt>
</event>
<event>
 4    1  0.2260076E+006  0.2165834E+02  0.7546771E-02  0.1714229E+00
          2   -1    0    0  503    0 -0.00000000000E+00  0.00000000000E+00  0.10897770223E+04  0.10897770223E+04  0.00000000000E+00 0.  1.
         21   -1    0    0  501  502  0.00000000000E+00 -0.00000000000E+00 -0.17294649814E+01  0.17294649814E+01  0.00000000000E+00 0.  1.
         21    1    1    2  503  502 -0.33552508041E+01  0.21396873068E+02  0.71036837548E+02  0.74265174704E+02  0.00000000000E+00 0.  1.
          2    1    1    2  501    0  0.33552508041E+01 -0.21396873068E+02  0.10170107197E+04  0.10172413126E+04  0.00000000000E+00 0.  1.
<mgrwt>
<rscale>  2 0.21658344E+02</rscale>
<asrwt>0</asrwt>
<pdfrwt beam="2">  1       21 0.26607241E-03 0.21658344E+02</pdfrwt>
<pdfrwt beam="1">  1        2 0.16765745E+00 0.21658344E+02</pdfrwt>
<totfact> 0.63133784E+06</totfact>
</mgrwt>
</event>
<event>
 4    1  0.2260076E+006  0.2192706E+02  0.7546771E-02  0.1709517E+00
          2   -1    0    0  502    0 -0.00000000000E+00  0.00000000000E+00  0.45146960601E+03  0.45146960601E+03  0.00000000000E+00 0.  1.
         21   -1    0    0  503  502  0.00000000000E+00 -0.00000000000E+00 -0.10391771968E+02  0.10391771968E+02  0.00000000000E+00 0. -1.
         21    1    1    2  503  501  0.10413106295E+02  0.19296708808E+02  0.17609784890E+01  0.21997654393E+02  0.00000000000E+00 0. -1.
          2    1    1    2  501    0 -0.10413106295E+02 -0.19296708808E+02  0.43931685555E+03  0.43986372358E+03  0.00000000000E+00 0.  1.
<mgrwt>
<rscale>  2 0.21927055E+02</rscale>
<asrwt>0</asrwt>
<pdfrwt beam="2">  1       21 0.15987345E-02 0.21927055E+02</pdfrwt>
<pdfrwt beam="1">  1        2 0.69456847E-01 0.21927055E+02</pdfrwt>
<totfact> 0.11713310E+06</totfact>
</mgrwt>
</event>
<event>
 4    1  0.2260076E+006  0.2012194E+02  0.7546771E-02  0.1742914E+00
         21   -1    0    0  503  502  0.00000000000E+00  0.00000000000E+00  0.59011196690E+00  0.59011196690E+00  0.00000000000E+00 0.  1.
          2   -1    0    0  502    0 -0.00000000000E+00 -0.00000000000E+00 -0.15326954353E+04  0.15326954353E+04  0.00000000000E+00 0.  1.
         21    1    1    2  503  501 -0.46807389299E+01 -0.19569956938E+02 -0.19628760330E+03  0.19731628352E+03  0.00000000000E+00 0.  1.
          2    1    1    2  501    0  0.46807389299E+01  0.19569956938E+02 -0.13358177200E+04  0.13359692637E+04  0.00000000000E+00 0.  1.
<mgrwt>
<rscale>  2 0.20121942E+02</rscale>
<asrwt>0</asrwt>
<pdfrwt beam="1">  1       21 0.90785268E-04 0.20121942E+02</pdfrwt>
<pdfrwt beam="2">  1        2 0.23580238E+00 0.20121942E+02</pdfrwt>
<totfact> 0.17602499E+07</totfact>
</mgrwt>
</event>
<event>
 4    1  0.2260076E+006  0.2889236E+02  0.7546771E-02  0.1610665E+00
         -1   -1    0    0    0  501 -0.00000000000E+00  0.00000000000E+00  0.24588588962E+01  0.24588588962E+01  0.00000000000E+00 0. -1.
         21   -1    0    0  501  502  0.00000000000E+00 -0.00000000000E+00 -0.77630925191E+03  0.77630925191E+03  0.00000000000E+00 0.  1.
         21    1    1    2  503  502 -0.26715380469E+02 -0.11002581559E+02 -0.67901041298E+03  0.67962482981E+03  0.00000000000E+00 0.  1.
         -1    1    1    2    0  503  0.26715380469E+02  0.11002581559E+02 -0.94839980036E+02  0.99143281002E+02  0.00000000000E+00 0. -1.
<mgrwt>
<rscale>  2 0.28892358E+02</rscale>
<asrwt>0</asrwt>
<pdfrwt beam="2">  1       21 0.11943235E+00 0.28892358E+02</pdfrwt>
<pdfrwt beam="1">  1       -1 0.37828548E-03 0.28892358E+02</pdfrwt>
<totfact> 0.29205147E+05</totfact>
</mgrwt>
</event>
<event>
 4    1  0.2260076E+006  0.2189056E+02  0.7546771E-02  0.1710152E+00
         21   -1    0    0  503  502  0.00000000000E+00  0.00000000000E+00  0.40888969878E+02  0.40888969878E+02  0.00000000000E+00 0. -1.
          3   -1    0    0  502    0 -0.00000000000E+00 -0.00000000000E+00 -0.26406917558E+02  0.26406917558E+02  0.00000000000E+00 0. -1.
         21    1    1    2  503  501 -0.15473841068E+02  0.15484089672E+02  0.32335201868E+02  0.39048201882E+02  0.00000000000E+00 0. -1.
          3    1    1    2  501    0  0.15473841068E+02 -0.15484089672E+02 -0.17853149548E+02  0.28247685554E+02  0.00000000000E+00 0. -1.
<mgrwt>
<rscale>  2 0.21890564E+02</rscale>
<asrwt>0</asrwt>
<pdfrwt beam="1">  1       21 0.62906107E-02 0.21890564E+02</pdfrwt>
<pdfrwt beam="2">  1        3 0.40626027E-02 0.21890564E+02</pdfrwt>
<totfact> 0.16394200E+06</totfact>
</mgrwt>
</event>
<event>
 4    1  0.2260076E+006  0.2091778E+02  0.7546771E-02  0.1727670E+00
          2   -1    0    0  503    0 -0.00000000000E+00  0.00000000000E+00  0.96790465445E+00  0.96790465445E+00  0.00000000000E+00 0. -1.
         21   -1    0    0  501  502  0.00000000000E+00 -0.00000000000E+00 -0.84084006156E+03  0.84084006156E+03  0.00000000000E+00 0. -1.
         21    1    1    2  503  502 -0.19561750116E+02 -0.74088674576E+01 -0.70614089704E+03  0.70645064927E+03  0.00000000000E+00 0. -1.
          2    1    1    2  501    0  0.19561750116E+02  0.74088674576E+01 -0.13373125987E+03  0.13535731695E+03  0.00000000000E+00 0. -1.
<mgrwt>
<rscale>  2 0.20917777E+02</rscale>
<asrwt>0</asrwt>
<pdfrwt beam="2">  1       21 0.12936000E+00 0.20917777E+02</pdfrwt>
<pdfrwt beam="1">  1        2 0.14890842E-03 0.20917777E+02</pdfrwt>
<totfact> 0.80156510E+05</totfact>
</mgrwt>
</event>
<event>
 4    1  0.2260076E+006  0.2210993E+02  0.7546771E-02  0.1706358E+00
         21   -1    0    0  501  502  0.00000000000E+00  0.00000000000E+00  0.25863981972E+02  0.25863981972E+02  0.00000000000E+00 0.  1.
         -3   -1    0    0    0  501 -0.00000000000E+00 -0.00000000000E+00 -0.32991389972E+02  0.32991389972E+02  0.00000000000E+00 0.  1.
         21    1    1    2  503  502 -0.95821220881E+01 -0.19925655647E+02  0.15668146331E+02  0.27098701558E+02  0.00000000000E+00 0.  1.
         -3    1    1    2    0  503  0.95821220881E+01  0.19925655647E+02 -0.22795554331E+02  0.31756670385E+02  0.00000000000E+00 0.  1.
<mgrwt>
<rscale>  2 0.22109926E+02</rscale>
<asrwt>0</asrwt>
<pdfrwt beam="1">  1       21 0.39790741E-02 0.22109926E+02</pdfrwt>
<pdfrwt beam="2">  1       -3 0.50755985E-02 0.22109926E+02</pdfrwt>
<totfact> 0.24426733E+06</totfact>
</mgrwt>
</event>
<event>
 4    1  0.2260076E+006  0.4555527E+02  0.7546771E-02  0.1470905E+00
          2   -1    0    0  503    0 -0.00000000000E+00  0.00000000000E+00  0.79055666005E+03  0.79055666005E+03  0.00000000000E+00 0.  1.
         21   -1    0    0  501  502  0.00000000000E+00 -0.00000000000E+00 -0.34511684150E+01  0.34511684150E+01  0.00000000000E+00 0.  1.
         21    1    1    2  503  502  0.21072218759E+02 -0.40388662843E+02  0.19932006080E+03  0.20445970049E+03  0.00000000000E+00 0.  1.
          2    1    1    2  501    0 -0.21072218759E+02  0.40388662843E+02  0.58778543084E+03  0.58954812798E+03  0.00000000000E+00 0.  1.
<mgrwt>
<rscale>  2 0.45555269E+02</rscale>
<asrwt>0</asrwt>
<pdfrwt beam="2">  1       21 0.53094962E-03 0.45555269E+02</pdfrwt>
<pdfrwt beam="1">  1        2 0.12162396E+00 0.45555269E+02</pdfrwt>
<totfact> 0.38968123E+06</totfact>
</mgrwt>
</event>
<event>
 4    1  0.2260076E+006  0.2130352E+02  0.7546771E-02  0.1720583E+00
         -2   -1    0    0    0  501 -0.00000000000E+00  0.00000000000E+00  0.57163186649E+01  0.57163186649E+01  0.00000000000E+00 0. -1.
         21   -1    0    0  503  502  0.00000000000E+00 -0.00000000000E+00 -0.15760022491E+03  0.15760022491E+03  0.00000000000E+00 0.  1.
         21    1    1    2  503  501  0.17991918668E+02 -0.11407491730E+02 -0.13346516252E+03  0.13515468772E+03  0.00000000000E+00 0.  1.
         -2    1    1    2    0  502 -0.17991918668E+02  0.11407491730E+02 -0.18418743718E+02  0.28161855852E+02  0.00000000000E+00 0. -1.
<mgrwt>
<rscale>  2 0.21303521E+02</rscale>
<asrwt>0</asrwt>
<pdfrwt beam="2">  1       21 0.24246186E-01 0.21303521E+02</pdfrwt>
<pdfrwt beam="1">  1       -2 0.87943372E-03 0.21303521E+02</pdfrwt>
<totfact> 0.21037028E+06</totfact>
</mgrwt>
</event>
<event>
 4    1  0.2260076E+006  0.2103283E+02  0.7546771E-02  0.1725536E+00
         -2   -1    0    0    0  501 -0.00000000000E+00  0.00000000000E+00  0.50010978232E+02  0.50010978232E+02  0.00000000000E+00 0. -1.
         21   -1    0    0  503  502  0.00000000000E+00 -0.00000000000E+00 -0.10954461735E+02  0.10954461735E+02  0.00000000000E+00 0. -1.
         21    1    1    2  503  501 -0.20509225409E+02  0.46638482718E+01  0.61537848128E+01  0.21914581335E+02  0.00000000000E+00 0. -1.
         -2    1    1    2    0  502  0.20509225409E+02 -0.46638482718E+01  0.32902731684E+02  0.39050858631E+02  0.00000000000E+00 0. -1.
<mgrwt>
<rscale>  2 0.21032827E+02</rscale>
<asrwt>0</asrwt>
<pdfrwt beam="2">  1       21 0.16853018E-02 0.21032827E+02</pdfrwt>
<pdfrwt beam="1">  1       -2 0.76939965E-02 0.21032827E+02</pdfrwt>
<totfact> 0.77860444E+06</totfact>
</mgrwt>
</event>
<event>
 4    1  0.2260076E+006  0.2138983E+02  0.7546771E-02  0.1719023E+00
          2   -1    0    0  503    0 -0.00000000000E+00  0.00000000000E+00  0.32613820787E+03  0.32613820787E+03  0.00000000000E+00 0.  1.
         21   -1    0    0  501  502  0.00000000000E+00 -0.00000000000E+00 -0.72466462879E+03  0.72466462879E+03  0.00000000000E+00 0.  1.
         21    1    1    2  503  502 -0.20071039931E+02 -0.73944605441E+01 -0.72415582847E+03  0.72447166170E+03  0.00000000000E+00 0.  1.
          2    1    1    2  501    0  0.20071039931E+02  0.73944605441E+01  0.32562940755E+03  0.32633117496E+03  0.00000000000E+00 0.  1.
<mgrwt>
<rscale>  2 0.21389827E+02</rscale>
<asrwt>0</asrwt>
<pdfrwt beam="2">  1       21 0.11148687E+00 0.21389827E+02</pdfrwt>
<pdfrwt beam="1">  1        2 0.50175109E-01 0.21389827E+02</pdfrwt>
<totfact> 0.98405379E+02</totfact>
</mgrwt>
</event>
<event>
 4    1  0.2260076E+006  0.2021664E+02  0.7546771E-02  0.1741054E+00
         -4   -1    0    0    0  501 -0.00000000000E+00  0.00000000000E+00  0.26817586133E+01  0.26817586133E+01  0.00000000000E+00 0.  1.
         21   -1    0    0  501  502  0.00000000000E+00 -0.00000000000E+00 -0.81259704615E+03  0.81259704615E+03  0.00000000000E+00 0.  1.
         21    1    1    2  503  502 -0.76166906498E+01  0.18726942604E+02 -0.77238696556E+03  0.77265149772E+03  0.00000000000E+00 0.  1.
         -4    1    1    2    0  503  0.76166906498E+01 -0.18726942604E+02 -0.37528321977E+02  0.42627307048E+02  0.00000000000E+00 0.  1.
<mgrwt>
<rscale>  2 0.20216636E+02</rscale>
<asrwt>0</asrwt>
<pdfrwt beam="2">  1       21 0.12501496E+00 0.20216636E+02</pdfrwt>
<pdfrwt beam="1">  1       -4 0.41257815E-03 0.20216636E+02</pdfrwt>
<totfact> 0.14857242E+05</totfact>
</mgrwt>
</event>
<event>
 4    1  0.2260076E+006  0.2067286E+02  0.7546771E-02  0.1732269E+00
          2   -1    0    0  503    0 -0.00000000000E+00  0.00000000000E+00  0.65702673954E+03  0.65702673954E+03  0.00000000000E+00 0. -1.
         21   -1    0    0  501  502  0.00000000000E+00 -0.00000000000E+00 -0.24787678044E+02  0.24787678044E+02  0.00000000000E+00 0.  1.
         21    1    1    2  503  502  0.20642884480E+02 -0.11128616988E+01 -0.20285051060E+02  0.28962914862E+02  0.00000000000E+00 0.  1.
          2    1    1    2  501    0 -0.20642884480E+02  0.11128616988E+01  0.65252411256E+03  0.65285150273E+03  0.00000000000E+00 0. -1.
<mgrwt>
<rscale>  2 0.20672860E+02</rscale>
<asrwt>0</asrwt>
<pdfrwt beam="2">  1       21 0.38134894E-02 0.20672860E+02</pdfrwt>
<pdfrwt beam="1">  1        2 0.10108102E+00 0.20672860E+02</pdfrwt>
<totfact> 0.20695068E+05</totfact>
</mgrwt>
</event>
<event>
 4    1  0.2260076E+006  0.2838024E+02  0.7546771E-02  0.1616715E+00
          1   -1    0    0  503    0 -0.00000000000E+00  0.00000000000E+00  0.67604335897E+02  0.67604335897E+02  0.00000000000E+00 0. -1.
         21   -1    0    0  501  502  0.00000000000E+00 -0.00000000000E+00 -0.13107926112E+02  0.13107926112E+02  0.00000000000E+00 0. -1.
         21    1    1    2  503  502  0.18489120804E+02  0.21531154267E+02  0.15068664646E+02  0.32132582317E+02  0.00000000000E+00 0. -1.
          1    1    1    2  501    0 -0.18489120804E+02 -0.21531154267E+02  0.39427745140E+02  0.48579679692E+02  0.00000000000E+00 0. -1.
<mgrwt>
<rscale>  2 0.28380243E+02</rscale>
<asrwt>0</asrwt>
<pdfrwt beam="2">  1       21 0.20166040E-02 0.28380243E+02</pdfrwt>
<pdfrwt beam="1">  1        1 0.10400667E-01 0.28380243E+02</pdfrwt>
<totfact> 0.55261627E+06</totfact>
</mgrwt>
</event>
<event>
 4    1  0.2260076E+006  0.2836452E+02  0.7546771E-02  0.1616904E+00
          4   -1    0    0  503    0 -0.00000000000E+00  0.00000000000E+00  0.15847926134E+02  0.15847926134E+02  0.00000000000E+00 0.  1.
         21   -1    0    0  501  502  0.00000000000E+00 -0.00000000000E+00 -0.64661578910E+02  0.64661578910E+02  0.00000000000E+00 0. -1.
         21    1    1    2  503  502  0.25985698593E+02  0.11370547345E+02 -0.43067289197E+02  0.51568762609E+02  0.00000000000E+00 0. -1.
          4    1    1    2  501    0 -0.25985698593E+02 -0.11370547345E+02 -0.57463635790E+01  0.28940742435E+02  0.00000000000E+00 0.  1.
<mgrwt>
<rscale>  2 0.28364518E+02</rscale>
<asrwt>0</asrwt>
<pdfrwt beam="2">  1       21 0.99479353E-02 0.28364518E+02</pdfrwt>
<pdfrwt beam="1">  1        4 0.24381425E-02 0.28364518E+02</pdfrwt>
<totfact> 0.15594601E+06</totfact>
</mgrwt>
</event>
<event>
 4    1  0.2260076E+006  0.2942495E+02  0.7546771E-02  0.1604533E+00
         21   -1    0    0  501  502  0.00000000000E+00  0.00000000000E+00  0.14145385443E+03  0.14145385443E+03  0.00000000000E+00 0.  1.
          2   -1    0    0  503    0 -0.00000000000E+00 -0.00000000000E+00 -0.30979650752E+02  0.30979650752E+02  0.00000000000E+00 0. -1.
         21    1    1    2  503  502 -0.30477903325E+01  0.29266681809E+02  0.13246831904E+03  0.13569702738E+03  0.00000000000E+00 0.  1.
          2    1    1    2  501    0  0.30477903325E+01 -0.29266681809E+02 -0.21994115369E+02  0.36736477796E+02  0.00000000000E+00 0. -1.
<mgrwt>
<rscale>  2 0.29424950E+02</rscale>
<asrwt>0</asrwt>
<pdfrwt beam="1">  1       21 0.21762131E-01 0.29424950E+02</pdfrwt>
<pdfrwt beam="2">  1        2 0.47661002E-02 0.29424950E+02</pdfrwt>
<totfact> 0.32836717E+05</totfact>
</mgrwt>
</event>
<event>
 4    1  0.2260076E+006  0.4426525E+02  0.7546771E-02  0.1478981E+00
         21   -1    0    0  503  502  0.00000000000E+00  0.00000000000E+00  0.12665673730E+03  0.12665673730E+03  0.00000000000E+00 0.  1.
          2   -1    0    0  502    0 -0.00000000000E+00 -0.00000000000E+00 -0.77864489150E+03  0.77864489150E+03  0.00000000000E+00 0. -1.
         21    1    1    2  503  501 -0.41763139241E+02  0.14671480760E+02  0.12213750378E+03  0.12991143897E+03  0.00000000000E+00 0.  1.
          2    1    1    2  501    0  0.41763139241E+02 -0.14671480760E+02 -0.77412565798E+03  0.77539018983E+03  0.00000000000E+00 0. -1.
<mgrwt>
<rscale>  2 0.44265248E+02</rscale>
<asrwt>0</asrwt>
<pdfrwt beam="1">  1       21 0.19485652E-01 0.44265248E+02</pdfrwt>
<pdfrwt beam="2">  1        2 0.11979152E+00 0.44265248E+02</pdfrwt>
<totfact> 0.11825636E+04</totfact>
</mgrwt>
</event>
<event>
 4    1  0.2260076E+006  0.2159920E+02  0.7546771E-02  0.1715277E+00
          2   -1    0    0  503    0 -0.00000000000E+00  0.00000000000E+00  0.72487196016E+03  0.72487196016E+03  0.00000000000E+00 0.  1.
         21   -1    0    0  501  502  0.00000000000E+00 -0.00000000000E+00 -0.34327863449E+01  0.34327863449E+01  0.00000000000E+00 0.  1.
         21    1    1    2  503  502  0.11950661168E+02  0.17991864207E+02  0.32474110394E+02  0.39001196467E+02  0.00000000000E+00 0.  1.
          2    1    1    2  501    0 -0.11950661168E+02 -0.17991864207E+02  0.68896506343E+03  0.68930355004E+03  0.00000000000E+00 0.  1.
<mgrwt>
<rscale>  2 0.21599201E+02</rscale>
<asrwt>0</asrwt>
<pdfrwt beam="2">  1       21 0.52812155E-03 0.21599201E+02</pdfrwt>
<pdfrwt beam="1">  1        2 0.11151864E+00 0.21599201E+02</pdfrwt>
<totfact> 0.37518639E+06</totfact>
</mgrwt>
</event>
<event>
 4    1  0.2260076E+006  0.2048240E+02  0.7546771E-02  0.1735902E+00
         21   -1    0    0  503  502  0.00000000000E+00  0.00000000000E+00  0.13742018618E+04  0.13742018618E+04  0.00000000000E+00 0. -1.
         -1   -1    0    0    0  501 -0.00000000000E+00 -0.00000000000E+00 -0.14501288177E+02  0.14501288177E+02  0.00000000000E+00 0. -1.
         21    1    1    2  503  501  0.52616581612E+01  0.19795040153E+02  0.13668540511E+04  0.13670075076E+04  0.00000000000E+00 0. -1.
         -1    1    1    2    0  502 -0.52616581612E+01 -0.19795040153E+02 -0.71534774676E+01  0.21695642446E+02  0.00000000000E+00 0. -1.
<mgrwt>
<rscale>  2 0.20482399E+02</rscale>
<asrwt>0</asrwt>
<pdfrwt beam="1">  1       21 0.21141557E+00 0.20482399E+02</pdfrwt>
<pdfrwt beam="2">  1       -1 0.22309685E-02 0.20482399E+02</pdfrwt>
<totfact> 0.65170336E+03</totfact>
</mgrwt>
</event>
<event>
 4    1  0.2260076E+006  0.3186887E+02  0.7546771E-02  0.1578304E+00
          2   -1    0    0  503    0 -0.00000000000E+00  0.00000000000E+00  0.10895328648E+04  0.10895328648E+04  0.00000000000E+00 0. -1.
         21   -1    0    0  501  502  0.00000000000E+00 -0.00000000000E+00 -0.27121909486E+01  0.27121909486E+01  0.00000000000E+00 0.  1.
         21    1    1    2  503  502 -0.19179124287E+02 -0.25451647737E+02  0.10098189295E+03  0.10589130221E+03  0.00000000000E+00 0.  1.
          2    1    1    2  501    0  0.19179124287E+02  0.25451647737E+02  0.98583878086E+03  0.98635375349E+03  0.00000000000E+00 0. -1.
<mgrwt>
<rscale>  2 0.31868875E+02</rscale>
<asrwt>0</asrwt>
<pdfrwt beam="2">  1       21 0.41726102E-03 0.31868875E+02</pdfrwt>
<pdfrwt beam="1">  1        2 0.16762009E+00 0.31868875E+02</pdfrwt>
<totfact> 0.35295195E+06</totfact>
</mgrwt>
</event>
<event>
 4    1  0.2260076E+006  0.2496870E+02  0.7546771E-02  0.1661452E+00
         21   -1    0    0  501  502  0.00000000000E+00  0.00000000000E+00  0.38246786092E+02  0.38246786092E+02  0.00000000000E+00 0.  1.
         -4   -1    0    0    0  501 -0.00000000000E+00 -0.00000000000E+00 -0.57603932271E+03  0.57603932271E+03  0.00000000000E+00 0. -1.
         21    1    1    2  503  502  0.24767583714E+02 -0.31626900600E+01  0.33869944459E+02  0.42078604410E+02  0.00000000000E+00 0.  1.
         -4    1    1    2    0  503 -0.24767583714E+02  0.31626900600E+01 -0.57166248107E+03  0.57220750439E+03  0.00000000000E+00 0. -1.
<mgrwt>
<rscale>  2 0.24968697E+02</rscale>
<asrwt>0</asrwt>
<pdfrwt beam="1">  1       21 0.58841214E-02 0.24968697E+02</pdfrwt>
<pdfrwt beam="2">  1       -4 0.88621427E-01 0.24968697E+02</pdfrwt>
<totfact> 0.72950082E+03</totfact>
</mgrwt>
</event>
<event>
 4    1  0.2260076E+006  0.8902741E+02  0.7546771E-02  0.1305224E+00
          2   -1    0    0  502    0 -0.00000000000E+00  0.00000000000E+00  0.16176761881E+04  0.16176761881E+04  0.00000000000E+00 0.  1.
         21   -1    0    0  503  502  0.00000000000E+00 -0.00000000000E+00 -0.99934721191E+01  0.99934721191E+01  0.00000000000E+00 0.  1.
         21    1    1    2  503  501 -0.80615712337E+02 -0.37775481533E+02  0.22280359415E+03  0.23993191043E+03  0.00000000000E+00 0.  1.
          2    1    1    2  501    0  0.80615712337E+02  0.37775481533E+02  0.13848791219E+04  0.13877377498E+04  0.00000000000E+00 0.  1.
<mgrwt>
<rscale>  2 0.89027412E+02</rscale>
<asrwt>0</asrwt>
<pdfrwt beam="2">  1       21 0.15374585E-02 0.89027412E+02</pdfrwt>
<pdfrwt beam="1">  1        2 0.24887305E+00 0.89027412E+02</pdfrwt>
<totfact> 0.28317268E+05</totfact>
</mgrwt>
</event>
<event>
 4    1  0.2260076E+006  0.3536536E+02  0.7546771E-02  0.1545380E+00
         -4   -1    0    0    0  501 -0.00000000000E+00  0.00000000000E+00  0.51301517549E+02  0.51301517549E+02  0.00000000000E+00 0.  1.
         21   -1    0    0  501  502  0.00000000000E+00 -0.00000000000E+00 -0.30353121433E+03  0.30353121433E+03  0.00000000000E+00 0. -1.
         21    1    1    2  503  502  0.35103362437E+02 -0.42968445900E+01 -0.29625706830E+03  0.29836045222E+03  0.00000000000E+00 0. -1.
         -4    1    1    2    0  503 -0.35103362437E+02  0.42968445900E+01  0.44027371519E+02  0.56472279665E+02  0.00000000000E+00 0.  1.
<mgrwt>
<rscale>  2 0.35365363E+02</rscale>
<asrwt>0</asrwt>
<pdfrwt beam="2">  1       21 0.46697109E-01 0.35365363E+02</pdfrwt>
<pdfrwt beam="1">  1       -4 0.78925413E-02 0.35365363E+02</pdfrwt>
<totfact> 0.17028750E+04</totfact>
</mgrwt>
</event>
<event>
 4    1  0.2260076E+006  0.2103955E+02  0.7546771E-02  0.1725412E+00
          2   -1    0    0  502    0 -0.00000000000E+00  0.00000000000E+00  0.51578210470E+02  0.51578210470E+02  0.00000000000E+00 0.  1.
         21   -1    0    0  503  502  0.00000000000E+00 -0.00000000000E+00 -0.54448714352E+02  0.54448714352E+02  0.00000000000E+00 0.  1.
         21    1    1    2  503  501  0.20191193105E+02  0.59142630636E+01 -0.50091594954E+02  0.54330752540E+02  0.00000000000E+00 0.  1.
          2    1    1    2  501    0 -0.20191193105E+02 -0.59142630636E+01  0.47221091071E+02  0.51696172281E+02  0.00000000000E+00 0.  1.
<mgrwt>
<rscale>  2 0.21039553E+02</rscale>
<asrwt>0</asrwt>
<pdfrwt beam="2">  1       21 0.83767252E-02 0.21039553E+02</pdfrwt>
<pdfrwt beam="1">  1        2 0.79351094E-02 0.21039553E+02</pdfrwt>
<totfact> 0.84454734E+05</totfact>
</mgrwt>
</event>
<event>
 4    1  0.2260076E+006  0.2126175E+02  0.7546771E-02  0.1721341E+00
         21   -1    0    0  503  502  0.00000000000E+00  0.00000000000E+00  0.17965144047E+03  0.17965144047E+03  0.00000000000E+00 0. -1.
         -2   -1    0    0    0  501 -0.00000000000E+00 -0.00000000000E+00 -0.33469612892E+01  0.33469612892E+01  0.00000000000E+00 0. -1.
         21    1    1    2  503  501  0.84319260593E+01 -0.19518314324E+02  0.13373457701E+03  0.13541417600E+03  0.00000000000E+00 0. -1.
         -2    1    1    2    0  502 -0.84319260593E+01  0.19518314324E+02  0.42569902165E+02  0.47584225763E+02  0.00000000000E+00 0. -1.
<mgrwt>
<rscale>  2 0.21261749E+02</rscale>
<asrwt>0</asrwt>
<pdfrwt beam="1">  1       21 0.27638676E-01 0.21261749E+02</pdfrwt>
<pdfrwt beam="2">  1       -2 0.51491726E-03 0.21261749E+02</pdfrwt>
<totfact> 0.34111531E+06</totfact>
</mgrwt>
</event>
<event>
 4    1  0.2260076E+006  0.2974569E+02  0.7546771E-02  0.1600917E+00
          1   -1    0    0  502    0 -0.00000000000E+00  0.00000000000E+00  0.72644764783E+03  0.72644764783E+03  0.00000000000E+00 0.  1.
         21   -1    0    0  503  502  0.00000000000E+00 -0.00000000000E+00 -0.16056660987E+01  0.16056660987E+01  0.00000000000E+00 0.  1.
         21    1    1    2  503  501 -0.16227497138E+02  0.24929384931E+02  0.18354990693E+03  0.18594454612E+03  0.00000000000E+00 0.  1.
          1    1    1    2  501    0  0.16227497138E+02 -0.24929384931E+02  0.54129207480E+03  0.54210876781E+03  0.00000000000E+00 0.  1.
<mgrwt>
<rscale>  2 0.29745687E+02</rscale>
<asrwt>0</asrwt>
<pdfrwt beam="2">  1       21 0.24702613E-03 0.29745687E+02</pdfrwt>
<pdfrwt beam="1">  1        1 0.11176091E+00 0.29745687E+02</pdfrwt>
<totfact> 0.74032644E+06</totfact>
</mgrwt>
</event>
<event>
 4    1  0.2260076E+006  0.2120019E+02  0.7546771E-02  0.1722463E+00
         21   -1    0    0  503  502  0.00000000000E+00  0.00000000000E+00  0.36428723075E+01  0.36428723075E+01  0.00000000000E+00 0.  1.
          1   -1    0    0  502    0 -0.00000000000E+00 -0.00000000000E+00 -0.72623816726E+03  0.72623816726E+03  0.00000000000E+00 0.  1.
         21    1    1    2  503  501 -0.16024893180E+02 -0.13879868880E+02 -0.28798085437E+02  0.35760001208E+02  0.00000000000E+00 0.  1.
          1    1    1    2  501    0  0.16024893180E+02  0.13879868880E+02 -0.69379720952E+03  0.69412103836E+03  0.00000000000E+00 0.  1.
<mgrwt>
<rscale>  2 0.21200188E+02</rscale>
<asrwt>0</asrwt>
<pdfrwt beam="1">  1       21 0.56044266E-03 0.21200188E+02</pdfrwt>
<pdfrwt beam="2">  1        1 0.11172880E+00 0.21200188E+02</pdfrwt>
<totfact> 0.20651816E+06</totfact>
</mgrwt>
</event>
<event>
 4    1  0.2260076E+006  0.2434900E+02  0.7546771E-02  0.1670532E+00
         21   -1    0    0  501  502  0.00000000000E+00  0.00000000000E+00  0.46603446890E+00  0.46603446890E+00  0.00000000000E+00 0.  1.
          1   -1    0    0  503    0 -0.00000000000E+00 -0.00000000000E+00 -0.21038351411E+04  0.21038351411E+04  0.00000000000E+00 0. -1.
         21    1    1    2  503  502 -0.23962321285E+02 -0.43221306010E+01 -0.39015828781E+03  0.39091733551E+03  0.00000000000E+00 0.  1.
          1    1    1    2  501    0  0.23962321285E+02  0.43221306010E+01 -0.17132108188E+04  0.17133838401E+04  0.00000000000E+00 0. -1.
<mgrwt>
<rscale>  2 0.24348997E+02</rscale>
<asrwt>0</asrwt>
<pdfrwt beam="1">  1       21 0.71698699E-04 0.24348997E+02</pdfrwt>
<pdfrwt beam="2">  1        1 0.32366203E+00 0.24348997E+02</pdfrwt>
<totfact> 0.56115079E+06</totfact>
</mgrwt>
</event>
<event>
 4    1  0.2260076E+006  0.5873614E+02  0.7546771E-02  0.1403213E+00
          1   -1    0    0  503    0 -0.00000000000E+00  0.00000000000E+00  0.92569368849E+03  0.92569368849E+03  0.00000000000E+00 0.  1.
         21   -1    0    0  501  502  0.00000000000E+00 -0.00000000000E+00 -0.12084001839E+02  0.12084001839E+02  0.00000000000E+00 0.  1.
         21    1    1    2  503  502  0.54152167980E+02 -0.22748105091E+02  0.66868856564E+02  0.89002121100E+02  0.00000000000E+00 0.  1.
          1    1    1    2  501    0 -0.54152167980E+02  0.22748105091E+02  0.84674083009E+03  0.84877556923E+03  0.00000000000E+00 0.  1.
<mgrwt>
<rscale>  2 0.58736135E+02</rscale>
<asrwt>0</asrwt>
<pdfrwt beam="2">  1       21 0.18590779E-02 0.58736135E+02</pdfrwt>
<pdfrwt beam="1">  1        1 0.14241436E+00 0.58736135E+02</pdfrwt>
<totfact> 0.26867333E+05</totfact>
</mgrwt>
</event>
<event>
 4    1  0.2260076E+006  0.2418313E+02  0.7546771E-02  0.1673020E+00
         21   -1    0    0  503  502  0.00000000000E+00  0.00000000000E+00  0.18713605583E+01  0.18713605583E+01  0.00000000000E+00 0.  1.
          2   -1    0    0  502    0 -0.00000000000E+00 -0.00000000000E+00 -0.11138219784E+04  0.11138219784E+04  0.00000000000E+00 0.  1.
         21    1    1    2  503  501 -0.10441037855E+02 -0.21813039397E+02 -0.82816384428E+02  0.86275010803E+02  0.00000000000E+00 0.  1.
          2    1    1    2  501    0  0.10441037855E+02  0.21813039397E+02 -0.10291342335E+04  0.10294183282E+04  0.00000000000E+00 0.  1.
<mgrwt>
<rscale>  2 0.24183134E+02</rscale>
<asrwt>0</asrwt>
<pdfrwt beam="1">  1       21 0.28790124E-03 0.24183134E+02</pdfrwt>
<pdfrwt beam="2">  1        2 0.17135746E+00 0.24183134E+02</pdfrwt>
<totfact> 0.56076724E+06</totfact>
</mgrwt>
</event>
<event>
 4    1  0.2260076E+006  0.2599526E+02  0.7546771E-02  0.1647105E+00
         21   -1    0    0  501  502  0.00000000000E+00  0.00000000000E+00  0.45476408219E+02  0.45476408219E+02  0.00000000000E+00 0. -1.
          2   -1    0    0  503    0 -0.00000000000E+00 -0.00000000000E+00 -0.87638255165E+03  0.87638255165E+03  0.00000000000E+00 0.  1.
         21    1    1    2  503  502  0.25888353742E+02 -0.23551567824E+01  0.41552076401E+02  0.49013556045E+02  0.00000000000E+00 0. -1.
          2    1    1    2  501    0 -0.25888353742E+02  0.23551567824E+01 -0.87245821983E+03  0.87284540382E+03  0.00000000000E+00 0.  1.
<mgrwt>
<rscale>  2 0.25995262E+02</rscale>
<asrwt>0</asrwt>
<pdfrwt beam="1">  1       21 0.69963706E-02 0.25995262E+02</pdfrwt>
<pdfrwt beam="2">  1        2 0.13482808E+00 0.25995262E+02</pdfrwt>
<totfact> 0.58212792E+04</totfact>
</mgrwt>
</event>
<event>
 4    1  0.2260076E+006  0.4460827E+02  0.7546771E-02  0.1476802E+00
          1   -1    0    0  502    0 -0.00000000000E+00  0.00000000000E+00  0.59766411811E+03  0.59766411811E+03  0.00000000000E+00 0. -1.
         21   -1    0    0  503  502  0.00000000000E+00 -0.00000000000E+00 -0.16480487853E+02  0.16480487853E+02  0.00000000000E+00 0.  1.
         21    1    1    2  503  501  0.29591975015E+02 -0.33379827930E+02  0.16285701311E+02  0.47488124464E+02  0.00000000000E+00 0.  1.
          1    1    1    2  501    0 -0.29591975015E+02  0.33379827930E+02  0.56489792894E+03  0.56665648150E+03  0.00000000000E+00 0. -1.
<mgrwt>
<rscale>  2 0.44608272E+02</rscale>
<asrwt>0</asrwt>
<pdfrwt beam="2">  1       21 0.25354601E-02 0.44608272E+02</pdfrwt>
<pdfrwt beam="1">  1        1 0.91948309E-01 0.44608272E+02</pdfrwt>
<totfact> 0.29826736E+05</totfact>
</mgrwt>
</event>
<event>
 4    1  0.2260076E+006  0.2141276E+02  0.7546771E-02  0.1718610E+00
         21   -1    0    0  503  502  0.00000000000E+00  0.00000000000E+00  0.30064982395E+03  0.30064982395E+03  0.00000000000E+00 0.  1.
         -2   -1    0    0    0  501 -0.00000000000E+00 -0.00000000000E+00 -0.17182440323E+01  0.17182440323E+01  0.00000000000E+00 0. -1.
         21    1    1    2  503  501  0.18169480676E+02 -0.11330322559E+02  0.20016013611E+03  0.20130222633E+03  0.00000000000E+00 0.  1.
         -2    1    1    2    0  502 -0.18169480676E+02  0.11330322559E+02  0.98771443813E+02  0.10106584166E+03  0.00000000000E+00 0. -1.
<mgrwt>
<rscale>  2 0.21412759E+02</rscale>
<asrwt>0</asrwt>
<pdfrwt beam="1">  1       21 0.46253777E-01 0.21412759E+02</pdfrwt>
<pdfrwt beam="2">  1       -2 0.26434547E-03 0.21412759E+02</pdfrwt>
<totfact> 0.31967295E+06</totfact>
</mgrwt>
</event>
<event>
 4    1  0.2260076E+006  0.2141845E+02  0.7546771E-02  0.1718508E+00
         21   -1    0    0  501  502  0.00000000000E+00  0.00000000000E+00  0.96052302275E+01  0.96052302275E+01  0.00000000000E+00 0. -1.
          2   -1    0    0  503    0 -0.00000000000E+00 -0.00000000000E+00 -0.60116547832E+03  0.60116547832E+03  0.00000000000E+00 0. -1.
         21    1    1    2  503  502  0.21389472770E+02  0.11136977833E+01 -0.27766638305E+01  0.21597678815E+02  0.00000000000E+00 0. -1.
          2    1    1    2  501    0 -0.21389472770E+02 -0.11136977833E+01 -0.58878358426E+03  0.58917302973E+03  0.00000000000E+00 0. -1.
<mgrwt>
<rscale>  2 0.21418447E+02</rscale>
<asrwt>0</asrwt>
<pdfrwt beam="1">  1       21 0.14777282E-02 0.21418447E+02</pdfrwt>
<pdfrwt beam="2">  1        2 0.92486968E-01 0.21418447E+02</pdfrwt>
<totfact> 0.98274657E+05</totfact>
</mgrwt>
</event>
<event>
 4    1  0.2260076E+006  0.2460043E+02  0.7546771E-02  0.1666808E+00
          2   -1    0    0  502    0 -0.00000000000E+00  0.00000000000E+00  0.17254175328E+04  0.17254175328E+04  0.00000000000E+00 0. -1.
         21   -1    0    0  503  502  0.00000000000E+00 -0.00000000000E+00 -0.42236190903E+00  0.42236190903E+00  0.00000000000E+00 0.  1.
         21    1    1    2  503  501  0.23008193220E+02 -0.87065611100E+01  0.50716368353E+03  0.50775996598E+03  0.00000000000E+00 0.  1.
          2    1    1    2  501    0 -0.23008193220E+02  0.87065611100E+01  0.12178314874E+04  0.12180799288E+04  0.00000000000E+00 0. -1.
<mgrwt>
<rscale>  2 0.24600430E+02</rscale>
<asrwt>0</asrwt>
<pdfrwt beam="2">  1       21 0.64980137E-04 0.24600430E+02</pdfrwt>
<pdfrwt beam="1">  1        2 0.26544321E+00 0.24600430E+02</pdfrwt>
<totfact> 0.24161371E+07</totfact>
</mgrwt>
</event>
<event>
 4    1  0.2260076E+006  0.2913727E+02  0.7546771E-02  0.1607826E+00
         -3   -1    0    0    0  501 -0.00000000000E+00  0.00000000000E+00  0.46056007792E+01  0.46056007792E+01  0.00000000000E+00 0.  1.
         21   -1    0    0  503  502  0.00000000000E+00 -0.00000000000E+00 -0.18564081348E+03  0.18564081348E+03  0.00000000000E+00 0. -1.
         21    1    1    2  503  501  0.27863392517E+02  0.85212424909E+01 -0.98491029047E+02  0.10271057890E+03  0.00000000000E+00 0. -1.
         -3    1    1    2    0  502 -0.27863392517E+02 -0.85212424909E+01 -0.82544183651E+02  0.87535835352E+02  0.00000000000E+00 0.  1.
<mgrwt>
<rscale>  2 0.29137265E+02</rscale>
<asrwt>0</asrwt>
<pdfrwt beam="2">  1       21 0.28560121E-01 0.29137265E+02</pdfrwt>
<pdfrwt beam="1">  1       -3 0.70855408E-03 0.29137265E+02</pdfrwt>
<totfact> 0.17452615E+06</totfact>
</mgrwt>
</event>
<event>
 4    1  0.2260076E+006  0.2800488E+02  0.7546771E-02  0.1621250E+00
         21   -1    0    0  503  502  0.00000000000E+00  0.00000000000E+00  0.33627257925E+02  0.33627257925E+02  0.00000000000E+00 0.  1.
          1   -1    0    0  502    0 -0.00000000000E+00 -0.00000000000E+00 -0.27694878109E+02  0.27694878109E+02  0.00000000000E+00 0.  1.
         21    1    1    2  503  501 -0.25439712047E+02  0.11708727794E+02  0.15148906510E+02  0.31839639194E+02  0.00000000000E+00 0.  1.
          1    1    1    2  501    0  0.25439712047E+02 -0.11708727794E+02 -0.92165266938E+01  0.29482496839E+02  0.00000000000E+00 0.  1.
<mgrwt>
<rscale>  2 0.28004879E+02</rscale>
<asrwt>0</asrwt>
<pdfrwt beam="1">  1       21 0.51734243E-02 0.28004879E+02</pdfrwt>
<pdfrwt beam="2">  1        1 0.42607505E-02 0.28004879E+02</pdfrwt>
<totfact> 0.39108122E+06</totfact>
</mgrwt>
</event>
<event>
 4    1  0.2260076E+006  0.3000704E+02  0.7546771E-02  0.1598011E+00
         21   -1    0    0  503  502  0.00000000000E+00  0.00000000000E+00  0.16617383671E+03  0.16617383671E+03  0.00000000000E+00 0.  1.
         -1   -1    0    0    0  501 -0.00000000000E+00 -0.00000000000E+00 -0.24488531582E+02  0.24488531582E+02  0.00000000000E+00 0. -1.
         21    1    1    2  503  501  0.13455030186E+02 -0.26821344736E+02  0.15496834949E+03  0.15784679823E+03  0.00000000000E+00 0.  1.
         -1    1    1    2    0  502 -0.13455030186E+02  0.26821344736E+02 -0.13283044358E+02  0.32815570057E+02  0.00000000000E+00 0. -1.
<mgrwt>
<rscale>  2 0.30007039E+02</rscale>
<asrwt>0</asrwt>
<pdfrwt beam="1">  1       21 0.25565205E-01 0.30007039E+02</pdfrwt>
<pdfrwt beam="2">  1       -1 0.37674665E-02 0.30007039E+02</pdfrwt>
<totfact> 0.28277862E+05</totfact>
</mgrwt>
</event>
<event>
 4    1  0.2260076E+006  0.2019587E+02  0.7546771E-02  0.1741461E+00
          1   -1    0    0  503    0 -0.00000000000E+00  0.00000000000E+00  0.80208506988E+03  0.80208506988E+03  0.00000000000E+00 0. -1.
         21   -1    0    0  501  502  0.00000000000E+00 -0.00000000000E+00 -0.77746857430E+00  0.77746857430E+00  0.00000000000E+00 0. -1.
         21    1    1    2  503  502 -0.16222135674E+02  0.12029767495E+02  0.16454741679E+03  0.16578216238E+03  0.00000000000E+00 0. -1.
          1    1    1    2  501    0  0.16222135674E+02 -0.12029767495E+02  0.63676018452E+03  0.63708037608E+03  0.00000000000E+00 0. -1.
<mgrwt>
<rscale>  2 0.20195866E+02</rscale>
<asrwt>0</asrwt>
<pdfrwt beam="2">  1       21 0.11961119E-03 0.20195866E+02</pdfrwt>
<pdfrwt beam="1">  1        1 0.12339704E+00 0.20195866E+02</pdfrwt>
<totfact> 0.16685939E+07</totfact>
</mgrwt>
</event>
<event>
 4    1  0.2260076E+006  0.2446343E+02  0.7546771E-02  0.1668831E+00
         21   -1    0    0  501  502  0.00000000000E+00  0.00000000000E+00  0.11852195458E+01  0.11852195458E+01  0.00000000000E+00 0. -1.
          1   -1    0    0  503    0 -0.00000000000E+00 -0.00000000000E+00 -0.79940394258E+03  0.79940394258E+03  0.00000000000E+00 0.  1.
         21    1    1    2  503  502 -0.24280921943E+02  0.29826426271E+01 -0.15615986253E+03  0.15806442355E+03  0.00000000000E+00 0. -1.
          1    1    1    2  501    0  0.24280921943E+02 -0.29826426271E+01 -0.64205886051E+03  0.64252473858E+03  0.00000000000E+00 0.  1.
<mgrwt>
<rscale>  2 0.24463428E+02</rscale>
<asrwt>0</asrwt>
<pdfrwt beam="1">  1       21 0.18234147E-03 0.24463428E+02</pdfrwt>
<pdfrwt beam="2">  1        1 0.12298522E+00 0.24463428E+02</pdfrwt>
<totfact> 0.96454392E+06</totfact>
</mgrwt>
</event>
<event>
 4    1  0.2260076E+006  0.2452198E+02  0.7546771E-02  0.1667964E+00
         21   -1    0    0  503  502  0.00000000000E+00  0.00000000000E+00  0.31342374736E+01  0.31342374736E+01  0.00000000000E+00 0. -1.
         -4   -1    0    0    0  501 -0.00000000000E+00 -0.00000000000E+00 -0.25067709248E+03  0.25067709248E+03  0.00000000000E+00 0. -1.
         21    1    1    2  503  501 -0.14462903105E+01 -0.24479288933E+02 -0.62298450271E+02  0.66950909243E+02  0.00000000000E+00 0. -1.
         -4    1    1    2    0  502  0.14462903105E+01  0.24479288933E+02 -0.18524440473E+03  0.18686042071E+03  0.00000000000E+00 0. -1.
<mgrwt>
<rscale>  2 0.24521977E+02</rscale>
<asrwt>0</asrwt>
<pdfrwt beam="1">  1       21 0.48219037E-03 0.24521977E+02</pdfrwt>
<pdfrwt beam="2">  1       -4 0.38565707E-01 0.24521977E+02</pdfrwt>
<totfact> 0.17838984E+06</totfact>
</mgrwt>
</event>
<event>
 4    1  0.2260076E+006  0.4332457E+02  0.7546771E-02  0.1485080E+00
          2   -1    0    0  502    0 -0.00000000000E+00  0.00000000000E+00  0.13887040687E+04  0.13887040687E+04  0.00000000000E+00 0. -1.
         21   -1    0    0  503  502  0.00000000000E+00 -0.00000000000E+00 -0.28040411992E+01  0.28040411992E+01  0.00000000000E+00 0. -1.
         21    1    1    2  503  501  0.16910166481E+02 -0.39888149235E+02  0.19221506486E+03  0.19703717755E+03  0.00000000000E+00 0. -1.
          2    1    1    2  501    0 -0.16910166481E+02  0.39888149235E+02  0.11936849627E+04  0.11944709324E+04  0.00000000000E+00 0. -1.
<mgrwt>
<rscale>  2 0.43324568E+02</rscale>
<asrwt>0</asrwt>
<pdfrwt beam="2">  1       21 0.43139206E-03 0.43324568E+02</pdfrwt>
<pdfrwt beam="1">  1        2 0.21364623E+00 0.43324568E+02</pdfrwt>
<totfact> 0.24708259E+06</totfact>
</mgrwt>
</event>
<event>
 4    1  0.2260076E+006  0.2038890E+02  0.7546771E-02  0.1737703E+00
         21   -1    0    0  503  502  0.00000000000E+00  0.00000000000E+00  0.70938683463E+00  0.70938683463E+00  0.00000000000E+00 0. -1.
          2   -1    0    0  502    0 -0.00000000000E+00 -0.00000000000E+00 -0.93266579717E+03  0.93266579717E+03  0.00000000000E+00 0.  1.
         21    1    1    2  503  501 -0.19741272491E+02 -0.50979857802E+01 -0.18145814827E+03  0.18260001882E+03  0.00000000000E+00 0. -1.
          2    1    1    2  501    0  0.19741272491E+02  0.50979857802E+01 -0.75049826206E+03  0.75077516518E+03  0.00000000000E+00 0.  1.
<mgrwt>
<rscale>  2 0.20388901E+02</rscale>
<asrwt>0</asrwt>
<pdfrwt beam="1">  1       21 0.10913612E-03 0.20388901E+02</pdfrwt>
<pdfrwt beam="2">  1        2 0.14348746E+00 0.20388901E+02</pdfrwt>
<totfact> 0.27095191E+07</totfact>
</mgrwt>
</event>
<event>
 4    1  0.2260076E+006  0.2485250E+02  0.7546771E-02  0.1663130E+00
         21   -1    0    0  501  502  0.00000000000E+00  0.00000000000E+00  0.62186272244E+01  0.62186272244E+01  0.00000000000E+00 0.  1.
         -4   -1    0    0    0  501 -0.00000000000E+00 -0.00000000000E+00 -0.19132873762E+03  0.19132873762E+03  0.00000000000E+00 0.  1.
         21    1    1    2  503  502  0.33227718606E+01 -0.24629369010E+02 -0.24059734114E+02  0.34590713151E+02  0.00000000000E+00 0.  1.
         -4    1    1    2    0  503 -0.33227718606E+01  0.24629369010E+02 -0.16105037628E+03  0.16295665169E+03  0.00000000000E+00 0.  1.
<mgrwt>
<rscale>  2 0.24852497E+02</rscale>
<asrwt>0</asrwt>
<pdfrwt beam="1">  1       21 0.95671188E-03 0.24852497E+02</pdfrwt>
<pdfrwt beam="2">  1       -4 0.29435190E-01 0.24852497E+02</pdfrwt>
<totfact> 0.10617377E+06</totfact>
</mgrwt>
</event>
<event>
 4    1  0.2260076E+006  0.3277368E+02  0.7546771E-02  0.1569309E+00
         21   -1    0    0  501  502  0.00000000000E+00  0.00000000000E+00  0.28623484340E+03  0.28623484340E+03  0.00000000000E+00 0.  1.
         -2   -1    0    0    0  501 -0.00000000000E+00 -0.00000000000E+00 -0.18054511417E+02  0.18054511417E+02  0.00000000000E+00 0.  1.
         21    1    1    2  503  502 -0.28489296711E+02  0.16201045690E+02  0.26950352685E+03  0.27148897748E+03  0.00000000000E+00 0.  1.
         -2    1    1    2    0  503  0.28489296711E+02 -0.16201045690E+02 -0.13231948703E+01  0.32800377333E+02  0.00000000000E+00 0.  1.
<mgrwt>
<rscale>  2 0.32773677E+02</rscale>
<asrwt>0</asrwt>
<pdfrwt beam="1">  1       21 0.44036127E-01 0.32773677E+02</pdfrwt>
<pdfrwt beam="2">  1       -2 0.27776173E-02 0.32773677E+02</pdfrwt>
<totfact> 0.15632570E+05</totfact>
</mgrwt>
</event>
<event>
 4    1  0.2260076E+006  0.2018779E+02  0.7546771E-02  0.1741619E+00
          3   -1    0    0  502    0 -0.00000000000E+00  0.00000000000E+00  0.13801158921E+04  0.13801158921E+04  0.00000000000E+00 0. -1.
         21   -1    0    0  503  502  0.00000000000E+00 -0.00000000000E+00 -0.53123096849E+00  0.53123096849E+00  0.00000000000E+00 0. -1.
         21    1    1    2  503  501 -0.13447058852E+02  0.15057344379E+02  0.22974312251E+03  0.23062837933E+03  0.00000000000E+00 0. -1.
          3    1    1    2  501    0  0.13447058852E+02 -0.15057344379E+02  0.11498415386E+04  0.11500187437E+04  0.00000000000E+00 0. -1.
<mgrwt>
<rscale>  2 0.20187794E+02</rscale>
<asrwt>0</asrwt>
<pdfrwt beam="2">  1       21 0.81728946E-04 0.20187794E+02</pdfrwt>
<pdfrwt beam="1">  1        3 0.21232265E+00 0.20187794E+02</pdfrwt>
<totfact> 0.71823527E+05</totfact>
</mgrwt>
</event>
<event>
 4    1  0.2260076E+006  0.4082588E+02  0.7546771E-02  0.1502220E+00
         21   -1    0    0  503  502  0.00000000000E+00  0.00000000000E+00  0.30331412659E+03  0.30331412659E+03  0.00000000000E+00 0.  1.
         -3   -1    0    0    0  501 -0.00000000000E+00 -0.00000000000E+00 -0.56468640152E+01  0.56468640152E+01  0.00000000000E+00 0.  1.
         21    1    1    2  503  501 -0.19001104874E+02  0.36134614626E+02  0.17415591971E+03  0.17887715541E+03  0.00000000000E+00 0.  1.
         -3    1    1    2    0  502  0.19001104874E+02 -0.36134614626E+02  0.12351134287E+03  0.13008383519E+03  0.00000000000E+00 0.  1.
<mgrwt>
<rscale>  2 0.40825879E+02</rscale>
<asrwt>0</asrwt>
<pdfrwt beam="1">  1       21 0.46663699E-01 0.40825879E+02</pdfrwt>
<pdfrwt beam="2">  1       -3 0.86874855E-03 0.40825879E+02</pdfrwt>
<totfact> 0.56208191E+05</totfact>
</mgrwt>
</event>
<event>
 4    1  0.2260076E+006  0.2703991E+02  0.7546771E-02  0.1633320E+00
         -2   -1    0    0    0  501 -0.00000000000E+00  0.00000000000E+00  0.31415727822E+02  0.31415727822E+02  0.00000000000E+00 0. -1.
         21   -1    0    0  501  502  0.00000000000E+00 -0.00000000000E+00 -0.45300487693E+02  0.45300487693E+02  0.00000000000E+00 0.  1.
         21    1    1    2  503  502  0.24504139045E+02  0.11432576857E+02 -0.33689833525E+02  0.43199091737E+02  0.00000000000E+00 0.  1.
         -2    1    1    2    0  503 -0.24504139045E+02 -0.11432576857E+02  0.19805073654E+02  0.33517123779E+02  0.00000000000E+00 0. -1.
<mgrwt>
<rscale>  2 0.27039908E+02</rscale>
<asrwt>0</asrwt>
<pdfrwt beam="2">  1       21 0.69693058E-02 0.27039908E+02</pdfrwt>
<pdfrwt beam="1">  1       -2 0.48331889E-02 0.27039908E+02</pdfrwt>
<totfact> 0.17560327E+06</totfact>
</mgrwt>
</event>
<event>
 4    1  0.2260076E+006  0.3057650E+02  0.7546771E-02  0.1591802E+00
         21   -1    0    0  501  502  0.00000000000E+00  0.00000000000E+00  0.94649926019E+01  0.94649926019E+01  0.00000000000E+00 0. -1.
          2   -1    0    0  503    0 -0.00000000000E+00 -0.00000000000E+00 -0.21542452399E+03  0.21542452399E+03  0.00000000000E+00 0.  1.
         21    1    1    2  503  502  0.15355271436E+02 -0.26441214398E+02 -0.20237067121E+02  0.36666893315E+02  0.00000000000E+00 0. -1.
          2    1    1    2  501    0 -0.15355271436E+02  0.26441214398E+02 -0.18572246427E+03  0.18822262328E+03  0.00000000000E+00 0.  1.
<mgrwt>
<rscale>  2 0.30576497E+02</rscale>
<asrwt>0</asrwt>
<pdfrwt beam="1">  1       21 0.14561527E-02 0.30576497E+02</pdfrwt>
<pdfrwt beam="2">  1        2 0.33142234E-01 0.30576497E+02</pdfrwt>
<totfact> 0.30223460E+06</totfact>
</mgrwt>
</event>
<event>
 4    1  0.2260076E+006  0.2057561E+02  0.7546771E-02  0.1734118E+00
         -1   -1    0    0    0  501 -0.00000000000E+00  0.00000000000E+00  0.69380363244E+02  0.69380363244E+02  0.00000000000E+00 0. -1.
         21   -1    0    0  503  502  0.00000000000E+00 -0.00000000000E+00 -0.46928496901E+02  0.46928496901E+02  0.00000000000E+00 0.  1.
         21    1    1    2  503  501 -0.19631792973E+02 -0.61602336376E+01 -0.43016078256E+02  0.47683736875E+02  0.00000000000E+00 0.  1.
         -1    1    1    2    0  502  0.19631792973E+02  0.61602336376E+01  0.65467944599E+02  0.68625123271E+02  0.00000000000E+00 0. -1.
<mgrwt>
<rscale>  2 0.20575611E+02</rscale>
<asrwt>0</asrwt>
<pdfrwt beam="2">  1       21 0.72197688E-02 0.20575611E+02</pdfrwt>
<pdfrwt beam="1">  1       -1 0.10673902E-01 0.20575611E+02</pdfrwt>
<totfact> 0.51785095E+05</totfact>
</mgrwt>
</event>
<event>
 4    1  0.2260076E+006  0.2782338E+02  0.7546771E-02  0.1623475E+00
          2   -1    0    0  503    0 -0.00000000000E+00  0.00000000000E+00  0.57928601303E+03  0.57928601303E+03  0.00000000000E+00 0.  1.
         21   -1    0    0  501  502  0.00000000000E+00 -0.00000000000E+00 -0.16795066100E+01  0.16795066100E+01  0.00000000000E+00 0. -1.
         21    1    1    2  503  502 -0.21372193657E+02  0.17814879509E+02  0.15750381321E+03  0.15994246393E+03  0.00000000000E+00 0. -1.
          2    1    1    2  501    0  0.21372193657E+02 -0.17814879509E+02  0.42010269321E+03  0.42102305571E+03  0.00000000000E+00 0.  1.
<mgrwt>
<rscale>  2 0.27823382E+02</rscale>
<asrwt>0</asrwt>
<pdfrwt beam="2">  1       21 0.25838610E-03 0.27823382E+02</pdfrwt>
<pdfrwt beam="1">  1        2 0.89120765E-01 0.27823382E+02</pdfrwt>
<totfact> 0.14468295E+07</totfact>
</mgrwt>
</event>
<event>
 4    1  0.2260076E+006  0.2920341E+02  0.7546771E-02  0.1607065E+00
         -3   -1    0    0    0  501 -0.00000000000E+00  0.00000000000E+00  0.20869889623E+03  0.20869889623E+03  0.00000000000E+00 0. -1.
         21   -1    0    0  501  502  0.00000000000E+00 -0.00000000000E+00 -0.15440968938E+03  0.15440968938E+03  0.00000000000E+00 0. -1.
         21    1    1    2  503  502  0.27179591779E+02 -0.10682183111E+02 -0.15199116009E+03  0.15477128930E+03  0.00000000000E+00 0. -1.
         -3    1    1    2    0  503 -0.27179591779E+02  0.10682183111E+02  0.20628036695E+03  0.20833729631E+03  0.00000000000E+00 0. -1.
<mgrwt>
<rscale>  2 0.29203412E+02</rscale>
<asrwt>0</asrwt>
<pdfrwt beam="2">  1       21 0.23755337E-01 0.29203412E+02</pdfrwt>
<pdfrwt beam="1">  1       -3 0.32107523E-01 0.29203412E+02</pdfrwt>
<totfact> 0.67297508E+03</totfact>
</mgrwt>
</event>
<event>
 4    1  0.2260076E+006  0.2163390E+02  0.7546771E-02  0.1714661E+00
         21   -1    0    0  501  502  0.00000000000E+00  0.00000000000E+00  0.11452560787E+03  0.11452560787E+03  0.00000000000E+00 0. -1.
          2   -1    0    0  503    0 -0.00000000000E+00 -0.00000000000E+00 -0.10050208627E+04  0.10050208627E+04  0.00000000000E+00 0. -1.
         21    1    1    2  503  502  0.20531707812E+02  0.68172428346E+01  0.11338636471E+03  0.11543177001E+03  0.00000000000E+00 0. -1.
          2    1    1    2  501    0 -0.20531707812E+02 -0.68172428346E+01 -0.10038816196E+04  0.10041147006E+04  0.00000000000E+00 0. -1.
<mgrwt>
<rscale>  2 0.21633905E+02</rscale>
<asrwt>0</asrwt>
<pdfrwt beam="1">  1       21 0.17619324E-01 0.21633905E+02</pdfrwt>
<pdfrwt beam="2">  1        2 0.15461859E+00 0.21633905E+02</pdfrwt>
<totfact> 0.10499404E+04</totfact>
</mgrwt>
</event>
<event>
 4    1  0.2260076E+006  0.2366636E+02  0.7546771E-02  0.1680931E+00
          3   -1    0    0  503    0 -0.00000000000E+00  0.00000000000E+00  0.76372400626E+02  0.76372400626E+02  0.00000000000E+00 0. -1.
         21   -1    0    0  501  502  0.00000000000E+00 -0.00000000000E+00 -0.80750443972E+01  0.80750443972E+01  0.00000000000E+00 0. -1.
         21    1    1    2  503  502 -0.16420941956E+01  0.23609320830E+02  0.21355517732E+02  0.31877180568E+02  0.00000000000E+00 0. -1.
          3    1    1    2  501    0  0.16420941956E+01 -0.23609320830E+02  0.46941838497E+02  0.52570264455E+02  0.00000000000E+00 0. -1.
<mgrwt>
<rscale>  2 0.23666358E+02</rscale>
<asrwt>0</asrwt>
<pdfrwt beam="2">  1       21 0.12423146E-02 0.23666358E+02</pdfrwt>
<pdfrwt beam="1">  1        3 0.11749600E-01 0.23666358E+02</pdfrwt>
<totfact> 0.41235798E+06</totfact>
</mgrwt>
</event>
<event>
 4    1  0.2260076E+006  0.2091323E+02  0.7546771E-02  0.1727754E+00
         21   -1    0    0  501  502  0.00000000000E+00  0.00000000000E+00  0.20986672987E+01  0.20986672987E+01  0.00000000000E+00 0. -1.
          3   -1    0    0  503    0 -0.00000000000E+00 -0.00000000000E+00 -0.21048777822E+03  0.21048777822E+03  0.00000000000E+00 0.  1.
         21    1    1    2  503  502  0.18577060937E+02 -0.96050046749E+01 -0.93609756155E+02  0.95917411117E+02  0.00000000000E+00 0. -1.
          3    1    1    2  501    0 -0.18577060937E+02  0.96050046749E+01 -0.11477935477E+03  0.11666903440E+03  0.00000000000E+00 0.  1.
<mgrwt>
<rscale>  2 0.20913233E+02</rscale>
<asrwt>0</asrwt>
<pdfrwt beam="1">  1       21 0.32287189E-03 0.20913233E+02</pdfrwt>
<pdfrwt beam="2">  1        3 0.32382735E-01 0.20913233E+02</pdfrwt>
<totfact> 0.52872246E+06</totfact>
</mgrwt>
</event>
<event>
 4    1  0.2260076E+006  0.2105438E+02  0.7546771E-02  0.1725139E+00
         -3   -1    0    0    0  501 -0.00000000000E+00  0.00000000000E+00  0.37301234309E+03  0.37301234309E+03  0.00000000000E+00 0.  1.
         21   -1    0    0  503  502  0.00000000000E+00 -0.00000000000E+00 -0.14198597046E+01  0.14198597046E+01  0.00000000000E+00 0. -1.
         21    1    1    2  503  501 -0.20663572660E+02 -0.40377595690E+01  0.11020682009E+03  0.11219995513E+03  0.00000000000E+00 0. -1.
         -3    1    1    2    0  502  0.20663572660E+02  0.40377595690E+01  0.26138566329E+03  0.26223224766E+03  0.00000000000E+00 0.  1.
<mgrwt>
<rscale>  2 0.21054376E+02</rscale>
<asrwt>0</asrwt>
<pdfrwt beam="2">  1       21 0.21844025E-03 0.21054376E+02</pdfrwt>
<pdfrwt beam="1">  1       -3 0.57386436E-01 0.21054376E+02</pdfrwt>
<totfact> 0.32321796E+06</totfact>
</mgrwt>
</event>
<event>
 4    1  0.2260076E+006  0.2347933E+02  0.7546771E-02  0.1683856E+00
         -3   -1    0    0    0  501 -0.00000000000E+00  0.00000000000E+00  0.11759690360E+03  0.11759690360E+03  0.00000000000E+00 0. -1.
         21   -1    0    0  501  502  0.00000000000E+00 -0.00000000000E+00 -0.42266099304E+02  0.42266099304E+02  0.00000000000E+00 0. -1.
         21    1    1    2  503  502  0.19903658923E+02 -0.12454846766E+02 -0.37703128728E+02  0.44416266867E+02  0.00000000000E+00 0. -1.
         -3    1    1    2    0  503 -0.19903658923E+02  0.12454846766E+02  0.11303393302E+03  0.11544673604E+03  0.00000000000E+00 0. -1.
<mgrwt>
<rscale>  2 0.23479328E+02</rscale>
<asrwt>0</asrwt>
<pdfrwt beam="2">  1       21 0.65024769E-02 0.23479328E+02</pdfrwt>
<pdfrwt beam="1">  1       -3 0.18091831E-01 0.23479328E+02</pdfrwt>
<totfact> 0.15470379E+05</totfact>
</mgrwt>
</event>
<event>
 4    1  0.2260076E+006  0.2812170E+02  0.7546771E-02  0.1619830E+00
         21   -1    0    0  501  502  0.00000000000E+00  0.00000000000E+00  0.10127122600E+03  0.10127122600E+03  0.00000000000E+00 0. -1.
          1   -1    0    0  503    0 -0.00000000000E+00 -0.00000000000E+00 -0.10599982615E+02  0.10599982615E+02  0.00000000000E+00 0.  1.
         21    1    1    2  503  502 -0.15844243097E+02  0.23233384422E+02  0.74037602843E+02  0.79198464794E+02  0.00000000000E+00 0. -1.
          1    1    1    2  501    0  0.15844243097E+02 -0.23233384422E+02  0.16633640541E+02  0.32672743820E+02  0.00000000000E+00 0.  1.
<mgrwt>
<rscale>  2 0.28121703E+02</rscale>
<asrwt>0</asrwt>
<pdfrwt beam="1">  1       21 0.15580188E-01 0.28121703E+02</pdfrwt>
<pdfrwt beam="2">  1        1 0.16307666E-02 0.28121703E+02</pdfrwt>
<totfact> 0.22234970E+06</totfact>
</mgrwt>
</event>
<event>
 4    1  0.2260076E+006  0.2989444E+02  0.7546771E-02  0.1599258E+00
         21   -1    0    0  501  502  0.00000000000E+00  0.00000000000E+00  0.90525303831E+01  0.90525303831E+01  0.00000000000E+00 0. -1.
          4   -1    0    0  503    0 -0.00000000000E+00 -0.00000000000E+00 -0.13988909681E+03  0.13988909681E+03  0.00000000000E+00 0.  1.
         21    1    1    2  503  502 -0.33583688936E+01  0.29705204644E+02 -0.25019077323E+02  0.38982458294E+02  0.00000000000E+00 0. -1.
          4    1    1    2  501    0  0.33583688936E+01 -0.29705204644E+02 -0.10581748910E+03  0.10995916889E+03  0.00000000000E+00 0.  1.
<mgrwt>
<rscale>  2 0.29894445E+02</rscale>
<asrwt>0</asrwt>
<pdfrwt beam="1">  1       21 0.13926971E-02 0.29894445E+02</pdfrwt>
<pdfrwt beam="2">  1        4 0.21521398E-01 0.29894445E+02</pdfrwt>
<totfact> 0.11259467E+06</totfact>
</mgrwt>
</event>
<event>
 4    1  0.2260076E+006  0.2630401E+02  0.7546771E-02  0.1642949E+00
         21   -1    0    0  501  502  0.00000000000E+00  0.00000000000E+00  0.22094362154E+02  0.22094362154E+02  0.00000000000E+00 0. -1.
          1   -1    0    0  503    0 -0.00000000000E+00 -0.00000000000E+00 -0.72141423099E+03  0.72141423099E+03  0.00000000000E+00 0. -1.
         21    1    1    2  503  502 -0.21996784322E+02  0.14423684790E+02  0.13936138812E+02  0.29767720242E+02  0.00000000000E+00 0. -1.
          1    1    1    2  501    0  0.21996784322E+02 -0.14423684790E+02 -0.71325600765E+03  0.71374087290E+03  0.00000000000E+00 0. -1.
<mgrwt>
<rscale>  2 0.26304015E+02</rscale>
<asrwt>0</asrwt>
<pdfrwt beam="1">  1       21 0.33991323E-02 0.26304015E+02</pdfrwt>
<pdfrwt beam="2">  1        1 0.11098682E+00 0.26304015E+02</pdfrwt>
<totfact> 0.13927130E+05</totfact>
</mgrwt>
</event>
<event>
 4    1  0.2260076E+006  0.2213549E+02  0.7546771E-02  0.1705919E+00
          1   -1    0    0  502    0 -0.00000000000E+00  0.00000000000E+00  0.98131283108E+01  0.98131283108E+01  0.00000000000E+00 0.  1.
         21   -1    0    0  503  502  0.00000000000E+00 -0.00000000000E+00 -0.41171165527E+03  0.41171165527E+03  0.00000000000E+00 0. -1.
         21    1    1    2  503  501  0.93306677218E+01  0.20072829018E+02 -0.39851843402E+03  0.39913271237E+03  0.00000000000E+00 0. -1.
          1    1    1    2  501    0 -0.93306677218E+01 -0.20072829018E+02 -0.33800929344E+01  0.22392071212E+02  0.00000000000E+00 0.  1.
<mgrwt>
<rscale>  2 0.22135488E+02</rscale>
<asrwt>0</asrwt>
<pdfrwt beam="2">  1       21 0.63340250E-01 0.22135488E+02</pdfrwt>
<pdfrwt beam="1">  1        1 0.15097122E-02 0.22135488E+02</pdfrwt>
<totfact> 0.17657739E+05</totfact>
</mgrwt>
</event>
<event>
 4    1  0.2260076E+006  0.3363596E+02  0.7546771E-02  0.1561058E+00
         21   -1    0    0  503  502  0.00000000000E+00  0.00000000000E+00  0.27777476895E+02  0.27777476895E+02  0.00000000000E+00 0. -1.
          2   -1    0    0  502    0 -0.00000000000E+00 -0.00000000000E+00 -0.61447147280E+03  0.61447147280E+03  0.00000000000E+00 0. -1.
         21    1    1    2  503  501  0.28501157758E+02  0.17862304419E+02  0.16952197061E+02  0.37666362950E+02  0.00000000000E+00 0. -1.
          2    1    1    2  501    0 -0.28501157758E+02 -0.17862304419E+02 -0.60364619297E+03  0.60458258675E+03  0.00000000000E+00 0. -1.
<mgrwt>
<rscale>  2 0.33635962E+02</rscale>
<asrwt>0</asrwt>
<pdfrwt beam="1">  1       21 0.42734575E-02 0.33635962E+02</pdfrwt>
<pdfrwt beam="2">  1        2 0.94534084E-01 0.33635962E+02</pdfrwt>
<totfact> 0.19588534E+05</totfact>
</mgrwt>
</event>
<event>
 4    1  0.2260076E+006  0.2067010E+02  0.7546771E-02  0.1732322E+00
         21   -1    0    0  501  502  0.00000000000E+00  0.00000000000E+00  0.15705547470E+02  0.15705547470E+02  0.00000000000E+00 0. -1.
         -1   -1    0    0    0  501 -0.00000000000E+00 -0.00000000000E+00 -0.45200675940E+02  0.45200675940E+02  0.00000000000E+00 0. -1.
         21    1    1    2  503  502 -0.20460318245E+02 -0.29373864471E+01  0.44681270714E+01  0.21147506268E+02  0.00000000000E+00 0. -1.
         -1    1    1    2    0  503  0.20460318245E+02  0.29373864471E+01 -0.33963255541E+02  0.39758717142E+02  0.00000000000E+00 0. -1.
<mgrwt>
<rscale>  2 0.20670096E+02</rscale>
<asrwt>0</asrwt>
<pdfrwt beam="1">  1       21 0.24162381E-02 0.20670096E+02</pdfrwt>
<pdfrwt beam="2">  1       -1 0.69539501E-02 0.20670096E+02</pdfrwt>
<totfact> 0.53450179E+06</totfact>
</mgrwt>
</event>
<event>
 4    1  0.2260076E+006  0.2087142E+02  0.7546771E-02  0.1728534E+00
         21   -1    0    0  503  502  0.00000000000E+00  0.00000000000E+00  0.14862704530E+03  0.14862704530E+03  0.00000000000E+00 0. -1.
          2   -1    0    0  502    0 -0.00000000000E+00 -0.00000000000E+00 -0.15068873933E+02  0.15068873933E+02  0.00000000000E+00 0. -1.
         21    1    1    2  503  501 -0.55524963526E+01  0.20119292006E+02  0.14023722806E+03  0.14178186153E+03  0.00000000000E+00 0. -1.
          2    1    1    2  501    0  0.55524963526E+01 -0.20119292006E+02 -0.66790566910E+01  0.21914057699E+02  0.00000000000E+00 0. -1.
<mgrwt>
<rscale>  2 0.20871419E+02</rscale>
<asrwt>0</asrwt>
<pdfrwt beam="1">  1       21 0.22865698E-01 0.20871419E+02</pdfrwt>
<pdfrwt beam="2">  1        2 0.23182884E-02 0.20871419E+02</pdfrwt>
<totfact> 0.70057411E+05</totfact>
</mgrwt>
</event>
<event>
 4    1  0.2260076E+006  0.2097174E+02  0.7546771E-02  0.1726667E+00
         -3   -1    0    0    0  501 -0.00000000000E+00  0.00000000000E+00  0.60482477283E+02  0.60482477283E+02  0.00000000000E+00 0.  1.
         21   -1    0    0  501  502  0.00000000000E+00 -0.00000000000E+00 -0.88165608857E+01  0.88165608857E+01  0.00000000000E+00 0.  1.
         21    1    1    2  503  502  0.21630526846E+01 -0.20859895097E+02  0.11329086464E+02  0.23836153643E+02  0.00000000000E+00 0.  1.
         -3    1    1    2    0  503 -0.21630526846E+01  0.20859895097E+02  0.40336829933E+02  0.45462884526E+02  0.00000000000E+00 0.  1.
<mgrwt>
<rscale>  2 0.20971743E+02</rscale>
<asrwt>0</asrwt>
<pdfrwt beam="2">  1       21 0.13563940E-02 0.20971743E+02</pdfrwt>
<pdfrwt beam="1">  1       -3 0.93049963E-02 0.20971743E+02</pdfrwt>
<totfact> 0.49577262E+06</totfact>
</mgrwt>
</event>
<event>
 4    1  0.2260076E+006  0.3376291E+02  0.7546771E-02  0.1559869E+00
         21   -1    0    0  501  502  0.00000000000E+00  0.00000000000E+00  0.27428156119E+01  0.27428156119E+01  0.00000000000E+00 0.  1.
          2   -1    0    0  503    0 -0.00000000000E+00 -0.00000000000E+00 -0.68066965688E+03  0.68066965688E+03  0.00000000000E+00 0. -1.
         21    1    1    2  503  502 -0.32645052475E+02  0.86159603620E+01 -0.12572830444E+03  0.13018272067E+03  0.00000000000E+00 0.  1.
          2    1    1    2  501    0  0.32645052475E+02 -0.86159603620E+01 -0.55219853683E+03  0.55322975182E+03  0.00000000000E+00 0. -1.
<mgrwt>
<rscale>  2 0.33762912E+02</rscale>
<asrwt>0</asrwt>
<pdfrwt beam="1">  1       21 0.42197106E-03 0.33762912E+02</pdfrwt>
<pdfrwt beam="2">  1        2 0.10471855E+00 0.33762912E+02</pdfrwt>
<totfact> 0.61727583E+06</totfact>
</mgrwt>
</event>
<event>
 4    1  0.2260076E+006  0.2023541E+02  0.7546771E-02  0.1740687E+00
         21   -1    0    0  501  502  0.00000000000E+00  0.00000000000E+00  0.75176478226E+01  0.75176478226E+01  0.00000000000E+00 0. -1.
          2   -1    0    0  503    0 -0.00000000000E+00 -0.00000000000E+00 -0.87106848955E+03  0.87106848955E+03  0.00000000000E+00 0. -1.
         21    1    1    2  503  502 -0.44901884200E+01  0.19730937780E+02 -0.64385801848E+01  0.21235042089E+02  0.00000000000E+00 0. -1.
          2    1    1    2  501    0  0.44901884200E+01 -0.19730937780E+02 -0.85711226154E+03  0.85735109528E+03  0.00000000000E+00 0. -1.
<mgrwt>
<rscale>  2 0.20235407E+02</rscale>
<asrwt>0</asrwt>
<pdfrwt beam="1">  1       21 0.11565613E-02 0.20235407E+02</pdfrwt>
<pdfrwt beam="2">  1        2 0.13401053E+00 0.20235407E+02</pdfrwt>
<totfact> 0.93868218E+05</totfact>
</mgrwt>
</event>
<event>
 4    1  0.2260076E+006  0.2269317E+02  0.7546771E-02  0.1696532E+00
         21   -1    0    0  501  502  0.00000000000E+00  0.00000000000E+00  0.76192106024E+02  0.76192106024E+02  0.00000000000E+00 0.  1.
          1   -1    0    0  503    0 -0.00000000000E+00 -0.00000000000E+00 -0.36902267604E+02  0.36902267604E+02  0.00000000000E+00 0.  1.
         21    1    1    2  503  502  0.20038221947E+02 -0.10651279400E+02  0.70751857494E+02  0.74302122652E+02  0.00000000000E+00 0.  1.
          1    1    1    2  501    0 -0.20038221947E+02  0.10651279400E+02 -0.31462019074E+02  0.38792250976E+02  0.00000000000E+00 0.  1.
<mgrwt>
<rscale>  2 0.22693173E+02</rscale>
<asrwt>0</asrwt>
<pdfrwt beam="1">  1       21 0.11721862E-01 0.22693173E+02</pdfrwt>
<pdfrwt beam="2">  1        1 0.56772720E-02 0.22693173E+02</pdfrwt>
<totfact> 0.67524967E+05</totfact>
</mgrwt>
</event>
<event>
 4    1  0.2260076E+006  0.2192573E+02  0.7546771E-02  0.1709540E+00
          2   -1    0    0  502    0 -0.00000000000E+00  0.00000000000E+00  0.23513213954E+02  0.23513213954E+02  0.00000000000E+00 0. -1.
         21   -1    0    0  503  502  0.00000000000E+00 -0.00000000000E+00 -0.75510889723E+03  0.75510889723E+03  0.00000000000E+00 0.  1.
         21    1    1    2  503  501 -0.16801704137E+02 -0.14086889447E+02 -0.74980221095E+03  0.75012271880E+03  0.00000000000E+00 0.  1.
          2    1    1    2  501    0  0.16801704137E+02  0.14086889447E+02  0.18206527674E+02  0.28499392382E+02  0.00000000000E+00 0. -1.
<mgrwt>
<rscale>  2 0.21925732E+02</rscale>
<asrwt>0</asrwt>
<pdfrwt beam="2">  1       21 0.11617058E+00 0.21925732E+02</pdfrwt>
<pdfrwt beam="1">  1        2 0.36174181E-02 0.21925732E+02</pdfrwt>
<totfact> 0.16513988E+04</totfact>
</mgrwt>
</event>
<event>
 4    1  0.2260076E+006  0.2176969E+02  0.7546771E-02  0.1712266E+00
         21   -1    0    0  501  502  0.00000000000E+00  0.00000000000E+00  0.14327546321E+04  0.14327546321E+04  0.00000000000E+00 0. -1.
          4   -1    0    0  503    0 -0.00000000000E+00 -0.00000000000E+00 -0.33100588614E+00  0.33100588614E+00  0.00000000000E+00 0. -1.
         21    1    1    2  503  502  0.13488639963E+02 -0.17087299987E+02  0.73514153844E+03  0.73546379977E+03  0.00000000000E+00 0. -1.
          4    1    1    2  501    0 -0.13488639963E+02  0.17087299987E+02  0.69728208774E+03  0.69762183819E+03  0.00000000000E+00 0. -1.
<mgrwt>
<rscale>  2 0.21769686E+02</rscale>
<asrwt>0</asrwt>
<pdfrwt beam="1">  1       21 0.22041882E+00 0.21769686E+02</pdfrwt>
<pdfrwt beam="2">  1        4 0.50925130E-04 0.21769686E+02</pdfrwt>
<totfact> 0.68293920E+05</totfact>
</mgrwt>
</event>
<event>
 4    1  0.2260076E+006  0.2245270E+02  0.7546771E-02  0.1700538E+00
         21   -1    0    0  501  502  0.00000000000E+00  0.00000000000E+00  0.31560957714E+03  0.31560957714E+03  0.00000000000E+00 0.  1.
          1   -1    0    0  503    0 -0.00000000000E+00 -0.00000000000E+00 -0.26795670534E+01  0.26795670534E+01  0.00000000000E+00 0.  1.
         21    1    1    2  503  502 -0.22452573275E+02  0.74413629735E-01  0.25760582651E+03  0.25858245385E+03  0.00000000000E+00 0.  1.
          1    1    1    2  501    0  0.22452573275E+02 -0.74413629735E-01  0.55324183579E+02  0.59706690351E+02  0.00000000000E+00 0.  1.
<mgrwt>
<rscale>  2 0.22452697E+02</rscale>
<asrwt>0</asrwt>
<pdfrwt beam="1">  1       21 0.48555290E-01 0.22452697E+02</pdfrwt>
<pdfrwt beam="2">  1        1 0.41224133E-03 0.22452697E+02</pdfrwt>
<totfact> 0.16569806E+06</totfact>
</mgrwt>
</event>
<event>
 4    1  0.2260076E+006  0.2653268E+02  0.7546771E-02  0.1639916E+00
         21   -1    0    0  503  502  0.00000000000E+00  0.00000000000E+00  0.27142351561E+01  0.27142351561E+01  0.00000000000E+00 0. -1.
          2   -1    0    0  502    0 -0.00000000000E+00 -0.00000000000E+00 -0.76141376352E+03  0.76141376352E+03  0.00000000000E+00 0.  1.
         21    1    1    2  503  501 -0.24291479751E+02  0.10672738810E+02 -0.69109763975E+02  0.74027986727E+02  0.00000000000E+00 0. -1.
          2    1    1    2  501    0  0.24291479751E+02 -0.10672738810E+02 -0.68958976439E+03  0.69010001195E+03  0.00000000000E+00 0.  1.
<mgrwt>
<rscale>  2 0.26532684E+02</rscale>
<asrwt>0</asrwt>
<pdfrwt beam="1">  1       21 0.41757407E-03 0.26532684E+02</pdfrwt>
<pdfrwt beam="2">  1        2 0.11714074E+00 0.26532684E+02</pdfrwt>
<totfact> 0.52613566E+06</totfact>
</mgrwt>
</event>
<event>
 4    1  0.2260076E+006  0.2089107E+02  0.7546771E-02  0.1728167E+00
         21   -1    0    0  503  502  0.00000000000E+00  0.00000000000E+00  0.10333878443E+02  0.10333878443E+02  0.00000000000E+00 0.  1.
         -2   -1    0    0    0  501 -0.00000000000E+00 -0.00000000000E+00 -0.24426039743E+03  0.24426039743E+03  0.00000000000E+00 0.  1.
         21    1    1    2  503  501  0.50687330432E+01 -0.20266842881E+02 -0.11931109917E+01  0.20925116221E+02  0.00000000000E+00 0.  1.
         -2    1    1    2    0  502 -0.50687330432E+01  0.20266842881E+02 -0.23273340799E+03  0.23366915965E+03  0.00000000000E+00 0.  1.
<mgrwt>
<rscale>  2 0.20891074E+02</rscale>
<asrwt>0</asrwt>
<pdfrwt beam="1">  1       21 0.15898274E-02 0.20891074E+02</pdfrwt>
<pdfrwt beam="2">  1       -2 0.37578524E-01 0.20891074E+02</pdfrwt>
<totfact> 0.68505361E+05</totfact>
</mgrwt>
</event>
<event>
 4    1  0.2260076E+006  0.2046084E+02  0.7546771E-02  0.1736316E+00
         21   -1    0    0  503  502  0.00000000000E+00  0.00000000000E+00  0.34200104323E+01  0.34200104323E+01  0.00000000000E+00 0.  1.
         -1   -1    0    0    0  501 -0.00000000000E+00 -0.00000000000E+00 -0.50055480666E+03  0.50055480666E+03  0.00000000000E+00 0. -1.
         21    1    1    2  503  501 -0.80214558914E+01  0.18822912703E+02 -0.29548442985E+02  0.35941011116E+02  0.00000000000E+00 0.  1.
         -1    1    1    2    0  502  0.80214558914E+01 -0.18822912703E+02 -0.46758635324E+03  0.46803380598E+03  0.00000000000E+00 0. -1.
<mgrwt>
<rscale>  2 0.20460836E+02</rscale>
<asrwt>0</asrwt>
<pdfrwt beam="1">  1       21 0.52615575E-03 0.20460836E+02</pdfrwt>
<pdfrwt beam="2">  1       -1 0.77008387E-01 0.20460836E+02</pdfrwt>
<totfact> 0.11945400E+06</totfact>
</mgrwt>
</event>
<event>
 4    1  0.2260076E+006  0.2392055E+02  0.7546771E-02  0.1677009E+00
          2   -1    0    0  503    0 -0.00000000000E+00  0.00000000000E+00  0.16152347758E+04  0.16152347758E+04  0.00000000000E+00 0. -1.
         21   -1    0    0  501  502  0.00000000000E+00 -0.00000000000E+00 -0.29991089366E+03  0.29991089366E+03  0.00000000000E+00 0.  1.
         21    1    1    2  503  502 -0.51579405271E+00  0.23914986345E+02 -0.29934519588E+03  0.30029941544E+03  0.00000000000E+00 0.  1.
          2    1    1    2  501    0  0.51579405271E+00 -0.23914986345E+02  0.16146690780E+04  0.16148462540E+04  0.00000000000E+00 0. -1.
<mgrwt>
<rscale>  2 0.23920548E+02</rscale>
<asrwt>0</asrwt>
<pdfrwt beam="2">  1       21 0.46140138E-01 0.23920548E+02</pdfrwt>
<pdfrwt beam="1">  1        2 0.24849765E+00 0.23920548E+02</pdfrwt>
<totfact> 0.91178634E+02</totfact>
</mgrwt>
</event>
<event>
 4    1  0.2260076E+006  0.2490983E+02  0.7546771E-02  0.1662300E+00
          2   -1    0    0  503    0 -0.00000000000E+00  0.00000000000E+00  0.17181622936E+04  0.17181622936E+04  0.00000000000E+00 0. -1.
         21   -1    0    0  501  502  0.00000000000E+00 -0.00000000000E+00 -0.23674263288E+02  0.23674263288E+02  0.00000000000E+00 0. -1.
         21    1    1    2  503  502  0.22412547754E+02 -0.10870947128E+02 -0.17005977665E+02  0.30161284200E+02  0.00000000000E+00 0. -1.
          2    1    1    2  501    0 -0.22412547754E+02  0.10870947128E+02  0.17114940080E+04  0.17116752727E+04  0.00000000000E+00 0. -1.
<mgrwt>
<rscale>  2 0.24909833E+02</rscale>
<asrwt>0</asrwt>
<pdfrwt beam="2">  1       21 0.36421957E-02 0.24909833E+02</pdfrwt>
<pdfrwt beam="1">  1        2 0.26433256E+00 0.24909833E+02</pdfrwt>
<totfact> 0.62290915E+04</totfact>
</mgrwt>
</event>
<event>
 4    1  0.2260076E+006  0.2048416E+02  0.7546771E-02  0.1735868E+00
          2   -1    0    0  502    0 -0.00000000000E+00  0.00000000000E+00  0.41882754692E+03  0.41882754692E+03  0.00000000000E+00 0. -1.
         21   -1    0    0  503  502  0.00000000000E+00 -0.00000000000E+00 -0.19864435415E+03  0.19864435415E+03  0.00000000000E+00 0. -1.
         21    1    1    2  503  501  0.20254570622E+02  0.30583093683E+01 -0.19786482787E+03  0.19892232402E+03  0.00000000000E+00 0. -1.
          2    1    1    2  501    0 -0.20254570622E+02 -0.30583093683E+01  0.41804802064E+03  0.41854957705E+03  0.00000000000E+00 0. -1.
<mgrwt>
<rscale>  2 0.20484162E+02</rscale>
<asrwt>0</asrwt>
<pdfrwt beam="2">  1       21 0.30560670E-01 0.20484162E+02</pdfrwt>
<pdfrwt beam="1">  1        2 0.64435007E-01 0.20484162E+02</pdfrwt>
<totfact> 0.10190083E+04</totfact>
</mgrwt>
</event>
<event>
 4    1  0.2260076E+006  0.2363661E+02  0.7546771E-02  0.1681394E+00
         21   -1    0    0  503  502  0.00000000000E+00  0.00000000000E+00  0.20349370734E+01  0.20349370734E+01  0.00000000000E+00 0. -1.
          3   -1    0    0  502    0 -0.00000000000E+00 -0.00000000000E+00 -0.38423949009E+03  0.38423949009E+03  0.00000000000E+00 0. -1.
         21    1    1    2  503  501  0.19042464481E+02 -0.14002638925E+02 -0.87909327560E+02  0.91031528727E+02  0.00000000000E+00 0. -1.
          3    1    1    2  501    0 -0.19042464481E+02  0.14002638925E+02 -0.29429522546E+03  0.29524289844E+03  0.00000000000E+00 0. -1.
<mgrwt>
<rscale>  2 0.23636610E+02</rscale>
<asrwt>0</asrwt>
<pdfrwt beam="1">  1       21 0.31306750E-03 0.23636610E+02</pdfrwt>
<pdfrwt beam="2">  1        3 0.59113718E-01 0.23636610E+02</pdfrwt>
<totfact> 0.18959632E+06</totfact>
</mgrwt>
</event>
<event>
 4    1  0.2260076E+006  0.3408045E+02  0.7546771E-02  0.1556921E+00
          1   -1    0    0  503    0 -0.00000000000E+00  0.00000000000E+00  0.61577577138E+02  0.61577577138E+02  0.00000000000E+00 0.  1.
         21   -1    0    0  501  502  0.00000000000E+00 -0.00000000000E+00 -0.22094223576E+02  0.22094223576E+02  0.00000000000E+00 0.  1.
         21    1    1    2  503  502 -0.29365909371E+02  0.17295108261E+02  0.37402319824E+01  0.34285080403E+02  0.00000000000E+00 0.  1.
          1    1    1    2  501    0  0.29365909371E+02 -0.17295108261E+02  0.35743121579E+02  0.49386720312E+02  0.00000000000E+00 0.  1.
<mgrwt>
<rscale>  2 0.34080455E+02</rscale>
<asrwt>0</asrwt>
<pdfrwt beam="2">  1       21 0.33991113E-02 0.34080455E+02</pdfrwt>
<pdfrwt beam="1">  1        1 0.94734733E-02 0.34080455E+02</pdfrwt>
<totfact> 0.28645714E+06</totfact>
</mgrwt>
</event>
<event>
 4    1  0.2260076E+006  0.2717801E+02  0.7546771E-02  0.1631555E+00
         -2   -1    0    0    0  501 -0.00000000000E+00  0.00000000000E+00  0.39118734908E+03  0.39118734908E+03  0.00000000000E+00 0. -1.
         21   -1    0    0  503  502  0.00000000000E+00 -0.00000000000E+00 -0.18988485455E+01  0.18988485455E+01  0.00000000000E+00 0. -1.
         21    1    1    2  503  501  0.85817084688E+01 -0.25787564800E+02  0.17993348433E+03  0.18197445700E+03  0.00000000000E+00 0. -1.
         -2    1    1    2    0  502 -0.85817084688E+01  0.25787564800E+02  0.20935501621E+03  0.21111174063E+03  0.00000000000E+00 0. -1.
<mgrwt>
<rscale>  2 0.27178010E+02</rscale>
<asrwt>0</asrwt>
<pdfrwt beam="2">  1       21 0.29213086E-03 0.27178010E+02</pdfrwt>
<pdfrwt beam="1">  1       -2 0.60182605E-01 0.27178010E+02</pdfrwt>
<totfact> 0.37663030E+06</totfact>
</mgrwt>
</event>
<event>
 4    1  0.2260076E+006  0.2610134E+02  0.7546771E-02  0.1645669E+00
          1   -1    0    0  502    0 -0.00000000000E+00  0.00000000000E+00  0.35924662486E+03  0.35924662486E+03  0.00000000000E+00 0. -1.
         21   -1    0    0  503  502  0.00000000000E+00 -0.00000000000E+00 -0.18871766297E+03  0.18871766297E+03  0.00000000000E+00 0. -1.
         21    1    1    2  503  501  0.14111410061E+01  0.26063165398E+02 -0.18733757178E+03  0.18914715359E+03  0.00000000000E+00 0. -1.
          1    1    1    2  501    0 -0.14111410061E+01 -0.26063165398E+02  0.35786653366E+03  0.35881713424E+03  0.00000000000E+00 0. -1.
<mgrwt>
<rscale>  2 0.26101339E+02</rscale>
<asrwt>0</asrwt>
<pdfrwt beam="2">  1       21 0.29033487E-01 0.26101339E+02</pdfrwt>
<pdfrwt beam="1">  1        1 0.55268712E-01 0.26101339E+02</pdfrwt>
<totfact> 0.90539293E+03</totfact>
</mgrwt>
</event>
<event>
 4    1  0.2260076E+006  0.2178143E+02  0.7546771E-02  0.1712060E+00
         21   -1    0    0  501  502  0.00000000000E+00  0.00000000000E+00  0.25820420744E+02  0.25820420744E+02  0.00000000000E+00 0. -1.
          3   -1    0    0  503    0 -0.00000000000E+00 -0.00000000000E+00 -0.12532030449E+03  0.12532030449E+03  0.00000000000E+00 0.  1.
         21    1    1    2  503  502  0.21692139983E+02  0.19702464206E+01  0.20060947924E+02  0.29612032007E+02  0.00000000000E+00 0. -1.
          3    1    1    2  501    0 -0.21692139983E+02 -0.19702464206E+01 -0.11956083167E+03  0.12152869323E+03  0.00000000000E+00 0.  1.
<mgrwt>
<rscale>  2 0.21781433E+02</rscale>
<asrwt>0</asrwt>
<pdfrwt beam="1">  1       21 0.39723724E-02 0.21781433E+02</pdfrwt>
<pdfrwt beam="2">  1        3 0.19280047E-01 0.21781433E+02</pdfrwt>
<totfact> 0.29812935E+05</totfact>
</mgrwt>
</event>
<event>
 4    1  0.2260076E+006  0.2161531E+02  0.7546771E-02  0.1714991E+00
         21   -1    0    0  503  502  0.00000000000E+00  0.00000000000E+00  0.90415628918E+00  0.90415628918E+00  0.00000000000E+00 0. -1.
          2   -1    0    0  502    0 -0.00000000000E+00 -0.00000000000E+00 -0.58322450193E+03  0.58322450193E+03  0.00000000000E+00 0. -1.
         21    1    1    2  503  501 -0.11569557125E+02 -0.18258334268E+02 -0.19255651511E+03  0.19376592305E+03  0.00000000000E+00 0. -1.
          2    1    1    2  501    0  0.11569557125E+02  0.18258334268E+02 -0.38976383052E+03  0.39036273517E+03  0.00000000000E+00 0. -1.
<mgrwt>
<rscale>  2 0.21615305E+02</rscale>
<asrwt>0</asrwt>
<pdfrwt beam="1">  1       21 0.13910124E-03 0.21615305E+02</pdfrwt>
<pdfrwt beam="2">  1        2 0.89726670E-01 0.21615305E+02</pdfrwt>
<totfact> 0.32743207E+07</totfact>
</mgrwt>
</event>
<event>
 4    1  0.2260076E+006  0.2413351E+02  0.7546771E-02  0.1673769E+00
          1   -1    0    0  502    0 -0.00000000000E+00  0.00000000000E+00  0.55399724996E+03  0.55399724996E+03  0.00000000000E+00 0.  1.
         21   -1    0    0  503  502  0.00000000000E+00 -0.00000000000E+00 -0.23361052604E+01  0.23361052604E+01  0.00000000000E+00 0. -1.
         21    1    1    2  503  501  0.18734369200E+02 -0.15213475637E+02  0.69542190133E+02  0.73610750836E+02  0.00000000000E+00 0. -1.
          1    1    1    2  501    0 -0.18734369200E+02  0.15213475637E+02  0.48211895457E+03  0.48272260438E+03  0.00000000000E+00 0.  1.
<mgrwt>
<rscale>  2 0.24133513E+02</rscale>
<asrwt>0</asrwt>
<pdfrwt beam="2">  1       21 0.35940125E-03 0.24133513E+02</pdfrwt>
<pdfrwt beam="1">  1        1 0.85230242E-01 0.24133513E+02</pdfrwt>
<totfact> 0.57740949E+06</totfact>
</mgrwt>
</event>
<event>
 4    1  0.2260076E+006  0.3518157E+02  0.7546771E-02  0.1546994E+00
         21   -1    0    0  503  502  0.00000000000E+00  0.00000000000E+00  0.61713741899E+02  0.61713741899E+02  0.00000000000E+00 0. -1.
          1   -1    0    0  502    0 -0.00000000000E+00 -0.00000000000E+00 -0.10118214346E+04  0.10118214346E+04  0.00000000000E+00 0. -1.
         21    1    1    2  503  501  0.25745570424E+02  0.23977248611E+02  0.56367245650E+02  0.66445535814E+02  0.00000000000E+00 0. -1.
          1    1    1    2  501    0 -0.25745570424E+02 -0.23977248611E+02 -0.10064749384E+04  0.10070896407E+04  0.00000000000E+00 0. -1.
<mgrwt>
<rscale>  2 0.35181570E+02</rscale>
<asrwt>0</asrwt>
<pdfrwt beam="1">  1       21 0.94944225E-02 0.35181570E+02</pdfrwt>
<pdfrwt beam="2">  1        1 0.15566482E+00 0.35181570E+02</pdfrwt>
<totfact> 0.16330643E+04</totfact>
</mgrwt>
</event>
<event>
 4    1  0.2260076E+006  0.2064260E+02  0.7546771E-02  0.1732843E+00
         21   -1    0    0  501  502  0.00000000000E+00  0.00000000000E+00  0.61726872678E+01  0.61726872678E+01  0.00000000000E+00 0. -1.
          2   -1    0    0  503    0 -0.00000000000E+00 -0.00000000000E+00 -0.22698792652E+03  0.22698792652E+03  0.00000000000E+00 0.  1.
         21    1    1    2  503  502  0.19792639480E+02  0.58624554861E+01 -0.13157334345E+02  0.24479224027E+02  0.00000000000E+00 0. -1.
          2    1    1    2  501    0 -0.19792639480E+02 -0.58624554861E+01 -0.20765790491E+03  0.20868138976E+03  0.00000000000E+00 0.  1.
<mgrwt>
<rscale>  2 0.20642601E+02</rscale>
<asrwt>0</asrwt>
<pdfrwt beam="1">  1       21 0.94964437E-03 0.20642601E+02</pdfrwt>
<pdfrwt beam="2">  1        2 0.34921213E-01 0.20642601E+02</pdfrwt>
<totfact> 0.49830572E+06</totfact>
</mgrwt>
</event>
<event>
 4    1  0.2260076E+006  0.2468507E+02  0.7546771E-02  0.1665567E+00
         21   -1    0    0  503  502  0.00000000000E+00  0.00000000000E+00  0.69411941790E+02  0.69411941790E+02  0.00000000000E+00 0.  1.
         -3   -1    0    0    0  501 -0.00000000000E+00 -0.00000000000E+00 -0.29473811762E+02  0.29473811762E+02  0.00000000000E+00 0. -1.
         21    1    1    2  503  501  0.56046229065E+01  0.24040403389E+02  0.61399408401E+02  0.66175827498E+02  0.00000000000E+00 0.  1.
         -3    1    1    2    0  502 -0.56046229065E+01 -0.24040403389E+02 -0.21461278374E+02  0.32709926054E+02  0.00000000000E+00 0. -1.
<mgrwt>
<rscale>  2 0.24685072E+02</rscale>
<asrwt>0</asrwt>
<pdfrwt beam="1">  1       21 0.10678760E-01 0.24685072E+02</pdfrwt>
<pdfrwt beam="2">  1       -3 0.45344326E-02 0.24685072E+02</pdfrwt>
<totfact> 0.61071954E+05</totfact>
</mgrwt>
</event>
<event>
 4    1  0.2260076E+006  0.3010213E+02  0.7546771E-02  0.1596962E+00
         21   -1    0    0  503  502  0.00000000000E+00  0.00000000000E+00  0.57656806315E+03  0.57656806315E+03  0.00000000000E+00 0.  1.
          2   -1    0    0  502    0 -0.00000000000E+00 -0.00000000000E+00 -0.14221407589E+03  0.14221407589E+03  0.00000000000E+00 0.  1.
         21    1    1    2  503  501 -0.21497331006E+02 -0.21071383617E+02  0.57457673182E+03  0.57536471841E+03  0.00000000000E+00 0.  1.
          2    1    1    2  501    0  0.21497331006E+02  0.21071383617E+02 -0.14022274455E+03  0.14341742062E+03  0.00000000000E+00 0.  1.
<mgrwt>
<rscale>  2 0.30102134E+02</rscale>
<asrwt>0</asrwt>
<pdfrwt beam="1">  1       21 0.88702777E-01 0.30102134E+02</pdfrwt>
<pdfrwt beam="2">  1        2 0.21879089E-01 0.30102134E+02</pdfrwt>
<totfact> 0.36781632E+03</totfact>
</mgrwt>
</event>
<event>
 4    1  0.2260076E+006  0.2472615E+02  0.7546771E-02  0.1664967E+00
         21   -1    0    0  503  502  0.00000000000E+00  0.00000000000E+00  0.10243709679E+02  0.10243709679E+02  0.00000000000E+00 0. -1.
         -2   -1    0    0    0  501 -0.00000000000E+00 -0.00000000000E+00 -0.73169781158E+02  0.73169781158E+02  0.00000000000E+00 0. -1.
         21    1    1    2  503  501 -0.21952755657E+02  0.11378008850E+02 -0.13557670024E+02  0.28199166349E+02  0.00000000000E+00 0. -1.
         -2    1    1    2    0  502  0.21952755657E+02 -0.11378008850E+02 -0.49368401455E+02  0.55214324487E+02  0.00000000000E+00 0. -1.
<mgrwt>
<rscale>  2 0.24726151E+02</rscale>
<asrwt>0</asrwt>
<pdfrwt beam="1">  1       21 0.15759553E-02 0.24726151E+02</pdfrwt>
<pdfrwt beam="2">  1       -2 0.11256889E-01 0.24726151E+02</pdfrwt>
<totfact> 0.51601560E+06</totfact>
</mgrwt>
</event>
<event>
 4    1  0.2260076E+006  0.2025121E+02  0.7546771E-02  0.1740378E+00
         -4   -1    0    0    0  501 -0.00000000000E+00  0.00000000000E+00  0.86496289695E+02  0.86496289695E+02  0.00000000000E+00 0. -1.
         21   -1    0    0  503  502  0.00000000000E+00 -0.00000000000E+00 -0.65400111065E+01  0.65400111065E+01  0.00000000000E+00 0.  1.
         21    1    1    2  503  501  0.38822552491E+01  0.19875599969E+02  0.15582915799E+02  0.25552664142E+02  0.00000000000E+00 0.  1.
         -4    1    1    2    0  502 -0.38822552491E+01 -0.19875599969E+02  0.64373362790E+02  0.67483636660E+02  0.00000000000E+00 0. -1.
<mgrwt>
<rscale>  2 0.20251207E+02</rscale>
<asrwt>0</asrwt>
<pdfrwt beam="2">  1       21 0.10061556E-02 0.20251207E+02</pdfrwt>
<pdfrwt beam="1">  1       -4 0.13307121E-01 0.20251207E+02</pdfrwt>
<totfact> 0.35027455E+06</totfact>
</mgrwt>
</event>
<event>
 4    1  0.2260076E+006  0.2394291E+02  0.7546771E-02  0.1676666E+00
         -2   -1    0    0    0  501 -0.00000000000E+00  0.00000000000E+00  0.58125035834E+02  0.58125035834E+02  0.00000000000E+00 0. -1.
         21   -1    0    0  501  502  0.00000000000E+00 -0.00000000000E+00 -0.47886445406E+03  0.47886445406E+03  0.00000000000E+00 0. -1.
         21    1    1    2  503  502 -0.59577719909E+01  0.23189820882E+02 -0.47608514158E+03  0.47668682053E+03  0.00000000000E+00 0. -1.
         -2    1    1    2    0  503  0.59577719909E+01 -0.23189820882E+02  0.55345723347E+02  0.60302669365E+02  0.00000000000E+00 0. -1.
<mgrwt>
<rscale>  2 0.23942908E+02</rscale>
<asrwt>0</asrwt>
<pdfrwt beam="2">  1       21 0.73671456E-01 0.23942908E+02</pdfrwt>
<pdfrwt beam="1">  1       -2 0.89423130E-02 0.23942908E+02</pdfrwt>
<totfact> 0.10173625E+04</totfact>
</mgrwt>
</event>
<event>
 4    1  0.2260076E+006  0.2577582E+02  0.7546771E-02  0.1650102E+00
          2   -1    0    0  503    0 -0.00000000000E+00  0.00000000000E+00  0.14774010885E+03  0.14774010885E+03  0.00000000000E+00 0.  1.
         21   -1    0    0  501  502  0.00000000000E+00 -0.00000000000E+00 -0.78564921381E+01  0.78564921381E+01  0.00000000000E+00 0.  1.
         21    1    1    2  503  502 -0.24017348887E+02 -0.93573314660E+01  0.19068473372E+02  0.32062429359E+02  0.00000000000E+00 0.  1.
          2    1    1    2  501    0  0.24017348887E+02  0.93573314660E+01  0.12081514334E+03  0.12353417163E+03  0.00000000000E+00 0.  1.
<mgrwt>
<rscale>  2 0.25775816E+02</rscale>
<asrwt>0</asrwt>
<pdfrwt beam="2">  1       21 0.12086912E-02 0.25775816E+02</pdfrwt>
<pdfrwt beam="1">  1        2 0.22729246E-01 0.25775816E+02</pdfrwt>
<totfact> 0.56932413E+06</totfact>
</mgrwt>
</event>
<event>
 4    1  0.2260076E+006  0.2035589E+02  0.7546771E-02  0.1738342E+00
          1   -1    0    0  502    0 -0.00000000000E+00  0.00000000000E+00  0.64327971489E+03  0.64327971489E+03  0.00000000000E+00 0. -1.
         21   -1    0    0  503  502  0.00000000000E+00 -0.00000000000E+00 -0.98701620487E+00  0.98701620487E+00  0.00000000000E+00 0.  1.
         21    1    1    2  503  501 -0.13298346474E+02 -0.15411565229E+02  0.13128258891E+03  0.13285134743E+03  0.00000000000E+00 0.  1.
          1    1    1    2  501    0  0.13298346474E+02  0.15411565229E+02  0.51101010977E+03  0.51141538367E+03  0.00000000000E+00 0. -1.
<mgrwt>
<rscale>  2 0.20355893E+02</rscale>
<asrwt>0</asrwt>
<pdfrwt beam="2">  1       21 0.15184916E-03 0.20355893E+02</pdfrwt>
<pdfrwt beam="1">  1        1 0.98965775E-01 0.20355893E+02</pdfrwt>
<totfact> 0.15919557E+07</totfact>
</mgrwt>
</event>
<event>
 4    1  0.2260076E+006  0.2148265E+02  0.7546771E-02  0.1717356E+00
         21   -1    0    0  503  502  0.00000000000E+00  0.00000000000E+00  0.16577645582E+02  0.16577645582E+02  0.00000000000E+00 0.  1.
         -4   -1    0    0    0  501 -0.00000000000E+00 -0.00000000000E+00 -0.31209451498E+02  0.31209451498E+02  0.00000000000E+00 0.  1.
         21    1    1    2  503  501 -0.13432813925E+02  0.16764953631E+02  0.53618549291E+00  0.21489338172E+02  0.00000000000E+00 0.  1.
         -4    1    1    2    0  502  0.13432813925E+02 -0.16764953631E+02 -0.15167991409E+02  0.26297758908E+02  0.00000000000E+00 0.  1.
<mgrwt>
<rscale>  2 0.21482648E+02</rscale>
<asrwt>0</asrwt>
<pdfrwt beam="1">  1       21 0.25504071E-02 0.21482648E+02</pdfrwt>
<pdfrwt beam="2">  1       -4 0.48014540E-02 0.21482648E+02</pdfrwt>
<totfact> 0.43869536E+06</totfact>
</mgrwt>
</event>
<event>
 4    1  0.2260076E+006  0.2642084E+02  0.7546771E-02  0.1641394E+00
         21   -1    0    0  501  502  0.00000000000E+00  0.00000000000E+00  0.21971347320E+02  0.21971347320E+02  0.00000000000E+00 0. -1.
          2   -1    0    0  503    0 -0.00000000000E+00 -0.00000000000E+00 -0.35095287624E+02  0.35095287624E+02  0.00000000000E+00 0.  1.
         21    1    1    2  503  502  0.26382034870E+02 -0.14314514186E+01  0.22191512745E+01  0.26513872773E+02  0.00000000000E+00 0. -1.
          2    1    1    2  501    0 -0.26382034870E+02  0.14314514186E+01 -0.15343091578E+02  0.30552762170E+02  0.00000000000E+00 0.  1.
<mgrwt>
<rscale>  2 0.26420841E+02</rscale>
<asrwt>0</asrwt>
<pdfrwt beam="1">  1       21 0.33802073E-02 0.26420841E+02</pdfrwt>
<pdfrwt beam="2">  1        2 0.53992750E-02 0.26420841E+02</pdfrwt>
<totfact> 0.60438586E+06</totfact>
</mgrwt>
</event>
<event>
 4    1  0.2260076E+006  0.3288147E+02  0.7546771E-02  0.1568261E+00
         21   -1    0    0  501  502  0.00000000000E+00  0.00000000000E+00  0.74723499287E+02  0.74723499287E+02  0.00000000000E+00 0. -1.
          2   -1    0    0  503    0 -0.00000000000E+00 -0.00000000000E+00 -0.42936813715E+03  0.42936813715E+03  0.00000000000E+00 0.  1.
         21    1    1    2  503  502  0.32576847211E+02  0.44654415786E+01  0.70440274209E+02  0.77736885539E+02  0.00000000000E+00 0. -1.
          2    1    1    2  501    0 -0.32576847211E+02 -0.44654415786E+01 -0.42508491207E+03  0.42635475090E+03  0.00000000000E+00 0.  1.
<mgrwt>
<rscale>  2 0.32881471E+02</rscale>
<asrwt>0</asrwt>
<pdfrwt beam="1">  1       21 0.11495923E-01 0.32881471E+02</pdfrwt>
<pdfrwt beam="2">  1        2 0.66056635E-01 0.32881471E+02</pdfrwt>
<totfact> 0.55720851E+04</totfact>
</mgrwt>
</event>
<event>
 4    1  0.2260076E+006  0.2348555E+02  0.7546771E-02  0.1683758E+00
         -2   -1    0    0    0  501 -0.00000000000E+00  0.00000000000E+00  0.57140754641E+02  0.57140754641E+02  0.00000000000E+00 0. -1.
         21   -1    0    0  503  502  0.00000000000E+00 -0.00000000000E+00 -0.18534305577E+03  0.18534305577E+03  0.00000000000E+00 0.  1.
         21    1    1    2  503  501 -0.27105766650E+01  0.23328609817E+02 -0.18214364159E+03  0.18365151084E+03  0.00000000000E+00 0.  1.
         -2    1    1    2    0  502  0.27105766650E+01 -0.23328609817E+02  0.53941340462E+02  0.58832299570E+02  0.00000000000E+00 0. -1.
<mgrwt>
<rscale>  2 0.23485554E+02</rscale>
<asrwt>0</asrwt>
<pdfrwt beam="2">  1       21 0.28514316E-01 0.23485554E+02</pdfrwt>
<pdfrwt beam="1">  1       -2 0.87908854E-02 0.23485554E+02</pdfrwt>
<totfact> 0.64973804E+04</totfact>
</mgrwt>
</event>
<event>
 4    1  0.2260076E+006  0.2877313E+02  0.7546771E-02  0.1612060E+00
         21   -1    0    0  503  502  0.00000000000E+00  0.00000000000E+00  0.38644405587E+02  0.38644405587E+02  0.00000000000E+00 0.  1.
         -2   -1    0    0    0  501 -0.00000000000E+00 -0.00000000000E+00 -0.36721036719E+03  0.36721036719E+03  0.00000000000E+00 0.  1.
         21    1    1    2  503  501 -0.12313793779E+02  0.26005068665E+02  0.32635977067E+02  0.43508621130E+02  0.00000000000E+00 0.  1.
         -2    1    1    2    0  502  0.12313793779E+02 -0.26005068665E+02 -0.36120193867E+03  0.36234615165E+03  0.00000000000E+00 0.  1.
<mgrwt>
<rscale>  2 0.28773132E+02</rscale>
<asrwt>0</asrwt>
<pdfrwt beam="1">  1       21 0.59452933E-02 0.28773132E+02</pdfrwt>
<pdfrwt beam="2">  1       -2 0.56493902E-01 0.28773132E+02</pdfrwt>
<totfact> 0.42942887E+04</totfact>
</mgrwt>
</event>
<event>
 4    1  0.2260076E+006  0.2358635E+02  0.7546771E-02  0.1682178E+00
         21   -1    0    0  503  502  0.00000000000E+00  0.00000000000E+00  0.47622499612E+03  0.47622499612E+03  0.00000000000E+00 0. -1.
         -4   -1    0    0    0  501 -0.00000000000E+00 -0.00000000000E+00 -0.10463420944E+03  0.10463420944E+03  0.00000000000E+00 0. -1.
         21    1    1    2  503  501  0.18034536852E+02 -0.15201028865E+02  0.47459920907E+03  0.47518493774E+03  0.00000000000E+00 0. -1.
         -4    1    1    2    0  502 -0.18034536852E+02  0.15201028865E+02 -0.10300842238E+03  0.10567426782E+03  0.00000000000E+00 0. -1.
<mgrwt>
<rscale>  2 0.23586348E+02</rscale>
<asrwt>0</asrwt>
<pdfrwt beam="1">  1       21 0.73265383E-01 0.23586348E+02</pdfrwt>
<pdfrwt beam="2">  1       -4 0.16097571E-01 0.23586348E+02</pdfrwt>
<totfact> 0.19963286E+03</totfact>
</mgrwt>
</event>
<event>
 4    1  0.2260076E+006  0.2100185E+02  0.7546771E-02  0.1726109E+00
          4   -1    0    0  503    0 -0.00000000000E+00  0.00000000000E+00  0.82196074305E+01  0.82196074305E+01  0.00000000000E+00 0. -1.
         21   -1    0    0  501  502  0.00000000000E+00 -0.00000000000E+00 -0.15591619630E+04  0.15591619630E+04  0.00000000000E+00 0.  1.
         21    1    1    2  503  502 -0.18480233733E+02 -0.99779013594E+01 -0.15455577526E+04  0.15457004380E+04  0.00000000000E+00 0.  1.
          4    1    1    2  501    0  0.18480233733E+02  0.99779013594E+01 -0.53846030323E+01  0.21681132447E+02  0.00000000000E+00 0. -1.
<mgrwt>
<rscale>  2 0.21001846E+02</rscale>
<asrwt>0</asrwt>
<pdfrwt beam="2">  1       21 0.23987116E+00 0.21001846E+02</pdfrwt>
<pdfrwt beam="1">  1        4 0.12645545E-02 0.21001846E+02</pdfrwt>
<totfact> 0.61091177E+03</totfact>
</mgrwt>
</event>
<event>
 4    1  0.2260076E+006  0.2434205E+02  0.7546771E-02  0.1670636E+00
         21   -1    0    0  503  502  0.00000000000E+00  0.00000000000E+00  0.19692962297E+03  0.19692962297E+03  0.00000000000E+00 0.  1.
          4   -1    0    0  502    0 -0.00000000000E+00 -0.00000000000E+00 -0.14508061567E+02  0.14508061567E+02  0.00000000000E+00 0.  1.
         21    1    1    2  503  501  0.63592261208E-01  0.24341964800E+02  0.18533066632E+03  0.18692242019E+03  0.00000000000E+00 0.  1.
          4    1    1    2  501    0 -0.63592261208E-01 -0.24341964800E+02 -0.29091049155E+01  0.24515264341E+02  0.00000000000E+00 0.  1.
<mgrwt>
<rscale>  2 0.24342048E+02</rscale>
<asrwt>0</asrwt>
<pdfrwt beam="1">  1       21 0.30296863E-01 0.24342048E+02</pdfrwt>
<pdfrwt beam="2">  1        4 0.22320096E-02 0.24342048E+02</pdfrwt>
<totfact> 0.24322493E+05</totfact>
</mgrwt>
</event>
<event>
 4    1  0.2260076E+006  0.3275695E+02  0.7546771E-02  0.1569472E+00
         -2   -1    0    0    0  501 -0.00000000000E+00  0.00000000000E+00  0.38524256920E+03  0.38524256920E+03  0.00000000000E+00 0.  1.
         21   -1    0    0  501  502  0.00000000000E+00 -0.00000000000E+00 -0.12601215535E+02  0.12601215535E+02  0.00000000000E+00 0.  1.
         21    1    1    2  503  502 -0.14215046847E+02 -0.29511860513E+02  0.10754160601E+02  0.34477085695E+02  0.00000000000E+00 0.  1.
         -2    1    1    2    0  503  0.14215046847E+02  0.29511860513E+02  0.36188719307E+03  0.36336669904E+03  0.00000000000E+00 0.  1.
<mgrwt>
<rscale>  2 0.32756945E+02</rscale>
<asrwt>0</asrwt>
<pdfrwt beam="2">  1       21 0.19386488E-02 0.32756945E+02</pdfrwt>
<pdfrwt beam="1">  1       -2 0.59268078E-01 0.32756945E+02</pdfrwt>
<totfact> 0.23447347E+05</totfact>
</mgrwt>
</event>
<event>
 4    1  0.2260076E+006  0.2087163E+02  0.7546771E-02  0.1728530E+00
         -2   -1    0    0    0  501 -0.00000000000E+00  0.00000000000E+00  0.16948151032E+03  0.16948151032E+03  0.00000000000E+00 0. -1.
         21   -1    0    0  501  502  0.00000000000E+00 -0.00000000000E+00 -0.13601630439E+03  0.13601630439E+03  0.00000000000E+00 0. -1.
         21    1    1    2  503  502  0.15334174338E+02  0.14159380790E+02 -0.13456615072E+03  0.13617515885E+03  0.00000000000E+00 0. -1.
         -2    1    1    2    0  503 -0.15334174338E+02 -0.14159380790E+02  0.16803135666E+03  0.16932265586E+03  0.00000000000E+00 0. -1.
<mgrwt>
<rscale>  2 0.20871631E+02</rscale>
<asrwt>0</asrwt>
<pdfrwt beam="2">  1       21 0.20925585E-01 0.20871631E+02</pdfrwt>
<pdfrwt beam="1">  1       -2 0.26074078E-01 0.20871631E+02</pdfrwt>
<totfact> 0.20421951E+04</totfact>
</mgrwt>
</event>
<event>
 4    1  0.2260076E+006  0.2848114E+02  0.7546771E-02  0.1615511E+00
         21   -1    0    0  501  502  0.00000000000E+00  0.00000000000E+00  0.97721030948E+03  0.97721030948E+03  0.00000000000E+00 0.  1.
         -3   -1    0    0    0  501 -0.00000000000E+00 -0.00000000000E+00 -0.33596635078E+02  0.33596635078E+02  0.00000000000E+00 0. -1.
         21    1    1    2  503  502 -0.16796056723E+02 -0.23001476461E+02  0.97092759975E+03  0.97134524213E+03  0.00000000000E+00 0.  1.
         -3    1    1    2    0  503  0.16796056723E+02  0.23001476461E+02 -0.27313925350E+02  0.39461702432E+02  0.00000000000E+00 0. -1.
<mgrwt>
<rscale>  2 0.28481142E+02</rscale>
<asrwt>0</asrwt>
<pdfrwt beam="1">  1       21 0.15034003E+00 0.28481142E+02</pdfrwt>
<pdfrwt beam="2">  1       -3 0.51687138E-02 0.28481142E+02</pdfrwt>
<totfact> 0.30347040E+03</totfact>
</mgrwt>
</event>
<event>
 4    1  0.2260076E+006  0.2058246E+02  0.7546771E-02  0.1733987E+00
         21   -1    0    0  501  502  0.00000000000E+00  0.00000000000E+00  0.35228360851E+03  0.35228360851E+03  0.00000000000E+00 0.  1.
         -1   -1    0    0    0  501 -0.00000000000E+00 -0.00000000000E+00 -0.23490915518E+02  0.23490915518E+02  0.00000000000E+00 0. -1.
         21    1    1    2  503  502  0.11351228598E+02  0.17169368998E+02  0.34741127032E+03  0.34802044245E+03  0.00000000000E+00 0.  1.
         -1    1    1    2    0  503 -0.11351228598E+02 -0.17169368998E+02 -0.18618577325E+02  0.27754081575E+02  0.00000000000E+00 0. -1.
<mgrwt>
<rscale>  2 0.20582459E+02</rscale>
<asrwt>0</asrwt>
<pdfrwt beam="1">  1       21 0.54197475E-01 0.20582459E+02</pdfrwt>
<pdfrwt beam="2">  1       -1 0.36139872E-02 0.20582459E+02</pdfrwt>
<totfact> 0.69441806E+04</totfact>
</mgrwt>
</event>
<event>
 4    1  0.2260076E+006  0.2246015E+02  0.7546771E-02  0.1700413E+00
         21   -1    0    0  503  502  0.00000000000E+00  0.00000000000E+00  0.31282861123E+01  0.31282861123E+01  0.00000000000E+00 0. -1.
          1   -1    0    0  502    0 -0.00000000000E+00 -0.00000000000E+00 -0.65987766071E+03  0.65987766071E+03  0.00000000000E+00 0.  1.
         21    1    1    2  503  501  0.73324987225E+00  0.22448179248E+02 -0.40209974619E+02  0.46057577724E+02  0.00000000000E+00 0. -1.
          1    1    1    2  501    0 -0.73324987225E+00 -0.22448179248E+02 -0.61653939998E+03  0.61694836910E+03  0.00000000000E+00 0.  1.
<mgrwt>
<rscale>  2 0.22460152E+02</rscale>
<asrwt>0</asrwt>
<pdfrwt beam="1">  1       21 0.48127521E-03 0.22460152E+02</pdfrwt>
<pdfrwt beam="2">  1        1 0.10151955E+00 0.22460152E+02</pdfrwt>
<totfact> 0.29666110E+06</totfact>
</mgrwt>
</event>
<event>
 4    1  0.2260076E+006  0.2211939E+02  0.7546771E-02  0.1706195E+00
          1   -1    0    0  503    0 -0.00000000000E+00  0.00000000000E+00  0.29924818137E+03  0.29924818137E+03  0.00000000000E+00 0. -1.
         21   -1    0    0  501  502  0.00000000000E+00 -0.00000000000E+00 -0.20786716784E+01  0.20786716784E+01  0.00000000000E+00 0. -1.
         21    1    1    2  503  502 -0.15784888813E+02 -0.15495308632E+02  0.78977994230E+02  0.82017015777E+02  0.00000000000E+00 0. -1.
          1    1    1    2  501    0  0.15784888813E+02  0.15495308632E+02  0.21819151546E+03  0.21930983727E+03  0.00000000000E+00 0. -1.
<mgrwt>
<rscale>  2 0.22119388E+02</rscale>
<asrwt>0</asrwt>
<pdfrwt beam="2">  1       21 0.31979588E-03 0.22119388E+02</pdfrwt>
<pdfrwt beam="1">  1        1 0.46038147E-01 0.22119388E+02</pdfrwt>
<totfact> 0.13820180E+07</totfact>
</mgrwt>
</event>
<event>
 4    1  0.2260076E+006  0.2027029E+02  0.7546771E-02  0.1740006E+00
         -2   -1    0    0    0  501 -0.00000000000E+00  0.00000000000E+00  0.52888574719E+02  0.52888574719E+02  0.00000000000E+00 0. -1.
         21   -1    0    0  503  502  0.00000000000E+00 -0.00000000000E+00 -0.81288400989E+01  0.81288400989E+01  0.00000000000E+00 0.  1.
         21    1    1    2  503  501  0.11184654122E+02  0.16905267959E+02  0.15959772175E+02  0.25799203485E+02  0.00000000000E+00 0.  1.
         -2    1    1    2    0  502 -0.11184654122E+02 -0.16905267959E+02  0.28799962445E+02  0.35218211333E+02  0.00000000000E+00 0. -1.
<mgrwt>
<rscale>  2 0.20270288E+02</rscale>
<asrwt>0</asrwt>
<pdfrwt beam="2">  1       21 0.12505908E-02 0.20270288E+02</pdfrwt>
<pdfrwt beam="1">  1       -2 0.81367036E-02 0.20270288E+02</pdfrwt>
<totfact> 0.11133214E+07</totfact>
</mgrwt>
</event>
<event>
 4    1  0.2260076E+006  0.2481754E+02  0.7546771E-02  0.1663637E+00
          2   -1    0    0  503    0 -0.00000000000E+00  0.00000000000E+00  0.59860667342E+03  0.59860667342E+03  0.00000000000E+00 0. -1.
         21   -1    0    0  501  502  0.00000000000E+00 -0.00000000000E+00 -0.14092520913E+02  0.14092520913E+02  0.00000000000E+00 0. -1.
         21    1    1    2  503  502 -0.93047074458E+01 -0.23007227504E+02 -0.26971692972E+01  0.24963670009E+02  0.00000000000E+00 0. -1.
          2    1    1    2  501    0  0.93047074458E+01  0.23007227504E+02  0.58721132180E+03  0.58773552433E+03  0.00000000000E+00 0. -1.
<mgrwt>
<rscale>  2 0.24817536E+02</rscale>
<asrwt>0</asrwt>
<pdfrwt beam="2">  1       21 0.21680806E-02 0.24817536E+02</pdfrwt>
<pdfrwt beam="1">  1        2 0.92093315E-01 0.24817536E+02</pdfrwt>
<totfact> 0.56354133E+05</totfact>
</mgrwt>
</event>
<event>
 4    1  0.2260076E+006  0.2632986E+02  0.7546771E-02  0.1642604E+00
         -4   -1    0    0    0  501 -0.00000000000E+00  0.00000000000E+00  0.41119343615E+03  0.41119343615E+03  0.00000000000E+00 0. -1.
         21   -1    0    0  503  502  0.00000000000E+00 -0.00000000000E+00 -0.18667809040E+01  0.18667809040E+01  0.00000000000E+00 0.  1.
         21    1    1    2  503  501  0.13518779041E+02 -0.22594333625E+02  0.14038795209E+03  0.14283570419E+03  0.00000000000E+00 0.  1.
         -4    1    1    2    0  502 -0.13518779041E+02  0.22594333625E+02  0.26893870316E+03  0.27022451287E+03  0.00000000000E+00 0. -1.
<mgrwt>
<rscale>  2 0.26329856E+02</rscale>
<asrwt>0</asrwt>
<pdfrwt beam="2">  1       21 0.28719739E-03 0.26329856E+02</pdfrwt>
<pdfrwt beam="1">  1       -4 0.63260456E-01 0.26329856E+02</pdfrwt>
<totfact> 0.14999029E+06</totfact>
</mgrwt>
</event>
<event>
 4    1  0.2260076E+006  0.3369040E+02  0.7546771E-02  0.1560547E+00
         21   -1    0    0  501  502  0.00000000000E+00  0.00000000000E+00  0.84847332760E+02  0.84847332760E+02  0.00000000000E+00 0.  1.
          1   -1    0    0  503    0 -0.00000000000E+00 -0.00000000000E+00 -0.32234753689E+02  0.32234753689E+02  0.00000000000E+00 0. -1.
         21    1    1    2  503  502 -0.22029798133E+02 -0.25489815941E+02  0.71081520705E+02  0.78661460120E+02  0.00000000000E+00 0.  1.
          1    1    1    2  501    0  0.22029798133E+02  0.25489815941E+02 -0.18468941634E+02  0.38420626330E+02  0.00000000000E+00 0. -1.
<mgrwt>
<rscale>  2 0.33690395E+02</rscale>
<asrwt>0</asrwt>
<pdfrwt beam="1">  1       21 0.13053436E-01 0.33690395E+02</pdfrwt>
<pdfrwt beam="2">  1        1 0.49591929E-02 0.33690395E+02</pdfrwt>
<totfact> 0.72150527E+05</totfact>
</mgrwt>
</event>
<event>
 4    1  0.2260076E+006  0.2166765E+02  0.7546771E-02  0.1714064E+00
         21   -1    0    0  503  502  0.00000000000E+00  0.00000000000E+00  0.28124490900E+01  0.28124490900E+01  0.00000000000E+00 0.  1.
         -1   -1    0    0    0  501 -0.00000000000E+00 -0.00000000000E+00 -0.13408132487E+04  0.13408132487E+04  0.00000000000E+00 0. -1.
         21    1    1    2  503  501 -0.58856469684E+01 -0.20852969102E+02 -0.40397643461E+02  0.45841648725E+02  0.00000000000E+00 0.  1.
         -1    1    1    2    0  502  0.58856469684E+01  0.20852969102E+02 -0.12976031562E+04  0.12977840491E+04  0.00000000000E+00 0. -1.
<mgrwt>
<rscale>  2 0.21667652E+02</rscale>
<asrwt>0</asrwt>
<pdfrwt beam="1">  1       21 0.43268428E-03 0.21667652E+02</pdfrwt>
<pdfrwt beam="2">  1       -1 0.20627905E+00 0.21667652E+02</pdfrwt>
<totfact> 0.16367493E+05</totfact>
</mgrwt>
</event>
<event>
 4    1  0.2260076E+006  0.2676849E+02  0.7546771E-02  0.1636827E+00
          2   -1    0    0  503    0 -0.00000000000E+00  0.00000000000E+00  0.20675402828E+02  0.20675402828E+02  0.00000000000E+00 0.  1.
         21   -1    0    0  501  502  0.00000000000E+00 -0.00000000000E+00 -0.20307151430E+03  0.20307151430E+03  0.00000000000E+00 0.  1.
         21    1    1    2  503  502 -0.25991094064E+02  0.64043102089E+01 -0.19307878025E+03  0.19492554359E+03  0.00000000000E+00 0.  1.
          2    1    1    2  501    0  0.25991094064E+02 -0.64043102089E+01  0.10682668786E+02  0.28821373532E+02  0.00000000000E+00 0.  1.
<mgrwt>
<rscale>  2 0.26768492E+02</rscale>
<asrwt>0</asrwt>
<pdfrwt beam="2">  1       21 0.31241771E-01 0.26768492E+02</pdfrwt>
<pdfrwt beam="1">  1        2 0.31808313E-02 0.26768492E+02</pdfrwt>
<totfact> 0.27974600E+05</totfact>
</mgrwt>
</event>
<event>
 4    1  0.2260076E+006  0.2160638E+02  0.7546771E-02  0.1715150E+00
         21   -1    0    0  501  502  0.00000000000E+00  0.00000000000E+00  0.15337578429E+02  0.15337578429E+02  0.00000000000E+00 0. -1.
         -4   -1    0    0    0  501 -0.00000000000E+00 -0.00000000000E+00 -0.97144195422E+02  0.97144195422E+02  0.00000000000E+00 0. -1.
         21    1    1    2  503  502  0.21120321819E+02  0.45571770936E+01  0.57012936050E+01  0.22345930402E+02  0.00000000000E+00 0. -1.
         -4    1    1    2    0  503 -0.21120321819E+02 -0.45571770936E+01 -0.87507910599E+02  0.90135843448E+02  0.00000000000E+00 0. -1.
<mgrwt>
<rscale>  2 0.21606385E+02</rscale>
<asrwt>0</asrwt>
<pdfrwt beam="1">  1       21 0.23596274E-02 0.21606385E+02</pdfrwt>
<pdfrwt beam="2">  1       -4 0.14945261E-01 0.21606385E+02</pdfrwt>
<totfact> 0.81794175E+05</totfact>
</mgrwt>
</event>
<event>
 4    1  0.2260076E+006  0.2417332E+02  0.7546771E-02  0.1673168E+00
         21   -1    0    0  501  502  0.00000000000E+00  0.00000000000E+00  0.20215431034E+03  0.20215431034E+03  0.00000000000E+00 0. -1.
          4   -1    0    0  503    0 -0.00000000000E+00 -0.00000000000E+00 -0.67676302001E+01  0.67676302001E+01  0.00000000000E+00 0.  1.
         21    1    1    2  503  502  0.21177596832E+02  0.11655844271E+02  0.17675842935E+03  0.17840373219E+03  0.00000000000E+00 0. -1.
          4    1    1    2  501    0 -0.21177596832E+02 -0.11655844271E+02  0.18628250786E+02  0.30518208345E+02  0.00000000000E+00 0.  1.
<mgrwt>
<rscale>  2 0.24173318E+02</rscale>
<asrwt>0</asrwt>
<pdfrwt beam="1">  1       21 0.31100659E-01 0.24173318E+02</pdfrwt>
<pdfrwt beam="2">  1        4 0.10411740E-02 0.24173318E+02</pdfrwt>
<totfact> 0.70469905E+05</totfact>
</mgrwt>
</event>
<event>
 4    1  0.2260076E+006  0.4308909E+02  0.7546771E-02  0.1486636E+00
         21   -1    0    0  501  502  0.00000000000E+00  0.00000000000E+00  0.34258915436E+03  0.34258915436E+03  0.00000000000E+00 0. -1.
          2   -1    0    0  503    0 -0.00000000000E+00 -0.00000000000E+00 -0.68451559447E+02  0.68451559447E+02  0.00000000000E+00 0.  1.
         21    1    1    2  503  502  0.41222787832E+02  0.12543974574E+02  0.33428556857E+03  0.33705119921E+03  0.00000000000E+00 0. -1.
          2    1    1    2  501    0 -0.41222787832E+02 -0.12543974574E+02 -0.60147973659E+02  0.73989514595E+02  0.00000000000E+00 0.  1.
<mgrwt>
<rscale>  2 0.43089088E+02</rscale>
<asrwt>0</asrwt>
<pdfrwt beam="1">  1       21 0.52706023E-01 0.43089088E+02</pdfrwt>
<pdfrwt beam="2">  1        2 0.10531009E-01 0.43089088E+02</pdfrwt>
<totfact> 0.24552771E+04</totfact>
</mgrwt>
</event>
<event>
 4    1  0.2260076E+006  0.2646683E+02  0.7546771E-02  0.1640785E+00
          1   -1    0    0  503    0 -0.00000000000E+00  0.00000000000E+00  0.37446331091E+03  0.37446331091E+03  0.00000000000E+00 0.  1.
         21   -1    0    0  501  502  0.00000000000E+00 -0.00000000000E+00 -0.89162215987E+02  0.89162215987E+02  0.00000000000E+00 0.  1.
         21    1    1    2  503  502 -0.26073388040E+02 -0.45465891769E+01 -0.86717563702E+02  0.90666580896E+02  0.00000000000E+00 0.  1.
          1    1    1    2  501    0  0.26073388040E+02  0.45465891769E+01  0.37201865863E+03  0.37295894600E+03  0.00000000000E+00 0.  1.
<mgrwt>
<rscale>  2 0.26466829E+02</rscale>
<asrwt>0</asrwt>
<pdfrwt beam="2">  1       21 0.13717264E-01 0.26466829E+02</pdfrwt>
<pdfrwt beam="1">  1        1 0.57609740E-01 0.26466829E+02</pdfrwt>
<totfact> 0.32203388E+04</totfact>
</mgrwt>
</event>
<event>
 4    1  0.2260076E+006  0.2479869E+02  0.7546771E-02  0.1663910E+00
          1   -1    0    0  502    0 -0.00000000000E+00  0.00000000000E+00  0.93141875536E+03  0.93141875536E+03  0.00000000000E+00 0.  1.
         21   -1    0    0  503  502  0.00000000000E+00 -0.00000000000E+00 -0.28213603170E+01  0.28213603170E+01  0.00000000000E+00 0. -1.
         21    1    1    2  503  501 -0.23675527522E+01 -0.24685415990E+02  0.55474043376E+02  0.60764665367E+02  0.00000000000E+00 0. -1.
          1    1    1    2  501    0  0.23675527522E+01  0.24685415990E+02  0.87312335167E+03  0.87347545031E+03  0.00000000000E+00 0.  1.
<mgrwt>
<rscale>  2 0.24798691E+02</rscale>
<asrwt>0</asrwt>
<pdfrwt beam="2">  1       21 0.43405618E-03 0.24798691E+02</pdfrwt>
<pdfrwt beam="1">  1        1 0.14329495E+00 0.24798691E+02</pdfrwt>
<totfact> 0.21916216E+06</totfact>
</mgrwt>
</event>
<event>
 4    1  0.2260076E+006  0.2330151E+02  0.7546771E-02  0.1686669E+00
          1   -1    0    0  503    0 -0.00000000000E+00  0.00000000000E+00  0.10314118769E+03  0.10314118769E+03  0.00000000000E+00 0.  1.
         21   -1    0    0  501  502  0.00000000000E+00 -0.00000000000E+00 -0.11426164226E+02  0.11426164226E+02  0.00000000000E+00 0. -1.
         21    1    1    2  503  502  0.12609754944E+02 -0.19594761192E+02  0.37907953613E+01  0.23607852833E+02  0.00000000000E+00 0. -1.
          1    1    1    2  501    0 -0.12609754944E+02  0.19594761192E+02  0.87924228105E+02  0.90959499085E+02  0.00000000000E+00 0.  1.
<mgrwt>
<rscale>  2 0.23301515E+02</rscale>
<asrwt>0</asrwt>
<pdfrwt beam="2">  1       21 0.17578715E-02 0.23301515E+02</pdfrwt>
<pdfrwt beam="1">  1        1 0.15867874E-01 0.23301515E+02</pdfrwt>
<totfact> 0.38550713E+06</totfact>
</mgrwt>
</event>
<event>
 4    1  0.2260076E+006  0.2948563E+02  0.7546771E-02  0.1603845E+00
         21   -1    0    0  503  502  0.00000000000E+00  0.00000000000E+00  0.24048072322E+03  0.24048072322E+03  0.00000000000E+00 0.  1.
         -2   -1    0    0    0  501 -0.00000000000E+00 -0.00000000000E+00 -0.50065457557E+01  0.50065457557E+01  0.00000000000E+00 0. -1.
         21    1    1    2  503  501  0.18726582907E+02 -0.22775367997E+02  0.18244193121E+03  0.18480925453E+03  0.00000000000E+00 0.  1.
         -2    1    1    2    0  502 -0.18726582907E+02  0.22775367997E+02  0.53032246255E+02  0.60678014450E+02  0.00000000000E+00 0. -1.
<mgrwt>
<rscale>  2 0.29485629E+02</rscale>
<asrwt>0</asrwt>
<pdfrwt beam="1">  1       21 0.36997025E-01 0.29485629E+02</pdfrwt>
<pdfrwt beam="2">  1       -2 0.77023800E-03 0.29485629E+02</pdfrwt>
<totfact> 0.12565000E+06</totfact>
</mgrwt>
</event>
<event>
 4    1  0.2260076E+006  0.2545936E+02  0.7546771E-02  0.1654490E+00
         21   -1    0    0  503  502  0.00000000000E+00  0.00000000000E+00  0.20518063476E+01  0.20518063476E+01  0.00000000000E+00 0.  1.
         -2   -1    0    0    0  501 -0.00000000000E+00 -0.00000000000E+00 -0.39936519349E+03  0.39936519349E+03  0.00000000000E+00 0.  1.
         21    1    1    2  503  501 -0.13528497426E+02 -0.21567536787E+02 -0.10690448078E+03  0.10989425324E+03  0.00000000000E+00 0.  1.
         -2    1    1    2    0  502  0.13528497426E+02  0.21567536787E+02 -0.29040890637E+03  0.29152274660E+03  0.00000000000E+00 0.  1.
<mgrwt>
<rscale>  2 0.25459358E+02</rscale>
<asrwt>0</asrwt>
<pdfrwt beam="1">  1       21 0.31566252E-03 0.25459358E+02</pdfrwt>
<pdfrwt beam="2">  1       -2 0.61440799E-01 0.25459358E+02</pdfrwt>
<totfact> 0.31694450E+06</totfact>
</mgrwt>
</event>
<event>
 4    1  0.2260076E+006  0.2378042E+02  0.7546771E-02  0.1679163E+00
         21   -1    0    0  501  502  0.00000000000E+00  0.00000000000E+00  0.76657244532E+00  0.76657244532E+00  0.00000000000E+00 0.  1.
          4   -1    0    0  503    0 -0.00000000000E+00 -0.00000000000E+00 -0.82681374768E+03  0.82681374768E+03  0.00000000000E+00 0. -1.
         21    1    1    2  503  502  0.23044114642E+02  0.58717377092E+01 -0.27718500534E+03  0.27820322735E+03  0.00000000000E+00 0.  1.
          4    1    1    2  501    0 -0.23044114642E+02 -0.58717377092E+01 -0.54886216990E+03  0.54937709277E+03  0.00000000000E+00 0. -1.
<mgrwt>
<rscale>  2 0.23780423E+02</rscale>
<asrwt>0</asrwt>
<pdfrwt beam="1">  1       21 0.11793410E-03 0.23780423E+02</pdfrwt>
<pdfrwt beam="2">  1        4 0.12720224E+00 0.23780423E+02</pdfrwt>
<totfact> 0.11514996E+06</totfact>
</mgrwt>
</event>
<event>
 4    1  0.2260076E+006  0.2292288E+02  0.7546771E-02  0.1692763E+00
          2   -1    0    0  503    0 -0.00000000000E+00  0.00000000000E+00  0.70234599049E+03  0.70234599049E+03  0.00000000000E+00 0. -1.
         21   -1    0    0  501  502  0.00000000000E+00 -0.00000000000E+00 -0.98428409327E+00  0.98428409327E+00  0.00000000000E+00 0. -1.
         21    1    1    2  503  502 -0.45903412417E+01 -0.22458563569E+02  0.17843417986E+03  0.17990056935E+03  0.00000000000E+00 0. -1.
          2    1    1    2  501    0  0.45903412417E+01  0.22458563569E+02  0.52292752653E+03  0.52342970523E+03  0.00000000000E+00 0. -1.
<mgrwt>
<rscale>  2 0.22922877E+02</rscale>
<asrwt>0</asrwt>
<pdfrwt beam="2">  1       21 0.15142888E-03 0.22922877E+02</pdfrwt>
<pdfrwt beam="1">  1        2 0.10805283E+00 0.22922877E+02</pdfrwt>
<totfact> 0.24245260E+07</totfact>
</mgrwt>
</event>
<event>
 4    1  0.2260076E+006  0.2008000E+02  0.7546771E-02  0.1743742E+00
         -2   -1    0    0    0  501 -0.00000000000E+00  0.00000000000E+00  0.28184757748E+03  0.28184757748E+03  0.00000000000E+00 0.  1.
         21   -1    0    0  503  502  0.00000000000E+00 -0.00000000000E+00 -0.16295872724E+01  0.16295872724E+01  0.00000000000E+00 0.  1.
         21    1    1    2  503  501  0.17842902483E+02 -0.92107133566E+01  0.90577634986E+02  0.92776690872E+02  0.00000000000E+00 0.  1.
         -2    1    1    2    0  502 -0.17842902483E+02  0.92107133566E+01  0.18964035522E+03  0.19070047388E+03  0.00000000000E+00 0.  1.
<mgrwt>
<rscale>  2 0.20080000E+02</rscale>
<asrwt>0</asrwt>
<pdfrwt beam="2">  1       21 0.25070596E-03 0.20080000E+02</pdfrwt>
<pdfrwt beam="1">  1       -2 0.43361127E-01 0.20080000E+02</pdfrwt>
<totfact> 0.80227798E+06</totfact>
</mgrwt>
</event>
<event>
 4    1  0.2260076E+006  0.2045099E+02  0.7546771E-02  0.1736506E+00
          2   -1    0    0  502    0 -0.00000000000E+00  0.00000000000E+00  0.46534824196E+02  0.46534824196E+02  0.00000000000E+00 0.  1.
         21   -1    0    0  503  502  0.00000000000E+00 -0.00000000000E+00 -0.99659628063E+01  0.99659628063E+01  0.00000000000E+00 0.  1.
         21    1    1    2  503  501  0.20377723143E+02 -0.17295139978E+01  0.94335975824E+01  0.22521891184E+02  0.00000000000E+00 0.  1.
          2    1    1    2  501    0 -0.20377723143E+02  0.17295139978E+01  0.27135263807E+02  0.33978895818E+02  0.00000000000E+00 0.  1.
<mgrwt>
<rscale>  2 0.20450986E+02</rscale>
<asrwt>0</asrwt>
<pdfrwt beam="2">  1       21 0.15332251E-02 0.20450986E+02</pdfrwt>
<pdfrwt beam="1">  1        2 0.71592036E-02 0.20450986E+02</pdfrwt>
<totfact> 0.13502056E+07</totfact>
</mgrwt>
</event>
<event>
 4    1  0.2260076E+006  0.2343618E+02  0.7546771E-02  0.1684536E+00
          2   -1    0    0  503    0 -0.00000000000E+00  0.00000000000E+00  0.60226081172E+03  0.60226081172E+03  0.00000000000E+00 0. -1.
         21   -1    0    0  501  502  0.00000000000E+00 -0.00000000000E+00 -0.10065735267E+01  0.10065735267E+01  0.00000000000E+00 0. -1.
         21    1    1    2  503  502 -0.18985248220E+02 -0.13740997922E+02  0.20816384090E+03  0.20947897109E+03  0.00000000000E+00 0. -1.
          2    1    1    2  501    0  0.18985248220E+02  0.13740997922E+02  0.39309039730E+03  0.39378841416E+03  0.00000000000E+00 0. -1.
<mgrwt>
<rscale>  2 0.23436183E+02</rscale>
<asrwt>0</asrwt>
<pdfrwt beam="2">  1       21 0.15485795E-03 0.23436183E+02</pdfrwt>
<pdfrwt beam="1">  1        2 0.92655221E-01 0.23436183E+02</pdfrwt>
<totfact> 0.27829697E+07</totfact>
</mgrwt>
</event>
<event>
 4    1  0.2260076E+006  0.2074464E+02  0.7546771E-02  0.1730913E+00
         21   -1    0    0  503  502  0.00000000000E+00  0.00000000000E+00  0.11056291286E+01  0.11056291286E+01  0.00000000000E+00 0. -1.
          2   -1    0    0  502    0 -0.00000000000E+00 -0.00000000000E+00 -0.78466949807E+03  0.78466949807E+03  0.00000000000E+00 0.  1.
         21    1    1    2  503  501  0.13832636593E+02  0.15459563640E+02 -0.11287009669E+03  0.11476061463E+03  0.00000000000E+00 0. -1.
          2    1    1    2  501    0 -0.13832636593E+02 -0.15459563640E+02 -0.67069377225E+03  0.67101451257E+03  0.00000000000E+00 0.  1.
<mgrwt>
<rscale>  2 0.20744636E+02</rscale>
<asrwt>0</asrwt>
<pdfrwt beam="1">  1       21 0.17009631E-03 0.20744636E+02</pdfrwt>
<pdfrwt beam="2">  1        2 0.12071872E+00 0.20744636E+02</pdfrwt>
<totfact> 0.17650075E+07</totfact>
</mgrwt>
</event>
<event>
 4    1  0.2260076E+006  0.2137748E+02  0.7546771E-02  0.1719246E+00
         -3   -1    0    0    0  501 -0.00000000000E+00  0.00000000000E+00  0.78461502782E+02  0.78461502782E+02  0.00000000000E+00 0. -1.
         21   -1    0    0  503  502  0.00000000000E+00 -0.00000000000E+00 -0.44701226209E+02  0.44701226209E+02  0.00000000000E+00 0. -1.
         21    1    1    2  503  501 -0.10013499740E+01 -0.21354016544E+02 -0.40549303637E+02  0.45839314456E+02  0.00000000000E+00 0. -1.
         -3    1    1    2    0  502  0.10013499740E+01  0.21354016544E+02  0.74309580210E+02  0.77323414535E+02  0.00000000000E+00 0. -1.
<mgrwt>
<rscale>  2 0.21377482E+02</rscale>
<asrwt>0</asrwt>
<pdfrwt beam="2">  1       21 0.68771117E-02 0.21377482E+02</pdfrwt>
<pdfrwt beam="1">  1       -3 0.12071000E-01 0.21377482E+02</pdfrwt>
<totfact> 0.26507392E+05</totfact>
</mgrwt>
</event>
<event>
 4    1  0.2260076E+006  0.2245291E+02  0.7546771E-02  0.1700535E+00
          1   -1    0    0  502    0 -0.00000000000E+00  0.00000000000E+00  0.52206714426E+03  0.52206714426E+03  0.00000000000E+00 0. -1.
         21   -1    0    0  503  502  0.00000000000E+00 -0.00000000000E+00 -0.59030809033E+01  0.59030809033E+01  0.00000000000E+00 0. -1.
         21    1    1    2  503  501 -0.12500512894E+02  0.18651277765E+02  0.16652339602E+02  0.27954130269E+02  0.00000000000E+00 0. -1.
          1    1    1    2  501    0  0.12500512894E+02 -0.18651277765E+02  0.49951172375E+03  0.50001609489E+03  0.00000000000E+00 0. -1.
<mgrwt>
<rscale>  2 0.22452906E+02</rscale>
<asrwt>0</asrwt>
<pdfrwt beam="2">  1       21 0.90816670E-03 0.22452906E+02</pdfrwt>
<pdfrwt beam="1">  1        1 0.80317986E-01 0.22452906E+02</pdfrwt>
<totfact> 0.15480328E+06</totfact>
</mgrwt>
</event>
<event>
 4    1  0.2260076E+006  0.3868341E+02  0.7546771E-02  0.1518130E+00
          1   -1    0    0  502    0 -0.00000000000E+00  0.00000000000E+00  0.23995962516E+03  0.23995962516E+03  0.00000000000E+00 0. -1.
         21   -1    0    0  503  502  0.00000000000E+00 -0.00000000000E+00 -0.76803150811E+01  0.76803150811E+01  0.00000000000E+00 0. -1.
         21    1    1    2  503  501  0.25109835443E+02  0.29426222595E+02  0.62446273968E+02  0.73457086415E+02  0.00000000000E+00 0. -1.
          1    1    1    2  501    0 -0.25109835443E+02 -0.29426222595E+02  0.16983303611E+03  0.17418285382E+03  0.00000000000E+00 0. -1.
<mgrwt>
<rscale>  2 0.38683413E+02</rscale>
<asrwt>0</asrwt>
<pdfrwt beam="2">  1       21 0.11815871E-02 0.38683413E+02</pdfrwt>
<pdfrwt beam="1">  1        1 0.36916860E-01 0.38683413E+02</pdfrwt>
<totfact> 0.29007793E+06</totfact>
</mgrwt>
</event>
<event>
 4    1  0.2260076E+006  0.2393814E+02  0.7546771E-02  0.1676739E+00
         21   -1    0    0  503  502  0.00000000000E+00  0.00000000000E+00  0.41418527404E+02  0.41418527404E+02  0.00000000000E+00 0. -1.
          2   -1    0    0  502    0 -0.00000000000E+00 -0.00000000000E+00 -0.40902183767E+03  0.40902183767E+03  0.00000000000E+00 0. -1.
         21    1    1    2  503  501 -0.30289862267E+01  0.23745734012E+02  0.37576707202E+02  0.44553827731E+02  0.00000000000E+00 0. -1.
          2    1    1    2  501    0  0.30289862267E+01 -0.23745734012E+02 -0.40518001747E+03  0.40588653735E+03  0.00000000000E+00 0. -1.
<mgrwt>
<rscale>  2 0.23938142E+02</rscale>
<asrwt>0</asrwt>
<pdfrwt beam="1">  1       21 0.63720811E-02 0.23938142E+02</pdfrwt>
<pdfrwt beam="2">  1        2 0.62926437E-01 0.23938142E+02</pdfrwt>
<totfact> 0.15095483E+05</totfact>
</mgrwt>
</event>
<event>
 4    1  0.2260076E+006  0.6252653E+02  0.7546771E-02  0.1387525E+00
         -1   -1    0    0    0  501 -0.00000000000E+00  0.00000000000E+00  0.40395068107E+02  0.40395068107E+02  0.00000000000E+00 0.  1.
         21   -1    0    0  501  502  0.00000000000E+00 -0.00000000000E+00 -0.39537704338E+03  0.39537704338E+03  0.00000000000E+00 0. -1.
         21    1    1    2  503  502  0.57943710046E+02  0.23496676938E+02 -0.36684044968E+03  0.37213100232E+03  0.00000000000E+00 0. -1.
         -1    1    1    2    0  503 -0.57943710046E+02 -0.23496676938E+02  0.11858474412E+02  0.63641109170E+02  0.00000000000E+00 0.  1.
<mgrwt>
<rscale>  2 0.62526533E+02</rscale>
<asrwt>0</asrwt>
<pdfrwt beam="2">  1       21 0.60827239E-01 0.62526533E+02</pdfrwt>
<pdfrwt beam="1">  1       -1 0.62146257E-02 0.62526533E+02</pdfrwt>
<totfact> 0.27668040E+04</totfact>
</mgrwt>
</event>
<event>
 4    1  0.2260076E+006  0.2450578E+02  0.7546771E-02  0.1668204E+00
         -4   -1    0    0    0  501 -0.00000000000E+00  0.00000000000E+00  0.22385992393E+03  0.22385992393E+03  0.00000000000E+00 0. -1.
         21   -1    0    0  501  502  0.00000000000E+00 -0.00000000000E+00 -0.51351387005E+01  0.51351387005E+01  0.00000000000E+00 0.  1.
         21    1    1    2  503  502  0.12922297163E+02  0.20821804725E+02  0.30235278859E+02  0.38919216380E+02  0.00000000000E+00 0.  1.
         -4    1    1    2    0  503 -0.12922297163E+02 -0.20821804725E+02  0.18848950637E+03  0.19007584625E+03  0.00000000000E+00 0. -1.
<mgrwt>
<rscale>  2 0.24505781E+02</rscale>
<asrwt>0</asrwt>
<pdfrwt beam="2">  1       21 0.79002151E-03 0.24505781E+02</pdfrwt>
<pdfrwt beam="1">  1       -4 0.34439981E-01 0.24505781E+02</pdfrwt>
<totfact> 0.10565870E+06</totfact>
</mgrwt>
</event>
<event>
 4    1  0.2260076E+006  0.2157125E+02  0.7546771E-02  0.1715774E+00
         21   -1    0    0  503  502  0.00000000000E+00  0.00000000000E+00  0.15020636524E+02  0.15020636524E+02  0.00000000000E+00 0.  1.
          2   -1    0    0  502    0 -0.00000000000E+00 -0.00000000000E+00 -0.86674335931E+02  0.86674335931E+02  0.00000000000E+00 0.  1.
         21    1    1    2  503  501 -0.10599547997E+02 -0.18787449535E+02  0.49332369697E+01  0.22128160899E+02  0.00000000000E+00 0.  1.
          2    1    1    2  501    0  0.10599547997E+02  0.18787449535E+02 -0.76586936376E+02  0.79566811556E+02  0.00000000000E+00 0.  1.
<mgrwt>
<rscale>  2 0.21571247E+02</rscale>
<asrwt>0</asrwt>
<pdfrwt beam="1">  1       21 0.23108672E-02 0.21571247E+02</pdfrwt>
<pdfrwt beam="2">  1        2 0.13334513E-01 0.21571247E+02</pdfrwt>
<totfact> 0.35919747E+06</totfact>
</mgrwt>
</event>
<event>
 4    1  0.2260076E+006  0.2065831E+02  0.7546771E-02  0.1732545E+00
          2   -1    0    0  503    0 -0.00000000000E+00  0.00000000000E+00  0.10111128991E+03  0.10111128991E+03  0.00000000000E+00 0. -1.
         21   -1    0    0  501  502  0.00000000000E+00 -0.00000000000E+00 -0.11996680797E+02  0.11996680797E+02  0.00000000000E+00 0.  1.
         21    1    1    2  503  502  0.36263384809E+01  0.20337538482E+02 -0.97386088126E+00  0.20681252556E+02  0.00000000000E+00 0.  1.
          2    1    1    2  501    0 -0.36263384809E+01 -0.20337538482E+02  0.90088469993E+02  0.92426718150E+02  0.00000000000E+00 0. -1.
<mgrwt>
<rscale>  2 0.20658311E+02</rscale>
<asrwt>0</asrwt>
<pdfrwt beam="2">  1       21 0.18456433E-02 0.20658311E+02</pdfrwt>
<pdfrwt beam="1">  1        2 0.15555582E-01 0.20658311E+02</pdfrwt>
<totfact> 0.42299658E+06</totfact>
</mgrwt>
</event>
<event>
 4    1  0.2260076E+006  0.2152008E+02  0.7546771E-02  0.1716687E+00
          2   -1    0    0  502    0 -0.00000000000E+00  0.00000000000E+00  0.53651534279E+03  0.53651534279E+03  0.00000000000E+00 0. -1.
         21   -1    0    0  503  502  0.00000000000E+00 -0.00000000000E+00 -0.35308196958E+02  0.35308196958E+02  0.00000000000E+00 0.  1.
         21    1    1    2  503  501  0.19788020281E+02  0.84586069538E+01 -0.31791693489E+02  0.38390435699E+02  0.00000000000E+00 0.  1.
          2    1    1    2  501    0 -0.19788020281E+02 -0.84586069538E+01  0.53299883932E+03  0.53343310405E+03  0.00000000000E+00 0. -1.
<mgrwt>
<rscale>  2 0.21520078E+02</rscale>
<asrwt>0</asrwt>
<pdfrwt beam="2">  1       21 0.54320307E-02 0.21520078E+02</pdfrwt>
<pdfrwt beam="1">  1        2 0.82540816E-01 0.21520078E+02</pdfrwt>
<totfact> 0.14670035E+05</totfact>
</mgrwt>
</event>
<event>
 4    1  0.2260076E+006  0.2180174E+02  0.7546771E-02  0.1711703E+00
          3   -1    0    0  502    0 -0.00000000000E+00  0.00000000000E+00  0.52337850628E+02  0.52337850628E+02  0.00000000000E+00 0. -1.
         21   -1    0    0  503  502  0.00000000000E+00 -0.00000000000E+00 -0.11184567698E+03  0.11184567698E+03  0.00000000000E+00 0.  1.
         21    1    1    2  503  501  0.21545462909E+02 -0.33330172002E+01 -0.10844226788E+03  0.11061212157E+03  0.00000000000E+00 0.  1.
          3    1    1    2  501    0 -0.21545462909E+02  0.33330172002E+01  0.48934441535E+02  0.53571406029E+02  0.00000000000E+00 0. -1.
<mgrwt>
<rscale>  2 0.21801742E+02</rscale>
<asrwt>0</asrwt>
<pdfrwt beam="2">  1       21 0.17207027E-01 0.21801742E+02</pdfrwt>
<pdfrwt beam="1">  1        3 0.80519770E-02 0.21801742E+02</pdfrwt>
<totfact> 0.10959536E+05</totfact>
</mgrwt>
</event>
<event>
 4    1  0.2260076E+006  0.2804553E+02  0.7546771E-02  0.1620755E+00
         -1   -1    0    0    0  501 -0.00000000000E+00  0.00000000000E+00  0.19730416942E+02  0.19730416942E+02  0.00000000000E+00 0. -1.
         21   -1    0    0  501  502  0.00000000000E+00 -0.00000000000E+00 -0.49522886179E+02  0.49522886179E+02  0.00000000000E+00 0. -1.
         21    1    1    2  503  502 -0.11577131307E+02  0.25544511224E+02 -0.30187723005E+02  0.41204983233E+02  0.00000000000E+00 0. -1.
         -1    1    1    2    0  503  0.11577131307E+02 -0.25544511224E+02  0.39525376895E+00  0.28048319888E+02  0.00000000000E+00 0. -1.
<mgrwt>
<rscale>  2 0.28045535E+02</rscale>
<asrwt>0</asrwt>
<pdfrwt beam="2">  1       21 0.76189056E-02 0.28045535E+02</pdfrwt>
<pdfrwt beam="1">  1       -1 0.30354488E-02 0.28045535E+02</pdfrwt>
<totfact> 0.30003323E+06</totfact>
</mgrwt>
</event>
<event>
 4    1  0.2260076E+006  0.2761003E+02  0.7546771E-02  0.1626116E+00
         21   -1    0    0  501  502  0.00000000000E+00  0.00000000000E+00  0.13771463554E+02  0.13771463554E+02  0.00000000000E+00 0. -1.
          2   -1    0    0  503    0 -0.00000000000E+00 -0.00000000000E+00 -0.14077157224E+04  0.14077157224E+04  0.00000000000E+00 0.  1.
         21    1    1    2  503  502  0.26965662550E+02  0.59301695971E+01 -0.34270990164E+00  0.27612158885E+02  0.00000000000E+00 0. -1.
          2    1    1    2  501    0 -0.26965662550E+02 -0.59301695971E+01 -0.13936015489E+04  0.13938750271E+04  0.00000000000E+00 0.  1.
<mgrwt>
<rscale>  2 0.27610032E+02</rscale>
<asrwt>0</asrwt>
<pdfrwt beam="1">  1       21 0.21186864E-02 0.27610032E+02</pdfrwt>
<pdfrwt beam="2">  1        2 0.21657168E+00 0.27610032E+02</pdfrwt>
<totfact> 0.20472998E+05</totfact>
</mgrwt>
</event>
<event>
 4    1  0.2260076E+006  0.2665730E+02  0.7546771E-02  0.1638278E+00
          2   -1    0    0  502    0 -0.00000000000E+00  0.00000000000E+00  0.14886911403E+03  0.14886911403E+03  0.00000000000E+00 0.  1.
         21   -1    0    0  503  502  0.00000000000E+00 -0.00000000000E+00 -0.20106744566E+03  0.20106744566E+03  0.00000000000E+00 0.  1.
         21    1    1    2  503  501  0.23890608582E+02 -0.11825849449E+02 -0.19897807132E+03  0.20075578387E+03  0.00000000000E+00 0.  1.
          2    1    1    2  501    0 -0.23890608582E+02  0.11825849449E+02  0.14677973969E+03  0.14918077583E+03  0.00000000000E+00 0.  1.
<mgrwt>
<rscale>  2 0.26657305E+02</rscale>
<asrwt>0</asrwt>
<pdfrwt beam="2">  1       21 0.30933453E-01 0.26657305E+02</pdfrwt>
<pdfrwt beam="1">  1        2 0.22902941E-01 0.26657305E+02</pdfrwt>
<totfact> 0.28289853E+04</totfact>
</mgrwt>
</event>
<event>
 4    1  0.2260076E+006  0.2136039E+02  0.7546771E-02  0.1719554E+00
         21   -1    0    0  501  502  0.00000000000E+00  0.00000000000E+00  0.16797770618E+03  0.16797770618E+03  0.00000000000E+00 0. -1.
          2   -1    0    0  503    0 -0.00000000000E+00 -0.00000000000E+00 -0.13911336468E+03  0.13911336468E+03  0.00000000000E+00 0. -1.
         21    1    1    2  503  502 -0.23507696849E+01  0.21230642629E+02  0.16647130475E+03  0.16783611533E+03  0.00000000000E+00 0. -1.
          2    1    1    2  501    0  0.23507696849E+01 -0.21230642629E+02 -0.13760696325E+03  0.13925495553E+03  0.00000000000E+00 0. -1.
<mgrwt>
<rscale>  2 0.21360391E+02</rscale>
<asrwt>0</asrwt>
<pdfrwt beam="1">  1       21 0.25842724E-01 0.21360391E+02</pdfrwt>
<pdfrwt beam="2">  1        2 0.21402056E-01 0.21360391E+02</pdfrwt>
<totfact> 0.41487506E+04</totfact>
</mgrwt>
</event>
<event>
 4    1  0.2260076E+006  0.4093971E+02  0.7546771E-02  0.1501408E+00
         21   -1    0    0  501  502  0.00000000000E+00  0.00000000000E+00  0.13783238810E+01  0.13783238810E+01  0.00000000000E+00 0. -1.
          2   -1    0    0  503    0 -0.00000000000E+00 -0.00000000000E+00 -0.20365073441E+04  0.20365073441E+04  0.00000000000E+00 0. -1.
         21    1    1    2  503  502  0.40927996211E+02  0.97928248692E+00 -0.37080234877E+03  0.37305554777E+03  0.00000000000E+00 0. -1.
          2    1    1    2  501    0 -0.40927996211E+02 -0.97928248692E+00 -0.16643266714E+04  0.16648301202E+04  0.00000000000E+00 0. -1.
<mgrwt>
<rscale>  2 0.40939710E+02</rscale>
<asrwt>0</asrwt>
<pdfrwt beam="1">  1       21 0.21204976E-03 0.40939710E+02</pdfrwt>
<pdfrwt beam="2">  1        2 0.31330892E+00 0.40939710E+02</pdfrwt>
<totfact> 0.34143275E+06</totfact>
</mgrwt>
</event>
<event>
 4    1  0.2260076E+006  0.2023468E+02  0.7546771E-02  0.1740701E+00
         21   -1    0    0  503  502  0.00000000000E+00  0.00000000000E+00  0.21034374962E+03  0.21034374962E+03  0.00000000000E+00 0. -1.
         -2   -1    0    0    0  501 -0.00000000000E+00 -0.00000000000E+00 -0.29313059588E+03  0.29313059588E+03  0.00000000000E+00 0. -1.
         21    1    1    2  503  501  0.13522139632E+01  0.20189448410E+02  0.20950652479E+03  0.21048141543E+03  0.00000000000E+00 0. -1.
         -2    1    1    2    0  502 -0.13522139632E+01 -0.20189448410E+02 -0.29229337106E+03  0.29299293007E+03  0.00000000000E+00 0. -1.
<mgrwt>
<rscale>  2 0.20234681E+02</rscale>
<asrwt>0</asrwt>
<pdfrwt beam="1">  1       21 0.32360577E-01 0.20234681E+02</pdfrwt>
<pdfrwt beam="2">  1       -2 0.45097015E-01 0.20234681E+02</pdfrwt>
<totfact> 0.35801382E+03</totfact>
</mgrwt>
</event>
<event>
 4    1  0.2260076E+006  0.2008572E+02  0.7546771E-02  0.1743629E+00
         21   -1    0    0  503  502  0.00000000000E+00  0.00000000000E+00  0.40153519345E+01  0.40153519345E+01  0.00000000000E+00 0.  1.
          1   -1    0    0  502    0 -0.00000000000E+00 -0.00000000000E+00 -0.16824338146E+03  0.16824338146E+03  0.00000000000E+00 0.  1.
         21    1    1    2  503  501 -0.50230675015E+01  0.19447489944E+02 -0.27450074370E+02  0.34013859751E+02  0.00000000000E+00 0.  1.
          1    1    1    2  501    0  0.50230675015E+01 -0.19447489944E+02 -0.13677795516E+03  0.13824487364E+03  0.00000000000E+00 0.  1.
<mgrwt>
<rscale>  2 0.20085718E+02</rscale>
<asrwt>0</asrwt>
<pdfrwt beam="1">  1       21 0.61774635E-03 0.20085718E+02</pdfrwt>
<pdfrwt beam="2">  1        1 0.25883601E-01 0.20085718E+02</pdfrwt>
<totfact> 0.99339107E+06</totfact>
</mgrwt>
</event>
<event>
 4    1  0.2260076E+006  0.4304752E+02  0.7546771E-02  0.1486912E+00
         21   -1    0    0  501  502  0.00000000000E+00  0.00000000000E+00  0.54097200586E+02  0.54097200586E+02  0.00000000000E+00 0. -1.
          1   -1    0    0  503    0 -0.00000000000E+00 -0.00000000000E+00 -0.18164124929E+03  0.18164124929E+03  0.00000000000E+00 0. -1.
         21    1    1    2  503  502 -0.38578513808E+02 -0.19099401884E+02  0.42402900749E+02  0.60424290412E+02  0.00000000000E+00 0. -1.
          1    1    1    2  501    0  0.38578513808E+02  0.19099401884E+02 -0.16994694946E+03  0.17531415947E+03  0.00000000000E+00 0. -1.
<mgrwt>
<rscale>  2 0.43047519E+02</rscale>
<asrwt>0</asrwt>
<pdfrwt beam="1">  1       21 0.83226461E-02 0.43047519E+02</pdfrwt>
<pdfrwt beam="2">  1        1 0.27944808E-01 0.43047519E+02</pdfrwt>
<totfact> 0.18203555E+05</totfact>
</mgrwt>
</event>
<event>
 4    1  0.2260076E+006  0.2657364E+02  0.7546771E-02  0.1639376E+00
         21   -1    0    0  503  502  0.00000000000E+00  0.00000000000E+00  0.76973385770E+01  0.76973385770E+01  0.00000000000E+00 0.  1.
         -3   -1    0    0    0  501 -0.00000000000E+00 -0.00000000000E+00 -0.91794949033E+02  0.91794949033E+02  0.00000000000E+00 0.  1.
         21    1    1    2  503  501  0.16520779944E+01  0.26522234533E+02 -0.40838107372E+02  0.48722780093E+02  0.00000000000E+00 0.  1.
         -3    1    1    2    0  502 -0.16520779944E+01 -0.26522234533E+02 -0.43259503084E+02  0.50769507516E+02  0.00000000000E+00 0.  1.
<mgrwt>
<rscale>  2 0.26573639E+02</rscale>
<asrwt>0</asrwt>
<pdfrwt beam="1">  1       21 0.11842059E-02 0.26573639E+02</pdfrwt>
<pdfrwt beam="2">  1       -3 0.14122300E-01 0.26573639E+02</pdfrwt>
<totfact> 0.34505039E+06</totfact>
</mgrwt>
</event>
<event>
 4    1  0.2260076E+006  0.2062684E+02  0.7546771E-02  0.1733142E+00
         -1   -1    0    0    0  501 -0.00000000000E+00  0.00000000000E+00  0.11020993517E+02  0.11020993517E+02  0.00000000000E+00 0.  1.
         21   -1    0    0  503  502  0.00000000000E+00 -0.00000000000E+00 -0.99985503883E+03  0.99985503883E+03  0.00000000000E+00 0.  1.
         21    1    1    2  503  501  0.14590127325E+00  0.20626323254E+02 -0.99000133223E+03  0.99021619070E+03  0.00000000000E+00 0.  1.
         -1    1    1    2    0  502 -0.14590127325E+00 -0.20626323254E+02  0.11672869218E+01  0.20659841648E+02  0.00000000000E+00 0.  1.
<mgrwt>
<rscale>  2 0.20626839E+02</rscale>
<asrwt>0</asrwt>
<pdfrwt beam="2">  1       21 0.15382389E+00 0.20626839E+02</pdfrwt>
<pdfrwt beam="1">  1       -1 0.16955371E-02 0.20626839E+02</pdfrwt>
<totfact> 0.20767094E+04</totfact>
</mgrwt>
</event>
<event>
 4    1  0.2260076E+006  0.2029851E+02  0.7546771E-02  0.1739456E+00
         21   -1    0    0  501  502  0.00000000000E+00  0.00000000000E+00  0.63482594609E+02  0.63482594609E+02  0.00000000000E+00 0. -1.
          2   -1    0    0  503    0 -0.00000000000E+00 -0.00000000000E+00 -0.63017139410E+02  0.63017139410E+02  0.00000000000E+00 0.  1.
         21    1    1    2  503  502  0.13973641104E+02 -0.14723011129E+02  0.60136904381E+02  0.63470284157E+02  0.00000000000E+00 0. -1.
          2    1    1    2  501    0 -0.13973641104E+02  0.14723011129E+02 -0.59671449183E+02  0.63029449862E+02  0.00000000000E+00 0.  1.
<mgrwt>
<rscale>  2 0.20298515E+02</rscale>
<asrwt>0</asrwt>
<pdfrwt beam="1">  1       21 0.97665530E-02 0.20298515E+02</pdfrwt>
<pdfrwt beam="2">  1        2 0.96949445E-02 0.20298515E+02</pdfrwt>
<totfact> 0.51704924E+05</totfact>
</mgrwt>
</event>
<event>
 4    1  0.2260076E+006  0.2171527E+02  0.7546771E-02  0.1713223E+00
         21   -1    0    0  503  502  0.00000000000E+00  0.00000000000E+00  0.52537589197E+01  0.52537589197E+01  0.00000000000E+00 0. -1.
          2   -1    0    0  502    0 -0.00000000000E+00 -0.00000000000E+00 -0.90881625813E+03  0.90881625813E+03  0.00000000000E+00 0. -1.
         21    1    1    2  503  501 -0.21702434116E+02 -0.74657108024E+00 -0.17901359816E+02  0.28142702397E+02  0.00000000000E+00 0. -1.
          2    1    1    2  501    0  0.21702434116E+02  0.74657108024E+00 -0.88566113939E+03  0.88592731465E+03  0.00000000000E+00 0. -1.
<mgrwt>
<rscale>  2 0.21715271E+02</rscale>
<asrwt>0</asrwt>
<pdfrwt beam="1">  1       21 0.80827007E-03 0.21715271E+02</pdfrwt>
<pdfrwt beam="2">  1        2 0.13981798E+00 0.21715271E+02</pdfrwt>
<totfact> 0.15462546E+06</totfact>
</mgrwt>
</event>
<event>
 4    1  0.2260076E+006  0.2430558E+02  0.7546771E-02  0.1671181E+00
         21   -1    0    0  501  502  0.00000000000E+00  0.00000000000E+00  0.14881883137E+01  0.14881883137E+01  0.00000000000E+00 0.  1.
          2   -1    0    0  503    0 -0.00000000000E+00 -0.00000000000E+00 -0.61760224956E+03  0.61760224956E+03  0.00000000000E+00 0.  1.
         21    1    1    2  503  502 -0.98872489777E+01  0.22203679534E+02 -0.12304179459E+03  0.12541947334E+03  0.00000000000E+00 0.  1.
          2    1    1    2  501    0  0.98872489777E+01 -0.22203679534E+02 -0.49307226665E+03  0.49367096453E+03  0.00000000000E+00 0.  1.
<mgrwt>
<rscale>  2 0.24305577E+02</rscale>
<asrwt>0</asrwt>
<pdfrwt beam="1">  1       21 0.22895171E-03 0.24305577E+02</pdfrwt>
<pdfrwt beam="2">  1        2 0.95015871E-01 0.24305577E+02</pdfrwt>
<totfact> 0.15573513E+07</totfact>
</mgrwt>
</event>
<event>
 4    1  0.2260076E+006  0.3756426E+02  0.7546771E-02  0.1526941E+00
         21   -1    0    0  501  502  0.00000000000E+00  0.00000000000E+00  0.74499234607E+00  0.74499234607E+00  0.00000000000E+00 0.  1.
          2   -1    0    0  503    0 -0.00000000000E+00 -0.00000000000E+00 -0.30606659159E+04  0.30606659159E+04  0.00000000000E+00 0. -1.
         21    1    1    2  503  502 -0.19651506939E+02  0.32013933537E+02 -0.58493743752E+03  0.58614237134E+03  0.00000000000E+00 0.  1.
          2    1    1    2  501    0  0.19651506939E+02 -0.32013933537E+02 -0.24749834860E+04  0.24752685369E+04  0.00000000000E+00 0. -1.
<mgrwt>
<rscale>  2 0.37564260E+02</rscale>
<asrwt>0</asrwt>
<pdfrwt beam="1">  1       21 0.11461211E-03 0.37564260E+02</pdfrwt>
<pdfrwt beam="2">  1        2 0.47088031E+00 0.37564260E+02</pdfrwt>
<totfact> 0.24888233E+06</totfact>
</mgrwt>
</event>
<event>
 4    1  0.2260076E+006  0.3610997E+02  0.7546771E-02  0.1538959E+00
         21   -1    0    0  501  502  0.00000000000E+00  0.00000000000E+00  0.53870571949E+02  0.53870571949E+02  0.00000000000E+00 0.  1.
          2   -1    0    0  503    0 -0.00000000000E+00 -0.00000000000E+00 -0.22871773246E+04  0.22871773246E+04  0.00000000000E+00 0. -1.
         21    1    1    2  503  502  0.33104044119E+02 -0.14424026623E+02  0.47660353718E+02  0.59794979702E+02  0.00000000000E+00 0.  1.
          2    1    1    2  501    0 -0.33104044119E+02  0.14424026623E+02 -0.22809671064E+04  0.22812529169E+04  0.00000000000E+00 0. -1.
<mgrwt>
<rscale>  2 0.36109975E+02</rscale>
<asrwt>0</asrwt>
<pdfrwt beam="1">  1       21 0.82877811E-02 0.36109975E+02</pdfrwt>
<pdfrwt beam="2">  1        2 0.35187340E+00 0.36109975E+02</pdfrwt>
<totfact> 0.87861913E+03</totfact>
</mgrwt>
</event>
<event>
 4    1  0.2260076E+006  0.2157188E+02  0.7546771E-02  0.1715763E+00
         21   -1    0    0  501  502  0.00000000000E+00  0.00000000000E+00  0.63649974620E+02  0.63649974620E+02  0.00000000000E+00 0. -1.
         -2   -1    0    0    0  501 -0.00000000000E+00 -0.00000000000E+00 -0.81593414563E+02  0.81593414563E+02  0.00000000000E+00 0.  1.
         21    1    1    2  503  502 -0.20140569310E+02  0.77268142390E+01  0.60320069061E+02  0.64061352795E+02  0.00000000000E+00 0. -1.
         -2    1    1    2    0  503  0.20140569310E+02 -0.77268142390E+01 -0.78263509004E+02  0.81182036388E+02  0.00000000000E+00 0.  1.
<mgrwt>
<rscale>  2 0.21571884E+02</rscale>
<asrwt>0</asrwt>
<pdfrwt beam="1">  1       21 0.97923038E-02 0.21571884E+02</pdfrwt>
<pdfrwt beam="2">  1       -2 0.12552833E-01 0.21571884E+02</pdfrwt>
<totfact> 0.23671351E+05</totfact>
</mgrwt>
</event>
<event>
 4    1  0.2260076E+006  0.2381996E+02  0.7546771E-02  0.1678554E+00
         21   -1    0    0  503  502  0.00000000000E+00  0.00000000000E+00  0.33069045544E+01  0.33069045544E+01  0.00000000000E+00 0.  1.
          2   -1    0    0  502    0 -0.00000000000E+00 -0.00000000000E+00 -0.10126924090E+04  0.10126924090E+04  0.00000000000E+00 0. -1.
         21    1    1    2  503  501 -0.85611082823E+01 -0.22228310050E+02 -0.41723324946E+02  0.48044002615E+02  0.00000000000E+00 0.  1.
          2    1    1    2  501    0  0.85611082823E+01  0.22228310050E+02 -0.96766217950E+03  0.96795531094E+03  0.00000000000E+00 0. -1.
<mgrwt>
<rscale>  2 0.23819957E+02</rscale>
<asrwt>0</asrwt>
<pdfrwt beam="1">  1       21 0.50875477E-03 0.23819957E+02</pdfrwt>
<pdfrwt beam="2">  1        2 0.15579876E+00 0.23819957E+02</pdfrwt>
<totfact> 0.27414072E+06</totfact>
</mgrwt>
</event>
<event>
 4    1  0.2260076E+006  0.2094528E+02  0.7546771E-02  0.1727158E+00
         21   -1    0    0  503  502  0.00000000000E+00  0.00000000000E+00  0.74638654529E+01  0.74638654529E+01  0.00000000000E+00 0.  1.
          1   -1    0    0  502    0 -0.00000000000E+00 -0.00000000000E+00 -0.96595715338E+03  0.96595715338E+03  0.00000000000E+00 0.  1.
         21    1    1    2  503  501  0.20696273128E+02 -0.32200771294E+01 -0.75763438528E+01  0.22273428211E+02  0.00000000000E+00 0.  1.
          1    1    1    2  501    0 -0.20696273128E+02  0.32200771294E+01 -0.95091694408E+03  0.95114759063E+03  0.00000000000E+00 0.  1.
<mgrwt>
<rscale>  2 0.20945277E+02</rscale>
<asrwt>0</asrwt>
<pdfrwt beam="1">  1       21 0.11482881E-02 0.20945277E+02</pdfrwt>
<pdfrwt beam="2">  1        1 0.14860865E+00 0.20945277E+02</pdfrwt>
<totfact> 0.47397913E+05</totfact>
</mgrwt>
</event>
<event>
 4    1  0.2260076E+006  0.2021923E+02  0.7546771E-02  0.1741003E+00
          2   -1    0    0  503    0 -0.00000000000E+00  0.00000000000E+00  0.28290844437E+02  0.28290844437E+02  0.00000000000E+00 0.  1.
         21   -1    0    0  501  502  0.00000000000E+00 -0.00000000000E+00 -0.20556710174E+02  0.20556710174E+02  0.00000000000E+00 0. -1.
         21    1    1    2  503  502 -0.17501829403E+02  0.10124391244E+02 -0.94442580255E+01  0.22316167686E+02  0.00000000000E+00 0. -1.
          2    1    1    2  501    0  0.17501829403E+02 -0.10124391244E+02  0.17178392289E+02  0.26531386925E+02  0.00000000000E+00 0.  1.
<mgrwt>
<rscale>  2 0.20219232E+02</rscale>
<asrwt>0</asrwt>
<pdfrwt beam="2">  1       21 0.31625708E-02 0.20219232E+02</pdfrwt>
<pdfrwt beam="1">  1        2 0.43524376E-02 0.20219232E+02</pdfrwt>
<totfact> 0.80841017E+06</totfact>
</mgrwt>
</event>
<event>
 4    1  0.2260076E+006  0.2060531E+02  0.7546771E-02  0.1733552E+00
         21   -1    0    0  503  502  0.00000000000E+00  0.00000000000E+00  0.24499049958E+01  0.24499049958E+01  0.00000000000E+00 0.  1.
          2   -1    0    0  502    0 -0.00000000000E+00 -0.00000000000E+00 -0.22008453974E+03  0.22008453974E+03  0.00000000000E+00 0.  1.
         21    1    1    2  503  501  0.18387629795E+02 -0.92991292887E+01 -0.57518856420E+02  0.61098261668E+02  0.00000000000E+00 0.  1.
          2    1    1    2  501    0 -0.18387629795E+02  0.92991292887E+01 -0.16011577832E+03  0.16143618307E+03  0.00000000000E+00 0.  1.
<mgrwt>
<rscale>  2 0.20605308E+02</rscale>
<asrwt>0</asrwt>
<pdfrwt beam="1">  1       21 0.37690843E-03 0.20605308E+02</pdfrwt>
<pdfrwt beam="2">  1        2 0.33859163E-01 0.20605308E+02</pdfrwt>
<totfact> 0.20091467E+07</totfact>
</mgrwt>
</event>
<event>
 4    1  0.2260076E+006  0.2054461E+02  0.7546771E-02  0.1734710E+00
          3   -1    0    0  503    0 -0.00000000000E+00  0.00000000000E+00  0.17397406522E+02  0.17397406522E+02  0.00000000000E+00 0. -1.
         21   -1    0    0  501  502  0.00000000000E+00 -0.00000000000E+00 -0.17281456388E+03  0.17281456388E+03  0.00000000000E+00 0. -1.
         21    1    1    2  503  502 -0.15382289366E+02 -0.13618590462E+02 -0.16588632989E+03  0.16715368760E+03  0.00000000000E+00 0. -1.
          3    1    1    2  501    0  0.15382289366E+02  0.13618590462E+02  0.10469172534E+02  0.23058282804E+02  0.00000000000E+00 0. -1.
<mgrwt>
<rscale>  2 0.20544606E+02</rscale>
<asrwt>0</asrwt>
<pdfrwt beam="2">  1       21 0.26586855E-01 0.20544606E+02</pdfrwt>
<pdfrwt beam="1">  1        3 0.26765242E-02 0.20544606E+02</pdfrwt>
<totfact> 0.26213380E+05</totfact>
</mgrwt>
</event>
<event>
 4    1  0.2260076E+006  0.2816350E+02  0.7546771E-02  0.1619323E+00
          3   -1    0    0  503    0 -0.00000000000E+00  0.00000000000E+00  0.16974704061E+03  0.16974704061E+03  0.00000000000E+00 0. -1.
         21   -1    0    0  501  502  0.00000000000E+00 -0.00000000000E+00 -0.23721820586E+02  0.23721820586E+02  0.00000000000E+00 0.  1.
         21    1    1    2  503  502  0.33688673818E+01  0.27961285282E+02 -0.13672429376E+02  0.31306837386E+02  0.00000000000E+00 0.  1.
          3    1    1    2  501    0 -0.33688673818E+01 -0.27961285282E+02  0.15969764940E+03  0.16216202381E+03  0.00000000000E+00 0. -1.
<mgrwt>
<rscale>  2 0.28163500E+02</rscale>
<asrwt>0</asrwt>
<pdfrwt beam="2">  1       21 0.36495110E-02 0.28163500E+02</pdfrwt>
<pdfrwt beam="1">  1        3 0.26114929E-01 0.28163500E+02</pdfrwt>
<totfact> 0.21942600E+05</totfact>
</mgrwt>
</event>
<event>
 4    1  0.2260076E+006  0.2202007E+02  0.7546771E-02  0.1707905E+00
         21   -1    0    0  503  502  0.00000000000E+00  0.00000000000E+00  0.76785721854E+01  0.76785721854E+01  0.00000000000E+00 0. -1.
         -1   -1    0    0    0  501 -0.00000000000E+00 -0.00000000000E+00 -0.16936812876E+03  0.16936812876E+03  0.00000000000E+00 0. -1.
         21    1    1    2  503  501  0.17642963312E+02 -0.13176092328E+02 -0.10740231573E+02  0.24499717095E+02  0.00000000000E+00 0. -1.
         -1    1    1    2    0  502 -0.17642963312E+02  0.13176092328E+02 -0.15094932500E+03  0.15254698385E+03  0.00000000000E+00 0. -1.
<mgrwt>
<rscale>  2 0.22020072E+02</rscale>
<asrwt>0</asrwt>
<pdfrwt beam="1">  1       21 0.11813188E-02 0.22020072E+02</pdfrwt>
<pdfrwt beam="2">  1       -1 0.26056636E-01 0.22020072E+02</pdfrwt>
<totfact> 0.23139153E+06</totfact>
</mgrwt>
</event>
<event>
 4    1  0.2260076E+006  0.4741572E+02  0.7546771E-02  0.1459801E+00
         21   -1    0    0  501  502  0.00000000000E+00  0.00000000000E+00  0.48861123454E+02  0.48861123454E+02  0.00000000000E+00 0.  1.
         -1   -1    0    0    0  501 -0.00000000000E+00 -0.00000000000E+00 -0.15753082036E+03  0.15753082036E+03  0.00000000000E+00 0. -1.
         21    1    1    2  503  502 -0.38865239810E+02  0.27161431918E+02  0.32491588599E+02  0.57480027653E+02  0.00000000000E+00 0.  1.
         -1    1    1    2    0  503  0.38865239810E+02 -0.27161431918E+02 -0.14116128551E+03  0.14891191616E+03  0.00000000000E+00 0. -1.
<mgrwt>
<rscale>  2 0.47415717E+02</rscale>
<asrwt>0</asrwt>
<pdfrwt beam="1">  1       21 0.75170959E-02 0.47415717E+02</pdfrwt>
<pdfrwt beam="2">  1       -1 0.24235511E-01 0.47415717E+02</pdfrwt>
<totfact> 0.16032400E+05</totfact>
</mgrwt>
</event>
<event>
 4    1  0.2260076E+006  0.2024151E+02  0.7546771E-02  0.1740568E+00
         21   -1    0    0  501  502  0.00000000000E+00  0.00000000000E+00  0.96357872853E+02  0.96357872853E+02  0.00000000000E+00 0.  1.
          1   -1    0    0  503    0 -0.00000000000E+00 -0.00000000000E+00 -0.11860397104E+02  0.11860397104E+02  0.00000000000E+00 0.  1.
         21    1    1    2  503  502 -0.11947017484E+01 -0.20206220234E+02  0.85586460821E+02  0.87947489585E+02  0.00000000000E+00 0.  1.
          1    1    1    2  501    0  0.11947017484E+01  0.20206220234E+02 -0.10889850719E+01  0.20270780373E+02  0.00000000000E+00 0.  1.
<mgrwt>
<rscale>  2 0.20241508E+02</rscale>
<asrwt>0</asrwt>
<pdfrwt beam="1">  1       21 0.14824288E-01 0.20241508E+02</pdfrwt>
<pdfrwt beam="2">  1        1 0.18246765E-02 0.20241508E+02</pdfrwt>
<totfact> 0.19251146E+06</totfact>
</mgrwt>
</event>
<event>
 4    1  0.2260076E+006  0.3685246E+02  0.7546771E-02  0.1532740E+00
          1   -1    0    0  503    0 -0.00000000000E+00  0.00000000000E+00  0.76989186964E+03  0.76989186964E+03  0.00000000000E+00 0.  1.
         21   -1    0    0  501  502  0.00000000000E+00 -0.00000000000E+00 -0.67485217309E+01  0.67485217309E+01  0.00000000000E+00 0.  1.
         21    1    1    2  503  502  0.58020995437E+01  0.36392853100E+02  0.47840667164E+02  0.60389018460E+02  0.00000000000E+00 0.  1.
          1    1    1    2  501    0 -0.58020995437E+01 -0.36392853100E+02  0.71530268074E+03  0.71625137291E+03  0.00000000000E+00 0.  1.
<mgrwt>
<rscale>  2 0.36852464E+02</rscale>
<asrwt>0</asrwt>
<pdfrwt beam="2">  1       21 0.10382347E-02 0.36852464E+02</pdfrwt>
<pdfrwt beam="1">  1        1 0.11844483E+00 0.36852464E+02</pdfrwt>
<totfact> 0.83155721E+05</totfact>
</mgrwt>
</event>
<event>
 4    1  0.2260076E+006  0.2752293E+02  0.7546771E-02  0.1627203E+00
          2   -1    0    0  503    0 -0.00000000000E+00  0.00000000000E+00  0.92185706853E+03  0.92185706853E+03  0.00000000000E+00 0. -1.
         21   -1    0    0  501  502  0.00000000000E+00 -0.00000000000E+00 -0.15927663773E+03  0.15927663773E+03  0.00000000000E+00 0. -1.
         21    1    1    2  503  502  0.18131291318E+02 -0.20706713428E+02 -0.15788041622E+03  0.16026146615E+03  0.00000000000E+00 0. -1.
          2    1    1    2  501    0 -0.18131291318E+02  0.20706713428E+02  0.92046084702E+03  0.92087224011E+03  0.00000000000E+00 0. -1.
<mgrwt>
<rscale>  2 0.27522931E+02</rscale>
<asrwt>0</asrwt>
<pdfrwt beam="2">  1       21 0.24504099E-01 0.27522931E+02</pdfrwt>
<pdfrwt beam="1">  1        2 0.14182416E+00 0.27522931E+02</pdfrwt>
<totfact> 0.65061145E+03</totfact>
</mgrwt>
</event>
<event>
 4    1  0.2260076E+006  0.3254371E+02  0.7546771E-02  0.1571561E+00
         -1   -1    0    0    0  501 -0.00000000000E+00  0.00000000000E+00  0.10665970820E+02  0.10665970820E+02  0.00000000000E+00 0.  1.
         21   -1    0    0  501  502  0.00000000000E+00 -0.00000000000E+00 -0.14306564055E+03  0.14306564055E+03  0.00000000000E+00 0.  1.
         21    1    1    2  503  502  0.17891044064E+02  0.27184624129E+02 -0.10871556800E+03  0.11348201607E+03  0.00000000000E+00 0.  1.
         -1    1    1    2    0  503 -0.17891044064E+02 -0.27184624129E+02 -0.23684101732E+02  0.40249595297E+02  0.00000000000E+00 0.  1.
<mgrwt>
<rscale>  2 0.32543713E+02</rscale>
<asrwt>0</asrwt>
<pdfrwt beam="2">  1       21 0.22010097E-01 0.32543713E+02</pdfrwt>
<pdfrwt beam="1">  1       -1 0.16409187E-02 0.32543713E+02</pdfrwt>
<totfact> 0.11871088E+06</totfact>
</mgrwt>
</event>
<event>
 4    1  0.2260076E+006  0.2161108E+02  0.7546771E-02  0.1715066E+00
         21   -1    0    0  503  502  0.00000000000E+00  0.00000000000E+00  0.47484477785E+03  0.47484477785E+03  0.00000000000E+00 0. -1.
         -4   -1    0    0    0  501 -0.00000000000E+00 -0.00000000000E+00 -0.27040226538E+01  0.27040226538E+01  0.00000000000E+00 0. -1.
         21    1    1    2  503  501  0.20341753133E+02  0.72973817689E+01  0.42653096797E+03  0.42707810215E+03  0.00000000000E+00 0. -1.
         -4    1    1    2    0  502 -0.20341753133E+02 -0.72973817689E+01  0.45609787228E+02  0.50470698352E+02  0.00000000000E+00 0. -1.
<mgrwt>
<rscale>  2 0.21611078E+02</rscale>
<asrwt>0</asrwt>
<pdfrwt beam="1">  1       21 0.73052976E-01 0.21611078E+02</pdfrwt>
<pdfrwt beam="2">  1       -4 0.41600386E-03 0.21611078E+02</pdfrwt>
<totfact> 0.47924440E+05</totfact>
</mgrwt>
</event>
<event>
 4    1  0.2260076E+006  0.2376408E+02  0.7546771E-02  0.1679416E+00
          2   -1    0    0  502    0 -0.00000000000E+00  0.00000000000E+00  0.11697249292E+04  0.11697249292E+04  0.00000000000E+00 0. -1.
         21   -1    0    0  503  502  0.00000000000E+00 -0.00000000000E+00 -0.70127581869E+00  0.70127581869E+00  0.00000000000E+00 0. -1.
         21    1    1    2  503  501 -0.17405061996E+02 -0.16180090750E+02  0.25786291329E+03  0.25895562085E+03  0.00000000000E+00 0. -1.
          2    1    1    2  501    0  0.17405061996E+02  0.16180090750E+02  0.91116074011E+03  0.91147058419E+03  0.00000000000E+00 0. -1.
<mgrwt>
<rscale>  2 0.23764080E+02</rscale>
<asrwt>0</asrwt>
<pdfrwt beam="2">  1       21 0.10788952E-03 0.23764080E+02</pdfrwt>
<pdfrwt beam="1">  1        2 0.17995612E+00 0.23764080E+02</pdfrwt>
<totfact> 0.21530553E+07</totfact>
</mgrwt>
</event>
<event>
 4    1  0.2260076E+006  0.2557087E+02  0.7546771E-02  0.1652935E+00
         -2   -1    0    0    0  501 -0.00000000000E+00  0.00000000000E+00  0.84647630215E+02  0.84647630215E+02  0.00000000000E+00 0. -1.
         21   -1    0    0  503  502  0.00000000000E+00 -0.00000000000E+00 -0.88099504777E+01  0.88099504777E+01  0.00000000000E+00 0. -1.
         21    1    1    2  503  501  0.12933116067E+01 -0.25538139244E+02  0.21517379958E+02  0.33419557915E+02  0.00000000000E+00 0. -1.
         -2    1    1    2    0  502 -0.12933116067E+01  0.25538139244E+02  0.54320299779E+02  0.60038022777E+02  0.00000000000E+00 0. -1.
<mgrwt>
<rscale>  2 0.25570866E+02</rscale>
<asrwt>0</asrwt>
<pdfrwt beam="2">  1       21 0.13553770E-02 0.25570866E+02</pdfrwt>
<pdfrwt beam="1">  1       -2 0.13022712E-01 0.25570866E+02</pdfrwt>
<totfact> 0.52515883E+06</totfact>
</mgrwt>
</event>
<event>
 4    1  0.2260076E+006  0.2207456E+02  0.7546771E-02  0.1706966E+00
         21   -1    0    0  501  502  0.00000000000E+00  0.00000000000E+00  0.58203418996E+00  0.58203418996E+00  0.00000000000E+00 0.  1.
          2   -1    0    0  503    0 -0.00000000000E+00 -0.00000000000E+00 -0.12470777392E+04  0.12470777392E+04  0.00000000000E+00 0. -1.
         21    1    1    2  503  502 -0.22553751399E+01 -0.21959038739E+02 -0.26561274969E+03  0.26652845795E+03  0.00000000000E+00 0.  1.
          2    1    1    2  501    0  0.22553751399E+01  0.21959038739E+02 -0.98088295536E+03  0.98113131548E+03  0.00000000000E+00 0. -1.
<mgrwt>
<rscale>  2 0.22074558E+02</rscale>
<asrwt>0</asrwt>
<pdfrwt beam="1">  1       21 0.89544544E-04 0.22074558E+02</pdfrwt>
<pdfrwt beam="2">  1        2 0.19185635E+00 0.22074558E+02</pdfrwt>
<totfact> 0.25181403E+07</totfact>
</mgrwt>
</event>
<event>
 4    1  0.2260076E+006  0.2671487E+02  0.7546771E-02  0.1637526E+00
         21   -1    0    0  503  502  0.00000000000E+00  0.00000000000E+00  0.29238823038E+03  0.29238823038E+03  0.00000000000E+00 0. -1.
         -4   -1    0    0    0  501 -0.00000000000E+00 -0.00000000000E+00 -0.54265316528E+01  0.54265316528E+01  0.00000000000E+00 0.  1.
         21    1    1    2  503  501 -0.18765592509E+02  0.19014114642E+02  0.25393314931E+03  0.25533454200E+03  0.00000000000E+00 0. -1.
         -4    1    1    2    0  502  0.18765592509E+02 -0.19014114642E+02  0.33028549420E+02  0.42480220039E+02  0.00000000000E+00 0.  1.
<mgrwt>
<rscale>  2 0.26714865E+02</rscale>
<asrwt>0</asrwt>
<pdfrwt beam="1">  1       21 0.44982792E-01 0.26714865E+02</pdfrwt>
<pdfrwt beam="2">  1       -4 0.83485125E-03 0.26714865E+02</pdfrwt>
<totfact> 0.50190969E+05</totfact>
</mgrwt>
</event>
<event>
 4    1  0.2260076E+006  0.2048898E+02  0.7546771E-02  0.1735775E+00
         21   -1    0    0  503  502  0.00000000000E+00  0.00000000000E+00  0.17418149147E+01  0.17418149147E+01  0.00000000000E+00 0.  1.
         -3   -1    0    0    0  501 -0.00000000000E+00 -0.00000000000E+00 -0.38423143774E+03  0.38423143774E+03  0.00000000000E+00 0. -1.
         21    1    1    2  503  501  0.85107153543E+01  0.18637753586E+02 -0.73421319659E+02  0.76226559118E+02  0.00000000000E+00 0.  1.
         -3    1    1    2    0  502 -0.85107153543E+01 -0.18637753586E+02 -0.30906830317E+03  0.30974669354E+03  0.00000000000E+00 0. -1.
<mgrwt>
<rscale>  2 0.20488976E+02</rscale>
<asrwt>0</asrwt>
<pdfrwt beam="1">  1       21 0.26797132E-03 0.20488976E+02</pdfrwt>
<pdfrwt beam="2">  1       -3 0.59112573E-01 0.20488976E+02</pdfrwt>
<totfact> 0.22455545E+06</totfact>
</mgrwt>
</event>
<event>
 4    1  0.2260076E+006  0.2915128E+02  0.7546771E-02  0.1607664E+00
         -2   -1    0    0    0  501 -0.00000000000E+00  0.00000000000E+00  0.11263547703E+02  0.11263547703E+02  0.00000000000E+00 0.  1.
         21   -1    0    0  501  502  0.00000000000E+00 -0.00000000000E+00 -0.21009348327E+03  0.21009348327E+03  0.00000000000E+00 0. -1.
         21    1    1    2  503  502  0.28586932747E+02  0.57082652421E+01 -0.18801932836E+03  0.19026577425E+03  0.00000000000E+00 0. -1.
         -2    1    1    2    0  503 -0.28586932747E+02 -0.57082652421E+01 -0.10810607204E+02  0.31091256714E+02  0.00000000000E+00 0.  1.
<mgrwt>
<rscale>  2 0.29151278E+02</rscale>
<asrwt>0</asrwt>
<pdfrwt beam="2">  1       21 0.32322074E-01 0.29151278E+02</pdfrwt>
<pdfrwt beam="1">  1       -2 0.17328535E-02 0.29151278E+02</pdfrwt>
<totfact> 0.53186659E+05</totfact>
</mgrwt>
</event>
<event>
 4    1  0.2260076E+006  0.2870657E+02  0.7546771E-02  0.1612842E+00
         -1   -1    0    0    0  501 -0.00000000000E+00  0.00000000000E+00  0.97102316765E+01  0.97102316765E+01  0.00000000000E+00 0.  1.
         21   -1    0    0  501  502  0.00000000000E+00 -0.00000000000E+00 -0.11593522893E+03  0.11593522893E+03  0.00000000000E+00 0.  1.
         21    1    1    2  503  502  0.98702286202E+01 -0.26956365078E+02 -0.85634360825E+02  0.90317832044E+02  0.00000000000E+00 0.  1.
         -1    1    1    2    0  503 -0.98702286202E+01  0.26956365078E+02 -0.20590636425E+02  0.35327628559E+02  0.00000000000E+00 0.  1.
<mgrwt>
<rscale>  2 0.28706568E+02</rscale>
<asrwt>0</asrwt>
<pdfrwt beam="2">  1       21 0.17836189E-01 0.28706568E+02</pdfrwt>
<pdfrwt beam="1">  1       -1 0.14938818E-02 0.28706568E+02</pdfrwt>
<totfact> 0.19044952E+06</totfact>
</mgrwt>
</event>
<event>
 4    1  0.2260076E+006  0.2259232E+02  0.7546771E-02  0.1698205E+00
          2   -1    0    0  502    0 -0.00000000000E+00  0.00000000000E+00  0.11720446851E+04  0.11720446851E+04  0.00000000000E+00 0. -1.
         21   -1    0    0  503  502  0.00000000000E+00 -0.00000000000E+00 -0.12000846021E+02  0.12000846021E+02  0.00000000000E+00 0. -1.
         21    1    1    2  503  501 -0.15125695333E+02  0.16781726320E+02 -0.11598603724E+01  0.22622074919E+02  0.00000000000E+00 0. -1.
          2    1    1    2  501    0  0.15125695333E+02 -0.16781726320E+02  0.11612036995E+04  0.11614234562E+04  0.00000000000E+00 0. -1.
<mgrwt>
<rscale>  2 0.22592322E+02</rscale>
<asrwt>0</asrwt>
<pdfrwt beam="2">  1       21 0.18462849E-02 0.22592322E+02</pdfrwt>
<pdfrwt beam="1">  1        2 0.18031448E+00 0.22592322E+02</pdfrwt>
<totfact> 0.32398121E+05</totfact>
</mgrwt>
</event>
<event>
 4    1  0.2260076E+006  0.3534016E+02  0.7546771E-02  0.1545600E+00
          2   -1    0    0  502    0 -0.00000000000E+00  0.00000000000E+00  0.33201075465E+02  0.33201075465E+02  0.00000000000E+00 0. -1.
         21   -1    0    0  503  502  0.00000000000E+00 -0.00000000000E+00 -0.10079771175E+03  0.10079771175E+03  0.00000000000E+00 0.  1.
         21    1    1    2  503  501  0.35052737225E+02  0.44980267787E+01 -0.86842482089E+02  0.93757897413E+02  0.00000000000E+00 0.  1.
          2    1    1    2  501    0 -0.35052737225E+02 -0.44980267787E+01  0.19245845800E+02  0.40240889807E+02  0.00000000000E+00 0. -1.
<mgrwt>
<rscale>  2 0.35340156E+02</rscale>
<asrwt>0</asrwt>
<pdfrwt beam="2">  1       21 0.15507340E-01 0.35340156E+02</pdfrwt>
<pdfrwt beam="1">  1        2 0.51078578E-02 0.35340156E+02</pdfrwt>
<totfact> 0.56138877E+05</totfact>
</mgrwt>
</event>
<event>
 4    1  0.2260076E+006  0.2647615E+02  0.7546771E-02  0.1640662E+00
          2   -1    0    0  503    0 -0.00000000000E+00  0.00000000000E+00  0.79137823791E+03  0.79137823791E+03  0.00000000000E+00 0. -1.
         21   -1    0    0  501  502  0.00000000000E+00 -0.00000000000E+00 -0.90870600423E+00  0.90870600423E+00  0.00000000000E+00 0. -1.
         21    1    1    2  503  502 -0.64457895462E+01  0.25679534360E+02  0.33231183969E+03  0.33336488340E+03  0.00000000000E+00 0. -1.
          2    1    1    2  501    0  0.64457895462E+01 -0.25679534360E+02  0.45815769222E+03  0.45892206052E+03  0.00000000000E+00 0. -1.
<mgrwt>
<rscale>  2 0.26476153E+02</rscale>
<asrwt>0</asrwt>
<pdfrwt beam="2">  1       21 0.13980156E-03 0.26476153E+02</pdfrwt>
<pdfrwt beam="1">  1        2 0.12174995E+00 0.26476153E+02</pdfrwt>
<totfact> 0.24789243E+07</totfact>
</mgrwt>
</event>
<event>
 4    1  0.2260076E+006  0.2629746E+02  0.7546771E-02  0.1643036E+00
         21   -1    0    0  503  502  0.00000000000E+00  0.00000000000E+00  0.15844248078E+03  0.15844248078E+03  0.00000000000E+00 0. -1.
         -2   -1    0    0    0  501 -0.00000000000E+00 -0.00000000000E+00 -0.12635694028E+03  0.12635694028E+03  0.00000000000E+00 0. -1.
         21    1    1    2  503  501  0.16064224346E+02  0.20820599427E+02  0.15596142737E+03  0.15816296498E+03  0.00000000000E+00 0. -1.
         -2    1    1    2    0  502 -0.16064224346E+02 -0.20820599427E+02 -0.12387588686E+03  0.12663645608E+03  0.00000000000E+00 0. -1.
<mgrwt>
<rscale>  2 0.26297465E+02</rscale>
<asrwt>0</asrwt>
<pdfrwt beam="1">  1       21 0.24375766E-01 0.26297465E+02</pdfrwt>
<pdfrwt beam="2">  1       -2 0.19439529E-01 0.26297465E+02</pdfrwt>
<totfact> 0.25742312E+04</totfact>
</mgrwt>
</event>
<event>
 4    1  0.2260076E+006  0.2175677E+02  0.7546771E-02  0.1712493E+00
          1   -1    0    0  502    0 -0.00000000000E+00  0.00000000000E+00  0.14895438193E+03  0.14895438193E+03  0.00000000000E+00 0. -1.
         21   -1    0    0  503  502  0.00000000000E+00 -0.00000000000E+00 -0.80882786636E+01  0.80882786636E+01  0.00000000000E+00 0.  1.
         21    1    1    2  503  501 -0.40625542415E+00  0.21752979774E+02  0.92517714800E+01  0.23642175197E+02  0.00000000000E+00 0.  1.
          1    1    1    2  501    0  0.40625542415E+00 -0.21752979774E+02  0.13161433179E+03  0.13340048540E+03  0.00000000000E+00 0. -1.
<mgrwt>
<rscale>  2 0.21756773E+02</rscale>
<asrwt>0</asrwt>
<pdfrwt beam="2">  1       21 0.12443507E-02 0.21756773E+02</pdfrwt>
<pdfrwt beam="1">  1        1 0.22916057E-01 0.21756773E+02</pdfrwt>
<totfact> 0.41246370E+06</totfact>
</mgrwt>
</event>
<event>
 4    1  0.2260076E+006  0.3430164E+02  0.7546771E-02  0.1554891E+00
          2   -1    0    0  503    0 -0.00000000000E+00  0.00000000000E+00  0.12057177275E+04  0.12057177275E+04  0.00000000000E+00 0.  1.
         21   -1    0    0  501  502  0.00000000000E+00 -0.00000000000E+00 -0.13203090222E+01  0.13203090222E+01  0.00000000000E+00 0. -1.
         21    1    1    2  503  502  0.24151486568E+02  0.24357920334E+02  0.29393641329E+03  0.29593110286E+03  0.00000000000E+00 0. -1.
          2    1    1    2  501    0 -0.24151486568E+02 -0.24357920334E+02  0.91046100516E+03  0.91110693362E+03  0.00000000000E+00 0.  1.
<mgrwt>
<rscale>  2 0.34301641E+02</rscale>
<asrwt>0</asrwt>
<pdfrwt beam="2">  1       21 0.20312543E-03 0.34301641E+02</pdfrwt>
<pdfrwt beam="1">  1        2 0.18549415E+00 0.34301641E+02</pdfrwt>
<totfact> 0.89819956E+06</totfact>
</mgrwt>
</event>
<event>
 4    1  0.2260076E+006  0.2614366E+02  0.7546771E-02  0.1645098E+00
          4   -1    0    0  503    0 -0.00000000000E+00  0.00000000000E+00  0.45998992506E+02  0.45998992506E+02  0.00000000000E+00 0.  1.
         21   -1    0    0  501  502  0.00000000000E+00 -0.00000000000E+00 -0.35878136592E+02  0.35878136592E+02  0.00000000000E+00 0. -1.
         21    1    1    2  503  502  0.13306221755E+02 -0.22504122738E+02 -0.26274369613E+02  0.37065261042E+02  0.00000000000E+00 0. -1.
          4    1    1    2  501    0 -0.13306221755E+02  0.22504122738E+02  0.36395225526E+02  0.44811868056E+02  0.00000000000E+00 0.  1.
<mgrwt>
<rscale>  2 0.26143662E+02</rscale>
<asrwt>0</asrwt>
<pdfrwt beam="2">  1       21 0.55197133E-02 0.26143662E+02</pdfrwt>
<pdfrwt beam="1">  1        4 0.70767681E-02 0.26143662E+02</pdfrwt>
<totfact> 0.77687712E+05</totfact>
</mgrwt>
</event>
<event>
 4    1  0.2260076E+006  0.4810448E+02  0.7546771E-02  0.1455842E+00
          1   -1    0    0  503    0 -0.00000000000E+00  0.00000000000E+00  0.36996482946E+03  0.36996482946E+03  0.00000000000E+00 0. -1.
         21   -1    0    0  501  502  0.00000000000E+00 -0.00000000000E+00 -0.86348288400E+01  0.86348288400E+01  0.00000000000E+00 0. -1.
         21    1    1    2  503  502  0.22656970649E+01  0.48051098154E+02  0.81280635768E+02  0.94448838891E+02  0.00000000000E+00 0. -1.
          1    1    1    2  501    0 -0.22656970649E+01 -0.48051098154E+02  0.28004936485E+03  0.28415081941E+03  0.00000000000E+00 0. -1.
<mgrwt>
<rscale>  2 0.48104484E+02</rscale>
<asrwt>0</asrwt>
<pdfrwt beam="2">  1       21 0.13284355E-02 0.48104484E+02</pdfrwt>
<pdfrwt beam="1">  1        1 0.56917654E-01 0.48104484E+02</pdfrwt>
<totfact> 0.15015739E+06</totfact>
</mgrwt>
</event>
<event>
 4    1  0.2260076E+006  0.2383984E+02  0.7546771E-02  0.1678247E+00
          4   -1    0    0  503    0 -0.00000000000E+00  0.00000000000E+00  0.16772198383E+02  0.16772198383E+02  0.00000000000E+00 0. -1.
         21   -1    0    0  501  502  0.00000000000E+00 -0.00000000000E+00 -0.34097632619E+02  0.34097632619E+02  0.00000000000E+00 0. -1.
         21    1    1    2  503  502  0.13236074529E+02 -0.19827870051E+02 -0.10667842870E+02  0.26117828608E+02  0.00000000000E+00 0. -1.
          4    1    1    2  501    0 -0.13236074529E+02  0.19827870051E+02 -0.66575913665E+01  0.24752002394E+02  0.00000000000E+00 0. -1.
<mgrwt>
<rscale>  2 0.23839843E+02</rscale>
<asrwt>0</asrwt>
<pdfrwt beam="2">  1       21 0.52457896E-02 0.23839843E+02</pdfrwt>
<pdfrwt beam="1">  1        4 0.25803382E-02 0.23839843E+02</pdfrwt>
<totfact> 0.37860208E+06</totfact>
</mgrwt>
</event>
<event>
 4    1  0.2260076E+006  0.4574226E+02  0.7546771E-02  0.1469760E+00
          1   -1    0    0  503    0 -0.00000000000E+00  0.00000000000E+00  0.26503587447E+03  0.26503587447E+03  0.00000000000E+00 0.  1.
         21   -1    0    0  501  502  0.00000000000E+00 -0.00000000000E+00 -0.17756269818E+02  0.17756269818E+02  0.00000000000E+00 0. -1.
         21    1    1    2  503  502  0.30497441786E+01  0.45640478067E+02  0.18265055751E+02  0.49254100736E+02  0.00000000000E+00 0. -1.
          1    1    1    2  501    0 -0.30497441786E+01 -0.45640478067E+02  0.22901454890E+03  0.23353804355E+03  0.00000000000E+00 0.  1.
<mgrwt>
<rscale>  2 0.45742258E+02</rscale>
<asrwt>0</asrwt>
<pdfrwt beam="2">  1       21 0.27317340E-02 0.45742258E+02</pdfrwt>
<pdfrwt beam="1">  1        1 0.40774747E-01 0.45742258E+02</pdfrwt>
<totfact> 0.71631286E+05</totfact>
</mgrwt>
</event>
<event>
 4    1  0.2260076E+006  0.2218275E+02  0.7546771E-02  0.1705110E+00
          1   -1    0    0  502    0 -0.00000000000E+00  0.00000000000E+00  0.27379458392E+02  0.27379458392E+02  0.00000000000E+00 0.  1.
         21   -1    0    0  503  502  0.00000000000E+00 -0.00000000000E+00 -0.11960211323E+03  0.11960211323E+03  0.00000000000E+00 0.  1.
         21    1    1    2  503  501  0.61804864032E+01 -0.21304363742E+02 -0.11385579505E+03  0.11599662233E+03  0.00000000000E+00 0.  1.
          1    1    1    2  501    0 -0.61804864032E+01  0.21304363742E+02  0.21633140215E+02  0.30984949285E+02  0.00000000000E+00 0.  1.
<mgrwt>
<rscale>  2 0.22182748E+02</rscale>
<asrwt>0</asrwt>
<pdfrwt beam="2">  1       21 0.18400325E-01 0.22182748E+02</pdfrwt>
<pdfrwt beam="1">  1        1 0.42122244E-02 0.22182748E+02</pdfrwt>
<totfact> 0.45828325E+05</totfact>
</mgrwt>
</event>
<event>
 4    1  0.2260076E+006  0.2051879E+02  0.7546771E-02  0.1735204E+00
          1   -1    0    0  502    0 -0.00000000000E+00  0.00000000000E+00  0.16513005253E+01  0.16513005253E+01  0.00000000000E+00 0. -1.
         21   -1    0    0  503  502  0.00000000000E+00 -0.00000000000E+00 -0.43422548488E+03  0.43422548488E+03  0.00000000000E+00 0.  1.
         21    1    1    2  503  501  0.36445570582E+01  0.20192527110E+02 -0.35631690025E+03  0.35690720692E+03  0.00000000000E+00 0.  1.
          1    1    1    2  501    0 -0.36445570582E+01 -0.20192527110E+02 -0.76257284108E+02  0.78969578489E+02  0.00000000000E+00 0. -1.
<mgrwt>
<rscale>  2 0.20518795E+02</rscale>
<asrwt>0</asrwt>
<pdfrwt beam="2">  1       21 0.66803881E-01 0.20518795E+02</pdfrwt>
<pdfrwt beam="1">  1        1 0.25404639E-03 0.20518795E+02</pdfrwt>
<totfact> 0.16320152E+06</totfact>
</mgrwt>
</event>
<event>
 4    1  0.2260076E+006  0.2087397E+02  0.7546771E-02  0.1728487E+00
          2   -1    0    0  503    0 -0.00000000000E+00  0.00000000000E+00  0.60080369396E+03  0.60080369396E+03  0.00000000000E+00 0.  1.
         21   -1    0    0  501  502  0.00000000000E+00 -0.00000000000E+00 -0.14778217205E+02  0.14778217205E+02  0.00000000000E+00 0. -1.
         21    1    1    2  503  502  0.13292852849E+02  0.16094176563E+02 -0.71308812866E+01  0.22058375372E+02  0.00000000000E+00 0. -1.
          2    1    1    2  501    0 -0.13292852849E+02 -0.16094176563E+02  0.59315635804E+03  0.59352353579E+03  0.00000000000E+00 0.  1.
<mgrwt>
<rscale>  2 0.20873966E+02</rscale>
<asrwt>0</asrwt>
<pdfrwt beam="2">  1       21 0.22735724E-02 0.20873966E+02</pdfrwt>
<pdfrwt beam="1">  1        2 0.92431318E-01 0.20873966E+02</pdfrwt>
<totfact> 0.50741194E+05</totfact>
</mgrwt>
</event>
<event>
 4    1  0.2260076E+006  0.2495249E+02  0.7546771E-02  0.1661685E+00
          1   -1    0    0  503    0 -0.00000000000E+00  0.00000000000E+00  0.59544460273E+03  0.59544460273E+03  0.00000000000E+00 0. -1.
         21   -1    0    0  501  502  0.00000000000E+00 -0.00000000000E+00 -0.15682505852E+01  0.15682505852E+01  0.00000000000E+00 0. -1.
         21    1    1    2  503  502 -0.67068440006E+01  0.24034249310E+02  0.12462014262E+03  0.12709369316E+03  0.00000000000E+00 0. -1.
          1    1    1    2  501    0  0.67068440006E+01 -0.24034249310E+02  0.46925620953E+03  0.46991916016E+03  0.00000000000E+00 0. -1.
<mgrwt>
<rscale>  2 0.24952493E+02</rscale>
<asrwt>0</asrwt>
<pdfrwt beam="2">  1       21 0.24126980E-03 0.24952493E+02</pdfrwt>
<pdfrwt beam="1">  1        1 0.91606681E-01 0.24952493E+02</pdfrwt>
<totfact> 0.95212461E+06</totfact>
</mgrwt>
</event>
<event>
 4    1  0.2260076E+006  0.2195830E+02  0.7546771E-02  0.1708974E+00
         21   -1    0    0  503  502  0.00000000000E+00  0.00000000000E+00  0.16777604121E+04  0.16777604121E+04  0.00000000000E+00 0. -1.
          2   -1    0    0  502    0 -0.00000000000E+00 -0.00000000000E+00 -0.13938608875E+01  0.13938608875E+01  0.00000000000E+00 0. -1.
         21    1    1    2  503  501  0.14679672086E+02  0.16330164930E+02  0.15862173999E+04  0.15863693791E+04  0.00000000000E+00 0. -1.
          2    1    1    2  501    0 -0.14679672086E+02 -0.16330164930E+02  0.90149151235E+02  0.92784893854E+02  0.00000000000E+00 0. -1.
<mgrwt>
<rscale>  2 0.21958303E+02</rscale>
<asrwt>0</asrwt>
<pdfrwt beam="1">  1       21 0.25811537E+00 0.21958303E+02</pdfrwt>
<pdfrwt beam="2">  1        2 0.21444148E-03 0.21958303E+02</pdfrwt>
<totfact> 0.87875345E+04</totfact>
</mgrwt>
</event>
<event>
 4    1  0.2260076E+006  0.2248465E+02  0.7546771E-02  0.1700003E+00
         21   -1    0    0  501  502  0.00000000000E+00  0.00000000000E+00  0.47724464309E+01  0.47724464309E+01  0.00000000000E+00 0. -1.
          3   -1    0    0  503    0 -0.00000000000E+00 -0.00000000000E+00 -0.15240950022E+03  0.15240950022E+03  0.00000000000E+00 0. -1.
         21    1    1    2  503  502  0.28893351240E+01 -0.22298230343E+02 -0.30419140870E+02  0.37827020305E+02  0.00000000000E+00 0. -1.
          3    1    1    2  501    0 -0.28893351240E+01  0.22298230343E+02 -0.11721791292E+03  0.11935492635E+03  0.00000000000E+00 0. -1.
<mgrwt>
<rscale>  2 0.22484647E+02</rscale>
<asrwt>0</asrwt>
<pdfrwt beam="1">  1       21 0.73422259E-03 0.22484647E+02</pdfrwt>
<pdfrwt beam="2">  1        3 0.23447613E-01 0.22484647E+02</pdfrwt>
<totfact> 0.28521857E+06</totfact>
</mgrwt>
</event>
<event>
 4    1  0.2260076E+006  0.2042429E+02  0.7546771E-02  0.1737020E+00
         21   -1    0    0  503  502  0.00000000000E+00  0.00000000000E+00  0.49326035096E+02  0.49326035096E+02  0.00000000000E+00 0. -1.
          3   -1    0    0  502    0 -0.00000000000E+00 -0.00000000000E+00 -0.88974995373E+02  0.88974995373E+02  0.00000000000E+00 0.  1.
         21    1    1    2  503  501 -0.15216812089E+02 -0.13623513741E+02  0.45957636530E+02  0.50291707589E+02  0.00000000000E+00 0. -1.
          3    1    1    2  501    0  0.15216812089E+02  0.13623513741E+02 -0.85606596807E+02  0.88009322880E+02  0.00000000000E+00 0.  1.
<mgrwt>
<rscale>  2 0.20424287E+02</rscale>
<asrwt>0</asrwt>
<pdfrwt beam="1">  1       21 0.75886209E-02 0.20424287E+02</pdfrwt>
<pdfrwt beam="2">  1        3 0.13688461E-01 0.20424287E+02</pdfrwt>
<totfact> 0.18230084E+05</totfact>
</mgrwt>
</event>
<event>
 4    1  0.2260076E+006  0.4624625E+02  0.7546771E-02  0.1466708E+00
          2   -1    0    0  502    0 -0.00000000000E+00  0.00000000000E+00  0.16916894300E+04  0.16916894300E+04  0.00000000000E+00 0. -1.
         21   -1    0    0  503  502  0.00000000000E+00 -0.00000000000E+00 -0.11508601321E+02  0.11508601321E+02  0.00000000000E+00 0.  1.
         21    1    1    2  503  501  0.41316050170E+02  0.20777390135E+02  0.36626936666E+02  0.58993630436E+02  0.00000000000E+00 0.  1.
          2    1    1    2  501    0 -0.41316050170E+02 -0.20777390135E+02  0.16435538920E+04  0.16442044009E+04  0.00000000000E+00 0. -1.
<mgrwt>
<rscale>  2 0.46246253E+02</rscale>
<asrwt>0</asrwt>
<pdfrwt beam="2">  1       21 0.17705554E-02 0.46246253E+02</pdfrwt>
<pdfrwt beam="1">  1        2 0.26025971E+00 0.46246253E+02</pdfrwt>
<totfact> 0.20362887E+05</totfact>
</mgrwt>
</event>
<event>
 4    1  0.2260076E+006  0.3169556E+02  0.7546771E-02  0.1580069E+00
         21   -1    0    0  501  502  0.00000000000E+00  0.00000000000E+00  0.55880676999E+03  0.55880676999E+03  0.00000000000E+00 0.  1.
          3   -1    0    0  503    0 -0.00000000000E+00 -0.00000000000E+00 -0.35446545291E+01  0.35446545291E+01  0.00000000000E+00 0. -1.
         21    1    1    2  503  502  0.79042584990E+01  0.30694152074E+02  0.47501983226E+03  0.47607609614E+03  0.00000000000E+00 0.  1.
          3    1    1    2  501    0 -0.79042584990E+01 -0.30694152074E+02  0.80242283205E+02  0.86275328385E+02  0.00000000000E+00 0. -1.
<mgrwt>
<rscale>  2 0.31695556E+02</rscale>
<asrwt>0</asrwt>
<pdfrwt beam="1">  1       21 0.85970203E-01 0.31695556E+02</pdfrwt>
<pdfrwt beam="2">  1        3 0.54533191E-03 0.31695556E+02</pdfrwt>
<totfact> 0.29481242E+05</totfact>
</mgrwt>
</event>
<event>
 4    1  0.2260076E+006  0.2195708E+02  0.7546771E-02  0.1708995E+00
          1   -1    0    0  503    0 -0.00000000000E+00  0.00000000000E+00  0.11590196329E+03  0.11590196329E+03  0.00000000000E+00 0. -1.
         21   -1    0    0  501  502  0.00000000000E+00 -0.00000000000E+00 -0.83671486493E+01  0.83671486493E+01  0.00000000000E+00 0. -1.
         21    1    1    2  503  502  0.90927836565E+01  0.19985857274E+02  0.97062667504E+01  0.24006766126E+02  0.00000000000E+00 0. -1.
          1    1    1    2  501    0 -0.90927836565E+01 -0.19985857274E+02  0.97828547889E+02  0.10026234581E+03  0.00000000000E+00 0. -1.
<mgrwt>
<rscale>  2 0.21957076E+02</rscale>
<asrwt>0</asrwt>
<pdfrwt beam="2">  1       21 0.12872537E-02 0.21957076E+02</pdfrwt>
<pdfrwt beam="1">  1        1 0.17831070E-01 0.21957076E+02</pdfrwt>
<totfact> 0.52921649E+06</totfact>
</mgrwt>
</event>
<event>
 4    1  0.2260076E+006  0.2884643E+02  0.7546771E-02  0.1611201E+00
         21   -1    0    0  501  502  0.00000000000E+00  0.00000000000E+00  0.11506331417E+02  0.11506331417E+02  0.00000000000E+00 0.  1.
          1   -1    0    0  503    0 -0.00000000000E+00 -0.00000000000E+00 -0.19708009974E+03  0.19708009974E+03  0.00000000000E+00 0. -1.
         21    1    1    2  503  502  0.20842060948E+02 -0.19943043393E+02 -0.98064380231E+01  0.30467732292E+02  0.00000000000E+00 0.  1.
          1    1    1    2  501    0 -0.20842060948E+02  0.19943043393E+02 -0.17576733030E+03  0.17811869886E+03  0.00000000000E+00 0. -1.
<mgrwt>
<rscale>  2 0.28846429E+02</rscale>
<asrwt>0</asrwt>
<pdfrwt beam="1">  1       21 0.17702052E-02 0.28846429E+02</pdfrwt>
<pdfrwt beam="2">  1        1 0.30320010E-01 0.28846429E+02</pdfrwt>
<totfact> 0.18538764E+06</totfact>
</mgrwt>
</event>
<event>
 4    1  0.2260076E+006  0.2278900E+02  0.7546771E-02  0.1694953E+00
         21   -1    0    0  501  502  0.00000000000E+00  0.00000000000E+00  0.60275974309E+02  0.60275974309E+02  0.00000000000E+00 0.  1.
          1   -1    0    0  503    0 -0.00000000000E+00 -0.00000000000E+00 -0.30685029647E+02  0.30685029647E+02  0.00000000000E+00 0. -1.
         21    1    1    2  503  502  0.20916863168E+02 -0.90456365934E+01  0.53365810453E+02  0.58027996963E+02  0.00000000000E+00 0.  1.
          1    1    1    2  501    0 -0.20916863168E+02  0.90456365934E+01 -0.23774865792E+02  0.32933006993E+02  0.00000000000E+00 0. -1.
<mgrwt>
<rscale>  2 0.22789004E+02</rscale>
<asrwt>0</asrwt>
<pdfrwt beam="1">  1       21 0.92732268E-02 0.22789004E+02</pdfrwt>
<pdfrwt beam="2">  1        1 0.47207738E-02 0.22789004E+02</pdfrwt>
<totfact> 0.12624238E+06</totfact>
</mgrwt>
</event>
<event>
 4    1  0.2260076E+006  0.2303891E+02  0.7546771E-02  0.1690880E+00
         -2   -1    0    0    0  501 -0.00000000000E+00  0.00000000000E+00  0.14909841937E+02  0.14909841937E+02  0.00000000000E+00 0.  1.
         21   -1    0    0  501  502  0.00000000000E+00 -0.00000000000E+00 -0.98698969791E+02  0.98698969791E+02  0.00000000000E+00 0. -1.
         21    1    1    2  503  502 -0.57191198783E+01  0.22317774336E+02 -0.87313464054E+02  0.90301895819E+02  0.00000000000E+00 0. -1.
         -2    1    1    2    0  503  0.57191198783E+01 -0.22317774336E+02  0.35243361999E+01  0.23306915908E+02  0.00000000000E+00 0.  1.
<mgrwt>
<rscale>  2 0.23038910E+02</rscale>
<asrwt>0</asrwt>
<pdfrwt beam="2">  1       21 0.15184457E-01 0.23038910E+02</pdfrwt>
<pdfrwt beam="1">  1       -2 0.22938219E-02 0.23038910E+02</pdfrwt>
<totfact> 0.13129772E+06</totfact>
</mgrwt>
</event>
<event>
 4    1  0.2260076E+006  0.2138373E+02  0.7546771E-02  0.1719133E+00
          2   -1    0    0  502    0 -0.00000000000E+00  0.00000000000E+00  0.72420462070E+03  0.72420462070E+03  0.00000000000E+00 0.  1.
         21   -1    0    0  503  502  0.00000000000E+00 -0.00000000000E+00 -0.90655445931E+00  0.90655445931E+00  0.00000000000E+00 0. -1.
         21    1    1    2  503  501  0.19930808280E+02  0.77476952896E+01  0.16190917881E+03  0.16331517408E+03  0.00000000000E+00 0. -1.
          2    1    1    2  501    0 -0.19930808280E+02 -0.77476952896E+01  0.56138888743E+03  0.56179600108E+03  0.00000000000E+00 0.  1.
<mgrwt>
<rscale>  2 0.21383730E+02</rscale>
<asrwt>0</asrwt>
<pdfrwt beam="2">  1       21 0.13947050E-03 0.21383730E+02</pdfrwt>
<pdfrwt beam="1">  1        2 0.11141563E+00 0.21383730E+02</pdfrwt>
<totfact> 0.25849527E+07</totfact>
</mgrwt>
</event>
<event>
 4    1  0.2260076E+006  0.2045187E+02  0.7546771E-02  0.1736489E+00
          2   -1    0    0  502    0 -0.00000000000E+00  0.00000000000E+00  0.33200408529E+03  0.33200408529E+03  0.00000000000E+00 0. -1.
         21   -1    0    0  503  502  0.00000000000E+00 -0.00000000000E+00 -0.75970031767E+01  0.75970031767E+01  0.00000000000E+00 0.  1.
         21    1    1    2  503  501  0.19369734732E+02  0.65644697299E+01  0.71203741929E+01  0.21655914090E+02  0.00000000000E+00 0.  1.
          2    1    1    2  501    0 -0.19369734732E+02 -0.65644697299E+01  0.31728670792E+03  0.31794517438E+03  0.00000000000E+00 0. -1.
<mgrwt>
<rscale>  2 0.20451868E+02</rscale>
<asrwt>0</asrwt>
<pdfrwt beam="2">  1       21 0.11687700E-02 0.20451868E+02</pdfrwt>
<pdfrwt beam="1">  1        2 0.51077540E-01 0.20451868E+02</pdfrwt>
<totfact> 0.25062321E+06</totfact>
</mgrwt>
</event>
<event>
 4    1  0.2260076E+006  0.2549009E+02  0.7546771E-02  0.1654061E+00
          2   -1    0    0  503    0 -0.00000000000E+00  0.00000000000E+00  0.39563061611E+03  0.39563061611E+03  0.00000000000E+00 0.  1.
         21   -1    0    0  501  502  0.00000000000E+00 -0.00000000000E+00 -0.36995329297E+01  0.36995329297E+01  0.00000000000E+00 0.  1.
         21    1    1    2  503  502  0.11483300135E+02 -0.22756948553E+02  0.47073942174E+02  0.53532241885E+02  0.00000000000E+00 0.  1.
          2    1    1    2  501    0 -0.11483300135E+02  0.22756948553E+02  0.34485714101E+03  0.34579790715E+03  0.00000000000E+00 0.  1.
<mgrwt>
<rscale>  2 0.25490094E+02</rscale>
<asrwt>0</asrwt>
<pdfrwt beam="2">  1       21 0.56915923E-03 0.25490094E+02</pdfrwt>
<pdfrwt beam="1">  1        2 0.60866215E-01 0.25490094E+02</pdfrwt>
<totfact> 0.65160637E+06</totfact>
</mgrwt>
</event>
<event>
 4    1  0.2260076E+006  0.2316156E+02  0.7546771E-02  0.1688905E+00
          3   -1    0    0  502    0 -0.00000000000E+00  0.00000000000E+00  0.43919823182E+03  0.43919823182E+03  0.00000000000E+00 0. -1.
         21   -1    0    0  503  502  0.00000000000E+00 -0.00000000000E+00 -0.52857390985E+01  0.52857390985E+01  0.00000000000E+00 0. -1.
         21    1    1    2  503  501  0.85933282739E+01  0.21508433728E+02  0.22076985235E+02  0.31997676311E+02  0.00000000000E+00 0. -1.
          3    1    1    2  501    0 -0.85933282739E+01 -0.21508433728E+02  0.41183550748E+03  0.41248629460E+03  0.00000000000E+00 0. -1.
<mgrwt>
<rscale>  2 0.23161563E+02</rscale>
<asrwt>0</asrwt>
<pdfrwt beam="2">  1       21 0.81319098E-03 0.23161563E+02</pdfrwt>
<pdfrwt beam="1">  1        3 0.67568930E-01 0.23161563E+02</pdfrwt>
<totfact> 0.35282340E+05</totfact>
</mgrwt>
</event>
<event>
 4    1  0.2260076E+006  0.2807748E+02  0.7546771E-02  0.1620366E+00
         21   -1    0    0  503  502  0.00000000000E+00  0.00000000000E+00  0.19731480971E+01  0.19731480971E+01  0.00000000000E+00 0.  1.
         -4   -1    0    0    0  501 -0.00000000000E+00 -0.00000000000E+00 -0.45279698403E+03  0.45279698403E+03  0.00000000000E+00 0. -1.
         21    1    1    2  503  501  0.16951259388E+01 -0.28026263099E+02 -0.14742669176E+03  0.15007656152E+03  0.00000000000E+00 0.  1.
         -4    1    1    2    0  502 -0.16951259388E+01  0.28026263099E+02 -0.30339714418E+03  0.30469357061E+03  0.00000000000E+00 0. -1.
<mgrwt>
<rscale>  2 0.28077480E+02</rscale>
<asrwt>0</asrwt>
<pdfrwt beam="1">  1       21 0.30356086E-03 0.28077480E+02</pdfrwt>
<pdfrwt beam="2">  1       -4 0.69661164E-01 0.28077480E+02</pdfrwt>
<totfact> 0.11649807E+06</totfact>
</mgrwt>
</event>
<event>
 4    1  0.2260076E+006  0.2717051E+02  0.7546771E-02  0.1631651E+00
         21   -1    0    0  501  502  0.00000000000E+00  0.00000000000E+00  0.42921932064E+01  0.42921932064E+01  0.00000000000E+00 0.  1.
          2   -1    0    0  503    0 -0.00000000000E+00 -0.00000000000E+00 -0.54914458690E+03  0.54914458690E+03  0.00000000000E+00 0.  1.
         21    1    1    2  503  502  0.17236285276E+02 -0.21003505607E+02 -0.43101223421E+02  0.50950488107E+02  0.00000000000E+00 0.  1.
          2    1    1    2  501    0 -0.17236285276E+02  0.21003505607E+02 -0.50175117027E+03  0.50248629200E+03  0.00000000000E+00 0.  1.
<mgrwt>
<rscale>  2 0.27170513E+02</rscale>
<asrwt>0</asrwt>
<pdfrwt beam="1">  1       21 0.66033746E-03 0.27170513E+02</pdfrwt>
<pdfrwt beam="2">  1        2 0.84483777E-01 0.27170513E+02</pdfrwt>
<totfact> 0.38045625E+06</totfact>
</mgrwt>
</event>
<event>
 4    1  0.2260076E+006  0.2122912E+02  0.7546771E-02  0.1721935E+00
         21   -1    0    0  503  502  0.00000000000E+00  0.00000000000E+00  0.70720618840E+00  0.70720618840E+00  0.00000000000E+00 0.  1.
          1   -1    0    0  502    0 -0.00000000000E+00 -0.00000000000E+00 -0.16481947482E+04  0.16481947482E+04  0.00000000000E+00 0. -1.
         21    1    1    2  503  501  0.64523263696E+01 -0.20224813639E+02 -0.17805725776E+03  0.17931832768E+03  0.00000000000E+00 0.  1.
          1    1    1    2  501    0 -0.64523263696E+01  0.20224813639E+02 -0.14694302843E+04  0.14695836268E+04  0.00000000000E+00 0. -1.
<mgrwt>
<rscale>  2 0.21229122E+02</rscale>
<asrwt>0</asrwt>
<pdfrwt beam="1">  1       21 0.10880153E-03 0.21229122E+02</pdfrwt>
<pdfrwt beam="2">  1        1 0.25356708E+00 0.21229122E+02</pdfrwt>
<totfact> 0.56066679E+06</totfact>
</mgrwt>
</event>
<event>
 4    1  0.2260076E+006  0.2298567E+02  0.7546771E-02  0.1691743E+00
         21   -1    0    0  501  502  0.00000000000E+00  0.00000000000E+00  0.83569459799E+00  0.83569459799E+00  0.00000000000E+00 0. -1.
          1   -1    0    0  503    0 -0.00000000000E+00 -0.00000000000E+00 -0.67886031081E+03  0.67886031081E+03  0.00000000000E+00 0. -1.
         21    1    1    2  503  502 -0.55340486732E+01  0.22309534578E+02 -0.24993125978E+03  0.25098600687E+03  0.00000000000E+00 0. -1.
          1    1    1    2  501    0  0.55340486732E+01 -0.22309534578E+02 -0.42809335643E+03  0.42870999854E+03  0.00000000000E+00 0. -1.
<mgrwt>
<rscale>  2 0.22985670E+02</rscale>
<asrwt>0</asrwt>
<pdfrwt beam="1">  1       21 0.12856934E-03 0.22985670E+02</pdfrwt>
<pdfrwt beam="2">  1        1 0.10443928E+00 0.22985670E+02</pdfrwt>
<totfact> 0.19520080E+07</totfact>
</mgrwt>
</event>
<event>
 4    1  0.2260076E+006  0.3102682E+02  0.7546771E-02  0.1587008E+00
         21   -1    0    0  503  502  0.00000000000E+00  0.00000000000E+00  0.56305282106E+03  0.56305282106E+03  0.00000000000E+00 0. -1.
         -4   -1    0    0    0  501 -0.00000000000E+00 -0.00000000000E+00 -0.23516601237E+01  0.23516601237E+01  0.00000000000E+00 0.  1.
         21    1    1    2  503  501 -0.18095306550E+02 -0.25203642828E+02  0.42805333546E+03  0.42917632942E+03  0.00000000000E+00 0. -1.
         -4    1    1    2    0  502  0.18095306550E+02  0.25203642828E+02  0.13264782547E+03  0.13622815177E+03  0.00000000000E+00 0.  1.
<mgrwt>
<rscale>  2 0.31026823E+02</rscale>
<asrwt>0</asrwt>
<pdfrwt beam="1">  1       21 0.86623403E-01 0.31026823E+02</pdfrwt>
<pdfrwt beam="2">  1       -4 0.36179431E-03 0.31026823E+02</pdfrwt>
<totfact> 0.45786388E+05</totfact>
</mgrwt>
</event>
<event>
 4    1  0.2260076E+006  0.2233793E+02  0.7546771E-02  0.1702472E+00
         -3   -1    0    0    0  501 -0.00000000000E+00  0.00000000000E+00  0.15228138189E+03  0.15228138189E+03  0.00000000000E+00 0. -1.
         21   -1    0    0  503  502  0.00000000000E+00 -0.00000000000E+00 -0.41555800174E+01  0.41555800174E+01  0.00000000000E+00 0. -1.
         21    1    1    2  503  501  0.22318244008E+02  0.93765999977E+00  0.38091796194E+02  0.44158443803E+02  0.00000000000E+00 0. -1.
         -3    1    1    2    0  502 -0.22318244008E+02 -0.93765999977E+00  0.11003400567E+03  0.11227851810E+03  0.00000000000E+00 0. -1.
<mgrwt>
<rscale>  2 0.22337932E+02</rscale>
<asrwt>0</asrwt>
<pdfrwt beam="2">  1       21 0.63932012E-03 0.22337932E+02</pdfrwt>
<pdfrwt beam="1">  1       -3 0.23427901E-01 0.22337932E+02</pdfrwt>
<totfact> 0.34994492E+06</totfact>
</mgrwt>
</event>
<event>
 4    1  0.2260076E+006  0.3066373E+02  0.7546771E-02  0.1590866E+00
         -2   -1    0    0    0  501 -0.00000000000E+00  0.00000000000E+00  0.15649570062E+03  0.15649570062E+03  0.00000000000E+00 0. -1.
         21   -1    0    0  501  502  0.00000000000E+00 -0.00000000000E+00 -0.40642903801E+02  0.40642903801E+02  0.00000000000E+00 0. -1.
         21    1    1    2  503  502  0.28130534202E+02 -0.12203983978E+02 -0.33065931923E+02  0.45095676437E+02  0.00000000000E+00 0. -1.
         -2    1    1    2    0  503 -0.28130534202E+02  0.12203983978E+02  0.14891872875E+03  0.15204292799E+03  0.00000000000E+00 0. -1.
<mgrwt>
<rscale>  2 0.30663727E+02</rscale>
<asrwt>0</asrwt>
<pdfrwt beam="2">  1       21 0.62527545E-02 0.30663727E+02</pdfrwt>
<pdfrwt beam="1">  1       -2 0.24076261E-01 0.30663727E+02</pdfrwt>
<totfact> 0.18583594E+05</totfact>
</mgrwt>
</event>
<event>
 4    1  0.2260076E+006  0.2084657E+02  0.7546771E-02  0.1728999E+00
          1   -1    0    0  502    0 -0.00000000000E+00  0.00000000000E+00  0.22791116908E+03  0.22791116908E+03  0.00000000000E+00 0. -1.
         21   -1    0    0  503  502  0.00000000000E+00 -0.00000000000E+00 -0.79025137558E+02  0.79025137558E+02  0.00000000000E+00 0.  1.
         21    1    1    2  503  501  0.20552945135E+02 -0.34865068025E+01 -0.77162320462E+02  0.79928736900E+02  0.00000000000E+00 0.  1.
          1    1    1    2  501    0 -0.20552945135E+02  0.34865068025E+01  0.22604835198E+03  0.22700756974E+03  0.00000000000E+00 0. -1.
<mgrwt>
<rscale>  2 0.20846565E+02</rscale>
<asrwt>0</asrwt>
<pdfrwt beam="2">  1       21 0.12157714E-01 0.20846565E+02</pdfrwt>
<pdfrwt beam="1">  1        1 0.35063256E-01 0.20846565E+02</pdfrwt>
<totfact> 0.68783812E+04</totfact>
</mgrwt>
</event>
<event>
 4    1  0.2260076E+006  0.3868717E+02  0.7546771E-02  0.1518101E+00
         21   -1    0    0  503  502  0.00000000000E+00  0.00000000000E+00  0.11607088777E+03  0.11607088777E+03  0.00000000000E+00 0. -1.
          4   -1    0    0  502    0 -0.00000000000E+00 -0.00000000000E+00 -0.78178582497E+02  0.78178582497E+02  0.00000000000E+00 0. -1.
         21    1    1    2  503  501 -0.95074941915E+01  0.37500726403E+02  0.10770037151E+03  0.11443804853E+03  0.00000000000E+00 0. -1.
          4    1    1    2  501    0  0.95074941915E+01 -0.37500726403E+02 -0.69808066245E+02  0.79811421735E+02  0.00000000000E+00 0. -1.
<mgrwt>
<rscale>  2 0.38687167E+02</rscale>
<asrwt>0</asrwt>
<pdfrwt beam="1">  1       21 0.17857060E-01 0.38687167E+02</pdfrwt>
<pdfrwt beam="2">  1        4 0.12027474E-01 0.38687167E+02</pdfrwt>
<totfact> 0.51747887E+04</totfact>
</mgrwt>
</event>
<event>
 4    1  0.2260076E+006  0.2942349E+02  0.7546771E-02  0.1604550E+00
         21   -1    0    0  503  502  0.00000000000E+00  0.00000000000E+00  0.12737428228E+01  0.12737428228E+01  0.00000000000E+00 0. -1.
          1   -1    0    0  502    0 -0.00000000000E+00 -0.00000000000E+00 -0.80457993459E+03  0.80457993459E+03  0.00000000000E+00 0. -1.
         21    1    1    2  503  501  0.19611351728E+02  0.21934829472E+02 -0.24290198212E+03  0.24467757310E+03  0.00000000000E+00 0. -1.
          1    1    1    2  501    0 -0.19611351728E+02 -0.21934829472E+02 -0.56040420966E+03  0.56117610432E+03  0.00000000000E+00 0. -1.
<mgrwt>
<rscale>  2 0.29423492E+02</rscale>
<asrwt>0</asrwt>
<pdfrwt beam="1">  1       21 0.19596029E-03 0.29423492E+02</pdfrwt>
<pdfrwt beam="2">  1        1 0.12378162E+00 0.29423492E+02</pdfrwt>
<totfact> 0.89932478E+06</totfact>
</mgrwt>
</event>
<event>
 4    1  0.2260076E+006  0.2196379E+02  0.7546771E-02  0.1708879E+00
          4   -1    0    0  503    0 -0.00000000000E+00  0.00000000000E+00  0.41547089255E+02  0.41547089255E+02  0.00000000000E+00 0. -1.
         21   -1    0    0  501  502  0.00000000000E+00 -0.00000000000E+00 -0.19076008689E+03  0.19076008689E+03  0.00000000000E+00 0. -1.
         21    1    1    2  503  502  0.80946905406E+01 -0.20417736594E+02 -0.18716959639E+03  0.18845388241E+03  0.00000000000E+00 0. -1.
          4    1    1    2  501    0 -0.80946905406E+01  0.20417736594E+02  0.37956598754E+02  0.43853293737E+02  0.00000000000E+00 0. -1.
<mgrwt>
<rscale>  2 0.21963788E+02</rscale>
<asrwt>0</asrwt>
<pdfrwt beam="2">  1       21 0.29347706E-01 0.21963788E+02</pdfrwt>
<pdfrwt beam="1">  1        4 0.63918599E-02 0.21963788E+02</pdfrwt>
<totfact> 0.50731122E+04</totfact>
</mgrwt>
</event>
<event>
 4    1  0.2260076E+006  0.2208860E+02  0.7546771E-02  0.1706724E+00
         21   -1    0    0  501  502  0.00000000000E+00  0.00000000000E+00  0.96156504554E+00  0.96156504554E+00  0.00000000000E+00 0.  1.
          1   -1    0    0  503    0 -0.00000000000E+00 -0.00000000000E+00 -0.59856060023E+03  0.59856060023E+03  0.00000000000E+00 0. -1.
         21    1    1    2  503  502 -0.12273837299E+02 -0.18364612546E+02 -0.18182129339E+03  0.18315809784E+03  0.00000000000E+00 0.  1.
          1    1    1    2  501    0  0.12273837299E+02  0.18364612546E+02 -0.41577774180E+03  0.41636406744E+03  0.00000000000E+00 0. -1.
<mgrwt>
<rscale>  2 0.22088596E+02</rscale>
<asrwt>0</asrwt>
<pdfrwt beam="1">  1       21 0.14793271E-03 0.22088596E+02</pdfrwt>
<pdfrwt beam="2">  1        1 0.92086476E-01 0.22088596E+02</pdfrwt>
<totfact> 0.18533821E+07</totfact>
</mgrwt>
</event>
<event>
 4    1  0.2260076E+006  0.2286601E+02  0.7546771E-02  0.1693691E+00
         21   -1    0    0  501  502  0.00000000000E+00  0.00000000000E+00  0.12308501776E+01  0.12308501776E+01  0.00000000000E+00 0. -1.
          1   -1    0    0  503    0 -0.00000000000E+00 -0.00000000000E+00 -0.62238569128E+03  0.62238569128E+03  0.00000000000E+00 0.  1.
         21    1    1    2  503  502 -0.71392508818E+01  0.21722926172E+02 -0.13488818329E+03  0.13681255942E+03  0.00000000000E+00 0. -1.
          1    1    1    2  501    0  0.71392508818E+01 -0.21722926172E+02 -0.48626665781E+03  0.48680398203E+03  0.00000000000E+00 0.  1.
<mgrwt>
<rscale>  2 0.22866010E+02</rscale>
<asrwt>0</asrwt>
<pdfrwt beam="1">  1       21 0.18936187E-03 0.22866010E+02</pdfrwt>
<pdfrwt beam="2">  1        1 0.95751492E-01 0.22866010E+02</pdfrwt>
<totfact> 0.12495733E+07</totfact>
</mgrwt>
</event>
<event>
 4    1  0.2260076E+006  0.2101911E+02  0.7546771E-02  0.1725790E+00
         -1   -1    0    0    0  501 -0.00000000000E+00  0.00000000000E+00  0.72284070337E+01  0.72284070337E+01  0.00000000000E+00 0.  1.
         21   -1    0    0  503  502  0.00000000000E+00 -0.00000000000E+00 -0.64935827255E+03  0.64935827255E+03  0.00000000000E+00 0.  1.
         21    1    1    2  503  501 -0.18969992943E+02  0.90522075506E+01 -0.63352633416E+03  0.63387492392E+03  0.00000000000E+00 0.  1.
         -1    1    1    2    0  502  0.18969992943E+02 -0.90522075506E+01 -0.86035313577E+01  0.22711755670E+02  0.00000000000E+00 0.  1.
<mgrwt>
<rscale>  2 0.21019113E+02</rscale>
<asrwt>0</asrwt>
<pdfrwt beam="2">  1       21 0.99901260E-01 0.21019113E+02</pdfrwt>
<pdfrwt beam="1">  1       -1 0.11120628E-02 0.21019113E+02</pdfrwt>
<totfact> 0.97790288E+04</totfact>
</mgrwt>
</event>
<event>
 4    1  0.2260076E+006  0.2069464E+02  0.7546771E-02  0.1731857E+00
         21   -1    0    0  503  502  0.00000000000E+00  0.00000000000E+00  0.65879511298E+03  0.65879511298E+03  0.00000000000E+00 0.  1.
          3   -1    0    0  502    0 -0.00000000000E+00 -0.00000000000E+00 -0.12638340319E+01  0.12638340319E+01  0.00000000000E+00 0.  1.
         21    1    1    2  503  501 -0.18105413413E+02 -0.10023079461E+02  0.55875388500E+03  0.55913698869E+03  0.00000000000E+00 0.  1.
          3    1    1    2  501    0  0.18105413413E+02  0.10023079461E+02  0.98777393954E+02  0.10092195833E+03  0.00000000000E+00 0.  1.
<mgrwt>
<rscale>  2 0.20694640E+02</rscale>
<asrwt>0</asrwt>
<pdfrwt beam="1">  1       21 0.10135282E+00 0.20694640E+02</pdfrwt>
<pdfrwt beam="2">  1        3 0.19443653E-03 0.20694640E+02</pdfrwt>
<totfact> 0.78688918E+05</totfact>
</mgrwt>
</event>
<event>
 4    1  0.2260076E+006  0.2400850E+02  0.7546771E-02  0.1675666E+00
         21   -1    0    0  501  502  0.00000000000E+00  0.00000000000E+00  0.50135241950E+00  0.50135241950E+00  0.00000000000E+00 0. -1.
          2   -1    0    0  503    0 -0.00000000000E+00 -0.00000000000E+00 -0.12228960975E+04  0.12228960975E+04  0.00000000000E+00 0. -1.
         21    1    1    2  503  502  0.11406008938E+02  0.21126070834E+02 -0.46155009623E+03  0.46217410057E+03  0.00000000000E+00 0. -1.
          2    1    1    2  501    0 -0.11406008938E+02 -0.21126070834E+02 -0.76084464885E+03  0.76122334934E+03  0.00000000000E+00 0. -1.
<mgrwt>
<rscale>  2 0.24008497E+02</rscale>
<asrwt>0</asrwt>
<pdfrwt beam="1">  1       21 0.77132118E-04 0.24008497E+02</pdfrwt>
<pdfrwt beam="2">  1        2 0.18813548E+00 0.24008497E+02</pdfrwt>
<totfact> 0.32725913E+07</totfact>
</mgrwt>
</event>
<event>
 4    1  0.2260076E+006  0.2019165E+02  0.7546771E-02  0.1741543E+00
         -1   -1    0    0    0  501 -0.00000000000E+00  0.00000000000E+00  0.36852211545E+02  0.36852211545E+02  0.00000000000E+00 0.  1.
         21   -1    0    0  503  502  0.00000000000E+00 -0.00000000000E+00 -0.14015339896E+02  0.14015339896E+02  0.00000000000E+00 0.  1.
         21    1    1    2  503  501 -0.77604434023E+01  0.18640772696E+02 -0.25445655506E+00  0.20193257207E+02  0.00000000000E+00 0.  1.
         -1    1    1    2    0  502  0.77604434023E+01 -0.18640772696E+02  0.23091328205E+02  0.30674294234E+02  0.00000000000E+00 0.  1.
<mgrwt>
<rscale>  2 0.20191654E+02</rscale>
<asrwt>0</asrwt>
<pdfrwt beam="2">  1       21 0.21562061E-02 0.20191654E+02</pdfrwt>
<pdfrwt beam="1">  1       -1 0.56695710E-02 0.20191654E+02</pdfrwt>
<totfact> 0.84152987E+06</totfact>
</mgrwt>
</event>
<event>
 4    1  0.2260076E+006  0.2851474E+02  0.7546771E-02  0.1615111E+00
         -1   -1    0    0    0  501 -0.00000000000E+00  0.00000000000E+00  0.12787517422E+04  0.12787517422E+04  0.00000000000E+00 0.  1.
         21   -1    0    0  503  502  0.00000000000E+00 -0.00000000000E+00 -0.23905850223E+01  0.23905850223E+01  0.00000000000E+00 0. -1.
         21    1    1    2  503  501  0.66606387561E+01 -0.27725917053E+02  0.89371334097E+02  0.93810052465E+02  0.00000000000E+00 0. -1.
         -1    1    1    2    0  502 -0.66606387561E+01  0.27725917053E+02  0.11869898230E+04  0.11873322747E+04  0.00000000000E+00 0.  1.
<mgrwt>
<rscale>  2 0.28514743E+02</rscale>
<asrwt>0</asrwt>
<pdfrwt beam="2">  1       21 0.36778333E-03 0.28514743E+02</pdfrwt>
<pdfrwt beam="1">  1       -1 0.19673049E+00 0.28514743E+02</pdfrwt>
<totfact> 0.24964554E+05</totfact>
</mgrwt>
</event>
<event>
 4    1  0.2260076E+006  0.2157650E+02  0.7546771E-02  0.1715681E+00
          1   -1    0    0  503    0 -0.00000000000E+00  0.00000000000E+00  0.10173221578E+04  0.10173221578E+04  0.00000000000E+00 0. -1.
         21   -1    0    0  501  502  0.00000000000E+00 -0.00000000000E+00 -0.65241505119E+00  0.65241505119E+00  0.00000000000E+00 0. -1.
         21    1    1    2  503  502  0.16536447548E+02 -0.13859696391E+02  0.23021260865E+03  0.23122151817E+03  0.00000000000E+00 0. -1.
          1    1    1    2  501    0 -0.16536447548E+02  0.13859696391E+02  0.78645713409E+03  0.78675305468E+03  0.00000000000E+00 0. -1.
<mgrwt>
<rscale>  2 0.21576498E+02</rscale>
<asrwt>0</asrwt>
<pdfrwt beam="2">  1       21 0.10037236E-03 0.21576498E+02</pdfrwt>
<pdfrwt beam="1">  1        1 0.15650983E+00 0.21576498E+02</pdfrwt>
<totfact> 0.15416071E+07</totfact>
</mgrwt>
</event>
<event>
 4    1  0.2260076E+006  0.2204987E+02  0.7546771E-02  0.1707391E+00
         21   -1    0    0  503  502  0.00000000000E+00  0.00000000000E+00  0.96830323375E+01  0.96830323375E+01  0.00000000000E+00 0. -1.
         -1   -1    0    0    0  501 -0.00000000000E+00 -0.00000000000E+00 -0.27923968853E+03  0.27923968853E+03  0.00000000000E+00 0. -1.
         21    1    1    2  503  501  0.18337078024E+02  0.12245336056E+02 -0.39481657674E+01  0.22400551299E+02  0.00000000000E+00 0. -1.
         -1    1    1    2    0  502 -0.18337078024E+02 -0.12245336056E+02 -0.26560849043E+03  0.26652216957E+03  0.00000000000E+00 0. -1.
<mgrwt>
<rscale>  2 0.22049868E+02</rscale>
<asrwt>0</asrwt>
<pdfrwt beam="1">  1       21 0.14896974E-02 0.22049868E+02</pdfrwt>
<pdfrwt beam="2">  1       -1 0.42959949E-01 0.22049868E+02</pdfrwt>
<totfact> 0.72762079E+05</totfact>
</mgrwt>
</event>
<event>
 4    1  0.2260076E+006  0.2600385E+02  0.7546771E-02  0.1646988E+00
          2   -1    0    0  502    0 -0.00000000000E+00  0.00000000000E+00  0.79779148169E+03  0.79779148169E+03  0.00000000000E+00 0.  1.
         21   -1    0    0  503  502  0.00000000000E+00 -0.00000000000E+00 -0.16503483908E+01  0.16503483908E+01  0.00000000000E+00 0.  1.
         21    1    1    2  503  501 -0.37636973394E+01  0.25730040331E+02  0.11929071846E+03  0.12209207962E+03  0.00000000000E+00 0.  1.
          2    1    1    2  501    0  0.37636973394E+01 -0.25730040331E+02  0.67685041484E+03  0.67734975047E+03  0.00000000000E+00 0.  1.
<mgrwt>
<rscale>  2 0.26003853E+02</rscale>
<asrwt>0</asrwt>
<pdfrwt beam="2">  1       21 0.25390039E-03 0.26003853E+02</pdfrwt>
<pdfrwt beam="1">  1        2 0.12273684E+00 0.26003853E+02</pdfrwt>
<totfact> 0.10303320E+07</totfact>
</mgrwt>
</event>
<event>
 4    1  0.2260076E+006  0.2609977E+02  0.7546771E-02  0.1645690E+00
          1   -1    0    0  502    0 -0.00000000000E+00  0.00000000000E+00  0.98325625398E+03  0.98325625398E+03  0.00000000000E+00 0. -1.
         21   -1    0    0  503  502  0.00000000000E+00 -0.00000000000E+00 -0.17592749127E+01  0.17592749127E+01  0.00000000000E+00 0.  1.
         21    1    1    2  503  501 -0.18865433838E+02 -0.18035887590E+02  0.10728679861E+03  0.11041582763E+03  0.00000000000E+00 0.  1.
          1    1    1    2  501    0  0.18865433838E+02  0.18035887590E+02  0.87421018046E+03  0.87459970127E+03  0.00000000000E+00 0. -1.
<mgrwt>
<rscale>  2 0.26099767E+02</rscale>
<asrwt>0</asrwt>
<pdfrwt beam="2">  1       21 0.27065846E-03 0.26099767E+02</pdfrwt>
<pdfrwt beam="1">  1        1 0.15126975E+00 0.26099767E+02</pdfrwt>
<totfact> 0.40758497E+06</totfact>
</mgrwt>
</event>
<event>
 4    1  0.2260076E+006  0.2849473E+02  0.7546771E-02  0.1615349E+00
         -2   -1    0    0    0  501 -0.00000000000E+00  0.00000000000E+00  0.10709366450E+03  0.10709366450E+03  0.00000000000E+00 0.  1.
         21   -1    0    0  501  502  0.00000000000E+00 -0.00000000000E+00 -0.49710280591E+02  0.49710280591E+02  0.00000000000E+00 0.  1.
         21    1    1    2  503  502  0.28488387879E+02 -0.60101594612E+00 -0.43484243177E+02  0.51988737903E+02  0.00000000000E+00 0.  1.
         -2    1    1    2    0  503 -0.28488387879E+02  0.60101594612E+00  0.10086762709E+03  0.10481520719E+03  0.00000000000E+00 0.  1.
<mgrwt>
<rscale>  2 0.28494727E+02</rscale>
<asrwt>0</asrwt>
<pdfrwt beam="2">  1       21 0.76477355E-02 0.28494727E+02</pdfrwt>
<pdfrwt beam="1">  1       -2 0.16475948E-01 0.28494727E+02</pdfrwt>
<totfact> 0.24475397E+05</totfact>
</mgrwt>
</event>
<event>
 4    1  0.2260076E+006  0.2928121E+02  0.7546771E-02  0.1606173E+00
         21   -1    0    0  503  502  0.00000000000E+00  0.00000000000E+00  0.65584788922E+00  0.65584788922E+00  0.00000000000E+00 0.  1.
          2   -1    0    0  502    0 -0.00000000000E+00 -0.00000000000E+00 -0.15922998285E+04  0.15922998285E+04  0.00000000000E+00 0.  1.
         21    1    1    2  503  501 -0.64779187095E+01 -0.28555659661E+02 -0.45885720317E+03  0.45979051973E+03  0.00000000000E+00 0.  1.
          2    1    1    2  501    0  0.64779187095E+01  0.28555659661E+02 -0.11327867774E+04  0.11331651566E+04  0.00000000000E+00 0.  1.
<mgrwt>
<rscale>  2 0.29281208E+02</rscale>
<asrwt>0</asrwt>
<pdfrwt beam="1">  1       21 0.10089877E-03 0.29281208E+02</pdfrwt>
<pdfrwt beam="2">  1        2 0.24497140E+00 0.29281208E+02</pdfrwt>
<totfact> 0.15491208E+07</totfact>
</mgrwt>
</event>
<event>
 4    1  0.2260076E+006  0.3694027E+02  0.7546771E-02  0.1532016E+00
          2   -1    0    0  503    0 -0.00000000000E+00  0.00000000000E+00  0.92087858365E+03  0.92087858365E+03  0.00000000000E+00 0. -1.
         21   -1    0    0  501  502  0.00000000000E+00 -0.00000000000E+00 -0.70729395160E+03  0.70729395160E+03  0.00000000000E+00 0.  1.
         21    1    1    2  503  502 -0.26764811052E+02 -0.25460324316E+02 -0.70644072224E+03  0.70740587873E+03  0.00000000000E+00 0.  1.
          2    1    1    2  501    0  0.26764811052E+02  0.25460324316E+02  0.92002535429E+03  0.92076665652E+03  0.00000000000E+00 0. -1.
<mgrwt>
<rscale>  2 0.36940266E+02</rscale>
<asrwt>0</asrwt>
<pdfrwt beam="2">  1       21 0.10881445E+00 0.36940266E+02</pdfrwt>
<pdfrwt beam="1">  1        2 0.14167363E+00 0.36940266E+02</pdfrwt>
<totfact> 0.32256291E+02</totfact>
</mgrwt>
</event>
<event>
 4    1  0.2260076E+006  0.2470082E+02  0.7546771E-02  0.1665337E+00
         21   -1    0    0  503  502  0.00000000000E+00  0.00000000000E+00  0.17578936972E+01  0.17578936972E+01  0.00000000000E+00 0. -1.
         -4   -1    0    0    0  501 -0.00000000000E+00 -0.00000000000E+00 -0.74353169390E+03  0.74353169390E+03  0.00000000000E+00 0. -1.
         21    1    1    2  503  501  0.21702567281E+02 -0.11795302004E+02 -0.98779598793E+02  0.10182111625E+03  0.00000000000E+00 0. -1.
         -4    1    1    2    0  502 -0.21702567281E+02  0.11795302004E+02 -0.64299420141E+03  0.64346847135E+03  0.00000000000E+00 0. -1.
<mgrwt>
<rscale>  2 0.24700821E+02</rscale>
<asrwt>0</asrwt>
<pdfrwt beam="1">  1       21 0.27044452E-03 0.24700821E+02</pdfrwt>
<pdfrwt beam="2">  1       -4 0.11438977E+00 0.24700821E+02</pdfrwt>
<totfact> 0.44968601E+05</totfact>
</mgrwt>
</event>
<event>
 4    1  0.2260076E+006  0.6574810E+02  0.7546771E-02  0.1375179E+00
          1   -1    0    0  503    0 -0.00000000000E+00  0.00000000000E+00  0.18670704287E+04  0.18670704287E+04  0.00000000000E+00 0. -1.
         21   -1    0    0  501  502  0.00000000000E+00 -0.00000000000E+00 -0.72998183461E+01  0.72998183461E+01  0.00000000000E+00 0.  1.
         21    1    1    2  503  502  0.96748003135E+01 -0.65032384448E+02  0.15545682186E+03  0.16878873260E+03  0.00000000000E+00 0.  1.
          1    1    1    2  501    0 -0.96748003135E+01  0.65032384448E+02  0.17043137885E+04  0.17055815144E+04  0.00000000000E+00 0. -1.
<mgrwt>
<rscale>  2 0.65748101E+02</rscale>
<asrwt>0</asrwt>
<pdfrwt beam="2">  1       21 0.11230505E-02 0.65748101E+02</pdfrwt>
<pdfrwt beam="1">  1        1 0.28724122E+00 0.65748101E+02</pdfrwt>
<totfact> 0.14579484E+05</totfact>
</mgrwt>
</event>
<event>
 4    1  0.2260076E+006  0.3643890E+02  0.7546771E-02  0.1536182E+00
         21   -1    0    0  501  502  0.00000000000E+00  0.00000000000E+00  0.91189301604E+02  0.91189301604E+02  0.00000000000E+00 0.  1.
         -2   -1    0    0    0  501 -0.00000000000E+00 -0.00000000000E+00 -0.16325497083E+02  0.16325497083E+02  0.00000000000E+00 0. -1.
         21    1    1    2  503  502  0.27670521132E+02 -0.23709403691E+02  0.55105876457E+02  0.66063993092E+02  0.00000000000E+00 0.  1.
         -2    1    1    2    0  503 -0.27670521132E+02  0.23709403691E+02  0.19757928064E+02  0.41450805595E+02  0.00000000000E+00 0. -1.
<mgrwt>
<rscale>  2 0.36438902E+02</rscale>
<asrwt>0</asrwt>
<pdfrwt beam="1">  1       21 0.14029123E-01 0.36438902E+02</pdfrwt>
<pdfrwt beam="2">  1       -2 0.25116150E-02 0.36438902E+02</pdfrwt>
<totfact> 0.14662230E+06</totfact>
</mgrwt>
</event>
<event>
 4    1  0.2260076E+006  0.2389256E+02  0.7546771E-02  0.1677438E+00
         21   -1    0    0  503  502  0.00000000000E+00  0.00000000000E+00  0.30354708481E+03  0.30354708481E+03  0.00000000000E+00 0. -1.
          4   -1    0    0  502    0 -0.00000000000E+00 -0.00000000000E+00 -0.20684443998E+02  0.20684443998E+02  0.00000000000E+00 0. -1.
         21    1    1    2  503  501  0.38703167191E+01 -0.23577000319E+02  0.29600178193E+03  0.29696449148E+03  0.00000000000E+00 0. -1.
          4    1    1    2  501    0 -0.38703167191E+01  0.23577000319E+02 -0.13139141114E+02  0.27267037331E+02  0.00000000000E+00 0. -1.
<mgrwt>
<rscale>  2 0.23892557E+02</rscale>
<asrwt>0</asrwt>
<pdfrwt beam="1">  1       21 0.46699548E-01 0.23892557E+02</pdfrwt>
<pdfrwt beam="2">  1        4 0.31822224E-02 0.23892557E+02</pdfrwt>
<totfact> 0.63343193E+04</totfact>
</mgrwt>
</event>
<event>
 4    1  0.2260076E+006  0.3330582E+02  0.7546771E-02  0.1564181E+00
          2   -1    0    0  503    0 -0.00000000000E+00  0.00000000000E+00  0.58405956065E+03  0.58405956065E+03  0.00000000000E+00 0. -1.
         21   -1    0    0  501  502  0.00000000000E+00 -0.00000000000E+00 -0.47750774403E+02  0.47750774403E+02  0.00000000000E+00 0.  1.
         21    1    1    2  503  502  0.23762994991E+02  0.23336612779E+02 -0.41404575694E+02  0.53137710859E+02  0.00000000000E+00 0.  1.
          2    1    1    2  501    0 -0.23762994991E+02 -0.23336612779E+02  0.57771336194E+03  0.57867262420E+03  0.00000000000E+00 0. -1.
<mgrwt>
<rscale>  2 0.33305817E+02</rscale>
<asrwt>0</asrwt>
<pdfrwt beam="2">  1       21 0.73462734E-02 0.33305817E+02</pdfrwt>
<pdfrwt beam="1">  1        2 0.89855312E-01 0.33305817E+02</pdfrwt>
<totfact> 0.85704441E+04</totfact>
</mgrwt>
</event>
<event>
 4    1  0.2260076E+006  0.2667003E+02  0.7546771E-02  0.1638112E+00
         -3   -1    0    0    0  501 -0.00000000000E+00  0.00000000000E+00  0.46685600790E+02  0.46685600790E+02  0.00000000000E+00 0.  1.
         21   -1    0    0  501  502  0.00000000000E+00 -0.00000000000E+00 -0.19810116402E+02  0.19810116402E+02  0.00000000000E+00 0.  1.
         21    1    1    2  503  502 -0.10882993802E+02  0.24348534752E+02 -0.25388839758E+01  0.26790607132E+02  0.00000000000E+00 0.  1.
         -3    1    1    2    0  503  0.10882993802E+02 -0.24348534752E+02  0.29414368363E+02  0.39705110060E+02  0.00000000000E+00 0.  1.
<mgrwt>
<rscale>  2 0.26670034E+02</rscale>
<asrwt>0</asrwt>
<pdfrwt beam="2">  1       21 0.30477102E-02 0.26670034E+02</pdfrwt>
<pdfrwt beam="1">  1       -3 0.71824001E-02 0.26670034E+02</pdfrwt>
<totfact> 0.23476683E+06</totfact>
</mgrwt>
</event>
<event>
 4    1  0.2260076E+006  0.2877945E+02  0.7546771E-02  0.1611986E+00
         21   -1    0    0  501  502  0.00000000000E+00  0.00000000000E+00  0.12298412867E+03  0.12298412867E+03  0.00000000000E+00 0. -1.
         -1   -1    0    0    0  501 -0.00000000000E+00 -0.00000000000E+00 -0.88651936823E+01  0.88651936823E+01  0.00000000000E+00 0. -1.
         21    1    1    2  503  502  0.16412667660E+02 -0.23640667383E+02  0.89377697080E+02  0.93896909158E+02  0.00000000000E+00 0. -1.
         -1    1    1    2    0  503 -0.16412667660E+02  0.23640667383E+02  0.24741237906E+02  0.37952413193E+02  0.00000000000E+00 0. -1.
<mgrwt>
<rscale>  2 0.28779451E+02</rscale>
<asrwt>0</asrwt>
<pdfrwt beam="1">  1       21 0.18920634E-01 0.28779451E+02</pdfrwt>
<pdfrwt beam="2">  1       -1 0.13638760E-02 0.28779451E+02</pdfrwt>
<totfact> 0.19464480E+06</totfact>
</mgrwt>
</event>
<event>
 4    1  0.2260076E+006  0.2049636E+02  0.7546771E-02  0.1735634E+00
          1   -1    0    0  503    0 -0.00000000000E+00  0.00000000000E+00  0.94588503681E+03  0.94588503681E+03  0.00000000000E+00 0. -1.
         21   -1    0    0  501  502  0.00000000000E+00 -0.00000000000E+00 -0.13312133636E+01  0.13312133636E+01  0.00000000000E+00 0.  1.
         21    1    1    2  503  502  0.14204198220E+02  0.14776382612E+02  0.85664063409E+02  0.88081964612E+02  0.00000000000E+00 0.  1.
          1    1    1    2  501    0 -0.14204198220E+02 -0.14776382612E+02  0.85888976004E+03  0.85913428556E+03  0.00000000000E+00 0. -1.
<mgrwt>
<rscale>  2 0.20496359E+02</rscale>
<asrwt>0</asrwt>
<pdfrwt beam="2">  1       21 0.20480281E-03 0.20496359E+02</pdfrwt>
<pdfrwt beam="1">  1        1 0.14552024E+00 0.20496359E+02</pdfrwt>
<totfact> 0.61318948E+06</totfact>
</mgrwt>
</event>
<event>
 4    1  0.2260076E+006  0.2894240E+02  0.7546771E-02  0.1610082E+00
          1   -1    0    0  503    0 -0.00000000000E+00  0.00000000000E+00  0.14682941870E+04  0.14682941870E+04  0.00000000000E+00 0. -1.
         21   -1    0    0  501  502  0.00000000000E+00 -0.00000000000E+00 -0.10305055322E+01  0.10305055322E+01  0.00000000000E+00 0. -1.
         21    1    1    2  503  502 -0.28742574746E+02 -0.33951734379E+01  0.24278744978E+03  0.24450645917E+03  0.00000000000E+00 0. -1.
          1    1    1    2  501    0  0.28742574746E+02  0.33951734379E+01  0.12244762317E+04  0.12248182333E+04  0.00000000000E+00 0. -1.
<mgrwt>
<rscale>  2 0.28942405E+02</rscale>
<asrwt>0</asrwt>
<pdfrwt beam="2">  1       21 0.15854049E-03 0.28942405E+02</pdfrwt>
<pdfrwt beam="1">  1        1 0.22588974E+00 0.28942405E+02</pdfrwt>
<totfact> 0.44472216E+06</totfact>
</mgrwt>
</event>
<event>
 4    1  0.2260076E+006  0.2611525E+02  0.7546771E-02  0.1645481E+00
         21   -1    0    0  501  502  0.00000000000E+00  0.00000000000E+00  0.76972795824E+01  0.76972795824E+01  0.00000000000E+00 0.  1.
          2   -1    0    0  503    0 -0.00000000000E+00 -0.00000000000E+00 -0.17589647462E+04  0.17589647462E+04  0.00000000000E+00 0.  1.
         21    1    1    2  503  502  0.20977082490E+02 -0.15555325727E+02 -0.14837992502E+02  0.30036181011E+02  0.00000000000E+00 0.  1.
          2    1    1    2  501    0 -0.20977082490E+02  0.15555325727E+02 -0.17364294742E+04  0.17366258448E+04  0.00000000000E+00 0.  1.
<mgrwt>
<rscale>  2 0.26115247E+02</rscale>
<asrwt>0</asrwt>
<pdfrwt beam="1">  1       21 0.11841958E-02 0.26115247E+02</pdfrwt>
<pdfrwt beam="2">  1        2 0.27061020E+00 0.26115247E+02</pdfrwt>
<totfact> 0.33853442E+05</totfact>
</mgrwt>
</event>
<event>
 4    1  0.2260076E+006  0.2782684E+02  0.7546771E-02  0.1623432E+00
         21   -1    0    0  503  502  0.00000000000E+00  0.00000000000E+00  0.56025734751E+00  0.56025734751E+00  0.00000000000E+00 0.  1.
          2   -1    0    0  502    0 -0.00000000000E+00 -0.00000000000E+00 -0.17276161528E+04  0.17276161528E+04  0.00000000000E+00 0. -1.
         21    1    1    2  503  501  0.76862604267E+01 -0.26744241194E+02 -0.47710126646E+03  0.47791207507E+03  0.00000000000E+00 0.  1.
          2    1    1    2  501    0 -0.76862604267E+01  0.26744241194E+02 -0.12499546290E+04  0.12502643351E+04  0.00000000000E+00 0. -1.
<mgrwt>
<rscale>  2 0.27826840E+02</rscale>
<asrwt>0</asrwt>
<pdfrwt beam="1">  1       21 0.86193744E-04 0.27826840E+02</pdfrwt>
<pdfrwt beam="2">  1        2 0.26578616E+00 0.27826840E+02</pdfrwt>
<totfact> 0.16576956E+07</totfact>
</mgrwt>
</event>
<event>
 4    1  0.2260076E+006  0.2292813E+02  0.7546771E-02  0.1692678E+00
         21   -1    0    0  501  502  0.00000000000E+00  0.00000000000E+00  0.31112077706E+03  0.31112077706E+03  0.00000000000E+00 0. -1.
          2   -1    0    0  503    0 -0.00000000000E+00 -0.00000000000E+00 -0.29347921072E+01  0.29347921072E+01  0.00000000000E+00 0. -1.
         21    1    1    2  503  502 -0.21768306130E+02 -0.71999967565E+01  0.25637270757E+03  0.25739592905E+03  0.00000000000E+00 0. -1.
          2    1    1    2  501    0  0.21768306130E+02  0.71999967565E+01  0.51813277388E+02  0.56659640122E+02  0.00000000000E+00 0. -1.
<mgrwt>
<rscale>  2 0.22928129E+02</rscale>
<asrwt>0</asrwt>
<pdfrwt beam="1">  1       21 0.47864709E-01 0.22928129E+02</pdfrwt>
<pdfrwt beam="2">  1        2 0.45150672E-03 0.22928129E+02</pdfrwt>
<totfact> 0.15333499E+06</totfact>
</mgrwt>
</event>
<event>
 4    1  0.2260076E+006  0.2554684E+02  0.7546771E-02  0.1653269E+00
          2   -1    0    0  503    0 -0.00000000000E+00  0.00000000000E+00  0.18299860138E+04  0.18299860138E+04  0.00000000000E+00 0. -1.
         21   -1    0    0  501  502  0.00000000000E+00 -0.00000000000E+00 -0.42119010128E+00  0.42119010128E+00  0.00000000000E+00 0. -1.
         21    1    1    2  503  502 -0.17949126783E+02 -0.18178831861E+02  0.12730739408E+04  0.12733302399E+04  0.00000000000E+00 0. -1.
          2    1    1    2  501    0  0.17949126783E+02  0.18178831861E+02  0.55649088289E+03  0.55707696400E+03  0.00000000000E+00 0. -1.
<mgrwt>
<rscale>  2 0.25546841E+02</rscale>
<asrwt>0</asrwt>
<pdfrwt beam="2">  1       21 0.64799942E-04 0.25546841E+02</pdfrwt>
<pdfrwt beam="1">  1        2 0.28152994E+00 0.25546841E+02</pdfrwt>
<totfact> 0.21870008E+07</totfact>
</mgrwt>
</event>
<event>
 4    1  0.2260076E+006  0.2009535E+02  0.7546771E-02  0.1743439E+00
         -1   -1    0    0    0  501 -0.00000000000E+00  0.00000000000E+00  0.12869879851E+01  0.12869879851E+01  0.00000000000E+00 0. -1.
         21   -1    0    0  501  502  0.00000000000E+00 -0.00000000000E+00 -0.74168892206E+03  0.74168892206E+03  0.00000000000E+00 0. -1.
         21    1    1    2  503  502  0.19813206747E+02 -0.33555612719E+01 -0.65237218971E+03  0.65268161982E+03  0.00000000000E+00 0. -1.
         -1    1    1    2    0  503 -0.19813206747E+02  0.33555612719E+01 -0.88029744365E+02  0.90294290218E+02  0.00000000000E+00 0. -1.
<mgrwt>
<rscale>  2 0.20095347E+02</rscale>
<asrwt>0</asrwt>
<pdfrwt beam="2">  1       21 0.11410592E+00 0.20095347E+02</pdfrwt>
<pdfrwt beam="1">  1       -1 0.19799827E-03 0.20095347E+02</pdfrwt>
<totfact> 0.71849733E+05</totfact>
</mgrwt>
</event>
<event>
 4    1  0.2260076E+006  0.2062707E+02  0.7546771E-02  0.1733138E+00
         21   -1    0    0  503  502  0.00000000000E+00  0.00000000000E+00  0.14107339057E+01  0.14107339057E+01  0.00000000000E+00 0. -1.
          2   -1    0    0  502    0 -0.00000000000E+00 -0.00000000000E+00 -0.10529429705E+04  0.10529429705E+04  0.00000000000E+00 0.  1.
         21    1    1    2  503  501  0.55052099571E+01  0.19878847628E+02 -0.80444976666E+02  0.83047397253E+02  0.00000000000E+00 0. -1.
          2    1    1    2  501    0 -0.55052099571E+01 -0.19878847628E+02 -0.97108725995E+03  0.97130630718E+03  0.00000000000E+00 0.  1.
<mgrwt>
<rscale>  2 0.20627068E+02</rscale>
<asrwt>0</asrwt>
<pdfrwt beam="1">  1       21 0.21703653E-03 0.20627068E+02</pdfrwt>
<pdfrwt beam="2">  1        2 0.16199082E+00 0.20627068E+02</pdfrwt>
<totfact> 0.87548671E+06</totfact>
</mgrwt>
</event>
<event>
 4    1  0.2260076E+006  0.2387456E+02  0.7546771E-02  0.1677714E+00
         -4   -1    0    0    0  501 -0.00000000000E+00  0.00000000000E+00  0.33919247274E+00  0.33919247274E+00  0.00000000000E+00 0. -1.
         21   -1    0    0  503  502  0.00000000000E+00 -0.00000000000E+00 -0.19939560727E+04  0.19939560727E+04  0.00000000000E+00 0.  1.
         21    1    1    2  503  501  0.18805712291E+02  0.14708494338E+02 -0.13922000472E+04  0.13924047422E+04  0.00000000000E+00 0.  1.
         -4    1    1    2    0  502 -0.18805712291E+02 -0.14708494338E+02 -0.60141683306E+03  0.60189052302E+03  0.00000000000E+00 0. -1.
<mgrwt>
<rscale>  2 0.23874560E+02</rscale>
<asrwt>0</asrwt>
<pdfrwt beam="2">  1       21 0.30676460E+00 0.23874560E+02</pdfrwt>
<pdfrwt beam="1">  1       -4 0.52183096E-04 0.23874560E+02</pdfrwt>
<totfact> 0.25260192E+05</totfact>
</mgrwt>
</event>
<event>
 4    1  0.2260076E+006  0.2858936E+02  0.7546771E-02  0.1614226E+00
          3   -1    0    0  503    0 -0.00000000000E+00  0.00000000000E+00  0.11413149595E+03  0.11413149595E+03  0.00000000000E+00 0. -1.
         21   -1    0    0  501  502  0.00000000000E+00 -0.00000000000E+00 -0.17550502273E+02  0.17550502273E+02  0.00000000000E+00 0.  1.
         21    1    1    2  503  502  0.23104716751E+02 -0.16838160515E+02 -0.23664211920E+01  0.28687131870E+02  0.00000000000E+00 0.  1.
          3    1    1    2  501    0 -0.23104716751E+02  0.16838160515E+02  0.98947414871E+02  0.10299486635E+03  0.00000000000E+00 0. -1.
<mgrwt>
<rscale>  2 0.28589361E+02</rscale>
<asrwt>0</asrwt>
<pdfrwt beam="2">  1       21 0.27000773E-02 0.28589361E+02</pdfrwt>
<pdfrwt beam="1">  1        3 0.17558691E-01 0.28589361E+02</pdfrwt>
<totfact> 0.69547230E+05</totfact>
</mgrwt>
</event>
<event>
 4    1  0.2260076E+006  0.2129992E+02  0.7546771E-02  0.1720649E+00
          2   -1    0    0  503    0 -0.00000000000E+00  0.00000000000E+00  0.68704577840E+03  0.68704577840E+03  0.00000000000E+00 0.  1.
         21   -1    0    0  501  502  0.00000000000E+00 -0.00000000000E+00 -0.87680992610E+02  0.87680992610E+02  0.00000000000E+00 0. -1.
         21    1    1    2  503  502 -0.12945365387E+02  0.16914610497E+02 -0.86219578362E+02  0.88811610875E+02  0.00000000000E+00 0. -1.
          2    1    1    2  501    0  0.12945365387E+02 -0.16914610497E+02  0.68558436415E+03  0.68591516014E+03  0.00000000000E+00 0.  1.
<mgrwt>
<rscale>  2 0.21299919E+02</rscale>
<asrwt>0</asrwt>
<pdfrwt beam="2">  1       21 0.13489384E-01 0.21299919E+02</pdfrwt>
<pdfrwt beam="1">  1        2 0.10569935E+00 0.21299919E+02</pdfrwt>
<totfact> 0.25600857E+04</totfact>
</mgrwt>
</event>
<event>
 4    1  0.2260076E+006  0.2223630E+02  0.7546771E-02  0.1704197E+00
         21   -1    0    0  503  502  0.00000000000E+00  0.00000000000E+00  0.99762195878E+02  0.99762195878E+02  0.00000000000E+00 0. -1.
         -2   -1    0    0    0  501 -0.00000000000E+00 -0.00000000000E+00 -0.95795915402E+02  0.95795915402E+02  0.00000000000E+00 0. -1.
         21    1    1    2  503  501 -0.21913587463E+02  0.37745940480E+01  0.97199143975E+02  0.99710212442E+02  0.00000000000E+00 0. -1.
         -2    1    1    2    0  502  0.21913587463E+02 -0.37745940480E+01 -0.93232863499E+02  0.95847898839E+02  0.00000000000E+00 0. -1.
<mgrwt>
<rscale>  2 0.22236296E+02</rscale>
<asrwt>0</asrwt>
<pdfrwt beam="1">  1       21 0.15348030E-01 0.22236296E+02</pdfrwt>
<pdfrwt beam="2">  1       -2 0.14737833E-01 0.22236296E+02</pdfrwt>
<totfact> 0.87658238E+04</totfact>
</mgrwt>
</event>
<event>
 4    1  0.2260076E+006  0.2736919E+02  0.7546771E-02  0.1629133E+00
         21   -1    0    0  503  502  0.00000000000E+00  0.00000000000E+00  0.72017450940E+01  0.72017450940E+01  0.00000000000E+00 0. -1.
          2   -1    0    0  502    0 -0.00000000000E+00 -0.00000000000E+00 -0.44543918787E+03  0.44543918787E+03  0.00000000000E+00 0. -1.
         21    1    1    2  503  501 -0.25169004576E+02 -0.10751464040E+02 -0.20975946820E+02  0.34482794483E+02  0.00000000000E+00 0. -1.
          2    1    1    2  501    0  0.25169004576E+02  0.10751464040E+02 -0.41726149596E+03  0.41815813848E+03  0.00000000000E+00 0. -1.
<mgrwt>
<rscale>  2 0.27369194E+02</rscale>
<asrwt>0</asrwt>
<pdfrwt beam="1">  1       21 0.11079604E-02 0.27369194E+02</pdfrwt>
<pdfrwt beam="2">  1        2 0.68529130E-01 0.27369194E+02</pdfrwt>
<totfact> 0.21654062E+06</totfact>
</mgrwt>
</event>
<event>
 4    1  0.2260076E+006  0.2069266E+02  0.7546771E-02  0.1731894E+00
         21   -1    0    0  501  502  0.00000000000E+00  0.00000000000E+00  0.94814935947E+02  0.94814935947E+02  0.00000000000E+00 0.  1.
         -1   -1    0    0    0  501 -0.00000000000E+00 -0.00000000000E+00 -0.10502880355E+02  0.10502880355E+02  0.00000000000E+00 0.  1.
         21    1    1    2  503  502 -0.99396860578E+00 -0.20668776668E+02  0.81913351843E+02  0.84486587768E+02  0.00000000000E+00 0.  1.
         -1    1    1    2    0  503  0.99396860578E+00  0.20668776668E+02  0.23987037487E+01  0.20831228534E+02  0.00000000000E+00 0.  1.
<mgrwt>
<rscale>  2 0.20692663E+02</rscale>
<asrwt>0</asrwt>
<pdfrwt beam="1">  1       21 0.14586913E-01 0.20692663E+02</pdfrwt>
<pdfrwt beam="2">  1       -1 0.16158278E-02 0.20692663E+02</pdfrwt>
<totfact> 0.22271973E+06</totfact>
</mgrwt>
</event>
<event>
 4    1  0.2260076E+006  0.2535916E+02  0.7546771E-02  0.1655896E+00
         21   -1    0    0  501  502  0.00000000000E+00  0.00000000000E+00  0.69054398614E+01  0.69054398614E+01  0.00000000000E+00 0.  1.
          1   -1    0    0  503    0 -0.00000000000E+00 -0.00000000000E+00 -0.13129329763E+04  0.13129329763E+04  0.00000000000E+00 0.  1.
         21    1    1    2  503  502 -0.24415514830E+02 -0.68534552370E+01 -0.16929348059E+02  0.30490818926E+02  0.00000000000E+00 0.  1.
          1    1    1    2  501    0  0.24415514830E+02  0.68534552370E+01 -0.12890981884E+04  0.12893475972E+04  0.00000000000E+00 0.  1.
<mgrwt>
<rscale>  2 0.25359164E+02</rscale>
<asrwt>0</asrwt>
<pdfrwt beam="1">  1       21 0.10623762E-02 0.25359164E+02</pdfrwt>
<pdfrwt beam="2">  1        1 0.20198954E+00 0.25359164E+02</pdfrwt>
<totfact> 0.32719203E+05</totfact>
</mgrwt>
</event>
<event>
 4    1  0.2260076E+006  0.3497278E+02  0.7546771E-02  0.1548842E+00
         21   -1    0    0  503  502  0.00000000000E+00  0.00000000000E+00  0.10490042200E+03  0.10490042200E+03  0.00000000000E+00 0.  1.
         -1   -1    0    0    0  501 -0.00000000000E+00 -0.00000000000E+00 -0.25880944284E+03  0.25880944284E+03  0.00000000000E+00 0. -1.
         21    1    1    2  503  501  0.34889724502E+02 -0.24089008030E+01  0.10075685592E+03  0.10665383113E+03  0.00000000000E+00 0.  1.
         -1    1    1    2    0  502 -0.34889724502E+02  0.24089008030E+01 -0.25466587677E+03  0.25705603371E+03  0.00000000000E+00 0. -1.
<mgrwt>
<rscale>  2 0.34972785E+02</rscale>
<asrwt>0</asrwt>
<pdfrwt beam="1">  1       21 0.16138526E-01 0.34972785E+02</pdfrwt>
<pdfrwt beam="2">  1       -1 0.39816837E-01 0.34972785E+02</pdfrwt>
<totfact> 0.18956380E+04</totfact>
</mgrwt>
</event>
<event>
 4    1  0.2260076E+006  0.2352047E+02  0.7546771E-02  0.1683210E+00
          2   -1    0    0  503    0 -0.00000000000E+00  0.00000000000E+00  0.12077059514E+04  0.12077059514E+04  0.00000000000E+00 0.  1.
         21   -1    0    0  501  502  0.00000000000E+00 -0.00000000000E+00 -0.13055614133E+02  0.13055614133E+02  0.00000000000E+00 0. -1.
         21    1    1    2  503  502  0.46279489675E+01 -0.23060675622E+02 -0.22521011873E+01  0.23628047561E+02  0.00000000000E+00 0. -1.
          2    1    1    2  501    0 -0.46279489675E+01  0.23060675622E+02  0.11969024385E+04  0.11971335180E+04  0.00000000000E+00 0.  1.
<mgrwt>
<rscale>  2 0.23520473E+02</rscale>
<asrwt>0</asrwt>
<pdfrwt beam="2">  1       21 0.20085570E-02 0.23520473E+02</pdfrwt>
<pdfrwt beam="1">  1        2 0.18580083E+00 0.23520473E+02</pdfrwt>
<totfact> 0.27451537E+05</totfact>
</mgrwt>
</event>
<event>
 4    1  0.2260076E+006  0.2143021E+02  0.7546771E-02  0.1718297E+00
          2   -1    0    0  503    0 -0.00000000000E+00  0.00000000000E+00  0.17005596708E+04  0.17005596708E+04  0.00000000000E+00 0. -1.
         21   -1    0    0  501  502  0.00000000000E+00 -0.00000000000E+00 -0.41630343253E+00  0.41630343253E+00  0.00000000000E+00 0.  1.
         21    1    1    2  503  502  0.89159921836E+01 -0.19487410264E+02  0.34599041326E+03  0.34665345829E+03  0.00000000000E+00 0.  1.
          2    1    1    2  501    0 -0.89159921836E+01  0.19487410264E+02  0.13541529541E+04  0.13543225160E+04  0.00000000000E+00 0. -1.
<mgrwt>
<rscale>  2 0.21430214E+02</rscale>
<asrwt>0</asrwt>
<pdfrwt beam="2">  1       21 0.64048043E-04 0.21430214E+02</pdfrwt>
<pdfrwt beam="1">  1        2 0.26161900E+00 0.21430214E+02</pdfrwt>
<totfact> 0.24482250E+07</totfact>
</mgrwt>
</event>
<event>
 4    1  0.2260076E+006  0.2703007E+02  0.7546771E-02  0.1633446E+00
          2   -1    0    0  503    0 -0.00000000000E+00  0.00000000000E+00  0.16531813555E+04  0.16531813555E+04  0.00000000000E+00 0. -1.
         21   -1    0    0  501  502  0.00000000000E+00 -0.00000000000E+00 -0.84622580712E+00  0.84622580712E+00  0.00000000000E+00 0.  1.
         21    1    1    2  503  502  0.27027464185E+02  0.37555704501E+00  0.25454672699E+03  0.25597785272E+03  0.00000000000E+00 0.  1.
          2    1    1    2  501    0 -0.27027464185E+02 -0.37555704501E+00  0.13977884027E+04  0.13980497286E+04  0.00000000000E+00 0. -1.
<mgrwt>
<rscale>  2 0.27030073E+02</rscale>
<asrwt>0</asrwt>
<pdfrwt beam="2">  1       21 0.13018991E-03 0.27030073E+02</pdfrwt>
<pdfrwt beam="1">  1        2 0.25433301E+00 0.27030073E+02</pdfrwt>
<totfact> 0.98907987E+06</totfact>
</mgrwt>
</event>
<event>
 4    1  0.2260076E+006  0.2579791E+02  0.7546771E-02  0.1649799E+00
         21   -1    0    0  503  502  0.00000000000E+00  0.00000000000E+00  0.43407312000E+01  0.43407312000E+01  0.00000000000E+00 0. -1.
         -2   -1    0    0    0  501 -0.00000000000E+00 -0.00000000000E+00 -0.10170643587E+04  0.10170643587E+04  0.00000000000E+00 0. -1.
         21    1    1    2  503  501  0.16547120187E+02 -0.19792047846E+02 -0.35725153110E+02  0.44066074356E+02  0.00000000000E+00 0. -1.
         -2    1    1    2    0  502 -0.16547120187E+02  0.19792047846E+02 -0.97699847439E+03  0.97733901554E+03  0.00000000000E+00 0. -1.
<mgrwt>
<rscale>  2 0.25797914E+02</rscale>
<asrwt>0</asrwt>
<pdfrwt beam="1">  1       21 0.66780330E-03 0.25797914E+02</pdfrwt>
<pdfrwt beam="2">  1       -2 0.15647179E+00 0.25797914E+02</pdfrwt>
<totfact> 0.13189895E+05</totfact>
</mgrwt>
</event>
<event>
 4    1  0.2260076E+006  0.2121088E+02  0.7546771E-02  0.1722268E+00
          1   -1    0    0  502    0 -0.00000000000E+00  0.00000000000E+00  0.57539404712E+03  0.57539404712E+03  0.00000000000E+00 0.  1.
         21   -1    0    0  503  502  0.00000000000E+00 -0.00000000000E+00 -0.27341741755E+01  0.27341741755E+01  0.00000000000E+00 0. -1.
         21    1    1    2  503  501 -0.20618737914E+02 -0.49768399424E+01  0.42070495735E+02  0.47115049616E+02  0.00000000000E+00 0. -1.
          1    1    1    2  501    0  0.20618737914E+02  0.49768399424E+01  0.53058937720E+03  0.53101317167E+03  0.00000000000E+00 0.  1.
<mgrwt>
<rscale>  2 0.21210877E+02</rscale>
<asrwt>0</asrwt>
<pdfrwt beam="2">  1       21 0.42064264E-03 0.21210877E+02</pdfrwt>
<pdfrwt beam="1">  1        1 0.88522065E-01 0.21210877E+02</pdfrwt>
<totfact> 0.42388327E+06</totfact>
</mgrwt>
</event>
<event>
 4    1  0.2260076E+006  0.3347194E+02  0.7546771E-02  0.1562604E+00
         21   -1    0    0  503  502  0.00000000000E+00  0.00000000000E+00  0.80108975016E+02  0.80108975016E+02  0.00000000000E+00 0.  1.
         -3   -1    0    0    0  501 -0.00000000000E+00 -0.00000000000E+00 -0.54269938859E+02  0.54269938859E+02  0.00000000000E+00 0.  1.
         21    1    1    2  503  501  0.22787262873E+02  0.24517572693E+02  0.70807668881E+02  0.78320474286E+02  0.00000000000E+00 0.  1.
         -3    1    1    2    0  502 -0.22787262873E+02 -0.24517572693E+02 -0.44968632725E+02  0.56058439589E+02  0.00000000000E+00 0.  1.
<mgrwt>
<rscale>  2 0.33471939E+02</rscale>
<asrwt>0</asrwt>
<pdfrwt beam="1">  1       21 0.12324458E-01 0.33471939E+02</pdfrwt>
<pdfrwt beam="2">  1       -3 0.83492214E-02 0.33471939E+02</pdfrwt>
<totfact> 0.20447675E+05</totfact>
</mgrwt>
</event>
<event>
 4    1  0.2260076E+006  0.2290669E+02  0.7546771E-02  0.1693027E+00
         21   -1    0    0  501  502  0.00000000000E+00  0.00000000000E+00  0.85314539833E+01  0.85314539833E+01  0.00000000000E+00 0.  1.
          2   -1    0    0  503    0 -0.00000000000E+00 -0.00000000000E+00 -0.23838680998E+03  0.23838680998E+03  0.00000000000E+00 0.  1.
         21    1    1    2  503  502  0.95136134358E+01 -0.20837652248E+02 -0.85806876466E+01  0.24461087308E+02  0.00000000000E+00 0.  1.
          2    1    1    2  501    0 -0.95136134358E+01  0.20837652248E+02 -0.22127466835E+03  0.22245717665E+03  0.00000000000E+00 0.  1.
<mgrwt>
<rscale>  2 0.22906693E+02</rscale>
<asrwt>0</asrwt>
<pdfrwt beam="1">  1       21 0.13125314E-02 0.22906693E+02</pdfrwt>
<pdfrwt beam="2">  1        2 0.36674893E-01 0.22906693E+02</pdfrwt>
<totfact> 0.29956796E+06</totfact>
</mgrwt>
</event>
<event>
 4    1  0.2260076E+006  0.2133796E+02  0.7546771E-02  0.1719960E+00
         21   -1    0    0  503  502  0.00000000000E+00  0.00000000000E+00  0.19570775377E+03  0.19570775377E+03  0.00000000000E+00 0.  1.
         -3   -1    0    0    0  501 -0.00000000000E+00 -0.00000000000E+00 -0.19340729291E+02  0.19340729291E+02  0.00000000000E+00 0.  1.
         21    1    1    2  503  501  0.98428704637E+01  0.18932147989E+02  0.18903364658E+03  0.19023413960E+03  0.00000000000E+00 0.  1.
         -3    1    1    2    0  502 -0.98428704637E+01 -0.18932147989E+02 -0.12666622101E+02  0.24814343470E+02  0.00000000000E+00 0.  1.
<mgrwt>
<rscale>  2 0.21337955E+02</rscale>
<asrwt>0</asrwt>
<pdfrwt beam="1">  1       21 0.30108884E-01 0.21337955E+02</pdfrwt>
<pdfrwt beam="2">  1       -3 0.29754970E-02 0.21337955E+02</pdfrwt>
<totfact> 0.18144526E+05</totfact>
</mgrwt>
</event>
<event>
 4    1  0.2260076E+006  0.2091940E+02  0.7546771E-02  0.1727639E+00
         21   -1    0    0  501  502  0.00000000000E+00  0.00000000000E+00  0.48978083698E+00  0.48978083698E+00  0.00000000000E+00 0.  1.
         -1   -1    0    0    0  501 -0.00000000000E+00 -0.00000000000E+00 -0.11589111734E+04  0.11589111734E+04  0.00000000000E+00 0.  1.
         21    1    1    2  503  502  0.18254243925E+01  0.20839604242E+02 -0.30179267254E+03  0.30251683999E+03  0.00000000000E+00 0.  1.
         -1    1    1    2    0  503 -0.18254243925E+01 -0.20839604242E+02 -0.85662872001E+03  0.85688411423E+03  0.00000000000E+00 0.  1.
<mgrwt>
<rscale>  2 0.20919400E+02</rscale>
<asrwt>0</asrwt>
<pdfrwt beam="1">  1       21 0.75351881E-04 0.20919400E+02</pdfrwt>
<pdfrwt beam="2">  1       -1 0.17829170E+00 0.20919400E+02</pdfrwt>
<totfact> 0.30147694E+06</totfact>
</mgrwt>
</event>
<event>
 4    1  0.2260076E+006  0.3838622E+02  0.7546771E-02  0.1520434E+00
         21   -1    0    0  501  502  0.00000000000E+00  0.00000000000E+00  0.97014357216E+01  0.97014357216E+01  0.00000000000E+00 0. -1.
          1   -1    0    0  503    0 -0.00000000000E+00 -0.00000000000E+00 -0.14367578892E+04  0.14367578892E+04  0.00000000000E+00 0.  1.
         21    1    1    2  503  502  0.30981420937E+02 -0.22663931513E+02 -0.29593708408E+02  0.48469472993E+02  0.00000000000E+00 0. -1.
          1    1    1    2  501    0 -0.30981420937E+02  0.22663931513E+02 -0.13974627451E+04  0.13979898519E+04  0.00000000000E+00 0.  1.
<mgrwt>
<rscale>  2 0.38386225E+02</rscale>
<asrwt>0</asrwt>
<pdfrwt beam="1">  1       21 0.14925296E-02 0.38386225E+02</pdfrwt>
<pdfrwt beam="2">  1        1 0.22103952E+00 0.38386225E+02</pdfrwt>
<totfact> 0.16903077E+05</totfact>
</mgrwt>
</event>
<event>
 4    1  0.2260076E+006  0.2506285E+02  0.7546771E-02  0.1660101E+00
         21   -1    0    0  503  502  0.00000000000E+00  0.00000000000E+00  0.33940188442E+00  0.33940188442E+00  0.00000000000E+00 0.  1.
          2   -1    0    0  502    0 -0.00000000000E+00 -0.00000000000E+00 -0.20523066948E+04  0.20523066948E+04  0.00000000000E+00 0. -1.
         21    1    1    2  503  501 -0.17890852750E+02 -0.17551747716E+02 -0.70434622434E+03  0.70479199073E+03  0.00000000000E+00 0.  1.
          2    1    1    2  501    0  0.17890852750E+02  0.17551747716E+02 -0.13476210686E+04  0.13478541060E+04  0.00000000000E+00 0. -1.
<mgrwt>
<rscale>  2 0.25062850E+02</rscale>
<asrwt>0</asrwt>
<pdfrwt beam="1">  1       21 0.52216931E-04 0.25062850E+02</pdfrwt>
<pdfrwt beam="2">  1        2 0.31573189E+00 0.25062850E+02</pdfrwt>
<totfact> 0.23265686E+07</totfact>
</mgrwt>
</event>
<event>
 4    1  0.2260076E+006  0.3557823E+02  0.7546771E-02  0.1543525E+00
         21   -1    0    0  503  502  0.00000000000E+00  0.00000000000E+00  0.74354676468E+01  0.74354676468E+01  0.00000000000E+00 0.  1.
         -4   -1    0    0    0  501 -0.00000000000E+00 -0.00000000000E+00 -0.17179811899E+03  0.17179811899E+03  0.00000000000E+00 0. -1.
         21    1    1    2  503  501  0.34525969065E+02  0.85888119195E+01 -0.90717266305E+02  0.97444510548E+02  0.00000000000E+00 0.  1.
         -4    1    1    2    0  502 -0.34525969065E+02 -0.85888119195E+01 -0.73645385037E+02  0.81789076088E+02  0.00000000000E+00 0. -1.
<mgrwt>
<rscale>  2 0.35578227E+02</rscale>
<asrwt>0</asrwt>
<pdfrwt beam="1">  1       21 0.11439182E-02 0.35578227E+02</pdfrwt>
<pdfrwt beam="2">  1       -4 0.26430477E-01 0.35578227E+02</pdfrwt>
<totfact> 0.11260747E+06</totfact>
</mgrwt>
</event>
<event>
 4    1  0.2260076E+006  0.2612481E+02  0.7546771E-02  0.1645352E+00
          1   -1    0    0  503    0 -0.00000000000E+00  0.00000000000E+00  0.13283161724E+04  0.13283161724E+04  0.00000000000E+00 0. -1.
         21   -1    0    0  501  502  0.00000000000E+00 -0.00000000000E+00 -0.45286473161E+01  0.45286473161E+01  0.00000000000E+00 0. -1.
         21    1    1    2  503  502 -0.25284404669E+02 -0.65730085281E+01  0.34414786388E+02  0.43207442446E+02  0.00000000000E+00 0. -1.
          1    1    1    2  501    0  0.25284404669E+02  0.65730085281E+01  0.12893727387E+04  0.12896373773E+04  0.00000000000E+00 0. -1.
<mgrwt>
<rscale>  2 0.26124807E+02</rscale>
<asrwt>0</asrwt>
<pdfrwt beam="2">  1       21 0.69671603E-03 0.26124807E+02</pdfrwt>
<pdfrwt beam="1">  1        1 0.20435602E+00 0.26124807E+02</pdfrwt>
<totfact> 0.60532778E+05</totfact>
</mgrwt>
</event>
<event>
 4    1  0.2260076E+006  0.2636786E+02  0.7546771E-02  0.1642098E+00
         21   -1    0    0  503  502  0.00000000000E+00  0.00000000000E+00  0.97164013555E+01  0.97164013555E+01  0.00000000000E+00 0.  1.
         -1   -1    0    0    0  501 -0.00000000000E+00 -0.00000000000E+00 -0.12502761111E+03  0.12502761111E+03  0.00000000000E+00 0. -1.
         21    1    1    2  503  501  0.19055207031E+02 -0.18225343570E+02 -0.13596131833E+02  0.29666797334E+02  0.00000000000E+00 0.  1.
         -1    1    1    2    0  502 -0.19055207031E+02  0.18225343570E+02 -0.10171507793E+03  0.10507721514E+03  0.00000000000E+00 0. -1.
<mgrwt>
<rscale>  2 0.26367860E+02</rscale>
<asrwt>0</asrwt>
<pdfrwt beam="1">  1       21 0.14948310E-02 0.26367860E+02</pdfrwt>
<pdfrwt beam="2">  1       -1 0.19235017E-01 0.26367860E+02</pdfrwt>
<totfact> 0.27068374E+06</totfact>
</mgrwt>
</event>
<event>
 4    1  0.2260076E+006  0.2629722E+02  0.7546771E-02  0.1643039E+00
          4   -1    0    0  503    0 -0.00000000000E+00  0.00000000000E+00  0.23494520180E+03  0.23494520180E+03  0.00000000000E+00 0. -1.
         21   -1    0    0  501  502  0.00000000000E+00 -0.00000000000E+00 -0.68255790996E+01  0.68255790996E+01  0.00000000000E+00 0. -1.
         21    1    1    2  503  502 -0.15689775463E+02 -0.21103902403E+02  0.22892234813E+02  0.34865429374E+02  0.00000000000E+00 0. -1.
          4    1    1    2  501    0  0.15689775463E+02  0.21103902403E+02  0.20522738789E+03  0.20690535153E+03  0.00000000000E+00 0. -1.
<mgrwt>
<rscale>  2 0.26297219E+02</rscale>
<asrwt>0</asrwt>
<pdfrwt beam="2">  1       21 0.10500893E-02 0.26297219E+02</pdfrwt>
<pdfrwt beam="1">  1        4 0.36145410E-01 0.26297219E+02</pdfrwt>
<totfact> 0.64769677E+05</totfact>
</mgrwt>
</event>
<event>
 4    1  0.2260076E+006  0.2003702E+02  0.7546771E-02  0.1744593E+00
         21   -1    0    0  501  502  0.00000000000E+00  0.00000000000E+00  0.19478645904E+02  0.19478645904E+02  0.00000000000E+00 0. -1.
         -2   -1    0    0    0  501 -0.00000000000E+00 -0.00000000000E+00 -0.49311809804E+02  0.49311809804E+02  0.00000000000E+00 0. -1.
         21    1    1    2  503  502  0.53524294529E+01  0.19308896187E+02  0.11323600010E+02  0.23015340323E+02  0.00000000000E+00 0. -1.
         -2    1    1    2    0  503 -0.53524294529E+01 -0.19308896187E+02 -0.41156763910E+02  0.45775115385E+02  0.00000000000E+00 0. -1.
<mgrwt>
<rscale>  2 0.20037015E+02</rscale>
<asrwt>0</asrwt>
<pdfrwt beam="1">  1       21 0.29967148E-02 0.20037015E+02</pdfrwt>
<pdfrwt beam="2">  1       -2 0.75864322E-02 0.20037015E+02</pdfrwt>
<totfact> 0.32373844E+06</totfact>
</mgrwt>
</event>
<event>
 4    1  0.2260076E+006  0.2031584E+02  0.7546771E-02  0.1739119E+00
          2   -1    0    0  502    0 -0.00000000000E+00  0.00000000000E+00  0.73559972802E+02  0.73559972802E+02  0.00000000000E+00 0.  1.
         21   -1    0    0  503  502  0.00000000000E+00 -0.00000000000E+00 -0.13748090880E+02  0.13748090880E+02  0.00000000000E+00 0.  1.
         21    1    1    2  503  501 -0.16742651204E+02 -0.11507265391E+02 -0.36787929754E+01  0.20646235586E+02  0.00000000000E+00 0.  1.
          2    1    1    2  501    0  0.16742651204E+02  0.11507265391E+02  0.63490674898E+02  0.66661828096E+02  0.00000000000E+00 0.  1.
<mgrwt>
<rscale>  2 0.20315844E+02</rscale>
<asrwt>0</asrwt>
<pdfrwt beam="2">  1       21 0.21150909E-02 0.20315844E+02</pdfrwt>
<pdfrwt beam="1">  1        2 0.11316919E-01 0.20315844E+02</pdfrwt>
<totfact> 0.48639633E+06</totfact>
</mgrwt>
</event>
<event>
 4    1  0.2260076E+006  0.2850150E+02  0.7546771E-02  0.1615269E+00
          4   -1    0    0  502    0 -0.00000000000E+00  0.00000000000E+00  0.47843978829E+01  0.47843978829E+01  0.00000000000E+00 0. -1.
         21   -1    0    0  503  502  0.00000000000E+00 -0.00000000000E+00 -0.31360599839E+03  0.31360599839E+03  0.00000000000E+00 0.  1.
         21    1    1    2  503  501  0.20836048723E+02  0.19447223861E+02 -0.26221700131E+03  0.26376142861E+03  0.00000000000E+00 0.  1.
          4    1    1    2  501    0 -0.20836048723E+02 -0.19447223861E+02 -0.46604599189E+02  0.54628967663E+02  0.00000000000E+00 0. -1.
<mgrwt>
<rscale>  2 0.28501499E+02</rscale>
<asrwt>0</asrwt>
<pdfrwt beam="2">  1       21 0.48247091E-01 0.28501499E+02</pdfrwt>
<pdfrwt beam="1">  1        4 0.73606099E-03 0.28501499E+02</pdfrwt>
<totfact> 0.53644812E+05</totfact>
</mgrwt>
</event>
<event>
 4    1  0.2260076E+006  0.2654510E+02  0.7546771E-02  0.1639752E+00
          1   -1    0    0  502    0 -0.00000000000E+00  0.00000000000E+00  0.11767248404E+04  0.11767248404E+04  0.00000000000E+00 0.  1.
         21   -1    0    0  503  502  0.00000000000E+00 -0.00000000000E+00 -0.33394645626E+01  0.33394645626E+01  0.00000000000E+00 0. -1.
         21    1    1    2  503  501  0.73875811539E+01  0.25496395146E+02  0.52172791954E+02  0.58537532755E+02  0.00000000000E+00 0. -1.
          1    1    1    2  501    0 -0.73875811539E+01 -0.25496395146E+02  0.11212125839E+04  0.11215267722E+04  0.00000000000E+00 0.  1.
<mgrwt>
<rscale>  2 0.26545104E+02</rscale>
<asrwt>0</asrwt>
<pdfrwt beam="2">  1       21 0.51376472E-03 0.26545104E+02</pdfrwt>
<pdfrwt beam="1">  1        1 0.18103426E+00 0.26545104E+02</pdfrwt>
<totfact> 0.11879552E+06</totfact>
</mgrwt>
</event>
<event>
 4    1  0.2260076E+006  0.2276103E+02  0.7546771E-02  0.1695413E+00
         21   -1    0    0  503  502  0.00000000000E+00  0.00000000000E+00  0.11472489425E+03  0.11472489425E+03  0.00000000000E+00 0. -1.
          4   -1    0    0  502    0 -0.00000000000E+00 -0.00000000000E+00 -0.13050394838E+03  0.13050394838E+03  0.00000000000E+00 0. -1.
         21    1    1    2  503  501 -0.10144729869E+02 -0.20375204905E+02  0.11258486025E+03  0.11486259303E+03  0.00000000000E+00 0. -1.
          4    1    1    2  501    0  0.10144729869E+02  0.20375204905E+02 -0.12836391439E+03  0.13036624960E+03  0.00000000000E+00 0. -1.
<mgrwt>
<rscale>  2 0.22761031E+02</rscale>
<asrwt>0</asrwt>
<pdfrwt beam="1">  1       21 0.17649984E-01 0.22761031E+02</pdfrwt>
<pdfrwt beam="2">  1        4 0.20077531E-01 0.22761031E+02</pdfrwt>
<totfact> 0.19540465E+04</totfact>
</mgrwt>
</event>
<event>
 4    1  0.2260076E+006  0.2366489E+02  0.7546771E-02  0.1680954E+00
         21   -1    0    0  501  502  0.00000000000E+00  0.00000000000E+00  0.41751133329E+01  0.41751133329E+01  0.00000000000E+00 0. -1.
         -3   -1    0    0    0  501 -0.00000000000E+00 -0.00000000000E+00 -0.21669370944E+03  0.21669370944E+03  0.00000000000E+00 0. -1.
         21    1    1    2  503  502 -0.90284984542E+01  0.21874948503E+02 -0.38093932380E+02  0.44846124030E+02  0.00000000000E+00 0. -1.
         -3    1    1    2    0  503  0.90284984542E+01 -0.21874948503E+02 -0.17442466373E+03  0.17602269874E+03  0.00000000000E+00 0. -1.
<mgrwt>
<rscale>  2 0.23664893E+02</rscale>
<asrwt>0</asrwt>
<pdfrwt beam="1">  1       21 0.64232498E-03 0.23664893E+02</pdfrwt>
<pdfrwt beam="2">  1       -3 0.33337501E-01 0.23664893E+02</pdfrwt>
<totfact> 0.19210210E+06</totfact>
</mgrwt>
</event>
<event>
 4    1  0.2260076E+006  0.3845084E+02  0.7546771E-02  0.1519931E+00
          2   -1    0    0  503    0 -0.00000000000E+00  0.00000000000E+00  0.13465001697E+04  0.13465001697E+04  0.00000000000E+00 0.  1.
         21   -1    0    0  501  502  0.00000000000E+00 -0.00000000000E+00 -0.86001727047E+01  0.86001727047E+01  0.00000000000E+00 0.  1.
         21    1    1    2  503  502 -0.13779992425E+02 -0.35896779897E+02  0.36128549307E+02  0.52761151174E+02  0.00000000000E+00 0.  1.
          2    1    1    2  501    0  0.13779992425E+02  0.35896779897E+02  0.13017714477E+04  0.13023391912E+04  0.00000000000E+00 0.  1.
<mgrwt>
<rscale>  2 0.38450839E+02</rscale>
<asrwt>0</asrwt>
<pdfrwt beam="2">  1       21 0.13231046E-02 0.38450839E+02</pdfrwt>
<pdfrwt beam="1">  1        2 0.20715371E+00 0.38450839E+02</pdfrwt>
<totfact> 0.46686138E+05</totfact>
</mgrwt>
</event>
<event>
 4    1  0.2260076E+006  0.2268294E+02  0.7546771E-02  0.1696702E+00
         21   -1    0    0  501  502  0.00000000000E+00  0.00000000000E+00  0.12315552318E+04  0.12315552318E+04  0.00000000000E+00 0.  1.
         -2   -1    0    0    0  501 -0.00000000000E+00 -0.00000000000E+00 -0.28031666598E+01  0.28031666598E+01  0.00000000000E+00 0. -1.
         21    1    1    2  503  502  0.22030569311E+02 -0.54008883456E+01  0.11837091903E+04  0.11839265023E+04  0.00000000000E+00 0.  1.
         -2    1    1    2    0  503 -0.22030569311E+02  0.54008883456E+01  0.45042874818E+02  0.50431896167E+02  0.00000000000E+00 0. -1.
<mgrwt>
<rscale>  2 0.22682936E+02</rscale>
<asrwt>0</asrwt>
<pdfrwt beam="1">  1       21 0.18946960E+00 0.22682936E+02</pdfrwt>
<pdfrwt beam="2">  1       -2 0.43125739E-03 0.22682936E+02</pdfrwt>
<totfact> 0.78693147E+04</totfact>
</mgrwt>
</event>
<event>
 4    1  0.2260076E+006  0.2459906E+02  0.7546771E-02  0.1666828E+00
         -3   -1    0    0    0  501 -0.00000000000E+00  0.00000000000E+00  0.31762491907E+03  0.31762491907E+03  0.00000000000E+00 0.  1.
         21   -1    0    0  501  502  0.00000000000E+00 -0.00000000000E+00 -0.14924757198E+02  0.14924757198E+02  0.00000000000E+00 0. -1.
         21    1    1    2  503  502  0.10543196562E+02  0.22225091195E+02 -0.39502328128E+01  0.24914213045E+02  0.00000000000E+00 0. -1.
         -3    1    1    2    0  503 -0.10543196562E+02 -0.22225091195E+02  0.30665039469E+03  0.30763546323E+03  0.00000000000E+00 0.  1.
<mgrwt>
<rscale>  2 0.24599058E+02</rscale>
<asrwt>0</asrwt>
<pdfrwt beam="2">  1       21 0.22961167E-02 0.24599058E+02</pdfrwt>
<pdfrwt beam="1">  1       -3 0.48865367E-01 0.24599058E+02</pdfrwt>
<totfact> 0.13984170E+05</totfact>
</mgrwt>
</event>
<event>
 4    1  0.2260076E+006  0.2413355E+02  0.7546771E-02  0.1673768E+00
          2   -1    0    0  503    0 -0.00000000000E+00  0.00000000000E+00  0.31438343958E+03  0.31438343958E+03  0.00000000000E+00 0.  1.
         21   -1    0    0  501  502  0.00000000000E+00 -0.00000000000E+00 -0.21638371069E+01  0.21638371069E+01  0.00000000000E+00 0.  1.
         21    1    1    2  503  502  0.18251966125E+02  0.15789043007E+02  0.96083869223E+02  0.99068350503E+02  0.00000000000E+00 0.  1.
          2    1    1    2  501    0 -0.18251966125E+02 -0.15789043007E+02  0.21613573325E+03  0.21747892619E+03  0.00000000000E+00 0.  1.
<mgrwt>
<rscale>  2 0.24133548E+02</rscale>
<asrwt>0</asrwt>
<pdfrwt beam="2">  1       21 0.33289827E-03 0.24133548E+02</pdfrwt>
<pdfrwt beam="1">  1        2 0.48366647E-01 0.24133548E+02</pdfrwt>
<totfact> 0.17768782E+07</totfact>
</mgrwt>
</event>
<event>
 4    1  0.2260076E+006  0.2108602E+02  0.7546771E-02  0.1724556E+00
         21   -1    0    0  501  502  0.00000000000E+00  0.00000000000E+00  0.52206941391E+02  0.52206941391E+02  0.00000000000E+00 0.  1.
         -2   -1    0    0    0  501 -0.00000000000E+00 -0.00000000000E+00 -0.61025402884E+02  0.61025402884E+02  0.00000000000E+00 0. -1.
         21    1    1    2  503  502 -0.20722384694E+02  0.38991216724E+01  0.48107979821E+02  0.52526165858E+02  0.00000000000E+00 0.  1.
         -2    1    1    2    0  503  0.20722384694E+02 -0.38991216724E+01 -0.56926441314E+02  0.60706178417E+02  0.00000000000E+00 0. -1.
<mgrwt>
<rscale>  2 0.21086023E+02</rscale>
<asrwt>0</asrwt>
<pdfrwt beam="1">  1       21 0.80318372E-02 0.21086023E+02</pdfrwt>
<pdfrwt beam="2">  1       -2 0.93885235E-02 0.21086023E+02</pdfrwt>
<totfact> 0.50343947E+05</totfact>
</mgrwt>
</event>
<event>
 4    1  0.2260076E+006  0.3189865E+02  0.7546771E-02  0.1578002E+00
         -2   -1    0    0    0  501 -0.00000000000E+00  0.00000000000E+00  0.67991838999E+02  0.67991838999E+02  0.00000000000E+00 0.  1.
         21   -1    0    0  501  502  0.00000000000E+00 -0.00000000000E+00 -0.63522249484E+03  0.63522249484E+03  0.00000000000E+00 0. -1.
         21    1    1    2  503  502  0.31738820974E+02  0.31892162401E+01 -0.63105600352E+03  0.63186169645E+03  0.00000000000E+00 0. -1.
         -2    1    1    2    0  503 -0.31738820974E+02 -0.31892162401E+01  0.63825347677E+02  0.71352637395E+02  0.00000000000E+00 0.  1.
<mgrwt>
<rscale>  2 0.31898650E+02</rscale>
<asrwt>0</asrwt>
<pdfrwt beam="2">  1       21 0.97726534E-01 0.31898650E+02</pdfrwt>
<pdfrwt beam="1">  1       -2 0.10460283E-01 0.31898650E+02</pdfrwt>
<totfact> 0.44163024E+03</totfact>
</mgrwt>
</event>
<event>
 4    1  0.2260076E+006  0.2917475E+02  0.7546771E-02  0.1607394E+00
         21   -1    0    0  503  502  0.00000000000E+00  0.00000000000E+00  0.78685228170E+02  0.78685228170E+02  0.00000000000E+00 0. -1.
         -2   -1    0    0    0  501 -0.00000000000E+00 -0.00000000000E+00 -0.16325602257E+02  0.16325602257E+02  0.00000000000E+00 0.  1.
         21    1    1    2  503  501  0.23347283188E+02  0.17494872858E+02  0.58773843757E+02  0.65616544549E+02  0.00000000000E+00 0. -1.
         -2    1    1    2    0  502 -0.23347283188E+02 -0.17494872858E+02  0.35857821559E+01  0.29394285878E+02  0.00000000000E+00 0.  1.
<mgrwt>
<rscale>  2 0.29174753E+02</rscale>
<asrwt>0</asrwt>
<pdfrwt beam="1">  1       21 0.12105420E-01 0.29174753E+02</pdfrwt>
<pdfrwt beam="2">  1       -2 0.25116312E-02 0.29174753E+02</pdfrwt>
<totfact> 0.17984643E+06</totfact>
</mgrwt>
</event>
<event>
 4    1  0.2260076E+006  0.2628117E+02  0.7546771E-02  0.1643254E+00
         21   -1    0    0  501  502  0.00000000000E+00  0.00000000000E+00  0.32721955172E+01  0.32721955172E+01  0.00000000000E+00 0.  1.
         -4   -1    0    0    0  501 -0.00000000000E+00 -0.00000000000E+00 -0.27614718026E+03  0.27614718026E+03  0.00000000000E+00 0.  1.
         21    1    1    2  503  502 -0.22229808082E+02 -0.14019112396E+02 -0.68621477903E+02  0.73482018952E+02  0.00000000000E+00 0.  1.
         -4    1    1    2    0  503  0.22229808082E+02  0.14019112396E+02 -0.20425350684E+03  0.20593735683E+03  0.00000000000E+00 0.  1.
<mgrwt>
<rscale>  2 0.26281170E+02</rscale>
<asrwt>0</asrwt>
<pdfrwt beam="1">  1       21 0.50341481E-03 0.26281170E+02</pdfrwt>
<pdfrwt beam="2">  1       -4 0.42484172E-01 0.26281170E+02</pdfrwt>
<totfact> 0.14351493E+06</totfact>
</mgrwt>
</event>
<event>
 4    1  0.2260076E+006  0.2025872E+02  0.7546771E-02  0.1740231E+00
         21   -1    0    0  501  502  0.00000000000E+00  0.00000000000E+00  0.38989078143E+01  0.38989078143E+01  0.00000000000E+00 0.  1.
          1   -1    0    0  503    0 -0.00000000000E+00 -0.00000000000E+00 -0.15056995302E+03  0.15056995302E+03  0.00000000000E+00 0.  1.
         21    1    1    2  503  502 -0.21112442072E+01 -0.20148412457E+02 -0.30969480256E+02  0.37007088293E+02  0.00000000000E+00 0.  1.
          1    1    1    2  501    0  0.21112442072E+01  0.20148412457E+02 -0.11570156495E+03  0.11746177254E+03  0.00000000000E+00 0.  1.
<mgrwt>
<rscale>  2 0.20258723E+02</rscale>
<asrwt>0</asrwt>
<pdfrwt beam="1">  1       21 0.59983187E-03 0.20258723E+02</pdfrwt>
<pdfrwt beam="2">  1        1 0.23164612E-01 0.20258723E+02</pdfrwt>
<totfact> 0.11844429E+07</totfact>
</mgrwt>
</event>
<event>
 4    1  0.2260076E+006  0.2089406E+02  0.7546771E-02  0.1728112E+00
         -2   -1    0    0    0  501 -0.00000000000E+00  0.00000000000E+00  0.24930435826E+02  0.24930435826E+02  0.00000000000E+00 0.  1.
         21   -1    0    0  501  502  0.00000000000E+00 -0.00000000000E+00 -0.21523512849E+02  0.21523512849E+02  0.00000000000E+00 0.  1.
         21    1    1    2  503  502 -0.55015357774E+01 -0.20156754848E+02 -0.83249896083E+01  0.22491489810E+02  0.00000000000E+00 0.  1.
         -2    1    1    2    0  503  0.55015357774E+01  0.20156754848E+02  0.11731912586E+02  0.23962458864E+02  0.00000000000E+00 0.  1.
<mgrwt>
<rscale>  2 0.20894058E+02</rscale>
<asrwt>0</asrwt>
<pdfrwt beam="2">  1       21 0.33113097E-02 0.20894058E+02</pdfrwt>
<pdfrwt beam="1">  1       -2 0.38354517E-02 0.20894058E+02</pdfrwt>
<totfact> 0.74029410E+06</totfact>
</mgrwt>
</event>
<event>
 4    1  0.2260076E+006  0.2331728E+02  0.7546771E-02  0.1686418E+00
          1   -1    0    0  502    0 -0.00000000000E+00  0.00000000000E+00  0.13025401352E+04  0.13025401352E+04  0.00000000000E+00 0.  1.
         21   -1    0    0  503  502  0.00000000000E+00 -0.00000000000E+00 -0.10879922214E+01  0.10879922214E+01  0.00000000000E+00 0. -1.
         21    1    1    2  503  501  0.20989136222E+02 -0.10156354051E+02  0.13900143085E+03  0.14094358143E+03  0.00000000000E+00 0. -1.
          1    1    1    2  501    0 -0.20989136222E+02  0.10156354051E+02  0.11624507121E+04  0.11626845460E+04  0.00000000000E+00 0.  1.
<mgrwt>
<rscale>  2 0.23317276E+02</rscale>
<asrwt>0</asrwt>
<pdfrwt beam="2">  1       21 0.16738446E-03 0.23317276E+02</pdfrwt>
<pdfrwt beam="1">  1        1 0.20038954E+00 0.23317276E+02</pdfrwt>
<totfact> 0.49775409E+06</totfact>
</mgrwt>
</event>
<event>
 4    1  0.2260076E+006  0.2159121E+02  0.7546771E-02  0.1715419E+00
          2   -1    0    0  502    0 -0.00000000000E+00  0.00000000000E+00  0.18035186966E+03  0.18035186966E+03  0.00000000000E+00 0.  1.
         21   -1    0    0  503  502  0.00000000000E+00 -0.00000000000E+00 -0.26086257064E+01  0.26086257064E+01  0.00000000000E+00 0.  1.
         21    1    1    2  503  501  0.16111561579E+02 -0.14373510904E+02  0.80135785282E+02  0.82993519717E+02  0.00000000000E+00 0.  1.
          2    1    1    2  501    0 -0.16111561579E+02  0.14373510904E+02  0.97607458672E+02  0.99966975650E+02  0.00000000000E+00 0.  1.
<mgrwt>
<rscale>  2 0.21591207E+02</rscale>
<asrwt>0</asrwt>
<pdfrwt beam="2">  1       21 0.40132717E-03 0.21591207E+02</pdfrwt>
<pdfrwt beam="1">  1        2 0.27746432E-01 0.21591207E+02</pdfrwt>
<totfact> 0.22732659E+07</totfact>
</mgrwt>
</event>
<event>
 4    1  0.2260076E+006  0.2148163E+02  0.7546771E-02  0.1717374E+00
         21   -1    0    0  501  502  0.00000000000E+00  0.00000000000E+00  0.16630665413E+02  0.16630665413E+02  0.00000000000E+00 0. -1.
          1   -1    0    0  503    0 -0.00000000000E+00 -0.00000000000E+00 -0.65185685856E+02  0.65185685856E+02  0.00000000000E+00 0.  1.
         21    1    1    2  503  502 -0.78277535818E+01 -0.20004669506E+02  0.67245812077E+01  0.22509565091E+02  0.00000000000E+00 0. -1.
          1    1    1    2  501    0  0.78277535818E+01  0.20004669506E+02 -0.55279601651E+02  0.59306786179E+02  0.00000000000E+00 0.  1.
<mgrwt>
<rscale>  2 0.21481632E+02</rscale>
<asrwt>0</asrwt>
<pdfrwt beam="1">  1       21 0.25585639E-02 0.21481632E+02</pdfrwt>
<pdfrwt beam="2">  1        1 0.10028567E-01 0.21481632E+02</pdfrwt>
<totfact> 0.37176946E+06</totfact>
</mgrwt>
</event>
<event>
 4    1  0.2260076E+006  0.2020171E+02  0.7546771E-02  0.1741346E+00
         -3   -1    0    0    0  501 -0.00000000000E+00  0.00000000000E+00  0.57835932737E+02  0.57835932737E+02  0.00000000000E+00 0. -1.
         21   -1    0    0  501  502  0.00000000000E+00 -0.00000000000E+00 -0.37067835708E+03  0.37067835708E+03  0.00000000000E+00 0.  1.
         21    1    1    2  503  502 -0.19716331790E+02 -0.44017367322E+01 -0.36862923284E+03  0.36918236731E+03  0.00000000000E+00 0.  1.
         -3    1    1    2    0  503  0.19716331790E+02  0.44017367322E+01  0.55786808502E+02  0.59331922507E+02  0.00000000000E+00 0. -1.
<mgrwt>
<rscale>  2 0.20201708E+02</rscale>
<asrwt>0</asrwt>
<pdfrwt beam="2">  1       21 0.57027438E-01 0.20201708E+02</pdfrwt>
<pdfrwt beam="1">  1       -3 0.88978361E-02 0.20201708E+02</pdfrwt>
<totfact> 0.10323760E+04</totfact>
</mgrwt>
</event>
<event>
 4    1  0.2260076E+006  0.2894786E+02  0.7546771E-02  0.1610018E+00
          3   -1    0    0  502    0 -0.00000000000E+00  0.00000000000E+00  0.81186333996E+03  0.81186333996E+03  0.00000000000E+00 0. -1.
         21   -1    0    0  503  502  0.00000000000E+00 -0.00000000000E+00 -0.67542594845E+02  0.67542594845E+02  0.00000000000E+00 0. -1.
         21    1    1    2  503  501  0.27823042941E+02  0.79910647810E+01 -0.64169950391E+02  0.70397168750E+02  0.00000000000E+00 0. -1.
          3    1    1    2  501    0 -0.27823042941E+02 -0.79910647810E+01  0.80849069550E+03  0.80900876605E+03  0.00000000000E+00 0. -1.
<mgrwt>
<rscale>  2 0.28947864E+02</rscale>
<asrwt>0</asrwt>
<pdfrwt beam="2">  1       21 0.10391169E-01 0.28947864E+02</pdfrwt>
<pdfrwt beam="1">  1        3 0.12490205E+00 0.28947864E+02</pdfrwt>
<totfact> 0.18337156E+03</totfact>
</mgrwt>
</event>
<event>
 4    1  0.2260076E+006  0.3789701E+02  0.7546771E-02  0.1524283E+00
         21   -1    0    0  501  502  0.00000000000E+00  0.00000000000E+00  0.10189293618E+02  0.10189293618E+02  0.00000000000E+00 0. -1.
          1   -1    0    0  503    0 -0.00000000000E+00 -0.00000000000E+00 -0.17902838204E+03  0.17902838204E+03  0.00000000000E+00 0. -1.
         21    1    1    2  503  502 -0.11251031358E+02  0.36188367846E+02 -0.40787207199E+02  0.55675667442E+02  0.00000000000E+00 0. -1.
          1    1    1    2  501    0  0.11251031358E+02 -0.36188367846E+02 -0.12805188122E+03  0.13354200822E+03  0.00000000000E+00 0. -1.
<mgrwt>
<rscale>  2 0.37897014E+02</rscale>
<asrwt>0</asrwt>
<pdfrwt beam="1">  1       21 0.15675838E-02 0.37897014E+02</pdfrwt>
<pdfrwt beam="2">  1        1 0.27542826E-01 0.37897014E+02</pdfrwt>
<totfact> 0.26459440E+06</totfact>
</mgrwt>
</event>
<event>
 4    1  0.2260076E+006  0.4029609E+02  0.7546771E-02  0.1506044E+00
          2   -1    0    0  503    0 -0.00000000000E+00  0.00000000000E+00  0.24160593819E+03  0.24160593819E+03  0.00000000000E+00 0.  1.
         21   -1    0    0  501  502  0.00000000000E+00 -0.00000000000E+00 -0.72117264266E+01  0.72117264266E+01  0.00000000000E+00 0. -1.
         21    1    1    2  503  502  0.40262510162E+02 -0.16448227652E+01  0.84736386063E+02  0.93829794253E+02  0.00000000000E+00 0. -1.
          2    1    1    2  501    0 -0.40262510162E+02  0.16448227652E+01  0.14965782570E+03  0.15498787036E+03  0.00000000000E+00 0.  1.
<mgrwt>
<rscale>  2 0.40296094E+02</rscale>
<asrwt>0</asrwt>
<pdfrwt beam="2">  1       21 0.11094966E-02 0.40296094E+02</pdfrwt>
<pdfrwt beam="1">  1        2 0.37170138E-01 0.40296094E+02</pdfrwt>
<totfact> 0.43161359E+06</totfact>
</mgrwt>
</event>
<event>
 4    1  0.2260076E+006  0.2395150E+02  0.7546771E-02  0.1676535E+00
         21   -1    0    0  501  502  0.00000000000E+00  0.00000000000E+00  0.49838659818E+01  0.49838659818E+01  0.00000000000E+00 0. -1.
          2   -1    0    0  503    0 -0.00000000000E+00 -0.00000000000E+00 -0.12005720433E+03  0.12005720433E+03  0.00000000000E+00 0. -1.
         21    1    1    2  503  502 -0.19835352425E+01 -0.23869226671E+02 -0.44840559787E+02  0.50836504560E+02  0.00000000000E+00 0. -1.
          2    1    1    2  501    0  0.19835352425E+01  0.23869226671E+02 -0.70232778563E+02  0.74204565753E+02  0.00000000000E+00 0. -1.
<mgrwt>
<rscale>  2 0.23951501E+02</rscale>
<asrwt>0</asrwt>
<pdfrwt beam="1">  1       21 0.76674871E-03 0.23951501E+02</pdfrwt>
<pdfrwt beam="2">  1        2 0.18470337E-01 0.23951501E+02</pdfrwt>
<totfact> 0.13787621E+07</totfact>
</mgrwt>
</event>
<event>
 4    1  0.2260076E+006  0.2782810E+02  0.7546771E-02  0.1623416E+00
         21   -1    0    0  501  502  0.00000000000E+00  0.00000000000E+00  0.16280460689E+01  0.16280460689E+01  0.00000000000E+00 0.  1.
          2   -1    0    0  503    0 -0.00000000000E+00 -0.00000000000E+00 -0.12546976484E+04  0.12546976484E+04  0.00000000000E+00 0. -1.
         21    1    1    2  503  502 -0.85587510342E+01 -0.26479254413E+02 -0.13156263998E+03  0.13447353410E+03  0.00000000000E+00 0.  1.
          2    1    1    2  501    0  0.85587510342E+01  0.26479254413E+02 -0.11215069624E+04  0.11218521604E+04  0.00000000000E+00 0. -1.
<mgrwt>
<rscale>  2 0.27828100E+02</rscale>
<asrwt>0</asrwt>
<pdfrwt beam="1">  1       21 0.25046854E-03 0.27828100E+02</pdfrwt>
<pdfrwt beam="2">  1        2 0.19303047E+00 0.27828100E+02</pdfrwt>
<totfact> 0.59978413E+06</totfact>
</mgrwt>
</event>
<event>
 4    1  0.2260076E+006  0.3753609E+02  0.7546771E-02  0.1527168E+00
          1   -1    0    0  503    0 -0.00000000000E+00  0.00000000000E+00  0.11363028610E+03  0.11363028610E+03  0.00000000000E+00 0.  1.
         21   -1    0    0  501  502  0.00000000000E+00 -0.00000000000E+00 -0.14506665354E+02  0.14506665354E+02  0.00000000000E+00 0. -1.
         21    1    1    2  503  502  0.30030064429E+02 -0.22520070886E+02  0.25143801930E+02  0.45179299882E+02  0.00000000000E+00 0. -1.
          1    1    1    2  501    0 -0.30030064429E+02  0.22520070886E+02  0.73979818812E+02  0.82957651569E+02  0.00000000000E+00 0.  1.
<mgrwt>
<rscale>  2 0.37536094E+02</rscale>
<asrwt>0</asrwt>
<pdfrwt beam="2">  1       21 0.22317947E-02 0.37536094E+02</pdfrwt>
<pdfrwt beam="1">  1        1 0.17481582E-01 0.37536094E+02</pdfrwt>
<totfact> 0.26408237E+06</totfact>
</mgrwt>
</event>
<event>
 4    1  0.2260076E+006  0.2300314E+02  0.7546771E-02  0.1691459E+00
         21   -1    0    0  501  502  0.00000000000E+00  0.00000000000E+00  0.11681499871E+02  0.11681499871E+02  0.00000000000E+00 0. -1.
         -1   -1    0    0    0  501 -0.00000000000E+00 -0.00000000000E+00 -0.57785146455E+02  0.57785146455E+02  0.00000000000E+00 0. -1.
         21    1    1    2  503  502 -0.22870497463E+02  0.24667843333E+01 -0.69054258207E+01  0.24017276801E+02  0.00000000000E+00 0. -1.
         -1    1    1    2    0  503  0.22870497463E+02 -0.24667843333E+01 -0.39198220764E+02  0.45449369525E+02  0.00000000000E+00 0. -1.
<mgrwt>
<rscale>  2 0.23003145E+02</rscale>
<asrwt>0</asrwt>
<pdfrwt beam="1">  1       21 0.17971538E-02 0.23003145E+02</pdfrwt>
<pdfrwt beam="2">  1       -1 0.88900227E-02 0.23003145E+02</pdfrwt>
<totfact> 0.61317029E+06</totfact>
</mgrwt>
</event>
<event>
 4    1  0.2260076E+006  0.2047043E+02  0.7546771E-02  0.1736132E+00
          2   -1    0    0  502    0 -0.00000000000E+00  0.00000000000E+00  0.70175269789E+03  0.70175269789E+03  0.00000000000E+00 0.  1.
         21   -1    0    0  503  502  0.00000000000E+00 -0.00000000000E+00 -0.86484604018E+00  0.86484604018E+00  0.00000000000E+00 0.  1.
         21    1    1    2  503  501  0.19589783539E+02  0.59395977742E+01  0.15498486651E+03  0.15633089038E+03  0.00000000000E+00 0.  1.
          2    1    1    2  501    0 -0.19589783539E+02 -0.59395977742E+01  0.54590298534E+03  0.54628665355E+03  0.00000000000E+00 0.  1.
<mgrwt>
<rscale>  2 0.20470428E+02</rscale>
<asrwt>0</asrwt>
<pdfrwt beam="2">  1       21 0.13305380E-03 0.20470428E+02</pdfrwt>
<pdfrwt beam="1">  1        2 0.10796150E+00 0.20470428E+02</pdfrwt>
<totfact> 0.28231385E+07</totfact>
</mgrwt>
</event>
<event>
 4    1  0.2260076E+006  0.2160173E+02  0.7546771E-02  0.1715232E+00
          4   -1    0    0  502    0 -0.00000000000E+00  0.00000000000E+00  0.10749347110E+01  0.10749347110E+01  0.00000000000E+00 0. -1.
         21   -1    0    0  503  502  0.00000000000E+00 -0.00000000000E+00 -0.77792078998E+03  0.77792078998E+03  0.00000000000E+00 0.  1.
         21    1    1    2  503  501  0.96021287767E+01 -0.19350290486E+02 -0.64736358597E+03  0.64772389724E+03  0.00000000000E+00 0.  1.
          4    1    1    2  501    0 -0.96021287767E+01  0.19350290486E+02 -0.12948226930E+03  0.13127182745E+03  0.00000000000E+00 0. -1.
<mgrwt>
<rscale>  2 0.21601727E+02</rscale>
<asrwt>0</asrwt>
<pdfrwt beam="2">  1       21 0.11967976E+00 0.21601727E+02</pdfrwt>
<pdfrwt beam="1">  1        4 0.16537507E-03 0.21601727E+02</pdfrwt>
<totfact> 0.59881973E+05</totfact>
</mgrwt>
</event>
<event>
 4    1  0.2260076E+006  0.3256886E+02  0.7546771E-02  0.1571314E+00
          1   -1    0    0  503    0 -0.00000000000E+00  0.00000000000E+00  0.99901240645E+03  0.99901240645E+03  0.00000000000E+00 0. -1.
         21   -1    0    0  501  502  0.00000000000E+00 -0.00000000000E+00 -0.25358375529E+02  0.25358375529E+02  0.00000000000E+00 0.  1.
         21    1    1    2  503  502 -0.20169964096E+02 -0.25571530989E+02 -0.14520874118E+02  0.35659310620E+02  0.00000000000E+00 0.  1.
          1    1    1    2  501    0  0.20169964096E+02  0.25571530989E+02  0.98817490503E+03  0.98871147135E+03  0.00000000000E+00 0. -1.
<mgrwt>
<rscale>  2 0.32568860E+02</rscale>
<asrwt>0</asrwt>
<pdfrwt beam="2">  1       21 0.39012893E-02 0.32568860E+02</pdfrwt>
<pdfrwt beam="1">  1        1 0.15369419E+00 0.32568860E+02</pdfrwt>
<totfact> 0.71042845E+04</totfact>
</mgrwt>
</event>
<event>
 4    1  0.2260076E+006  0.3157531E+02  0.7546771E-02  0.1581301E+00
          2   -1    0    0  503    0 -0.00000000000E+00  0.00000000000E+00  0.10535518329E+03  0.10535518329E+03  0.00000000000E+00 0. -1.
         21   -1    0    0  501  502  0.00000000000E+00 -0.00000000000E+00 -0.11258049686E+03  0.11258049686E+03  0.00000000000E+00 0. -1.
         21    1    1    2  503  502 -0.81472720240E+01  0.30506095646E+02 -0.10790020734E+03  0.11242532925E+03  0.00000000000E+00 0. -1.
          2    1    1    2  501    0  0.81472720240E+01 -0.30506095646E+02  0.10067489376E+03  0.10551035090E+03  0.00000000000E+00 0. -1.
<mgrwt>
<rscale>  2 0.31575305E+02</rscale>
<asrwt>0</asrwt>
<pdfrwt beam="2">  1       21 0.17320076E-01 0.31575305E+02</pdfrwt>
<pdfrwt beam="1">  1        2 0.16208490E-01 0.31575305E+02</pdfrwt>
<totfact> 0.11715536E+05</totfact>
</mgrwt>
</event>
<event>
 4    1  0.2260076E+006  0.2499734E+02  0.7546771E-02  0.1661040E+00
          1   -1    0    0  503    0 -0.00000000000E+00  0.00000000000E+00  0.18968623610E+03  0.18968623610E+03  0.00000000000E+00 0. -1.
         21   -1    0    0  501  502  0.00000000000E+00 -0.00000000000E+00 -0.13118934738E+03  0.13118934738E+03  0.00000000000E+00 0. -1.
         21    1    1    2  503  502  0.18975056959E+02  0.16273112764E+02 -0.12916221444E+03  0.13155890173E+03  0.00000000000E+00 0. -1.
          1    1    1    2  501    0 -0.18975056959E+02 -0.16273112764E+02  0.18765910317E+03  0.18931668174E+03  0.00000000000E+00 0. -1.
<mgrwt>
<rscale>  2 0.24997340E+02</rscale>
<asrwt>0</asrwt>
<pdfrwt beam="2">  1       21 0.20182976E-01 0.24997340E+02</pdfrwt>
<pdfrwt beam="1">  1        1 0.29182498E-01 0.24997340E+02</pdfrwt>
<totfact> 0.36350877E+04</totfact>
</mgrwt>
</event>
<event>
 4    1  0.2260076E+006  0.2077075E+02  0.7546771E-02  0.1730421E+00
          1   -1    0    0  503    0 -0.00000000000E+00  0.00000000000E+00  0.12896275851E+04  0.12896275851E+04  0.00000000000E+00 0.  1.
         21   -1    0    0  501  502  0.00000000000E+00 -0.00000000000E+00 -0.14067751113E+01  0.14067751113E+01  0.00000000000E+00 0.  1.
         21    1    1    2  503  502  0.20673568507E+02  0.20069447790E+01  0.80548411762E+02  0.83183357107E+02  0.00000000000E+00 0.  1.
          1    1    1    2  501    0 -0.20673568507E+02 -0.20069447790E+01  0.12076723982E+04  0.12078510031E+04  0.00000000000E+00 0.  1.
<mgrwt>
<rscale>  2 0.20770755E+02</rscale>
<asrwt>0</asrwt>
<pdfrwt beam="2">  1       21 0.21642797E-03 0.20770755E+02</pdfrwt>
<pdfrwt beam="1">  1        1 0.19840330E+00 0.20770755E+02</pdfrwt>
<totfact> 0.34164820E+06</totfact>
</mgrwt>
</event>
<event>
 4    1  0.2260076E+006  0.2149071E+02  0.7546771E-02  0.1717212E+00
          2   -1    0    0  502    0 -0.00000000000E+00  0.00000000000E+00  0.24713025410E+03  0.24713025410E+03  0.00000000000E+00 0.  1.
         21   -1    0    0  503  502  0.00000000000E+00 -0.00000000000E+00 -0.78463747329E+01  0.78463747329E+01  0.00000000000E+00 0. -1.
         21    1    1    2  503  501  0.46585641787E+01  0.20979713832E+02  0.83672567907E+01  0.23062124770E+02  0.00000000000E+00 0. -1.
          2    1    1    2  501    0 -0.46585641787E+01 -0.20979713832E+02  0.23091662258E+03  0.23191450407E+03  0.00000000000E+00 0.  1.
<mgrwt>
<rscale>  2 0.21490710E+02</rscale>
<asrwt>0</asrwt>
<pdfrwt beam="2">  1       21 0.12071348E-02 0.21490710E+02</pdfrwt>
<pdfrwt beam="1">  1        2 0.38020033E-01 0.21490710E+02</pdfrwt>
<totfact> 0.32289024E+06</totfact>
</mgrwt>
</event>
<event>
 4    1  0.2260076E+006  0.2235411E+02  0.7546771E-02  0.1702199E+00
         -3   -1    0    0    0  501 -0.00000000000E+00  0.00000000000E+00  0.31354582205E+03  0.31354582205E+03  0.00000000000E+00 0.  1.
         21   -1    0    0  503  502  0.00000000000E+00 -0.00000000000E+00 -0.20742411218E+01  0.20742411218E+01  0.00000000000E+00 0.  1.
         21    1    1    2  503  501 -0.67231145018E+01  0.21319149450E+02  0.79780483551E+02  0.82853074521E+02  0.00000000000E+00 0.  1.
         -3    1    1    2    0  502  0.67231145018E+01 -0.21319149450E+02  0.23169109737E+03  0.23276698865E+03  0.00000000000E+00 0.  1.
<mgrwt>
<rscale>  2 0.22354114E+02</rscale>
<asrwt>0</asrwt>
<pdfrwt beam="2">  1       21 0.31911427E-03 0.22354114E+02</pdfrwt>
<pdfrwt beam="1">  1       -3 0.48237781E-01 0.22354114E+02</pdfrwt>
<totfact> 0.26666020E+06</totfact>
</mgrwt>
</event>
<event>
 4    1  0.2260076E+006  0.2848389E+02  0.7546771E-02  0.1615478E+00
         21   -1    0    0  503  502  0.00000000000E+00  0.00000000000E+00  0.98729998680E+02  0.98729998680E+02  0.00000000000E+00 0.  1.
          4   -1    0    0  502    0 -0.00000000000E+00 -0.00000000000E+00 -0.22006194934E+03  0.22006194934E+03  0.00000000000E+00 0. -1.
         21    1    1    2  503  501 -0.27487991825E+02 -0.74660714827E+01  0.95725553869E+02  0.99873487881E+02  0.00000000000E+00 0.  1.
          4    1    1    2  501    0  0.27487991825E+02  0.74660714827E+01 -0.21705750453E+03  0.21891846014E+03  0.00000000000E+00 0. -1.
<mgrwt>
<rscale>  2 0.28483889E+02</rscale>
<asrwt>0</asrwt>
<pdfrwt beam="1">  1       21 0.15189231E-01 0.28483889E+02</pdfrwt>
<pdfrwt beam="2">  1        4 0.33855685E-01 0.28483889E+02</pdfrwt>
<totfact> 0.10552873E+04</totfact>
</mgrwt>
</event>
<event>
 4    1  0.2260076E+006  0.2509363E+02  0.7546771E-02  0.1659661E+00
         21   -1    0    0  501  502  0.00000000000E+00  0.00000000000E+00  0.13035011604E+02  0.13035011604E+02  0.00000000000E+00 0.  1.
         -4   -1    0    0    0  501 -0.00000000000E+00 -0.00000000000E+00 -0.18741823601E+03  0.18741823601E+03  0.00000000000E+00 0. -1.
         21    1    1    2  503  502 -0.13439695877E+02  0.21191150860E+02 -0.84260960274E+00  0.25107773517E+02  0.00000000000E+00 0.  1.
         -4    1    1    2    0  503  0.13439695877E+02 -0.21191150860E+02 -0.17354061480E+03  0.17534547410E+03  0.00000000000E+00 0. -1.
<mgrwt>
<rscale>  2 0.25093631E+02</rscale>
<asrwt>0</asrwt>
<pdfrwt beam="1">  1       21 0.20053864E-02 0.25093631E+02</pdfrwt>
<pdfrwt beam="2">  1       -4 0.28833575E-01 0.25093631E+02</pdfrwt>
<totfact> 0.35882797E+05</totfact>
</mgrwt>
</event>
<event>
 4    1  0.2260076E+006  0.2231322E+02  0.7546771E-02  0.1702891E+00
         21   -1    0    0  501  502  0.00000000000E+00  0.00000000000E+00  0.37196989165E+01  0.37196989165E+01  0.00000000000E+00 0. -1.
          2   -1    0    0  503    0 -0.00000000000E+00 -0.00000000000E+00 -0.14328331149E+03  0.14328331149E+03  0.00000000000E+00 0. -1.
         21    1    1    2  503  502 -0.18737910498E+02  0.12114885388E+02 -0.50921764187E+02  0.55595915369E+02  0.00000000000E+00 0. -1.
          2    1    1    2  501    0  0.18737910498E+02 -0.12114885388E+02 -0.88641848386E+02  0.91407095037E+02  0.00000000000E+00 0. -1.
<mgrwt>
<rscale>  2 0.22313219E+02</rscale>
<asrwt>0</asrwt>
<pdfrwt beam="1">  1       21 0.57226133E-03 0.22313219E+02</pdfrwt>
<pdfrwt beam="2">  1        2 0.22043588E-01 0.22313219E+02</pdfrwt>
<totfact> 0.17279942E+07</totfact>
</mgrwt>
</event>
<event>
 4    1  0.2260076E+006  0.2525518E+02  0.7546771E-02  0.1657363E+00
         21   -1    0    0  501  502  0.00000000000E+00  0.00000000000E+00  0.20670849133E+02  0.20670849133E+02  0.00000000000E+00 0. -1.
         -2   -1    0    0    0  501 -0.00000000000E+00 -0.00000000000E+00 -0.36722872191E+02  0.36722872191E+02  0.00000000000E+00 0. -1.
         21    1    1    2  503  502 -0.14164120625E+02 -0.20909374971E+02  0.34439306303E+01  0.25488917846E+02  0.00000000000E+00 0. -1.
         -2    1    1    2    0  503  0.14164120625E+02  0.20909374971E+02 -0.19495953689E+02  0.31904803479E+02  0.00000000000E+00 0. -1.
<mgrwt>
<rscale>  2 0.25255183E+02</rscale>
<asrwt>0</asrwt>
<pdfrwt beam="1">  1       21 0.31801307E-02 0.25255183E+02</pdfrwt>
<pdfrwt beam="2">  1       -2 0.56496726E-02 0.25255183E+02</pdfrwt>
<totfact> 0.48279990E+06</totfact>
</mgrwt>
</event>
<event>
 4    1  0.2260076E+006  0.2252687E+02  0.7546771E-02  0.1699296E+00
         -3   -1    0    0    0  501 -0.00000000000E+00  0.00000000000E+00  0.82624334103E+03  0.82624334103E+03  0.00000000000E+00 0. -1.
         21   -1    0    0  503  502  0.00000000000E+00 -0.00000000000E+00 -0.22273989598E+01  0.22273989598E+01  0.00000000000E+00 0. -1.
         21    1    1    2  503  501  0.22174556449E+02  0.39684819576E+01  0.59478676904E+02  0.63601673005E+02  0.00000000000E+00 0. -1.
         -3    1    1    2    0  502 -0.22174556449E+02 -0.39684819576E+01  0.76453726516E+03  0.76486906698E+03  0.00000000000E+00 0. -1.
<mgrwt>
<rscale>  2 0.22526868E+02</rscale>
<asrwt>0</asrwt>
<pdfrwt beam="2">  1       21 0.34267742E-03 0.22526868E+02</pdfrwt>
<pdfrwt beam="1">  1       -3 0.12711412E+00 0.22526868E+02</pdfrwt>
<totfact> 0.32541690E+05</totfact>
</mgrwt>
</event>
<event>
 4    1  0.2260076E+006  0.4196626E+02  0.7546771E-02  0.1494221E+00
         21   -1    0    0  503  502  0.00000000000E+00  0.00000000000E+00  0.67023367448E+01  0.67023367448E+01  0.00000000000E+00 0.  1.
          2   -1    0    0  502    0 -0.00000000000E+00 -0.00000000000E+00 -0.84893864218E+03  0.84893864218E+03  0.00000000000E+00 0.  1.
         21    1    1    2  503  501  0.30303652435E+02  0.29031980435E+02 -0.65621889709E+02  0.77893514800E+02  0.00000000000E+00 0.  1.
          2    1    1    2  501    0 -0.30303652435E+02 -0.29031980435E+02 -0.77661441572E+03  0.77774746412E+03  0.00000000000E+00 0.  1.
<mgrwt>
<rscale>  2 0.41966263E+02</rscale>
<asrwt>0</asrwt>
<pdfrwt beam="1">  1       21 0.10311290E-02 0.41966263E+02</pdfrwt>
<pdfrwt beam="2">  1        2 0.13060590E+00 0.41966263E+02</pdfrwt>
<totfact> 0.12898855E+06</totfact>
</mgrwt>
</event>
<event>
 4    1  0.2260076E+006  0.3509078E+02  0.7546771E-02  0.1547796E+00
         21   -1    0    0  501  502  0.00000000000E+00  0.00000000000E+00  0.16460945740E+02  0.16460945740E+02  0.00000000000E+00 0.  1.
          4   -1    0    0  503    0 -0.00000000000E+00 -0.00000000000E+00 -0.75661444518E+02  0.75661444518E+02  0.00000000000E+00 0.  1.
         21    1    1    2  503  502 -0.32595363466E+02 -0.12996337210E+02 -0.24699921916E+02  0.42912103689E+02  0.00000000000E+00 0.  1.
          4    1    1    2  501    0  0.32595363466E+02  0.12996337210E+02 -0.34500576862E+02  0.49210286569E+02  0.00000000000E+00 0.  1.
<mgrwt>
<rscale>  2 0.35090775E+02</rscale>
<asrwt>0</asrwt>
<pdfrwt beam="1">  1       21 0.25324533E-02 0.35090775E+02</pdfrwt>
<pdfrwt beam="2">  1        4 0.11640222E-01 0.35090775E+02</pdfrwt>
<totfact> 0.13385098E+06</totfact>
</mgrwt>
</event>
<event>
 4    1  0.2260076E+006  0.2668674E+02  0.7546771E-02  0.1637893E+00
         -4   -1    0    0    0  501 -0.00000000000E+00  0.00000000000E+00  0.77939574535E+02  0.77939574535E+02  0.00000000000E+00 0.  1.
         21   -1    0    0  501  502  0.00000000000E+00 -0.00000000000E+00 -0.66246075393E+02  0.66246075393E+02  0.00000000000E+00 0. -1.
         21    1    1    2  503  502 -0.65233792218E+01  0.25877161982E+02 -0.61089624729E+02  0.66664265077E+02  0.00000000000E+00 0. -1.
         -4    1    1    2    0  503  0.65233792218E+01 -0.25877161982E+02  0.72783123872E+02  0.77521384851E+02  0.00000000000E+00 0.  1.
<mgrwt>
<rscale>  2 0.26686738E+02</rscale>
<asrwt>0</asrwt>
<pdfrwt beam="2">  1       21 0.10191704E-01 0.26686738E+02</pdfrwt>
<pdfrwt beam="1">  1       -4 0.11990704E-01 0.26686738E+02</pdfrwt>
<totfact> 0.12310516E+05</totfact>
</mgrwt>
</event>
<event>
 4    1  0.2260076E+006  0.2974600E+02  0.7546771E-02  0.1600913E+00
          2   -1    0    0  503    0 -0.00000000000E+00  0.00000000000E+00  0.88941377492E+03  0.88941377492E+03  0.00000000000E+00 0. -1.
         21   -1    0    0  501  502  0.00000000000E+00 -0.00000000000E+00 -0.25033754299E+02  0.25033754299E+02  0.00000000000E+00 0.  1.
         21    1    1    2  503  502 -0.27330311625E+02  0.11742161031E+02 -0.15856633248E+02  0.33708412855E+02  0.00000000000E+00 0.  1.
          2    1    1    2  501    0  0.27330311625E+02 -0.11742161031E+02  0.88023665387E+03  0.88073911636E+03  0.00000000000E+00 0. -1.
<mgrwt>
<rscale>  2 0.29745996E+02</rscale>
<asrwt>0</asrwt>
<pdfrwt beam="2">  1       21 0.38513475E-02 0.29745996E+02</pdfrwt>
<pdfrwt beam="1">  1        2 0.13683286E+00 0.29745996E+02</pdfrwt>
<totfact> 0.15071349E+05</totfact>
</mgrwt>
</event>
<event>
 4    1  0.2260076E+006  0.3081458E+02  0.7546771E-02  0.1589255E+00
         21   -1    0    0  503  502  0.00000000000E+00  0.00000000000E+00  0.21003801044E+01  0.21003801044E+01  0.00000000000E+00 0.  1.
          1   -1    0    0  502    0 -0.00000000000E+00 -0.00000000000E+00 -0.18107705176E+04  0.18107705176E+04  0.00000000000E+00 0. -1.
         21    1    1    2  503  501 -0.30308396308E+02 -0.55623310424E+01 -0.11916171118E+03  0.12308148449E+03  0.00000000000E+00 0.  1.
          1    1    1    2  501    0  0.30308396308E+02  0.55623310424E+01 -0.16895084263E+04  0.16897894132E+04  0.00000000000E+00 0. -1.
<mgrwt>
<rscale>  2 0.30814581E+02</rscale>
<asrwt>0</asrwt>
<pdfrwt beam="1">  1       21 0.32313494E-03 0.30814581E+02</pdfrwt>
<pdfrwt beam="2">  1        1 0.27858048E+00 0.30814581E+02</pdfrwt>
<totfact> 0.98811124E+05</totfact>
</mgrwt>
</event>
<event>
 4    1  0.2260076E+006  0.2116481E+02  0.7546771E-02  0.1723110E+00
         -4   -1    0    0    0  501 -0.00000000000E+00  0.00000000000E+00  0.85379494867E+01  0.85379494867E+01  0.00000000000E+00 0. -1.
         21   -1    0    0  501  502  0.00000000000E+00 -0.00000000000E+00 -0.15429379838E+03  0.15429379838E+03  0.00000000000E+00 0.  1.
         21    1    1    2  503  502 -0.11732244091E+02  0.17615432727E+02 -0.13901862477E+03  0.14062050724E+03  0.00000000000E+00 0.  1.
         -4    1    1    2    0  503  0.11732244091E+02 -0.17615432727E+02 -0.67372241226E+01  0.22211240633E+02  0.00000000000E+00 0. -1.
<mgrwt>
<rscale>  2 0.21164806E+02</rscale>
<asrwt>0</asrwt>
<pdfrwt beam="2">  1       21 0.23737507E-01 0.21164806E+02</pdfrwt>
<pdfrwt beam="1">  1       -4 0.13135307E-02 0.21164806E+02</pdfrwt>
<totfact> 0.77758550E+05</totfact>
</mgrwt>
</event>
<event>
 4    1  0.2260076E+006  0.4105191E+02  0.7546771E-02  0.1500610E+00
         21   -1    0    0  503  502  0.00000000000E+00  0.00000000000E+00  0.16113756237E+02  0.16113756237E+02  0.00000000000E+00 0.  1.
          1   -1    0    0  502    0 -0.00000000000E+00 -0.00000000000E+00 -0.83446053949E+03  0.83446053949E+03  0.00000000000E+00 0. -1.
         21    1    1    2  503  501  0.27618390056E+02 -0.30372422379E+02 -0.11429317145E+02  0.42613246776E+02  0.00000000000E+00 0.  1.
          1    1    1    2  501    0 -0.27618390056E+02  0.30372422379E+02 -0.80691746610E+03  0.80796104895E+03  0.00000000000E+00 0. -1.
<mgrwt>
<rscale>  2 0.41051912E+02</rscale>
<asrwt>0</asrwt>
<pdfrwt beam="1">  1       21 0.24790391E-02 0.41051912E+02</pdfrwt>
<pdfrwt beam="2">  1        1 0.12837856E+00 0.41051912E+02</pdfrwt>
<totfact> 0.19437949E+05</totfact>
</mgrwt>
</event>
<event>
 4    1  0.2260076E+006  0.2454792E+02  0.7546771E-02  0.1667581E+00
         21   -1    0    0  501  502  0.00000000000E+00  0.00000000000E+00  0.22041958948E+02  0.22041958948E+02  0.00000000000E+00 0. -1.
          2   -1    0    0  503    0 -0.00000000000E+00 -0.00000000000E+00 -0.10339786934E+04  0.10339786934E+04  0.00000000000E+00 0.  1.
         21    1    1    2  503  502  0.24522376289E+02 -0.11196213658E+01  0.15014800604E+02  0.28775766333E+02  0.00000000000E+00 0. -1.
          2    1    1    2  501    0 -0.24522376289E+02  0.11196213658E+01 -0.10269515351E+04  0.10272448860E+04  0.00000000000E+00 0.  1.
<mgrwt>
<rscale>  2 0.24547922E+02</rscale>
<asrwt>0</asrwt>
<pdfrwt beam="1">  1       21 0.33910710E-02 0.24547922E+02</pdfrwt>
<pdfrwt beam="2">  1        2 0.15907363E+00 0.24547922E+02</pdfrwt>
<totfact> 0.15042100E+05</totfact>
</mgrwt>
</event>
<event>
 4    1  0.2260076E+006  0.2084870E+02  0.7546771E-02  0.1728959E+00
          2   -1    0    0  503    0 -0.00000000000E+00  0.00000000000E+00  0.15378776503E+04  0.15378776503E+04  0.00000000000E+00 0. -1.
         21   -1    0    0  501  502  0.00000000000E+00 -0.00000000000E+00 -0.28467164928E+00  0.28467164928E+00  0.00000000000E+00 0. -1.
         21    1    1    2  503  502  0.19625947392E+02  0.70349507195E+01  0.70385183524E+03  0.70416054583E+03  0.00000000000E+00 0. -1.
          2    1    1    2  501    0 -0.19625947392E+02 -0.70349507195E+01  0.83374114336E+03  0.83400177607E+03  0.00000000000E+00 0. -1.
<mgrwt>
<rscale>  2 0.20848701E+02</rscale>
<asrwt>0</asrwt>
<pdfrwt beam="2">  1       21 0.43796870E-04 0.20848701E+02</pdfrwt>
<pdfrwt beam="1">  1        2 0.23658991E+00 0.20848701E+02</pdfrwt>
<totfact> 0.49332182E+07</totfact>
</mgrwt>
</event>
<event>
 4    1  0.2260076E+006  0.2565191E+02  0.7546771E-02  0.1651811E+00
          2   -1    0    0  502    0 -0.00000000000E+00  0.00000000000E+00  0.67186998243E+02  0.67186998243E+02  0.00000000000E+00 0. -1.
         21   -1    0    0  503  502  0.00000000000E+00 -0.00000000000E+00 -0.10556584354E+03  0.10556584354E+03  0.00000000000E+00 0.  1.
         21    1    1    2  503  501  0.16543317876E+02  0.19604565025E+02 -0.10146154958E+03  0.10465403184E+03  0.00000000000E+00 0.  1.
          2    1    1    2  501    0 -0.16543317876E+02 -0.19604565025E+02  0.63082704286E+02  0.68098809946E+02  0.00000000000E+00 0. -1.
<mgrwt>
<rscale>  2 0.25651907E+02</rscale>
<asrwt>0</asrwt>
<pdfrwt beam="2">  1       21 0.16240899E-01 0.25651907E+02</pdfrwt>
<pdfrwt beam="1">  1        2 0.10336461E-01 0.25651907E+02</pdfrwt>
<totfact> 0.21231472E+05</totfact>
</mgrwt>
</event>
<event>
 4    1  0.2260076E+006  0.2027857E+02  0.7546771E-02  0.1739844E+00
          4   -1    0    0  503    0 -0.00000000000E+00  0.00000000000E+00  0.84624146884E+03  0.84624146884E+03  0.00000000000E+00 0.  1.
         21   -1    0    0  501  502  0.00000000000E+00 -0.00000000000E+00 -0.19959982489E+01  0.19959982489E+01  0.00000000000E+00 0.  1.
         21    1    1    2  503  502  0.18861981556E+01 -0.20190654330E+02  0.53226161958E+02  0.56958270537E+02  0.00000000000E+00 0.  1.
          4    1    1    2  501    0 -0.18861981556E+01  0.20190654330E+02  0.79101930863E+03  0.79127919655E+03  0.00000000000E+00 0.  1.
<mgrwt>
<rscale>  2 0.20278567E+02</rscale>
<asrwt>0</asrwt>
<pdfrwt beam="2">  1       21 0.30707733E-03 0.20278567E+02</pdfrwt>
<pdfrwt beam="1">  1        4 0.13019071E+00 0.20278567E+02</pdfrwt>
<totfact> 0.25744709E+05</totfact>
</mgrwt>
</event>
<event>
 4    1  0.2260076E+006  0.2332756E+02  0.7546771E-02  0.1686255E+00
         21   -1    0    0  503  502  0.00000000000E+00  0.00000000000E+00  0.14358504046E+03  0.14358504046E+03  0.00000000000E+00 0.  1.
          2   -1    0    0  502    0 -0.00000000000E+00 -0.00000000000E+00 -0.55546146177E+02  0.55546146177E+02  0.00000000000E+00 0.  1.
         21    1    1    2  503  501  0.10345212052E+02  0.20908172075E+02  0.14012835508E+03  0.14205678784E+03  0.00000000000E+00 0.  1.
          2    1    1    2  501    0 -0.10345212052E+02 -0.20908172075E+02 -0.52089460801E+02  0.57074398800E+02  0.00000000000E+00 0.  1.
<mgrwt>
<rscale>  2 0.23327560E+02</rscale>
<asrwt>0</asrwt>
<pdfrwt beam="1">  1       21 0.22090006E-01 0.23327560E+02</pdfrwt>
<pdfrwt beam="2">  1        2 0.85455610E-02 0.23327560E+02</pdfrwt>
<totfact> 0.15305078E+05</totfact>
</mgrwt>
</event>
<event>
 4    1  0.2260076E+006  0.2097164E+02  0.7546771E-02  0.1726669E+00
          2   -1    0    0  502    0 -0.00000000000E+00  0.00000000000E+00  0.38039449273E+03  0.38039449273E+03  0.00000000000E+00 0.  1.
         21   -1    0    0  503  502  0.00000000000E+00 -0.00000000000E+00 -0.65870160400E+01  0.65870160400E+01  0.00000000000E+00 0. -1.
         21    1    1    2  503  501  0.17438066034E+02  0.11650045602E+02  0.11213085772E+02  0.23781148040E+02  0.00000000000E+00 0. -1.
          2    1    1    2  501    0 -0.17438066034E+02 -0.11650045602E+02  0.36259439092E+03  0.36320036073E+03  0.00000000000E+00 0.  1.
<mgrwt>
<rscale>  2 0.20971641E+02</rscale>
<asrwt>0</asrwt>
<pdfrwt beam="2">  1       21 0.10133874E-02 0.20971641E+02</pdfrwt>
<pdfrwt beam="1">  1        2 0.58522213E-01 0.20971641E+02</pdfrwt>
<totfact> 0.27328987E+06</totfact>
</mgrwt>
</event>
<event>
 4    1  0.2260076E+006  0.2444121E+02  0.7546771E-02  0.1669160E+00
          2   -1    0    0  503    0 -0.00000000000E+00  0.00000000000E+00  0.54711074234E+03  0.54711074234E+03  0.00000000000E+00 0. -1.
         21   -1    0    0  501  502  0.00000000000E+00 -0.00000000000E+00 -0.11769123483E+01  0.11769123483E+01  0.00000000000E+00 0. -1.
         21    1    1    2  503  502  0.15574535431E+02 -0.18836313437E+02  0.19927353771E+03  0.20076681920E+03  0.00000000000E+00 0. -1.
          2    1    1    2  501    0 -0.15574535431E+02  0.18836313437E+02  0.34666029228E+03  0.34752083549E+03  0.00000000000E+00 0. -1.
<mgrwt>
<rscale>  2 0.24441212E+02</rscale>
<asrwt>0</asrwt>
<pdfrwt beam="2">  1       21 0.18106387E-03 0.24441212E+02</pdfrwt>
<pdfrwt beam="1">  1        2 0.84170681E-01 0.24441212E+02</pdfrwt>
<totfact> 0.24846630E+07</totfact>
</mgrwt>
</event>
<event>
 4    1  0.2260076E+006  0.2255294E+02  0.7546771E-02  0.1698861E+00
         -1   -1    0    0    0  501 -0.00000000000E+00  0.00000000000E+00  0.53259032340E+01  0.53259032340E+01  0.00000000000E+00 0. -1.
         21   -1    0    0  503  502  0.00000000000E+00 -0.00000000000E+00 -0.45650809163E+03  0.45650809163E+03  0.00000000000E+00 0.  1.
         21    1    1    2  503  501 -0.18938465333E+01  0.22473280019E+02 -0.43093833131E+03  0.43152807598E+03  0.00000000000E+00 0.  1.
         -1    1    1    2    0  502  0.18938465333E+01 -0.22473280019E+02 -0.20243857087E+02  0.30305918882E+02  0.00000000000E+00 0. -1.
<mgrwt>
<rscale>  2 0.22552937E+02</rscale>
<asrwt>0</asrwt>
<pdfrwt beam="2">  1       21 0.70232035E-01 0.22552937E+02</pdfrwt>
<pdfrwt beam="1">  1       -1 0.81936948E-03 0.22552937E+02</pdfrwt>
<totfact> 0.31333828E+05</totfact>
</mgrwt>
</event>
<event>
 4    1  0.2260076E+006  0.2178134E+02  0.7546771E-02  0.1712061E+00
         21   -1    0    0  501  502  0.00000000000E+00  0.00000000000E+00  0.37897951513E+02  0.37897951513E+02  0.00000000000E+00 0. -1.
          2   -1    0    0  503    0 -0.00000000000E+00 -0.00000000000E+00 -0.15113186453E+02  0.15113186453E+02  0.00000000000E+00 0. -1.
         21    1    1    2  503  502  0.20172154919E+02  0.82165049236E+01  0.22374819618E+02  0.31225940181E+02  0.00000000000E+00 0. -1.
          2    1    1    2  501    0 -0.20172154919E+02 -0.82165049236E+01  0.40994544194E+00  0.21785197784E+02  0.00000000000E+00 0. -1.
<mgrwt>
<rscale>  2 0.21781340E+02</rscale>
<asrwt>0</asrwt>
<pdfrwt beam="1">  1       21 0.58304540E-02 0.21781340E+02</pdfrwt>
<pdfrwt beam="2">  1        2 0.23251056E-02 0.21781340E+02</pdfrwt>
<totfact> 0.69105300E+06</totfact>
</mgrwt>
</event>
<event>
 4    1  0.2260076E+006  0.2842894E+02  0.7546771E-02  0.1616133E+00
          1   -1    0    0  503    0 -0.00000000000E+00  0.00000000000E+00  0.50170896006E+02  0.50170896006E+02  0.00000000000E+00 0. -1.
         21   -1    0    0  501  502  0.00000000000E+00 -0.00000000000E+00 -0.37361331373E+03  0.37361331373E+03  0.00000000000E+00 0.  1.
         21    1    1    2  503  502 -0.12661653830E+01 -0.28400732455E+02 -0.36899492053E+03  0.37008844370E+03  0.00000000000E+00 0.  1.
          1    1    1    2  501    0  0.12661653830E+01  0.28400732455E+02  0.45552502807E+02  0.53695766042E+02  0.00000000000E+00 0. -1.
<mgrwt>
<rscale>  2 0.28428943E+02</rscale>
<asrwt>0</asrwt>
<pdfrwt beam="2">  1       21 0.57478970E-01 0.28428943E+02</pdfrwt>
<pdfrwt beam="1">  1        1 0.77185995E-02 0.28428943E+02</pdfrwt>
<totfact> 0.26399155E+04</totfact>
</mgrwt>
</event>
<event>
 4    1  0.2260076E+006  0.4133576E+02  0.7546771E-02  0.1498606E+00
          2   -1    0    0  502    0 -0.00000000000E+00  0.00000000000E+00  0.23061522852E+02  0.23061522852E+02  0.00000000000E+00 0. -1.
         21   -1    0    0  503  502  0.00000000000E+00 -0.00000000000E+00 -0.15128284949E+03  0.15128284949E+03  0.00000000000E+00 0. -1.
         21    1    1    2  503  501  0.17173418348E+02  0.37599449441E+02 -0.12637933377E+03  0.13296759342E+03  0.00000000000E+00 0. -1.
          2    1    1    2  501    0 -0.17173418348E+02 -0.37599449441E+02 -0.18419928664E+01  0.41376778919E+02  0.00000000000E+00 0. -1.
<mgrwt>
<rscale>  2 0.41335758E+02</rscale>
<asrwt>0</asrwt>
<pdfrwt beam="2">  1       21 0.23274285E-01 0.41335758E+02</pdfrwt>
<pdfrwt beam="1">  1        2 0.35479265E-02 0.41335758E+02</pdfrwt>
<totfact> 0.44299804E+05</totfact>
</mgrwt>
</event>
<event>
 4    1  0.2260076E+006  0.2105970E+02  0.7546771E-02  0.1725040E+00
          2   -1    0    0  503    0 -0.00000000000E+00  0.00000000000E+00  0.46952070390E+03  0.46952070390E+03  0.00000000000E+00 0.  1.
         21   -1    0    0  501  502  0.00000000000E+00 -0.00000000000E+00 -0.17856541885E+01  0.17856541885E+01  0.00000000000E+00 0. -1.
         21    1    1    2  503  502 -0.20233505229E+02  0.58409252650E+01  0.72139390384E+02  0.75150534175E+02  0.00000000000E+00 0. -1.
          2    1    1    2  501    0  0.20233505229E+02 -0.58409252650E+01  0.39559565933E+03  0.39615582391E+03  0.00000000000E+00 0.  1.
<mgrwt>
<rscale>  2 0.21059704E+02</rscale>
<asrwt>0</asrwt>
<pdfrwt beam="2">  1       21 0.27471640E-03 0.21059704E+02</pdfrwt>
<pdfrwt beam="1">  1        2 0.72233856E-01 0.21059704E+02</pdfrwt>
<totfact> 0.15193703E+07</totfact>
</mgrwt>
</event>
<event>
 4    1  0.2260076E+006  0.3117184E+02  0.7546771E-02  0.1585485E+00
         -3   -1    0    0    0  501 -0.00000000000E+00  0.00000000000E+00  0.21443718928E+03  0.21443718928E+03  0.00000000000E+00 0.  1.
         21   -1    0    0  503  502  0.00000000000E+00 -0.00000000000E+00 -0.13483312604E+02  0.13483312604E+02  0.00000000000E+00 0. -1.
         21    1    1    2  503  501  0.13230452280E+02 -0.28224787518E+02  0.76198726968E+01  0.32089654998E+02  0.00000000000E+00 0. -1.
         -3    1    1    2    0  502 -0.13230452280E+02  0.28224787518E+02  0.19333400398E+03  0.19583084689E+03  0.00000000000E+00 0.  1.
<mgrwt>
<rscale>  2 0.31171838E+02</rscale>
<asrwt>0</asrwt>
<pdfrwt beam="2">  1       21 0.20743559E-02 0.31171838E+02</pdfrwt>
<pdfrwt beam="1">  1       -3 0.32990334E-01 0.31171838E+02</pdfrwt>
<totfact> 0.36148634E+05</totfact>
</mgrwt>
</event>
<event>
 4    1  0.2260076E+006  0.2931039E+02  0.7546771E-02  0.1605839E+00
         21   -1    0    0  503  502  0.00000000000E+00  0.00000000000E+00  0.24825961806E+02  0.24825961806E+02  0.00000000000E+00 0.  1.
          1   -1    0    0  502    0 -0.00000000000E+00 -0.00000000000E+00 -0.98222155812E+02  0.98222155812E+02  0.00000000000E+00 0.  1.
         21    1    1    2  503  501 -0.13292644165E+02  0.26122879768E+02  0.12815879723E+02  0.31989779764E+02  0.00000000000E+00 0.  1.
          1    1    1    2  501    0  0.13292644165E+02 -0.26122879768E+02 -0.86212073729E+02  0.91058337855E+02  0.00000000000E+00 0.  1.
<mgrwt>
<rscale>  2 0.29310395E+02</rscale>
<asrwt>0</asrwt>
<pdfrwt beam="1">  1       21 0.38193787E-02 0.29310395E+02</pdfrwt>
<pdfrwt beam="2">  1        1 0.15111101E-01 0.29310395E+02</pdfrwt>
<totfact> 0.12890141E+06</totfact>
</mgrwt>
</event>
<event>
 4    1  0.2260076E+006  0.5513281E+02  0.7546771E-02  0.1419472E+00
         21   -1    0    0  501  502  0.00000000000E+00  0.00000000000E+00  0.24822994509E+03  0.24822994509E+03  0.00000000000E+00 0. -1.
          4   -1    0    0  503    0 -0.00000000000E+00 -0.00000000000E+00 -0.70647838989E+02  0.70647838989E+02  0.00000000000E+00 0.  1.
         21    1    1    2  503  502  0.19948459322E+02 -0.51397328286E+02  0.23375534768E+03  0.24016908409E+03  0.00000000000E+00 0. -1.
          4    1    1    2  501    0 -0.19948459322E+02  0.51397328286E+02 -0.56173241579E+02  0.78708699988E+02  0.00000000000E+00 0.  1.
<mgrwt>
<rscale>  2 0.55132807E+02</rscale>
<asrwt>0</asrwt>
<pdfrwt beam="1">  1       21 0.38189222E-01 0.55132807E+02</pdfrwt>
<pdfrwt beam="2">  1        4 0.10868898E-01 0.55132807E+02</pdfrwt>
<totfact> 0.16089843E+04</totfact>
</mgrwt>
</event>
<event>
 4    1  0.2260076E+006  0.2500739E+02  0.7546771E-02  0.1660896E+00
         21   -1    0    0  501  502  0.00000000000E+00  0.00000000000E+00  0.18691363186E+02  0.18691363186E+02  0.00000000000E+00 0.  1.
          1   -1    0    0  503    0 -0.00000000000E+00 -0.00000000000E+00 -0.70227427837E+02  0.70227427837E+02  0.00000000000E+00 0.  1.
         21    1    1    2  503  502 -0.10845103703E+02  0.22533376282E+02  0.64023040278E+01  0.25813926819E+02  0.00000000000E+00 0.  1.
          1    1    1    2  501    0  0.10845103703E+02 -0.22533376282E+02 -0.57938368679E+02  0.63104864204E+02  0.00000000000E+00 0.  1.
<mgrwt>
<rscale>  2 0.25007385E+02</rscale>
<asrwt>0</asrwt>
<pdfrwt beam="1">  1       21 0.28755943E-02 0.25007385E+02</pdfrwt>
<pdfrwt beam="2">  1        1 0.10804220E-01 0.25007385E+02</pdfrwt>
<totfact> 0.29422962E+06</totfact>
</mgrwt>
</event>
<event>
 4    1  0.2260076E+006  0.2500634E+02  0.7546771E-02  0.1660911E+00
          1   -1    0    0  502    0 -0.00000000000E+00  0.00000000000E+00  0.41831147545E+03  0.41831147545E+03  0.00000000000E+00 0.  1.
         21   -1    0    0  503  502  0.00000000000E+00 -0.00000000000E+00 -0.49032241292E+01  0.49032241292E+01  0.00000000000E+00 0.  1.
         21    1    1    2  503  501  0.16033194498E+02 -0.19189941092E+02  0.30278016201E+02  0.39269268264E+02  0.00000000000E+00 0.  1.
          1    1    1    2  501    0 -0.16033194498E+02  0.19189941092E+02  0.38313023512E+03  0.38394543131E+03  0.00000000000E+00 0.  1.
<mgrwt>
<rscale>  2 0.25006342E+02</rscale>
<asrwt>0</asrwt>
<pdfrwt beam="2">  1       21 0.75434250E-03 0.25006342E+02</pdfrwt>
<pdfrwt beam="1">  1        1 0.64355584E-01 0.25006342E+02</pdfrwt>
<totfact> 0.27252089E+06</totfact>
</mgrwt>
</event>
<event>
 4    1  0.2260076E+006  0.2368092E+02  0.7546771E-02  0.1680705E+00
          4   -1    0    0  503    0 -0.00000000000E+00  0.00000000000E+00  0.29015516830E+02  0.29015516830E+02  0.00000000000E+00 0.  1.
         21   -1    0    0  501  502  0.00000000000E+00 -0.00000000000E+00 -0.22222386153E+02  0.22222386153E+02  0.00000000000E+00 0.  1.
         21    1    1    2  503  502 -0.23659129666E+02 -0.10155392865E+01 -0.58506698839E+01  0.24392951332E+02  0.00000000000E+00 0.  1.
          4    1    1    2  501    0  0.23659129666E+02  0.10155392865E+01  0.12643800561E+02  0.26844951652E+02  0.00000000000E+00 0.  1.
<mgrwt>
<rscale>  2 0.23680915E+02</rscale>
<asrwt>0</asrwt>
<pdfrwt beam="2">  1       21 0.34188286E-02 0.23680915E+02</pdfrwt>
<pdfrwt beam="1">  1        4 0.44639257E-02 0.23680915E+02</pdfrwt>
<totfact> 0.32550929E+06</totfact>
</mgrwt>
</event>
<event>
 4    1  0.2260076E+006  0.2727852E+02  0.7546771E-02  0.1630279E+00
          1   -1    0    0  503    0 -0.00000000000E+00  0.00000000000E+00  0.32084128392E+02  0.32084128392E+02  0.00000000000E+00 0. -1.
         21   -1    0    0  501  502  0.00000000000E+00 -0.00000000000E+00 -0.23301573810E+02  0.23301573810E+02  0.00000000000E+00 0. -1.
         21    1    1    2  503  502 -0.66039282098E+01 -0.26467068810E+02  0.24983470869E+01  0.27392687662E+02  0.00000000000E+00 0. -1.
          1    1    1    2  501    0  0.66039282098E+01  0.26467068810E+02  0.62842074956E+01  0.27993014540E+02  0.00000000000E+00 0. -1.
<mgrwt>
<rscale>  2 0.27278519E+02</rscale>
<asrwt>0</asrwt>
<pdfrwt beam="2">  1       21 0.35848575E-02 0.27278519E+02</pdfrwt>
<pdfrwt beam="1">  1        1 0.49360197E-02 0.27278519E+02</pdfrwt>
<totfact> 0.57554130E+06</totfact>
</mgrwt>
</event>
<event>
 4    1  0.2260076E+006  0.2647232E+02  0.7546771E-02  0.1640713E+00
          1   -1    0    0  503    0 -0.00000000000E+00  0.00000000000E+00  0.40442198402E+01  0.40442198402E+01  0.00000000000E+00 0. -1.
         21   -1    0    0  501  502  0.00000000000E+00 -0.00000000000E+00 -0.62500902560E+03  0.62500902560E+03  0.00000000000E+00 0.  1.
         21    1    1    2  503  502  0.25824291698E+02  0.58214872357E+01 -0.57787729452E+03  0.57848331979E+03  0.00000000000E+00 0.  1.
          1    1    1    2  501    0 -0.25824291698E+02 -0.58214872357E+01 -0.43087511246E+02  0.50569925655E+02  0.00000000000E+00 0. -1.
<mgrwt>
<rscale>  2 0.26472321E+02</rscale>
<asrwt>0</asrwt>
<pdfrwt beam="2">  1       21 0.96155270E-01 0.26472321E+02</pdfrwt>
<pdfrwt beam="1">  1        1 0.62218744E-03 0.26472321E+02</pdfrwt>
<totfact> 0.24420203E+05</totfact>
</mgrwt>
</event>
<event>
 4    1  0.2260076E+006  0.3881794E+02  0.7546771E-02  0.1517095E+00
          2   -1    0    0  503    0 -0.00000000000E+00  0.00000000000E+00  0.96781128491E+03  0.96781128491E+03  0.00000000000E+00 0.  1.
         21   -1    0    0  501  502  0.00000000000E+00 -0.00000000000E+00 -0.10899840007E+02  0.10899840007E+02  0.00000000000E+00 0. -1.
         21    1    1    2  503  502  0.38575279160E+02 -0.43336207768E+01  0.25396351106E+02  0.46387574638E+02  0.00000000000E+00 0. -1.
          2    1    1    2  501    0 -0.38575279160E+02  0.43336207768E+01  0.93151509380E+03  0.93232355028E+03  0.00000000000E+00 0.  1.
<mgrwt>
<rscale>  2 0.38817940E+02</rscale>
<asrwt>0</asrwt>
<pdfrwt beam="2">  1       21 0.16768992E-02 0.38817940E+02</pdfrwt>
<pdfrwt beam="1">  1        2 0.14889398E+00 0.38817940E+02</pdfrwt>
<totfact> 0.51346523E+05</totfact>
</mgrwt>
</event>
<event>
 4    1  0.2260076E+006  0.2481917E+02  0.7546771E-02  0.1663613E+00
         -1   -1    0    0    0  501 -0.00000000000E+00  0.00000000000E+00  0.18661208288E+02  0.18661208288E+02  0.00000000000E+00 0.  1.
         21   -1    0    0  503  502  0.00000000000E+00 -0.00000000000E+00 -0.23926665365E+03  0.23926665365E+03  0.00000000000E+00 0. -1.
         21    1    1    2  503  501  0.24266423814E+02  0.52088253079E+01 -0.23004072866E+03  0.23137572912E+03  0.00000000000E+00 0. -1.
         -1    1    1    2    0  502 -0.24266423814E+02 -0.52088253079E+01  0.94352833009E+01  0.26552132811E+02  0.00000000000E+00 0.  1.
<mgrwt>
<rscale>  2 0.24819170E+02</rscale>
<asrwt>0</asrwt>
<pdfrwt beam="2">  1       21 0.36810252E-01 0.24819170E+02</pdfrwt>
<pdfrwt beam="1">  1       -1 0.28709553E-02 0.24819170E+02</pdfrwt>
<totfact> 0.20496871E+05</totfact>
</mgrwt>
</event>
<event>
 4    1  0.2260076E+006  0.2323768E+02  0.7546771E-02  0.1687686E+00
          2   -1    0    0  503    0 -0.00000000000E+00  0.00000000000E+00  0.12330158800E+04  0.12330158800E+04  0.00000000000E+00 0. -1.
         21   -1    0    0  501  502  0.00000000000E+00 -0.00000000000E+00 -0.73892360168E+00  0.73892360168E+00  0.00000000000E+00 0. -1.
         21    1    1    2  503  502  0.16598977443E+01 -0.23178320890E+02  0.22243536926E+03  0.22364588822E+03  0.00000000000E+00 0. -1.
          2    1    1    2  501    0 -0.16598977443E+01  0.23178320890E+02  0.10098415871E+04  0.10101089154E+04  0.00000000000E+00 0. -1.
<mgrwt>
<rscale>  2 0.23237681E+02</rscale>
<asrwt>0</asrwt>
<pdfrwt beam="2">  1       21 0.11368154E-03 0.23237681E+02</pdfrwt>
<pdfrwt beam="1">  1        2 0.18969310E+00 0.23237681E+02</pdfrwt>
<totfact> 0.18465978E+07</totfact>
</mgrwt>
</event>
<event>
 4    1  0.2260076E+006  0.2174486E+02  0.7546771E-02  0.1712702E+00
         21   -1    0    0  501  502  0.00000000000E+00  0.00000000000E+00  0.15878388299E+01  0.15878388299E+01  0.00000000000E+00 0. -1.
          2   -1    0    0  503    0 -0.00000000000E+00 -0.00000000000E+00 -0.32738686521E+03  0.32738686521E+03  0.00000000000E+00 0.  1.
         21    1    1    2  503  502  0.78371928042E+01 -0.20283423384E+02 -0.11344092700E+03  0.11550620232E+03  0.00000000000E+00 0. -1.
          2    1    1    2  501    0 -0.78371928042E+01  0.20283423384E+02 -0.21235809938E+03  0.21346850172E+03  0.00000000000E+00 0.  1.
<mgrwt>
<rscale>  2 0.21744858E+02</rscale>
<asrwt>0</asrwt>
<pdfrwt beam="1">  1       21 0.24428288E-03 0.21744858E+02</pdfrwt>
<pdfrwt beam="2">  1        2 0.50367213E-01 0.21744858E+02</pdfrwt>
<totfact> 0.25949878E+07</totfact>
</mgrwt>
</event>
<event>
 4    1  0.2260076E+006  0.2337565E+02  0.7546771E-02  0.1685492E+00
         21   -1    0    0  501  502  0.00000000000E+00  0.00000000000E+00  0.80758655558E+02  0.80758655558E+02  0.00000000000E+00 0.  1.
          2   -1    0    0  503    0 -0.00000000000E+00 -0.00000000000E+00 -0.13567180602E+03  0.13567180602E+03  0.00000000000E+00 0.  1.
         21    1    1    2  503  502 -0.22527181232E+02 -0.62407559745E+01  0.78025742097E+02  0.81452055586E+02  0.00000000000E+00 0.  1.
          2    1    1    2  501    0  0.22527181232E+02  0.62407559745E+01 -0.13293889256E+03  0.13497840599E+03  0.00000000000E+00 0.  1.
<mgrwt>
<rscale>  2 0.23375648E+02</rscale>
<asrwt>0</asrwt>
<pdfrwt beam="1">  1       21 0.12424408E-01 0.23375648E+02</pdfrwt>
<pdfrwt beam="2">  1        2 0.20872586E-01 0.23375648E+02</pdfrwt>
<totfact> 0.15234292E+05</totfact>
</mgrwt>
</event>
<event>
 4    1  0.2260076E+006  0.2029695E+02  0.7546771E-02  0.1739487E+00
         -2   -1    0    0    0  501 -0.00000000000E+00  0.00000000000E+00  0.51023957733E+02  0.51023957733E+02  0.00000000000E+00 0.  1.
         21   -1    0    0  503  502  0.00000000000E+00 -0.00000000000E+00 -0.14583553531E+02  0.14583553531E+02  0.00000000000E+00 0.  1.
         21    1    1    2  503  501  0.14958394260E+02  0.13719061421E+02 -0.36961512196E+01  0.20630747416E+02  0.00000000000E+00 0.  1.
         -2    1    1    2    0  502 -0.14958394260E+02 -0.13719061421E+02  0.40136555422E+02  0.44976763848E+02  0.00000000000E+00 0.  1.
<mgrwt>
<rscale>  2 0.20296951E+02</rscale>
<asrwt>0</asrwt>
<pdfrwt beam="2">  1       21 0.22436236E-02 0.20296951E+02</pdfrwt>
<pdfrwt beam="1">  1       -2 0.78498396E-02 0.20296951E+02</pdfrwt>
<totfact> 0.48313944E+06</totfact>
</mgrwt>
</event>
<event>
 4    1  0.2260076E+006  0.2125141E+02  0.7546771E-02  0.1721530E+00
          2   -1    0    0  502    0 -0.00000000000E+00  0.00000000000E+00  0.16722632144E+04  0.16722632144E+04  0.00000000000E+00 0. -1.
         21   -1    0    0  503  502  0.00000000000E+00 -0.00000000000E+00 -0.90543059375E+00  0.90543059375E+00  0.00000000000E+00 0.  1.
         21    1    1    2  503  501  0.16853202600E+02 -0.12945728104E+02  0.13487990564E+03  0.13654380711E+03  0.00000000000E+00 0.  1.
          2    1    1    2  501    0 -0.16853202600E+02  0.12945728104E+02  0.15364778782E+04  0.15366248379E+04  0.00000000000E+00 0. -1.
<mgrwt>
<rscale>  2 0.21251407E+02</rscale>
<asrwt>0</asrwt>
<pdfrwt beam="2">  1       21 0.13929835E-03 0.21251407E+02</pdfrwt>
<pdfrwt beam="1">  1        2 0.25726879E+00 0.21251407E+02</pdfrwt>
<totfact> 0.83600613E+06</totfact>
</mgrwt>
</event>
<event>
 4    1  0.2260076E+006  0.2193412E+02  0.7546771E-02  0.1709394E+00
         21   -1    0    0  501  502  0.00000000000E+00  0.00000000000E+00  0.56966808632E+01  0.56966808632E+01  0.00000000000E+00 0.  1.
          3   -1    0    0  503    0 -0.00000000000E+00 -0.00000000000E+00 -0.17235593477E+03  0.17235593477E+03  0.00000000000E+00 0.  1.
         21    1    1    2  503  502 -0.40918075283E+01  0.21549078183E+02 -0.19751862905E+02  0.29516804495E+02  0.00000000000E+00 0.  1.
          3    1    1    2  501    0  0.40918075283E+01 -0.21549078183E+02 -0.14690739100E+03  0.14853581114E+03  0.00000000000E+00 0.  1.
<mgrwt>
<rscale>  2 0.21934121E+02</rscale>
<asrwt>0</asrwt>
<pdfrwt beam="1">  1       21 0.87641234E-03 0.21934121E+02</pdfrwt>
<pdfrwt beam="2">  1        3 0.26516301E-01 0.21934121E+02</pdfrwt>
<totfact> 0.17561886E+06</totfact>
</mgrwt>
</event>
<event>
 4    1  0.2260076E+006  0.2041828E+02  0.7546771E-02  0.1737136E+00
          2   -1    0    0  502    0 -0.00000000000E+00  0.00000000000E+00  0.51775718575E+02  0.51775718575E+02  0.00000000000E+00 0. -1.
         21   -1    0    0  503  502  0.00000000000E+00 -0.00000000000E+00 -0.39046289810E+03  0.39046289810E+03  0.00000000000E+00 0. -1.
         21    1    1    2  503  501  0.14702938902E+02  0.14167917307E+02 -0.38817105045E+03  0.38870769314E+03  0.00000000000E+00 0. -1.
          2    1    1    2  501    0 -0.14702938902E+02 -0.14167917307E+02  0.49483870926E+02  0.53530923540E+02  0.00000000000E+00 0. -1.
<mgrwt>
<rscale>  2 0.20418283E+02</rscale>
<asrwt>0</asrwt>
<pdfrwt beam="2">  1       21 0.60071214E-01 0.20418283E+02</pdfrwt>
<pdfrwt beam="1">  1        2 0.79654953E-02 0.20418283E+02</pdfrwt>
<totfact> 0.25439542E+04</totfact>
</mgrwt>
</event>
<event>
 4    1  0.2260076E+006  0.5262649E+02  0.7546771E-02  0.1431669E+00
         -3   -1    0    0    0  501 -0.00000000000E+00  0.00000000000E+00  0.16549065500E+02  0.16549065500E+02  0.00000000000E+00 0. -1.
         21   -1    0    0  503  502  0.00000000000E+00 -0.00000000000E+00 -0.23637547074E+03  0.23637547074E+03  0.00000000000E+00 0. -1.
         21    1    1    2  503  501 -0.16115116661E+02 -0.50098410907E+02 -0.17824970273E+03  0.18585613867E+03  0.00000000000E+00 0. -1.
         -3    1    1    2    0  502  0.16115116661E+02  0.50098410907E+02 -0.41576702518E+02  0.67068397570E+02  0.00000000000E+00 0. -1.
<mgrwt>
<rscale>  2 0.52626493E+02</rscale>
<asrwt>0</asrwt>
<pdfrwt beam="2">  1       21 0.36365457E-01 0.52626493E+02</pdfrwt>
<pdfrwt beam="1">  1       -3 0.25460101E-02 0.52626493E+02</pdfrwt>
<totfact> 0.19741771E+05</totfact>
</mgrwt>
</event>
<event>
 4    1  0.2260076E+006  0.2329131E+02  0.7546771E-02  0.1686831E+00
         21   -1    0    0  503  502  0.00000000000E+00  0.00000000000E+00  0.17307229630E+02  0.17307229630E+02  0.00000000000E+00 0.  1.
         -1   -1    0    0    0  501 -0.00000000000E+00 -0.00000000000E+00 -0.23517868044E+03  0.23517868044E+03  0.00000000000E+00 0. -1.
         21    1    1    2  503  501  0.10493316928E+02 -0.20793634653E+02  0.85937441999E+01  0.24826143108E+02  0.00000000000E+00 0.  1.
         -1    1    1    2    0  502 -0.10493316928E+02  0.20793634653E+02 -0.22646519501E+03  0.22765976697E+03  0.00000000000E+00 0. -1.
<mgrwt>
<rscale>  2 0.23291306E+02</rscale>
<asrwt>0</asrwt>
<pdfrwt beam="1">  1       21 0.26626511E-02 0.23291306E+02</pdfrwt>
<pdfrwt beam="2">  1       -1 0.36181331E-01 0.23291306E+02</pdfrwt>
<totfact> 0.40133804E+05</totfact>
</mgrwt>
</event>
<event>
 4    1  0.2260076E+006  0.3020736E+02  0.7546771E-02  0.1595808E+00
          4   -1    0    0  503    0 -0.00000000000E+00  0.00000000000E+00  0.16258501003E+03  0.16258501003E+03  0.00000000000E+00 0.  1.
         21   -1    0    0  501  502  0.00000000000E+00 -0.00000000000E+00 -0.10184393299E+02  0.10184393299E+02  0.00000000000E+00 0.  1.
         21    1    1    2  503  502  0.72686263647E+01 -0.29319815604E+02  0.18320875437E+02  0.35329010643E+02  0.00000000000E+00 0.  1.
          4    1    1    2  501    0 -0.72686263647E+01  0.29319815604E+02  0.13407974130E+03  0.13744039269E+03  0.00000000000E+00 0.  1.
<mgrwt>
<rscale>  2 0.30207359E+02</rscale>
<asrwt>0</asrwt>
<pdfrwt beam="2">  1       21 0.15668299E-02 0.30207359E+02</pdfrwt>
<pdfrwt beam="1">  1        4 0.25013077E-01 0.30207359E+02</pdfrwt>
<totfact> 0.72388233E+05</totfact>
</mgrwt>
</event>
<event>
 4    1  0.2260076E+006  0.4513489E+02  0.7546771E-02  0.1473501E+00
          2   -1    0    0  502    0 -0.00000000000E+00  0.00000000000E+00  0.81789952218E+02  0.81789952218E+02  0.00000000000E+00 0. -1.
         21   -1    0    0  503  502  0.00000000000E+00 -0.00000000000E+00 -0.51337508208E+02  0.51337508208E+02  0.00000000000E+00 0. -1.
         21    1    1    2  503  501 -0.30291956042E+02 -0.33459760481E+02 -0.32534559625E+02  0.55638617365E+02  0.00000000000E+00 0. -1.
          2    1    1    2  501    0  0.30291956042E+02  0.33459760481E+02  0.62987003634E+02  0.77488843062E+02  0.00000000000E+00 0. -1.
<mgrwt>
<rscale>  2 0.45134889E+02</rscale>
<asrwt>0</asrwt>
<pdfrwt beam="2">  1       21 0.78980782E-02 0.45134889E+02</pdfrwt>
<pdfrwt beam="1">  1        2 0.12583070E-01 0.45134889E+02</pdfrwt>
<totfact> 0.62010537E+05</totfact>
</mgrwt>
</event>
<event>
 4    1  0.2260076E+006  0.2109417E+02  0.7546771E-02  0.1724406E+00
          2   -1    0    0  503    0 -0.00000000000E+00  0.00000000000E+00  0.34983637096E+03  0.34983637096E+03  0.00000000000E+00 0.  1.
         21   -1    0    0  501  502  0.00000000000E+00 -0.00000000000E+00 -0.11053771978E+02  0.11053771978E+02  0.00000000000E+00 0.  1.
         21    1    1    2  503  502  0.10551456855E+02 -0.18265559737E+02 -0.35499978533E+00  0.21097154763E+02  0.00000000000E+00 0.  1.
          2    1    1    2  501    0 -0.10551456855E+02  0.18265559737E+02  0.33913759877E+03  0.33979298818E+03  0.00000000000E+00 0.  1.
<mgrwt>
<rscale>  2 0.21094168E+02</rscale>
<asrwt>0</asrwt>
<pdfrwt beam="2">  1       21 0.17005806E-02 0.21094168E+02</pdfrwt>
<pdfrwt beam="1">  1        2 0.53820972E-01 0.21094168E+02</pdfrwt>
<totfact> 0.13602056E+06</totfact>
</mgrwt>
</event>
<event>
 4    1  0.2260076E+006  0.3654152E+02  0.7546771E-02  0.1535323E+00
         21   -1    0    0  503  502  0.00000000000E+00  0.00000000000E+00  0.27228260639E+01  0.27228260639E+01  0.00000000000E+00 0. -1.
          2   -1    0    0  502    0 -0.00000000000E+00 -0.00000000000E+00 -0.78421863384E+03  0.78421863384E+03  0.00000000000E+00 0. -1.
         21    1    1    2  503  501 -0.35673001469E+02 -0.79195833778E+01 -0.14990653044E+03  0.15429598408E+03  0.00000000000E+00 0. -1.
          2    1    1    2  501    0  0.35673001469E+02  0.79195833778E+01 -0.63158927733E+03  0.63264547582E+03  0.00000000000E+00 0. -1.
<mgrwt>
<rscale>  2 0.36541522E+02</rscale>
<asrwt>0</asrwt>
<pdfrwt beam="1">  1       21 0.41889588E-03 0.36541522E+02</pdfrwt>
<pdfrwt beam="2">  1        2 0.12064915E+00 0.36541522E+02</pdfrwt>
<totfact> 0.54022700E+06</totfact>
</mgrwt>
</event>
<event>
 4    1  0.2260076E+006  0.2073825E+02  0.7546771E-02  0.1731033E+00
          1   -1    0    0  503    0 -0.00000000000E+00  0.00000000000E+00  0.18800921704E+03  0.18800921704E+03  0.00000000000E+00 0.  1.
         21   -1    0    0  501  502  0.00000000000E+00 -0.00000000000E+00 -0.24401989450E+02  0.24401989450E+02  0.00000000000E+00 0.  1.
         21    1    1    2  503  502  0.10147560025E+02  0.18085958383E+02 -0.19301488697E+02  0.28330590022E+02  0.00000000000E+00 0.  1.
          1    1    1    2  501    0 -0.10147560025E+02 -0.18085958383E+02  0.18290871629E+03  0.18408061647E+03  0.00000000000E+00 0.  1.
<mgrwt>
<rscale>  2 0.20738246E+02</rscale>
<asrwt>0</asrwt>
<pdfrwt beam="2">  1       21 0.37541523E-02 0.20738246E+02</pdfrwt>
<pdfrwt beam="1">  1        1 0.28924494E-01 0.20738246E+02</pdfrwt>
<totfact> 0.57067179E+05</totfact>
</mgrwt>
</event>
<event>
 4    1  0.2260076E+006  0.2258195E+02  0.7546771E-02  0.1698378E+00
         -2   -1    0    0    0  501 -0.00000000000E+00  0.00000000000E+00  0.73651001617E+01  0.73651001617E+01  0.00000000000E+00 0.  1.
         21   -1    0    0  501  502  0.00000000000E+00 -0.00000000000E+00 -0.97754054848E+02  0.97754054848E+02  0.00000000000E+00 0.  1.
         21    1    1    2  503  502 -0.22404616543E+02 -0.28244554541E+01 -0.73582139216E+02  0.76969315982E+02  0.00000000000E+00 0.  1.
         -2    1    1    2    0  503  0.22404616543E+02  0.28244554541E+01 -0.16806815470E+02  0.28149839028E+02  0.00000000000E+00 0.  1.
<mgrwt>
<rscale>  2 0.22581948E+02</rscale>
<asrwt>0</asrwt>
<pdfrwt beam="2">  1       21 0.15039086E-01 0.22581948E+02</pdfrwt>
<pdfrwt beam="1">  1       -2 0.11330923E-02 0.22581948E+02</pdfrwt>
<totfact> 0.34765642E+06</totfact>
</mgrwt>
</event>
<event>
 4    1  0.2260076E+006  0.2028851E+02  0.7546771E-02  0.1739651E+00
          2   -1    0    0  502    0 -0.00000000000E+00  0.00000000000E+00  0.17105641367E+04  0.17105641367E+04  0.00000000000E+00 0.  1.
         21   -1    0    0  503  502  0.00000000000E+00 -0.00000000000E+00 -0.41431850209E+00  0.41431850209E+00  0.00000000000E+00 0. -1.
         21    1    1    2  503  501 -0.42481482300E+01 -0.19838772926E+02  0.30118283651E+03  0.30186540823E+03  0.00000000000E+00 0. -1.
          2    1    1    2  501    0  0.42481482300E+01  0.19838772926E+02  0.14089669817E+04  0.14091130470E+04  0.00000000000E+00 0.  1.
<mgrwt>
<rscale>  2 0.20288511E+02</rscale>
<asrwt>0</asrwt>
<pdfrwt beam="2">  1       21 0.63742678E-04 0.20288511E+02</pdfrwt>
<pdfrwt beam="1">  1        2 0.26315806E+00 0.20288511E+02</pdfrwt>
<totfact> 0.24042874E+07</totfact>
</mgrwt>
</event>
<event>
 4    1  0.2260076E+006  0.2164315E+02  0.7546771E-02  0.1714498E+00
          3   -1    0    0  503    0 -0.00000000000E+00  0.00000000000E+00  0.31412589607E+03  0.31412589607E+03  0.00000000000E+00 0.  1.
         21   -1    0    0  501  502  0.00000000000E+00 -0.00000000000E+00 -0.20015723605E+02  0.20015723605E+02  0.00000000000E+00 0. -1.
         21    1    1    2  503  502 -0.16074243578E+02  0.14492918416E+02 -0.13671751401E+02  0.25599663615E+02  0.00000000000E+00 0. -1.
          3    1    1    2  501    0  0.16074243578E+02 -0.14492918416E+02  0.30778192387E+03  0.30854195606E+03  0.00000000000E+00 0.  1.
<mgrwt>
<rscale>  2 0.21643151E+02</rscale>
<asrwt>0</asrwt>
<pdfrwt beam="2">  1       21 0.30793423E-02 0.21643151E+02</pdfrwt>
<pdfrwt beam="1">  1        3 0.48327057E-01 0.21643151E+02</pdfrwt>
<totfact> 0.87390547E+04</totfact>
</mgrwt>
</event>
<event>
 4    1  0.2260076E+006  0.3832040E+02  0.7546771E-02  0.1520948E+00
          2   -1    0    0  502    0 -0.00000000000E+00  0.00000000000E+00  0.51651466130E+03  0.51651466130E+03  0.00000000000E+00 0.  1.
         21   -1    0    0  503  502  0.00000000000E+00 -0.00000000000E+00 -0.63248222518E+01  0.63248222518E+01  0.00000000000E+00 0.  1.
         21    1    1    2  503  501  0.17426152205E+02 -0.34128911254E+02  0.61132651538E+02  0.72150221400E+02  0.00000000000E+00 0.  1.
          2    1    1    2  501    0 -0.17426152205E+02  0.34128911254E+02  0.44905718751E+03  0.45068926215E+03  0.00000000000E+00 0.  1.
<mgrwt>
<rscale>  2 0.38320404E+02</rscale>
<asrwt>0</asrwt>
<pdfrwt beam="2">  1       21 0.97304999E-03 0.38320404E+02</pdfrwt>
<pdfrwt beam="1">  1        2 0.79463761E-01 0.38320404E+02</pdfrwt>
<totfact> 0.24122267E+06</totfact>
</mgrwt>
</event>
<event>
 4    1  0.2260076E+006  0.2175814E+02  0.7546771E-02  0.1712469E+00
         -3   -1    0    0    0  501 -0.00000000000E+00  0.00000000000E+00  0.83924294375E+03  0.83924294375E+03  0.00000000000E+00 0. -1.
         21   -1    0    0  501  502  0.00000000000E+00 -0.00000000000E+00 -0.40640203206E+01  0.40640203206E+01  0.00000000000E+00 0. -1.
         21    1    1    2  503  502  0.15936052526E+01 -0.21699700339E+02  0.26292152142E+02  0.34127611062E+02  0.00000000000E+00 0. -1.
         -3    1    1    2    0  503 -0.15936052526E+01  0.21699700339E+02  0.80888677129E+03  0.80917935301E+03  0.00000000000E+00 0. -1.
<mgrwt>
<rscale>  2 0.21758138E+02</rscale>
<asrwt>0</asrwt>
<pdfrwt beam="2">  1       21 0.62523456E-03 0.21758138E+02</pdfrwt>
<pdfrwt beam="1">  1       -3 0.12911416E+00 0.21758138E+02</pdfrwt>
<totfact> 0.12833264E+05</totfact>
</mgrwt>
</event>
<event>
 4    1  0.2260076E+006  0.2076704E+02  0.7546771E-02  0.1730491E+00
         21   -1    0    0  503  502  0.00000000000E+00  0.00000000000E+00  0.42389818448E+02  0.42389818448E+02  0.00000000000E+00 0. -1.
          3   -1    0    0  502    0 -0.00000000000E+00 -0.00000000000E+00 -0.22914974597E+02  0.22914974597E+02  0.00000000000E+00 0.  1.
         21    1    1    2  503  501  0.15080275530E+02 -0.14277793009E+02  0.34085140686E+02  0.39913242149E+02  0.00000000000E+00 0. -1.
          3    1    1    2  501    0 -0.15080275530E+02  0.14277793009E+02 -0.14610296836E+02  0.25391550896E+02  0.00000000000E+00 0.  1.
<mgrwt>
<rscale>  2 0.20767043E+02</rscale>
<asrwt>0</asrwt>
<pdfrwt beam="1">  1       21 0.65215105E-02 0.20767043E+02</pdfrwt>
<pdfrwt beam="2">  1        3 0.35253807E-02 0.20767043E+02</pdfrwt>
<totfact> 0.18712353E+06</totfact>
</mgrwt>
</event>
<event>
 4    1  0.2260076E+006  0.2442582E+02  0.7546771E-02  0.1669389E+00
         -2   -1    0    0    0  501 -0.00000000000E+00  0.00000000000E+00  0.11759085205E+03  0.11759085205E+03  0.00000000000E+00 0. -1.
         21   -1    0    0  501  502  0.00000000000E+00 -0.00000000000E+00 -0.25335537910E+02  0.25335537910E+02  0.00000000000E+00 0. -1.
         21    1    1    2  503  502  0.64785041773E+01 -0.23550998331E+02 -0.17780574132E+02  0.30212073005E+02  0.00000000000E+00 0. -1.
         -2    1    1    2    0  503 -0.64785041773E+01  0.23550998331E+02  0.11003588827E+03  0.11271431695E+03  0.00000000000E+00 0. -1.
<mgrwt>
<rscale>  2 0.24425817E+02</rscale>
<asrwt>0</asrwt>
<pdfrwt beam="2">  1       21 0.38977751E-02 0.24425817E+02</pdfrwt>
<pdfrwt beam="1">  1       -2 0.18090900E-01 0.24425817E+02</pdfrwt>
<totfact> 0.60614955E+05</totfact>
</mgrwt>
</event>
<event>
 4    1  0.2260076E+006  0.2211168E+02  0.7546771E-02  0.1706328E+00
         21   -1    0    0  501  502  0.00000000000E+00  0.00000000000E+00  0.79785106039E+01  0.79785106039E+01  0.00000000000E+00 0. -1.
          2   -1    0    0  503    0 -0.00000000000E+00 -0.00000000000E+00 -0.12292250643E+04  0.12292250643E+04  0.00000000000E+00 0.  1.
         21    1    1    2  503  502  0.51374082023E+01 -0.21506585654E+02 -0.76381450725E+01  0.23393748089E+02  0.00000000000E+00 0. -1.
          2    1    1    2  501    0 -0.51374082023E+01  0.21506585654E+02 -0.12136084086E+04  0.12138098268E+04  0.00000000000E+00 0.  1.
<mgrwt>
<rscale>  2 0.22111675E+02</rscale>
<asrwt>0</asrwt>
<pdfrwt beam="1">  1       21 0.12274647E-02 0.22111675E+02</pdfrwt>
<pdfrwt beam="2">  1        2 0.18911131E+00 0.22111675E+02</pdfrwt>
<totfact> 0.56227371E+05</totfact>
</mgrwt>
</event>
<event>
 4    1  0.2260076E+006  0.4741164E+02  0.7546771E-02  0.1459824E+00
         -4   -1    0    0    0  501 -0.00000000000E+00  0.00000000000E+00  0.10866561702E+03  0.10866561702E+03  0.00000000000E+00 0.  1.
         21   -1    0    0  503  502  0.00000000000E+00 -0.00000000000E+00 -0.23656509756E+02  0.23656509756E+02  0.00000000000E+00 0.  1.
         21    1    1    2  503  501 -0.32365820758E+02 -0.34645599148E+02  0.19060216132E+02  0.51099469006E+02  0.00000000000E+00 0.  1.
         -4    1    1    2    0  502  0.32365820758E+02  0.34645599148E+02  0.65948891129E+02  0.81222657767E+02  0.00000000000E+00 0.  1.
<mgrwt>
<rscale>  2 0.47411643E+02</rscale>
<asrwt>0</asrwt>
<pdfrwt beam="2">  1       21 0.36394631E-02 0.47411643E+02</pdfrwt>
<pdfrwt beam="1">  1       -4 0.16717787E-01 0.47411643E+02</pdfrwt>
<totfact> 0.44877967E+05</totfact>
</mgrwt>
</event>
<event>
 4    1  0.2260076E+006  0.2462799E+02  0.7546771E-02  0.1666403E+00
          2   -1    0    0  503    0 -0.00000000000E+00  0.00000000000E+00  0.17171647177E+03  0.17171647177E+03  0.00000000000E+00 0.  1.
         21   -1    0    0  501  502  0.00000000000E+00 -0.00000000000E+00 -0.51246663601E+02  0.51246663601E+02  0.00000000000E+00 0. -1.
         21    1    1    2  503  502 -0.11020795654E+02  0.22024528953E+02 -0.47336111436E+02  0.53359584503E+02  0.00000000000E+00 0. -1.
          2    1    1    2  501    0  0.11020795654E+02 -0.22024528953E+02  0.16780591960E+03  0.16960355087E+03  0.00000000000E+00 0.  1.
<mgrwt>
<rscale>  2 0.24627988E+02</rscale>
<asrwt>0</asrwt>
<pdfrwt beam="2">  1       21 0.78841022E-02 0.24627988E+02</pdfrwt>
<pdfrwt beam="1">  1        2 0.26417918E-01 0.24627988E+02</pdfrwt>
<totfact> 0.25499103E+05</totfact>
</mgrwt>
</event>
<event>
 4    1  0.2260076E+006  0.2382998E+02  0.7546771E-02  0.1678399E+00
         21   -1    0    0  503  502  0.00000000000E+00  0.00000000000E+00  0.11442351106E+01  0.11442351106E+01  0.00000000000E+00 0. -1.
          2   -1    0    0  502    0 -0.00000000000E+00 -0.00000000000E+00 -0.13242212324E+04  0.13242212324E+04  0.00000000000E+00 0. -1.
         21    1    1    2  503  501  0.22574533508E+02  0.76327288078E+01 -0.13754788512E+03  0.13959687967E+03  0.00000000000E+00 0. -1.
          2    1    1    2  501    0 -0.22574533508E+02 -0.76327288078E+01 -0.11855291121E+04  0.11857685878E+04  0.00000000000E+00 0. -1.
<mgrwt>
<rscale>  2 0.23829983E+02</rscale>
<asrwt>0</asrwt>
<pdfrwt beam="1">  1       21 0.17603669E-03 0.23829983E+02</pdfrwt>
<pdfrwt beam="2">  1        2 0.20372574E+00 0.23829983E+02</pdfrwt>
<totfact> 0.89483621E+06</totfact>
</mgrwt>
</event>
<event>
 4    1  0.2260076E+006  0.2575439E+02  0.7546771E-02  0.1650397E+00
         21   -1    0    0  501  502  0.00000000000E+00  0.00000000000E+00  0.12310038205E+01  0.12310038205E+01  0.00000000000E+00 0.  1.
          1   -1    0    0  503    0 -0.00000000000E+00 -0.00000000000E+00 -0.56139356961E+03  0.56139356961E+03  0.00000000000E+00 0.  1.
         21    1    1    2  503  502  0.57334366666E+01  0.25108092597E+02 -0.22367053045E+03  0.22514838397E+03  0.00000000000E+00 0.  1.
          1    1    1    2  501    0 -0.57334366666E+01 -0.25108092597E+02 -0.33649203533E+03  0.33747618946E+03  0.00000000000E+00 0.  1.
<mgrwt>
<rscale>  2 0.25754390E+02</rscale>
<asrwt>0</asrwt>
<pdfrwt beam="1">  1       21 0.18938531E-03 0.25754390E+02</pdfrwt>
<pdfrwt beam="2">  1        1 0.86368194E-01 0.25754390E+02</pdfrwt>
<totfact> 0.14679780E+07</totfact>
</mgrwt>
</event>
<event>
 4    1  0.2260076E+006  0.3210671E+02  0.7546771E-02  0.1575905E+00
          2   -1    0    0  503    0 -0.00000000000E+00  0.00000000000E+00  0.51532572981E+03  0.51532572981E+03  0.00000000000E+00 0. -1.
         21   -1    0    0  501  502  0.00000000000E+00 -0.00000000000E+00 -0.44494098950E+01  0.44494098950E+01  0.00000000000E+00 0.  1.
         21    1    1    2  503  502  0.65224533164E+01  0.31437209103E+02  0.62626848726E+02  0.70377288204E+02  0.00000000000E+00 0.  1.
          2    1    1    2  501    0 -0.65224533164E+01 -0.31437209103E+02  0.44824947119E+03  0.44939785150E+03  0.00000000000E+00 0. -1.
<mgrwt>
<rscale>  2 0.32106705E+02</rscale>
<asrwt>0</asrwt>
<pdfrwt beam="2">  1       21 0.68452500E-03 0.32106705E+02</pdfrwt>
<pdfrwt beam="1">  1        2 0.79280835E-01 0.32106705E+02</pdfrwt>
<totfact> 0.39857997E+06</totfact>
</mgrwt>
</event>
<event>
 4    1  0.2260076E+006  0.2026841E+02  0.7546771E-02  0.1740042E+00
          3   -1    0    0  503    0 -0.00000000000E+00  0.00000000000E+00  0.66103956184E+02  0.66103956184E+02  0.00000000000E+00 0. -1.
         21   -1    0    0  501  502  0.00000000000E+00 -0.00000000000E+00 -0.12837571817E+02  0.12837571817E+02  0.00000000000E+00 0. -1.
         21    1    1    2  503  502  0.11005395123E+02  0.17020273454E+02 -0.17173354618E+01  0.20341034176E+02  0.00000000000E+00 0. -1.
          3    1    1    2  501    0 -0.11005395123E+02 -0.17020273454E+02  0.54983719829E+02  0.58600493825E+02  0.00000000000E+00 0. -1.
<mgrwt>
<rscale>  2 0.20268410E+02</rscale>
<asrwt>0</asrwt>
<pdfrwt beam="2">  1       21 0.19750111E-02 0.20268410E+02</pdfrwt>
<pdfrwt beam="1">  1        3 0.10169839E-01 0.20268410E+02</pdfrwt>
<totfact> 0.24041651E+06</totfact>
</mgrwt>
</event>
<event>
 4    1  0.2260076E+006  0.2541725E+02  0.7546771E-02  0.1655080E+00
         -1   -1    0    0    0  501 -0.00000000000E+00  0.00000000000E+00  0.79900717216E+03  0.79900717216E+03  0.00000000000E+00 0.  1.
         21   -1    0    0  501  502  0.00000000000E+00 -0.00000000000E+00 -0.67736585179E+01  0.67736585179E+01  0.00000000000E+00 0. -1.
         21    1    1    2  503  502  0.59479976915E+01 -0.24711491419E+02  0.18036067890E+02  0.31166267496E+02  0.00000000000E+00 0. -1.
         -1    1    1    2    0  503 -0.59479976915E+01  0.24711491419E+02  0.77419744575E+03  0.77461456318E+03  0.00000000000E+00 0.  1.
<mgrwt>
<rscale>  2 0.25417248E+02</rscale>
<asrwt>0</asrwt>
<pdfrwt beam="2">  1       21 0.10421019E-02 0.25417248E+02</pdfrwt>
<pdfrwt beam="1">  1       -1 0.12292411E+00 0.25417248E+02</pdfrwt>
<totfact> 0.17087347E+05</totfact>
</mgrwt>
</event>
<event>
 4    1  0.2260076E+006  0.2126931E+02  0.7546771E-02  0.1721204E+00
         -2   -1    0    0    0  501 -0.00000000000E+00  0.00000000000E+00  0.39758044420E+02  0.39758044420E+02  0.00000000000E+00 0.  1.
         21   -1    0    0  501  502  0.00000000000E+00 -0.00000000000E+00 -0.71115935845E+02  0.71115935845E+02  0.00000000000E+00 0.  1.
         21    1    1    2  503  502 -0.58478748749E+01 -0.20449596909E+02 -0.66487842388E+02  0.69806997068E+02  0.00000000000E+00 0.  1.
         -2    1    1    2    0  503  0.58478748749E+01  0.20449596909E+02  0.35129950962E+02  0.41066983197E+02  0.00000000000E+00 0.  1.
<mgrwt>
<rscale>  2 0.21269313E+02</rscale>
<asrwt>0</asrwt>
<pdfrwt beam="2">  1       21 0.10940913E-01 0.21269313E+02</pdfrwt>
<pdfrwt beam="1">  1       -2 0.61166223E-02 0.21269313E+02</pdfrwt>
<totfact> 0.56593447E+05</totfact>
</mgrwt>
</event>
<event>
 4    1  0.2260076E+006  0.2223050E+02  0.7546771E-02  0.1704296E+00
          2   -1    0    0  503    0 -0.00000000000E+00  0.00000000000E+00  0.96668109554E+03  0.96668109554E+03  0.00000000000E+00 0.  1.
         21   -1    0    0  501  502  0.00000000000E+00 -0.00000000000E+00 -0.52201457650E+01  0.52201457650E+01  0.00000000000E+00 0. -1.
         21    1    1    2  503  502  0.11680028782E+02  0.18914861875E+02  0.19188345832E+02  0.29366438120E+02  0.00000000000E+00 0. -1.
          2    1    1    2  501    0 -0.11680028782E+02 -0.18914861875E+02  0.94227260394E+03  0.94253480319E+03  0.00000000000E+00 0.  1.
<mgrwt>
<rscale>  2 0.22230499E+02</rscale>
<asrwt>0</asrwt>
<pdfrwt beam="2">  1       21 0.80310012E-03 0.22230499E+02</pdfrwt>
<pdfrwt beam="1">  1        2 0.14872003E+00 0.22230499E+02</pdfrwt>
<totfact> 0.14555509E+06</totfact>
</mgrwt>
</event>
<event>
 4    1  0.2260076E+006  0.2106863E+02  0.7546771E-02  0.1724876E+00
         -2   -1    0    0    0  501 -0.00000000000E+00  0.00000000000E+00  0.12390446788E+03  0.12390446788E+03  0.00000000000E+00 0.  1.
         21   -1    0    0  501  502  0.00000000000E+00 -0.00000000000E+00 -0.40495546106E+01  0.40495546106E+01  0.00000000000E+00 0. -1.
         21    1    1    2  503  502  0.27639324920E+00  0.21066814008E+02  0.38200103880E+02  0.43624935325E+02  0.00000000000E+00 0. -1.
         -2    1    1    2    0  503 -0.27639324920E+00 -0.21066814008E+02  0.81654809386E+02  0.84329087162E+02  0.00000000000E+00 0.  1.
<mgrwt>
<rscale>  2 0.21068627E+02</rscale>
<asrwt>0</asrwt>
<pdfrwt beam="2">  1       21 0.62300849E-03 0.21068627E+02</pdfrwt>
<pdfrwt beam="1">  1       -2 0.19062223E-01 0.21068627E+02</pdfrwt>
<totfact> 0.87491905E+06</totfact>
</mgrwt>
</event>
<event>
 4    1  0.2260076E+006  0.3337191E+02  0.7546771E-02  0.1563553E+00
         -1   -1    0    0    0  501 -0.00000000000E+00  0.00000000000E+00  0.17245710027E+03  0.17245710027E+03  0.00000000000E+00 0.  1.
         21   -1    0    0  501  502  0.00000000000E+00 -0.00000000000E+00 -0.55258710635E+02  0.55258710635E+02  0.00000000000E+00 0. -1.
         21    1    1    2  503  502  0.14041590617E+02 -0.30274050633E+02 -0.48399138595E+02  0.58789123361E+02  0.00000000000E+00 0. -1.
         -1    1    1    2    0  503 -0.14041590617E+02  0.30274050633E+02  0.16559752823E+03  0.16892668755E+03  0.00000000000E+00 0.  1.
<mgrwt>
<rscale>  2 0.33371910E+02</rscale>
<asrwt>0</asrwt>
<pdfrwt beam="2">  1       21 0.85013402E-02 0.33371910E+02</pdfrwt>
<pdfrwt beam="1">  1       -1 0.26531861E-01 0.33371910E+02</pdfrwt>
<totfact> 0.10880101E+05</totfact>
</mgrwt>
</event>
<event>
 4    1  0.2260076E+006  0.3057797E+02  0.7546771E-02  0.1591786E+00
         21   -1    0    0  501  502  0.00000000000E+00  0.00000000000E+00  0.11945965816E+02  0.11945965816E+02  0.00000000000E+00 0. -1.
         -3   -1    0    0    0  501 -0.00000000000E+00 -0.00000000000E+00 -0.29542398464E+03  0.29542398464E+03  0.00000000000E+00 0. -1.
         21    1    1    2  503  502 -0.30513467764E+02 -0.19850393799E+01 -0.99763584510E+01  0.32164263154E+02  0.00000000000E+00 0. -1.
         -3    1    1    2    0  503  0.30513467764E+02  0.19850393799E+01 -0.27350166038E+03  0.27520568730E+03  0.00000000000E+00 0. -1.
<mgrwt>
<rscale>  2 0.30577967E+02</rscale>
<asrwt>0</asrwt>
<pdfrwt beam="1">  1       21 0.18378411E-02 0.30577967E+02</pdfrwt>
<pdfrwt beam="2">  1       -3 0.45449838E-01 0.30577967E+02</pdfrwt>
<totfact> 0.24017827E+05</totfact>
</mgrwt>
</event>
<event>
 4    1  0.2260076E+006  0.2526380E+02  0.7546771E-02  0.1657241E+00
          4   -1    0    0  502    0 -0.00000000000E+00  0.00000000000E+00  0.13968584002E+02  0.13968584002E+02  0.00000000000E+00 0. -1.
         21   -1    0    0  503  502  0.00000000000E+00 -0.00000000000E+00 -0.29645815179E+03  0.29645815179E+03  0.00000000000E+00 0.  1.
         21    1    1    2  503  501  0.18031872982E+02  0.17694949646E+02 -0.28399653320E+03  0.28511802917E+03  0.00000000000E+00 0.  1.
          4    1    1    2  501    0 -0.18031872982E+02 -0.17694949646E+02  0.15069654147E+01  0.25308706624E+02  0.00000000000E+00 0. -1.
<mgrwt>
<rscale>  2 0.25263802E+02</rscale>
<asrwt>0</asrwt>
<pdfrwt beam="2">  1       21 0.45608941E-01 0.25263802E+02</pdfrwt>
<pdfrwt beam="1">  1        4 0.21490132E-02 0.25263802E+02</pdfrwt>
<totfact> 0.12093326E+05</totfact>
</mgrwt>
</event>
<event>
 4    1  0.2260076E+006  0.2375057E+02  0.7546771E-02  0.1679625E+00
         -3   -1    0    0    0  501 -0.00000000000E+00  0.00000000000E+00  0.20203870957E+03  0.20203870957E+03  0.00000000000E+00 0.  1.
         21   -1    0    0  503  502  0.00000000000E+00 -0.00000000000E+00 -0.10492199727E+03  0.10492199727E+03  0.00000000000E+00 0.  1.
         21    1    1    2  503  501 -0.16421130193E+02 -0.17159134596E+02 -0.10286616332E+03  0.10557242525E+03  0.00000000000E+00 0.  1.
         -3    1    1    2    0  502  0.16421130193E+02  0.17159134596E+02  0.19998287562E+03  0.20138828158E+03  0.00000000000E+00 0.  1.
<mgrwt>
<rscale>  2 0.23750567E+02</rscale>
<asrwt>0</asrwt>
<pdfrwt beam="2">  1       21 0.16141846E-01 0.23750567E+02</pdfrwt>
<pdfrwt beam="1">  1       -3 0.31082878E-01 0.23750567E+02</pdfrwt>
<totfact> 0.13569272E+04</totfact>
</mgrwt>
</event>
<event>
 4    1  0.2260076E+006  0.2240479E+02  0.7546771E-02  0.1701344E+00
         21   -1    0    0  501  502  0.00000000000E+00  0.00000000000E+00  0.40222986176E+01  0.40222986176E+01  0.00000000000E+00 0.  1.
          1   -1    0    0  503    0 -0.00000000000E+00 -0.00000000000E+00 -0.18516806413E+03  0.18516806413E+03  0.00000000000E+00 0.  1.
         21    1    1    2  503  502  0.17656804752E+02 -0.13791737303E+02 -0.36560064866E+02  0.42879052169E+02  0.00000000000E+00 0.  1.
          1    1    1    2  501    0 -0.17656804752E+02  0.13791737303E+02 -0.14458570064E+03  0.14631131058E+03  0.00000000000E+00 0.  1.
<mgrwt>
<rscale>  2 0.22404794E+02</rscale>
<asrwt>0</asrwt>
<pdfrwt beam="1">  1       21 0.61881523E-03 0.22404794E+02</pdfrwt>
<pdfrwt beam="2">  1        1 0.28487392E-01 0.22404794E+02</pdfrwt>
<totfact> 0.91551381E+06</totfact>
</mgrwt>
</event>
<event>
 4    1  0.2260076E+006  0.2828983E+02  0.7546771E-02  0.1617800E+00
          2   -1    0    0  503    0 -0.00000000000E+00  0.00000000000E+00  0.24864712309E+03  0.24864712309E+03  0.00000000000E+00 0. -1.
         21   -1    0    0  501  502  0.00000000000E+00 -0.00000000000E+00 -0.62827048666E+01  0.62827048666E+01  0.00000000000E+00 0.  1.
         21    1    1    2  503  502 -0.24222388854E+02  0.14614737183E+02  0.32167102794E+02  0.42837333798E+02  0.00000000000E+00 0.  1.
          2    1    1    2  501    0  0.24222388854E+02 -0.14614737183E+02  0.21019731543E+03  0.21209249416E+03  0.00000000000E+00 0. -1.
<mgrwt>
<rscale>  2 0.28289833E+02</rscale>
<asrwt>0</asrwt>
<pdfrwt beam="2">  1       21 0.96657017E-03 0.28289833E+02</pdfrwt>
<pdfrwt beam="1">  1        2 0.38253396E-01 0.28289833E+02</pdfrwt>
<totfact> 0.47956995E+06</totfact>
</mgrwt>
</event>
<event>
 4    1  0.2260076E+006  0.2006368E+02  0.7546771E-02  0.1744065E+00
          2   -1    0    0  503    0 -0.00000000000E+00  0.00000000000E+00  0.15427410400E+04  0.15427410400E+04  0.00000000000E+00 0.  1.
         21   -1    0    0  501  502  0.00000000000E+00 -0.00000000000E+00 -0.14913128980E+01  0.14913128980E+01  0.00000000000E+00 0. -1.
         21    1    1    2  503  502  0.17998261232E+02  0.88664490150E+01  0.69302059583E+02  0.72147950685E+02  0.00000000000E+00 0. -1.
          2    1    1    2  501    0 -0.17998261232E+02 -0.88664490150E+01  0.14719476675E+04  0.14720844022E+04  0.00000000000E+00 0.  1.
<mgrwt>
<rscale>  2 0.20063682E+02</rscale>
<asrwt>0</asrwt>
<pdfrwt beam="2">  1       21 0.22943399E-03 0.20063682E+02</pdfrwt>
<pdfrwt beam="1">  1        2 0.23734350E+00 0.20063682E+02</pdfrwt>
<totfact> 0.46322593E+06</totfact>
</mgrwt>
</event>
<event>
 4    1  0.2260076E+006  0.2769759E+02  0.7546771E-02  0.1625028E+00
         -4   -1    0    0    0  501 -0.00000000000E+00  0.00000000000E+00  0.10523114727E+02  0.10523114727E+02  0.00000000000E+00 0.  1.
         21   -1    0    0  503  502  0.00000000000E+00 -0.00000000000E+00 -0.67957548629E+03  0.67957548629E+03  0.00000000000E+00 0. -1.
         21    1    1    2  503  501  0.27697541520E+02  0.53073913037E-01 -0.66054284231E+03  0.66112328892E+03  0.00000000000E+00 0. -1.
         -4    1    1    2    0  502 -0.27697541520E+02 -0.53073913037E-01 -0.85095292524E+01  0.28975312098E+02  0.00000000000E+00 0.  1.
<mgrwt>
<rscale>  2 0.27697592E+02</rscale>
<asrwt>0</asrwt>
<pdfrwt beam="2">  1       21 0.10455008E+00 0.27697592E+02</pdfrwt>
<pdfrwt beam="1">  1       -4 0.16189407E-02 0.27697592E+02</pdfrwt>
<totfact> 0.33950633E+04</totfact>
</mgrwt>
</event>
<event>
 4    1  0.2260076E+006  0.2954577E+02  0.7546771E-02  0.1603164E+00
          2   -1    0    0  502    0 -0.00000000000E+00  0.00000000000E+00  0.13099626809E+04  0.13099626809E+04  0.00000000000E+00 0. -1.
         21   -1    0    0  503  502  0.00000000000E+00 -0.00000000000E+00 -0.73518005490E+01  0.73518005490E+01  0.00000000000E+00 0. -1.
         21    1    1    2  503  501  0.36759666224E+01  0.29316205909E+02  0.23208772791E+02  0.37571262875E+02  0.00000000000E+00 0. -1.
          2    1    1    2  501    0 -0.36759666224E+01 -0.29316205909E+02  0.12794021076E+04  0.12797432186E+04  0.00000000000E+00 0. -1.
<mgrwt>
<rscale>  2 0.29545772E+02</rscale>
<asrwt>0</asrwt>
<pdfrwt beam="2">  1       21 0.11310473E-02 0.29545772E+02</pdfrwt>
<pdfrwt beam="1">  1        2 0.20153253E+00 0.29545772E+02</pdfrwt>
<totfact> 0.60250174E+05</totfact>
</mgrwt>
</event>
<event>
 4    1  0.2260076E+006  0.2660892E+02  0.7546771E-02  0.1638913E+00
         21   -1    0    0  503  502  0.00000000000E+00  0.00000000000E+00  0.17175954121E+02  0.17175954121E+02  0.00000000000E+00 0.  1.
         -4   -1    0    0    0  501 -0.00000000000E+00 -0.00000000000E+00 -0.21131227979E+03  0.21131227979E+03  0.00000000000E+00 0. -1.
         21    1    1    2  503  501  0.25664261470E+02 -0.70271165555E+01  0.54287223053E+01  0.27157056353E+02  0.00000000000E+00 0.  1.
         -4    1    1    2    0  502 -0.25664261470E+02  0.70271165555E+01 -0.19956504798E+03  0.20133117756E+03  0.00000000000E+00 0. -1.
<mgrwt>
<rscale>  2 0.26608921E+02</rscale>
<asrwt>0</asrwt>
<pdfrwt beam="1">  1       21 0.26424547E-02 0.26608921E+02</pdfrwt>
<pdfrwt beam="2">  1       -4 0.32509579E-01 0.26608921E+02</pdfrwt>
<totfact> 0.19215696E+05</totfact>
</mgrwt>
</event>
<event>
 4    1  0.2260076E+006  0.2601590E+02  0.7546771E-02  0.1646825E+00
         21   -1    0    0  501  502  0.00000000000E+00  0.00000000000E+00  0.86339615414E+01  0.86339615414E+01  0.00000000000E+00 0. -1.
          1   -1    0    0  503    0 -0.00000000000E+00 -0.00000000000E+00 -0.29467872385E+03  0.29467872385E+03  0.00000000000E+00 0.  1.
         21    1    1    2  503  502 -0.23476246021E+02  0.11211281370E+02 -0.13094641912E+02  0.29125531823E+02  0.00000000000E+00 0. -1.
          1    1    1    2  501    0  0.23476246021E+02 -0.11211281370E+02 -0.27295012040E+03  0.27418715357E+03  0.00000000000E+00 0.  1.
<mgrwt>
<rscale>  2 0.26015898E+02</rscale>
<asrwt>0</asrwt>
<pdfrwt beam="1">  1       21 0.13283017E-02 0.26015898E+02</pdfrwt>
<pdfrwt beam="2">  1        1 0.45335190E-01 0.26015898E+02</pdfrwt>
<totfact> 0.17624017E+06</totfact>
</mgrwt>
</event>
<event>
 4    1  0.2260076E+006  0.4148323E+02  0.7546771E-02  0.1497572E+00
         21   -1    0    0  501  502  0.00000000000E+00  0.00000000000E+00  0.37496775863E+03  0.37496775863E+03  0.00000000000E+00 0. -1.
         -2   -1    0    0    0  501 -0.00000000000E+00 -0.00000000000E+00 -0.36545294466E+02  0.36545294466E+02  0.00000000000E+00 0.  1.
         21    1    1    2  503  502  0.41478483680E+02 -0.62772387451E+00  0.36161506051E+03  0.36398669019E+03  0.00000000000E+00 0. -1.
         -2    1    1    2    0  503 -0.41478483680E+02  0.62772387451E+00 -0.23192596349E+02  0.47526362906E+02  0.00000000000E+00 0.  1.
<mgrwt>
<rscale>  2 0.41483233E+02</rscale>
<asrwt>0</asrwt>
<pdfrwt beam="1">  1       21 0.57687345E-01 0.41483233E+02</pdfrwt>
<pdfrwt beam="2">  1       -2 0.56223533E-02 0.41483233E+02</pdfrwt>
<totfact> 0.34095813E+04</totfact>
</mgrwt>
</event>
<event>
 4    1  0.2260076E+006  0.2301542E+02  0.7546771E-02  0.1691260E+00
         21   -1    0    0  503  502  0.00000000000E+00  0.00000000000E+00  0.79701849251E+00  0.79701849251E+00  0.00000000000E+00 0.  1.
          2   -1    0    0  502    0 -0.00000000000E+00 -0.00000000000E+00 -0.14346051377E+04  0.14346051377E+04  0.00000000000E+00 0.  1.
         21    1    1    2  503  501 -0.20960362266E+02  0.95064698913E+01 -0.19110448198E+03  0.19248540929E+03  0.00000000000E+00 0.  1.
          2    1    1    2  501    0  0.20960362266E+02 -0.95064698913E+01 -0.12427036372E+04  0.12429167469E+04  0.00000000000E+00 0.  1.
<mgrwt>
<rscale>  2 0.23015424E+02</rscale>
<asrwt>0</asrwt>
<pdfrwt beam="1">  1       21 0.12261942E-03 0.23015424E+02</pdfrwt>
<pdfrwt beam="2">  1        2 0.22070635E+00 0.23015424E+02</pdfrwt>
<totfact> 0.13200083E+07</totfact>
</mgrwt>
</event>
<event>
 4    1  0.2260076E+006  0.2177006E+02  0.7546771E-02  0.1712259E+00
         21   -1    0    0  503  502  0.00000000000E+00  0.00000000000E+00  0.47360155216E+01  0.47360155216E+01  0.00000000000E+00 0.  1.
          2   -1    0    0  502    0 -0.00000000000E+00 -0.00000000000E+00 -0.11161783434E+04  0.11161783434E+04  0.00000000000E+00 0. -1.
         21    1    1    2  503  501 -0.20970871539E+02  0.58444970305E+01 -0.20977637589E+02  0.30232381273E+02  0.00000000000E+00 0.  1.
          2    1    1    2  501    0  0.20970871539E+02 -0.58444970305E+01 -0.10904646903E+04  0.10906819777E+04  0.00000000000E+00 0. -1.
<mgrwt>
<rscale>  2 0.21770062E+02</rscale>
<asrwt>0</asrwt>
<pdfrwt beam="1">  1       21 0.72861742E-03 0.21770062E+02</pdfrwt>
<pdfrwt beam="2">  1        2 0.17171983E+00 0.21770062E+02</pdfrwt>
<totfact> 0.13963137E+06</totfact>
</mgrwt>
</event>
<event>
 4    1  0.2260076E+006  0.3557751E+02  0.7546771E-02  0.1543531E+00
         21   -1    0    0  503  502  0.00000000000E+00  0.00000000000E+00  0.71808777434E+03  0.71808777434E+03  0.00000000000E+00 0. -1.
          1   -1    0    0  502    0 -0.00000000000E+00 -0.00000000000E+00 -0.12203342391E+04  0.12203342391E+04  0.00000000000E+00 0. -1.
         21    1    1    2  503  501  0.85177634753E+01  0.34542824684E+02  0.71738754555E+03  0.71826920409E+03  0.00000000000E+00 0. -1.
          1    1    1    2  501    0 -0.85177634753E+01 -0.34542824684E+02 -0.12196340103E+04  0.12201528093E+04  0.00000000000E+00 0. -1.
<mgrwt>
<rscale>  2 0.35577507E+02</rscale>
<asrwt>0</asrwt>
<pdfrwt beam="1">  1       21 0.11047504E+00 0.35577507E+02</pdfrwt>
<pdfrwt beam="2">  1        1 0.18774373E+00 0.35577507E+02</pdfrwt>
<totfact> 0.11125841E+02</totfact>
</mgrwt>
</event>
<event>
 4    1  0.2260076E+006  0.4104588E+02  0.7546771E-02  0.1500653E+00
         21   -1    0    0  501  502  0.00000000000E+00  0.00000000000E+00  0.34495109220E+01  0.34495109220E+01  0.00000000000E+00 0.  1.
          2   -1    0    0  503    0 -0.00000000000E+00 -0.00000000000E+00 -0.57495458194E+03  0.57495458194E+03  0.00000000000E+00 0.  1.
         21    1    1    2  503  502  0.40466473004E+02 -0.68723086497E+01 -0.17354734517E+03  0.17833520426E+03  0.00000000000E+00 0.  1.
          2    1    1    2  501    0 -0.40466473004E+02  0.68723086497E+01 -0.39795772584E+03  0.40006888860E+03  0.00000000000E+00 0.  1.
<mgrwt>
<rscale>  2 0.41045878E+02</rscale>
<asrwt>0</asrwt>
<pdfrwt beam="1">  1       21 0.53069401E-03 0.41045878E+02</pdfrwt>
<pdfrwt beam="2">  1        2 0.88454547E-01 0.41045878E+02</pdfrwt>
<totfact> 0.54632900E+06</totfact>
</mgrwt>
</event>
<event>
 4    1  0.2260076E+006  0.2830626E+02  0.7546771E-02  0.1617602E+00
         -2   -1    0    0    0  501 -0.00000000000E+00  0.00000000000E+00  0.71445442777E+03  0.71445442777E+03  0.00000000000E+00 0.  1.
         21   -1    0    0  503  502  0.00000000000E+00 -0.00000000000E+00 -0.13140126140E+01  0.13140126140E+01  0.00000000000E+00 0.  1.
         21    1    1    2  503  501  0.28291111685E+02 -0.92605702431E+00  0.21957741146E+03  0.22139440870E+03  0.00000000000E+00 0.  1.
         -2    1    1    2    0  502 -0.28291111685E+02  0.92605702431E+00  0.49356300370E+03  0.49437403168E+03  0.00000000000E+00 0.  1.
<mgrwt>
<rscale>  2 0.28306264E+02</rscale>
<asrwt>0</asrwt>
<pdfrwt beam="2">  1       21 0.20215636E-03 0.28306264E+02</pdfrwt>
<pdfrwt beam="1">  1       -2 0.10991576E+00 0.28306264E+02</pdfrwt>
<totfact> 0.18073091E+06</totfact>
</mgrwt>
</event>
<event>
 4    1  0.2260076E+006  0.2701983E+02  0.7546771E-02  0.1633578E+00
         21   -1    0    0  501  502  0.00000000000E+00  0.00000000000E+00  0.34529831591E+01  0.34529831591E+01  0.00000000000E+00 0. -1.
          2   -1    0    0  503    0 -0.00000000000E+00 -0.00000000000E+00 -0.32191028699E+03  0.32191028699E+03  0.00000000000E+00 0. -1.
         21    1    1    2  503  502 -0.26308096703E+02 -0.61607748910E+01 -0.63924990163E+02  0.69400831888E+02  0.00000000000E+00 0. -1.
          2    1    1    2  501    0  0.26308096703E+02  0.61607748910E+01 -0.25453231367E+03  0.25596243826E+03  0.00000000000E+00 0. -1.
<mgrwt>
<rscale>  2 0.27019828E+02</rscale>
<asrwt>0</asrwt>
<pdfrwt beam="1">  1       21 0.53122838E-03 0.27019828E+02</pdfrwt>
<pdfrwt beam="2">  1        2 0.49524641E-01 0.27019828E+02</pdfrwt>
<totfact> 0.89873685E+06</totfact>
</mgrwt>
</event>
<event>
 4    1  0.2260076E+006  0.3215315E+02  0.7546771E-02  0.1575439E+00
         -4   -1    0    0    0  501 -0.00000000000E+00  0.00000000000E+00  0.84749291454E+00  0.84749291454E+00  0.00000000000E+00 0. -1.
         21   -1    0    0  503  502  0.00000000000E+00 -0.00000000000E+00 -0.14954539344E+04  0.14954539344E+04  0.00000000000E+00 0. -1.
         21    1    1    2  503  501 -0.30077298842E+02  0.11365799410E+02 -0.10684732339E+04  0.10689569106E+04  0.00000000000E+00 0. -1.
         -4    1    1    2    0  502  0.30077298842E+02 -0.11365799410E+02 -0.42613320764E+03  0.42734451671E+03  0.00000000000E+00 0. -1.
<mgrwt>
<rscale>  2 0.32153154E+02</rscale>
<asrwt>0</asrwt>
<pdfrwt beam="2">  1       21 0.23006963E+00 0.32153154E+02</pdfrwt>
<pdfrwt beam="1">  1       -4 0.13038364E-03 0.32153154E+02</pdfrwt>
<totfact> 0.18311175E+05</totfact>
</mgrwt>
</event>
<event>
 4    1  0.2260076E+006  0.2075313E+02  0.7546771E-02  0.1730753E+00
         -2   -1    0    0    0  501 -0.00000000000E+00  0.00000000000E+00  0.83670554423E+01  0.83670554423E+01  0.00000000000E+00 0. -1.
         21   -1    0    0  503  502  0.00000000000E+00 -0.00000000000E+00 -0.94186926151E+03  0.94186926151E+03  0.00000000000E+00 0. -1.
         21    1    1    2  503  501 -0.16622089346E+02  0.12425724730E+02 -0.92870383790E+03  0.92893568724E+03  0.00000000000E+00 0. -1.
         -2    1    1    2    0  502  0.16622089346E+02 -0.12425724730E+02 -0.47983681683E+01  0.21300629718E+02  0.00000000000E+00 0. -1.
<mgrwt>
<rscale>  2 0.20753132E+02</rscale>
<asrwt>0</asrwt>
<pdfrwt beam="2">  1       21 0.14490291E+00 0.20753132E+02</pdfrwt>
<pdfrwt beam="1">  1       -2 0.12872398E-02 0.20753132E+02</pdfrwt>
<totfact> 0.34436049E+04</totfact>
</mgrwt>
</event>
<event>
 4    1  0.2260076E+006  0.2036815E+02  0.7546771E-02  0.1738104E+00
          3   -1    0    0  502    0 -0.00000000000E+00  0.00000000000E+00  0.58105333077E+03  0.58105333077E+03  0.00000000000E+00 0.  1.
         21   -1    0    0  503  502  0.00000000000E+00 -0.00000000000E+00 -0.79437563123E+01  0.79437563123E+01  0.00000000000E+00 0. -1.
         21    1    1    2  503  501 -0.15140877789E+02  0.13624074265E+02  0.56025032339E+01  0.21124621234E+02  0.00000000000E+00 0. -1.
          3    1    1    2  501    0  0.15140877789E+02 -0.13624074265E+02  0.56750707123E+03  0.56787246585E+03  0.00000000000E+00 0.  1.
<mgrwt>
<rscale>  2 0.20368151E+02</rscale>
<asrwt>0</asrwt>
<pdfrwt beam="2">  1       21 0.12221168E-02 0.20368151E+02</pdfrwt>
<pdfrwt beam="1">  1        3 0.89392787E-01 0.20368151E+02</pdfrwt>
<totfact> 0.10357432E+05</totfact>
</mgrwt>
</event>
<event>
 4    1  0.2260076E+006  0.3531255E+02  0.7546771E-02  0.1545842E+00
          1   -1    0    0  503    0 -0.00000000000E+00  0.00000000000E+00  0.50905799308E+03  0.50905799308E+03  0.00000000000E+00 0.  1.
         21   -1    0    0  501  502  0.00000000000E+00 -0.00000000000E+00 -0.42679588002E+01  0.42679588002E+01  0.00000000000E+00 0.  1.
         21    1    1    2  503  502 -0.18212745279E+02 -0.30253462445E+02  0.84863773784E+02  0.91917550997E+02  0.00000000000E+00 0.  1.
          1    1    1    2  501    0  0.18212745279E+02  0.30253462445E+02  0.41992626050E+03  0.42140840089E+03  0.00000000000E+00 0.  1.
<mgrwt>
<rscale>  2 0.35312548E+02</rscale>
<asrwt>0</asrwt>
<pdfrwt beam="2">  1       21 0.65660945E-03 0.35312548E+02</pdfrwt>
<pdfrwt beam="1">  1        1 0.78316566E-01 0.35312548E+02</pdfrwt>
<totfact> 0.28398793E+06</totfact>
</mgrwt>
</event>
<event>
 4    1  0.2260076E+006  0.2043069E+02  0.7546771E-02  0.1736896E+00
          2   -1    0    0  503    0 -0.00000000000E+00  0.00000000000E+00  0.22656398794E+03  0.22656398794E+03  0.00000000000E+00 0. -1.
         21   -1    0    0  501  502  0.00000000000E+00 -0.00000000000E+00 -0.22204989687E+01  0.22204989687E+01  0.00000000000E+00 0.  1.
         21    1    1    2  503  502 -0.56915376558E+01  0.19621918251E+02  0.64965999258E+02  0.68102821794E+02  0.00000000000E+00 0.  1.
          2    1    1    2  501    0  0.56915376558E+01 -0.19621918251E+02  0.15937748971E+03  0.16068166511E+03  0.00000000000E+00 0. -1.
<mgrwt>
<rscale>  2 0.20430694E+02</rscale>
<asrwt>0</asrwt>
<pdfrwt beam="2">  1       21 0.34161541E-03 0.20430694E+02</pdfrwt>
<pdfrwt beam="1">  1        2 0.34855980E-01 0.20430694E+02</pdfrwt>
<totfact> 0.22465483E+07</totfact>
</mgrwt>
</event>
<event>
 4    1  0.2260076E+006  0.3688821E+02  0.7546771E-02  0.1532445E+00
          2   -1    0    0  502    0 -0.00000000000E+00  0.00000000000E+00  0.95059915974E+02  0.95059915974E+02  0.00000000000E+00 0.  1.
         21   -1    0    0  503  502  0.00000000000E+00 -0.00000000000E+00 -0.38993016865E+02  0.38993016865E+02  0.00000000000E+00 0.  1.
         21    1    1    2  503  501  0.20192732986E+02 -0.30870597397E+02 -0.25289229725E+02  0.44724550184E+02  0.00000000000E+00 0.  1.
          2    1    1    2  501    0 -0.20192732986E+02  0.30870597397E+02  0.81356128833E+02  0.89328382655E+02  0.00000000000E+00 0.  1.
<mgrwt>
<rscale>  2 0.36888213E+02</rscale>
<asrwt>0</asrwt>
<pdfrwt beam="2">  1       21 0.59989257E-02 0.36888213E+02</pdfrwt>
<pdfrwt beam="1">  1        2 0.14624602E-01 0.36888213E+02</pdfrwt>
<totfact> 0.79952205E+05</totfact>
</mgrwt>
</event>
<event>
 4    1  0.2260076E+006  0.2777577E+02  0.7546771E-02  0.1624061E+00
         21   -1    0    0  501  502  0.00000000000E+00  0.00000000000E+00  0.22531734716E+01  0.22531734716E+01  0.00000000000E+00 0. -1.
          1   -1    0    0  503    0 -0.00000000000E+00 -0.00000000000E+00 -0.15931686939E+04  0.15931686939E+04  0.00000000000E+00 0.  1.
         21    1    1    2  503  502 -0.26820391520E+02  0.72221834419E+01 -0.88647826104E+02  0.92897418737E+02  0.00000000000E+00 0. -1.
          1    1    1    2  501    0  0.26820391520E+02 -0.72221834419E+01 -0.15022676943E+04  0.15025244486E+04  0.00000000000E+00 0.  1.
<mgrwt>
<rscale>  2 0.27775769E+02</rscale>
<asrwt>0</asrwt>
<pdfrwt beam="1">  1       21 0.34664117E-03 0.27775769E+02</pdfrwt>
<pdfrwt beam="2">  1        1 0.24510351E+00 0.27775769E+02</pdfrwt>
<totfact> 0.11865782E+06</totfact>
</mgrwt>
</event>
<event>
 4    1  0.2260076E+006  0.2448125E+02  0.7546771E-02  0.1668567E+00
         21   -1    0    0  503  502  0.00000000000E+00  0.00000000000E+00  0.69751364262E+02  0.69751364262E+02  0.00000000000E+00 0. -1.
          3   -1    0    0  502    0 -0.00000000000E+00 -0.00000000000E+00 -0.15704459066E+02  0.15704459066E+02  0.00000000000E+00 0. -1.
         21    1    1    2  503  501 -0.22014921107E+02  0.10708643964E+02  0.55777419782E+02  0.60913482616E+02  0.00000000000E+00 0. -1.
          3    1    1    2  501    0  0.22014921107E+02 -0.10708643964E+02 -0.17305145849E+01  0.24542340712E+02  0.00000000000E+00 0. -1.
<mgrwt>
<rscale>  2 0.24481254E+02</rscale>
<asrwt>0</asrwt>
<pdfrwt beam="1">  1       21 0.10730979E-01 0.24481254E+02</pdfrwt>
<pdfrwt beam="2">  1        3 0.24160707E-02 0.24481254E+02</pdfrwt>
<totfact> 0.15361362E+06</totfact>
</mgrwt>
</event>
<event>
 4    1  0.2260076E+006  0.5577885E+02  0.7546771E-02  0.1416451E+00
          2   -1    0    0  502    0 -0.00000000000E+00  0.00000000000E+00  0.15018432720E+03  0.15018432720E+03  0.00000000000E+00 0.  1.
         21   -1    0    0  503  502  0.00000000000E+00 -0.00000000000E+00 -0.21207333869E+02  0.21207333869E+02  0.00000000000E+00 0. -1.
         21    1    1    2  503  501  0.48032996026E+02 -0.28356856865E+02  0.51450108560E+02  0.75884080737E+02  0.00000000000E+00 0. -1.
          2    1    1    2  501    0 -0.48032996026E+02  0.28356856865E+02  0.77526884775E+02  0.95507580335E+02  0.00000000000E+00 0.  1.
<mgrwt>
<rscale>  2 0.55778849E+02</rscale>
<asrwt>0</asrwt>
<pdfrwt beam="2">  1       21 0.32626668E-02 0.55778849E+02</pdfrwt>
<pdfrwt beam="1">  1        2 0.23105280E-01 0.55778849E+02</pdfrwt>
<totfact> 0.13803106E+06</totfact>
</mgrwt>
</event>
<event>
 4    1  0.2260076E+006  0.2179121E+02  0.7546771E-02  0.1711888E+00
         21   -1    0    0  501  502  0.00000000000E+00  0.00000000000E+00  0.39733329548E+02  0.39733329548E+02  0.00000000000E+00 0. -1.
          3   -1    0    0  503    0 -0.00000000000E+00 -0.00000000000E+00 -0.25816451281E+02  0.25816451281E+02  0.00000000000E+00 0. -1.
         21    1    1    2  503  502 -0.21772553262E+02 -0.90150472644E+00  0.30977636837E+02  0.37874407854E+02  0.00000000000E+00 0. -1.
          3    1    1    2  501    0  0.21772553262E+02  0.90150472644E+00 -0.17060758570E+02  0.27675372975E+02  0.00000000000E+00 0. -1.
<mgrwt>
<rscale>  2 0.21791209E+02</rscale>
<asrwt>0</asrwt>
<pdfrwt beam="1">  1       21 0.61128199E-02 0.21791209E+02</pdfrwt>
<pdfrwt beam="2">  1        3 0.39717617E-02 0.21791209E+02</pdfrwt>
<totfact> 0.17723408E+06</totfact>
</mgrwt>
</event>
<event>
 4    1  0.2260076E+006  0.3445290E+02  0.7546771E-02  0.1553513E+00
         21   -1    0    0  503  502  0.00000000000E+00  0.00000000000E+00  0.11096724428E+01  0.11096724428E+01  0.00000000000E+00 0. -1.
          1   -1    0    0  502    0 -0.00000000000E+00 -0.00000000000E+00 -0.12216784211E+04  0.12216784211E+04  0.00000000000E+00 0. -1.
         21    1    1    2  503  501  0.31368942627E+02 -0.14247519485E+02 -0.39463308870E+03  0.39613416549E+03  0.00000000000E+00 0. -1.
          1    1    1    2  501    0 -0.31368942627E+02  0.14247519485E+02 -0.82593565995E+03  0.82665392805E+03  0.00000000000E+00 0. -1.
<mgrwt>
<rscale>  2 0.34452901E+02</rscale>
<asrwt>0</asrwt>
<pdfrwt beam="1">  1       21 0.17071948E-03 0.34452901E+02</pdfrwt>
<pdfrwt beam="2">  1        1 0.18794981E+00 0.34452901E+02</pdfrwt>
<totfact> 0.58652891E+06</totfact>
</mgrwt>
</event>
<event>
 4    1  0.2260076E+006  0.3908613E+02  0.7546771E-02  0.1515046E+00
          3   -1    0    0  503    0 -0.00000000000E+00  0.00000000000E+00  0.35154907768E+01  0.35154907768E+01  0.00000000000E+00 0.  1.
         21   -1    0    0  501  502  0.00000000000E+00 -0.00000000000E+00 -0.72346143557E+03  0.72346143557E+03  0.00000000000E+00 0. -1.
         21    1    1    2  503  502  0.51506129463E-01  0.39086091397E+02 -0.58966748556E+03  0.59096147820E+03  0.00000000000E+00 0. -1.
          3    1    1    2  501    0 -0.51506129463E-01 -0.39086091397E+02 -0.13027845924E+03  0.13601544815E+03  0.00000000000E+00 0.  1.
<mgrwt>
<rscale>  2 0.39086125E+02</rscale>
<asrwt>0</asrwt>
<pdfrwt beam="2">  1       21 0.11130183E+00 0.39086125E+02</pdfrwt>
<pdfrwt beam="1">  1        3 0.54084437E-03 0.39086125E+02</pdfrwt>
<totfact> 0.17533483E+05</totfact>
</mgrwt>
</event>
<event>
 4    1  0.2260076E+006  0.2036762E+02  0.7546771E-02  0.1738115E+00
         21   -1    0    0  503  502  0.00000000000E+00  0.00000000000E+00  0.38213041556E+02  0.38213041556E+02  0.00000000000E+00 0. -1.
         -1   -1    0    0    0  501 -0.00000000000E+00 -0.00000000000E+00 -0.98050699986E+02  0.98050699986E+02  0.00000000000E+00 0.  1.
         21    1    1    2  503  501  0.11335226989E+02  0.16921950005E+02  0.34330718510E+02  0.39917890680E+02  0.00000000000E+00 0. -1.
         -1    1    1    2    0  502 -0.11335226989E+02 -0.16921950005E+02 -0.94168376940E+02  0.96345850862E+02  0.00000000000E+00 0.  1.
<mgrwt>
<rscale>  2 0.20367616E+02</rscale>
<asrwt>0</asrwt>
<pdfrwt beam="1">  1       21 0.58789295E-02 0.20367616E+02</pdfrwt>
<pdfrwt beam="2">  1       -1 0.15084723E-01 0.20367616E+02</pdfrwt>
<totfact> 0.43407229E+05</totfact>
</mgrwt>
</event>
<event>
 4    1  0.2260076E+006  0.2208527E+02  0.7546771E-02  0.1706782E+00
         -2   -1    0    0    0  501 -0.00000000000E+00  0.00000000000E+00  0.55980287513E+02  0.55980287513E+02  0.00000000000E+00 0. -1.
         21   -1    0    0  501  502  0.00000000000E+00 -0.00000000000E+00 -0.69686646475E+02  0.69686646475E+02  0.00000000000E+00 0.  1.
         21    1    1    2  503  502 -0.16913944723E+02 -0.14201319445E+02 -0.65627436777E+02  0.69243912787E+02  0.00000000000E+00 0.  1.
         -2    1    1    2    0  503  0.16913944723E+02  0.14201319445E+02  0.51921077815E+02  0.56423021202E+02  0.00000000000E+00 0. -1.
<mgrwt>
<rscale>  2 0.22085267E+02</rscale>
<asrwt>0</asrwt>
<pdfrwt beam="2">  1       21 0.10721023E-01 0.22085267E+02</pdfrwt>
<pdfrwt beam="1">  1       -2 0.86123519E-02 0.22085267E+02</pdfrwt>
<totfact> 0.35915917E+05</totfact>
</mgrwt>
</event>
<event>
 4    1  0.2260076E+006  0.4844032E+02  0.7546771E-02  0.1453940E+00
          2   -1    0    0  502    0 -0.00000000000E+00  0.00000000000E+00  0.60743747015E+03  0.60743747015E+03  0.00000000000E+00 0. -1.
         21   -1    0    0  503  502  0.00000000000E+00 -0.00000000000E+00 -0.66880444644E+01  0.66880444644E+01  0.00000000000E+00 0. -1.
         21    1    1    2  503  501 -0.29050105528E+02 -0.38762813771E+02  0.10080315895E+03  0.11183801329E+03  0.00000000000E+00 0. -1.
          2    1    1    2  501    0  0.29050105528E+02  0.38762813771E+02  0.49994626673E+03  0.50228750132E+03  0.00000000000E+00 0. -1.
<mgrwt>
<rscale>  2 0.48440318E+02</rscale>
<asrwt>0</asrwt>
<pdfrwt beam="2">  1       21 0.10289304E-02 0.48440318E+02</pdfrwt>
<pdfrwt beam="1">  1        2 0.93451875E-01 0.48440318E+02</pdfrwt>
<totfact> 0.19326629E+06</totfact>
</mgrwt>
</event>
<event>
 4    1  0.2260076E+006  0.2985551E+02  0.7546771E-02  0.1599691E+00
          2   -1    0    0  503    0 -0.00000000000E+00  0.00000000000E+00  0.35870837179E+02  0.35870837179E+02  0.00000000000E+00 0. -1.
         21   -1    0    0  501  502  0.00000000000E+00 -0.00000000000E+00 -0.55643760429E+03  0.55643760429E+03  0.00000000000E+00 0.  1.
         21    1    1    2  503  502 -0.17164688357E+02  0.24427953991E+02 -0.54974938063E+03  0.55055947269E+03  0.00000000000E+00 0.  1.
          2    1    1    2  501    0  0.17164688357E+02 -0.24427953991E+02  0.29182613518E+02  0.41748968782E+02  0.00000000000E+00 0. -1.
<mgrwt>
<rscale>  2 0.29855510E+02</rscale>
<asrwt>0</asrwt>
<pdfrwt beam="2">  1       21 0.85605777E-01 0.29855510E+02</pdfrwt>
<pdfrwt beam="1">  1        2 0.55185909E-02 0.29855510E+02</pdfrwt>
<totfact> 0.19330970E+04</totfact>
</mgrwt>
</event>
<event>
 4    1  0.2260076E+006  0.3317843E+02  0.7546771E-02  0.1565398E+00
          2   -1    0    0  502    0 -0.00000000000E+00  0.00000000000E+00  0.50272261367E+03  0.50272261367E+03  0.00000000000E+00 0.  1.
         21   -1    0    0  503  502  0.00000000000E+00 -0.00000000000E+00 -0.34318743490E+02  0.34318743490E+02  0.00000000000E+00 0. -1.
         21    1    1    2  503  501 -0.30061542636E+02  0.14039645549E+02 -0.25611135022E+02  0.41913461201E+02  0.00000000000E+00 0. -1.
          2    1    1    2  501    0  0.30061542636E+02 -0.14039645549E+02  0.49401500520E+03  0.49512789596E+03  0.00000000000E+00 0.  1.
<mgrwt>
<rscale>  2 0.33178427E+02</rscale>
<asrwt>0</asrwt>
<pdfrwt beam="2">  1       21 0.52798071E-02 0.33178427E+02</pdfrwt>
<pdfrwt beam="1">  1        2 0.77341935E-01 0.33178427E+02</pdfrwt>
<totfact> 0.17181237E+05</totfact>
</mgrwt>
</event>
<event>
 4    1  0.2260076E+006  0.3930945E+02  0.7546771E-02  0.1513356E+00
          2   -1    0    0  502    0 -0.00000000000E+00  0.00000000000E+00  0.26661033119E+03  0.26661033119E+03  0.00000000000E+00 0.  1.
         21   -1    0    0  503  502  0.00000000000E+00 -0.00000000000E+00 -0.84848357926E+01  0.84848357926E+01  0.00000000000E+00 0.  1.
         21    1    1    2  503  501  0.17203491538E+02 -0.35345050306E+02  0.51629810058E+02  0.64891216577E+02  0.00000000000E+00 0.  1.
          2    1    1    2  501    0 -0.17203491538E+02  0.35345050306E+02  0.20649568534E+03  0.21020395041E+03  0.00000000000E+00 0.  1.
<mgrwt>
<rscale>  2 0.39309448E+02</rscale>
<asrwt>0</asrwt>
<pdfrwt beam="2">  1       21 0.13053596E-02 0.39309448E+02</pdfrwt>
<pdfrwt beam="1">  1        2 0.41016968E-01 0.39309448E+02</pdfrwt>
<totfact> 0.30267143E+06</totfact>
</mgrwt>
</event>
<event>
 4    1  0.2260076E+006  0.2077126E+02  0.7546771E-02  0.1730412E+00
         21   -1    0    0  503  502  0.00000000000E+00  0.00000000000E+00  0.79672938483E+03  0.79672938483E+03  0.00000000000E+00 0. -1.
          4   -1    0    0  502    0 -0.00000000000E+00 -0.00000000000E+00 -0.53051695297E+01  0.53051695297E+01  0.00000000000E+00 0.  1.
         21    1    1    2  503  501 -0.96228348393E+01  0.18407773707E+02  0.77571188399E+03  0.77598993038E+03  0.00000000000E+00 0. -1.
          4    1    1    2  501    0  0.96228348393E+01 -0.18407773707E+02  0.15712331310E+02  0.26044623982E+02  0.00000000000E+00 0.  1.
<mgrwt>
<rscale>  2 0.20771256E+02</rscale>
<asrwt>0</asrwt>
<pdfrwt beam="1">  1       21 0.12257366E+00 0.20771256E+02</pdfrwt>
<pdfrwt beam="2">  1        4 0.81618056E-03 0.20771256E+02</pdfrwt>
<totfact> 0.59613186E+04</totfact>
</mgrwt>
</event>
<event>
 4    1  0.2260076E+006  0.2020977E+02  0.7546771E-02  0.1741188E+00
          1   -1    0    0  502    0 -0.00000000000E+00  0.00000000000E+00  0.16712292400E+03  0.16712292400E+03  0.00000000000E+00 0. -1.
         21   -1    0    0  503  502  0.00000000000E+00 -0.00000000000E+00 -0.92527134285E+01  0.92527134285E+01  0.00000000000E+00 0.  1.
         21    1    1    2  503  501 -0.19970245405E+02 -0.31022768850E+01  0.32850641502E+01  0.20475020632E+02  0.00000000000E+00 0.  1.
          1    1    1    2  501    0  0.19970245405E+02  0.31022768850E+01  0.15458514642E+03  0.15590061679E+03  0.00000000000E+00 0. -1.
<mgrwt>
<rscale>  2 0.20209770E+02</rscale>
<asrwt>0</asrwt>
<pdfrwt beam="2">  1       21 0.14234945E-02 0.20209770E+02</pdfrwt>
<pdfrwt beam="1">  1        1 0.25711217E-01 0.20209770E+02</pdfrwt>
<totfact> 0.28856262E+06</totfact>
</mgrwt>
</event>
<event>
 4    1  0.2260076E+006  0.2614656E+02  0.7546771E-02  0.1645059E+00
         21   -1    0    0  501  502  0.00000000000E+00  0.00000000000E+00  0.69329279844E+01  0.69329279844E+01  0.00000000000E+00 0.  1.
          2   -1    0    0  503    0 -0.00000000000E+00 -0.00000000000E+00 -0.14006576130E+04  0.14006576130E+04  0.00000000000E+00 0. -1.
         21    1    1    2  503  502  0.14698516030E+02  0.21623978505E+02 -0.18293207695E+02  0.31910566709E+02  0.00000000000E+00 0.  1.
          2    1    1    2  501    0 -0.14698516030E+02 -0.21623978505E+02 -0.13754314773E+04  0.13756799743E+04  0.00000000000E+00 0. -1.
<mgrwt>
<rscale>  2 0.26146564E+02</rscale>
<asrwt>0</asrwt>
<pdfrwt beam="1">  1       21 0.10666057E-02 0.26146564E+02</pdfrwt>
<pdfrwt beam="2">  1        2 0.21548551E+00 0.26146564E+02</pdfrwt>
<totfact> 0.58600544E+05</totfact>
</mgrwt>
</event>
<event>
 4    1  0.2260076E+006  0.2349806E+02  0.7546771E-02  0.1683562E+00
          1   -1    0    0  502    0 -0.00000000000E+00  0.00000000000E+00  0.29227471128E+02  0.29227471128E+02  0.00000000000E+00 0.  1.
         21   -1    0    0  503  502  0.00000000000E+00 -0.00000000000E+00 -0.71332789371E+02  0.71332789371E+02  0.00000000000E+00 0.  1.
         21    1    1    2  503  501 -0.14065708506E+02 -0.18823244057E+02 -0.64163585155E+02  0.68330991011E+02  0.00000000000E+00 0.  1.
          1    1    1    2  501    0  0.14065708506E+02  0.18823244057E+02  0.22058266912E+02  0.32229269488E+02  0.00000000000E+00 0.  1.
<mgrwt>
<rscale>  2 0.23498057E+02</rscale>
<asrwt>0</asrwt>
<pdfrwt beam="2">  1       21 0.10974275E-01 0.23498057E+02</pdfrwt>
<pdfrwt beam="1">  1        1 0.44965340E-02 0.23498057E+02</pdfrwt>
<totfact> 0.10240257E+06</totfact>
</mgrwt>
</event>
<event>
 4    1  0.2260076E+006  0.2771811E+02  0.7546771E-02  0.1624774E+00
         21   -1    0    0  503  502  0.00000000000E+00  0.00000000000E+00  0.19395061240E+03  0.19395061240E+03  0.00000000000E+00 0. -1.
          3   -1    0    0  502    0 -0.00000000000E+00 -0.00000000000E+00 -0.15933068608E+02  0.15933068608E+02  0.00000000000E+00 0. -1.
         21    1    1    2  503  501  0.10551630769E+02 -0.25631168282E+02  0.17997462322E+03  0.18209656422E+03  0.00000000000E+00 0. -1.
          3    1    1    2  501    0 -0.10551630769E+02  0.25631168282E+02 -0.19570794255E+01  0.27787116786E+02  0.00000000000E+00 0. -1.
<mgrwt>
<rscale>  2 0.27718111E+02</rscale>
<asrwt>0</asrwt>
<pdfrwt beam="1">  1       21 0.29838554E-01 0.27718111E+02</pdfrwt>
<pdfrwt beam="2">  1        3 0.24512415E-02 0.27718111E+02</pdfrwt>
<totfact> 0.26330200E+05</totfact>
</mgrwt>
</event>
<event>
 4    1  0.2260076E+006  0.2639093E+02  0.7546771E-02  0.1641791E+00
          2   -1    0    0  503    0 -0.00000000000E+00  0.00000000000E+00  0.11466541460E+04  0.11466541460E+04  0.00000000000E+00 0.  1.
         21   -1    0    0  501  502  0.00000000000E+00 -0.00000000000E+00 -0.50519482780E+01  0.50519482780E+01  0.00000000000E+00 0. -1.
         21    1    1    2  503  502 -0.61074552437E+00 -0.26383860350E+02  0.30674093284E+02  0.40464565929E+02  0.00000000000E+00 0. -1.
          2    1    1    2  501    0  0.61074552437E+00  0.26383860350E+02  0.11109281045E+04  0.11112415284E+04  0.00000000000E+00 0.  1.
<mgrwt>
<rscale>  2 0.26390928E+02</rscale>
<asrwt>0</asrwt>
<pdfrwt beam="2">  1       21 0.77722372E-03 0.26390928E+02</pdfrwt>
<pdfrwt beam="1">  1        2 0.17640812E+00 0.26390928E+02</pdfrwt>
<totfact> 0.12632098E+06</totfact>
</mgrwt>
</event>
<event>
 4    1  0.2260076E+006  0.2135851E+02  0.7546771E-02  0.1719588E+00
         21   -1    0    0  501  502  0.00000000000E+00  0.00000000000E+00  0.26738247124E+02  0.26738247124E+02  0.00000000000E+00 0.  1.
          3   -1    0    0  503    0 -0.00000000000E+00 -0.00000000000E+00 -0.44175826393E+03  0.44175826393E+03  0.00000000000E+00 0. -1.
         21    1    1    2  503  502  0.21196148264E+01 -0.21253077110E+02  0.22170247540E+02  0.30784832786E+02  0.00000000000E+00 0.  1.
          3    1    1    2  501    0 -0.21196148264E+01  0.21253077110E+02 -0.43719026434E+03  0.43771167826E+03  0.00000000000E+00 0. -1.
<mgrwt>
<rscale>  2 0.21358512E+02</rscale>
<asrwt>0</asrwt>
<pdfrwt beam="1">  1       21 0.41135767E-02 0.21358512E+02</pdfrwt>
<pdfrwt beam="2">  1        3 0.67962807E-01 0.21358512E+02</pdfrwt>
<totfact> 0.28539993E+04</totfact>
</mgrwt>
</event>
<event>
 4    1  0.2260076E+006  0.2081874E+02  0.7546771E-02  0.1729520E+00
          3   -1    0    0  503    0 -0.00000000000E+00  0.00000000000E+00  0.24024849437E+02  0.24024849437E+02  0.00000000000E+00 0. -1.
         21   -1    0    0  501  502  0.00000000000E+00 -0.00000000000E+00 -0.24170725577E+02  0.24170725577E+02  0.00000000000E+00 0.  1.
         21    1    1    2  503  502 -0.16981730051E+02 -0.12043290909E+02 -0.12208809714E+02  0.24134519802E+02  0.00000000000E+00 0.  1.
          3    1    1    2  501    0  0.16981730051E+02  0.12043290909E+02  0.12062933575E+02  0.24061055211E+02  0.00000000000E+00 0. -1.
<mgrwt>
<rscale>  2 0.20818742E+02</rscale>
<asrwt>0</asrwt>
<pdfrwt beam="2">  1       21 0.37185731E-02 0.20818742E+02</pdfrwt>
<pdfrwt beam="1">  1        3 0.36961307E-02 0.20818742E+02</pdfrwt>
<totfact> 0.42541987E+06</totfact>
</mgrwt>
</event>
<event>
 4    1  0.2260076E+006  0.2240193E+02  0.7546771E-02  0.1701392E+00
         21   -1    0    0  501  502  0.00000000000E+00  0.00000000000E+00  0.35030222549E+03  0.35030222549E+03  0.00000000000E+00 0.  1.
          2   -1    0    0  503    0 -0.00000000000E+00 -0.00000000000E+00 -0.29007854993E+02  0.29007854993E+02  0.00000000000E+00 0.  1.
         21    1    1    2  503  502 -0.18810976005E+02 -0.12165259377E+02  0.34555968662E+03  0.34628506086E+03  0.00000000000E+00 0.  1.
          2    1    1    2  501    0  0.18810976005E+02  0.12165259377E+02 -0.24265316131E+02  0.33025019620E+02  0.00000000000E+00 0.  1.
<mgrwt>
<rscale>  2 0.22401927E+02</rscale>
<asrwt>0</asrwt>
<pdfrwt beam="1">  1       21 0.53892647E-01 0.22401927E+02</pdfrwt>
<pdfrwt beam="2">  1        2 0.44627472E-02 0.22401927E+02</pdfrwt>
<totfact> 0.63724829E+04</totfact>
</mgrwt>
</event>
<event>
 4    1  0.2260076E+006  0.2483162E+02  0.7546771E-02  0.1663432E+00
          1   -1    0    0  502    0 -0.00000000000E+00  0.00000000000E+00  0.33118595424E+03  0.33118595424E+03  0.00000000000E+00 0. -1.
         21   -1    0    0  503  502  0.00000000000E+00 -0.00000000000E+00 -0.55420077022E+01  0.55420077022E+01  0.00000000000E+00 0.  1.
         21    1    1    2  503  501 -0.12127299574E+02  0.21668830091E+02  0.25623133869E+02  0.35681291761E+02  0.00000000000E+00 0.  1.
          1    1    1    2  501    0  0.12127299574E+02 -0.21668830091E+02  0.30002081267E+03  0.30104667018E+03  0.00000000000E+00 0. -1.
<mgrwt>
<rscale>  2 0.24831625E+02</rscale>
<asrwt>0</asrwt>
<pdfrwt beam="2">  1       21 0.85261683E-03 0.24831625E+02</pdfrwt>
<pdfrwt beam="1">  1        1 0.50951670E-01 0.24831625E+02</pdfrwt>
<totfact> 0.29759927E+06</totfact>
</mgrwt>
</event>
<event>
 4    1  0.2260076E+006  0.2594077E+02  0.7546771E-02  0.1647846E+00
          2   -1    0    0  502    0 -0.00000000000E+00  0.00000000000E+00  0.35870489091E+03  0.35870489091E+03  0.00000000000E+00 0.  1.
         21   -1    0    0  503  502  0.00000000000E+00 -0.00000000000E+00 -0.32356294368E+01  0.32356294368E+01  0.00000000000E+00 0.  1.
         21    1    1    2  503  501 -0.41436756648E+01  0.25607686015E+02  0.60422991326E+02  0.65756075855E+02  0.00000000000E+00 0.  1.
          2    1    1    2  501    0  0.41436756648E+01 -0.25607686015E+02  0.29504627014E+03  0.29618444449E+03  0.00000000000E+00 0.  1.
<mgrwt>
<rscale>  2 0.25940772E+02</rscale>
<asrwt>0</asrwt>
<pdfrwt beam="2">  1       21 0.49778943E-03 0.25940772E+02</pdfrwt>
<pdfrwt beam="1">  1        2 0.55185336E-01 0.25940772E+02</pdfrwt>
<totfact> 0.87977311E+06</totfact>
</mgrwt>
</event>
<event>
 4    1  0.2260076E+006  0.2369433E+02  0.7546771E-02  0.1680496E+00
         21   -1    0    0  501  502  0.00000000000E+00  0.00000000000E+00  0.61329487726E+01  0.61329487726E+01  0.00000000000E+00 0.  1.
          1   -1    0    0  503    0 -0.00000000000E+00 -0.00000000000E+00 -0.15797956777E+03  0.15797956777E+03  0.00000000000E+00 0.  1.
         21    1    1    2  503  502  0.52974648117E+01  0.23094551211E+02 -0.22710201318E+02  0.32820339318E+02  0.00000000000E+00 0.  1.
          1    1    1    2  501    0 -0.52974648117E+01 -0.23094551211E+02 -0.12913641768E+03  0.13129217722E+03  0.00000000000E+00 0.  1.
<mgrwt>
<rscale>  2 0.23694333E+02</rscale>
<asrwt>0</asrwt>
<pdfrwt beam="1">  1       21 0.94353068E-03 0.23694333E+02</pdfrwt>
<pdfrwt beam="2">  1        1 0.24304546E-01 0.23694333E+02</pdfrwt>
<totfact> 0.59727358E+06</totfact>
</mgrwt>
</event>
<event>
 4    1  0.2260076E+006  0.2204293E+02  0.7546771E-02  0.1707511E+00
         21   -1    0    0  503  502  0.00000000000E+00  0.00000000000E+00  0.94413567611E+01  0.94413567611E+01  0.00000000000E+00 0. -1.
         -1   -1    0    0    0  501 -0.00000000000E+00 -0.00000000000E+00 -0.21699987820E+03  0.21699987820E+03  0.00000000000E+00 0. -1.
         21    1    1    2  503  501 -0.19601378807E+00  0.22042056157E+02 -0.48916807730E+01  0.22579176288E+02  0.00000000000E+00 0. -1.
         -1    1    1    2    0  502  0.19601378807E+00 -0.22042056157E+02 -0.20266684067E+03  0.20386205868E+03  0.00000000000E+00 0. -1.
<mgrwt>
<rscale>  2 0.22042928E+02</rscale>
<asrwt>0</asrwt>
<pdfrwt beam="1">  1       21 0.14525163E-02 0.22042928E+02</pdfrwt>
<pdfrwt beam="2">  1       -1 0.33384600E-01 0.22042928E+02</pdfrwt>
<totfact> 0.11438529E+06</totfact>
</mgrwt>
</event>
<event>
 4    1  0.2260076E+006  0.2579065E+02  0.7546771E-02  0.1649898E+00
         21   -1    0    0  501  502  0.00000000000E+00  0.00000000000E+00  0.68198463527E+02  0.68198463527E+02  0.00000000000E+00 0.  1.
          1   -1    0    0  503    0 -0.00000000000E+00 -0.00000000000E+00 -0.26840260684E+02  0.26840260684E+02  0.00000000000E+00 0.  1.
         21    1    1    2  503  502  0.25355898347E+02 -0.47155256349E+01  0.58594015670E+02  0.64018875618E+02  0.00000000000E+00 0.  1.
          1    1    1    2  501    0 -0.25355898347E+02  0.47155256349E+01 -0.17235812826E+02  0.31019848594E+02  0.00000000000E+00 0.  1.
<mgrwt>
<rscale>  2 0.25790653E+02</rscale>
<asrwt>0</asrwt>
<pdfrwt beam="1">  1       21 0.10492071E-01 0.25790653E+02</pdfrwt>
<pdfrwt beam="2">  1        1 0.41292709E-02 0.25790653E+02</pdfrwt>
<totfact> 0.12572983E+06</totfact>
</mgrwt>
</event>
<event>
 4    1  0.2260076E+006  0.3016153E+02  0.7546771E-02  0.1596310E+00
         21   -1    0    0  503  502  0.00000000000E+00  0.00000000000E+00  0.16128256365E+03  0.16128256365E+03  0.00000000000E+00 0. -1.
         -2   -1    0    0    0  501 -0.00000000000E+00 -0.00000000000E+00 -0.58026412139E+01  0.58026412139E+01  0.00000000000E+00 0. -1.
         21    1    1    2  503  501  0.30160286781E+02 -0.27402304177E+00  0.91704005966E+02  0.96536742733E+02  0.00000000000E+00 0. -1.
         -2    1    1    2    0  502 -0.30160286781E+02  0.27402304177E+00  0.63775916468E+02  0.70548462128E+02  0.00000000000E+00 0. -1.
<mgrwt>
<rscale>  2 0.30161532E+02</rscale>
<asrwt>0</asrwt>
<pdfrwt beam="1">  1       21 0.24812699E-01 0.30161532E+02</pdfrwt>
<pdfrwt beam="2">  1       -2 0.89271416E-03 0.30161532E+02</pdfrwt>
<totfact> 0.21553683E+06</totfact>
</mgrwt>
</event>
<event>
 4    1  0.2260076E+006  0.4740826E+02  0.7546771E-02  0.1459844E+00
          2   -1    0    0  502    0 -0.00000000000E+00  0.00000000000E+00  0.84594772857E+03  0.84594772857E+03  0.00000000000E+00 0. -1.
         21   -1    0    0  503  502  0.00000000000E+00 -0.00000000000E+00 -0.26894859065E+02  0.26894859065E+02  0.00000000000E+00 0. -1.
         21    1    1    2  503  501 -0.22641575706E+02 -0.41652159841E+02 -0.47783070977E+01  0.47648458407E+02  0.00000000000E+00 0. -1.
          2    1    1    2  501    0  0.22641575706E+02  0.41652159841E+02  0.82383117660E+03  0.82519412923E+03  0.00000000000E+00 0. -1.
<mgrwt>
<rscale>  2 0.47408263E+02</rscale>
<asrwt>0</asrwt>
<pdfrwt beam="2">  1       21 0.41376713E-02 0.47408263E+02</pdfrwt>
<pdfrwt beam="1">  1        2 0.13014578E+00 0.47408263E+02</pdfrwt>
<totfact> 0.14743338E+05</totfact>
</mgrwt>
</event>
<event>
 4    1  0.2260076E+006  0.6039314E+02  0.7546771E-02  0.1396189E+00
         21   -1    0    0  503  502  0.00000000000E+00  0.00000000000E+00  0.14065766426E+02  0.14065766426E+02  0.00000000000E+00 0. -1.
          1   -1    0    0  502    0 -0.00000000000E+00 -0.00000000000E+00 -0.57468209477E+03  0.57468209477E+03  0.00000000000E+00 0. -1.
         21    1    1    2  503  501 -0.34058472315E+02 -0.49873362496E+02 -0.62236025170E+02  0.86721708078E+02  0.00000000000E+00 0. -1.
          1    1    1    2  501    0  0.34058472315E+02  0.49873362496E+02 -0.49838030318E+03  0.50202615312E+03  0.00000000000E+00 0. -1.
<mgrwt>
<rscale>  2 0.60393144E+02</rscale>
<asrwt>0</asrwt>
<pdfrwt beam="1">  1       21 0.21639637E-02 0.60393144E+02</pdfrwt>
<pdfrwt beam="2">  1        1 0.88412645E-01 0.60393144E+02</pdfrwt>
<totfact> 0.41494472E+05</totfact>
</mgrwt>
</event>
<event>
 4    1  0.2260076E+006  0.3230689E+02  0.7546771E-02  0.1573905E+00
          2   -1    0    0  502    0 -0.00000000000E+00  0.00000000000E+00  0.15187438132E+04  0.15187438132E+04  0.00000000000E+00 0. -1.
         21   -1    0    0  503  502  0.00000000000E+00 -0.00000000000E+00 -0.44377423782E+02  0.44377423782E+02  0.00000000000E+00 0.  1.
         21    1    1    2  503  501 -0.28535946054E+02 -0.15147111820E+02 -0.38302125056E+02  0.50107763845E+02  0.00000000000E+00 0.  1.
          2    1    1    2  501    0  0.28535946054E+02  0.15147111820E+02  0.15126685145E+04  0.15130134731E+04  0.00000000000E+00 0. -1.
<mgrwt>
<rscale>  2 0.32306891E+02</rscale>
<asrwt>0</asrwt>
<pdfrwt beam="2">  1       21 0.68272971E-02 0.32306891E+02</pdfrwt>
<pdfrwt beam="1">  1        2 0.23365285E+00 0.32306891E+02</pdfrwt>
<totfact> 0.28347348E+04</totfact>
</mgrwt>
</event>
<event>
 4    1  0.2260076E+006  0.3310257E+02  0.7546771E-02  0.1566126E+00
          4   -1    0    0  502    0 -0.00000000000E+00  0.00000000000E+00  0.93279246935E+03  0.93279246935E+03  0.00000000000E+00 0. -1.
         21   -1    0    0  503  502  0.00000000000E+00 -0.00000000000E+00 -0.12473910835E+01  0.12473910835E+01  0.00000000000E+00 0. -1.
         21    1    1    2  503  501  0.23048353697E+01 -0.33022232785E+02  0.35305736579E+03  0.35460581448E+03  0.00000000000E+00 0. -1.
          4    1    1    2  501    0 -0.23048353697E+01  0.33022232785E+02  0.57848771247E+03  0.57943404595E+03  0.00000000000E+00 0. -1.
<mgrwt>
<rscale>  2 0.33102570E+02</rscale>
<asrwt>0</asrwt>
<pdfrwt beam="2">  1       21 0.19190707E-03 0.33102570E+02</pdfrwt>
<pdfrwt beam="1">  1        4 0.14350598E+00 0.33102570E+02</pdfrwt>
<totfact> 0.48654188E+05</totfact>
</mgrwt>
</event>
<event>
 4    1  0.2260076E+006  0.2664333E+02  0.7546771E-02  0.1638461E+00
         21   -1    0    0  503  502  0.00000000000E+00  0.00000000000E+00  0.80496636695E+03  0.80496636695E+03  0.00000000000E+00 0.  1.
         -1   -1    0    0    0  501 -0.00000000000E+00 -0.00000000000E+00 -0.15710132758E+01  0.15710132758E+01  0.00000000000E+00 0. -1.
         21    1    1    2  503  501 -0.88957648622E+01 -0.25114382619E+02  0.66879085763E+03  0.66932135638E+03  0.00000000000E+00 0.  1.
         -1    1    1    2    0  502  0.88957648622E+01  0.25114382619E+02  0.13460449604E+03  0.13721602385E+03  0.00000000000E+00 0. -1.
<mgrwt>
<rscale>  2 0.26643326E+02</rscale>
<asrwt>0</asrwt>
<pdfrwt beam="1">  1       21 0.12384065E+00 0.26643326E+02</pdfrwt>
<pdfrwt beam="2">  1       -1 0.24169499E-03 0.26643326E+02</pdfrwt>
<totfact> 0.48356973E+05</totfact>
</mgrwt>
</event>
<event>
 4    1  0.2260076E+006  0.2318161E+02  0.7546771E-02  0.1688583E+00
         -3   -1    0    0    0  501 -0.00000000000E+00  0.00000000000E+00  0.47038504109E+02  0.47038504109E+02  0.00000000000E+00 0. -1.
         21   -1    0    0  501  502  0.00000000000E+00 -0.00000000000E+00 -0.22340757781E+03  0.22340757781E+03  0.00000000000E+00 0.  1.
         21    1    1    2  503  502 -0.96702367450E+01 -0.21068301652E+02 -0.21990475604E+03  0.22112324288E+03  0.00000000000E+00 0.  1.
         -3    1    1    2    0  503  0.96702367450E+01  0.21068301652E+02  0.43535682343E+02  0.49322839033E+02  0.00000000000E+00 0. -1.
<mgrwt>
<rscale>  2 0.23181605E+02</rscale>
<asrwt>0</asrwt>
<pdfrwt beam="2">  1       21 0.34370397E-01 0.23181605E+02</pdfrwt>
<pdfrwt beam="1">  1       -3 0.72366928E-02 0.23181605E+02</pdfrwt>
<totfact> 0.38319373E+04</totfact>
</mgrwt>
</event>
<event>
 4    1  0.2260076E+006  0.2818371E+02  0.7546771E-02  0.1619079E+00
          2   -1    0    0  503    0 -0.00000000000E+00  0.00000000000E+00  0.84498617836E+03  0.84498617836E+03  0.00000000000E+00 0. -1.
         21   -1    0    0  501  502  0.00000000000E+00 -0.00000000000E+00 -0.22719348441E+01  0.22719348441E+01  0.00000000000E+00 0. -1.
         21    1    1    2  503  502  0.66487847596E+01  0.27388234446E+02  0.97000628640E+02  0.10101209671E+03  0.00000000000E+00 0. -1.
          2    1    1    2  501    0 -0.66487847596E+01 -0.27388234446E+02  0.74571361488E+03  0.74624601650E+03  0.00000000000E+00 0. -1.
<mgrwt>
<rscale>  2 0.28183714E+02</rscale>
<asrwt>0</asrwt>
<pdfrwt beam="2">  1       21 0.34952911E-03 0.28183714E+02</pdfrwt>
<pdfrwt beam="1">  1        2 0.12999762E+00 0.28183714E+02</pdfrwt>
<totfact> 0.61481282E+06</totfact>
</mgrwt>
</event>
<event>
 4    1  0.2260076E+006  0.5915311E+02  0.7546771E-02  0.1401420E+00
          1   -1    0    0  502    0 -0.00000000000E+00  0.00000000000E+00  0.10074984222E+03  0.10074984222E+03  0.00000000000E+00 0. -1.
         21   -1    0    0  503  502  0.00000000000E+00 -0.00000000000E+00 -0.10477426062E+03  0.10477426062E+03  0.00000000000E+00 0. -1.
         21    1    1    2  503  501  0.37595404450E+02  0.45669208193E+02 -0.86033671007E+02  0.10440729649E+03  0.00000000000E+00 0. -1.
          1    1    1    2  501    0 -0.37595404450E+02 -0.45669208193E+02  0.82009252606E+02  0.10111680635E+03  0.00000000000E+00 0. -1.
<mgrwt>
<rscale>  2 0.59153115E+02</rscale>
<asrwt>0</asrwt>
<pdfrwt beam="2">  1       21 0.16119117E-01 0.59153115E+02</pdfrwt>
<pdfrwt beam="1">  1        1 0.15499976E-01 0.59153115E+02</pdfrwt>
<totfact> 0.12358214E+05</totfact>
</mgrwt>
</event>
<event>
 4    1  0.2260076E+006  0.2788450E+02  0.7546771E-02  0.1622723E+00
         21   -1    0    0  503  502  0.00000000000E+00  0.00000000000E+00  0.36345813457E+01  0.36345813457E+01  0.00000000000E+00 0.  1.
          2   -1    0    0  502    0 -0.00000000000E+00 -0.00000000000E+00 -0.61937558822E+03  0.61937558822E+03  0.00000000000E+00 0. -1.
         21    1    1    2  503  501  0.14066523038E+02  0.24076511644E+02 -0.55839213730E+02  0.62414447632E+02  0.00000000000E+00 0.  1.
          2    1    1    2  501    0 -0.14066523038E+02 -0.24076511644E+02 -0.55990179315E+03  0.56059572194E+03  0.00000000000E+00 0. -1.
<mgrwt>
<rscale>  2 0.27884503E+02</rscale>
<asrwt>0</asrwt>
<pdfrwt beam="1">  1       21 0.55916724E-03 0.27884503E+02</pdfrwt>
<pdfrwt beam="2">  1        2 0.95288401E-01 0.27884503E+02</pdfrwt>
<totfact> 0.43216415E+06</totfact>
</mgrwt>
</event>
<event>
 4    1  0.2260076E+006  0.2779319E+02  0.7546771E-02  0.1623847E+00
         21   -1    0    0  501  502  0.00000000000E+00  0.00000000000E+00  0.31409317915E+01  0.31409317915E+01  0.00000000000E+00 0. -1.
          2   -1    0    0  503    0 -0.00000000000E+00 -0.00000000000E+00 -0.11322328289E+04  0.11322328289E+04  0.00000000000E+00 0.  1.
         21    1    1    2  503  502 -0.52698681874E+01  0.27289006574E+02 -0.62283031141E+02  0.68202913124E+02  0.00000000000E+00 0. -1.
          2    1    1    2  501    0  0.52698681874E+01 -0.27289006574E+02 -0.10668088660E+04  0.10671708476E+04  0.00000000000E+00 0.  1.
<mgrwt>
<rscale>  2 0.27793190E+02</rscale>
<asrwt>0</asrwt>
<pdfrwt beam="1">  1       21 0.48322024E-03 0.27793190E+02</pdfrwt>
<pdfrwt beam="2">  1        2 0.17418968E+00 0.27793190E+02</pdfrwt>
<totfact> 0.26323052E+06</totfact>
</mgrwt>
</event>
<event>
 4    1  0.2260076E+006  0.3090696E+02  0.7546771E-02  0.1588274E+00
         21   -1    0    0  503  502  0.00000000000E+00  0.00000000000E+00  0.12840367829E+02  0.12840367829E+02  0.00000000000E+00 0.  1.
         -2   -1    0    0    0  501 -0.00000000000E+00 -0.00000000000E+00 -0.97533382592E+02  0.97533382592E+02  0.00000000000E+00 0.  1.
         21    1    1    2  503  501  0.17237141221E+02 -0.25653877430E+02 -0.15465884578E+02  0.34560585216E+02  0.00000000000E+00 0.  1.
         -2    1    1    2    0  502 -0.17237141221E+02  0.25653877430E+02 -0.69227130185E+02  0.75813165204E+02  0.00000000000E+00 0.  1.
<mgrwt>
<rscale>  2 0.30906965E+02</rscale>
<asrwt>0</asrwt>
<pdfrwt beam="1">  1       21 0.19754412E-02 0.30906965E+02</pdfrwt>
<pdfrwt beam="2">  1       -2 0.15005136E-01 0.30906965E+02</pdfrwt>
<totfact> 0.24841212E+06</totfact>
</mgrwt>
</event>
<event>
 4    1  0.2260076E+006  0.2864909E+02  0.7546771E-02  0.1613520E+00
          2   -1    0    0  502    0 -0.00000000000E+00  0.00000000000E+00  0.44619793979E+03  0.44619793979E+03  0.00000000000E+00 0.  1.
         21   -1    0    0  503  502  0.00000000000E+00 -0.00000000000E+00 -0.97248509881E+01  0.97248509881E+01  0.00000000000E+00 0.  1.
         21    1    1    2  503  501  0.14676549212E+02 -0.24604254940E+02  0.12963935978E+02  0.31445732524E+02  0.00000000000E+00 0.  1.
          2    1    1    2  501    0 -0.14676549212E+02  0.24604254940E+02  0.42350915283E+03  0.42447705826E+03  0.00000000000E+00 0.  1.
<mgrwt>
<rscale>  2 0.28649092E+02</rscale>
<asrwt>0</asrwt>
<pdfrwt beam="2">  1       21 0.14961313E-02 0.28649092E+02</pdfrwt>
<pdfrwt beam="1">  1        2 0.68645821E-01 0.28649092E+02</pdfrwt>
<totfact> 0.13800145E+06</totfact>
</mgrwt>
</event>
<event>
 4    1  0.2260076E+006  0.2347977E+02  0.7546771E-02  0.1683849E+00
          2   -1    0    0  502    0 -0.00000000000E+00  0.00000000000E+00  0.17427863235E+04  0.17427863235E+04  0.00000000000E+00 0.  1.
         21   -1    0    0  503  502  0.00000000000E+00 -0.00000000000E+00 -0.58887386304E+02  0.58887386304E+02  0.00000000000E+00 0. -1.
         21    1    1    2  503  501 -0.23016845332E+02 -0.46394362287E+01 -0.56464562833E+02  0.61151830663E+02  0.00000000000E+00 0. -1.
          2    1    1    2  501    0  0.23016845332E+02  0.46394362287E+01  0.17403635000E+04  0.17405218791E+04  0.00000000000E+00 0.  1.
<mgrwt>
<rscale>  2 0.23479769E+02</rscale>
<asrwt>0</asrwt>
<pdfrwt beam="2">  1       21 0.90595992E-02 0.23479769E+02</pdfrwt>
<pdfrwt beam="1">  1        2 0.26812093E+00 0.23479769E+02</pdfrwt>
<totfact> 0.14019703E+04</totfact>
</mgrwt>
</event>
<event>
 4    1  0.2260076E+006  0.4063862E+02  0.7546771E-02  0.1503564E+00
         -2   -1    0    0    0  501 -0.00000000000E+00  0.00000000000E+00  0.39783030343E+03  0.39783030343E+03  0.00000000000E+00 0. -1.
         21   -1    0    0  503  502  0.00000000000E+00 -0.00000000000E+00 -0.24207969232E+03  0.24207969232E+03  0.00000000000E+00 0. -1.
         21    1    1    2  503  501  0.11564330681E+02  0.38958485578E+02 -0.23932448359E+03  0.24275029513E+03  0.00000000000E+00 0. -1.
         -2    1    1    2    0  502 -0.11564330681E+02 -0.38958485578E+02  0.39507509470E+03  0.39715970062E+03  0.00000000000E+00 0. -1.
<mgrwt>
<rscale>  2 0.40638619E+02</rscale>
<asrwt>0</asrwt>
<pdfrwt beam="2">  1       21 0.37243030E-01 0.40638619E+02</pdfrwt>
<pdfrwt beam="1">  1       -2 0.61204662E-01 0.40638619E+02</pdfrwt>
<totfact> 0.15262555E+03</totfact>
</mgrwt>
</event>
<event>
 4    1  0.2260076E+006  0.2520020E+02  0.7546771E-02  0.1658143E+00
         21   -1    0    0  503  502  0.00000000000E+00  0.00000000000E+00  0.12596997748E+03  0.12596997748E+03  0.00000000000E+00 0.  1.
         -4   -1    0    0    0  501 -0.00000000000E+00 -0.00000000000E+00 -0.77389838927E+01  0.77389838927E+01  0.00000000000E+00 0. -1.
         21    1    1    2  503  501  0.24670786362E+02  0.51383412349E+01  0.98587165004E+02  0.10175696219E+03  0.00000000000E+00 0.  1.
         -4    1    1    2    0  502 -0.24670786362E+02 -0.51383412349E+01  0.19643828581E+02  0.31951999181E+02  0.00000000000E+00 0. -1.
<mgrwt>
<rscale>  2 0.25200203E+02</rscale>
<asrwt>0</asrwt>
<pdfrwt beam="1">  1       21 0.19379995E-01 0.25200203E+02</pdfrwt>
<pdfrwt beam="2">  1       -4 0.11906130E-02 0.25200203E+02</pdfrwt>
<totfact> 0.13722292E+06</totfact>
</mgrwt>
</event>
<event>
 4    1  0.2260076E+006  0.2346196E+02  0.7546771E-02  0.1684129E+00
         -2   -1    0    0    0  501 -0.00000000000E+00  0.00000000000E+00  0.17808779630E+03  0.17808779630E+03  0.00000000000E+00 0.  1.
         21   -1    0    0  501  502  0.00000000000E+00 -0.00000000000E+00 -0.89610048683E+02  0.89610048683E+02  0.00000000000E+00 0. -1.
         21    1    1    2  503  502 -0.72174267243E+00  0.23450858839E+02 -0.87281329227E+02  0.90379721865E+02  0.00000000000E+00 0. -1.
         -2    1    1    2    0  503  0.72174267243E+00 -0.23450858839E+02  0.17575907684E+03  0.17731812312E+03  0.00000000000E+00 0.  1.
<mgrwt>
<rscale>  2 0.23461963E+02</rscale>
<asrwt>0</asrwt>
<pdfrwt beam="2">  1       21 0.13786161E-01 0.23461963E+02</pdfrwt>
<pdfrwt beam="1">  1       -2 0.27398123E-01 0.23461963E+02</pdfrwt>
<totfact> 0.38932081E+04</totfact>
</mgrwt>
</event>
<event>
 4    1  0.2260076E+006  0.2485560E+02  0.7546771E-02  0.1663085E+00
          4   -1    0    0  502    0 -0.00000000000E+00  0.00000000000E+00  0.45596358408E+02  0.45596358408E+02  0.00000000000E+00 0.  1.
         21   -1    0    0  503  502  0.00000000000E+00 -0.00000000000E+00 -0.26031496522E+02  0.26031496522E+02  0.00000000000E+00 0.  1.
         21    1    1    2  503  501 -0.11873336632E+02  0.21836320018E+02 -0.15017303422E+02  0.29039979283E+02  0.00000000000E+00 0.  1.
          4    1    1    2  501    0  0.11873336632E+02 -0.21836320018E+02  0.34582165308E+02  0.42587875646E+02  0.00000000000E+00 0.  1.
<mgrwt>
<rscale>  2 0.24855603E+02</rscale>
<asrwt>0</asrwt>
<pdfrwt beam="2">  1       21 0.40048456E-02 0.24855603E+02</pdfrwt>
<pdfrwt beam="1">  1        4 0.70148243E-02 0.24855603E+02</pdfrwt>
<totfact> 0.12878072E+06</totfact>
</mgrwt>
</event>
<event>
 4    1  0.2260076E+006  0.3217971E+02  0.7546771E-02  0.1575174E+00
         21   -1    0    0  503  502  0.00000000000E+00  0.00000000000E+00  0.24134966860E+02  0.24134966860E+02  0.00000000000E+00 0. -1.
         -4   -1    0    0    0  501 -0.00000000000E+00 -0.00000000000E+00 -0.27281901740E+03  0.27281901740E+03  0.00000000000E+00 0.  1.
         21    1    1    2  503  501  0.46452834732E+01  0.31842657019E+02  0.11960429384E+02  0.34330530663E+02  0.00000000000E+00 0. -1.
         -4    1    1    2    0  502 -0.46452834732E+01 -0.31842657019E+02 -0.26064447992E+03  0.26262345360E+03  0.00000000000E+00 0.  1.
<mgrwt>
<rscale>  2 0.32179706E+02</rscale>
<asrwt>0</asrwt>
<pdfrwt beam="1">  1       21 0.37130718E-02 0.32179706E+02</pdfrwt>
<pdfrwt beam="2">  1       -4 0.41972156E-01 0.32179706E+02</pdfrwt>
<totfact> 0.73937087E+04</totfact>
</mgrwt>
</event>
<event>
 4    1  0.2260076E+006  0.2854259E+02  0.7546771E-02  0.1614781E+00
         21   -1    0    0  501  502  0.00000000000E+00  0.00000000000E+00  0.10012296528E+03  0.10012296528E+03  0.00000000000E+00 0. -1.
          4   -1    0    0  503    0 -0.00000000000E+00 -0.00000000000E+00 -0.21681063174E+02  0.21681063174E+02  0.00000000000E+00 0. -1.
         21    1    1    2  503  502 -0.13870759335E+01 -0.28508862216E+02  0.87356870906E+02  0.91901589208E+02  0.00000000000E+00 0. -1.
          4    1    1    2  501    0  0.13870759335E+01  0.28508862216E+02 -0.89149687953E+01  0.29902439250E+02  0.00000000000E+00 0. -1.
<mgrwt>
<rscale>  2 0.28542586E+02</rscale>
<asrwt>0</asrwt>
<pdfrwt beam="1">  1       21 0.15403533E-01 0.28542586E+02</pdfrwt>
<pdfrwt beam="2">  1        4 0.33355482E-02 0.28542586E+02</pdfrwt>
<totfact> 0.46549191E+05</totfact>
</mgrwt>
</event>
<event>
 4    1  0.2260076E+006  0.4655781E+02  0.7546771E-02  0.1464844E+00
          2   -1    0    0  503    0 -0.00000000000E+00  0.00000000000E+00  0.70855891390E+03  0.70855891390E+03  0.00000000000E+00 0.  1.
         21   -1    0    0  501  502  0.00000000000E+00 -0.00000000000E+00 -0.52815363488E+01  0.52815363488E+01  0.00000000000E+00 0.  1.
         21    1    1    2  503  502 -0.18733984182E+02  0.42622387095E+02  0.12011522871E+03  0.12882273950E+03  0.00000000000E+00 0.  1.
          2    1    1    2  501    0  0.18733984182E+02 -0.42622387095E+02  0.58316214884E+03  0.58501771075E+03  0.00000000000E+00 0.  1.
<mgrwt>
<rscale>  2 0.46557814E+02</rscale>
<asrwt>0</asrwt>
<pdfrwt beam="2">  1       21 0.81254462E-03 0.46557814E+02</pdfrwt>
<pdfrwt beam="1">  1        2 0.10900899E+00 0.46557814E+02</pdfrwt>
<totfact> 0.23258290E+06</totfact>
</mgrwt>
</event>
<event>
 4    1  0.2260076E+006  0.2393374E+02  0.7546771E-02  0.1676807E+00
         21   -1    0    0  503  502  0.00000000000E+00  0.00000000000E+00  0.17203409862E+02  0.17203409862E+02  0.00000000000E+00 0. -1.
         -1   -1    0    0    0  501 -0.00000000000E+00 -0.00000000000E+00 -0.35413182171E+02  0.35413182171E+02  0.00000000000E+00 0. -1.
         21    1    1    2  503  501  0.47757290160E+00  0.23928977335E+02 -0.15535823494E+02  0.28533941961E+02  0.00000000000E+00 0. -1.
         -1    1    1    2    0  502 -0.47757290160E+00 -0.23928977335E+02 -0.26739488148E+01  0.24082650071E+02  0.00000000000E+00 0. -1.
<mgrwt>
<rscale>  2 0.23933743E+02</rscale>
<asrwt>0</asrwt>
<pdfrwt beam="1">  1       21 0.26466785E-02 0.23933743E+02</pdfrwt>
<pdfrwt beam="2">  1       -1 0.54481818E-02 0.23933743E+02</pdfrwt>
<totfact> 0.68458888E+06</totfact>
</mgrwt>
</event>
<event>
 4    1  0.2260076E+006  0.2708835E+02  0.7546771E-02  0.1632699E+00
         21   -1    0    0  503  502  0.00000000000E+00  0.00000000000E+00  0.87349209156E+01  0.87349209156E+01  0.00000000000E+00 0. -1.
         -2   -1    0    0    0  501 -0.00000000000E+00 -0.00000000000E+00 -0.21175472362E+03  0.21175472362E+03  0.00000000000E+00 0.  1.
         21    1    1    2  503  501  0.59145181590E+01  0.26434772566E+02 -0.15880816395E+02  0.31400303422E+02  0.00000000000E+00 0. -1.
         -2    1    1    2    0  502 -0.59145181590E+01 -0.26434772566E+02 -0.18713898631E+03  0.18908934112E+03  0.00000000000E+00 0.  1.
<mgrwt>
<rscale>  2 0.27088350E+02</rscale>
<asrwt>0</asrwt>
<pdfrwt beam="1">  1       21 0.13438340E-02 0.27088350E+02</pdfrwt>
<pdfrwt beam="2">  1       -2 0.32577650E-01 0.27088350E+02</pdfrwt>
<totfact> 0.12107117E+06</totfact>
</mgrwt>
</event>
<event>
 4    1  0.2260076E+006  0.2327195E+02  0.7546771E-02  0.1687139E+00
          1   -1    0    0  502    0 -0.00000000000E+00  0.00000000000E+00  0.11950364116E+04  0.11950364116E+04  0.00000000000E+00 0. -1.
         21   -1    0    0  503  502  0.00000000000E+00 -0.00000000000E+00 -0.14513315964E+01  0.14513315964E+01  0.00000000000E+00 0.  1.
         21    1    1    2  503  501  0.37872861958E+01  0.22961706778E+02  0.10066868794E+03  0.10332360934E+03  0.00000000000E+00 0.  1.
          1    1    1    2  501    0 -0.37872861958E+01 -0.22961706778E+02  0.10929163921E+04  0.10931641339E+04  0.00000000000E+00 0. -1.
<mgrwt>
<rscale>  2 0.23271947E+02</rscale>
<asrwt>0</asrwt>
<pdfrwt beam="2">  1       21 0.22328274E-03 0.23271947E+02</pdfrwt>
<pdfrwt beam="1">  1        1 0.18385097E+00 0.23271947E+02</pdfrwt>
<totfact> 0.38291367E+06</totfact>
</mgrwt>
</event>
<event>
 4    1  0.2260076E+006  0.4447597E+02  0.7546771E-02  0.1477640E+00
         21   -1    0    0  501  502  0.00000000000E+00  0.00000000000E+00  0.17194251319E+03  0.17194251319E+03  0.00000000000E+00 0. -1.
          2   -1    0    0  503    0 -0.00000000000E+00 -0.00000000000E+00 -0.21998565439E+02  0.21998565439E+02  0.00000000000E+00 0. -1.
         21    1    1    2  503  502 -0.26045943545E+02  0.36051645800E+02  0.14194725591E+03  0.14875192705E+03  0.00000000000E+00 0. -1.
          2    1    1    2  501    0  0.26045943545E+02 -0.36051645800E+02  0.79966918379E+01  0.45189151578E+02  0.00000000000E+00 0. -1.
<mgrwt>
<rscale>  2 0.44475975E+02</rscale>
<asrwt>0</asrwt>
<pdfrwt beam="1">  1       21 0.26452693E-01 0.44475975E+02</pdfrwt>
<pdfrwt beam="2">  1        2 0.33843948E-02 0.44475975E+02</pdfrwt>
<totfact> 0.37617008E+05</totfact>
</mgrwt>
</event>
<event>
 4    1  0.2260076E+006  0.3171241E+02  0.7546771E-02  0.1579897E+00
         21   -1    0    0  501  502  0.00000000000E+00  0.00000000000E+00  0.23378390051E+01  0.23378390051E+01  0.00000000000E+00 0. -1.
         -1   -1    0    0    0  501 -0.00000000000E+00 -0.00000000000E+00 -0.46487371316E+03  0.46487371316E+03  0.00000000000E+00 0.  1.
         21    1    1    2  503  502  0.12028355348E+02  0.29342730737E+02 -0.16744452285E+03  0.17042108265E+03  0.00000000000E+00 0. -1.
         -1    1    1    2    0  503 -0.12028355348E+02 -0.29342730737E+02 -0.29509135131E+03  0.29679046952E+03  0.00000000000E+00 0.  1.
<mgrwt>
<rscale>  2 0.31712414E+02</rscale>
<asrwt>0</asrwt>
<pdfrwt beam="1">  1       21 0.35966755E-03 0.31712414E+02</pdfrwt>
<pdfrwt beam="2">  1       -1 0.71519031E-01 0.31712414E+02</pdfrwt>
<totfact> 0.26728218E+06</totfact>
</mgrwt>
</event>
<event>
 4    1  0.2260076E+006  0.2956324E+02  0.7546771E-02  0.1602967E+00
         21   -1    0    0  503  502  0.00000000000E+00  0.00000000000E+00  0.70973862096E+01  0.70973862096E+01  0.00000000000E+00 0. -1.
         -4   -1    0    0    0  501 -0.00000000000E+00 -0.00000000000E+00 -0.32116553961E+03  0.32116553961E+03  0.00000000000E+00 0.  1.
         21    1    1    2  503  501  0.25250961975E+02 -0.15374469228E+02 -0.28153958326E+02  0.40824389208E+02  0.00000000000E+00 0. -1.
         -4    1    1    2    0  502 -0.25250961975E+02  0.15374469228E+02 -0.28591419507E+03  0.28743853661E+03  0.00000000000E+00 0.  1.
<mgrwt>
<rscale>  2 0.29563244E+02</rscale>
<asrwt>0</asrwt>
<pdfrwt beam="1">  1       21 0.10919058E-02 0.29563244E+02</pdfrwt>
<pdfrwt beam="2">  1       -4 0.49410075E-01 0.29563244E+02</pdfrwt>
<totfact> 0.35119090E+05</totfact>
</mgrwt>
</event>
<event>
 4    1  0.2260076E+006  0.2679961E+02  0.7546771E-02  0.1636422E+00
          2   -1    0    0  503    0 -0.00000000000E+00  0.00000000000E+00  0.16777765116E+04  0.16777765116E+04  0.00000000000E+00 0. -1.
         21   -1    0    0  501  502  0.00000000000E+00 -0.00000000000E+00 -0.15765602822E+01  0.15765602822E+01  0.00000000000E+00 0. -1.
         21    1    1    2  503  502  0.23642431992E+02 -0.12619599422E+02  0.12143048896E+03  0.12435265388E+03  0.00000000000E+00 0. -1.
          2    1    1    2  501    0 -0.23642431992E+02  0.12619599422E+02  0.15547694624E+04  0.15550004180E+04  0.00000000000E+00 0. -1.
<mgrwt>
<rscale>  2 0.26799606E+02</rscale>
<asrwt>0</asrwt>
<pdfrwt beam="2">  1       21 0.24254908E-03 0.26799606E+02</pdfrwt>
<pdfrwt beam="1">  1        2 0.25811804E+00 0.26799606E+02</pdfrwt>
<totfact> 0.39066677E+06</totfact>
</mgrwt>
</event>
<event>
 4    1  0.2260076E+006  0.3757090E+02  0.7546771E-02  0.1526888E+00
          2   -1    0    0  503    0 -0.00000000000E+00  0.00000000000E+00  0.97015658548E+01  0.97015658548E+01  0.00000000000E+00 0.  1.
         21   -1    0    0  501  502  0.00000000000E+00 -0.00000000000E+00 -0.15044921338E+03  0.15044921338E+03  0.00000000000E+00 0.  1.
         21    1    1    2  503  502 -0.30184162217E+02  0.22371606416E+02 -0.84898171948E+02  0.92840034589E+02  0.00000000000E+00 0.  1.
          2    1    1    2  501    0  0.30184162217E+02 -0.22371606416E+02 -0.55849475573E+02  0.67310744642E+02  0.00000000000E+00 0.  1.
<mgrwt>
<rscale>  2 0.37570899E+02</rscale>
<asrwt>0</asrwt>
<pdfrwt beam="2">  1       21 0.23146030E-01 0.37570899E+02</pdfrwt>
<pdfrwt beam="1">  1        2 0.14925487E-02 0.37570899E+02</pdfrwt>
<totfact> 0.13606960E+06</totfact>
</mgrwt>
</event>
<event>
 4    1  0.2260076E+006  0.6133806E+02  0.7546771E-02  0.1392301E+00
         -2   -1    0    0    0  501 -0.00000000000E+00  0.00000000000E+00  0.55805863539E+03  0.55805863539E+03  0.00000000000E+00 0.  1.
         21   -1    0    0  503  502  0.00000000000E+00 -0.00000000000E+00 -0.11138137080E+02  0.11138137080E+02  0.00000000000E+00 0.  1.
         21    1    1    2  503  501 -0.37162554564E+02  0.48798590092E+02  0.94659938418E+02  0.11279566391E+03  0.00000000000E+00 0.  1.
         -2    1    1    2    0  502  0.37162554564E+02 -0.48798590092E+02  0.45226055989E+03  0.45640110855E+03  0.00000000000E+00 0.  1.
<mgrwt>
<rscale>  2 0.61338062E+02</rscale>
<asrwt>0</asrwt>
<pdfrwt beam="2">  1       21 0.17135600E-02 0.61338062E+02</pdfrwt>
<pdfrwt beam="1">  1       -2 0.85855153E-01 0.61338062E+02</pdfrwt>
<totfact> 0.14301389E+05</totfact>
</mgrwt>
</event>
<event>
 4    1  0.2260076E+006  0.2050913E+02  0.7546771E-02  0.1735389E+00
         21   -1    0    0  503  502  0.00000000000E+00  0.00000000000E+00  0.74954014445E+01  0.74954014445E+01  0.00000000000E+00 0.  1.
          1   -1    0    0  502    0 -0.00000000000E+00 -0.00000000000E+00 -0.14346408771E+03  0.14346408771E+03  0.00000000000E+00 0.  1.
         21    1    1    2  503  501  0.88303668410E+01  0.18510776451E+02 -0.90889329885E+01  0.22432853724E+02  0.00000000000E+00 0.  1.
          1    1    1    2  501    0 -0.88303668410E+01 -0.18510776451E+02 -0.12687975327E+03  0.12852663543E+03  0.00000000000E+00 0.  1.
<mgrwt>
<rscale>  2 0.20509125E+02</rscale>
<asrwt>0</asrwt>
<pdfrwt beam="1">  1       21 0.11531388E-02 0.20509125E+02</pdfrwt>
<pdfrwt beam="2">  1        1 0.22071396E-01 0.20509125E+02</pdfrwt>
<totfact> 0.47574564E+06</totfact>
</mgrwt>
</event>
<event>
 4    1  0.2260076E+006  0.3932312E+02  0.7546771E-02  0.1513252E+00
         21   -1    0    0  503  502  0.00000000000E+00  0.00000000000E+00  0.55542916336E+01  0.55542916336E+01  0.00000000000E+00 0. -1.
          2   -1    0    0  502    0 -0.00000000000E+00 -0.00000000000E+00 -0.17125556348E+04  0.17125556348E+04  0.00000000000E+00 0. -1.
         21    1    1    2  503  501 -0.12203872190E+02  0.37381457814E+02 -0.67366025187E+02  0.78003136053E+02  0.00000000000E+00 0. -1.
          2    1    1    2  501    0  0.12203872190E+02 -0.37381457814E+02 -0.16396353179E+04  0.16401067903E+04  0.00000000000E+00 0. -1.
<mgrwt>
<rscale>  2 0.39323122E+02</rscale>
<asrwt>0</asrwt>
<pdfrwt beam="1">  1       21 0.85450494E-03 0.39323122E+02</pdfrwt>
<pdfrwt beam="2">  1        2 0.26347055E+00 0.39323122E+02</pdfrwt>
<totfact> 0.60564796E+05</totfact>
</mgrwt>
</event>
<event>
 4    1  0.2260076E+006  0.2506968E+02  0.7546771E-02  0.1660003E+00
         -3   -1    0    0    0  501 -0.00000000000E+00  0.00000000000E+00  0.25731421418E+02  0.25731421418E+02  0.00000000000E+00 0.  1.
         21   -1    0    0  503  502  0.00000000000E+00 -0.00000000000E+00 -0.40354631091E+02  0.40354631091E+02  0.00000000000E+00 0.  1.
         21    1    1    2  503  501 -0.86567740937E+01 -0.23527619723E+02 -0.28072051541E+02  0.37636799881E+02  0.00000000000E+00 0.  1.
         -3    1    1    2    0  502  0.86567740937E+01  0.23527619723E+02  0.13448841868E+02  0.28449252629E+02  0.00000000000E+00 0.  1.
<mgrwt>
<rscale>  2 0.25069675E+02</rscale>
<asrwt>0</asrwt>
<pdfrwt beam="2">  1       21 0.62084048E-02 0.25069675E+02</pdfrwt>
<pdfrwt beam="1">  1       -3 0.39586802E-02 0.25069675E+02</pdfrwt>
<totfact> 0.18303413E+06</totfact>
</mgrwt>
</event>
<event>
 4    1  0.2260076E+006  0.2311985E+02  0.7546771E-02  0.1689575E+00
         21   -1    0    0  503  502  0.00000000000E+00  0.00000000000E+00  0.39220643572E+00  0.39220643572E+00  0.00000000000E+00 0.  1.
          2   -1    0    0  502    0 -0.00000000000E+00 -0.00000000000E+00 -0.16923291060E+04  0.16923291060E+04  0.00000000000E+00 0.  1.
         21    1    1    2  503  501  0.20815396728E+02 -0.10062150960E+02 -0.47253627632E+03  0.47310153251E+03  0.00000000000E+00 0.  1.
          2    1    1    2  501    0 -0.20815396728E+02  0.10062150960E+02 -0.12194006233E+04  0.12196197800E+04  0.00000000000E+00 0.  1.
<mgrwt>
<rscale>  2 0.23119853E+02</rscale>
<asrwt>0</asrwt>
<pdfrwt beam="1">  1       21 0.60339284E-04 0.23119853E+02</pdfrwt>
<pdfrwt beam="2">  1        2 0.26035905E+00 0.23119853E+02</pdfrwt>
<totfact> 0.27384890E+07</totfact>
</mgrwt>
</event>
<event>
 4    1  0.2260076E+006  0.4685812E+02  0.7546771E-02  0.1463064E+00
          2   -1    0    0  503    0 -0.00000000000E+00  0.00000000000E+00  0.31280211124E+03  0.31280211124E+03  0.00000000000E+00 0.  1.
         21   -1    0    0  501  502  0.00000000000E+00 -0.00000000000E+00 -0.91505371625E+01  0.91505371625E+01  0.00000000000E+00 0.  1.
         21    1    1    2  503  502 -0.11321732656E+02  0.45469786103E+02  0.74139487897E+02  0.87706024561E+02  0.00000000000E+00 0.  1.
          2    1    1    2  501    0  0.11321732656E+02 -0.45469786103E+02  0.22951208618E+03  0.23424662384E+03  0.00000000000E+00 0.  1.
<mgrwt>
<rscale>  2 0.46858116E+02</rscale>
<asrwt>0</asrwt>
<pdfrwt beam="2">  1       21 0.14077752E-02 0.46858116E+02</pdfrwt>
<pdfrwt beam="1">  1        2 0.48123393E-01 0.46858116E+02</pdfrwt>
<totfact> 0.23611892E+06</totfact>
</mgrwt>
</event>
<event>
 4    1  0.2260076E+006  0.2310678E+02  0.7546771E-02  0.1689785E+00
         -3   -1    0    0    0  501 -0.00000000000E+00  0.00000000000E+00  0.16513958348E+04  0.16513958348E+04  0.00000000000E+00 0.  1.
         21   -1    0    0  501  502  0.00000000000E+00 -0.00000000000E+00 -0.42313371649E+01  0.42313371649E+01  0.00000000000E+00 0.  1.
         21    1    1    2  503  502 -0.21921804589E+02  0.73046447535E+01  0.28023666943E+02  0.36321471065E+02  0.00000000000E+00 0.  1.
         -3    1    1    2    0  503  0.21921804589E+02 -0.73046447535E+01  0.16191408307E+04  0.16193057009E+04  0.00000000000E+00 0.  1.
<mgrwt>
<rscale>  2 0.23106782E+02</rscale>
<asrwt>0</asrwt>
<pdfrwt beam="2">  1       21 0.65097627E-03 0.23106782E+02</pdfrwt>
<pdfrwt beam="1">  1       -3 0.25406038E+00 0.23106782E+02</pdfrwt>
<totfact> 0.22566200E+04</totfact>
</mgrwt>
</event>
<event>
 4    1  0.2260076E+006  0.5643427E+02  0.7546771E-02  0.1413435E+00
         -1   -1    0    0    0  501 -0.00000000000E+00  0.00000000000E+00  0.73659665864E+01  0.73659665864E+01  0.00000000000E+00 0. -1.
         21   -1    0    0  503  502  0.00000000000E+00 -0.00000000000E+00 -0.91134503902E+03  0.91134503902E+03  0.00000000000E+00 0.  1.
         21    1    1    2  503  501  0.27742174211E+02  0.49144669354E+02 -0.78500447369E+03  0.78703039996E+03  0.00000000000E+00 0.  1.
         -1    1    1    2    0  502 -0.27742174211E+02 -0.49144669354E+02 -0.11897459874E+03  0.13168060564E+03  0.00000000000E+00 0. -1.
<mgrwt>
<rscale>  2 0.56434269E+02</rscale>
<asrwt>0</asrwt>
<pdfrwt beam="2">  1       21 0.14020694E+00 0.56434269E+02</pdfrwt>
<pdfrwt beam="1">  1       -1 0.11332255E-02 0.56434269E+02</pdfrwt>
<totfact> 0.47288751E+04</totfact>
</mgrwt>
</event>
<event>
 4    1  0.2260076E+006  0.2875098E+02  0.7546771E-02  0.1612320E+00
          1   -1    0    0  503    0 -0.00000000000E+00  0.00000000000E+00  0.10849442987E+04  0.10849442987E+04  0.00000000000E+00 0.  1.
         21   -1    0    0  501  502  0.00000000000E+00 -0.00000000000E+00 -0.12647937937E+01  0.12647937937E+01  0.00000000000E+00 0.  1.
         21    1    1    2  503  502  0.16515217112E+02 -0.23534369893E+02  0.19937825408E+03  0.20144057973E+03  0.00000000000E+00 0.  1.
          1    1    1    2  501    0 -0.16515217112E+02  0.23534369893E+02  0.88430125078E+03  0.88476851272E+03  0.00000000000E+00 0.  1.
<mgrwt>
<rscale>  2 0.28750982E+02</rscale>
<asrwt>0</asrwt>
<pdfrwt beam="2">  1       21 0.19458453E-03 0.28750982E+02</pdfrwt>
<pdfrwt beam="1">  1        1 0.16691376E+00 0.28750982E+02</pdfrwt>
<totfact> 0.57459324E+06</totfact>
</mgrwt>
</event>
<event>
 4    1  0.2260076E+006  0.2183845E+02  0.7546771E-02  0.1711061E+00
         21   -1    0    0  501  502  0.00000000000E+00  0.00000000000E+00  0.96265866737E+03  0.96265866737E+03  0.00000000000E+00 0. -1.
          2   -1    0    0  503    0 -0.00000000000E+00 -0.00000000000E+00 -0.38730157398E+02  0.38730157398E+02  0.00000000000E+00 0.  1.
         21    1    1    2  503  502  0.68727196010E+01  0.20728808156E+02  0.95944604122E+03  0.95969454713E+03  0.00000000000E+00 0. -1.
          2    1    1    2  501    0 -0.68727196010E+01 -0.20728808156E+02 -0.35517531250E+02  0.41694277645E+02  0.00000000000E+00 0.  1.
<mgrwt>
<rscale>  2 0.21838447E+02</rscale>
<asrwt>0</asrwt>
<pdfrwt beam="1">  1       21 0.14810131E+00 0.21838447E+02</pdfrwt>
<pdfrwt beam="2">  1        2 0.59584865E-02 0.21838447E+02</pdfrwt>
<totfact> 0.51227185E+03</totfact>
</mgrwt>
</event>
<event>
 4    1  0.2260076E+006  0.3277420E+02  0.7546771E-02  0.1569304E+00
         21   -1    0    0  503  502  0.00000000000E+00  0.00000000000E+00  0.42331234623E+02  0.42331234623E+02  0.00000000000E+00 0.  1.
          2   -1    0    0  502    0 -0.00000000000E+00 -0.00000000000E+00 -0.36746345863E+03  0.36746345863E+03  0.00000000000E+00 0.  1.
         21    1    1    2  503  501 -0.32520518232E+02 -0.40699285695E+01  0.35130199288E+02  0.48044555640E+02  0.00000000000E+00 0.  1.
          2    1    1    2  501    0  0.32520518232E+02  0.40699285695E+01 -0.36026242329E+03  0.36175013761E+03  0.00000000000E+00 0.  1.
<mgrwt>
<rscale>  2 0.32774204E+02</rscale>
<asrwt>0</asrwt>
<pdfrwt beam="1">  1       21 0.65124978E-02 0.32774204E+02</pdfrwt>
<pdfrwt beam="2">  1        2 0.56532838E-01 0.32774204E+02</pdfrwt>
<totfact> 0.16763592E+05</totfact>
</mgrwt>
</event>
<event>
 4    1  0.2260076E+006  0.2288518E+02  0.7546771E-02  0.1693378E+00
          2   -1    0    0  503    0 -0.00000000000E+00  0.00000000000E+00  0.14114176767E+04  0.14114176767E+04  0.00000000000E+00 0.  1.
         21   -1    0    0  501  502  0.00000000000E+00 -0.00000000000E+00 -0.11912351414E+01  0.11912351414E+01  0.00000000000E+00 0.  1.
         21    1    1    2  503  502 -0.66481472896E+01  0.21898257352E+02  0.11905001642E+03  0.12122969086E+03  0.00000000000E+00 0.  1.
          2    1    1    2  501    0  0.66481472896E+01 -0.21898257352E+02  0.12911764252E+04  0.12913792210E+04  0.00000000000E+00 0.  1.
<mgrwt>
<rscale>  2 0.22885182E+02</rscale>
<asrwt>0</asrwt>
<pdfrwt beam="2">  1       21 0.18326807E-03 0.22885182E+02</pdfrwt>
<pdfrwt beam="1">  1        2 0.21713984E+00 0.22885182E+02</pdfrwt>
<totfact> 0.75966927E+06</totfact>
</mgrwt>
</event>
<event>
 4    1  0.2260076E+006  0.3281941E+02  0.7546771E-02  0.1568864E+00
         -1   -1    0    0    0  501 -0.00000000000E+00  0.00000000000E+00  0.70859257538E+03  0.70859257538E+03  0.00000000000E+00 0.  1.
         21   -1    0    0  501  502  0.00000000000E+00 -0.00000000000E+00 -0.37120264526E+01  0.37120264526E+01  0.00000000000E+00 0.  1.
         21    1    1    2  503  502  0.20653586409E+02 -0.25505742517E+02  0.78758589868E+02  0.85323086037E+02  0.00000000000E+00 0.  1.
         -1    1    1    2    0  503 -0.20653586409E+02  0.25505742517E+02  0.62612195906E+03  0.62698151579E+03  0.00000000000E+00 0.  1.
<mgrwt>
<rscale>  2 0.32819408E+02</rscale>
<asrwt>0</asrwt>
<pdfrwt beam="2">  1       21 0.57108156E-03 0.32819408E+02</pdfrwt>
<pdfrwt beam="1">  1       -1 0.10901413E+00 0.32819408E+02</pdfrwt>
<totfact> 0.57459627E+05</totfact>
</mgrwt>
</event>
<event>
 4    1  0.2260076E+006  0.3549572E+02  0.7546771E-02  0.1544242E+00
         21   -1    0    0  501  502  0.00000000000E+00  0.00000000000E+00  0.67254577222E+01  0.67254577222E+01  0.00000000000E+00 0. -1.
          2   -1    0    0  503    0 -0.00000000000E+00 -0.00000000000E+00 -0.98635364154E+03  0.98635364154E+03  0.00000000000E+00 0. -1.
         21    1    1    2  503  502  0.33978953736E+02  0.10265305168E+02 -0.42909645143E+02  0.55688270161E+02  0.00000000000E+00 0. -1.
          2    1    1    2  501    0 -0.33978953736E+02 -0.10265305168E+02 -0.93671853868E+03  0.93739082911E+03  0.00000000000E+00 0. -1.
<mgrwt>
<rscale>  2 0.35495715E+02</rscale>
<asrwt>0</asrwt>
<pdfrwt beam="1">  1       21 0.10346866E-02 0.35495715E+02</pdfrwt>
<pdfrwt beam="2">  1        2 0.15174660E+00 0.35495715E+02</pdfrwt>
<totfact> 0.10426677E+06</totfact>
</mgrwt>
</event>
<event>
 4    1  0.2260076E+006  0.2031649E+02  0.7546771E-02  0.1739107E+00
         21   -1    0    0  501  502  0.00000000000E+00  0.00000000000E+00  0.10256145095E+03  0.10256145095E+03  0.00000000000E+00 0.  1.
          3   -1    0    0  503    0 -0.00000000000E+00 -0.00000000000E+00 -0.16201212690E+03  0.16201212690E+03  0.00000000000E+00 0. -1.
         21    1    1    2  503  502 -0.18478799137E+02 -0.84435554087E+01  0.10090806379E+03  0.10293297326E+03  0.00000000000E+00 0.  1.
          3    1    1    2  501    0  0.18478799137E+02  0.84435554087E+01 -0.16035873973E+03  0.16164060460E+03  0.00000000000E+00 0. -1.
<mgrwt>
<rscale>  2 0.20316487E+02</rscale>
<asrwt>0</asrwt>
<pdfrwt beam="1">  1       21 0.15778685E-01 0.20316487E+02</pdfrwt>
<pdfrwt beam="2">  1        3 0.24924943E-01 0.20316487E+02</pdfrwt>
<totfact> 0.20071368E+04</totfact>
</mgrwt>
</event>
<event>
 4    1  0.2260076E+006  0.4053778E+02  0.7546771E-02  0.1504291E+00
         21   -1    0    0  501  502  0.00000000000E+00  0.00000000000E+00  0.10888082932E+03  0.10888082932E+03  0.00000000000E+00 0. -1.
          3   -1    0    0  503    0 -0.00000000000E+00 -0.00000000000E+00 -0.16958417506E+02  0.16958417506E+02  0.00000000000E+00 0. -1.
         21    1    1    2  503  502  0.20268911091E+02  0.35106730057E+02  0.66830629473E+02  0.78164213601E+02  0.00000000000E+00 0. -1.
          3    1    1    2  501    0 -0.20268911091E+02 -0.35106730057E+02  0.25091782346E+02  0.47675033229E+02  0.00000000000E+00 0. -1.
<mgrwt>
<rscale>  2 0.40537776E+02</rscale>
<asrwt>0</asrwt>
<pdfrwt beam="1">  1       21 0.16750896E-01 0.40537776E+02</pdfrwt>
<pdfrwt beam="2">  1        3 0.26089874E-02 0.40537776E+02</pdfrwt>
<totfact> 0.74452214E+05</totfact>
</mgrwt>
</event>
<event>
 4    1  0.2260076E+006  0.2315910E+02  0.7546771E-02  0.1688944E+00
         -1   -1    0    0    0  501 -0.00000000000E+00  0.00000000000E+00  0.68949905867E+03  0.68949905867E+03  0.00000000000E+00 0.  1.
         21   -1    0    0  501  502  0.00000000000E+00 -0.00000000000E+00 -0.37927288123E+01  0.37927288123E+01  0.00000000000E+00 0. -1.
         21    1    1    2  503  502 -0.10785823182E+02 -0.20494148860E+02  0.33792816597E+02  0.40967042520E+02  0.00000000000E+00 0. -1.
         -1    1    1    2    0  503  0.10785823182E+02  0.20494148860E+02  0.65191351326E+03  0.65232474496E+03  0.00000000000E+00 0.  1.
<mgrwt>
<rscale>  2 0.23159104E+02</rscale>
<asrwt>0</asrwt>
<pdfrwt beam="2">  1       21 0.58349729E-03 0.23159104E+02</pdfrwt>
<pdfrwt beam="1">  1       -1 0.10607668E+00 0.23159104E+02</pdfrwt>
<totfact> 0.55265776E+05</totfact>
</mgrwt>
</event>
<event>
 4    1  0.2260076E+006  0.3454043E+02  0.7546771E-02  0.1552720E+00
         -1   -1    0    0    0  501 -0.00000000000E+00  0.00000000000E+00  0.29572286604E+03  0.29572286604E+03  0.00000000000E+00 0.  1.
         21   -1    0    0  503  502  0.00000000000E+00 -0.00000000000E+00 -0.34127727160E+03  0.34127727160E+03  0.00000000000E+00 0.  1.
         21    1    1    2  503  501  0.21622840026E+02  0.26934996014E+02 -0.33938914151E+03  0.34114224393E+03  0.00000000000E+00 0.  1.
         -1    1    1    2    0  502 -0.21622840026E+02 -0.26934996014E+02  0.29383473595E+03  0.29585789371E+03  0.00000000000E+00 0.  1.
<mgrwt>
<rscale>  2 0.34540429E+02</rscale>
<asrwt>0</asrwt>
<pdfrwt beam="2">  1       21 0.52504195E-01 0.34540429E+02</pdfrwt>
<pdfrwt beam="1">  1       -1 0.45495826E-01 0.34540429E+02</pdfrwt>
<totfact> 0.17015948E+03</totfact>
</mgrwt>
</event>
<event>
 4    1  0.2260076E+006  0.2229394E+02  0.7546771E-02  0.1703217E+00
         21   -1    0    0  503  502  0.00000000000E+00  0.00000000000E+00  0.93797424154E+01  0.93797424154E+01  0.00000000000E+00 0. -1.
          1   -1    0    0  502    0 -0.00000000000E+00 -0.00000000000E+00 -0.23063361865E+03  0.23063361865E+03  0.00000000000E+00 0. -1.
         21    1    1    2  503  501 -0.21259526539E+02  0.67121152477E+01 -0.53045827271E+01  0.22916338225E+02  0.00000000000E+00 0. -1.
          1    1    1    2  501    0  0.21259526539E+02 -0.67121152477E+01 -0.21594929351E+03  0.21709702284E+03  0.00000000000E+00 0. -1.
<mgrwt>
<rscale>  2 0.22293944E+02</rscale>
<asrwt>0</asrwt>
<pdfrwt beam="1">  1       21 0.14430373E-02 0.22293944E+02</pdfrwt>
<pdfrwt beam="2">  1        1 0.35482095E-01 0.22293944E+02</pdfrwt>
<totfact> 0.19935175E+06</totfact>
</mgrwt>
</event>
<event>
 4    1  0.2260076E+006  0.2035224E+02  0.7546771E-02  0.1738413E+00
          2   -1    0    0  502    0 -0.00000000000E+00  0.00000000000E+00  0.25347985145E+02  0.25347985145E+02  0.00000000000E+00 0. -1.
         21   -1    0    0  503  502  0.00000000000E+00 -0.00000000000E+00 -0.41378617279E+02  0.41378617279E+02  0.00000000000E+00 0. -1.
         21    1    1    2  503  501  0.11495132662E+02  0.16795108377E+02 -0.33967668816E+02  0.39598185124E+02  0.00000000000E+00 0. -1.
          2    1    1    2  501    0 -0.11495132662E+02 -0.16795108377E+02  0.17937036682E+02  0.27128417301E+02  0.00000000000E+00 0. -1.
<mgrwt>
<rscale>  2 0.20352242E+02</rscale>
<asrwt>0</asrwt>
<pdfrwt beam="2">  1       21 0.63659410E-02 0.20352242E+02</pdfrwt>
<pdfrwt beam="1">  1        2 0.38996901E-02 0.20352242E+02</pdfrwt>
<totfact> 0.30777768E+06</totfact>
</mgrwt>
</event>
<event>
 4    1  0.2260076E+006  0.2986665E+02  0.7546771E-02  0.1599567E+00
          3   -1    0    0  503    0 -0.00000000000E+00  0.00000000000E+00  0.17046024450E+03  0.17046024450E+03  0.00000000000E+00 0.  1.
         21   -1    0    0  501  502  0.00000000000E+00 -0.00000000000E+00 -0.18976109353E+02  0.18976109353E+02  0.00000000000E+00 0.  1.
         21    1    1    2  503  502  0.21154915058E+02 -0.21082845256E+02 -0.48648657103E+01  0.30260266251E+02  0.00000000000E+00 0.  1.
          3    1    1    2  501    0 -0.21154915058E+02  0.21082845256E+02  0.15634900086E+03  0.15917608760E+03  0.00000000000E+00 0.  1.
<mgrwt>
<rscale>  2 0.29866650E+02</rscale>
<asrwt>0</asrwt>
<pdfrwt beam="2">  1       21 0.29194016E-02 0.29866650E+02</pdfrwt>
<pdfrwt beam="1">  1        3 0.26224652E-01 0.29866650E+02</pdfrwt>
<totfact> 0.31477912E+05</totfact>
</mgrwt>
</event>
<event>
 4    1  0.2260076E+006  0.2349595E+02  0.7546771E-02  0.1683595E+00
         21   -1    0    0  501  502  0.00000000000E+00  0.00000000000E+00  0.47889984601E+03  0.47889984601E+03  0.00000000000E+00 0. -1.
         -3   -1    0    0    0  501 -0.00000000000E+00 -0.00000000000E+00 -0.69679327079E+02  0.69679327079E+02  0.00000000000E+00 0.  1.
         21    1    1    2  503  502 -0.22910940613E+02 -0.52104021416E+01  0.47662147716E+03  0.47720026402E+03  0.00000000000E+00 0. -1.
         -3    1    1    2    0  503  0.22910940613E+02  0.52104021416E+01 -0.67400958228E+02  0.71378909072E+02  0.00000000000E+00 0.  1.
<mgrwt>
<rscale>  2 0.23495946E+02</rscale>
<asrwt>0</asrwt>
<pdfrwt beam="1">  1       21 0.73676897E-01 0.23495946E+02</pdfrwt>
<pdfrwt beam="2">  1       -3 0.10719897E-01 0.23495946E+02</pdfrwt>
<totfact> 0.47025542E+03</totfact>
</mgrwt>
</event>
<event>
 4    1  0.2260076E+006  0.2049141E+02  0.7546771E-02  0.1735729E+00
         -4   -1    0    0    0  501 -0.00000000000E+00  0.00000000000E+00  0.18412270863E+02  0.18412270863E+02  0.00000000000E+00 0. -1.
         21   -1    0    0  503  502  0.00000000000E+00 -0.00000000000E+00 -0.81342620347E+02  0.81342620347E+02  0.00000000000E+00 0. -1.
         21    1    1    2  503  501  0.13120843527E+02  0.15739798966E+02 -0.73776970104E+02  0.76569831684E+02  0.00000000000E+00 0. -1.
         -4    1    1    2    0  502 -0.13120843527E+02 -0.15739798966E+02  0.10846620619E+02  0.23185059526E+02  0.00000000000E+00 0. -1.
<mgrwt>
<rscale>  2 0.20491408E+02</rscale>
<asrwt>0</asrwt>
<pdfrwt beam="2">  1       21 0.12514249E-01 0.20491408E+02</pdfrwt>
<pdfrwt beam="1">  1       -4 0.28326571E-02 0.20491408E+02</pdfrwt>
<totfact> 0.74659292E+05</totfact>
</mgrwt>
</event>
<event>
 4    1  0.2260076E+006  0.4112535E+02  0.7546771E-02  0.1500090E+00
         21   -1    0    0  501  502  0.00000000000E+00  0.00000000000E+00  0.19675957278E+01  0.19675957278E+01  0.00000000000E+00 0. -1.
          2   -1    0    0  503    0 -0.00000000000E+00 -0.00000000000E+00 -0.15794225899E+04  0.15794225899E+04  0.00000000000E+00 0. -1.
         21    1    1    2  503  502 -0.24764190753E+01  0.41050723333E+02 -0.25492526246E+03  0.25822119196E+03  0.00000000000E+00 0. -1.
          2    1    1    2  501    0  0.24764190753E+01 -0.41050723333E+02 -0.13225297317E+04  0.13231689937E+04  0.00000000000E+00 0. -1.
<mgrwt>
<rscale>  2 0.41125352E+02</rscale>
<asrwt>0</asrwt>
<pdfrwt beam="1">  1       21 0.30270700E-03 0.41125352E+02</pdfrwt>
<pdfrwt beam="2">  1        2 0.24298812E+00 0.41125352E+02</pdfrwt>
<totfact> 0.33532354E+06</totfact>
</mgrwt>
</event>
<event>
 4    1  0.2260076E+006  0.6815983E+02  0.7546771E-02  0.1366465E+00
         21   -1    0    0  503  502  0.00000000000E+00  0.00000000000E+00  0.94732314998E+01  0.94732314998E+01  0.00000000000E+00 0. -1.
          2   -1    0    0  502    0 -0.00000000000E+00 -0.00000000000E+00 -0.14233512550E+04  0.14233512550E+04  0.00000000000E+00 0. -1.
         21    1    1    2  503  501  0.40602491171E+02 -0.54746696830E+02 -0.12693070830E+03  0.14407348060E+03  0.00000000000E+00 0. -1.
          2    1    1    2  501    0 -0.40602491171E+02  0.54746696830E+02 -0.12869473152E+04  0.12887510059E+04  0.00000000000E+00 0. -1.
<mgrwt>
<rscale>  2 0.68159835E+02</rscale>
<asrwt>0</asrwt>
<pdfrwt beam="1">  1       21 0.14574195E-02 0.68159835E+02</pdfrwt>
<pdfrwt beam="2">  1        2 0.21897722E+00 0.68159835E+02</pdfrwt>
<totfact> 0.38226563E+05</totfact>
</mgrwt>
</event>
<event>
 4    1  0.2260076E+006  0.2176489E+02  0.7546771E-02  0.1712350E+00
         21   -1    0    0  503  502  0.00000000000E+00  0.00000000000E+00  0.12561818954E+02  0.12561818954E+02  0.00000000000E+00 0. -1.
          1   -1    0    0  502    0 -0.00000000000E+00 -0.00000000000E+00 -0.11252382317E+03  0.11252382317E+03  0.00000000000E+00 0. -1.
         21    1    1    2  503  501 -0.74296324055E+01  0.20457541276E+02  0.10160616548E+01  0.21788593668E+02  0.00000000000E+00 0. -1.
          1    1    1    2  501    0  0.74296324055E+01 -0.20457541276E+02 -0.10097806587E+03  0.10329704845E+03  0.00000000000E+00 0. -1.
<mgrwt>
<rscale>  2 0.21764890E+02</rscale>
<asrwt>0</asrwt>
<pdfrwt beam="1">  1       21 0.19325876E-02 0.21764890E+02</pdfrwt>
<pdfrwt beam="2">  1        1 0.17311357E-01 0.21764890E+02</pdfrwt>
<totfact> 0.29499634E+06</totfact>
</mgrwt>
</event>
<event>
 4    1  0.2260076E+006  0.2156643E+02  0.7546771E-02  0.1715860E+00
          2   -1    0    0  502    0 -0.00000000000E+00  0.00000000000E+00  0.25044010798E+03  0.25044010798E+03  0.00000000000E+00 0.  1.
         21   -1    0    0  503  502  0.00000000000E+00 -0.00000000000E+00 -0.34799695714E+02  0.34799695714E+02  0.00000000000E+00 0. -1.
         21    1    1    2  503  501  0.11670571828E+02 -0.18135839157E+02 -0.30941882776E+02  0.37716190402E+02  0.00000000000E+00 0. -1.
          2    1    1    2  501    0 -0.11670571828E+02  0.18135839157E+02  0.24658229504E+03  0.24752361329E+03  0.00000000000E+00 0.  1.
<mgrwt>
<rscale>  2 0.21566430E+02</rscale>
<asrwt>0</asrwt>
<pdfrwt beam="2">  1       21 0.53537995E-02 0.21566430E+02</pdfrwt>
<pdfrwt beam="1">  1        2 0.38529246E-01 0.21566430E+02</pdfrwt>
<totfact> 0.31900552E+05</totfact>
</mgrwt>
</event>
<event>
 4    1  0.2260076E+006  0.3057178E+02  0.7546771E-02  0.1591853E+00
         21   -1    0    0  501  502  0.00000000000E+00  0.00000000000E+00  0.11796848118E+03  0.11796848118E+03  0.00000000000E+00 0.  1.
          1   -1    0    0  503    0 -0.00000000000E+00 -0.00000000000E+00 -0.25906588866E+03  0.25906588866E+03  0.00000000000E+00 0. -1.
         21    1    1    2  503  502 -0.28869314259E+01  0.30435170045E+02  0.11506348600E+03  0.11905561625E+03  0.00000000000E+00 0.  1.
          1    1    1    2  501    0  0.28869314259E+01 -0.30435170045E+02 -0.25616089349E+03  0.25797875358E+03  0.00000000000E+00 0. -1.
<mgrwt>
<rscale>  2 0.30571784E+02</rscale>
<asrwt>0</asrwt>
<pdfrwt beam="1">  1       21 0.18148997E-01 0.30571784E+02</pdfrwt>
<pdfrwt beam="2">  1        1 0.39856290E-01 0.30571784E+02</pdfrwt>
<totfact> 0.30771088E+04</totfact>
</mgrwt>
</event>
<event>
 4    1  0.2260076E+006  0.2703935E+02  0.7546771E-02  0.1633327E+00
         21   -1    0    0  503  502  0.00000000000E+00  0.00000000000E+00  0.61056648726E+01  0.61056648726E+01  0.00000000000E+00 0. -1.
         -1   -1    0    0    0  501 -0.00000000000E+00 -0.00000000000E+00 -0.59876531924E+03  0.59876531924E+03  0.00000000000E+00 0. -1.
         21    1    1    2  503  501  0.35851021904E+01  0.26800622697E+02 -0.25821184279E+02  0.37387964537E+02  0.00000000000E+00 0. -1.
         -1    1    1    2    0  502 -0.35851021904E+01 -0.26800622697E+02 -0.56683847009E+03  0.56748301958E+03  0.00000000000E+00 0. -1.
<mgrwt>
<rscale>  2 0.27039348E+02</rscale>
<asrwt>0</asrwt>
<pdfrwt beam="1">  1       21 0.93933305E-03 0.27039348E+02</pdfrwt>
<pdfrwt beam="2">  1       -1 0.92117742E-01 0.27039348E+02</pdfrwt>
<totfact> 0.37525633E+05</totfact>
</mgrwt>
</event>
<event>
 4    1  0.2260076E+006  0.2039600E+02  0.7546771E-02  0.1737566E+00
          4   -1    0    0  502    0 -0.00000000000E+00  0.00000000000E+00  0.38290011865E+03  0.38290011865E+03  0.00000000000E+00 0.  1.
         21   -1    0    0  503  502  0.00000000000E+00 -0.00000000000E+00 -0.71912539911E+01  0.71912539911E+01  0.00000000000E+00 0. -1.
         21    1    1    2  503  501  0.16212714183E+02  0.12375167808E+02  0.81452127282E+01  0.21962271509E+02  0.00000000000E+00 0. -1.
          4    1    1    2  501    0 -0.16212714183E+02 -0.12375167808E+02  0.36756365193E+03  0.36812910114E+03  0.00000000000E+00 0.  1.
<mgrwt>
<rscale>  2 0.20396002E+02</rscale>
<asrwt>0</asrwt>
<pdfrwt beam="2">  1       21 0.11063471E-02 0.20396002E+02</pdfrwt>
<pdfrwt beam="1">  1        4 0.58907695E-01 0.20396002E+02</pdfrwt>
<totfact> 0.21193147E+05</totfact>
</mgrwt>
</event>
<event>
 4    1  0.2260076E+006  0.2049469E+02  0.7546771E-02  0.1735666E+00
          1   -1    0    0  502    0 -0.00000000000E+00  0.00000000000E+00  0.56122523794E+03  0.56122523794E+03  0.00000000000E+00 0.  1.
         21   -1    0    0  503  502  0.00000000000E+00 -0.00000000000E+00 -0.22750685241E+01  0.22750685241E+01  0.00000000000E+00 0.  1.
         21    1    1    2  503  501  0.97581502253E+01 -0.18022505097E+02  0.48674740195E+02  0.52813469104E+02  0.00000000000E+00 0.  1.
          1    1    1    2  501    0 -0.97581502253E+01  0.18022505097E+02  0.51027542922E+03  0.51068683736E+03  0.00000000000E+00 0.  1.
<mgrwt>
<rscale>  2 0.20494687E+02</rscale>
<asrwt>0</asrwt>
<pdfrwt beam="2">  1       21 0.35001099E-03 0.20494687E+02</pdfrwt>
<pdfrwt beam="1">  1        1 0.86342234E-01 0.20494687E+02</pdfrwt>
<totfact> 0.56674762E+06</totfact>
</mgrwt>
</event>
<event>
 4    1  0.2260076E+006  0.2194022E+02  0.7546771E-02  0.1709288E+00
          3   -1    0    0  502    0 -0.00000000000E+00  0.00000000000E+00  0.59196479806E+03  0.59196479806E+03  0.00000000000E+00 0.  1.
         21   -1    0    0  503  502  0.00000000000E+00 -0.00000000000E+00 -0.17291158620E+03  0.17291158620E+03  0.00000000000E+00 0. -1.
         21    1    1    2  503  501 -0.21166761667E+02 -0.57741875203E+01 -0.17201125032E+03  0.17340485368E+03  0.00000000000E+00 0. -1.
          3    1    1    2  501    0  0.21166761667E+02  0.57741875203E+01  0.59106446218E+03  0.59147153058E+03  0.00000000000E+00 0.  1.
<mgrwt>
<rscale>  2 0.21940215E+02</rscale>
<asrwt>0</asrwt>
<pdfrwt beam="2">  1       21 0.26601783E-01 0.21940215E+02</pdfrwt>
<pdfrwt beam="1">  1        3 0.91071506E-01 0.21940215E+02</pdfrwt>
<totfact> 0.70317957E+02</totfact>
</mgrwt>
</event>
<event>
 4    1  0.2260076E+006  0.2429562E+02  0.7546771E-02  0.1671330E+00
         -2   -1    0    0    0  501 -0.00000000000E+00  0.00000000000E+00  0.34412446105E+02  0.34412446105E+02  0.00000000000E+00 0.  1.
         21   -1    0    0  503  502  0.00000000000E+00 -0.00000000000E+00 -0.10281652954E+03  0.10281652954E+03  0.00000000000E+00 0.  1.
         21    1    1    2  503  501  0.17645269420E+02 -0.16700940043E+02 -0.96832028464E+02  0.99833454652E+02  0.00000000000E+00 0.  1.
         -2    1    1    2    0  502 -0.17645269420E+02  0.16700940043E+02  0.28427945034E+02  0.37395520989E+02  0.00000000000E+00 0.  1.
<mgrwt>
<rscale>  2 0.24295615E+02</rscale>
<asrwt>0</asrwt>
<pdfrwt beam="2">  1       21 0.15817927E-01 0.24295615E+02</pdfrwt>
<pdfrwt beam="1">  1       -2 0.52942225E-02 0.24295615E+02</pdfrwt>
<totfact> 0.38405707E+05</totfact>
</mgrwt>
</event>
<event>
 4    1  0.2260076E+006  0.2413849E+02  0.7546771E-02  0.1673693E+00
          2   -1    0    0  502    0 -0.00000000000E+00  0.00000000000E+00  0.27297492642E+03  0.27297492642E+03  0.00000000000E+00 0.  1.
         21   -1    0    0  503  502  0.00000000000E+00 -0.00000000000E+00 -0.14210607971E+02  0.14210607971E+02  0.00000000000E+00 0. -1.
         21    1    1    2  503  501 -0.24110295955E+02 -0.11663598062E+01 -0.29878538077E+01  0.24322706195E+02  0.00000000000E+00 0. -1.
          2    1    1    2  501    0  0.24110295955E+02  0.11663598062E+01  0.26175217225E+03  0.26286282819E+03  0.00000000000E+00 0.  1.
<mgrwt>
<rscale>  2 0.24138491E+02</rscale>
<asrwt>0</asrwt>
<pdfrwt beam="2">  1       21 0.21862476E-02 0.24138491E+02</pdfrwt>
<pdfrwt beam="1">  1        2 0.41996139E-01 0.24138491E+02</pdfrwt>
<totfact> 0.12154323E+06</totfact>
</mgrwt>
</event>
<event>
 4    1  0.2260076E+006  0.3716065E+02  0.7546771E-02  0.1530210E+00
          2   -1    0    0  502    0 -0.00000000000E+00  0.00000000000E+00  0.46120708592E+03  0.46120708592E+03  0.00000000000E+00 0. -1.
         21   -1    0    0  503  502  0.00000000000E+00 -0.00000000000E+00 -0.32198262248E+01  0.32198262248E+01  0.00000000000E+00 0. -1.
         21    1    1    2  503  501 -0.29558060046E+02  0.22521877625E+02  0.16751368151E+03  0.17158597664E+03  0.00000000000E+00 0. -1.
          2    1    1    2  501    0  0.29558060046E+02 -0.22521877625E+02  0.29047357818E+03  0.29284093551E+03  0.00000000000E+00 0. -1.
<mgrwt>
<rscale>  2 0.37160650E+02</rscale>
<asrwt>0</asrwt>
<pdfrwt beam="2">  1       21 0.49535825E-03 0.37160650E+02</pdfrwt>
<pdfrwt beam="1">  1        2 0.70954884E-01 0.37160650E+02</pdfrwt>
<totfact> 0.74799211E+06</totfact>
</mgrwt>
</event>
<event>
 4    1  0.2260076E+006  0.2088387E+02  0.7546771E-02  0.1728302E+00
         -3   -1    0    0    0  501 -0.00000000000E+00  0.00000000000E+00  0.15884856975E+02  0.15884856975E+02  0.00000000000E+00 0. -1.
         21   -1    0    0  501  502  0.00000000000E+00 -0.00000000000E+00 -0.75200539996E+02  0.75200539996E+02  0.00000000000E+00 0.  1.
         21    1    1    2  503  502  0.20832925411E+02 -0.14578138779E+01 -0.65946402338E+02  0.69174156907E+02  0.00000000000E+00 0.  1.
         -3    1    1    2    0  503 -0.20832925411E+02  0.14578138779E+01  0.66307193165E+01  0.21911240064E+02  0.00000000000E+00 0. -1.
<mgrwt>
<rscale>  2 0.20883869E+02</rscale>
<asrwt>0</asrwt>
<pdfrwt beam="2">  1       21 0.11569314E-01 0.20883869E+02</pdfrwt>
<pdfrwt beam="1">  1       -3 0.24438241E-02 0.20883869E+02</pdfrwt>
<totfact> 0.12585741E+06</totfact>
</mgrwt>
</event>
<event>
 4    1  0.2260076E+006  0.2135488E+02  0.7546771E-02  0.1719654E+00
         21   -1    0    0  503  502  0.00000000000E+00  0.00000000000E+00  0.24240330423E+02  0.24240330423E+02  0.00000000000E+00 0.  1.
          1   -1    0    0  502    0 -0.00000000000E+00 -0.00000000000E+00 -0.31648626740E+03  0.31648626740E+03  0.00000000000E+00 0. -1.
         21    1    1    2  503  501 -0.16492023079E+02 -0.13566291450E+02  0.19099303864E+02  0.28649860332E+02  0.00000000000E+00 0.  1.
          1    1    1    2  501    0  0.16492023079E+02  0.13566291450E+02 -0.31134524084E+03  0.31207673749E+03  0.00000000000E+00 0. -1.
<mgrwt>
<rscale>  2 0.21354884E+02</rscale>
<asrwt>0</asrwt>
<pdfrwt beam="1">  1       21 0.37292815E-02 0.21354884E+02</pdfrwt>
<pdfrwt beam="2">  1        1 0.48690196E-01 0.21354884E+02</pdfrwt>
<totfact> 0.31830772E+05</totfact>
</mgrwt>
</event>
<event>
 4    1  0.2260076E+006  0.2039202E+02  0.7546771E-02  0.1737643E+00
          2   -1    0    0  503    0 -0.00000000000E+00  0.00000000000E+00  0.66051932151E+03  0.66051932151E+03  0.00000000000E+00 0. -1.
         21   -1    0    0  501  502  0.00000000000E+00 -0.00000000000E+00 -0.18754564683E+01  0.18754564683E+01  0.00000000000E+00 0.  1.
         21    1    1    2  503  502  0.19194588943E+02  0.68849211684E+01  0.59377137734E+02  0.62781198377E+02  0.00000000000E+00 0.  1.
          2    1    1    2  501    0 -0.19194588943E+02 -0.68849211684E+01  0.59926672731E+03  0.59961357960E+03  0.00000000000E+00 0. -1.
<mgrwt>
<rscale>  2 0.20392018E+02</rscale>
<asrwt>0</asrwt>
<pdfrwt beam="2">  1       21 0.28853229E-03 0.20392018E+02</pdfrwt>
<pdfrwt beam="1">  1        2 0.10161817E+00 0.20392018E+02</pdfrwt>
<totfact> 0.98871970E+06</totfact>
</mgrwt>
</event>
<event>
 4    1  0.2260076E+006  0.2698023E+02  0.7546771E-02  0.1634087E+00
         21   -1    0    0  503  502  0.00000000000E+00  0.00000000000E+00  0.45367522185E+01  0.45367522185E+01  0.00000000000E+00 0.  1.
          2   -1    0    0  502    0 -0.00000000000E+00 -0.00000000000E+00 -0.11658708850E+04  0.11658708850E+04  0.00000000000E+00 0. -1.
         21    1    1    2  503  501  0.20715452585E+02  0.17285909772E+02 -0.37222361069E+02  0.45972130862E+02  0.00000000000E+00 0.  1.
          2    1    1    2  501    0 -0.20715452585E+02 -0.17285909772E+02 -0.11241117717E+04  0.11244355063E+04  0.00000000000E+00 0. -1.
<mgrwt>
<rscale>  2 0.26980227E+02</rscale>
<asrwt>0</asrwt>
<pdfrwt beam="1">  1       21 0.69796040E-03 0.26980227E+02</pdfrwt>
<pdfrwt beam="2">  1        2 0.17936513E+00 0.26980227E+02</pdfrwt>
<totfact> 0.14556242E+06</totfact>
</mgrwt>
</event>
<event>
 4    1  0.2260076E+006  0.2296981E+02  0.7546771E-02  0.1692000E+00
         21   -1    0    0  501  502  0.00000000000E+00  0.00000000000E+00  0.12037673915E+01  0.12037673915E+01  0.00000000000E+00 0.  1.
          1   -1    0    0  503    0 -0.00000000000E+00 -0.00000000000E+00 -0.43866279299E+03  0.43866279299E+03  0.00000000000E+00 0.  1.
         21    1    1    2  503  502 -0.95802525291E+01 -0.20876562199E+02 -0.22504834610E+03  0.22621752843E+03  0.00000000000E+00 0.  1.
          1    1    1    2  501    0  0.95802525291E+01  0.20876562199E+02 -0.21241067950E+03  0.21364903195E+03  0.00000000000E+00 0.  1.
<mgrwt>
<rscale>  2 0.22969808E+02</rscale>
<asrwt>0</asrwt>
<pdfrwt beam="1">  1       21 0.18519463E-03 0.22969808E+02</pdfrwt>
<pdfrwt beam="2">  1        1 0.67486711E-01 0.22969808E+02</pdfrwt>
<totfact> 0.19781892E+07</totfact>
</mgrwt>
</event>
<event>
 4    1  0.2260076E+006  0.3589985E+02  0.7546771E-02  0.1540752E+00
          2   -1    0    0  503    0 -0.00000000000E+00  0.00000000000E+00  0.23937053044E+03  0.23937053044E+03  0.00000000000E+00 0.  1.
         21   -1    0    0  501  502  0.00000000000E+00 -0.00000000000E+00 -0.86019232778E+01  0.86019232778E+01  0.00000000000E+00 0.  1.
         21    1    1    2  503  502  0.30989677689E+01  0.35765840174E+02  0.39551761683E+02  0.53414799230E+02  0.00000000000E+00 0.  1.
          2    1    1    2  501    0 -0.30989677689E+01 -0.35765840174E+02  0.19121684548E+03  0.19455765449E+03  0.00000000000E+00 0.  1.
<mgrwt>
<rscale>  2 0.35899846E+02</rscale>
<asrwt>0</asrwt>
<pdfrwt beam="2">  1       21 0.13233730E-02 0.35899846E+02</pdfrwt>
<pdfrwt beam="1">  1        2 0.36826230E-01 0.35899846E+02</pdfrwt>
<totfact> 0.32496948E+06</totfact>
</mgrwt>
</event>
<event>
 4    1  0.2260076E+006  0.9452132E+02  0.7546771E-02  0.1292258E+00
         21   -1    0    0  503  502  0.00000000000E+00  0.00000000000E+00  0.24562426122E+04  0.24562426122E+04  0.00000000000E+00 0.  1.
         -3   -1    0    0    0  501 -0.00000000000E+00 -0.00000000000E+00 -0.97406947069E+01  0.97406947069E+01  0.00000000000E+00 0. -1.
         21    1    1    2  503  501 -0.58467392294E+02  0.74268729633E+02  0.21992472398E+04  0.22012775159E+04  0.00000000000E+00 0.  1.
         -3    1    1    2    0  502  0.58467392294E+02 -0.74268729633E+02  0.24725467776E+03  0.26470579109E+03  0.00000000000E+00 0. -1.
<mgrwt>
<rscale>  2 0.94521321E+02</rscale>
<asrwt>0</asrwt>
<pdfrwt beam="1">  1       21 0.37788299E+00 0.94521321E+02</pdfrwt>
<pdfrwt beam="2">  1       -3 0.14985704E-02 0.94521321E+02</pdfrwt>
<totfact> 0.96196624E+02</totfact>
</mgrwt>
</event>
<event>
 4    1  0.2260076E+006  0.4770746E+02  0.7546771E-02  0.1458114E+00
         21   -1    0    0  503  502  0.00000000000E+00  0.00000000000E+00  0.45242211739E+01  0.45242211739E+01  0.00000000000E+00 0.  1.
          1   -1    0    0  502    0 -0.00000000000E+00 -0.00000000000E+00 -0.92192776058E+03  0.92192776058E+03  0.00000000000E+00 0. -1.
         21    1    1    2  503  501 -0.43660101246E+02 -0.19230120780E+02 -0.14646968969E+03  0.15404340941E+03  0.00000000000E+00 0.  1.
          1    1    1    2  501    0  0.43660101246E+02  0.19230120780E+02 -0.77093384972E+03  0.77240857234E+03  0.00000000000E+00 0. -1.
<mgrwt>
<rscale>  2 0.47707463E+02</rscale>
<asrwt>0</asrwt>
<pdfrwt beam="1">  1       21 0.69603394E-03 0.47707463E+02</pdfrwt>
<pdfrwt beam="2">  1        1 0.14183506E+00 0.47707463E+02</pdfrwt>
<totfact> 0.12135354E+06</totfact>
</mgrwt>
</event>
<event>
 4    1  0.2260076E+006  0.2302260E+02  0.7546771E-02  0.1691144E+00
          2   -1    0    0  502    0 -0.00000000000E+00  0.00000000000E+00  0.45732457419E+03  0.45732457419E+03  0.00000000000E+00 0.  1.
         21   -1    0    0  503  502  0.00000000000E+00 -0.00000000000E+00 -0.48459511631E+02  0.48459511631E+02  0.00000000000E+00 0.  1.
         21    1    1    2  503  501 -0.17023256770E+01 -0.22959579673E+02 -0.45417010371E+02  0.50919004728E+02  0.00000000000E+00 0.  1.
          2    1    1    2  501    0  0.17023256770E+01  0.22959579673E+02  0.45428207293E+03  0.45486508109E+03  0.00000000000E+00 0.  1.
<mgrwt>
<rscale>  2 0.23022602E+02</rscale>
<asrwt>0</asrwt>
<pdfrwt beam="2">  1       21 0.74553098E-02 0.23022602E+02</pdfrwt>
<pdfrwt beam="1">  1        2 0.70357624E-01 0.23022602E+02</pdfrwt>
<totfact> 0.10429771E+05</totfact>
</mgrwt>
</event>
<event>
 4    1  0.2260076E+006  0.2440026E+02  0.7546771E-02  0.1669769E+00
         21   -1    0    0  503  502  0.00000000000E+00  0.00000000000E+00  0.89122246741E+02  0.89122246741E+02  0.00000000000E+00 0. -1.
          2   -1    0    0  502    0 -0.00000000000E+00 -0.00000000000E+00 -0.13984389606E+03  0.13984389606E+03  0.00000000000E+00 0.  1.
         21    1    1    2  503  501 -0.18405025254E+02 -0.16019598421E+02  0.86354333558E+02  0.89735407796E+02  0.00000000000E+00 0. -1.
          2    1    1    2  501    0  0.18405025254E+02  0.16019598421E+02 -0.13707598287E+03  0.13923073500E+03  0.00000000000E+00 0.  1.
<mgrwt>
<rscale>  2 0.24400256E+02</rscale>
<asrwt>0</asrwt>
<pdfrwt beam="1">  1       21 0.13711115E-01 0.24400256E+02</pdfrwt>
<pdfrwt beam="2">  1        2 0.21514446E-01 0.24400256E+02</pdfrwt>
<totfact> 0.12562502E+05</totfact>
</mgrwt>
</event>
<event>
 4    1  0.2260076E+006  0.2312372E+02  0.7546771E-02  0.1689512E+00
          4   -1    0    0  502    0 -0.00000000000E+00  0.00000000000E+00  0.17622123263E+03  0.17622123263E+03  0.00000000000E+00 0. -1.
         21   -1    0    0  503  502  0.00000000000E+00 -0.00000000000E+00 -0.14693365120E+02  0.14693365120E+02  0.00000000000E+00 0.  1.
         21    1    1    2  503  501 -0.81219439034E+01  0.21650416737E+02 -0.42677023662E+01  0.23514246770E+02  0.00000000000E+00 0.  1.
          4    1    1    2  501    0  0.81219439034E+01 -0.21650416737E+02  0.16579556987E+03  0.16740035098E+03  0.00000000000E+00 0. -1.
<mgrwt>
<rscale>  2 0.23123722E+02</rscale>
<asrwt>0</asrwt>
<pdfrwt beam="2">  1       21 0.22605178E-02 0.23123722E+02</pdfrwt>
<pdfrwt beam="1">  1        4 0.27110957E-01 0.23123722E+02</pdfrwt>
<totfact> 0.32295660E+05</totfact>
</mgrwt>
</event>
<event>
 4    1  0.2260076E+006  0.2286353E+02  0.7546771E-02  0.1693732E+00
         21   -1    0    0  503  502  0.00000000000E+00  0.00000000000E+00  0.18192261545E+03  0.18192261545E+03  0.00000000000E+00 0.  1.
         -2   -1    0    0    0  501 -0.00000000000E+00 -0.00000000000E+00 -0.35201229550E+01  0.35201229550E+01  0.00000000000E+00 0.  1.
         21    1    1    2  503  501 -0.22253156321E+02  0.52476639429E+01  0.12894343232E+03  0.13095476196E+03  0.00000000000E+00 0.  1.
         -2    1    1    2    0  502  0.22253156321E+02 -0.52476639429E+01  0.49459060184E+02  0.54487976448E+02  0.00000000000E+00 0.  1.
<mgrwt>
<rscale>  2 0.22863529E+02</rscale>
<asrwt>0</asrwt>
<pdfrwt beam="1">  1       21 0.27988087E-01 0.22863529E+02</pdfrwt>
<pdfrwt beam="2">  1       -2 0.54155752E-03 0.22863529E+02</pdfrwt>
<totfact> 0.31807405E+06</totfact>
</mgrwt>
</event>
<event>
 4    1  0.2260076E+006  0.2170823E+02  0.7546771E-02  0.1713347E+00
         -4   -1    0    0    0  501 -0.00000000000E+00  0.00000000000E+00  0.35521013415E+02  0.35521013415E+02  0.00000000000E+00 0. -1.
         21   -1    0    0  501  502  0.00000000000E+00 -0.00000000000E+00 -0.10278960666E+04  0.10278960666E+04  0.00000000000E+00 0.  1.
         21    1    1    2  503  502 -0.20247060321E+02  0.78296811070E+01 -0.10244536283E+04  0.10246836018E+04  0.00000000000E+00 0.  1.
         -4    1    1    2    0  503  0.20247060321E+02 -0.78296811070E+01  0.32078575056E+02  0.38733478226E+02  0.00000000000E+00 0. -1.
<mgrwt>
<rscale>  2 0.21708232E+02</rscale>
<asrwt>0</asrwt>
<pdfrwt beam="2">  1       21 0.15813784E+00 0.21708232E+02</pdfrwt>
<pdfrwt beam="1">  1       -4 0.54647719E-02 0.21708232E+02</pdfrwt>
<totfact> 0.20160384E+03</totfact>
</mgrwt>
</event>
<event>
 4    1  0.2260076E+006  0.2127950E+02  0.7546771E-02  0.1721019E+00
          1   -1    0    0  503    0 -0.00000000000E+00  0.00000000000E+00  0.22446141140E+03  0.22446141140E+03  0.00000000000E+00 0. -1.
         21   -1    0    0  501  502  0.00000000000E+00 -0.00000000000E+00 -0.15945716677E+02  0.15945716677E+02  0.00000000000E+00 0. -1.
         21    1    1    2  503  502  0.14750114010E+02 -0.15337908556E+02 -0.80849965478E+01  0.22763665596E+02  0.00000000000E+00 0. -1.
          1    1    1    2  501    0 -0.14750114010E+02  0.15337908556E+02  0.21660069127E+03  0.21764346248E+03  0.00000000000E+00 0. -1.
<mgrwt>
<rscale>  2 0.21279504E+02</rscale>
<asrwt>0</asrwt>
<pdfrwt beam="2">  1       21 0.24531874E-02 0.21279504E+02</pdfrwt>
<pdfrwt beam="1">  1        1 0.34532522E-01 0.21279504E+02</pdfrwt>
<totfact> 0.90480770E+05</totfact>
</mgrwt>
</event>
<event>
 4    1  0.2260076E+006  0.2026446E+02  0.7546771E-02  0.1740120E+00
         21   -1    0    0  503  502  0.00000000000E+00  0.00000000000E+00  0.28288478008E+03  0.28288478008E+03  0.00000000000E+00 0. -1.
          1   -1    0    0  502    0 -0.00000000000E+00 -0.00000000000E+00 -0.33167804955E+01  0.33167804955E+01  0.00000000000E+00 0.  1.
         21    1    1    2  503  501  0.54748698400E+01 -0.19510867776E+02  0.24709367430E+03  0.24792323820E+03  0.00000000000E+00 0. -1.
          1    1    1    2  501    0 -0.54748698400E+01  0.19510867776E+02  0.32474325286E+02  0.38278322376E+02  0.00000000000E+00 0.  1.
<mgrwt>
<rscale>  2 0.20264456E+02</rscale>
<asrwt>0</asrwt>
<pdfrwt beam="1">  1       21 0.43520717E-01 0.20264456E+02</pdfrwt>
<pdfrwt beam="2">  1        1 0.51027414E-03 0.20264456E+02</pdfrwt>
<totfact> 0.15041984E+06</totfact>
</mgrwt>
</event>
<event>
 4    1  0.2260076E+006  0.2567410E+02  0.7546771E-02  0.1651504E+00
          3   -1    0    0  503    0 -0.00000000000E+00  0.00000000000E+00  0.45916940090E+02  0.45916940090E+02  0.00000000000E+00 0.  1.
         21   -1    0    0  501  502  0.00000000000E+00 -0.00000000000E+00 -0.25678230751E+02  0.25678230751E+02  0.00000000000E+00 0.  1.
         21    1    1    2  503  502  0.25280910094E+02 -0.44760454969E+01 -0.13651636535E+02  0.29077939724E+02  0.00000000000E+00 0.  1.
          3    1    1    2  501    0 -0.25280910094E+02  0.44760454969E+01  0.33890345874E+02  0.42517231118E+02  0.00000000000E+00 0.  1.
<mgrwt>
<rscale>  2 0.25674100E+02</rscale>
<asrwt>0</asrwt>
<pdfrwt beam="2">  1       21 0.39504970E-02 0.25674100E+02</pdfrwt>
<pdfrwt beam="1">  1        3 0.70641446E-02 0.25674100E+02</pdfrwt>
<totfact> 0.15792401E+06</totfact>
</mgrwt>
</event>
<event>
 4    1  0.2260076E+006  0.5535743E+02  0.7546771E-02  0.1418416E+00
          2   -1    0    0  502    0 -0.00000000000E+00  0.00000000000E+00  0.18413235418E+03  0.18413235418E+03  0.00000000000E+00 0. -1.
         21   -1    0    0  503  502  0.00000000000E+00 -0.00000000000E+00 -0.21071805610E+04  0.21071805610E+04  0.00000000000E+00 0.  1.
         21    1    1    2  503  501 -0.26821678478E+01 -0.55292417375E+02 -0.21026473647E+04  0.21033759497E+04  0.00000000000E+00 0.  1.
          2    1    1    2  501    0  0.26821678478E+01  0.55292417375E+02  0.17959915794E+03  0.18793696543E+03  0.00000000000E+00 0. -1.
<mgrwt>
<rscale>  2 0.55357433E+02</rscale>
<asrwt>0</asrwt>
<pdfrwt beam="2">  1       21 0.32418162E+00 0.55357433E+02</pdfrwt>
<pdfrwt beam="1">  1        2 0.28328055E-01 0.55357433E+02</pdfrwt>
<totfact> 0.78898312E+01</totfact>
</mgrwt>
</event>
<event>
 4    1  0.2260076E+006  0.2051277E+02  0.7546771E-02  0.1735319E+00
         -1   -1    0    0    0  501 -0.00000000000E+00  0.00000000000E+00  0.20264813581E+03  0.20264813581E+03  0.00000000000E+00 0.  1.
         21   -1    0    0  501  502  0.00000000000E+00 -0.00000000000E+00 -0.29563501903E+01  0.29563501903E+01  0.00000000000E+00 0.  1.
         21    1    1    2  503  502  0.19417329300E+02  0.66137161062E+01  0.43759257720E+02  0.48328527331E+02  0.00000000000E+00 0.  1.
         -1    1    1    2    0  503 -0.19417329300E+02 -0.66137161062E+01  0.15593252790E+03  0.15727595867E+03  0.00000000000E+00 0.  1.
<mgrwt>
<rscale>  2 0.20512775E+02</rscale>
<asrwt>0</asrwt>
<pdfrwt beam="2">  1       21 0.45482327E-03 0.20512775E+02</pdfrwt>
<pdfrwt beam="1">  1       -1 0.31176625E-01 0.20512775E+02</pdfrwt>
<totfact> 0.70563073E+06</totfact>
</mgrwt>
</event>
<event>
 4    1  0.2260076E+006  0.2155467E+02  0.7546771E-02  0.1716070E+00
         21   -1    0    0  501  502  0.00000000000E+00  0.00000000000E+00  0.48181811737E+01  0.48181811737E+01  0.00000000000E+00 0. -1.
         -1   -1    0    0    0  501 -0.00000000000E+00 -0.00000000000E+00 -0.87025223669E+03  0.87025223669E+03  0.00000000000E+00 0. -1.
         21    1    1    2  503  502  0.70353741447E+01  0.20374180690E+02 -0.20133560912E+02  0.29495152198E+02  0.00000000000E+00 0. -1.
         -1    1    1    2    0  503 -0.70353741447E+01 -0.20374180690E+02 -0.84530049460E+03  0.84557526566E+03  0.00000000000E+00 0. -1.
<mgrwt>
<rscale>  2 0.21554668E+02</rscale>
<asrwt>0</asrwt>
<pdfrwt beam="1">  1       21 0.74125840E-03 0.21554668E+02</pdfrwt>
<pdfrwt beam="2">  1       -1 0.13388500E+00 0.21554668E+02</pdfrwt>
<totfact> 0.22734879E+05</totfact>
</mgrwt>
</event>
<event>
 4    1  0.2260076E+006  0.2002821E+02  0.7546771E-02  0.1744768E+00
         21   -1    0    0  503  502  0.00000000000E+00  0.00000000000E+00  0.10469164451E+03  0.10469164451E+03  0.00000000000E+00 0. -1.
         -2   -1    0    0    0  501 -0.00000000000E+00 -0.00000000000E+00 -0.67311848135E+01  0.67311848135E+01  0.00000000000E+00 0. -1.
         21    1    1    2  503  501 -0.77696925530E+01 -0.18459716062E+02  0.85545731384E+02  0.87858985867E+02  0.00000000000E+00 0. -1.
         -2    1    1    2    0  502  0.77696925530E+01  0.18459716062E+02  0.12414728316E+02  0.23563843460E+02  0.00000000000E+00 0. -1.
<mgrwt>
<rscale>  2 0.20028211E+02</rscale>
<asrwt>0</asrwt>
<pdfrwt beam="1">  1       21 0.16106406E-01 0.20028211E+02</pdfrwt>
<pdfrwt beam="2">  1       -2 0.10355670E-02 0.20028211E+02</pdfrwt>
<totfact> 0.33754013E+06</totfact>
</mgrwt>
</event>
<event>
 4    1  0.2260076E+006  0.2382577E+02  0.7546771E-02  0.1678464E+00
          2   -1    0    0  502    0 -0.00000000000E+00  0.00000000000E+00  0.85264085991E+01  0.85264085991E+01  0.00000000000E+00 0. -1.
         21   -1    0    0  503  502  0.00000000000E+00 -0.00000000000E+00 -0.17677506898E+03  0.17677506898E+03  0.00000000000E+00 0.  1.
         21    1    1    2  503  501  0.15554566634E+02 -0.18047795696E+02 -0.15727600426E+03  0.15907045291E+03  0.00000000000E+00 0.  1.
          2    1    1    2  501    0 -0.15554566634E+02  0.18047795696E+02 -0.10972656114E+02  0.26231024663E+02  0.00000000000E+00 0. -1.
<mgrwt>
<rscale>  2 0.23825773E+02</rscale>
<asrwt>0</asrwt>
<pdfrwt beam="2">  1       21 0.27196165E-01 0.23825773E+02</pdfrwt>
<pdfrwt beam="1">  1        2 0.13117552E-02 0.23825773E+02</pdfrwt>
<totfact> 0.10994099E+06</totfact>
</mgrwt>
</event>
<event>
 4    1  0.2260076E+006  0.3416964E+02  0.7546771E-02  0.1556100E+00
          2   -1    0    0  502    0 -0.00000000000E+00  0.00000000000E+00  0.11231895758E+04  0.11231895758E+04  0.00000000000E+00 0.  1.
         21   -1    0    0  503  502  0.00000000000E+00 -0.00000000000E+00 -0.40526363436E+01  0.40526363436E+01  0.00000000000E+00 0. -1.
         21    1    1    2  503  501  0.32607618856E+02 -0.10213106014E+02  0.73578552416E+02  0.81125629228E+02  0.00000000000E+00 0. -1.
          2    1    1    2  501    0 -0.32607618856E+02  0.10213106014E+02  0.10455583870E+04  0.10461165829E+04  0.00000000000E+00 0.  1.
<mgrwt>
<rscale>  2 0.34169641E+02</rscale>
<asrwt>0</asrwt>
<pdfrwt beam="2">  1       21 0.62348341E-03 0.34169641E+02</pdfrwt>
<pdfrwt beam="1">  1        2 0.17279815E+00 0.34169641E+02</pdfrwt>
<totfact> 0.18809733E+06</totfact>
</mgrwt>
</event>
<event>
 4    1  0.2260076E+006  0.2301075E+02  0.7546771E-02  0.1691336E+00
          4   -1    0    0  503    0 -0.00000000000E+00  0.00000000000E+00  0.18317664353E+02  0.18317664353E+02  0.00000000000E+00 0. -1.
         21   -1    0    0  501  502  0.00000000000E+00 -0.00000000000E+00 -0.33019003669E+03  0.33019003669E+03  0.00000000000E+00 0. -1.
         21    1    1    2  503  502 -0.22846588562E+02 -0.27437443061E+01 -0.32238790779E+03  0.32320807204E+03  0.00000000000E+00 0. -1.
          4    1    1    2  501    0  0.22846588562E+02  0.27437443061E+01  0.10515535456E+02  0.25299629002E+02  0.00000000000E+00 0. -1.
<mgrwt>
<rscale>  2 0.23010753E+02</rscale>
<asrwt>0</asrwt>
<pdfrwt beam="2">  1       21 0.50798460E-01 0.23010753E+02</pdfrwt>
<pdfrwt beam="1">  1        4 0.28181026E-02 0.23010753E+02</pdfrwt>
<totfact> 0.63844062E+04</totfact>
</mgrwt>
</event>
<event>
 4    1  0.2260076E+006  0.3687888E+02  0.7546771E-02  0.1532522E+00
         21   -1    0    0  501  502  0.00000000000E+00  0.00000000000E+00  0.10443141627E+03  0.10443141627E+03  0.00000000000E+00 0. -1.
         -1   -1    0    0    0  501 -0.00000000000E+00 -0.00000000000E+00 -0.26029332175E+03  0.26029332175E+03  0.00000000000E+00 0. -1.
         21    1    1    2  503  502  0.19129709416E+02  0.31529448785E+02  0.99810759574E+02  0.10640601322E+03  0.00000000000E+00 0. -1.
         -1    1    1    2    0  503 -0.19129709416E+02 -0.31529448785E+02 -0.25567266505E+03  0.25831872479E+03  0.00000000000E+00 0. -1.
<mgrwt>
<rscale>  2 0.36878882E+02</rscale>
<asrwt>0</asrwt>
<pdfrwt beam="1">  1       21 0.16066372E-01 0.36878882E+02</pdfrwt>
<pdfrwt beam="2">  1       -1 0.40045126E-01 0.36878882E+02</pdfrwt>
<totfact> 0.18969884E+04</totfact>
</mgrwt>
</event>
<event>
 4    1  0.2260076E+006  0.3737372E+02  0.7546771E-02  0.1528478E+00
          1   -1    0    0  503    0 -0.00000000000E+00  0.00000000000E+00  0.56666377251E+02  0.56666377251E+02  0.00000000000E+00 0. -1.
         21   -1    0    0  501  502  0.00000000000E+00 -0.00000000000E+00 -0.31777942361E+02  0.31777942361E+02  0.00000000000E+00 0. -1.
         21    1    1    2  503  502 -0.63485887569E+01  0.36830564430E+02 -0.85005670052E+01  0.38328249306E+02  0.00000000000E+00 0. -1.
          1    1    1    2  501    0  0.63485887569E+01 -0.36830564430E+02  0.33389001895E+02  0.50116070307E+02  0.00000000000E+00 0. -1.
<mgrwt>
<rscale>  2 0.37373721E+02</rscale>
<asrwt>0</asrwt>
<pdfrwt beam="2">  1       21 0.48889142E-02 0.37373721E+02</pdfrwt>
<pdfrwt beam="1">  1        1 0.87179042E-02 0.37373721E+02</pdfrwt>
<totfact> 0.18120951E+06</totfact>
</mgrwt>
</event>
<event>
 4    1  0.2260076E+006  0.2277015E+02  0.7546771E-02  0.1695263E+00
         21   -1    0    0  501  502  0.00000000000E+00  0.00000000000E+00  0.27097146031E+01  0.27097146031E+01  0.00000000000E+00 0. -1.
          1   -1    0    0  503    0 -0.00000000000E+00 -0.00000000000E+00 -0.14490928823E+04  0.14490928823E+04  0.00000000000E+00 0.  1.
         21    1    1    2  503  502  0.22755628696E+02  0.81319857478E+00 -0.46910994666E+02  0.52145194887E+02  0.00000000000E+00 0. -1.
          1    1    1    2  501    0 -0.22755628696E+02 -0.81319857478E+00 -0.13994721730E+04  0.13996574020E+04  0.00000000000E+00 0.  1.
<mgrwt>
<rscale>  2 0.22770154E+02</rscale>
<asrwt>0</asrwt>
<pdfrwt beam="1">  1       21 0.41687993E-03 0.22770154E+02</pdfrwt>
<pdfrwt beam="2">  1        1 0.22293696E+00 0.22770154E+02</pdfrwt>
<totfact> 0.10720595E+06</totfact>
</mgrwt>
</event>
<event>
 4    1  0.2260076E+006  0.2032897E+02  0.7546771E-02  0.1738864E+00
         21   -1    0    0  501  502  0.00000000000E+00  0.00000000000E+00  0.58144368092E+03  0.58144368092E+03  0.00000000000E+00 0. -1.
          3   -1    0    0  503    0 -0.00000000000E+00 -0.00000000000E+00 -0.21677030868E+01  0.21677030868E+01  0.00000000000E+00 0. -1.
         21    1    1    2  503  502 -0.19815746541E+02  0.45390980358E+01  0.52886767741E+03  0.52925824266E+03  0.00000000000E+00 0. -1.
          3    1    1    2  501    0  0.19815746541E+02 -0.45390980358E+01  0.50408300424E+02  0.54353141340E+02  0.00000000000E+00 0. -1.
<mgrwt>
<rscale>  2 0.20328975E+02</rscale>
<asrwt>0</asrwt>
<pdfrwt beam="1">  1       21 0.89452750E-01 0.20328975E+02</pdfrwt>
<pdfrwt beam="2">  1        3 0.33349325E-03 0.20328975E+02</pdfrwt>
<totfact> 0.48345503E+05</totfact>
</mgrwt>
</event>
<event>
 4    1  0.2260076E+006  0.2043813E+02  0.7546771E-02  0.1736753E+00
         -3   -1    0    0    0  501 -0.00000000000E+00  0.00000000000E+00  0.21502157106E+03  0.21502157106E+03  0.00000000000E+00 0. -1.
         21   -1    0    0  503  502  0.00000000000E+00 -0.00000000000E+00 -0.19471673019E+02  0.19471673019E+02  0.00000000000E+00 0.  1.
         21    1    1    2  503  501 -0.16220213772E+02 -0.12434697665E+02 -0.13469218556E+02  0.24477272915E+02  0.00000000000E+00 0.  1.
         -3    1    1    2    0  502  0.16220213772E+02  0.12434697665E+02  0.20901911660E+03  0.21001597117E+03  0.00000000000E+00 0. -1.
<mgrwt>
<rscale>  2 0.20438127E+02</rscale>
<asrwt>0</asrwt>
<pdfrwt beam="2">  1       21 0.29956422E-02 0.20438127E+02</pdfrwt>
<pdfrwt beam="1">  1       -3 0.33080240E-01 0.20438127E+02</pdfrwt>
<totfact> 0.17952801E+05</totfact>
</mgrwt>
</event>
<event>
 4    1  0.2260076E+006  0.4834936E+02  0.7546771E-02  0.1454454E+00
         21   -1    0    0  503  502  0.00000000000E+00  0.00000000000E+00  0.10501456830E+03  0.10501456830E+03  0.00000000000E+00 0.  1.
          3   -1    0    0  502    0 -0.00000000000E+00 -0.00000000000E+00 -0.39876076461E+02  0.39876076461E+02  0.00000000000E+00 0.  1.
         21    1    1    2  503  501  0.30374266038E+02 -0.37617346729E+02  0.80720149977E+02  0.94092525870E+02  0.00000000000E+00 0.  1.
          3    1    1    2  501    0 -0.30374266038E+02  0.37617346729E+02 -0.15581658140E+02  0.50798118889E+02  0.00000000000E+00 0.  1.
<mgrwt>
<rscale>  2 0.48349362E+02</rscale>
<asrwt>0</asrwt>
<pdfrwt beam="1">  1       21 0.16156087E-01 0.48349362E+02</pdfrwt>
<pdfrwt beam="2">  1        3 0.61347810E-02 0.48349362E+02</pdfrwt>
<totfact> 0.22460588E+05</totfact>
</mgrwt>
</event>
<event>
 4    1  0.2260076E+006  0.2413730E+02  0.7546771E-02  0.1673711E+00
         -3   -1    0    0    0  501 -0.00000000000E+00  0.00000000000E+00  0.12898653309E+03  0.12898653309E+03  0.00000000000E+00 0.  1.
         21   -1    0    0  503  502  0.00000000000E+00 -0.00000000000E+00 -0.45984723573E+02  0.45984723573E+02  0.00000000000E+00 0. -1.
         21    1    1    2  503  501 -0.21408516544E+02 -0.11148307361E+02 -0.41577079307E+02  0.48075595278E+02  0.00000000000E+00 0. -1.
         -3    1    1    2    0  502  0.21408516544E+02  0.11148307361E+02  0.12457888882E+03  0.12689566138E+03  0.00000000000E+00 0.  1.
<mgrwt>
<rscale>  2 0.24137302E+02</rscale>
<asrwt>0</asrwt>
<pdfrwt beam="2">  1       21 0.70745729E-02 0.24137302E+02</pdfrwt>
<pdfrwt beam="1">  1       -3 0.19844082E-01 0.24137302E+02</pdfrwt>
<totfact> 0.11658330E+05</totfact>
</mgrwt>
</event>
<event>
 4    1  0.2260076E+006  0.3436769E+02  0.7546771E-02  0.1554288E+00
         21   -1    0    0  501  502  0.00000000000E+00  0.00000000000E+00  0.15647035932E+01  0.15647035932E+01  0.00000000000E+00 0. -1.
          2   -1    0    0  503    0 -0.00000000000E+00 -0.00000000000E+00 -0.25656569623E+04  0.25656569623E+04  0.00000000000E+00 0.  1.
         21    1    1    2  503  502 -0.27185691420E+02 -0.21025616495E+02 -0.20367443052E+03  0.20655365408E+03  0.00000000000E+00 0. -1.
          2    1    1    2  501    0  0.27185691420E+02  0.21025616495E+02 -0.23604178282E+04  0.23606680118E+04  0.00000000000E+00 0.  1.
<mgrwt>
<rscale>  2 0.34367694E+02</rscale>
<asrwt>0</asrwt>
<pdfrwt beam="1">  1       21 0.24072732E-03 0.34367694E+02</pdfrwt>
<pdfrwt beam="2">  1        2 0.39471040E+00 0.34367694E+02</pdfrwt>
<totfact> 0.15273175E+06</totfact>
</mgrwt>
</event>
<event>
 4    1  0.2260076E+006  0.2659240E+02  0.7546771E-02  0.1639130E+00
         21   -1    0    0  501  502  0.00000000000E+00  0.00000000000E+00  0.66393191111E+03  0.66393191111E+03  0.00000000000E+00 0.  1.
          1   -1    0    0  503    0 -0.00000000000E+00 -0.00000000000E+00 -0.42525939307E+01  0.42525939307E+01  0.00000000000E+00 0. -1.
         21    1    1    2  503  502 -0.25729634509E+02 -0.67187429934E+01  0.61908338883E+03  0.61965425676E+03  0.00000000000E+00 0.  1.
          1    1    1    2  501    0  0.25729634509E+02  0.67187429934E+01  0.40595928353E+02  0.48530248281E+02  0.00000000000E+00 0. -1.
<mgrwt>
<rscale>  2 0.26592397E+02</rscale>
<asrwt>0</asrwt>
<pdfrwt beam="1">  1       21 0.10214329E+00 0.26592397E+02</pdfrwt>
<pdfrwt beam="2">  1        1 0.65424575E-03 0.26592397E+02</pdfrwt>
<totfact> 0.20013707E+05</totfact>
</mgrwt>
</event>
<event>
 4    1  0.2260076E+006  0.3277869E+02  0.7546771E-02  0.1569260E+00
         -4   -1    0    0    0  501 -0.00000000000E+00  0.00000000000E+00  0.11933528484E+03  0.11933528484E+03  0.00000000000E+00 0. -1.
         21   -1    0    0  501  502  0.00000000000E+00 -0.00000000000E+00 -0.11619757975E+02  0.11619757975E+02  0.00000000000E+00 0. -1.
         21    1    1    2  503  502 -0.28720468748E+02  0.15798002669E+02  0.22788631420E+02  0.39921973091E+02  0.00000000000E+00 0. -1.
         -4    1    1    2    0  503  0.28720468748E+02 -0.15798002669E+02  0.84926895450E+02  0.91033069729E+02  0.00000000000E+00 0. -1.
<mgrwt>
<rscale>  2 0.32778685E+02</rscale>
<asrwt>0</asrwt>
<pdfrwt beam="2">  1       21 0.17876551E-02 0.32778685E+02</pdfrwt>
<pdfrwt beam="1">  1       -4 0.18359274E-01 0.32778685E+02</pdfrwt>
<totfact> 0.10441350E+06</totfact>
</mgrwt>
</event>
<event>
 4    1  0.2260076E+006  0.3237442E+02  0.7546771E-02  0.1573234E+00
         -2   -1    0    0    0  501 -0.00000000000E+00  0.00000000000E+00  0.19148990619E+04  0.19148990619E+04  0.00000000000E+00 0. -1.
         21   -1    0    0  503  502  0.00000000000E+00 -0.00000000000E+00 -0.23872546490E+01  0.23872546490E+01  0.00000000000E+00 0.  1.
         21    1    1    2  503  501 -0.23658902659E+02 -0.22098861450E+02  0.11465481663E+03  0.11913786270E+03  0.00000000000E+00 0.  1.
         -2    1    1    2    0  502  0.23658902659E+02  0.22098861450E+02  0.17978569906E+04  0.17981484539E+04  0.00000000000E+00 0. -1.
<mgrwt>
<rscale>  2 0.32374424E+02</rscale>
<asrwt>0</asrwt>
<pdfrwt beam="2">  1       21 0.36727148E-03 0.32374424E+02</pdfrwt>
<pdfrwt beam="1">  1       -2 0.29459863E+00 0.32374424E+02</pdfrwt>
<totfact> 0.52948815E+04</totfact>
</mgrwt>
</event>
<event>
 4    1  0.2260076E+006  0.2549044E+02  0.7546771E-02  0.1654056E+00
         21   -1    0    0  501  502  0.00000000000E+00  0.00000000000E+00  0.55157687588E+01  0.55157687588E+01  0.00000000000E+00 0.  1.
          2   -1    0    0  503    0 -0.00000000000E+00 -0.00000000000E+00 -0.47872566244E+03  0.47872566244E+03  0.00000000000E+00 0.  1.
         21    1    1    2  503  502 -0.18105660254E+02  0.17942903430E+02 -0.26373870867E+02  0.36678928300E+02  0.00000000000E+00 0.  1.
          2    1    1    2  501    0  0.18105660254E+02 -0.17942903430E+02 -0.44683602281E+03  0.44756250290E+03  0.00000000000E+00 0.  1.
<mgrwt>
<rscale>  2 0.25490444E+02</rscale>
<asrwt>0</asrwt>
<pdfrwt beam="1">  1       21 0.84858006E-03 0.25490444E+02</pdfrwt>
<pdfrwt beam="2">  1        2 0.73650080E-01 0.25490444E+02</pdfrwt>
<totfact> 0.29664133E+06</totfact>
</mgrwt>
</event>
<event>
 4    1  0.2260076E+006  0.2222813E+02  0.7546771E-02  0.1704336E+00
         -1   -1    0    0    0  501 -0.00000000000E+00  0.00000000000E+00  0.42887078151E+03  0.42887078151E+03  0.00000000000E+00 0.  1.
         21   -1    0    0  501  502  0.00000000000E+00 -0.00000000000E+00 -0.11166240437E+02  0.11166240437E+02  0.00000000000E+00 0. -1.
         21    1    1    2  503  502  0.19226448301E+02  0.11154973593E+02  0.49282494433E+00  0.22233592300E+02  0.00000000000E+00 0. -1.
         -1    1    1    2    0  503 -0.19226448301E+02 -0.11154973593E+02  0.41721171613E+03  0.41780342965E+03  0.00000000000E+00 0.  1.
<mgrwt>
<rscale>  2 0.22228130E+02</rscale>
<asrwt>0</asrwt>
<pdfrwt beam="2">  1       21 0.17178835E-02 0.22228130E+02</pdfrwt>
<pdfrwt beam="1">  1       -1 0.65980108E-01 0.22228130E+02</pdfrwt>
<totfact> 0.27662381E+05</totfact>
</mgrwt>
</event>
<event>
 4    1  0.2260076E+006  0.2359452E+02  0.7546771E-02  0.1682050E+00
          1   -1    0    0  503    0 -0.00000000000E+00  0.00000000000E+00  0.11332307982E+02  0.11332307982E+02  0.00000000000E+00 0. -1.
         21   -1    0    0  501  502  0.00000000000E+00 -0.00000000000E+00 -0.53315949211E+02  0.53315949211E+02  0.00000000000E+00 0. -1.
         21    1    1    2  503  502 -0.58743149162E+01  0.22851561661E+02 -0.11929359700E+02  0.26438817465E+02  0.00000000000E+00 0. -1.
          1    1    1    2  501    0  0.58743149162E+01 -0.22851561661E+02 -0.30054281530E+02  0.38209439728E+02  0.00000000000E+00 0. -1.
<mgrwt>
<rscale>  2 0.23594522E+02</rscale>
<asrwt>0</asrwt>
<pdfrwt beam="2">  1       21 0.82024539E-02 0.23594522E+02</pdfrwt>
<pdfrwt beam="1">  1        1 0.17434320E-02 0.23594522E+02</pdfrwt>
<totfact> 0.57008452E+06</totfact>
</mgrwt>
</event>
<event>
 4    1  0.2260076E+006  0.3572565E+02  0.7546771E-02  0.1542249E+00
          2   -1    0    0  503    0 -0.00000000000E+00  0.00000000000E+00  0.14309583222E+04  0.14309583222E+04  0.00000000000E+00 0. -1.
         21   -1    0    0  501  502  0.00000000000E+00 -0.00000000000E+00 -0.14727433776E+01  0.14727433776E+01  0.00000000000E+00 0. -1.
         21    1    1    2  503  502 -0.30789072303E+02  0.18120572924E+02  0.26496651041E+03  0.26736412208E+03  0.00000000000E+00 0. -1.
          2    1    1    2  501    0  0.30789072303E+02 -0.18120572924E+02  0.11645190684E+04  0.11650669435E+04  0.00000000000E+00 0. -1.
<mgrwt>
<rscale>  2 0.35725651E+02</rscale>
<asrwt>0</asrwt>
<pdfrwt beam="2">  1       21 0.22657705E-03 0.35725651E+02</pdfrwt>
<pdfrwt beam="1">  1        2 0.22014632E+00 0.35725651E+02</pdfrwt>
<totfact> 0.59471518E+06</totfact>
</mgrwt>
</event>
<event>
 4    1  0.2260076E+006  0.2641045E+02  0.7546771E-02  0.1641532E+00
          2   -1    0    0  502    0 -0.00000000000E+00  0.00000000000E+00  0.19322516582E+03  0.19322516582E+03  0.00000000000E+00 0.  1.
         21   -1    0    0  503  502  0.00000000000E+00 -0.00000000000E+00 -0.58566701667E+01  0.58566701667E+01  0.00000000000E+00 0.  1.
         21    1    1    2  503  501  0.15451883094E+02 -0.21418483342E+02  0.32030243594E+02  0.41514438748E+02  0.00000000000E+00 0.  1.
          2    1    1    2  501    0 -0.15451883094E+02  0.21418483342E+02  0.15533825205E+03  0.15756739723E+03  0.00000000000E+00 0.  1.
<mgrwt>
<rscale>  2 0.26410455E+02</rscale>
<asrwt>0</asrwt>
<pdfrwt beam="2">  1       21 0.90102633E-03 0.26410455E+02</pdfrwt>
<pdfrwt beam="1">  1        2 0.29726944E-01 0.26410455E+02</pdfrwt>
<totfact> 0.67644204E+06</totfact>
</mgrwt>
</event>
<event>
 4    1  0.2260076E+006  0.2287002E+02  0.7546771E-02  0.1693626E+00
          2   -1    0    0  503    0 -0.00000000000E+00  0.00000000000E+00  0.19094248477E+03  0.19094248477E+03  0.00000000000E+00 0.  1.
         21   -1    0    0  501  502  0.00000000000E+00 -0.00000000000E+00 -0.80544485753E+01  0.80544485753E+01  0.00000000000E+00 0. -1.
         21    1    1    2  503  502  0.34966307605E+01 -0.22601135337E+02  0.10616630871E+02  0.25214095190E+02  0.00000000000E+00 0. -1.
          2    1    1    2  501    0 -0.34966307605E+01  0.22601135337E+02  0.17227140532E+03  0.17378283816E+03  0.00000000000E+00 0.  1.
<mgrwt>
<rscale>  2 0.22870018E+02</rscale>
<asrwt>0</asrwt>
<pdfrwt beam="2">  1       21 0.12391461E-02 0.22870018E+02</pdfrwt>
<pdfrwt beam="1">  1        2 0.29375763E-01 0.22870018E+02</pdfrwt>
<totfact> 0.40822826E+06</totfact>
</mgrwt>
</event>
<event>
 4    1  0.2260076E+006  0.2417180E+02  0.7546771E-02  0.1673191E+00
         21   -1    0    0  503  502  0.00000000000E+00  0.00000000000E+00  0.27581143260E+02  0.27581143260E+02  0.00000000000E+00 0.  1.
         -2   -1    0    0    0  501 -0.00000000000E+00 -0.00000000000E+00 -0.62355998899E+02  0.62355998899E+02  0.00000000000E+00 0. -1.
         21    1    1    2  503  501  0.22214668999E+02 -0.95280819940E+01  0.19152823604E+02  0.30840014871E+02  0.00000000000E+00 0.  1.
         -2    1    1    2    0  502 -0.22214668999E+02  0.95280819940E+01 -0.53927679243E+02  0.59097127289E+02  0.00000000000E+00 0. -1.
<mgrwt>
<rscale>  2 0.24171799E+02</rscale>
<asrwt>0</asrwt>
<pdfrwt beam="1">  1       21 0.42432529E-02 0.24171799E+02</pdfrwt>
<pdfrwt beam="2">  1       -2 0.95932305E-02 0.24171799E+02</pdfrwt>
<totfact> 0.13999455E+06</totfact>
</mgrwt>
</event>
<event>
 4    1  0.2260076E+006  0.2399740E+02  0.7546771E-02  0.1675835E+00
          1   -1    0    0  502    0 -0.00000000000E+00  0.00000000000E+00  0.36107736203E+03  0.36107736203E+03  0.00000000000E+00 0. -1.
         21   -1    0    0  503  502  0.00000000000E+00 -0.00000000000E+00 -0.20289208092E+02  0.20289208092E+02  0.00000000000E+00 0. -1.
         21    1    1    2  503  501 -0.23651670592E+02 -0.40587800682E+01 -0.12641284954E+02  0.27123371891E+02  0.00000000000E+00 0. -1.
          1    1    1    2  501    0  0.23651670592E+02  0.40587800682E+01  0.35342943889E+03  0.35424319823E+03  0.00000000000E+00 0. -1.
<mgrwt>
<rscale>  2 0.23997400E+02</rscale>
<asrwt>0</asrwt>
<pdfrwt beam="2">  1       21 0.31214169E-02 0.23997400E+02</pdfrwt>
<pdfrwt beam="1">  1        1 0.55550359E-01 0.23997400E+02</pdfrwt>
<totfact> 0.36785392E+05</totfact>
</mgrwt>
</event>
<event>
 4    1  0.2260076E+006  0.2611003E+02  0.7546771E-02  0.1645552E+00
         21   -1    0    0  501  502  0.00000000000E+00  0.00000000000E+00  0.72016161073E+03  0.72016161073E+03  0.00000000000E+00 0.  1.
         -1   -1    0    0    0  501 -0.00000000000E+00 -0.00000000000E+00 -0.11290145285E+01  0.11290145285E+01  0.00000000000E+00 0.  1.
         21    1    1    2  503  502  0.29672316199E+01  0.25940878095E+02  0.50446452075E+03  0.50513976909E+03  0.00000000000E+00 0.  1.
         -1    1    1    2    0  503 -0.29672316199E+01 -0.25940878095E+02  0.21456807545E+03  0.21615085617E+03  0.00000000000E+00 0.  1.
<mgrwt>
<rscale>  2 0.26110029E+02</rscale>
<asrwt>0</asrwt>
<pdfrwt beam="1">  1       21 0.11079373E+00 0.26110029E+02</pdfrwt>
<pdfrwt beam="2">  1       -1 0.17369512E-03 0.26110029E+02</pdfrwt>
<totfact> 0.96288536E+05</totfact>
</mgrwt>
</event>
<event>
 4    1  0.2260076E+006  0.2772448E+02  0.7546771E-02  0.1624695E+00
         21   -1    0    0  501  502  0.00000000000E+00  0.00000000000E+00  0.51042938502E+03  0.51042938502E+03  0.00000000000E+00 0.  1.
         -2   -1    0    0    0  501 -0.00000000000E+00 -0.00000000000E+00 -0.11403474823E+03  0.11403474823E+03  0.00000000000E+00 0.  1.
         21    1    1    2  503  502 -0.20057293948E+02  0.19140318025E+02  0.50836094762E+03  0.50911639129E+03  0.00000000000E+00 0.  1.
         -2    1    1    2    0  503  0.20057293948E+02 -0.19140318025E+02 -0.11196631083E+03  0.11534774196E+03  0.00000000000E+00 0.  1.
<mgrwt>
<rscale>  2 0.27724480E+02</rscale>
<asrwt>0</asrwt>
<pdfrwt beam="1">  1       21 0.78527596E-01 0.27724480E+02</pdfrwt>
<pdfrwt beam="2">  1       -2 0.17543808E-01 0.27724480E+02</pdfrwt>
<totfact> 0.31802657E+03</totfact>
</mgrwt>
</event>
<event>
 4    1  0.2260076E+006  0.2121030E+02  0.7546771E-02  0.1722279E+00
         21   -1    0    0  501  502  0.00000000000E+00  0.00000000000E+00  0.19744071045E+02  0.19744071045E+02  0.00000000000E+00 0.  1.
          2   -1    0    0  503    0 -0.00000000000E+00 -0.00000000000E+00 -0.28409694798E+03  0.28409694798E+03  0.00000000000E+00 0. -1.
         21    1    1    2  503  502 -0.22429349880E+01  0.21091370198E+02  0.13524524258E+02  0.25155305814E+02  0.00000000000E+00 0.  1.
          2    1    1    2  501    0  0.22429349880E+01 -0.21091370198E+02 -0.27787740119E+03  0.27868571321E+03  0.00000000000E+00 0. -1.
<mgrwt>
<rscale>  2 0.21210296E+02</rscale>
<asrwt>0</asrwt>
<pdfrwt beam="1">  1       21 0.30375496E-02 0.21210296E+02</pdfrwt>
<pdfrwt beam="2">  1        2 0.43707220E-01 0.21210296E+02</pdfrwt>
<totfact> 0.68486627E+05</totfact>
</mgrwt>
</event>
<event>
 4    1  0.2260076E+006  0.2682998E+02  0.7546771E-02  0.1636028E+00
         21   -1    0    0  501  502  0.00000000000E+00  0.00000000000E+00  0.16268553117E+01  0.16268553117E+01  0.00000000000E+00 0.  1.
          1   -1    0    0  503    0 -0.00000000000E+00 -0.00000000000E+00 -0.44247843521E+03  0.44247843521E+03  0.00000000000E+00 0.  1.
         21    1    1    2  503  502 -0.57035279168E+01 -0.26216743052E+02 -0.22061912394E+03  0.22224456281E+03  0.00000000000E+00 0.  1.
          1    1    1    2  501    0  0.57035279168E+01  0.26216743052E+02 -0.22023245596E+03  0.22186072772E+03  0.00000000000E+00 0.  1.
<mgrwt>
<rscale>  2 0.26829980E+02</rscale>
<asrwt>0</asrwt>
<pdfrwt beam="1">  1       21 0.25028537E-03 0.26829980E+02</pdfrwt>
<pdfrwt beam="2">  1        1 0.68073621E-01 0.26829980E+02</pdfrwt>
<totfact> 0.13213808E+07</totfact>
</mgrwt>
</event>
<event>
 4    1  0.2260076E+006  0.2978502E+02  0.7546771E-02  0.1600477E+00
         21   -1    0    0  503  502  0.00000000000E+00  0.00000000000E+00  0.11070943885E+02  0.11070943885E+02  0.00000000000E+00 0.  1.
          2   -1    0    0  502    0 -0.00000000000E+00 -0.00000000000E+00 -0.10567013086E+04  0.10567013086E+04  0.00000000000E+00 0. -1.
         21    1    1    2  503  501  0.19784862841E+02  0.22264464515E+02 -0.95712292349E+01  0.31285070031E+02  0.00000000000E+00 0.  1.
          2    1    1    2  501    0 -0.19784862841E+02 -0.22264464515E+02 -0.10360591355E+04  0.10364871824E+04  0.00000000000E+00 0. -1.
<mgrwt>
<rscale>  2 0.29785016E+02</rscale>
<asrwt>0</asrwt>
<pdfrwt beam="1">  1       21 0.17032222E-02 0.29785016E+02</pdfrwt>
<pdfrwt beam="2">  1        2 0.16256942E+00 0.29785016E+02</pdfrwt>
<totfact> 0.43494318E+05</totfact>
</mgrwt>
</event>
<event>
 4    1  0.2260076E+006  0.2894885E+02  0.7546771E-02  0.1610007E+00
         21   -1    0    0  501  502  0.00000000000E+00  0.00000000000E+00  0.70444142699E+02  0.70444142699E+02  0.00000000000E+00 0.  1.
          1   -1    0    0  503    0 -0.00000000000E+00 -0.00000000000E+00 -0.98179696533E+03  0.98179696533E+03  0.00000000000E+00 0.  1.
         21    1    1    2  503  502 -0.85899857638E+01  0.27645033924E+02  0.67246920233E+02  0.73213277736E+02  0.00000000000E+00 0.  1.
          1    1    1    2  501    0  0.85899857638E+01 -0.27645033924E+02 -0.97859974286E+03  0.97902783029E+03  0.00000000000E+00 0.  1.
<mgrwt>
<rscale>  2 0.28948847E+02</rscale>
<asrwt>0</asrwt>
<pdfrwt beam="1">  1       21 0.10837560E-01 0.28948847E+02</pdfrwt>
<pdfrwt beam="2">  1        1 0.15104570E+00 0.28948847E+02</pdfrwt>
<totfact> 0.13724362E+04</totfact>
</mgrwt>
</event>
<event>
 4    1  0.2260076E+006  0.3573717E+02  0.7546771E-02  0.1542150E+00
         21   -1    0    0  503  502  0.00000000000E+00  0.00000000000E+00  0.13985722299E+03  0.13985722299E+03  0.00000000000E+00 0.  1.
         -1   -1    0    0    0  501 -0.00000000000E+00 -0.00000000000E+00 -0.10263114751E+02  0.10263114751E+02  0.00000000000E+00 0. -1.
         21    1    1    2  503  501  0.35712825896E+02  0.13187955669E+01  0.89718075244E+02  0.96573693006E+02  0.00000000000E+00 0.  1.
         -1    1    1    2    0  502 -0.35712825896E+02 -0.13187955669E+01  0.39876032999E+02  0.53546644741E+02  0.00000000000E+00 0. -1.
<mgrwt>
<rscale>  2 0.35737168E+02</rscale>
<asrwt>0</asrwt>
<pdfrwt beam="1">  1       21 0.21516494E-01 0.35737168E+02</pdfrwt>
<pdfrwt beam="2">  1       -1 0.15789408E-02 0.35737168E+02</pdfrwt>
<totfact> 0.13282177E+06</totfact>
</mgrwt>
</event>
<event>
 4    1  0.2260076E+006  0.2055113E+02  0.7546771E-02  0.1734585E+00
         -2   -1    0    0    0  501 -0.00000000000E+00  0.00000000000E+00  0.68054572263E+01  0.68054572263E+01  0.00000000000E+00 0.  1.
         21   -1    0    0  501  502  0.00000000000E+00 -0.00000000000E+00 -0.12687850971E+04  0.12687850971E+04  0.00000000000E+00 0. -1.
         21    1    1    2  503  502  0.20137223157E+02 -0.41038016316E+01 -0.12529912414E+04  0.12531597663E+04  0.00000000000E+00 0. -1.
         -2    1    1    2    0  503 -0.20137223157E+02  0.41038016316E+01 -0.89883985365E+01  0.22430788051E+02  0.00000000000E+00 0.  1.
<mgrwt>
<rscale>  2 0.20551130E+02</rscale>
<asrwt>0</asrwt>
<pdfrwt beam="2">  1       21 0.19519773E+00 0.20551130E+02</pdfrwt>
<pdfrwt beam="1">  1       -2 0.10469933E-02 0.20551130E+02</pdfrwt>
<totfact> 0.22076863E+04</totfact>
</mgrwt>
</event>
<event>
 4    1  0.2260076E+006  0.2960219E+02  0.7546771E-02  0.1602528E+00
         21   -1    0    0  503  502  0.00000000000E+00  0.00000000000E+00  0.20341591080E+02  0.20341591080E+02  0.00000000000E+00 0. -1.
          2   -1    0    0  502    0 -0.00000000000E+00 -0.00000000000E+00 -0.13882306980E+04  0.13882306980E+04  0.00000000000E+00 0.  1.
         21    1    1    2  503  501  0.47020793380E+01  0.29226358874E+02  0.93279902950E+01  0.31037090812E+02  0.00000000000E+00 0. -1.
          2    1    1    2  501    0 -0.47020793380E+01 -0.29226358874E+02 -0.13772170973E+04  0.13775351983E+04  0.00000000000E+00 0.  1.
<mgrwt>
<rscale>  2 0.29602189E+02</rscale>
<asrwt>0</asrwt>
<pdfrwt beam="1">  1       21 0.31294762E-02 0.29602189E+02</pdfrwt>
<pdfrwt beam="2">  1        2 0.21357391E+00 0.29602189E+02</pdfrwt>
<totfact> 0.11438474E+05</totfact>
</mgrwt>
</event>
<event>
 4    1  0.2260076E+006  0.2186947E+02  0.7546771E-02  0.1710519E+00
         21   -1    0    0  503  502  0.00000000000E+00  0.00000000000E+00  0.42823249414E+01  0.42823249414E+01  0.00000000000E+00 0.  1.
          3   -1    0    0  502    0 -0.00000000000E+00 -0.00000000000E+00 -0.38862207177E+03  0.38862207177E+03  0.00000000000E+00 0.  1.
         21    1    1    2  503  501  0.19286215542E+02  0.10310936626E+02 -0.26332148221E+02  0.34229454480E+02  0.00000000000E+00 0.  1.
          3    1    1    2  501    0 -0.19286215542E+02 -0.10310936626E+02 -0.35800759861E+03  0.35867494223E+03  0.00000000000E+00 0.  1.
<mgrwt>
<rscale>  2 0.21869466E+02</rscale>
<asrwt>0</asrwt>
<pdfrwt beam="1">  1       21 0.65881920E-03 0.21869466E+02</pdfrwt>
<pdfrwt beam="2">  1        3 0.59788013E-01 0.21869466E+02</pdfrwt>
<totfact> 0.60315767E+05</totfact>
</mgrwt>
</event>
<event>
 4    1  0.2260076E+006  0.2024456E+02  0.7546771E-02  0.1740508E+00
          3   -1    0    0  502    0 -0.00000000000E+00  0.00000000000E+00  0.32699258615E+01  0.32699258615E+01  0.00000000000E+00 0.  1.
         21   -1    0    0  503  502  0.00000000000E+00 -0.00000000000E+00 -0.15403259771E+03  0.15403259771E+03  0.00000000000E+00 0.  1.
         21    1    1    2  503  501  0.94510906486E+01 -0.17903047822E+02 -0.10932885814E+03  0.11118741591E+03  0.00000000000E+00 0.  1.
          3    1    1    2  501    0 -0.94510906486E+01  0.17903047822E+02 -0.41433813715E+02  0.46115107662E+02  0.00000000000E+00 0.  1.
<mgrwt>
<rscale>  2 0.20244561E+02</rscale>
<asrwt>0</asrwt>
<pdfrwt beam="2">  1       21 0.23697317E-01 0.20244561E+02</pdfrwt>
<pdfrwt beam="1">  1        3 0.50306563E-03 0.20244561E+02</pdfrwt>
<totfact> 0.34881763E+06</totfact>
</mgrwt>
</event>
<event>
 4    1  0.2260076E+006  0.2271736E+02  0.7546771E-02  0.1696133E+00
          2   -1    0    0  503    0 -0.00000000000E+00  0.00000000000E+00  0.51530008430E+02  0.51530008430E+02  0.00000000000E+00 0.  1.
         21   -1    0    0  501  502  0.00000000000E+00 -0.00000000000E+00 -0.22864404616E+02  0.22864404616E+02  0.00000000000E+00 0.  1.
         21    1    1    2  503  502 -0.24968466870E+01  0.22579732502E+02 -0.13552160718E+02  0.26452591997E+02  0.00000000000E+00 0.  1.
          2    1    1    2  501    0  0.24968466870E+01 -0.22579732502E+02  0.42217764533E+02  0.47941821048E+02  0.00000000000E+00 0.  1.
<mgrwt>
<rscale>  2 0.22717363E+02</rscale>
<asrwt>0</asrwt>
<pdfrwt beam="2">  1       21 0.35176007E-02 0.22717363E+02</pdfrwt>
<pdfrwt beam="1">  1        2 0.79276936E-02 0.22717363E+02</pdfrwt>
<totfact> 0.34388124E+06</totfact>
</mgrwt>
</event>
<event>
 4    1  0.2260076E+006  0.2355201E+02  0.7546771E-02  0.1682715E+00
         21   -1    0    0  503  502  0.00000000000E+00  0.00000000000E+00  0.26637533849E+02  0.26637533849E+02  0.00000000000E+00 0.  1.
         -2   -1    0    0    0  501 -0.00000000000E+00 -0.00000000000E+00 -0.41527270346E+02  0.41527270346E+02  0.00000000000E+00 0.  1.
         21    1    1    2  503  501  0.72597152659E+01  0.22405215894E+02  0.16620033788E+02  0.28825729620E+02  0.00000000000E+00 0.  1.
         -2    1    1    2    0  502 -0.72597152659E+01 -0.22405215894E+02 -0.31509770285E+02  0.39339074575E+02  0.00000000000E+00 0.  1.
<mgrwt>
<rscale>  2 0.23552010E+02</rscale>
<asrwt>0</asrwt>
<pdfrwt beam="1">  1       21 0.40980822E-02 0.23552010E+02</pdfrwt>
<pdfrwt beam="2">  1       -2 0.63888107E-02 0.23552010E+02</pdfrwt>
<totfact> 0.26630165E+06</totfact>
</mgrwt>
</event>
<event>
 4    1  0.2260076E+006  0.2355332E+02  0.7546771E-02  0.1682695E+00
          1   -1    0    0  503    0 -0.00000000000E+00  0.00000000000E+00  0.21919512208E+04  0.21919512208E+04  0.00000000000E+00 0.  1.
         21   -1    0    0  501  502  0.00000000000E+00 -0.00000000000E+00 -0.32682557181E+00  0.32682557181E+00  0.00000000000E+00 0.  1.
         21    1    1    2  503  502  0.56313051461E+01  0.22870222561E+02  0.57515822948E+03  0.57564029360E+03  0.00000000000E+00 0.  1.
          1    1    1    2  501    0 -0.56313051461E+01 -0.22870222561E+02  0.16164661657E+04  0.16166377528E+04  0.00000000000E+00 0.  1.
<mgrwt>
<rscale>  2 0.23553316E+02</rscale>
<asrwt>0</asrwt>
<pdfrwt beam="2">  1       21 0.50282612E-04 0.23553316E+02</pdfrwt>
<pdfrwt beam="1">  1        1 0.33721149E+00 0.23553316E+02</pdfrwt>
<totfact> 0.81606749E+06</totfact>
</mgrwt>
</event>
<event>
 4    1  0.2260076E+006  0.3184824E+02  0.7546771E-02  0.1578514E+00
         21   -1    0    0  503  502  0.00000000000E+00  0.00000000000E+00  0.27150008692E+03  0.27150008692E+03  0.00000000000E+00 0. -1.
         -1   -1    0    0    0  501 -0.00000000000E+00 -0.00000000000E+00 -0.27068625943E+02  0.27068625943E+02  0.00000000000E+00 0.  1.
         21    1    1    2  503  501 -0.71718171850E+01  0.31030232212E+02  0.26081581207E+03  0.26275311244E+03  0.00000000000E+00 0. -1.
         -1    1    1    2    0  502  0.71718171850E+01 -0.31030232212E+02 -0.16384351091E+02  0.35815600421E+02  0.00000000000E+00 0.  1.
<mgrwt>
<rscale>  2 0.31848238E+02</rscale>
<asrwt>0</asrwt>
<pdfrwt beam="1">  1       21 0.41769242E-01 0.31848238E+02</pdfrwt>
<pdfrwt beam="2">  1       -1 0.41644042E-02 0.31848238E+02</pdfrwt>
<totfact> 0.99310836E+04</totfact>
</mgrwt>
</event>
<event>
 4    1  0.2260076E+006  0.2048485E+02  0.7546771E-02  0.1735855E+00
         21   -1    0    0  503  502  0.00000000000E+00  0.00000000000E+00  0.60921412213E+00  0.60921412213E+00  0.00000000000E+00 0.  1.
          1   -1    0    0  502    0 -0.00000000000E+00 -0.00000000000E+00 -0.10513685947E+04  0.10513685947E+04  0.00000000000E+00 0.  1.
         21    1    1    2  503  501  0.20188576615E+02  0.34713490953E+01 -0.21649811126E+03  0.21746508012E+03  0.00000000000E+00 0.  1.
          1    1    1    2  501    0 -0.20188576615E+02 -0.34713490953E+01 -0.83426126932E+03  0.83451272870E+03  0.00000000000E+00 0.  1.
<mgrwt>
<rscale>  2 0.20484845E+02</rscale>
<asrwt>0</asrwt>
<pdfrwt beam="1">  1       21 0.93726033E-04 0.20484845E+02</pdfrwt>
<pdfrwt beam="2">  1        1 0.16174766E+00 0.20484845E+02</pdfrwt>
<totfact> 0.15907308E+07</totfact>
</mgrwt>
</event>
<event>
 4    1  0.2260076E+006  0.5066828E+02  0.7546771E-02  0.1441770E+00
          1   -1    0    0  503    0 -0.00000000000E+00  0.00000000000E+00  0.40531690037E+03  0.40531690037E+03  0.00000000000E+00 0.  1.
         21   -1    0    0  501  502  0.00000000000E+00 -0.00000000000E+00 -0.22032108135E+03  0.22032108135E+03  0.00000000000E+00 0. -1.
         21    1    1    2  503  502 -0.36828993613E+02 -0.34797978895E+02 -0.21579168672E+03  0.22166038474E+03  0.00000000000E+00 0. -1.
          1    1    1    2  501    0  0.36828993613E+02  0.34797978895E+02  0.40078750574E+03  0.40397759698E+03  0.00000000000E+00 0.  1.
<mgrwt>
<rscale>  2 0.50668275E+02</rscale>
<asrwt>0</asrwt>
<pdfrwt beam="2">  1       21 0.33895551E-01 0.50668275E+02</pdfrwt>
<pdfrwt beam="1">  1        1 0.62356446E-01 0.50668275E+02</pdfrwt>
<totfact> 0.58139085E+03</totfact>
</mgrwt>
</event>
<event>
 4    1  0.2260076E+006  0.2075257E+02  0.7546771E-02  0.1730763E+00
         -1   -1    0    0    0  501 -0.00000000000E+00  0.00000000000E+00  0.15508535806E+02  0.15508535806E+02  0.00000000000E+00 0. -1.
         21   -1    0    0  501  502  0.00000000000E+00 -0.00000000000E+00 -0.11235091358E+03  0.11235091358E+03  0.00000000000E+00 0. -1.
         21    1    1    2  503  502 -0.19446184758E+02  0.72467348195E+01 -0.10389029597E+03  0.10594273389E+03  0.00000000000E+00 0. -1.
         -1    1    1    2    0  503  0.19446184758E+02 -0.72467348195E+01  0.70479181976E+01  0.21916715495E+02  0.00000000000E+00 0. -1.
<mgrwt>
<rscale>  2 0.20752573E+02</rscale>
<asrwt>0</asrwt>
<pdfrwt beam="2">  1       21 0.17284756E-01 0.20752573E+02</pdfrwt>
<pdfrwt beam="1">  1       -1 0.23859286E-02 0.20752573E+02</pdfrwt>
<totfact> 0.98426961E+05</totfact>
</mgrwt>
</event>
<event>
 4    1  0.2260076E+006  0.5903984E+02  0.7546771E-02  0.1401906E+00
          2   -1    0    0  502    0 -0.00000000000E+00  0.00000000000E+00  0.57662028728E+03  0.57662028728E+03  0.00000000000E+00 0.  1.
         21   -1    0    0  503  502  0.00000000000E+00 -0.00000000000E+00 -0.25631141941E+03  0.25631141941E+03  0.00000000000E+00 0.  1.
         21    1    1    2  503  501 -0.26465567003E+02 -0.52775718865E+02 -0.25137098071E+03  0.25821129465E+03  0.00000000000E+00 0.  1.
          2    1    1    2  501    0  0.26465567003E+02  0.52775718865E+02  0.57167984858E+03  0.57472041204E+03  0.00000000000E+00 0.  1.
<mgrwt>
<rscale>  2 0.59039840E+02</rscale>
<asrwt>0</asrwt>
<pdfrwt beam="2">  1       21 0.39432526E-01 0.59039840E+02</pdfrwt>
<pdfrwt beam="1">  1        2 0.88710813E-01 0.59039840E+02</pdfrwt>
<totfact> 0.44134430E+03</totfact>
</mgrwt>
</event>
<event>
 4    1  0.2260076E+006  0.4020025E+02  0.7546771E-02  0.1506743E+00
         21   -1    0    0  503  502  0.00000000000E+00  0.00000000000E+00  0.28016585610E+02  0.28016585610E+02  0.00000000000E+00 0. -1.
         -2   -1    0    0    0  501 -0.00000000000E+00 -0.00000000000E+00 -0.90060095284E+02  0.90060095284E+02  0.00000000000E+00 0.  1.
         21    1    1    2  503  501  0.19167952908E+02  0.35336241687E+02  0.43773063403E+01  0.40437868465E+02  0.00000000000E+00 0. -1.
         -2    1    1    2    0  502 -0.19167952908E+02 -0.35336241687E+02 -0.66420816014E+02  0.77638812428E+02  0.00000000000E+00 0.  1.
<mgrwt>
<rscale>  2 0.40200254E+02</rscale>
<asrwt>0</asrwt>
<pdfrwt beam="1">  1       21 0.43102439E-02 0.40200254E+02</pdfrwt>
<pdfrwt beam="2">  1       -2 0.13855399E-01 0.40200254E+02</pdfrwt>
<totfact> 0.86633187E+05</totfact>
</mgrwt>
</event>
<event>
 4    1  0.2260076E+006  0.3142165E+02  0.7546771E-02  0.1582886E+00
          2   -1    0    0  502    0 -0.00000000000E+00  0.00000000000E+00  0.80143615298E+03  0.80143615298E+03  0.00000000000E+00 0.  1.
         21   -1    0    0  503  502  0.00000000000E+00 -0.00000000000E+00 -0.28696902522E+01  0.28696902522E+01  0.00000000000E+00 0.  1.
         21    1    1    2  503  501  0.17184505314E+00  0.31421180784E+02  0.95476256698E+02  0.10051385838E+03  0.00000000000E+00 0.  1.
          2    1    1    2  501    0 -0.17184505314E+00 -0.31421180784E+02  0.70309020603E+03  0.70379198486E+03  0.00000000000E+00 0.  1.
<mgrwt>
<rscale>  2 0.31421651E+02</rscale>
<asrwt>0</asrwt>
<pdfrwt beam="2">  1       21 0.44149144E-03 0.31421651E+02</pdfrwt>
<pdfrwt beam="1">  1        2 0.12329769E+00 0.31421651E+02</pdfrwt>
<totfact> 0.47331808E+06</totfact>
</mgrwt>
</event>
<event>
 4    1  0.2260076E+006  0.2766104E+02  0.7546771E-02  0.1625482E+00
         21   -1    0    0  501  502  0.00000000000E+00  0.00000000000E+00  0.32199396114E+02  0.32199396114E+02  0.00000000000E+00 0.  1.
          1   -1    0    0  503    0 -0.00000000000E+00 -0.00000000000E+00 -0.11849351838E+03  0.11849351838E+03  0.00000000000E+00 0. -1.
         21    1    1    2  503  502  0.86937584131E+01 -0.26259314739E+02  0.24222234351E+02  0.36767508522E+02  0.00000000000E+00 0.  1.
          1    1    1    2  501    0 -0.86937584131E+01  0.26259314739E+02 -0.11051635662E+03  0.11392540598E+03  0.00000000000E+00 0. -1.
<mgrwt>
<rscale>  2 0.27661038E+02</rscale>
<asrwt>0</asrwt>
<pdfrwt beam="1">  1       21 0.49537532E-02 0.27661038E+02</pdfrwt>
<pdfrwt beam="2">  1        1 0.18229772E-01 0.27661038E+02</pdfrwt>
<totfact> 0.67011392E+05</totfact>
</mgrwt>
</event>
<event>
 4    1  0.2260076E+006  0.2518326E+02  0.7546771E-02  0.1658384E+00
         -1   -1    0    0    0  501 -0.00000000000E+00  0.00000000000E+00  0.22457345453E+01  0.22457345453E+01  0.00000000000E+00 0.  1.
         21   -1    0    0  501  502  0.00000000000E+00 -0.00000000000E+00 -0.29243942888E+03  0.29243942888E+03  0.00000000000E+00 0.  1.
         21    1    1    2  503  502 -0.24525188864E+02  0.57194122568E+01 -0.17239629946E+03  0.17422594707E+03  0.00000000000E+00 0.  1.
         -1    1    1    2    0  503  0.24525188864E+02 -0.57194122568E+01 -0.11779739487E+03  0.12045921635E+03  0.00000000000E+00 0.  1.
<mgrwt>
<rscale>  2 0.25183260E+02</rscale>
<asrwt>0</asrwt>
<pdfrwt beam="2">  1       21 0.44990656E-01 0.25183260E+02</pdfrwt>
<pdfrwt beam="1">  1       -1 0.34549782E-03 0.25183260E+02</pdfrwt>
<totfact> 0.24663407E+06</totfact>
</mgrwt>
</event>
<event>
 4    1  0.2260076E+006  0.2606907E+02  0.7546771E-02  0.1646105E+00
         -2   -1    0    0    0  501 -0.00000000000E+00  0.00000000000E+00  0.71969682939E+02  0.71969682939E+02  0.00000000000E+00 0.  1.
         21   -1    0    0  501  502  0.00000000000E+00 -0.00000000000E+00 -0.27399775264E+02  0.27399775264E+02  0.00000000000E+00 0. -1.
         21    1    1    2  503  502  0.15169726431E+02 -0.21200848222E+02 -0.17937245055E+02  0.31643977713E+02  0.00000000000E+00 0. -1.
         -2    1    1    2    0  503 -0.15169726431E+02  0.21200848222E+02  0.62507152730E+02  0.67725480491E+02  0.00000000000E+00 0.  1.
<mgrwt>
<rscale>  2 0.26069073E+02</rscale>
<asrwt>0</asrwt>
<pdfrwt beam="2">  1       21 0.42153501E-02 0.26069073E+02</pdfrwt>
<pdfrwt beam="1">  1       -2 0.11072259E-01 0.26069073E+02</pdfrwt>
<totfact> 0.11613573E+06</totfact>
</mgrwt>
</event>
<event>
 4    1  0.2260076E+006  0.2993718E+02  0.7546771E-02  0.1598784E+00
         21   -1    0    0  501  502  0.00000000000E+00  0.00000000000E+00  0.29629037135E+03  0.29629037135E+03  0.00000000000E+00 0.  1.
         -2   -1    0    0    0  501 -0.00000000000E+00 -0.00000000000E+00 -0.54892739116E+01  0.54892739116E+01  0.00000000000E+00 0. -1.
         21    1    1    2  503  502  0.27173808332E+02  0.12562594963E+02  0.24650260514E+03  0.24831385179E+03  0.00000000000E+00 0.  1.
         -2    1    1    2    0  503 -0.27173808332E+02 -0.12562594963E+02  0.44298492304E+02  0.53465793475E+02  0.00000000000E+00 0. -1.
<mgrwt>
<rscale>  2 0.29937178E+02</rscale>
<asrwt>0</asrwt>
<pdfrwt beam="1">  1       21 0.45583122E-01 0.29937178E+02</pdfrwt>
<pdfrwt beam="2">  1       -2 0.84450391E-03 0.29937178E+02</pdfrwt>
<totfact> 0.74608477E+05</totfact>
</mgrwt>
</event>
<event>
 4    1  0.2260076E+006  0.2722577E+02  0.7546771E-02  0.1630948E+00
         21   -1    0    0  503  502  0.00000000000E+00  0.00000000000E+00  0.62388692090E+02  0.62388692090E+02  0.00000000000E+00 0.  1.
          2   -1    0    0  502    0 -0.00000000000E+00 -0.00000000000E+00 -0.18509908988E+02  0.18509908988E+02  0.00000000000E+00 0.  1.
         21    1    1    2  503  501  0.67078075076E+01 -0.26386512284E+02  0.46145696780E+02  0.53578615542E+02  0.00000000000E+00 0.  1.
          2    1    1    2  501    0 -0.67078075076E+01  0.26386512284E+02 -0.22669136771E+01  0.27319985536E+02  0.00000000000E+00 0.  1.
<mgrwt>
<rscale>  2 0.27225773E+02</rscale>
<asrwt>0</asrwt>
<pdfrwt beam="1">  1       21 0.95982602E-02 0.27225773E+02</pdfrwt>
<pdfrwt beam="2">  1        2 0.28476783E-02 0.27225773E+02</pdfrwt>
<totfact> 0.25160975E+06</totfact>
</mgrwt>
</event>
<event>
 4    1  0.2260076E+006  0.2077511E+02  0.7546771E-02  0.1730339E+00
         21   -1    0    0  503  502  0.00000000000E+00  0.00000000000E+00  0.10771204717E+02  0.10771204717E+02  0.00000000000E+00 0. -1.
          2   -1    0    0  502    0 -0.00000000000E+00 -0.00000000000E+00 -0.15341569839E+04  0.15341569839E+04  0.00000000000E+00 0.  1.
         21    1    1    2  503  501 -0.17765064672E+02  0.10770695200E+02  0.61655171951E+00  0.20784261688E+02  0.00000000000E+00 0. -1.
          2    1    1    2  501    0  0.17765064672E+02 -0.10770695200E+02 -0.15240023309E+04  0.15241439269E+04  0.00000000000E+00 0.  1.
<mgrwt>
<rscale>  2 0.20775115E+02</rscale>
<asrwt>0</asrwt>
<pdfrwt beam="1">  1       21 0.16571090E-02 0.20775115E+02</pdfrwt>
<pdfrwt beam="2">  1        2 0.23602406E+00 0.20775115E+02</pdfrwt>
<totfact> 0.25311891E+05</totfact>
</mgrwt>
</event>
<event>
 4    1  0.2260076E+006  0.2447975E+02  0.7546771E-02  0.1668589E+00
         21   -1    0    0  503  502  0.00000000000E+00  0.00000000000E+00  0.36064112413E+01  0.36064112413E+01  0.00000000000E+00 0. -1.
          2   -1    0    0  502    0 -0.00000000000E+00 -0.00000000000E+00 -0.67424669188E+03  0.67424669188E+03  0.00000000000E+00 0. -1.
         21    1    1    2  503  501 -0.10328336436E+02 -0.22194224419E+02 -0.41106302573E+02  0.47843351077E+02  0.00000000000E+00 0. -1.
          2    1    1    2  501    0  0.10328336436E+02  0.22194224419E+02 -0.62953397807E+03  0.63000975204E+03  0.00000000000E+00 0. -1.
<mgrwt>
<rscale>  2 0.24479749E+02</rscale>
<asrwt>0</asrwt>
<pdfrwt beam="1">  1       21 0.55483323E-03 0.24479749E+02</pdfrwt>
<pdfrwt beam="2">  1        2 0.10373012E+00 0.24479749E+02</pdfrwt>
<totfact> 0.38818502E+06</totfact>
</mgrwt>
</event>
<event>
 4    1  0.2260076E+006  0.2279225E+02  0.7546771E-02  0.1694900E+00
         21   -1    0    0  501  502  0.00000000000E+00  0.00000000000E+00  0.79067915761E+01  0.79067915761E+01  0.00000000000E+00 0. -1.
          2   -1    0    0  503    0 -0.00000000000E+00 -0.00000000000E+00 -0.94536536779E+03  0.94536536779E+03  0.00000000000E+00 0.  1.
         21    1    1    2  503  502 -0.10512329775E+02 -0.20223199317E+02 -0.89541496268E+01  0.24488031024E+02  0.00000000000E+00 0. -1.
          2    1    1    2  501    0  0.10512329775E+02  0.20223199317E+02 -0.92850442658E+03  0.92878412834E+03  0.00000000000E+00 0.  1.
<mgrwt>
<rscale>  2 0.22792255E+02</rscale>
<asrwt>0</asrwt>
<pdfrwt beam="1">  1       21 0.12164299E-02 0.22792255E+02</pdfrwt>
<pdfrwt beam="2">  1        2 0.14544077E+00 0.22792255E+02</pdfrwt>
<totfact> 0.80570480E+05</totfact>
</mgrwt>
</event>
<event>
 4    1  0.2260076E+006  0.2153694E+02  0.7546771E-02  0.1716386E+00
         -4   -1    0    0    0  501 -0.00000000000E+00  0.00000000000E+00  0.10463667109E+02  0.10463667109E+02  0.00000000000E+00 0.  1.
         21   -1    0    0  501  502  0.00000000000E+00 -0.00000000000E+00 -0.10869761252E+03  0.10869761252E+03  0.00000000000E+00 0. -1.
         21    1    1    2  503  502  0.15264082947E+02 -0.15193672678E+02 -0.94966358029E+02  0.97377867480E+02  0.00000000000E+00 0. -1.
         -4    1    1    2    0  503 -0.15264082947E+02  0.15193672678E+02 -0.32675873855E+01  0.21783412152E+02  0.00000000000E+00 0.  1.
<mgrwt>
<rscale>  2 0.21536943E+02</rscale>
<asrwt>0</asrwt>
<pdfrwt beam="2">  1       21 0.16722709E-01 0.21536943E+02</pdfrwt>
<pdfrwt beam="1">  1       -4 0.16097950E-02 0.21536943E+02</pdfrwt>
<totfact> 0.10717529E+06</totfact>
</mgrwt>
</event>
<event>
 4    1  0.2260076E+006  0.2235319E+02  0.7546771E-02  0.1702214E+00
          2   -1    0    0  503    0 -0.00000000000E+00  0.00000000000E+00  0.14094190114E+04  0.14094190114E+04  0.00000000000E+00 0. -1.
         21   -1    0    0  501  502  0.00000000000E+00 -0.00000000000E+00 -0.68194658330E+01  0.68194658330E+01  0.00000000000E+00 0.  1.
         21    1    1    2  503  502 -0.18292951351E+02  0.12846524699E+02  0.11832419617E+02  0.25291726315E+02  0.00000000000E+00 0.  1.
          2    1    1    2  501    0  0.18292951351E+02 -0.12846524699E+02  0.13907671259E+04  0.13909467509E+04  0.00000000000E+00 0. -1.
<mgrwt>
<rscale>  2 0.22353194E+02</rscale>
<asrwt>0</asrwt>
<pdfrwt beam="2">  1       21 0.10491497E-02 0.22353194E+02</pdfrwt>
<pdfrwt beam="1">  1        2 0.21683346E+00 0.22353194E+02</pdfrwt>
<totfact> 0.58315472E+05</totfact>
</mgrwt>
</event>
<event>
 4    1  0.2260076E+006  0.2322555E+02  0.7546771E-02  0.1687880E+00
         -3   -1    0    0    0  501 -0.00000000000E+00  0.00000000000E+00  0.72149326240E+03  0.72149326240E+03  0.00000000000E+00 0.  1.
         21   -1    0    0  503  502  0.00000000000E+00 -0.00000000000E+00 -0.12839581699E+02  0.12839581699E+02  0.00000000000E+00 0.  1.
         21    1    1    2  503  501 -0.16792506127E+02  0.16044865737E+02 -0.19891595767E+01  0.23310571300E+02  0.00000000000E+00 0.  1.
         -3    1    1    2    0  502  0.16792506127E+02 -0.16044865737E+02  0.71064284028E+03  0.71102227280E+03  0.00000000000E+00 0.  1.
<mgrwt>
<rscale>  2 0.23225546E+02</rscale>
<asrwt>0</asrwt>
<pdfrwt beam="2">  1       21 0.19753208E-02 0.23225546E+02</pdfrwt>
<pdfrwt beam="1">  1       -3 0.11099893E+00 0.23225546E+02</pdfrwt>
<totfact> 0.32403708E+04</totfact>
</mgrwt>
</event>
<event>
 4    1  0.2260076E+006  0.2193121E+02  0.7546771E-02  0.1709444E+00
         -2   -1    0    0    0  501 -0.00000000000E+00  0.00000000000E+00  0.15751084219E+03  0.15751084219E+03  0.00000000000E+00 0. -1.
         21   -1    0    0  501  502  0.00000000000E+00 -0.00000000000E+00 -0.63568045169E+01  0.63568045169E+01  0.00000000000E+00 0. -1.
         21    1    1    2  503  502  0.21552259461E+02  0.40593272397E+01  0.16514725372E+02  0.27453855460E+02  0.00000000000E+00 0. -1.
         -2    1    1    2    0  503 -0.21552259461E+02 -0.40593272397E+01  0.13463931231E+03  0.13641379125E+03  0.00000000000E+00 0. -1.
<mgrwt>
<rscale>  2 0.21931211E+02</rscale>
<asrwt>0</asrwt>
<pdfrwt beam="2">  1       21 0.97797005E-03 0.21931211E+02</pdfrwt>
<pdfrwt beam="1">  1       -2 0.24232434E-01 0.21931211E+02</pdfrwt>
<totfact> 0.30660530E+06</totfact>
</mgrwt>
</event>
<event>
 4    1  0.2260076E+006  0.2045860E+02  0.7546771E-02  0.1736359E+00
          2   -1    0    0  503    0 -0.00000000000E+00  0.00000000000E+00  0.27223344289E+03  0.27223344289E+03  0.00000000000E+00 0. -1.
         21   -1    0    0  501  502  0.00000000000E+00 -0.00000000000E+00 -0.47005827852E+01  0.47005827852E+01  0.00000000000E+00 0. -1.
         21    1    1    2  503  502 -0.12563677278E+02  0.16146464399E+02  0.20179878569E+02  0.28736419373E+02  0.00000000000E+00 0. -1.
          2    1    1    2  501    0  0.12563677278E+02 -0.16146464399E+02  0.24735298154E+03  0.24819760630E+03  0.00000000000E+00 0. -1.
<mgrwt>
<rscale>  2 0.20458600E+02</rscale>
<asrwt>0</asrwt>
<pdfrwt beam="2">  1       21 0.72316679E-03 0.20458600E+02</pdfrwt>
<pdfrwt beam="1">  1        2 0.41882056E-01 0.20458600E+02</pdfrwt>
<totfact> 0.62310142E+06</totfact>
</mgrwt>
</event>
<event>
 4    1  0.2260076E+006  0.6724345E+02  0.7546771E-02  0.1369726E+00
         21   -1    0    0  501  502  0.00000000000E+00  0.00000000000E+00  0.12902923538E+03  0.12902923538E+03  0.00000000000E+00 0.  1.
          1   -1    0    0  503    0 -0.00000000000E+00 -0.00000000000E+00 -0.11793343818E+03  0.11793343818E+03  0.00000000000E+00 0. -1.
         21    1    1    2  503  502 -0.18095771018E+02 -0.64762837238E+02  0.10906993732E+03  0.12813248317E+03  0.00000000000E+00 0.  1.
          1    1    1    2  501    0  0.18095771018E+02  0.64762837238E+02 -0.97974140120E+02  0.11883019039E+03  0.00000000000E+00 0. -1.
<mgrwt>
<rscale>  2 0.67243453E+02</rscale>
<asrwt>0</asrwt>
<pdfrwt beam="1">  1       21 0.19850652E-01 0.67243453E+02</pdfrwt>
<pdfrwt beam="2">  1        1 0.18143606E-01 0.67243453E+02</pdfrwt>
<totfact> 0.70376518E+04</totfact>
</mgrwt>
</event>
<event>
 4    1  0.2260076E+006  0.2058383E+02  0.7546771E-02  0.1733961E+00
         21   -1    0    0  501  502  0.00000000000E+00  0.00000000000E+00  0.46166881142E+01  0.46166881142E+01  0.00000000000E+00 0.  1.
         -2   -1    0    0    0  501 -0.00000000000E+00 -0.00000000000E+00 -0.34879688852E+03  0.34879688852E+03  0.00000000000E+00 0.  1.
         21    1    1    2  503  502 -0.20434374129E+02  0.24759288292E+01 -0.20401662465E+02  0.28981402674E+02  0.00000000000E+00 0.  1.
         -2    1    1    2    0  503  0.20434374129E+02 -0.24759288292E+01 -0.32377853794E+03  0.32443217396E+03  0.00000000000E+00 0.  1.
<mgrwt>
<rscale>  2 0.20583825E+02</rscale>
<asrwt>0</asrwt>
<pdfrwt beam="1">  1       21 0.71025989E-03 0.20583825E+02</pdfrwt>
<pdfrwt beam="2">  1       -2 0.53661047E-01 0.20583825E+02</pdfrwt>
<totfact> 0.11806185E+06</totfact>
</mgrwt>
</event>
<event>
 4    1  0.2260076E+006  0.2084824E+02  0.7546771E-02  0.1728967E+00
          1   -1    0    0  503    0 -0.00000000000E+00  0.00000000000E+00  0.30723503080E+03  0.30723503080E+03  0.00000000000E+00 0. -1.
         21   -1    0    0  501  502  0.00000000000E+00 -0.00000000000E+00 -0.11385523183E+02  0.11385523183E+02  0.00000000000E+00 0. -1.
         21    1    1    2  503  502 -0.16658681372E+02  0.12535453785E+02 -0.11597588285E+01  0.20880476700E+02  0.00000000000E+00 0. -1.
          1    1    1    2  501    0  0.16658681372E+02 -0.12535453785E+02  0.29700926644E+03  0.29774007728E+03  0.00000000000E+00 0. -1.
<mgrwt>
<rscale>  2 0.20848244E+02</rscale>
<asrwt>0</asrwt>
<pdfrwt beam="2">  1       21 0.17516192E-02 0.20848244E+02</pdfrwt>
<pdfrwt beam="1">  1        1 0.47266921E-01 0.20848244E+02</pdfrwt>
<totfact> 0.10523479E+06</totfact>
</mgrwt>
</event>
<event>
 4    1  0.2260076E+006  0.2315717E+02  0.7546771E-02  0.1688975E+00
          2   -1    0    0  503    0 -0.00000000000E+00  0.00000000000E+00  0.78288917205E+03  0.78288917205E+03  0.00000000000E+00 0.  1.
         21   -1    0    0  501  502  0.00000000000E+00 -0.00000000000E+00 -0.28152228754E+01  0.28152228754E+01  0.00000000000E+00 0.  1.
         21    1    1    2  503  502 -0.22367997155E+02 -0.59939460979E+01  0.48302735468E+02  0.53566864200E+02  0.00000000000E+00 0.  1.
          2    1    1    2  501    0  0.22367997155E+02  0.59939460979E+01  0.73177121371E+03  0.73213753073E+03  0.00000000000E+00 0.  1.
<mgrwt>
<rscale>  2 0.23157174E+02</rscale>
<asrwt>0</asrwt>
<pdfrwt beam="2">  1       21 0.43311183E-03 0.23157174E+02</pdfrwt>
<pdfrwt beam="1">  1        2 0.12044431E+00 0.23157174E+02</pdfrwt>
<totfact> 0.46877542E+06</totfact>
</mgrwt>
</event>
<event>
 4    1  0.2260076E+006  0.3016643E+02  0.7546771E-02  0.1596256E+00
         21   -1    0    0  503  502  0.00000000000E+00  0.00000000000E+00  0.42683579840E+02  0.42683579840E+02  0.00000000000E+00 0. -1.
          2   -1    0    0  502    0 -0.00000000000E+00 -0.00000000000E+00 -0.22810052549E+02  0.22810052549E+02  0.00000000000E+00 0. -1.
         21    1    1    2  503  501  0.22481800873E+02  0.20114228249E+02  0.18306427331E+02  0.35286524767E+02  0.00000000000E+00 0. -1.
          2    1    1    2  501    0 -0.22481800873E+02 -0.20114228249E+02  0.15670999607E+01  0.30207107621E+02  0.00000000000E+00 0. -1.
<mgrwt>
<rscale>  2 0.30166431E+02</rscale>
<asrwt>0</asrwt>
<pdfrwt beam="1">  1       21 0.65667046E-02 0.30166431E+02</pdfrwt>
<pdfrwt beam="2">  1        2 0.35092389E-02 0.30166431E+02</pdfrwt>
<totfact> 0.36935847E+06</totfact>
</mgrwt>
</event>
<event>
 4    1  0.2260076E+006  0.2892386E+02  0.7546771E-02  0.1610298E+00
         21   -1    0    0  501  502  0.00000000000E+00  0.00000000000E+00  0.91693757527E+00  0.91693757527E+00  0.00000000000E+00 0.  1.
          2   -1    0    0  503    0 -0.00000000000E+00 -0.00000000000E+00 -0.10454815109E+04  0.10454815109E+04  0.00000000000E+00 0.  1.
         21    1    1    2  503  502 -0.27474382001E+02  0.90414696263E+01 -0.33559683026E+03  0.33684094514E+03  0.00000000000E+00 0.  1.
          2    1    1    2  501    0  0.27474382001E+02 -0.90414696263E+01 -0.70896774311E+03  0.70955750338E+03  0.00000000000E+00 0.  1.
<mgrwt>
<rscale>  2 0.28923863E+02</rscale>
<asrwt>0</asrwt>
<pdfrwt beam="1">  1       21 0.14106759E-03 0.28923863E+02</pdfrwt>
<pdfrwt beam="2">  1        2 0.16084300E+00 0.28923863E+02</pdfrwt>
<totfact> 0.17858233E+07</totfact>
</mgrwt>
</event>
<event>
 4    1  0.2260076E+006  0.2793388E+02  0.7546771E-02  0.1622118E+00
          1   -1    0    0  503    0 -0.00000000000E+00  0.00000000000E+00  0.23464153230E+03  0.23464153230E+03  0.00000000000E+00 0. -1.
         21   -1    0    0  501  502  0.00000000000E+00 -0.00000000000E+00 -0.41553262882E+01  0.41553262882E+01  0.00000000000E+00 0. -1.
         21    1    1    2  503  502  0.24155695453E+02  0.14028695441E+02  0.61886525300E+02  0.67898777105E+02  0.00000000000E+00 0. -1.
          1    1    1    2  501    0 -0.24155695453E+02 -0.14028695441E+02  0.16859968071E+03  0.17089808148E+03  0.00000000000E+00 0. -1.
<mgrwt>
<rscale>  2 0.27933885E+02</rscale>
<asrwt>0</asrwt>
<pdfrwt beam="2">  1       21 0.63928115E-03 0.27933885E+02</pdfrwt>
<pdfrwt beam="1">  1        1 0.36098687E-01 0.27933885E+02</pdfrwt>
<totfact> 0.70269940E+06</totfact>
</mgrwt>
</event>
<event>
 4    1  0.2260076E+006  0.2466373E+02  0.7546771E-02  0.1665879E+00
          1   -1    0    0  503    0 -0.00000000000E+00  0.00000000000E+00  0.16860126170E+02  0.16860126170E+02  0.00000000000E+00 0.  1.
         21   -1    0    0  501  502  0.00000000000E+00 -0.00000000000E+00 -0.38605313182E+03  0.38605313182E+03  0.00000000000E+00 0.  1.
         21    1    1    2  503  502  0.15885659945E+02 -0.18866511992E+02 -0.37640855222E+03  0.37721571766E+03  0.00000000000E+00 0.  1.
          1    1    1    2  501    0 -0.15885659945E+02  0.18866511992E+02  0.72155465694E+01  0.25697540328E+02  0.00000000000E+00 0.  1.
<mgrwt>
<rscale>  2 0.24663728E+02</rscale>
<asrwt>0</asrwt>
<pdfrwt beam="2">  1       21 0.59392788E-01 0.24663728E+02</pdfrwt>
<pdfrwt beam="1">  1        1 0.25938657E-02 0.24663728E+02</pdfrwt>
<totfact> 0.10019500E+05</totfact>
</mgrwt>
</event>
<event>
 4    1  0.2260076E+006  0.2025777E+02  0.7546771E-02  0.1740250E+00
         21   -1    0    0  501  502  0.00000000000E+00  0.00000000000E+00  0.16389728431E+01  0.16389728431E+01  0.00000000000E+00 0. -1.
          3   -1    0    0  503    0 -0.00000000000E+00 -0.00000000000E+00 -0.93562756686E+03  0.93562756686E+03  0.00000000000E+00 0.  1.
         21    1    1    2  503  502 -0.10006857924E+02 -0.17613629757E+02 -0.65939966322E+02  0.68981565054E+02  0.00000000000E+00 0. -1.
          3    1    1    2  501    0  0.10006857924E+02  0.17613629757E+02 -0.86804862770E+03  0.86828497465E+03  0.00000000000E+00 0.  1.
<mgrwt>
<rscale>  2 0.20257768E+02</rscale>
<asrwt>0</asrwt>
<pdfrwt beam="1">  1       21 0.25214932E-03 0.20257768E+02</pdfrwt>
<pdfrwt beam="2">  1        3 0.14394290E+00 0.20257768E+02</pdfrwt>
<totfact> 0.37029455E+05</totfact>
</mgrwt>
</event>
<event>
 4    1  0.2260076E+006  0.2806770E+02  0.7546771E-02  0.1620485E+00
         21   -1    0    0  503  502  0.00000000000E+00  0.00000000000E+00  0.26865582762E+02  0.26865582762E+02  0.00000000000E+00 0. -1.
         -2   -1    0    0    0  501 -0.00000000000E+00 -0.00000000000E+00 -0.85430031750E+03  0.85430031750E+03  0.00000000000E+00 0. -1.
         21    1    1    2  503  501  0.27998043522E+02 -0.19762278914E+01  0.19238117339E+02  0.34027945522E+02  0.00000000000E+00 0. -1.
         -2    1    1    2    0  502 -0.27998043522E+02  0.19762278914E+01 -0.84667285207E+03  0.84713795474E+03  0.00000000000E+00 0. -1.
<mgrwt>
<rscale>  2 0.28067702E+02</rscale>
<asrwt>0</asrwt>
<pdfrwt beam="1">  1       21 0.41331670E-02 0.28067702E+02</pdfrwt>
<pdfrwt beam="2">  1       -2 0.13143080E+00 0.28067702E+02</pdfrwt>
<totfact> 0.12392709E+04</totfact>
</mgrwt>
</event>
<event>
 4    1  0.2260076E+006  0.2371608E+02  0.7546771E-02  0.1680159E+00
         -2   -1    0    0    0  501 -0.00000000000E+00  0.00000000000E+00  0.42994017436E+02  0.42994017436E+02  0.00000000000E+00 0. -1.
         21   -1    0    0  503  502  0.00000000000E+00 -0.00000000000E+00 -0.19109229029E+03  0.19109229029E+03  0.00000000000E+00 0. -1.
         21    1    1    2  503  501  0.36058586190E+01 -0.23440352730E+02 -0.18701490366E+03  0.18851266945E+03  0.00000000000E+00 0. -1.
         -2    1    1    2    0  502 -0.36058586190E+01  0.23440352730E+02  0.38916630806E+02  0.45573638276E+02  0.00000000000E+00 0. -1.
<mgrwt>
<rscale>  2 0.23716078E+02</rscale>
<asrwt>0</asrwt>
<pdfrwt beam="2">  1       21 0.29398813E-01 0.23716078E+02</pdfrwt>
<pdfrwt beam="1">  1       -2 0.66144644E-02 0.23716078E+02</pdfrwt>
<totfact> 0.93219679E+04</totfact>
</mgrwt>
</event>
<event>
 4    1  0.2260076E+006  0.2201453E+02  0.7546771E-02  0.1708001E+00
         21   -1    0    0  501  502  0.00000000000E+00  0.00000000000E+00  0.69990742907E+00  0.69990742907E+00  0.00000000000E+00 0. -1.
          1   -1    0    0  503    0 -0.00000000000E+00 -0.00000000000E+00 -0.10848936486E+04  0.10848936486E+04  0.00000000000E+00 0.  1.
         21    1    1    2  503  502 -0.11440381804E+02 -0.18808433039E+02 -0.21562832060E+03  0.21674919177E+03  0.00000000000E+00 0. -1.
          1    1    1    2  501    0  0.11440381804E+02  0.18808433039E+02 -0.86856542059E+03  0.86884436427E+03  0.00000000000E+00 0.  1.
<mgrwt>
<rscale>  2 0.22014529E+02</rscale>
<asrwt>0</asrwt>
<pdfrwt beam="1">  1       21 0.10767801E-03 0.22014529E+02</pdfrwt>
<pdfrwt beam="2">  1        1 0.16690680E+00 0.22014529E+02</pdfrwt>
<totfact> 0.12662166E+07</totfact>
</mgrwt>
</event>
<event>
 4    1  0.2260076E+006  0.3407099E+02  0.7546771E-02  0.1557009E+00
          4   -1    0    0  502    0 -0.00000000000E+00  0.00000000000E+00  0.32221779118E+02  0.32221779118E+02  0.00000000000E+00 0.  1.
         21   -1    0    0  503  502  0.00000000000E+00 -0.00000000000E+00 -0.86355965182E+02  0.86355965182E+02  0.00000000000E+00 0. -1.
         21    1    1    2  503  501  0.26519772368E+02  0.21390048274E+02 -0.72329631080E+02  0.79952536068E+02  0.00000000000E+00 0. -1.
          4    1    1    2  501    0 -0.26519772368E+02 -0.21390048274E+02  0.18195445016E+02  0.38625208231E+02  0.00000000000E+00 0.  1.
<mgrwt>
<rscale>  2 0.34070992E+02</rscale>
<asrwt>0</asrwt>
<pdfrwt beam="2">  1       21 0.13285533E-01 0.34070992E+02</pdfrwt>
<pdfrwt beam="1">  1        4 0.49571968E-02 0.34070992E+02</pdfrwt>
<totfact> 0.34598976E+05</totfact>
</mgrwt>
</event>
<event>
 4    1  0.2260076E+006  0.2105151E+02  0.7546771E-02  0.1725191E+00
          1   -1    0    0  502    0 -0.00000000000E+00  0.00000000000E+00  0.45450092094E+03  0.45450092094E+03  0.00000000000E+00 0.  1.
         21   -1    0    0  503  502  0.00000000000E+00 -0.00000000000E+00 -0.26609252610E+01  0.26609252610E+01  0.00000000000E+00 0. -1.
         21    1    1    2  503  501 -0.16488406763E+02 -0.13088107677E+02  0.43977167370E+02  0.48756100850E+02  0.00000000000E+00 0. -1.
          1    1    1    2  501    0  0.16488406763E+02  0.13088107677E+02  0.40786282831E+03  0.40840574536E+03  0.00000000000E+00 0.  1.
<mgrwt>
<rscale>  2 0.21051511E+02</rscale>
<asrwt>0</asrwt>
<pdfrwt beam="2">  1       21 0.40937348E-03 0.21051511E+02</pdfrwt>
<pdfrwt beam="1">  1        1 0.69923157E-01 0.21051511E+02</pdfrwt>
<totfact> 0.58502059E+06</totfact>
</mgrwt>
</event>
<event>
 4    1  0.2260076E+006  0.2987310E+02  0.7546771E-02  0.1599496E+00
          2   -1    0    0  503    0 -0.00000000000E+00  0.00000000000E+00  0.10085844034E+04  0.10085844034E+04  0.00000000000E+00 0.  1.
         21   -1    0    0  501  502  0.00000000000E+00 -0.00000000000E+00 -0.16598570017E+02  0.16598570017E+02  0.00000000000E+00 0.  1.
         21    1    1    2  503  502  0.26569593626E+00  0.29871915239E+02 -0.27493328123E+01  0.29999345748E+02  0.00000000000E+00 0.  1.
          2    1    1    2  501    0 -0.26569593626E+00 -0.29871915239E+02  0.99473516619E+03  0.99518362766E+03  0.00000000000E+00 0.  1.
<mgrwt>
<rscale>  2 0.29873097E+02</rscale>
<asrwt>0</asrwt>
<pdfrwt beam="2">  1       21 0.25536269E-02 0.29873097E+02</pdfrwt>
<pdfrwt beam="1">  1        2 0.15516678E+00 0.29873097E+02</pdfrwt>
<totfact> 0.24653233E+05</totfact>
</mgrwt>
</event>
<event>
 4    1  0.2260076E+006  0.2477501E+02  0.7546771E-02  0.1664255E+00
         -3   -1    0    0    0  501 -0.00000000000E+00  0.00000000000E+00  0.15594799495E+03  0.15594799495E+03  0.00000000000E+00 0. -1.
         21   -1    0    0  503  502  0.00000000000E+00 -0.00000000000E+00 -0.55697359261E+01  0.55697359261E+01  0.00000000000E+00 0.  1.
         21    1    1    2  503  501 -0.24350281193E+02 -0.45678076550E+01  0.31449754840E+02  0.40036085479E+02  0.00000000000E+00 0.  1.
         -3    1    1    2    0  502  0.24350281193E+02  0.45678076550E+01  0.11892850418E+03  0.12148164539E+03  0.00000000000E+00 0. -1.
<mgrwt>
<rscale>  2 0.24775009E+02</rscale>
<asrwt>0</asrwt>
<pdfrwt beam="2">  1       21 0.85688257E-03 0.24775009E+02</pdfrwt>
<pdfrwt beam="1">  1       -3 0.23991996E-01 0.24775009E+02</pdfrwt>
<totfact> 0.22618380E+06</totfact>
</mgrwt>
</event>
<event>
 4    1  0.2260076E+006  0.2804616E+02  0.7546771E-02  0.1620747E+00
         -2   -1    0    0    0  501 -0.00000000000E+00  0.00000000000E+00  0.17536681897E+03  0.17536681897E+03  0.00000000000E+00 0.  1.
         21   -1    0    0  501  502  0.00000000000E+00 -0.00000000000E+00 -0.64958827297E+03  0.64958827297E+03  0.00000000000E+00 0.  1.
         21    1    1    2  503  502  0.25375195480E+02  0.11945156643E+02 -0.64816173512E+03  0.64876823457E+03  0.00000000000E+00 0.  1.
         -2    1    1    2    0  503 -0.25375195480E+02 -0.11945156643E+02  0.17394028112E+03  0.17618685737E+03  0.00000000000E+00 0.  1.
<mgrwt>
<rscale>  2 0.28046164E+02</rscale>
<asrwt>0</asrwt>
<pdfrwt beam="2">  1       21 0.99936657E-01 0.28046164E+02</pdfrwt>
<pdfrwt beam="1">  1       -2 0.26979511E-01 0.28046164E+02</pdfrwt>
<totfact> 0.93287099E+02</totfact>
</mgrwt>
</event>
<event>
 4    1  0.2260076E+006  0.2340121E+02  0.7546771E-02  0.1685088E+00
         21   -1    0    0  501  502  0.00000000000E+00  0.00000000000E+00  0.97821024654E+02  0.97821024654E+02  0.00000000000E+00 0. -1.
          3   -1    0    0  503    0 -0.00000000000E+00 -0.00000000000E+00 -0.85346097076E+03  0.85346097076E+03  0.00000000000E+00 0.  1.
         21    1    1    2  503  502  0.32218729667E+01  0.23178359416E+02  0.96258509943E+02  0.99062190300E+02  0.00000000000E+00 0. -1.
          3    1    1    2  501    0 -0.32218729667E+01 -0.23178359416E+02 -0.85189845605E+03  0.85221980511E+03  0.00000000000E+00 0.  1.
<mgrwt>
<rscale>  2 0.23401214E+02</rscale>
<asrwt>0</asrwt>
<pdfrwt beam="1">  1       21 0.15049388E-01 0.23401214E+02</pdfrwt>
<pdfrwt beam="2">  1        3 0.13130169E+00 0.23401214E+02</pdfrwt>
<totfact> 0.85654346E+02</totfact>
</mgrwt>
</event>
<event>
 4    1  0.2260076E+006  0.2429190E+02  0.7546771E-02  0.1671386E+00
         21   -1    0    0  503  502  0.00000000000E+00  0.00000000000E+00  0.43514009635E+02  0.43514009635E+02  0.00000000000E+00 0. -1.
         -3   -1    0    0    0  501 -0.00000000000E+00 -0.00000000000E+00 -0.71240436393E+02  0.71240436393E+02  0.00000000000E+00 0.  1.
         21    1    1    2  503  501  0.31049578716E+01  0.24092649423E+02  0.37764926852E+02  0.44903075839E+02  0.00000000000E+00 0. -1.
         -3    1    1    2    0  502 -0.31049578716E+01 -0.24092649423E+02 -0.65491353611E+02  0.69851370190E+02  0.00000000000E+00 0.  1.
<mgrwt>
<rscale>  2 0.24291902E+02</rscale>
<asrwt>0</asrwt>
<pdfrwt beam="1">  1       21 0.66944631E-02 0.24291902E+02</pdfrwt>
<pdfrwt beam="2">  1       -3 0.10960067E-01 0.24291902E+02</pdfrwt>
<totfact> 0.33593713E+05</totfact>
</mgrwt>
</event>
<event>
 4    1  0.2260076E+006  0.2016228E+02  0.7546771E-02  0.1742120E+00
          1   -1    0    0  502    0 -0.00000000000E+00  0.00000000000E+00  0.55424956457E+03  0.55424956457E+03  0.00000000000E+00 0. -1.
         21   -1    0    0  503  502  0.00000000000E+00 -0.00000000000E+00 -0.77910353704E+00  0.77910353704E+00  0.00000000000E+00 0. -1.
         21    1    1    2  503  501 -0.19428710821E+02  0.53891297652E+01  0.20956176566E+03  0.21052945435E+03  0.00000000000E+00 0. -1.
          1    1    1    2  501    0  0.19428710821E+02 -0.53891297652E+01  0.34390869537E+03  0.34449921375E+03  0.00000000000E+00 0. -1.
<mgrwt>
<rscale>  2 0.20162280E+02</rscale>
<asrwt>0</asrwt>
<pdfrwt beam="2">  1       21 0.11986253E-03 0.20162280E+02</pdfrwt>
<pdfrwt beam="1">  1        1 0.85268848E-01 0.20162280E+02</pdfrwt>
<totfact> 0.26766780E+07</totfact>
</mgrwt>
</event>
<event>
 4    1  0.2260076E+006  0.2334516E+02  0.7546771E-02  0.1685975E+00
         21   -1    0    0  503  502  0.00000000000E+00  0.00000000000E+00  0.60793388289E+02  0.60793388289E+02  0.00000000000E+00 0. -1.
         -2   -1    0    0    0  501 -0.00000000000E+00 -0.00000000000E+00 -0.11414549299E+03  0.11414549299E+03  0.00000000000E+00 0. -1.
         21    1    1    2  503  501 -0.38081536422E+01  0.23032470409E+02  0.57288332300E+02  0.61862345131E+02  0.00000000000E+00 0. -1.
         -2    1    1    2    0  502  0.38081536422E+01 -0.23032470409E+02 -0.11064043700E+03  0.11307653614E+03  0.00000000000E+00 0. -1.
<mgrwt>
<rscale>  2 0.23345165E+02</rscale>
<asrwt>0</asrwt>
<pdfrwt beam="1">  1       21 0.93528290E-02 0.23345165E+02</pdfrwt>
<pdfrwt beam="2">  1       -2 0.17560845E-01 0.23345165E+02</pdfrwt>
<totfact> 0.15385215E+05</totfact>
</mgrwt>
</event>
<event>
 4    1  0.2260076E+006  0.3033991E+02  0.7546771E-02  0.1594361E+00
          2   -1    0    0  502    0 -0.00000000000E+00  0.00000000000E+00  0.24016472395E+03  0.24016472395E+03  0.00000000000E+00 0. -1.
         21   -1    0    0  503  502  0.00000000000E+00 -0.00000000000E+00 -0.10219132395E+02  0.10219132395E+02  0.00000000000E+00 0. -1.
         21    1    1    2  503  501  0.96422288221E+01  0.28766957207E+02  0.16004959170E+02  0.34302611003E+02  0.00000000000E+00 0. -1.
          2    1    1    2  501    0 -0.96422288221E+01 -0.28766957207E+02  0.21394063239E+03  0.21608124535E+03  0.00000000000E+00 0. -1.
<mgrwt>
<rscale>  2 0.30339914E+02</rscale>
<asrwt>0</asrwt>
<pdfrwt beam="2">  1       21 0.15721744E-02 0.30339914E+02</pdfrwt>
<pdfrwt beam="1">  1        2 0.36948415E-01 0.30339914E+02</pdfrwt>
<totfact> 0.24027932E+06</totfact>
</mgrwt>
</event>
