<event>
 4    1  0.4050555E+000  0.5692525E+03  0.7546771E-02  0.9971334E-01
         21   -1    0    0  501  502  0.00000000000E+00  0.00000000000E+00  0.70015485405E+03  0.70015485405E+03  0.00000000000E+00 0. -1.
         21   -1    0    0  502  503 -0.00000000000E+00 -0.00000000000E+00 -0.64771780617E+03  0.64771780617E+03  0.00000000000E+00 0.  1.
          6    1    1    2  501    0 -0.33575453479E+03  0.42589706234E+03  0.38628876040E+03  0.68794434495E+03  0.17300000000E+03 0. -1.
         -6    1    1    2    0  503  0.33575453479E+03 -0.42589706234E+03 -0.33385171252E+03  0.65992831527E+03  0.17300000000E+03 0.  1.
<mgrwt>
<rscale>  2 0.56925251E+03</rscale>
<asrwt>0</asrwt>
<pdfrwt beam="1">  1       21 0.10771613E+00 0.56925251E+03</pdfrwt>
<pdfrwt beam="2">  1       21 0.99648893E-01 0.56925251E+03</pdfrwt>
<totfact> 0.45312698E+02</totfact>
</mgrwt>
</event>
<event>
 4    1  0.4050555E+000  0.2023441E+03  0.7546771E-02  0.1147776E+00
         21   -1    0    0  503  502  0.00000000000E+00  0.00000000000E+00  0.31143816764E+03  0.31143816764E+03  0.00000000000E+00 0. -1.
         21   -1    0    0  501  503 -0.00000000000E+00 -0.00000000000E+00 -0.13291415022E+03  0.13291415022E+03  0.00000000000E+00 0.  1.
          6    1    1    2  501    0  0.73414716898E+02  0.74996103730E+02  0.66060927329E+02  0.21285483868E+03  0.17300000000E+03 0.  1.
         -6    1    1    2    0  502 -0.73414716898E+02 -0.74996103730E+02  0.11246309009E+03  0.23149747918E+03  0.17300000000E+03 0.  1.
<mgrwt>
<rscale>  2 0.20234410E+03</rscale>
<asrwt>0</asrwt>
<pdfrwt beam="1">  1       21 0.47913564E-01 0.20234410E+03</pdfrwt>
<pdfrwt beam="2">  1       21 0.20448331E-01 0.20234410E+03</pdfrwt>
<totfact> 0.91832098E+04</totfact>
</mgrwt>
</event>
<event>
 4    1  0.4050555E+000  0.2100618E+03  0.7546771E-02  0.1141517E+00
         21   -1    0    0  503  502  0.00000000000E+00  0.00000000000E+00  0.13567582729E+03  0.13567582729E+03  0.00000000000E+00 0. -1.
         21   -1    0    0  501  503 -0.00000000000E+00 -0.00000000000E+00 -0.56251803777E+03  0.56251803777E+03  0.00000000000E+00 0.  1.
          6    1    1    2  501    0 -0.11813605226E+03 -0.15519090835E+02 -0.44015420277E+03  0.48771066344E+03  0.17300000000E+03 0.  1.
         -6    1    1    2    0  502  0.11813605226E+03  0.15519090835E+02  0.13311992282E+02  0.21048320161E+03  0.17300000000E+03 0. -1.
<mgrwt>
<rscale>  2 0.21006182E+03</rscale>
<asrwt>0</asrwt>
<pdfrwt beam="1">  1       21 0.20873204E-01 0.21006182E+03</pdfrwt>
<pdfrwt beam="2">  1       21 0.86541237E-01 0.21006182E+03</pdfrwt>
<totfact> 0.24255666E+04</totfact>
</mgrwt>
</event>
<event>
 4    1  0.4050555E+000  0.2682976E+03  0.7546771E-02  0.1102258E+00
         21   -1    0    0  501  502  0.00000000000E+00  0.00000000000E+00  0.17822041982E+03  0.17822041982E+03  0.00000000000E+00 0.  1.
         21   -1    0    0  502  503 -0.00000000000E+00 -0.00000000000E+00 -0.74558140526E+03  0.74558140526E+03  0.00000000000E+00 0.  1.
          6    1    1    2  501    0 -0.17780870577E+03 -0.10216967214E+03  0.29007143683E+02  0.26986106080E+03  0.17300000000E+03 0.  1.
         -6    1    1    2    0  503  0.17780870577E+03  0.10216967214E+03 -0.59636812912E+03  0.65394076428E+03  0.17300000000E+03 0.  1.
<mgrwt>
<rscale>  2 0.26829755E+03</rscale>
<asrwt>0</asrwt>
<pdfrwt beam="1">  1       21 0.27418526E-01 0.26829755E+03</pdfrwt>
<pdfrwt beam="2">  1       21 0.11470483E+00 0.26829755E+03</pdfrwt>
<totfact> 0.71212202E+03</totfact>
</mgrwt>
</event>
<event>
 4    1  0.4050555E+000  0.1954335E+03  0.7546771E-02  0.1153650E+00
         21   -1    0    0  503  502  0.00000000000E+00  0.00000000000E+00  0.21315497639E+03  0.21315497639E+03  0.00000000000E+00 0. -1.
         21   -1    0    0  501  503 -0.00000000000E+00 -0.00000000000E+00 -0.28479638507E+03  0.28479638507E+03  0.00000000000E+00 0.  1.
          6    1    1    2  501    0  0.41603246934E+02 -0.80835756535E+02 -0.18743646026E+03  0.27078898856E+03  0.17300000000E+03 0.  1.
         -6    1    1    2    0  502 -0.41603246934E+02  0.80835756535E+02  0.11579505158E+03  0.22716237290E+03  0.17300000000E+03 0. -1.
<mgrwt>
<rscale>  2 0.19543349E+03</rscale>
<asrwt>0</asrwt>
<pdfrwt beam="1">  1       21 0.32793073E-01 0.19543349E+03</pdfrwt>
<pdfrwt beam="2">  1       21 0.43814828E-01 0.19543349E+03</pdfrwt>
<totfact> 0.44739308E+04</totfact>
</mgrwt>
</event>
<event>
 4    1  0.4050555E+000  0.4183456E+03  0.7546771E-02  0.1037606E+00
         21   -1    0    0  501  502  0.00000000000E+00  0.00000000000E+00  0.74713085410E+03  0.74713085410E+03  0.00000000000E+00 0.  1.
         21   -1    0    0  502  503 -0.00000000000E+00 -0.00000000000E+00 -0.26156711073E+03  0.26156711073E+03  0.00000000000E+00 0.  1.
          6    1    1    2  501    0 -0.22099463825E+03  0.31023447390E+03  0.40577972948E+03  0.58281236070E+03  0.17300000000E+03 0.  1.
         -6    1    1    2    0  503  0.22099463825E+03 -0.31023447390E+03  0.79784013892E+02  0.42588560413E+03  0.17300000000E+03 0.  1.
<mgrwt>
<rscale>  2 0.41834562E+03</rscale>
<asrwt>0</asrwt>
<pdfrwt beam="1">  1       21 0.11494321E+00 0.41834562E+03</pdfrwt>
<pdfrwt beam="2">  1       21 0.40241094E-01 0.41834562E+03</pdfrwt>
<totfact> 0.30686228E+03</totfact>
</mgrwt>
</event>
<event>
 4    1  0.4050555E+000  0.2753543E+03  0.7546771E-02  0.1098254E+00
         21   -1    0    0  503  502  0.00000000000E+00  0.00000000000E+00  0.68311576680E+03  0.68311576680E+03  0.00000000000E+00 0. -1.
         21   -1    0    0  501  503 -0.00000000000E+00 -0.00000000000E+00 -0.13179842035E+03  0.13179842035E+03  0.00000000000E+00 0. -1.
          6    1    1    2  501    0  0.18555616612E+03  0.10705102038E+03  0.11376451806E+03  0.29793015511E+03  0.17300000000E+03 0. -1.
         -6    1    1    2    0  502 -0.18555616612E+03 -0.10705102038E+03  0.43755282839E+03  0.51698403204E+03  0.17300000000E+03 0. -1.
<mgrwt>
<rscale>  2 0.27535434E+03</rscale>
<asrwt>0</asrwt>
<pdfrwt beam="1">  1       21 0.10509473E+00 0.27535434E+03</pdfrwt>
<pdfrwt beam="2">  1       21 0.20276681E-01 0.27535434E+03</pdfrwt>
<totfact> 0.15655157E+04</totfact>
</mgrwt>
</event>
<event>
 4    1  0.4050555E+000  0.2000015E+03  0.7546771E-02  0.1149738E+00
         21   -1    0    0  503  502  0.00000000000E+00  0.00000000000E+00  0.44476725336E+03  0.44476725336E+03  0.00000000000E+00 0. -1.
         21   -1    0    0  501  503 -0.00000000000E+00 -0.00000000000E+00 -0.11237519705E+03  0.11237519705E+03  0.00000000000E+00 0. -1.
          6    1    1    2  501    0 -0.15111544152E+02 -0.99213037383E+02  0.41714553654E+02  0.20430538304E+03  0.17300000000E+03 0. -1.
         -6    1    1    2    0  502  0.15111544152E+02  0.99213037383E+02  0.29067750265E+03  0.35283706736E+03  0.17300000000E+03 0. -1.
<mgrwt>
<rscale>  2 0.20000146E+03</rscale>
<asrwt>0</asrwt>
<pdfrwt beam="1">  1       21 0.68425730E-01 0.20000146E+03</pdfrwt>
<pdfrwt beam="2">  1       21 0.17288492E-01 0.20000146E+03</pdfrwt>
<totfact> 0.58712636E+04</totfact>
</mgrwt>
</event>
<event>
 4    1  0.4050555E+000  0.1856512E+03  0.7546771E-02  0.1162443E+00
         21   -1    0    0  501  502  0.00000000000E+00  0.00000000000E+00  0.52104159780E+03  0.52104159780E+03  0.00000000000E+00 0.  1.
         21   -1    0    0  502  503 -0.00000000000E+00 -0.00000000000E+00 -0.76369723927E+02  0.76369723927E+02  0.00000000000E+00 0.  1.
          6    1    1    2  501    0  0.60693199475E+02 -0.29217929640E+02  0.33161195093E+03  0.38004320527E+03  0.17300000000E+03 0.  1.
         -6    1    1    2    0  503 -0.60693199475E+02  0.29217929640E+02  0.11305992294E+03  0.21736811646E+03  0.17300000000E+03 0.  1.
<mgrwt>
<rscale>  2 0.18565116E+03</rscale>
<asrwt>0</asrwt>
<pdfrwt beam="1">  1       21 0.80160244E-01 0.18565116E+03</pdfrwt>
<pdfrwt beam="2">  1       21 0.11749189E-01 0.18565116E+03</pdfrwt>
<totfact> 0.83678924E+04</totfact>
</mgrwt>
</event>
<event>
 4    1  0.4050555E+000  0.1734631E+03  0.7546771E-02  0.1174284E+00
         21   -1    0    0  503  502  0.00000000000E+00  0.00000000000E+00  0.18661374153E+03  0.18661374153E+03  0.00000000000E+00 0. -1.
         21   -1    0    0  501  503 -0.00000000000E+00 -0.00000000000E+00 -0.17518832042E+03  0.17518832042E+03  0.00000000000E+00 0. -1.
          6    1    1    2  501    0 -0.10655666427E+02 -0.68483060399E+01 -0.45333385798E+02  0.17928903589E+03  0.17300000000E+03 0. -1.
         -6    1    1    2    0  502  0.10655666427E+02  0.68483060399E+01  0.56758806904E+02  0.18251302607E+03  0.17300000000E+03 0. -1.
<mgrwt>
<rscale>  2 0.17346309E+03</rscale>
<asrwt>0</asrwt>
<pdfrwt beam="1">  1       21 0.28709806E-01 0.17346309E+03</pdfrwt>
<pdfrwt beam="2">  1       21 0.26952049E-01 0.17346309E+03</pdfrwt>
<totfact> 0.15315665E+05</totfact>
</mgrwt>
</event>
<event>
 4    1  0.4050555E+000  0.1903199E+03  0.7546771E-02  0.1158173E+00
         21   -1    0    0  503  502  0.00000000000E+00  0.00000000000E+00  0.24612294891E+03  0.24612294891E+03  0.00000000000E+00 0.  1.
         21   -1    0    0  501  503 -0.00000000000E+00 -0.00000000000E+00 -0.16536891901E+03  0.16536891901E+03  0.00000000000E+00 0.  1.
          6    1    1    2  501    0 -0.33636973034E+02  0.71841683239E+02 -0.27878664802E+02  0.19235096401E+03  0.17300000000E+03 0.  1.
         -6    1    1    2    0  502  0.33636973034E+02 -0.71841683239E+02  0.10863269470E+03  0.21914090390E+03  0.17300000000E+03 0.  1.
<mgrwt>
<rscale>  2 0.19031992E+03</rscale>
<asrwt>0</asrwt>
<pdfrwt beam="1">  1       21 0.37865069E-01 0.19031992E+03</pdfrwt>
<pdfrwt beam="2">  1       21 0.25441372E-01 0.19031992E+03</pdfrwt>
<totfact> 0.98622064E+04</totfact>
</mgrwt>
</event>
<event>
 4    1  0.4050555E+000  0.1827960E+03  0.7546771E-02  0.1165124E+00
         21   -1    0    0  503  502  0.00000000000E+00  0.00000000000E+00  0.47761493414E+03  0.47761493414E+03  0.00000000000E+00 0.  1.
         21   -1    0    0  501  503 -0.00000000000E+00 -0.00000000000E+00 -0.90828665500E+02  0.90828665500E+02  0.00000000000E+00 0.  1.
          6    1    1    2  501    0 -0.22272225325E+02 -0.54674657484E+02  0.57159638075E+02  0.19152439640E+03  0.17300000000E+03 0.  1.
         -6    1    1    2    0  502  0.22272225325E+02  0.54674657484E+02  0.32962663056E+03  0.37691920324E+03  0.17300000000E+03 0.  1.
<mgrwt>
<rscale>  2 0.18279598E+03</rscale>
<asrwt>0</asrwt>
<pdfrwt beam="1">  1       21 0.73479219E-01 0.18279598E+03</pdfrwt>
<pdfrwt beam="2">  1       21 0.13973641E-01 0.18279598E+03</pdfrwt>
<totfact> 0.74562243E+04</totfact>
</mgrwt>
</event>
<event>
 4    1  0.4050555E+000  0.1745239E+03  0.7546771E-02  0.1173211E+00
         21   -1    0    0  503  502  0.00000000000E+00  0.00000000000E+00  0.16881164892E+03  0.16881164892E+03  0.00000000000E+00 0.  1.
         21   -1    0    0  501  503 -0.00000000000E+00 -0.00000000000E+00 -0.19117540849E+03  0.19117540849E+03  0.00000000000E+00 0.  1.
          6    1    1    2  501    0  0.18343929578E+02 -0.13895162028E+02 -0.53856098070E+02  0.18264461279E+03  0.17300000000E+03 0.  1.
         -6    1    1    2    0  502 -0.18343929578E+02  0.13895162028E+02  0.31492338498E+02  0.17734244462E+03  0.17300000000E+03 0.  1.
<mgrwt>
<rscale>  2 0.17452385E+03</rscale>
<asrwt>0</asrwt>
<pdfrwt beam="1">  1       21 0.25971023E-01 0.17452385E+03</pdfrwt>
<pdfrwt beam="2">  1       21 0.29411601E-01 0.17452385E+03</pdfrwt>
<totfact> 0.15686073E+05</totfact>
</mgrwt>
</event>
<event>
 4    1  0.4050555E+000  0.1854568E+03  0.7546771E-02  0.1162624E+00
         21   -1    0    0  503  502  0.00000000000E+00  0.00000000000E+00  0.57357716406E+03  0.57357716406E+03  0.00000000000E+00 0.  1.
         21   -1    0    0  501  503 -0.00000000000E+00 -0.00000000000E+00 -0.62175653095E+02  0.62175653095E+02  0.00000000000E+00 0. -1.
          6    1    1    2  501    0 -0.22630620727E+02 -0.62873552193E+02  0.19575419719E+03  0.26965521370E+03  0.17300000000E+03 0. -1.
         -6    1    1    2    0  502  0.22630620727E+02  0.62873552193E+02  0.31564731377E+03  0.36609760345E+03  0.17300000000E+03 0.  1.
<mgrwt>
<rscale>  2 0.18545681E+03</rscale>
<asrwt>0</asrwt>
<pdfrwt beam="1">  1       21 0.88242637E-01 0.18545681E+03</pdfrwt>
<pdfrwt beam="2">  1       21 0.95654855E-02 0.18545681E+03</pdfrwt>
<totfact> 0.96775400E+04</totfact>
</mgrwt>
</event>
<event>
 4    1  0.4050555E+000  0.2388711E+03  0.7546771E-02  0.1120547E+00
         21   -1    0    0  501  502  0.00000000000E+00  0.00000000000E+00  0.14913893710E+03  0.14913893710E+03  0.00000000000E+00 0. -1.
         21   -1    0    0  502  503 -0.00000000000E+00 -0.00000000000E+00 -0.75827405874E+03  0.75827405874E+03  0.00000000000E+00 0.  1.
          6    1    1    2  501    0  0.15993445799E+03 -0.39387521213E+02  0.14786144227E+02  0.23932830535E+03  0.17300000000E+03 0. -1.
         -6    1    1    2    0  503 -0.15993445799E+03  0.39387521213E+02 -0.62392126586E+03  0.66808469049E+03  0.17300000000E+03 0.  1.
<mgrwt>
<rscale>  2 0.23887111E+03</rscale>
<asrwt>0</asrwt>
<pdfrwt beam="1">  1       21 0.22944452E-01 0.23887111E+03</pdfrwt>
<pdfrwt beam="2">  1       21 0.11665755E+00 0.23887111E+03</pdfrwt>
<totfact> 0.97866833E+03</totfact>
</mgrwt>
</event>
<event>
 4    1  0.4050555E+000  0.1783331E+03  0.7546771E-02  0.1169426E+00
         21   -1    0    0  501  502  0.00000000000E+00  0.00000000000E+00  0.10433013845E+03  0.10433013845E+03  0.00000000000E+00 0. -1.
         21   -1    0    0  502  503 -0.00000000000E+00 -0.00000000000E+00 -0.39202851809E+03  0.39202851809E+03  0.00000000000E+00 0.  1.
          6    1    1    2  501    0  0.29506812278E+02 -0.31670790572E+02 -0.26800203890E+02  0.18033563673E+03  0.17300000000E+03 0. -1.
         -6    1    1    2    0  503 -0.29506812278E+02  0.31670790572E+02 -0.26089817575E+03  0.31602301982E+03  0.17300000000E+03 0.  1.
<mgrwt>
<rscale>  2 0.17833309E+03</rscale>
<asrwt>0</asrwt>
<pdfrwt beam="1">  1       21 0.16050791E-01 0.17833309E+03</pdfrwt>
<pdfrwt beam="2">  1       21 0.60312079E-01 0.17833309E+03</pdfrwt>
<totfact> 0.89341050E+04</totfact>
</mgrwt>
</event>
<event>
 4    1  0.4050555E+000  0.3791913E+03  0.7546771E-02  0.1051233E+00
         21   -1    0    0  501  502  0.00000000000E+00  0.00000000000E+00  0.12952686643E+03  0.12952686643E+03  0.00000000000E+00 0. -1.
         21   -1    0    0  502  503 -0.00000000000E+00 -0.00000000000E+00 -0.13267293244E+04  0.13267293244E+04  0.00000000000E+00 0.  1.
          6    1    1    2  501    0 -0.26429310741E+03 -0.20977647156E+03 -0.30436993231E+03  0.48623766857E+03  0.17300000000E+03 0. -1.
         -6    1    1    2    0  503  0.26429310741E+03  0.20977647156E+03 -0.89283252570E+03  0.97001852230E+03  0.17300000000E+03 0.  1.
<mgrwt>
<rscale>  2 0.37919126E+03</rscale>
<asrwt>0</asrwt>
<pdfrwt beam="1">  1       21 0.19927210E-01 0.37919126E+03</pdfrwt>
<pdfrwt beam="2">  1       21 0.20411221E+00 0.37919126E+03</pdfrwt>
<totfact> 0.25735204E+03</totfact>
</mgrwt>
</event>
<event>
 4    1  0.4050555E+000  0.2491433E+03  0.7546771E-02  0.1113847E+00
         21   -1    0    0  503  502  0.00000000000E+00  0.00000000000E+00  0.28946052633E+03  0.28946052633E+03  0.00000000000E+00 0. -1.
         21   -1    0    0  501  503 -0.00000000000E+00 -0.00000000000E+00 -0.68570188866E+03  0.68570188866E+03  0.00000000000E+00 0.  1.
          6    1    1    2  501    0  0.17468131574E+03 -0.40371143998E+02 -0.60233313272E+03  0.65182635273E+03  0.17300000000E+03 0.  1.
         -6    1    1    2    0  502 -0.17468131574E+03  0.40371143998E+02  0.20609177039E+03  0.32333606226E+03  0.17300000000E+03 0. -1.
<mgrwt>
<rscale>  2 0.24914331E+03</rscale>
<asrwt>0</asrwt>
<pdfrwt beam="1">  1       21 0.44532389E-01 0.24914331E+03</pdfrwt>
<pdfrwt beam="2">  1       21 0.10549260E+00 0.24914331E+03</pdfrwt>
<totfact> 0.33501406E+03</totfact>
</mgrwt>
</event>
<event>
 4    1  0.4050555E+000  0.1912860E+03  0.7546771E-02  0.1157307E+00
         21   -1    0    0  501  502  0.00000000000E+00  0.00000000000E+00  0.92605958535E+03  0.92605958535E+03  0.00000000000E+00 0. -1.
         21   -1    0    0  502  503 -0.00000000000E+00 -0.00000000000E+00 -0.92333253505E+02  0.92333253505E+02  0.00000000000E+00 0. -1.
          6    1    1    2  501    0 -0.80785086895E+02 -0.11622606717E+02  0.80199666378E+03  0.82449315581E+03  0.17300000000E+03 0. -1.
         -6    1    1    2    0  503  0.80785086895E+02  0.11622606717E+02  0.31729668063E+02  0.19389968305E+03  0.17300000000E+03 0. -1.
<mgrwt>
<rscale>  2 0.19128595E+03</rscale>
<asrwt>0</asrwt>
<pdfrwt beam="1">  1       21 0.14247070E+00 0.19128595E+03</pdfrwt>
<pdfrwt beam="2">  1       21 0.14205117E-01 0.19128595E+03</pdfrwt>
<totfact> 0.14824678E+04</totfact>
</mgrwt>
</event>
<event>
 4    1  0.4050555E+000  0.1866087E+03  0.7546771E-02  0.1161556E+00
         21   -1    0    0  503  502  0.00000000000E+00  0.00000000000E+00  0.37847690886E+03  0.37847690886E+03  0.00000000000E+00 0. -1.
         21   -1    0    0  501  503 -0.00000000000E+00 -0.00000000000E+00 -0.14832485133E+03  0.14832485133E+03  0.00000000000E+00 0. -1.
          6    1    1    2  501    0 -0.60120887806E+02 -0.35767041981E+02 -0.47228438093E+02  0.19249240974E+03  0.17300000000E+03 0.  1.
         -6    1    1    2    0  502  0.60120887806E+02  0.35767041981E+02  0.27738049562E+03  0.33430935044E+03  0.17300000000E+03 0.  1.
<mgrwt>
<rscale>  2 0.18660869E+03</rscale>
<asrwt>0</asrwt>
<pdfrwt beam="1">  1       21 0.58227216E-01 0.18660869E+03</pdfrwt>
<pdfrwt beam="2">  1       21 0.22819208E-01 0.18660869E+03</pdfrwt>
<totfact> 0.49921027E+04</totfact>
</mgrwt>
</event>
<event>
 4    1  0.4050555E+000  0.2158124E+03  0.7546771E-02  0.1137044E+00
         21   -1    0    0  503  502  0.00000000000E+00  0.00000000000E+00  0.11658750717E+03  0.11658750717E+03  0.00000000000E+00 0.  1.
         21   -1    0    0  501  503 -0.00000000000E+00 -0.00000000000E+00 -0.73099008670E+03  0.73099008670E+03  0.00000000000E+00 0. -1.
          6    1    1    2  501    0 -0.12750004210E+03  0.19741595655E+02 -0.59259122446E+03  0.63066579949E+03  0.17300000000E+03 0. -1.
         -6    1    1    2    0  502  0.12750004210E+03 -0.19741595655E+02 -0.21811355070E+02  0.21691179438E+03  0.17300000000E+03 0.  1.
<mgrwt>
<rscale>  2 0.21581240E+03</rscale>
<asrwt>0</asrwt>
<pdfrwt beam="1">  1       21 0.17936540E-01 0.21581240E+03</pdfrwt>
<pdfrwt beam="2">  1       21 0.11246001E+00 0.21581240E+03</pdfrwt>
<totfact> 0.17237700E+04</totfact>
</mgrwt>
</event>
<event>
 4    1  0.4050555E+000  0.1948328E+03  0.7546771E-02  0.1154173E+00
         21   -1    0    0  501  502  0.00000000000E+00  0.00000000000E+00  0.11507633113E+03  0.11507633113E+03  0.00000000000E+00 0.  1.
         21   -1    0    0  502  503 -0.00000000000E+00 -0.00000000000E+00 -0.48380373995E+03  0.48380373995E+03  0.00000000000E+00 0.  1.
          6    1    1    2  501    0 -0.85404582536E+02  0.27145232541E+02 -0.15456820243E+02  0.19544492743E+03  0.17300000000E+03 0.  1.
         -6    1    1    2    0  503  0.85404582536E+02 -0.27145232541E+02 -0.35327058858E+03  0.40343514364E+03  0.17300000000E+03 0.  1.
<mgrwt>
<rscale>  2 0.19483277E+03</rscale>
<asrwt>0</asrwt>
<pdfrwt beam="1">  1       21 0.17704051E-01 0.19483277E+03</pdfrwt>
<pdfrwt beam="2">  1       21 0.74431345E-01 0.19483277E+03</pdfrwt>
<totfact> 0.46765432E+04</totfact>
</mgrwt>
</event>
<event>
 4    1  0.4050555E+000  0.2304919E+03  0.7546771E-02  0.1126294E+00
         21   -1    0    0  501  502  0.00000000000E+00  0.00000000000E+00  0.35281694772E+03  0.35281694772E+03  0.00000000000E+00 0.  1.
         21   -1    0    0  502  503 -0.00000000000E+00 -0.00000000000E+00 -0.61870647172E+03  0.61870647172E+03  0.00000000000E+00 0.  1.
          6    1    1    2  501    0  0.15156942645E+03 -0.14973438922E+02  0.28959097338E+03  0.37012082726E+03  0.17300000000E+03 0.  1.
         -6    1    1    2    0  503 -0.15156942645E+03  0.14973438922E+02 -0.55548049738E+03  0.60140259218E+03  0.17300000000E+03 0.  1.
<mgrwt>
<rscale>  2 0.23049185E+03</rscale>
<asrwt>0</asrwt>
<pdfrwt beam="1">  1       21 0.54279531E-01 0.23049185E+03</pdfrwt>
<pdfrwt beam="2">  1       21 0.95185610E-01 0.23049185E+03</pdfrwt>
<totfact> 0.28682732E+03</totfact>
</mgrwt>
</event>
<event>
 4    1  0.4050555E+000  0.1758782E+03  0.7546771E-02  0.1171853E+00
         21   -1    0    0  503  502  0.00000000000E+00  0.00000000000E+00  0.10775613052E+03  0.10775613052E+03  0.00000000000E+00 0.  1.
         21   -1    0    0  501  503 -0.00000000000E+00 -0.00000000000E+00 -0.99360106059E+03  0.99360106059E+03  0.00000000000E+00 0.  1.
          6    1    1    2  501    0  0.23103378728E+02 -0.21687744585E+02 -0.90728697798E+03  0.92417681468E+03  0.17300000000E+03 0.  1.
         -6    1    1    2    0  502 -0.23103378728E+02  0.21687744585E+02  0.21442047920E+02  0.17718037643E+03  0.17300000000E+03 0.  1.
<mgrwt>
<rscale>  2 0.17587815E+03</rscale>
<asrwt>0</asrwt>
<pdfrwt beam="1">  1       21 0.16577866E-01 0.17587815E+03</pdfrwt>
<pdfrwt beam="2">  1       21 0.15286170E+00 0.17587815E+03</pdfrwt>
<totfact> 0.94143159E+03</totfact>
</mgrwt>
</event>
<event>
 4    1  0.4050555E+000  0.2008433E+03  0.7546771E-02  0.1149029E+00
         21   -1    0    0  503  502  0.00000000000E+00  0.00000000000E+00  0.22197882484E+03  0.22197882484E+03  0.00000000000E+00 0.  1.
         21   -1    0    0  501  503 -0.00000000000E+00 -0.00000000000E+00 -0.59843132454E+03  0.59843132454E+03  0.00000000000E+00 0.  1.
          6    1    1    2  501    0 -0.10077829173E+03  0.15899070447E+02 -0.53052979569E+03  0.56727410362E+03  0.17300000000E+03 0.  1.
         -6    1    1    2    0  502  0.10077829173E+03 -0.15899070447E+02  0.15407729599E+03  0.25313604576E+03  0.17300000000E+03 0.  1.
<mgrwt>
<rscale>  2 0.20084333E+03</rscale>
<asrwt>0</asrwt>
<pdfrwt beam="1">  1       21 0.34150589E-01 0.20084333E+03</pdfrwt>
<pdfrwt beam="2">  1       21 0.92066356E-01 0.20084333E+03</pdfrwt>
<totfact> 0.81858480E+03</totfact>
</mgrwt>
</event>
<event>
 4    1  0.4050555E+000  0.2313086E+03  0.7546771E-02  0.1125722E+00
         21   -1    0    0  501  502  0.00000000000E+00  0.00000000000E+00  0.10778663576E+03  0.10778663576E+03  0.00000000000E+00 0.  1.
         21   -1    0    0  502  503 -0.00000000000E+00 -0.00000000000E+00 -0.49638520146E+03  0.49638520146E+03  0.00000000000E+00 0.  1.
          6    1    1    2  501    0  0.15165070630E+03 -0.24015589895E+02 -0.19420131605E+03  0.30202290714E+03  0.17300000000E+03 0.  1.
         -6    1    1    2    0  503 -0.15165070630E+03  0.24015589895E+02 -0.19439724965E+03  0.30214893008E+03  0.17300000000E+03 0.  1.
<mgrwt>
<rscale>  2 0.23130864E+03</rscale>
<asrwt>0</asrwt>
<pdfrwt beam="1">  1       21 0.16582560E-01 0.23130864E+03</pdfrwt>
<pdfrwt beam="2">  1       21 0.76366953E-01 0.23130864E+03</pdfrwt>
<totfact> 0.48957486E+04</totfact>
</mgrwt>
</event>
<event>
 4    1  0.4050555E+000  0.4760318E+03  0.7546771E-02  0.1020231E+00
         21   -1    0    0  501  502  0.00000000000E+00  0.00000000000E+00  0.38294797261E+03  0.38294797261E+03  0.00000000000E+00 0. -1.
         21   -1    0    0  502  503 -0.00000000000E+00 -0.00000000000E+00 -0.65601532314E+03  0.65601532314E+03  0.00000000000E+00 0.  1.
          6    1    1    2  501    0  0.14224019181E+03 -0.42005353725E+03  0.26069845127E+02  0.47674509242E+03  0.17300000000E+03 0. -1.
         -6    1    1    2    0  503 -0.14224019181E+03  0.42005353725E+03 -0.29913719565E+03  0.56221820332E+03  0.17300000000E+03 0.  1.
<mgrwt>
<rscale>  2 0.47603177E+03</rscale>
<asrwt>0</asrwt>
<pdfrwt beam="1">  1       21 0.58915073E-01 0.47603177E+03</pdfrwt>
<pdfrwt beam="2">  1       21 0.10092543E+00 0.47603177E+03</pdfrwt>
<totfact> 0.18458330E+03</totfact>
</mgrwt>
</event>
<event>
 4    1  0.4050555E+000  0.1736963E+03  0.7546771E-02  0.1174047E+00
         21   -1    0    0  503  502  0.00000000000E+00  0.00000000000E+00  0.12968559927E+03  0.12968559927E+03  0.00000000000E+00 0.  1.
         21   -1    0    0  501  503 -0.00000000000E+00 -0.00000000000E+00 -0.29492617396E+03  0.29492617396E+03  0.00000000000E+00 0.  1.
          6    1    1    2  501    0 -0.11754388764E+02  0.10160785172E+02 -0.18018478482E+03  0.25027377787E+03  0.17300000000E+03 0. -1.
         -6    1    1    2    0  502  0.11754388764E+02 -0.10160785172E+02  0.14944210121E+02  0.17433799536E+03  0.17300000000E+03 0. -1.
<mgrwt>
<rscale>  2 0.17369631E+03</rscale>
<asrwt>0</asrwt>
<pdfrwt beam="1">  1       21 0.19951630E-01 0.17369631E+03</pdfrwt>
<pdfrwt beam="2">  1       21 0.45373258E-01 0.17369631E+03</pdfrwt>
<totfact> 0.10879162E+05</totfact>
</mgrwt>
</event>
<event>
 4    1  0.4050555E+000  0.1826278E+03  0.7546771E-02  0.1165284E+00
         21   -1    0    0  503  502  0.00000000000E+00  0.00000000000E+00  0.28455581286E+03  0.28455581286E+03  0.00000000000E+00 0. -1.
         21   -1    0    0  501  503 -0.00000000000E+00 -0.00000000000E+00 -0.27631147842E+03  0.27631147842E+03  0.00000000000E+00 0. -1.
          6    1    1    2  501    0  0.52396841878E+02  0.26047417711E+02 -0.20867568178E+03  0.27730567461E+03  0.17300000000E+03 0. -1.
         -6    1    1    2    0  502 -0.52396841878E+02 -0.26047417711E+02  0.21692001622E+03  0.28356161666E+03  0.17300000000E+03 0. -1.
<mgrwt>
<rscale>  2 0.18262776E+03</rscale>
<asrwt>0</asrwt>
<pdfrwt beam="1">  1       21 0.43777817E-01 0.18262776E+03</pdfrwt>
<pdfrwt beam="2">  1       21 0.42509458E-01 0.18262776E+03</pdfrwt>
<totfact> 0.26841368E+04</totfact>
</mgrwt>
</event>
<event>
 4    1  0.4050555E+000  0.1862537E+03  0.7546771E-02  0.1161884E+00
         21   -1    0    0  503  502  0.00000000000E+00  0.00000000000E+00  0.15067704639E+03  0.15067704639E+03  0.00000000000E+00 0. -1.
         21   -1    0    0  501  503 -0.00000000000E+00 -0.00000000000E+00 -0.23451341853E+03  0.23451341853E+03  0.00000000000E+00 0. -1.
          6    1    1    2  501    0  0.25973382174E+01  0.68954319241E+02 -0.67945783882E+02  0.19826011665E+03  0.17300000000E+03 0. -1.
         -6    1    1    2    0  502 -0.25973382174E+01 -0.68954319241E+02 -0.15890588258E+02  0.18693034827E+03  0.17300000000E+03 0. -1.
<mgrwt>
<rscale>  2 0.18625371E+03</rscale>
<asrwt>0</asrwt>
<pdfrwt beam="1">  1       21 0.23181084E-01 0.18625371E+03</pdfrwt>
<pdfrwt beam="2">  1       21 0.36078988E-01 0.18625371E+03</pdfrwt>
<totfact> 0.12982958E+05</totfact>
</mgrwt>
</event>
<event>
 4    1  0.4050555E+000  0.2045238E+03  0.7546771E-02  0.1145977E+00
         21   -1    0    0  503  502  0.00000000000E+00  0.00000000000E+00  0.18163595402E+03  0.18163595402E+03  0.00000000000E+00 0. -1.
         21   -1    0    0  501  503 -0.00000000000E+00 -0.00000000000E+00 -0.23030006659E+03  0.23030006659E+03  0.00000000000E+00 0. -1.
          6    1    1    2  501    0  0.73378678337E+02  0.80725280631E+02 -0.25216279452E+02  0.20607246812E+03  0.17300000000E+03 0. -1.
         -6    1    1    2    0  502 -0.73378678337E+02 -0.80725280631E+02 -0.23447833124E+02  0.20586355249E+03  0.17300000000E+03 0. -1.
<mgrwt>
<rscale>  2 0.20452384E+03</rscale>
<asrwt>0</asrwt>
<pdfrwt beam="1">  1       21 0.27943993E-01 0.20452384E+03</pdfrwt>
<pdfrwt beam="2">  1       21 0.35430779E-01 0.20452384E+03</pdfrwt>
<totfact> 0.93481688E+04</totfact>
</mgrwt>
</event>
<event>
 4    1  0.4050555E+000  0.2322152E+03  0.7546771E-02  0.1125090E+00
         21   -1    0    0  501  502  0.00000000000E+00  0.00000000000E+00  0.21931031946E+03  0.21931031946E+03  0.00000000000E+00 0. -1.
         21   -1    0    0  502  503 -0.00000000000E+00 -0.00000000000E+00 -0.24733355070E+03  0.24733355070E+03  0.00000000000E+00 0.  1.
          6    1    1    2  501    0 -0.15484006802E+03 -0.44085656525E+01  0.38789457877E+01  0.23224755830E+03  0.17300000000E+03 0. -1.
         -6    1    1    2    0  503  0.15484006802E+03  0.44085656525E+01 -0.31902177032E+02  0.23439631186E+03  0.17300000000E+03 0. -1.
<mgrwt>
<rscale>  2 0.23221516E+03</rscale>
<asrwt>0</asrwt>
<pdfrwt beam="1">  1       21 0.33740049E-01 0.23221516E+03</pdfrwt>
<pdfrwt beam="2">  1       21 0.38051315E-01 0.23221516E+03</pdfrwt>
<totfact> 0.55368735E+04</totfact>
</mgrwt>
</event>
<event>
 4    1  0.4050555E+000  0.1795021E+03  0.7546771E-02  0.1168286E+00
         21   -1    0    0  503  502  0.00000000000E+00  0.00000000000E+00  0.18456649787E+03  0.18456649787E+03  0.00000000000E+00 0. -1.
         21   -1    0    0  501  503 -0.00000000000E+00 -0.00000000000E+00 -0.27095361675E+03  0.27095361675E+03  0.00000000000E+00 0. -1.
          6    1    1    2  501    0  0.38610370445E+02  0.28306461604E+02 -0.17903007228E+03  0.25352077480E+03  0.17300000000E+03 0. -1.
         -6    1    1    2    0  502 -0.38610370445E+02 -0.28306461604E+02  0.92642953402E+02  0.20199933982E+03  0.17300000000E+03 0. -1.
<mgrwt>
<rscale>  2 0.17950214E+03</rscale>
<asrwt>0</asrwt>
<pdfrwt beam="1">  1       21 0.28394846E-01 0.17950214E+03</pdfrwt>
<pdfrwt beam="2">  1       21 0.41685172E-01 0.17950214E+03</pdfrwt>
<totfact> 0.66070666E+04</totfact>
</mgrwt>
</event>
<event>
 4    1  0.4050555E+000  0.1790002E+03  0.7546771E-02  0.1168774E+00
         21   -1    0    0  503  502  0.00000000000E+00  0.00000000000E+00  0.97102322173E+02  0.97102322173E+02  0.00000000000E+00 0.  1.
         21   -1    0    0  501  503 -0.00000000000E+00 -0.00000000000E+00 -0.38659787466E+03  0.38659787466E+03  0.00000000000E+00 0.  1.
          6    1    1    2  501    0  0.27017387254E+02 -0.37177094567E+02 -0.23730767873E+03  0.29724738848E+03  0.17300000000E+03 0.  1.
         -6    1    1    2    0  502 -0.27017387254E+02  0.37177094567E+02 -0.52187873756E+02  0.18645280835E+03  0.17300000000E+03 0.  1.
<mgrwt>
<rscale>  2 0.17900021E+03</rscale>
<asrwt>0</asrwt>
<pdfrwt beam="1">  1       21 0.14938819E-01 0.17900021E+03</pdfrwt>
<pdfrwt beam="2">  1       21 0.59476595E-01 0.17900021E+03</pdfrwt>
<totfact> 0.10488948E+05</totfact>
</mgrwt>
</event>
<event>
 4    1  0.4050555E+000  0.2007157E+03  0.7546771E-02  0.1149137E+00
         21   -1    0    0  503  502  0.00000000000E+00  0.00000000000E+00  0.16822573692E+02  0.16822573692E+02  0.00000000000E+00 0. -1.
         21   -1    0    0  501  503 -0.00000000000E+00 -0.00000000000E+00 -0.27752057876E+04  0.27752057876E+04  0.00000000000E+00 0. -1.
          6    1    1    2  501    0  0.85013795534E+02 -0.55950254976E+02 -0.18960400106E+04  0.19066343378E+04  0.17300000000E+03 0. -1.
         -6    1    1    2    0  502 -0.85013795534E+02  0.55950254976E+02 -0.86234320339E+03  0.88539402353E+03  0.17300000000E+03 0. -1.
<mgrwt>
<rscale>  2 0.20071566E+03</rscale>
<asrwt>0</asrwt>
<pdfrwt beam="1">  1       21 0.25880874E-02 0.20071566E+03</pdfrwt>
<pdfrwt beam="2">  1       21 0.42695487E+00 0.20071566E+03</pdfrwt>
<totfact> 0.46977553E+03</totfact>
</mgrwt>
</event>
<event>
 4    1  0.4050555E+000  0.1786184E+03  0.7546771E-02  0.1169147E+00
         21   -1    0    0  503  502  0.00000000000E+00  0.00000000000E+00  0.10530439307E+03  0.10530439307E+03  0.00000000000E+00 0. -1.
         21   -1    0    0  501  503 -0.00000000000E+00 -0.00000000000E+00 -0.31928409699E+03  0.31928409699E+03  0.00000000000E+00 0. -1.
          6    1    1    2  501    0  0.16779507400E+02 -0.41158179081E+02 -0.59008666583E+02  0.18811318483E+03  0.17300000000E+03 0. -1.
         -6    1    1    2    0  502 -0.16779507400E+02  0.41158179081E+02 -0.15497103733E+03  0.23647530524E+03  0.17300000000E+03 0. -1.
<mgrwt>
<rscale>  2 0.17861844E+03</rscale>
<asrwt>0</asrwt>
<pdfrwt beam="1">  1       21 0.16200676E-01 0.17861844E+03</pdfrwt>
<pdfrwt beam="2">  1       21 0.49120629E-01 0.17861844E+03</pdfrwt>
<totfact> 0.13539569E+05</totfact>
</mgrwt>
</event>
<event>
 4    1  0.4050555E+000  0.1802778E+03  0.7546771E-02  0.1167534E+00
         21   -1    0    0  503  502  0.00000000000E+00  0.00000000000E+00  0.30791066380E+03  0.30791066380E+03  0.00000000000E+00 0. -1.
         21   -1    0    0  501  503 -0.00000000000E+00 -0.00000000000E+00 -0.10686679707E+03  0.10686679707E+03  0.00000000000E+00 0. -1.
          6    1    1    2  501    0 -0.67840506893E+01 -0.50249979987E+02  0.77504202263E+02  0.19623196784E+03  0.17300000000E+03 0.  1.
         -6    1    1    2    0  502  0.67840506893E+01  0.50249979987E+02  0.12353966446E+03  0.21854549304E+03  0.17300000000E+03 0.  1.
<mgrwt>
<rscale>  2 0.18027780E+03</rscale>
<asrwt>0</asrwt>
<pdfrwt beam="1">  1       21 0.47370871E-01 0.18027780E+03</pdfrwt>
<pdfrwt beam="2">  1       21 0.16441046E-01 0.18027780E+03</pdfrwt>
<totfact> 0.14199215E+05</totfact>
</mgrwt>
</event>
<event>
 4    1  0.4050555E+000  0.2145852E+03  0.7546771E-02  0.1137986E+00
         21   -1    0    0  501  502  0.00000000000E+00  0.00000000000E+00  0.94651722518E+02  0.94651722518E+02  0.00000000000E+00 0. -1.
         21   -1    0    0  502  503 -0.00000000000E+00 -0.00000000000E+00 -0.58168865406E+03  0.58168865406E+03  0.00000000000E+00 0. -1.
          6    1    1    2  501    0 -0.20954773449E+02  0.12521469883E+03 -0.10671015152E+03  0.23965366630E+03  0.17300000000E+03 0. -1.
         -6    1    1    2    0  503  0.20954773449E+02 -0.12521469883E+03 -0.38032678002E+03  0.43668671028E+03  0.17300000000E+03 0. -1.
<mgrwt>
<rscale>  2 0.21458524E+03</rscale>
<asrwt>0</asrwt>
<pdfrwt beam="1">  1       21 0.14561803E-01 0.21458524E+03</pdfrwt>
<pdfrwt beam="2">  1       21 0.89490565E-01 0.21458524E+03</pdfrwt>
<totfact> 0.43578662E+04</totfact>
</mgrwt>
</event>
<event>
 4    1  0.4050555E+000  0.2110797E+03  0.7546771E-02  0.1140714E+00
         21   -1    0    0  503  502  0.00000000000E+00  0.00000000000E+00  0.21175431147E+03  0.21175431147E+03  0.00000000000E+00 0.  1.
         21   -1    0    0  501  503 -0.00000000000E+00 -0.00000000000E+00 -0.23241883725E+03  0.23241883725E+03  0.00000000000E+00 0. -1.
          6    1    1    2  501    0 -0.16523870100E+02 -0.11980240435E+03 -0.78678052218E+02  0.22526626528E+03  0.17300000000E+03 0. -1.
         -6    1    1    2    0  502  0.16523870100E+02  0.11980240435E+03  0.58013526439E+02  0.21890688345E+03  0.17300000000E+03 0.  1.
<mgrwt>
<rscale>  2 0.21107973E+03</rscale>
<asrwt>0</asrwt>
<pdfrwt beam="1">  1       21 0.32577587E-01 0.21107973E+03</pdfrwt>
<pdfrwt beam="2">  1       21 0.35756744E-01 0.21107973E+03</pdfrwt>
<totfact> 0.67829245E+04</totfact>
</mgrwt>
</event>
<event>
 4    1  0.4050555E+000  0.2349294E+03  0.7546771E-02  0.1123218E+00
         21   -1    0    0  501  502  0.00000000000E+00  0.00000000000E+00  0.24372184502E+03  0.24372184502E+03  0.00000000000E+00 0.  1.
         21   -1    0    0  502  503 -0.00000000000E+00 -0.00000000000E+00 -0.31193365575E+03  0.31193365575E+03  0.00000000000E+00 0. -1.
          6    1    1    2  501    0  0.15735123338E+03  0.22436741536E+02  0.11133131332E+03  0.25997399743E+03  0.17300000000E+03 0.  1.
         -6    1    1    2    0  503 -0.15735123338E+03 -0.22436741536E+02 -0.17954312406E+03  0.29568150333E+03  0.17300000000E+03 0. -1.
<mgrwt>
<rscale>  2 0.23492939E+03</rscale>
<asrwt>0</asrwt>
<pdfrwt beam="1">  1       21 0.37495669E-01 0.23492939E+03</pdfrwt>
<pdfrwt beam="2">  1       21 0.47989793E-01 0.23492939E+03</pdfrwt>
<totfact> 0.27840679E+04</totfact>
</mgrwt>
</event>
<event>
 4    1  0.4050555E+000  0.1927207E+03  0.7546771E-02  0.1156030E+00
         21   -1    0    0  501  502  0.00000000000E+00  0.00000000000E+00  0.76040385211E+02  0.76040385211E+02  0.00000000000E+00 0.  1.
         21   -1    0    0  502  503 -0.00000000000E+00 -0.00000000000E+00 -0.49341379160E+03  0.49341379160E+03  0.00000000000E+00 0. -1.
          6    1    1    2  501    0  0.83022602321E+02 -0.17875110185E+02 -0.18010382935E+03  0.26377767420E+03  0.17300000000E+03 0.  1.
         -6    1    1    2    0  503 -0.83022602321E+02  0.17875110185E+02 -0.23726957704E+03  0.30567650261E+03  0.17300000000E+03 0.  1.
<mgrwt>
<rscale>  2 0.19272071E+03</rscale>
<asrwt>0</asrwt>
<pdfrwt beam="1">  1       21 0.11698521E-01 0.19272071E+03</pdfrwt>
<pdfrwt beam="2">  1       21 0.75909813E-01 0.19272071E+03</pdfrwt>
<totfact> 0.95047697E+04</totfact>
</mgrwt>
</event>
<event>
 4    1  0.4050555E+000  0.3002047E+03  0.7546771E-02  0.1085138E+00
         21   -1    0    0  503  502  0.00000000000E+00  0.00000000000E+00  0.10609878860E+04  0.10609878860E+04  0.00000000000E+00 0.  1.
         21   -1    0    0  501  503 -0.00000000000E+00 -0.00000000000E+00 -0.89796837147E+02  0.89796837147E+02  0.00000000000E+00 0.  1.
          6    1    1    2  501    0  0.56521264188E+02 -0.23874510376E+03  0.35181214856E+03  0.46248747631E+03  0.17300000000E+03 0.  1.
         -6    1    1    2    0  502 -0.56521264188E+02  0.23874510376E+03  0.61937890034E+03  0.68829724688E+03  0.17300000000E+03 0.  1.
<mgrwt>
<rscale>  2 0.30020473E+03</rscale>
<asrwt>0</asrwt>
<pdfrwt beam="1">  1       21 0.16322890E+00 0.30020473E+03</pdfrwt>
<pdfrwt beam="2">  1       21 0.13814899E-01 0.30020473E+03</pdfrwt>
<totfact> 0.10148466E+04</totfact>
</mgrwt>
</event>
<event>
 4    1  0.4050555E+000  0.1890656E+03  0.7546771E-02  0.1159307E+00
         21   -1    0    0  503  502  0.00000000000E+00  0.00000000000E+00  0.33237005801E+02  0.33237005801E+02  0.00000000000E+00 0.  1.
         21   -1    0    0  501  503 -0.00000000000E+00 -0.00000000000E+00 -0.10819895552E+04  0.10819895552E+04  0.00000000000E+00 0.  1.
          6    1    1    2  501    0 -0.22660785818E+02 -0.72823764933E+02 -0.56761968956E+03  0.59827913546E+03  0.17300000000E+03 0.  1.
         -6    1    1    2    0  502  0.22660785818E+02  0.72823764933E+02 -0.48113285980E+03  0.51694742550E+03  0.17300000000E+03 0.  1.
<mgrwt>
<rscale>  2 0.18906563E+03</rscale>
<asrwt>0</asrwt>
<pdfrwt beam="1">  1       21 0.51133868E-02 0.18906563E+03</pdfrwt>
<pdfrwt beam="2">  1       21 0.16645989E+00 0.18906563E+03</pdfrwt>
<totfact> 0.58655873E+04</totfact>
</mgrwt>
</event>
<event>
 4    1  0.4050555E+000  0.1882978E+03  0.7546771E-02  0.1160006E+00
         21   -1    0    0  501  502  0.00000000000E+00  0.00000000000E+00  0.61555224003E+02  0.61555224003E+02  0.00000000000E+00 0.  1.
         21   -1    0    0  502  503 -0.00000000000E+00 -0.00000000000E+00 -0.10192931961E+04  0.10192931961E+04  0.00000000000E+00 0.  1.
          6    1    1    2  501    0 -0.72582987185E+02 -0.16086391166E+02 -0.12247632417E+03  0.22462527015E+03  0.17300000000E+03 0.  1.
         -6    1    1    2    0  503  0.72582987185E+02  0.16086391166E+02 -0.83526164788E+03  0.85622314990E+03  0.17300000000E+03 0.  1.
<mgrwt>
<rscale>  2 0.18829780E+03</rscale>
<asrwt>0</asrwt>
<pdfrwt beam="1">  1       21 0.94700351E-02 0.18829780E+03</pdfrwt>
<pdfrwt beam="2">  1       21 0.15681433E+00 0.18829780E+03</pdfrwt>
<totfact> 0.23799610E+04</totfact>
</mgrwt>
</event>
<event>
 4    1  0.4050555E+000  0.1912748E+03  0.7546771E-02  0.1157317E+00
         21   -1    0    0  501  502  0.00000000000E+00  0.00000000000E+00  0.31372059401E+03  0.31372059401E+03  0.00000000000E+00 0.  1.
         21   -1    0    0  502  503 -0.00000000000E+00 -0.00000000000E+00 -0.17840569135E+03  0.17840569135E+03  0.00000000000E+00 0. -1.
          6    1    1    2  501    0 -0.62989930977E+02  0.51858750516E+02  0.21246345003E+03  0.28587895867E+03  0.17300000000E+03 0.  1.
         -6    1    1    2    0  503  0.62989930977E+02 -0.51858750516E+02 -0.77148547365E+02  0.20624732670E+03  0.17300000000E+03 0. -1.
<mgrwt>
<rscale>  2 0.19127483E+03</rscale>
<asrwt>0</asrwt>
<pdfrwt beam="1">  1       21 0.48264707E-01 0.19127483E+03</pdfrwt>
<pdfrwt beam="2">  1       21 0.27447029E-01 0.19127483E+03</pdfrwt>
<totfact> 0.51961199E+04</totfact>
</mgrwt>
</event>
<event>
 4    1  0.4050555E+000  0.1918328E+03  0.7546771E-02  0.1156819E+00
         21   -1    0    0  501  502  0.00000000000E+00  0.00000000000E+00  0.56558949872E+03  0.56558949872E+03  0.00000000000E+00 0.  1.
         21   -1    0    0  502  503 -0.00000000000E+00 -0.00000000000E+00 -0.10727100080E+03  0.10727100080E+03  0.00000000000E+00 0. -1.
          6    1    1    2  501    0  0.82216579981E+02  0.10548700498E+02  0.44018874071E+03  0.48017285278E+03  0.17300000000E+03 0.  1.
         -6    1    1    2    0  503 -0.82216579981E+02 -0.10548700498E+02  0.18129757211E+02  0.19268764673E+03  0.17300000000E+03 0. -1.
<mgrwt>
<rscale>  2 0.19183285E+03</rscale>
<asrwt>0</asrwt>
<pdfrwt beam="1">  1       21 0.87013767E-01 0.19183285E+03</pdfrwt>
<pdfrwt beam="2">  1       21 0.16503231E-01 0.19183285E+03</pdfrwt>
<totfact> 0.37429725E+04</totfact>
</mgrwt>
</event>
<event>
 4    1  0.4050555E+000  0.2064558E+03  0.7546771E-02  0.1144404E+00
         21   -1    0    0  503  502  0.00000000000E+00  0.00000000000E+00  0.67629970765E+03  0.67629970765E+03  0.00000000000E+00 0.  1.
         21   -1    0    0  501  503 -0.00000000000E+00 -0.00000000000E+00 -0.63025619403E+02  0.63025619403E+02  0.00000000000E+00 0. -1.
          6    1    1    2  501    0 -0.69286386749E+02 -0.88850369089E+02  0.30747016336E+03  0.37035374014E+03  0.17300000000E+03 0. -1.
         -6    1    1    2    0  502  0.69286386749E+02  0.88850369089E+02  0.30580392489E+03  0.36897158692E+03  0.17300000000E+03 0. -1.
<mgrwt>
<rscale>  2 0.20645579E+03</rscale>
<asrwt>0</asrwt>
<pdfrwt beam="1">  1       21 0.10404610E+00 0.20645579E+03</pdfrwt>
<pdfrwt beam="2">  1       21 0.96962496E-02 0.20645579E+03</pdfrwt>
<totfact> 0.63559392E+04</totfact>
</mgrwt>
</event>
<event>
 4    1  0.4050555E+000  0.1964128E+03  0.7546771E-02  0.1152801E+00
         21   -1    0    0  501  502  0.00000000000E+00  0.00000000000E+00  0.98639566022E+02  0.98639566022E+02  0.00000000000E+00 0.  1.
         21   -1    0    0  502  503 -0.00000000000E+00 -0.00000000000E+00 -0.39160711898E+03  0.39160711898E+03  0.00000000000E+00 0.  1.
          6    1    1    2  501    0  0.84837164082E+02  0.38100427519E+02 -0.13766749693E+03  0.23985480337E+03  0.17300000000E+03 0.  1.
         -6    1    1    2    0  503 -0.84837164082E+02 -0.38100427519E+02 -0.15530005602E+03  0.25039188163E+03  0.17300000000E+03 0.  1.
<mgrwt>
<rscale>  2 0.19641280E+03</rscale>
<asrwt>0</asrwt>
<pdfrwt beam="1">  1       21 0.15175317E-01 0.19641280E+03</pdfrwt>
<pdfrwt beam="2">  1       21 0.60247251E-01 0.19641280E+03</pdfrwt>
<totfact> 0.98494797E+04</totfact>
</mgrwt>
</event>
<event>
 4    1  0.4050555E+000  0.1944155E+03  0.7546771E-02  0.1154538E+00
         21   -1    0    0  503  502  0.00000000000E+00  0.00000000000E+00  0.79553813216E+03  0.79553813216E+03  0.00000000000E+00 0.  1.
         21   -1    0    0  501  503 -0.00000000000E+00 -0.00000000000E+00 -0.13388821982E+03  0.13388821982E+03  0.00000000000E+00 0.  1.
          6    1    1    2  501    0  0.57211088600E+02  0.67788465051E+02 -0.42435174993E+02  0.19899278562E+03  0.17300000000E+03 0.  1.
         -6    1    1    2    0  502 -0.57211088600E+02 -0.67788465051E+02  0.70408508733E+03  0.73043356636E+03  0.17300000000E+03 0.  1.
<mgrwt>
<rscale>  2 0.19441549E+03</rscale>
<asrwt>0</asrwt>
<pdfrwt beam="1">  1       21 0.12239048E+00 0.19441549E+03</pdfrwt>
<pdfrwt beam="2">  1       21 0.20598188E-01 0.19441549E+03</pdfrwt>
<totfact> 0.10970934E+04</totfact>
</mgrwt>
</event>
<event>
 4    1  0.4050555E+000  0.2125247E+03  0.7546771E-02  0.1139582E+00
         21   -1    0    0  501  502  0.00000000000E+00  0.00000000000E+00  0.14973398489E+03  0.14973398489E+03  0.00000000000E+00 0.  1.
         21   -1    0    0  502  503 -0.00000000000E+00 -0.00000000000E+00 -0.33128979318E+03  0.33128979318E+03  0.00000000000E+00 0.  1.
          6    1    1    2  501    0 -0.45732750289E+02 -0.11465722720E+03 -0.18833968156E+02  0.21335764002E+03  0.17300000000E+03 0.  1.
         -6    1    1    2    0  503  0.45732750289E+02  0.11465722720E+03 -0.16272184014E+03  0.26766613805E+03  0.17300000000E+03 0.  1.
<mgrwt>
<rscale>  2 0.21252474E+03</rscale>
<asrwt>0</asrwt>
<pdfrwt beam="1">  1       21 0.23035998E-01 0.21252474E+03</pdfrwt>
<pdfrwt beam="2">  1       21 0.50967660E-01 0.21252474E+03</pdfrwt>
<totfact> 0.64203778E+04</totfact>
</mgrwt>
</event>
<event>
 4    1  0.4050555E+000  0.2190424E+03  0.7546771E-02  0.1134599E+00
         21   -1    0    0  503  502  0.00000000000E+00  0.00000000000E+00  0.68188609207E+02  0.68188609207E+02  0.00000000000E+00 0. -1.
         21   -1    0    0  501  503 -0.00000000000E+00 -0.00000000000E+00 -0.13923987552E+04  0.13923987552E+04  0.00000000000E+00 0. -1.
          6    1    1    2  501    0  0.98088750668E+02  0.91810589330E+02 -0.11757373199E+04  0.11959673209E+04  0.17300000000E+03 0. -1.
         -6    1    1    2    0  502 -0.98088750668E+02 -0.91810589330E+02 -0.14847282608E+03  0.26462004347E+03  0.17300000000E+03 0. -1.
<mgrwt>
<rscale>  2 0.21904243E+03</rscale>
<asrwt>0</asrwt>
<pdfrwt beam="1">  1       21 0.10490555E-01 0.21904243E+03</pdfrwt>
<pdfrwt beam="2">  1       21 0.21421519E+00 0.21904243E+03</pdfrwt>
<totfact> 0.79592163E+03</totfact>
</mgrwt>
</event>
<event>
 4    1  0.4050555E+000  0.2383742E+03  0.7546771E-02  0.1120881E+00
         21   -1    0    0  501  502  0.00000000000E+00  0.00000000000E+00  0.69655512468E+02  0.69655512468E+02  0.00000000000E+00 0.  1.
         21   -1    0    0  502  503 -0.00000000000E+00 -0.00000000000E+00 -0.10021828236E+04  0.10021828236E+04  0.00000000000E+00 0. -1.
          6    1    1    2  501    0  0.71719028281E+02  0.14747756463E+03 -0.23512415033E+03  0.33482176923E+03  0.17300000000E+03 0.  1.
         -6    1    1    2    0  503 -0.71719028281E+02 -0.14747756463E+03 -0.69740316082E+03  0.73701656685E+03  0.17300000000E+03 0.  1.
<mgrwt>
<rscale>  2 0.23837418E+03</rscale>
<asrwt>0</asrwt>
<pdfrwt beam="1">  1       21 0.10716234E-01 0.23837418E+03</pdfrwt>
<pdfrwt beam="2">  1       21 0.15418196E+00 0.23837418E+03</pdfrwt>
<totfact> 0.19381864E+04</totfact>
</mgrwt>
</event>
<event>
 4    1  0.4050555E+000  0.1941132E+03  0.7546771E-02  0.1154803E+00
         21   -1    0    0  503  502  0.00000000000E+00  0.00000000000E+00  0.12961010237E+04  0.12961010237E+04  0.00000000000E+00 0.  1.
         21   -1    0    0  501  503 -0.00000000000E+00 -0.00000000000E+00 -0.29475811731E+02  0.29475811731E+02  0.00000000000E+00 0. -1.
          6    1    1    2  501    0  0.84741959363E+02  0.23869325997E+02  0.55571330428E+03  0.58864014555E+03  0.17300000000E+03 0. -1.
         -6    1    1    2    0  502 -0.84741959363E+02 -0.23869325997E+02  0.71091190773E+03  0.73693668992E+03  0.17300000000E+03 0.  1.
<mgrwt>
<rscale>  2 0.19411323E+03</rscale>
<asrwt>0</asrwt>
<pdfrwt beam="1">  1       21 0.19940011E+00 0.19411323E+03</pdfrwt>
<pdfrwt beam="2">  1       21 0.45347413E-02 0.19411323E+03</pdfrwt>
<totfact> 0.42942493E+04</totfact>
</mgrwt>
</event>
<event>
 4    1  0.4050555E+000  0.1834315E+03  0.7546771E-02  0.1164523E+00
         21   -1    0    0  503  502  0.00000000000E+00  0.00000000000E+00  0.85017627286E+03  0.85017627286E+03  0.00000000000E+00 0.  1.
         21   -1    0    0  501  503 -0.00000000000E+00 -0.00000000000E+00 -0.82520984363E+02  0.82520984363E+02  0.00000000000E+00 0. -1.
          6    1    1    2  501    0  0.57801979906E+02  0.19418008138E+02  0.47407922729E+02  0.18945880570E+03  0.17300000000E+03 0. -1.
         -6    1    1    2    0  502 -0.57801979906E+02 -0.19418008138E+02  0.72024736577E+03  0.74323845152E+03  0.17300000000E+03 0.  1.
<mgrwt>
<rscale>  2 0.18343153E+03</rscale>
<asrwt>0</asrwt>
<pdfrwt beam="1">  1       21 0.13079634E+00 0.18343153E+03</pdfrwt>
<pdfrwt beam="2">  1       21 0.12695537E-01 0.18343153E+03</pdfrwt>
<totfact> 0.22709273E+04</totfact>
</mgrwt>
</event>
<event>
 4    1  0.4050555E+000  0.3058927E+03  0.7546771E-02  0.1082331E+00
         21   -1    0    0  501  502  0.00000000000E+00  0.00000000000E+00  0.41542928976E+03  0.41542928976E+03  0.00000000000E+00 0.  1.
         21   -1    0    0  502  503 -0.00000000000E+00 -0.00000000000E+00 -0.23866358354E+03  0.23866358354E+03  0.00000000000E+00 0. -1.
          6    1    1    2  501    0 -0.10012308682E+03  0.23155282001E+03  0.16595175708E+03  0.34800908989E+03  0.17300000000E+03 0.  1.
         -6    1    1    2    0  503  0.10012308682E+03 -0.23155282001E+03  0.10813949148E+02  0.30608378341E+03  0.17300000000E+03 0. -1.
<mgrwt>
<rscale>  2 0.30589270E+03</rscale>
<asrwt>0</asrwt>
<pdfrwt beam="1">  1       21 0.63912198E-01 0.30589270E+03</pdfrwt>
<pdfrwt beam="2">  1       21 0.36717474E-01 0.30589270E+03</pdfrwt>
<totfact> 0.15256925E+04</totfact>
</mgrwt>
</event>
<event>
 4    1  0.4050555E+000  0.2080337E+03  0.7546771E-02  0.1143133E+00
         21   -1    0    0  501  502  0.00000000000E+00  0.00000000000E+00  0.14351995418E+04  0.14351995418E+04  0.00000000000E+00 0.  1.
         21   -1    0    0  502  503 -0.00000000000E+00 -0.00000000000E+00 -0.83722131784E+02  0.83722131784E+02  0.00000000000E+00 0.  1.
          6    1    1    2  501    0  0.10333635564E+03  0.51677852173E+02  0.12832238772E+04  0.12999775082E+04  0.17300000000E+03 0.  1.
         -6    1    1    2    0  503 -0.10333635564E+03 -0.51677852173E+02  0.68253532771E+02  0.21894416534E+03  0.17300000000E+03 0.  1.
<mgrwt>
<rscale>  2 0.20803366E+03</rscale>
<asrwt>0</asrwt>
<pdfrwt beam="1">  1       21 0.22079991E+00 0.20803366E+03</pdfrwt>
<pdfrwt beam="2">  1       21 0.12880329E-01 0.20803366E+03</pdfrwt>
<totfact> 0.50665341E+03</totfact>
</mgrwt>
</event>
<event>
 4    1  0.4050555E+000  0.2537223E+03  0.7546771E-02  0.1110975E+00
         21   -1    0    0  503  502  0.00000000000E+00  0.00000000000E+00  0.11049945460E+04  0.11049945460E+04  0.00000000000E+00 0. -1.
         21   -1    0    0  501  503 -0.00000000000E+00 -0.00000000000E+00 -0.63598520622E+02  0.63598520622E+02  0.00000000000E+00 0.  1.
          6    1    1    2  501    0 -0.76457415232E+02 -0.16911608625E+03  0.35138368899E+03  0.43341144869E+03  0.17300000000E+03 0.  1.
         -6    1    1    2    0  502  0.76457415232E+02  0.16911608625E+03  0.69001233641E+03  0.73518161795E+03  0.17300000000E+03 0.  1.
<mgrwt>
<rscale>  2 0.25372226E+03</rscale>
<asrwt>0</asrwt>
<pdfrwt beam="1">  1       21 0.16999915E+00 0.25372226E+03</pdfrwt>
<pdfrwt beam="2">  1       21 0.97843886E-02 0.25372226E+03</pdfrwt>
<totfact> 0.17296232E+04</totfact>
</mgrwt>
</event>
<event>
 4    1  0.4050555E+000  0.1739790E+03  0.7546771E-02  0.1173761E+00
         21   -1    0    0  503  502  0.00000000000E+00  0.00000000000E+00  0.14421878651E+04  0.14421878651E+04  0.00000000000E+00 0.  1.
         21   -1    0    0  501  503 -0.00000000000E+00 -0.00000000000E+00 -0.96669879967E+02  0.96669879967E+02  0.00000000000E+00 0.  1.
          6    1    1    2  501    0 -0.14347427717E+02  0.11569287282E+02 -0.80397256270E+01  0.17416467575E+03  0.17300000000E+03 0.  1.
         -6    1    1    2    0  502  0.14347427717E+02 -0.11569287282E+02  0.13535577107E+04  0.13646930693E+04  0.17300000000E+03 0.  1.
<mgrwt>
<rscale>  2 0.17397901E+03</rscale>
<asrwt>0</asrwt>
<pdfrwt beam="1">  1       21 0.22187504E+00 0.17397901E+03</pdfrwt>
<pdfrwt beam="2">  1       21 0.14872290E-01 0.17397901E+03</pdfrwt>
<totfact> 0.39803039E+03</totfact>
</mgrwt>
</event>
<event>
 4    1  0.4050555E+000  0.2176835E+03  0.7546771E-02  0.1135622E+00
         21   -1    0    0  503  502  0.00000000000E+00  0.00000000000E+00  0.72154956080E+02  0.72154956080E+02  0.00000000000E+00 0. -1.
         21   -1    0    0  501  503 -0.00000000000E+00 -0.00000000000E+00 -0.70150690991E+03  0.70150690991E+03  0.00000000000E+00 0. -1.
          6    1    1    2  501    0  0.83933989463E+02 -0.10204016816E+03 -0.41241019602E+03  0.46633494431E+03  0.17300000000E+03 0. -1.
         -6    1    1    2    0  502 -0.83933989463E+02  0.10204016816E+03 -0.21694175781E+03  0.30732692168E+03  0.17300000000E+03 0. -1.
<mgrwt>
<rscale>  2 0.21768351E+03</rscale>
<asrwt>0</asrwt>
<pdfrwt beam="1">  1       21 0.11100762E-01 0.21768351E+03</pdfrwt>
<pdfrwt beam="2">  1       21 0.10792414E+00 0.21768351E+03</pdfrwt>
<totfact> 0.45519942E+04</totfact>
</mgrwt>
</event>
<event>
 4    1  0.4050555E+000  0.1969346E+03  0.7546771E-02  0.1152351E+00
         21   -1    0    0  503  502  0.00000000000E+00  0.00000000000E+00  0.11112878896E+03  0.11112878896E+03  0.00000000000E+00 0. -1.
         21   -1    0    0  501  503 -0.00000000000E+00 -0.00000000000E+00 -0.43660009928E+03  0.43660009928E+03  0.00000000000E+00 0. -1.
          6    1    1    2  501    0 -0.30532438429E+02 -0.89005634117E+02 -0.28541232434E+03  0.34676134096E+03  0.17300000000E+03 0.  1.
         -6    1    1    2    0  502  0.30532438429E+02  0.89005634117E+02 -0.40058985983E+02  0.20096754728E+03  0.17300000000E+03 0.  1.
<mgrwt>
<rscale>  2 0.19693459E+03</rscale>
<asrwt>0</asrwt>
<pdfrwt beam="1">  1       21 0.17096737E-01 0.19693459E+03</pdfrwt>
<pdfrwt beam="2">  1       21 0.67169245E-01 0.19693459E+03</pdfrwt>
<totfact> 0.62510871E+04</totfact>
</mgrwt>
</event>
<event>
 4    1  0.4050555E+000  0.2313942E+03  0.7546771E-02  0.1125662E+00
         21   -1    0    0  503  502  0.00000000000E+00  0.00000000000E+00  0.18925081663E+03  0.18925081663E+03  0.00000000000E+00 0.  1.
         21   -1    0    0  501  503 -0.00000000000E+00 -0.00000000000E+00 -0.38072625062E+03  0.38072625062E+03  0.00000000000E+00 0.  1.
          6    1    1    2  501    0  0.11305223366E+03  0.10408404515E+03 -0.24018152983E+03  0.33351231351E+03  0.17300000000E+03 0.  1.
         -6    1    1    2    0  502 -0.11305223366E+03 -0.10408404515E+03  0.48706095838E+02  0.23646475374E+03  0.17300000000E+03 0.  1.
<mgrwt>
<rscale>  2 0.23139424E+03</rscale>
<asrwt>0</asrwt>
<pdfrwt beam="1">  1       21 0.29115510E-01 0.23139424E+03</pdfrwt>
<pdfrwt beam="2">  1       21 0.58573269E-01 0.23139424E+03</pdfrwt>
<totfact> 0.30199509E+04</totfact>
</mgrwt>
</event>
<event>
 4    1  0.4050555E+000  0.1820959E+03  0.7546771E-02  0.1165790E+00
         21   -1    0    0  503  502  0.00000000000E+00  0.00000000000E+00  0.30094661120E+03  0.30094661120E+03  0.00000000000E+00 0. -1.
         21   -1    0    0  501  503 -0.00000000000E+00 -0.00000000000E+00 -0.16315255879E+03  0.16315255879E+03  0.00000000000E+00 0. -1.
          6    1    1    2  501    0  0.53702275903E+02 -0.18600198687E+02 -0.63324174607E+02  0.19279225326E+03  0.17300000000E+03 0. -1.
         -6    1    1    2    0  502 -0.53702275903E+02  0.18600198687E+02  0.20111822701E+03  0.27130691673E+03  0.17300000000E+03 0. -1.
<mgrwt>
<rscale>  2 0.18209586E+03</rscale>
<asrwt>0</asrwt>
<pdfrwt beam="1">  1       21 0.46299479E-01 0.18209586E+03</pdfrwt>
<pdfrwt beam="2">  1       21 0.25100394E-01 0.18209586E+03</pdfrwt>
<totfact> 0.67480043E+04</totfact>
</mgrwt>
</event>
<event>
 4    1  0.4050555E+000  0.2376328E+03  0.7546771E-02  0.1121380E+00
         21   -1    0    0  503  502  0.00000000000E+00  0.00000000000E+00  0.22473682879E+03  0.22473682879E+03  0.00000000000E+00 0.  1.
         21   -1    0    0  501  503 -0.00000000000E+00 -0.00000000000E+00 -0.60522999118E+03  0.60522999118E+03  0.00000000000E+00 0.  1.
          6    1    1    2  501    0  0.11168726960E+03  0.11860143439E+03 -0.50760378240E+03  0.56047385874E+03  0.17300000000E+03 0.  1.
         -6    1    1    2    0  502 -0.11168726960E+03 -0.11860143439E+03  0.12711062001E+03  0.26949296122E+03  0.17300000000E+03 0.  1.
<mgrwt>
<rscale>  2 0.23763280E+03</rscale>
<asrwt>0</asrwt>
<pdfrwt beam="1">  1       21 0.34574897E-01 0.23763280E+03</pdfrwt>
<pdfrwt beam="2">  1       21 0.93112304E-01 0.23763280E+03</pdfrwt>
<totfact> 0.75902104E+03</totfact>
</mgrwt>
</event>
<event>
 4    1  0.4050555E+000  0.1777888E+03  0.7546771E-02  0.1169960E+00
         21   -1    0    0  503  502  0.00000000000E+00  0.00000000000E+00  0.29965125990E+02  0.29965125990E+02  0.00000000000E+00 0.  1.
         21   -1    0    0  501  503 -0.00000000000E+00 -0.00000000000E+00 -0.10698838482E+04  0.10698838482E+04  0.00000000000E+00 0.  1.
          6    1    1    2  501    0 -0.40196010609E+02 -0.80076786073E+01 -0.58513834971E+03  0.61155190335E+03  0.17300000000E+03 0. -1.
         -6    1    1    2    0  502  0.40196010609E+02  0.80076786073E+01 -0.45478037253E+03  0.48829707087E+03  0.17300000000E+03 0. -1.
<mgrwt>
<rscale>  2 0.17778876E+03</rscale>
<asrwt>0</asrwt>
<pdfrwt beam="1">  1       21 0.46100191E-02 0.17778876E+03</pdfrwt>
<pdfrwt beam="2">  1       21 0.16459753E+00 0.17778876E+03</pdfrwt>
<totfact> 0.72519955E+04</totfact>
</mgrwt>
</event>
<event>
 4    1  0.4050555E+000  0.2124890E+03  0.7546771E-02  0.1139610E+00
         21   -1    0    0  503  502  0.00000000000E+00  0.00000000000E+00  0.28389037801E+03  0.28389037801E+03  0.00000000000E+00 0. -1.
         21   -1    0    0  501  503 -0.00000000000E+00 -0.00000000000E+00 -0.17778683856E+03  0.17778683856E+03  0.00000000000E+00 0.  1.
          6    1    1    2  501    0  0.45715993936E+02  0.11459770196E+03 -0.21895347967E+02  0.21361411859E+03  0.17300000000E+03 0.  1.
         -6    1    1    2    0  502 -0.45715993936E+02 -0.11459770196E+03  0.12799888742E+03  0.24806309798E+03  0.17300000000E+03 0. -1.
<mgrwt>
<rscale>  2 0.21248902E+03</rscale>
<asrwt>0</asrwt>
<pdfrwt beam="1">  1       21 0.43675443E-01 0.21248902E+03</pdfrwt>
<pdfrwt beam="2">  1       21 0.27351821E-01 0.21248902E+03</pdfrwt>
<totfact> 0.63645853E+04</totfact>
</mgrwt>
</event>
<event>
 4    1  0.4050555E+000  0.2601613E+03  0.7546771E-02  0.1107046E+00
         21   -1    0    0  501  502  0.00000000000E+00  0.00000000000E+00  0.89182572574E+03  0.89182572574E+03  0.00000000000E+00 0. -1.
         21   -1    0    0  502  503 -0.00000000000E+00 -0.00000000000E+00 -0.75902160630E+02  0.75902160630E+02  0.00000000000E+00 0. -1.
          6    1    1    2  501    0 -0.12092531561E+03 -0.15209192585E+03  0.40283019255E+03  0.47953732899E+03  0.17300000000E+03 0. -1.
         -6    1    1    2    0  503  0.12092531561E+03  0.15209192585E+03  0.41309337256E+03  0.48819055738E+03  0.17300000000E+03 0. -1.
<mgrwt>
<rscale>  2 0.26016127E+03</rscale>
<asrwt>0</asrwt>
<pdfrwt beam="1">  1       21 0.13720395E+00 0.26016127E+03</pdfrwt>
<pdfrwt beam="2">  1       21 0.11677256E-01 0.26016127E+03</pdfrwt>
<totfact> 0.22343529E+04</totfact>
</mgrwt>
</event>
<event>
 4    1  0.4050555E+000  0.2000620E+03  0.7546771E-02  0.1149687E+00
         21   -1    0    0  503  502  0.00000000000E+00  0.00000000000E+00  0.13934530134E+03  0.13934530134E+03  0.00000000000E+00 0. -1.
         21   -1    0    0  501  503 -0.00000000000E+00 -0.00000000000E+00 -0.48834918918E+03  0.48834918918E+03  0.00000000000E+00 0. -1.
          6    1    1    2  501    0 -0.99012925392E+02 -0.17095203902E+02 -0.37590904060E+03  0.42583143636E+03  0.17300000000E+03 0. -1.
         -6    1    1    2    0  502  0.99012925392E+02  0.17095203902E+02  0.26905152758E+02  0.20186305416E+03  0.17300000000E+03 0. -1.
<mgrwt>
<rscale>  2 0.20006200E+03</rscale>
<asrwt>0</asrwt>
<pdfrwt beam="1">  1       21 0.21437739E-01 0.20006200E+03</pdfrwt>
<pdfrwt beam="2">  1       21 0.75130644E-01 0.20006200E+03</pdfrwt>
<totfact> 0.31967440E+04</totfact>
</mgrwt>
</event>
<event>
 4    1  0.4050555E+000  0.1938507E+03  0.7546771E-02  0.1155033E+00
         21   -1    0    0  503  502  0.00000000000E+00  0.00000000000E+00  0.63829139935E+03  0.63829139935E+03  0.00000000000E+00 0.  1.
         21   -1    0    0  501  503 -0.00000000000E+00 -0.00000000000E+00 -0.10260833687E+03  0.10260833687E+03  0.00000000000E+00 0.  1.
          6    1    1    2  501    0 -0.83609578727E+02 -0.25662189109E+02  0.25986841279E+02  0.19558482948E+03  0.17300000000E+03 0.  1.
         -6    1    1    2    0  502  0.83609578727E+02  0.25662189109E+02  0.50969622120E+03  0.54531490674E+03  0.17300000000E+03 0.  1.
<mgrwt>
<rscale>  2 0.19385074E+03</rscale>
<asrwt>0</asrwt>
<pdfrwt beam="1">  1       21 0.98198674E-01 0.19385074E+03</pdfrwt>
<pdfrwt beam="2">  1       21 0.15785898E-01 0.19385074E+03</pdfrwt>
<totfact> 0.30608528E+04</totfact>
</mgrwt>
</event>
<event>
 4    1  0.4050555E+000  0.2809783E+03  0.7546771E-02  0.1095156E+00
         21   -1    0    0  501  502  0.00000000000E+00  0.00000000000E+00  0.84099751661E+02  0.84099751661E+02  0.00000000000E+00 0.  1.
         21   -1    0    0  502  503 -0.00000000000E+00 -0.00000000000E+00 -0.10790427417E+04  0.10790427417E+04  0.00000000000E+00 0. -1.
          6    1    1    2  501    0 -0.15572587772E+03  0.15738258872E+03 -0.28777181187E+03  0.40219577811E+03  0.17300000000E+03 0.  1.
         -6    1    1    2    0  503  0.15572587772E+03 -0.15738258872E+03 -0.70717117821E+03  0.76094671529E+03  0.17300000000E+03 0. -1.
<mgrwt>
<rscale>  2 0.28097834E+03</rscale>
<asrwt>0</asrwt>
<pdfrwt beam="1">  1       21 0.12938425E-01 0.28097834E+03</pdfrwt>
<pdfrwt beam="2">  1       21 0.16600656E+00 0.28097834E+03</pdfrwt>
<totfact> 0.11022657E+04</totfact>
</mgrwt>
</event>
<event>
 4    1  0.4050555E+000  0.2079657E+03  0.7546771E-02  0.1143187E+00
         21   -1    0    0  503  502  0.00000000000E+00  0.00000000000E+00  0.70605890448E+02  0.70605890448E+02  0.00000000000E+00 0.  1.
         21   -1    0    0  501  503 -0.00000000000E+00 -0.00000000000E+00 -0.67168875894E+03  0.67168875894E+03  0.00000000000E+00 0. -1.
          6    1    1    2  501    0 -0.10023235793E+03 -0.57220531048E+02 -0.41066858833E+03  0.46032423811E+03  0.17300000000E+03 0. -1.
         -6    1    1    2    0  502  0.10023235793E+03  0.57220531048E+02 -0.19041428017E+03  0.28197041129E+03  0.17300000000E+03 0. -1.
<mgrwt>
<rscale>  2 0.20796566E+03</rscale>
<asrwt>0</asrwt>
<pdfrwt beam="1">  1       21 0.10862445E-01 0.20796566E+03</pdfrwt>
<pdfrwt beam="2">  1       21 0.10333673E+00 0.20796566E+03</pdfrwt>
<totfact> 0.52790900E+04</totfact>
</mgrwt>
</event>
<event>
 4    1  0.4050555E+000  0.2048703E+03  0.7546771E-02  0.1145694E+00
         21   -1    0    0  503  502  0.00000000000E+00  0.00000000000E+00  0.16335675938E+04  0.16335675938E+04  0.00000000000E+00 0. -1.
         21   -1    0    0  501  503 -0.00000000000E+00 -0.00000000000E+00 -0.34661766816E+02  0.34661766816E+02  0.00000000000E+00 0. -1.
          6    1    1    2  501    0 -0.85944628069E+02  0.68237510427E+02  0.37516748543E+03  0.42746049998E+03  0.17300000000E+03 0. -1.
         -6    1    1    2    0  502  0.85944628069E+02 -0.68237510427E+02  0.12237383416E+04  0.12407688607E+04  0.17300000000E+03 0. -1.
<mgrwt>
<rscale>  2 0.20487029E+03</rscale>
<asrwt>0</asrwt>
<pdfrwt beam="1">  1       21 0.25131803E+00 0.20487029E+03</pdfrwt>
<pdfrwt beam="2">  1       21 0.53325808E-02 0.20487029E+03</pdfrwt>
<totfact> 0.15579197E+04</totfact>
</mgrwt>
</event>
<event>
 4    1  0.4050555E+000  0.3304948E+03  0.7546771E-02  0.1070918E+00
         21   -1    0    0  501  502  0.00000000000E+00  0.00000000000E+00  0.62525178944E+02  0.62525178944E+02  0.00000000000E+00 0.  1.
         21   -1    0    0  502  503 -0.00000000000E+00 -0.00000000000E+00 -0.17676559066E+04  0.17676559066E+04  0.00000000000E+00 0.  1.
          6    1    1    2  501    0  0.20187599331E+03  0.19632591805E+03 -0.95166611339E+03  0.10074200584E+04  0.17300000000E+03 0.  1.
         -6    1    1    2    0  503 -0.20187599331E+03 -0.19632591805E+03 -0.75346461427E+03  0.82276102710E+03  0.17300000000E+03 0.  1.
<mgrwt>
<rscale>  2 0.33049475E+03</rscale>
<asrwt>0</asrwt>
<pdfrwt beam="1">  1       21 0.96192581E-02 0.33049475E+03</pdfrwt>
<pdfrwt beam="2">  1       21 0.27194707E+00 0.33049475E+03</pdfrwt>
<totfact> 0.38312429E+03</totfact>
</mgrwt>
</event>
<event>
 4    1  0.4050555E+000  0.2278011E+03  0.7546771E-02  0.1128197E+00
         21   -1    0    0  501  502  0.00000000000E+00  0.00000000000E+00  0.87541540871E+03  0.87541540871E+03  0.00000000000E+00 0.  1.
         21   -1    0    0  502  503 -0.00000000000E+00 -0.00000000000E+00 -0.60338826002E+02  0.60338826002E+02  0.00000000000E+00 0. -1.
          6    1    1    2  501    0 -0.10970768511E+03 -0.99642257250E+02  0.46955988970E+03  0.52190022573E+03  0.17300000000E+03 0. -1.
         -6    1    1    2    0  503  0.10970768511E+03  0.99642257250E+02  0.34551669301E+03  0.41385400898E+03  0.17300000000E+03 0.  1.
<mgrwt>
<rscale>  2 0.22780113E+03</rscale>
<asrwt>0</asrwt>
<pdfrwt beam="1">  1       21 0.13467928E+00 0.22780113E+03</pdfrwt>
<pdfrwt beam="2">  1       21 0.92828969E-02 0.22780113E+03</pdfrwt>
<totfact> 0.35850858E+04</totfact>
</mgrwt>
</event>
<event>
 4    1  0.4050555E+000  0.1749237E+03  0.7546771E-02  0.1172808E+00
         21   -1    0    0  503  502  0.00000000000E+00  0.00000000000E+00  0.43941053063E+03  0.43941053063E+03  0.00000000000E+00 0.  1.
         21   -1    0    0  501  503 -0.00000000000E+00 -0.00000000000E+00 -0.15103764452E+03  0.15103764452E+03  0.00000000000E+00 0.  1.
          6    1    1    2  501    0  0.74266141744E+00 -0.25859893582E+02 -0.72548456408E+02  0.18937149777E+03  0.17300000000E+03 0.  1.
         -6    1    1    2    0  502 -0.74266141744E+00  0.25859893582E+02  0.36092134252E+03  0.40107667737E+03  0.17300000000E+03 0.  1.
<mgrwt>
<rscale>  2 0.17492366E+03</rscale>
<asrwt>0</asrwt>
<pdfrwt beam="1">  1       21 0.67601620E-01 0.17492366E+03</pdfrwt>
<pdfrwt beam="2">  1       21 0.23236561E-01 0.17492366E+03</pdfrwt>
<totfact> 0.35152823E+04</totfact>
</mgrwt>
</event>
<event>
 4    1  0.4050555E+000  0.2059351E+03  0.7546771E-02  0.1144826E+00
         21   -1    0    0  501  502  0.00000000000E+00  0.00000000000E+00  0.56279931166E+03  0.56279931166E+03  0.00000000000E+00 0. -1.
         21   -1    0    0  502  503 -0.00000000000E+00 -0.00000000000E+00 -0.14348070081E+03  0.14348070081E+03  0.00000000000E+00 0. -1.
          6    1    1    2  501    0  0.10670840658E+03 -0.33069562591E+02  0.45299638102E+03  0.49760928571E+03  0.17300000000E+03 0. -1.
         -6    1    1    2    0  503 -0.10670840658E+03  0.33069562591E+02 -0.33677770168E+02  0.20867072677E+03  0.17300000000E+03 0. -1.
<mgrwt>
<rscale>  2 0.20593514E+03</rscale>
<asrwt>0</asrwt>
<pdfrwt beam="1">  1       21 0.86584508E-01 0.20593514E+03</pdfrwt>
<pdfrwt beam="2">  1       21 0.22073954E-01 0.20593514E+03</pdfrwt>
<totfact> 0.21856758E+04</totfact>
</mgrwt>
</event>
<event>
 4    1  0.4050555E+000  0.1803073E+03  0.7546771E-02  0.1167506E+00
         21   -1    0    0  503  502  0.00000000000E+00  0.00000000000E+00  0.89451600483E+02  0.89451600483E+02  0.00000000000E+00 0.  1.
         21   -1    0    0  501  503 -0.00000000000E+00 -0.00000000000E+00 -0.37874514375E+03  0.37874514375E+03  0.00000000000E+00 0. -1.
          6    1    1    2  501    0 -0.50751467685E+02 -0.24543575704E+01 -0.19169820581E+03  0.26317092821E+03  0.17300000000E+03 0.  1.
         -6    1    1    2    0  502  0.50751467685E+02  0.24543575704E+01 -0.97595337459E+02  0.20502581603E+03  0.17300000000E+03 0.  1.
<mgrwt>
<rscale>  2 0.18030734E+03</rscale>
<asrwt>0</asrwt>
<pdfrwt beam="1">  1       21 0.13761785E-01 0.18030734E+03</pdfrwt>
<pdfrwt beam="2">  1       21 0.58268484E-01 0.18030734E+03</pdfrwt>
<totfact> 0.12709276E+05</totfact>
</mgrwt>
</event>
<event>
 4    1  0.4050555E+000  0.2014469E+03  0.7546771E-02  0.1148524E+00
         21   -1    0    0  503  502  0.00000000000E+00  0.00000000000E+00  0.30094068087E+03  0.30094068087E+03  0.00000000000E+00 0. -1.
         21   -1    0    0  501  503 -0.00000000000E+00 -0.00000000000E+00 -0.15563852644E+03  0.15563852644E+03  0.00000000000E+00 0. -1.
          6    1    1    2  501    0  0.61757435904E+02  0.82691468459E+02 -0.10788832488E+02  0.20173561597E+03  0.17300000000E+03 0. -1.
         -6    1    1    2    0  502 -0.61757435904E+02 -0.82691468459E+02  0.15609098692E+03  0.25484359133E+03  0.17300000000E+03 0. -1.
<mgrwt>
<rscale>  2 0.20144692E+03</rscale>
<asrwt>0</asrwt>
<pdfrwt beam="1">  1       21 0.46298566E-01 0.20144692E+03</pdfrwt>
<pdfrwt beam="2">  1       21 0.23944389E-01 0.20144692E+03</pdfrwt>
<totfact> 0.73206958E+04</totfact>
</mgrwt>
</event>
<event>
 4    1  0.4050555E+000  0.1912545E+03  0.7546771E-02  0.1157335E+00
         21   -1    0    0  503  502  0.00000000000E+00  0.00000000000E+00  0.54643248267E+02  0.54643248267E+02  0.00000000000E+00 0. -1.
         21   -1    0    0  501  503 -0.00000000000E+00 -0.00000000000E+00 -0.10128370464E+04  0.10128370464E+04  0.00000000000E+00 0.  1.
          6    1    1    2  501    0 -0.20988228187E+01 -0.81516032841E+02 -0.78989814182E+03  0.81272218077E+03  0.17300000000E+03 0.  1.
         -6    1    1    2    0  502  0.20988228187E+01  0.81516032841E+02 -0.16829565634E+03  0.25475811393E+03  0.17300000000E+03 0. -1.
<mgrwt>
<rscale>  2 0.19125446E+03</rscale>
<asrwt>0</asrwt>
<pdfrwt beam="1">  1       21 0.84066537E-02 0.19125446E+03</pdfrwt>
<pdfrwt beam="2">  1       21 0.15582108E+00 0.19125446E+03</pdfrwt>
<totfact> 0.29770478E+04</totfact>
</mgrwt>
</event>
<event>
 4    1  0.4050555E+000  0.1951142E+03  0.7546771E-02  0.1153928E+00
         21   -1    0    0  501  502  0.00000000000E+00  0.00000000000E+00  0.15125731655E+03  0.15125731655E+03  0.00000000000E+00 0. -1.
         21   -1    0    0  502  503 -0.00000000000E+00 -0.00000000000E+00 -0.25168841130E+03  0.25168841130E+03  0.00000000000E+00 0. -1.
          6    1    1    2  501    0  0.88913137213E+02 -0.15330450746E+02 -0.49822333243E+02  0.20137485836E+03  0.17300000000E+03 0. -1.
         -6    1    1    2    0  503 -0.88913137213E+02  0.15330450746E+02 -0.50608761507E+02  0.20157086950E+03  0.17300000000E+03 0. -1.
<mgrwt>
<rscale>  2 0.19511425E+03</rscale>
<asrwt>0</asrwt>
<pdfrwt beam="1">  1       21 0.23270357E-01 0.19511425E+03</pdfrwt>
<pdfrwt beam="2">  1       21 0.38721294E-01 0.19511425E+03</pdfrwt>
<totfact> 0.11154244E+05</totfact>
</mgrwt>
</event>
<event>
 4    1  0.4050555E+000  0.1776054E+03  0.7546771E-02  0.1170141E+00
         21   -1    0    0  501  502  0.00000000000E+00  0.00000000000E+00  0.84363811694E+03  0.84363811694E+03  0.00000000000E+00 0.  1.
         21   -1    0    0  502  503 -0.00000000000E+00 -0.00000000000E+00 -0.18254763057E+03  0.18254763057E+03  0.00000000000E+00 0.  1.
          6    1    1    2  501    0 -0.11530881466E+02 -0.38493184577E+02  0.78808381941E+03  0.80784886761E+03  0.17300000000E+03 0.  1.
         -6    1    1    2    0  503  0.11530881466E+02  0.38493184577E+02 -0.12699333305E+03  0.21833687990E+03  0.17300000000E+03 0.  1.
<mgrwt>
<rscale>  2 0.17760542E+03</rscale>
<asrwt>0</asrwt>
<pdfrwt beam="1">  1       21 0.12979048E+00 0.17760542E+03</pdfrwt>
<pdfrwt beam="2">  1       21 0.28084251E-01 0.17760542E+03</pdfrwt>
<totfact> 0.53232135E+03</totfact>
</mgrwt>
</event>
<event>
 4    1  0.4050555E+000  0.2306802E+03  0.7546771E-02  0.1126162E+00
         21   -1    0    0  503  502  0.00000000000E+00  0.00000000000E+00  0.33598559971E+02  0.33598559971E+02  0.00000000000E+00 0.  1.
         21   -1    0    0  501  503 -0.00000000000E+00 -0.00000000000E+00 -0.15915438416E+04  0.15915438416E+04  0.00000000000E+00 0. -1.
          6    1    1    2  501    0 -0.15208799056E+03  0.12392898214E+02 -0.83565907773E+03  0.86691374138E+03  0.17300000000E+03 0. -1.
         -6    1    1    2    0  502  0.15208799056E+03 -0.12392898214E+02 -0.72228620392E+03  0.75822866021E+03  0.17300000000E+03 0. -1.
<mgrwt>
<rscale>  2 0.23068017E+03</rscale>
<asrwt>0</asrwt>
<pdfrwt beam="1">  1       21 0.51690108E-02 0.23068017E+03</pdfrwt>
<pdfrwt beam="2">  1       21 0.24485282E+00 0.23068017E+03</pdfrwt>
<totfact> 0.17569903E+04</totfact>
</mgrwt>
</event>
<event>
 4    1  0.4050555E+000  0.1878780E+03  0.7546771E-02  0.1160389E+00
         21   -1    0    0  501  502  0.00000000000E+00  0.00000000000E+00  0.41596670056E+03  0.41596670056E+03  0.00000000000E+00 0.  1.
         21   -1    0    0  502  503 -0.00000000000E+00 -0.00000000000E+00 -0.86580273445E+02  0.86580273445E+02  0.00000000000E+00 0.  1.
          6    1    1    2  501    0 -0.24773477220E+02 -0.68959520448E+02  0.20013181840E+03  0.27450115732E+03  0.17300000000E+03 0.  1.
         -6    1    1    2    0  503  0.24773477220E+02  0.68959520448E+02  0.12925460871E+03  0.22804581669E+03  0.17300000000E+03 0.  1.
<mgrwt>
<rscale>  2 0.18787799E+03</rscale>
<asrwt>0</asrwt>
<pdfrwt beam="1">  1       21 0.63994876E-01 0.18787799E+03</pdfrwt>
<pdfrwt beam="2">  1       21 0.13320042E-01 0.18787799E+03</pdfrwt>
<totfact> 0.10988317E+05</totfact>
</mgrwt>
</event>
<event>
 4    1  0.4050555E+000  0.1813678E+03  0.7546771E-02  0.1166486E+00
         21   -1    0    0  503  502  0.00000000000E+00  0.00000000000E+00  0.12032729555E+04  0.12032729555E+04  0.00000000000E+00 0.  1.
         21   -1    0    0  501  503 -0.00000000000E+00 -0.00000000000E+00 -0.33695605648E+02  0.33695605648E+02  0.00000000000E+00 0.  1.
          6    1    1    2  501    0 -0.50769832796E+02 -0.19689830674E+02  0.31612321492E+03  0.36445596766E+03  0.17300000000E+03 0.  1.
         -6    1    1    2    0  502  0.50769832796E+02  0.19689830674E+02  0.85345413492E+03  0.87251259347E+03  0.17300000000E+03 0.  1.
<mgrwt>
<rscale>  2 0.18136776E+03</rscale>
<asrwt>0</asrwt>
<pdfrwt beam="1">  1       21 0.18511888E+00 0.18136776E+03</pdfrwt>
<pdfrwt beam="2">  1       21 0.51839403E-02 0.18136776E+03</pdfrwt>
<totfact> 0.42826360E+04</totfact>
</mgrwt>
</event>
<event>
 4    1  0.4050555E+000  0.1966576E+03  0.7546771E-02  0.1152590E+00
         21   -1    0    0  501  502  0.00000000000E+00  0.00000000000E+00  0.13212169188E+02  0.13212169188E+02  0.00000000000E+00 0. -1.
         21   -1    0    0  502  503 -0.00000000000E+00 -0.00000000000E+00 -0.32745619306E+04  0.32745619306E+04  0.00000000000E+00 0. -1.
          6    1    1    2  501    0 -0.60762132936E+01 -0.93318166078E+02 -0.10952379796E+04  0.11127535363E+04  0.17300000000E+03 0. -1.
         -6    1    1    2    0  503  0.60762132936E+01  0.93318166078E+02 -0.21661117818E+04  0.21750205635E+04  0.17300000000E+03 0. -1.
<mgrwt>
<rscale>  2 0.19665757E+03</rscale>
<asrwt>0</asrwt>
<pdfrwt beam="1">  1       21 0.20326410E-02 0.19665757E+03</pdfrwt>
<pdfrwt beam="2">  1       21 0.50377886E+00 0.19665757E+03</pdfrwt>
<totfact> 0.21215677E+03</totfact>
</mgrwt>
</event>
<event>
 4    1  0.4050555E+000  0.2079549E+03  0.7546771E-02  0.1143196E+00
         21   -1    0    0  503  502  0.00000000000E+00  0.00000000000E+00  0.16362924796E+03  0.16362924796E+03  0.00000000000E+00 0.  1.
         21   -1    0    0  501  503 -0.00000000000E+00 -0.00000000000E+00 -0.13448811379E+04  0.13448811379E+04  0.00000000000E+00 0.  1.
          6    1    1    2  501    0  0.51832813228E+02 -0.10309996315E+03 -0.12667205413E+04  0.12836768179E+04  0.17300000000E+03 0.  1.
         -6    1    1    2    0  502 -0.51832813228E+02  0.10309996315E+03  0.85468651382E+02  0.22483356799E+03  0.17300000000E+03 0.  1.
<mgrwt>
<rscale>  2 0.20795491E+03</rscale>
<asrwt>0</asrwt>
<pdfrwt beam="1">  1       21 0.25173730E-01 0.20795491E+03</pdfrwt>
<pdfrwt beam="2">  1       21 0.20690479E+00 0.20795491E+03</pdfrwt>
<totfact> 0.17852459E+03</totfact>
</mgrwt>
</event>
<event>
 4    1  0.4050555E+000  0.1805459E+03  0.7546771E-02  0.1167276E+00
         21   -1    0    0  503  502  0.00000000000E+00  0.00000000000E+00  0.99116294313E+02  0.99116294313E+02  0.00000000000E+00 0. -1.
         21   -1    0    0  501  503 -0.00000000000E+00 -0.00000000000E+00 -0.44394372574E+03  0.44394372574E+03  0.00000000000E+00 0. -1.
          6    1    1    2  501    0 -0.91153134561E+01  0.50840355461E+02 -0.31065358022E+03  0.35930833220E+03  0.17300000000E+03 0. -1.
         -6    1    1    2    0  502  0.91153134561E+01 -0.50840355461E+02 -0.34173851205E+02  0.18375168785E+03  0.17300000000E+03 0. -1.
<mgrwt>
<rscale>  2 0.18054592E+03</rscale>
<asrwt>0</asrwt>
<pdfrwt beam="1">  1       21 0.15248661E-01 0.18054592E+03</pdfrwt>
<pdfrwt beam="2">  1       21 0.68299034E-01 0.18054592E+03</pdfrwt>
<totfact> 0.74847737E+04</totfact>
</mgrwt>
</event>
<event>
 4    1  0.4050555E+000  0.2404566E+03  0.7546771E-02  0.1119489E+00
         21   -1    0    0  503  502  0.00000000000E+00  0.00000000000E+00  0.33878321040E+03  0.33878321040E+03  0.00000000000E+00 0.  1.
         21   -1    0    0  501  503 -0.00000000000E+00 -0.00000000000E+00 -0.31931061197E+03  0.31931061197E+03  0.00000000000E+00 0.  1.
          6    1    1    2  501    0  0.15544267835E+03 -0.61056986219E+02 -0.21476719929E+03  0.32240398836E+03  0.17300000000E+03 0.  1.
         -6    1    1    2    0  502 -0.15544267835E+03  0.61056986219E+02  0.23423979772E+03  0.33568983401E+03  0.17300000000E+03 0.  1.
<mgrwt>
<rscale>  2 0.24045661E+03</rscale>
<asrwt>0</asrwt>
<pdfrwt beam="1">  1       21 0.52120494E-01 0.24045661E+03</pdfrwt>
<pdfrwt beam="2">  1       21 0.49124709E-01 0.24045661E+03</pdfrwt>
<totfact> 0.13417861E+04</totfact>
</mgrwt>
</event>
<event>
 4    1  0.4050555E+000  0.1934156E+03  0.7546771E-02  0.1155416E+00
         21   -1    0    0  503  502  0.00000000000E+00  0.00000000000E+00  0.57189523725E+02  0.57189523725E+02  0.00000000000E+00 0.  1.
         21   -1    0    0  501  503 -0.00000000000E+00 -0.00000000000E+00 -0.66579129126E+03  0.66579129126E+03  0.00000000000E+00 0.  1.
          6    1    1    2  501    0 -0.77281903617E+02 -0.38834172598E+02 -0.35213470984E+03  0.40175669187E+03  0.17300000000E+03 0.  1.
         -6    1    1    2    0  502  0.77281903617E+02  0.38834172598E+02 -0.25646705769E+03  0.32122412311E+03  0.17300000000E+03 0.  1.
<mgrwt>
<rscale>  2 0.19341558E+03</rscale>
<asrwt>0</asrwt>
<pdfrwt beam="1">  1       21 0.87983880E-02 0.19341558E+03</pdfrwt>
<pdfrwt beam="2">  1       21 0.10242943E+00 0.19341558E+03</pdfrwt>
<totfact> 0.78779072E+04</totfact>
</mgrwt>
</event>
<event>
 4    1  0.4050555E+000  0.1785669E+03  0.7546771E-02  0.1169197E+00
         21   -1    0    0  503  502  0.00000000000E+00  0.00000000000E+00  0.35840184306E+03  0.35840184306E+03  0.00000000000E+00 0.  1.
         21   -1    0    0  501  503 -0.00000000000E+00 -0.00000000000E+00 -0.25826186964E+03  0.25826186964E+03  0.00000000000E+00 0.  1.
          6    1    1    2  501    0  0.65159055349E+01  0.43757209910E+02 -0.19956726129E+03  0.26779328263E+03  0.17300000000E+03 0.  1.
         -6    1    1    2    0  502 -0.65159055349E+01 -0.43757209910E+02  0.29970723471E+03  0.34887043007E+03  0.17300000000E+03 0.  1.
<mgrwt>
<rscale>  2 0.17856694E+03</rscale>
<asrwt>0</asrwt>
<pdfrwt beam="1">  1       21 0.55138745E-01 0.17856694E+03</pdfrwt>
<pdfrwt beam="2">  1       21 0.39732595E-01 0.17856694E+03</pdfrwt>
<totfact> 0.19105544E+04</totfact>
</mgrwt>
</event>
<event>
 4    1  0.4050555E+000  0.2434180E+03  0.7546771E-02  0.1117537E+00
         21   -1    0    0  503  502  0.00000000000E+00  0.00000000000E+00  0.20801329626E+03  0.20801329626E+03  0.00000000000E+00 0.  1.
         21   -1    0    0  501  503 -0.00000000000E+00 -0.00000000000E+00 -0.51758473356E+03  0.51758473356E+03  0.00000000000E+00 0.  1.
          6    1    1    2  501    0  0.11991681490E+03 -0.12224278083E+03 -0.39806609641E+03  0.46659292437E+03  0.17300000000E+03 0.  1.
         -6    1    1    2    0  502 -0.11991681490E+03  0.12224278083E+03  0.88494659113E+02  0.25900510546E+03  0.17300000000E+03 0.  1.
<mgrwt>
<rscale>  2 0.24341804E+03</rscale>
<asrwt>0</asrwt>
<pdfrwt beam="1">  1       21 0.32002046E-01 0.24341804E+03</pdfrwt>
<pdfrwt beam="2">  1       21 0.79628420E-01 0.24341804E+03</pdfrwt>
<totfact> 0.12654079E+04</totfact>
</mgrwt>
</event>
<event>
 4    1  0.4050555E+000  0.1897417E+03  0.7546771E-02  0.1158695E+00
         21   -1    0    0  503  502  0.00000000000E+00  0.00000000000E+00  0.17055266625E+03  0.17055266625E+03  0.00000000000E+00 0. -1.
         21   -1    0    0  501  503 -0.00000000000E+00 -0.00000000000E+00 -0.21369918617E+03  0.21369918617E+03  0.00000000000E+00 0. -1.
          6    1    1    2  501    0 -0.33132681003E+02  0.70534648117E+02 -0.42803849225E+02  0.19450984716E+03  0.17300000000E+03 0. -1.
         -6    1    1    2    0  502  0.33132681003E+02 -0.70534648117E+02 -0.34267069244E+00  0.18974200526E+03  0.17300000000E+03 0. -1.
<mgrwt>
<rscale>  2 0.18974170E+03</rscale>
<asrwt>0</asrwt>
<pdfrwt beam="1">  1       21 0.26238872E-01 0.18974170E+03</pdfrwt>
<pdfrwt beam="2">  1       21 0.32876798E-01 0.18974170E+03</pdfrwt>
<totfact> 0.12309729E+05</totfact>
</mgrwt>
</event>
<event>
 4    1  0.4050555E+000  0.1816168E+03  0.7546771E-02  0.1166247E+00
         21   -1    0    0  503  502  0.00000000000E+00  0.00000000000E+00  0.18822186560E+03  0.18822186560E+03  0.00000000000E+00 0.  1.
         21   -1    0    0  501  503 -0.00000000000E+00 -0.00000000000E+00 -0.26536233160E+03  0.26536233160E+03  0.00000000000E+00 0.  1.
          6    1    1    2  501    0  0.55214681923E+02  0.26470097719E+01 -0.17073507473E+03  0.24926919887E+03  0.17300000000E+03 0.  1.
         -6    1    1    2    0  502 -0.55214681923E+02 -0.26470097719E+01  0.93594608725E+02  0.20431499833E+03  0.17300000000E+03 0.  1.
<mgrwt>
<rscale>  2 0.18161682E+03</rscale>
<asrwt>0</asrwt>
<pdfrwt beam="1">  1       21 0.28957210E-01 0.18161682E+03</pdfrwt>
<pdfrwt beam="2">  1       21 0.40824974E-01 0.18161682E+03</pdfrwt>
<totfact> 0.66291977E+04</totfact>
</mgrwt>
</event>
<event>
 4    1  0.4050555E+000  0.2599021E+03  0.7546771E-02  0.1107202E+00
         21   -1    0    0  503  502  0.00000000000E+00  0.00000000000E+00  0.13806494312E+03  0.13806494312E+03  0.00000000000E+00 0. -1.
         21   -1    0    0  501  503 -0.00000000000E+00 -0.00000000000E+00 -0.57435423877E+03  0.57435423877E+03  0.00000000000E+00 0.  1.
          6    1    1    2  501    0  0.15839123604E+03 -0.11194782789E+03 -0.35525682157E+03  0.44017781532E+03  0.17300000000E+03 0.  1.
         -6    1    1    2    0  502 -0.15839123604E+03  0.11194782789E+03 -0.81032474078E+02  0.27224136658E+03  0.17300000000E+03 0. -1.
<mgrwt>
<rscale>  2 0.25990210E+03</rscale>
<asrwt>0</asrwt>
<pdfrwt beam="1">  1       21 0.21240761E-01 0.25990210E+03</pdfrwt>
<pdfrwt beam="2">  1       21 0.88362190E-01 0.25990210E+03</pdfrwt>
<totfact> 0.21803521E+04</totfact>
</mgrwt>
</event>
<event>
 4    1  0.4050555E+000  0.2045413E+03  0.7546771E-02  0.1145963E+00
         21   -1    0    0  503  502  0.00000000000E+00  0.00000000000E+00  0.18807759241E+03  0.18807759241E+03  0.00000000000E+00 0. -1.
         21   -1    0    0  501  503 -0.00000000000E+00 -0.00000000000E+00 -0.22624414223E+03  0.22624414223E+03  0.00000000000E+00 0.  1.
          6    1    1    2  501    0  0.51894740615E+00 -0.10912322993E+03 -0.45923882967E+02  0.20963337436E+03  0.17300000000E+03 0. -1.
         -6    1    1    2    0  502 -0.51894740615E+00  0.10912322993E+03  0.77573331459E+01  0.20468836028E+03  0.17300000000E+03 0.  1.
<mgrwt>
<rscale>  2 0.20454131E+03</rscale>
<asrwt>0</asrwt>
<pdfrwt beam="1">  1       21 0.28935014E-01 0.20454131E+03</pdfrwt>
<pdfrwt beam="2">  1       21 0.34806791E-01 0.20454131E+03</pdfrwt>
<totfact> 0.90511983E+04</totfact>
</mgrwt>
</event>
<event>
 4    1  0.4050555E+000  0.2040399E+03  0.7546771E-02  0.1146375E+00
         21   -1    0    0  501  502  0.00000000000E+00  0.00000000000E+00  0.57393378345E+02  0.57393378345E+02  0.00000000000E+00 0.  1.
         21   -1    0    0  502  503 -0.00000000000E+00 -0.00000000000E+00 -0.80533607379E+03  0.80533607379E+03  0.00000000000E+00 0.  1.
          6    1    1    2  501    0 -0.89981783912E+02 -0.60054604398E+02 -0.23805581472E+03  0.31353284975E+03  0.17300000000E+03 0.  1.
         -6    1    1    2    0  503  0.89981783912E+02  0.60054604398E+02 -0.50988688072E+03  0.54919660239E+03  0.17300000000E+03 0.  1.
<mgrwt>
<rscale>  2 0.20403989E+03</rscale>
<asrwt>0</asrwt>
<pdfrwt beam="1">  1       21 0.88297501E-02 0.20403989E+03</pdfrwt>
<pdfrwt beam="2">  1       21 0.12389786E+00 0.20403989E+03</pdfrwt>
<totfact> 0.48961699E+04</totfact>
</mgrwt>
</event>
<event>
 4    1  0.4050555E+000  0.1911403E+03  0.7546771E-02  0.1157437E+00
         21   -1    0    0  501  502  0.00000000000E+00  0.00000000000E+00  0.42349598067E+02  0.42349598067E+02  0.00000000000E+00 0.  1.
         21   -1    0    0  502  503 -0.00000000000E+00 -0.00000000000E+00 -0.99163015250E+03  0.99163015250E+03  0.00000000000E+00 0.  1.
          6    1    1    2  501    0 -0.79897033187E+02  0.14901864840E+02 -0.28821697236E+03  0.34583756974E+03  0.17300000000E+03 0.  1.
         -6    1    1    2    0  503  0.79897033187E+02 -0.14901864840E+02 -0.66106358207E+03  0.68814218083E+03  0.17300000000E+03 0.  1.
<mgrwt>
<rscale>  2 0.19114027E+03</rscale>
<asrwt>0</asrwt>
<pdfrwt beam="1">  1       21 0.65153237E-02 0.19114027E+03</pdfrwt>
<pdfrwt beam="2">  1       21 0.15255846E+00 0.19114027E+03</pdfrwt>
<totfact> 0.48976082E+04</totfact>
</mgrwt>
</event>
<event>
 4    1  0.4050555E+000  0.2361697E+03  0.7546771E-02  0.1122371E+00
         21   -1    0    0  503  502  0.00000000000E+00  0.00000000000E+00  0.34400824486E+03  0.34400824486E+03  0.00000000000E+00 0. -1.
         21   -1    0    0  501  503 -0.00000000000E+00 -0.00000000000E+00 -0.16213951078E+03  0.16213951078E+03  0.00000000000E+00 0. -1.
          6    1    1    2  501    0  0.15239168679E+01  0.16076325287E+03  0.92099730995E+02  0.25349261576E+03  0.17300000000E+03 0. -1.
         -6    1    1    2    0  502 -0.15239168679E+01 -0.16076325287E+03  0.89769003084E+02  0.25265513989E+03  0.17300000000E+03 0. -1.
<mgrwt>
<rscale>  2 0.23616974E+03</rscale>
<asrwt>0</asrwt>
<pdfrwt beam="1">  1       21 0.52924345E-01 0.23616974E+03</pdfrwt>
<pdfrwt beam="2">  1       21 0.24944540E-01 0.23616974E+03</pdfrwt>
<totfact> 0.50441015E+04</totfact>
</mgrwt>
</event>
<event>
 4    1  0.4050555E+000  0.1815008E+03  0.7546771E-02  0.1166358E+00
         21   -1    0    0  501  502  0.00000000000E+00  0.00000000000E+00  0.48204172981E+02  0.48204172981E+02  0.00000000000E+00 0.  1.
         21   -1    0    0  502  503 -0.00000000000E+00 -0.00000000000E+00 -0.78485111920E+03  0.78485111920E+03  0.00000000000E+00 0.  1.
          6    1    1    2  501    0  0.53208136435E+02 -0.13506814708E+02 -0.21856647120E+03  0.28410181653E+03  0.17300000000E+03 0.  1.
         -6    1    1    2    0  503 -0.53208136435E+02  0.13506814708E+02 -0.51808047502E+03  0.54895347565E+03  0.17300000000E+03 0.  1.
<mgrwt>
<rscale>  2 0.18150080E+03</rscale>
<asrwt>0</asrwt>
<pdfrwt beam="1">  1       21 0.74160263E-02 0.18150080E+03</pdfrwt>
<pdfrwt beam="2">  1       21 0.12074633E+00 0.18150080E+03</pdfrwt>
<totfact> 0.71563833E+04</totfact>
</mgrwt>
</event>
<event>
 4    1  0.4050555E+000  0.2554173E+03  0.7546771E-02  0.1109928E+00
         21   -1    0    0  503  502  0.00000000000E+00  0.00000000000E+00  0.30990179353E+03  0.30990179353E+03  0.00000000000E+00 0.  1.
         21   -1    0    0  501  503 -0.00000000000E+00 -0.00000000000E+00 -0.39356458887E+03  0.39356458887E+03  0.00000000000E+00 0. -1.
          6    1    1    2  501    0 -0.18704839780E+03  0.17941405106E+02 -0.28171108306E+03  0.38026192480E+03  0.17300000000E+03 0. -1.
         -6    1    1    2    0  502  0.18704839780E+03 -0.17941405106E+02  0.19804828772E+03  0.32320445759E+03  0.17300000000E+03 0.  1.
<mgrwt>
<rscale>  2 0.25541730E+03</rscale>
<asrwt>0</asrwt>
<pdfrwt beam="1">  1       21 0.47677199E-01 0.25541730E+03</pdfrwt>
<pdfrwt beam="2">  1       21 0.60548398E-01 0.25541730E+03</pdfrwt>
<totfact> 0.10285300E+04</totfact>
</mgrwt>
</event>
<event>
 4    1  0.4050555E+000  0.1855951E+03  0.7546771E-02  0.1162495E+00
         21   -1    0    0  503  502  0.00000000000E+00  0.00000000000E+00  0.27147678737E+03  0.27147678737E+03  0.00000000000E+00 0.  1.
         21   -1    0    0  501  503 -0.00000000000E+00 -0.00000000000E+00 -0.57016617650E+03  0.57016617650E+03  0.00000000000E+00 0. -1.
          6    1    1    2  501    0 -0.66667190203E+02 -0.84879299123E+01 -0.52039963281E+03  0.55250460363E+03  0.17300000000E+03 0. -1.
         -6    1    1    2    0  502  0.66667190203E+02  0.84879299123E+01  0.22171024368E+03  0.28913836023E+03  0.17300000000E+03 0.  1.
<mgrwt>
<rscale>  2 0.18559515E+03</rscale>
<asrwt>0</asrwt>
<pdfrwt beam="1">  1       21 0.41765660E-01 0.18559515E+03</pdfrwt>
<pdfrwt beam="2">  1       21 0.87717872E-01 0.18559515E+03</pdfrwt>
<totfact> 0.61851243E+03</totfact>
</mgrwt>
</event>
<event>
 4    1  0.4050555E+000  0.2344757E+03  0.7546771E-02  0.1123529E+00
         21   -1    0    0  503  502  0.00000000000E+00  0.00000000000E+00  0.83430558432E+02  0.83430558432E+02  0.00000000000E+00 0. -1.
         21   -1    0    0  501  503 -0.00000000000E+00 -0.00000000000E+00 -0.80423697806E+03  0.80423697806E+03  0.00000000000E+00 0. -1.
          6    1    1    2  501    0  0.13886571360E+03  0.75935402989E+02 -0.54902869287E+03  0.59700199115E+03  0.17300000000E+03 0. -1.
         -6    1    1    2    0  502 -0.13886571360E+03 -0.75935402989E+02 -0.17177772676E+03  0.29066554534E+03  0.17300000000E+03 0. -1.
<mgrwt>
<rscale>  2 0.23447574E+03</rscale>
<asrwt>0</asrwt>
<pdfrwt beam="1">  1       21 0.12835470E-01 0.23447574E+03</pdfrwt>
<pdfrwt beam="2">  1       21 0.12372877E+00 0.23447574E+03</pdfrwt>
<totfact> 0.24841576E+04</totfact>
</mgrwt>
</event>
<event>
 4    1  0.4050555E+000  0.1906917E+03  0.7546771E-02  0.1157839E+00
         21   -1    0    0  501  502  0.00000000000E+00  0.00000000000E+00  0.47315338911E+03  0.47315338911E+03  0.00000000000E+00 0. -1.
         21   -1    0    0  502  503 -0.00000000000E+00 -0.00000000000E+00 -0.26273245534E+03  0.26273245534E+03  0.00000000000E+00 0.  1.
          6    1    1    2  501    0  0.62820255720E+02 -0.49879440999E+02  0.41469508937E+03  0.45643768502E+03  0.17300000000E+03 0. -1.
         -6    1    1    2    0  503 -0.62820255720E+02  0.49879440999E+02 -0.20427415560E+03  0.27944815943E+03  0.17300000000E+03 0.  1.
<mgrwt>
<rscale>  2 0.19069175E+03</rscale>
<asrwt>0</asrwt>
<pdfrwt beam="1">  1       21 0.72792829E-01 0.19069175E+03</pdfrwt>
<pdfrwt beam="2">  1       21 0.40420378E-01 0.19069175E+03</pdfrwt>
<totfact> 0.10035299E+04</totfact>
</mgrwt>
</event>
<event>
 4    1  0.4050555E+000  0.1926994E+03  0.7546771E-02  0.1156049E+00
         21   -1    0    0  503  502  0.00000000000E+00  0.00000000000E+00  0.58134294741E+02  0.58134294741E+02  0.00000000000E+00 0.  1.
         21   -1    0    0  501  503 -0.00000000000E+00 -0.00000000000E+00 -0.18339697348E+04  0.18339697348E+04  0.00000000000E+00 0. -1.
          6    1    1    2  501    0 -0.40262270478E+02 -0.74719636993E+02 -0.16516540585E+04  0.16628572409E+04  0.17300000000E+03 0. -1.
         -6    1    1    2    0  502  0.40262270478E+02  0.74719636993E+02 -0.12418138151E+03  0.22924678861E+03  0.17300000000E+03 0.  1.
<mgrwt>
<rscale>  2 0.19269944E+03</rscale>
<asrwt>0</asrwt>
<pdfrwt beam="1">  1       21 0.89437379E-02 0.19269944E+03</pdfrwt>
<pdfrwt beam="2">  1       21 0.28214918E+00 0.19269944E+03</pdfrwt>
<totfact> 0.42712152E+03</totfact>
</mgrwt>
</event>
<event>
 4    1  0.4050555E+000  0.2340325E+03  0.7546771E-02  0.1123833E+00
         21   -1    0    0  503  502  0.00000000000E+00  0.00000000000E+00  0.12628274412E+04  0.12628274412E+04  0.00000000000E+00 0. -1.
         21   -1    0    0  501  503 -0.00000000000E+00 -0.00000000000E+00 -0.53446621395E+02  0.53446621395E+02  0.00000000000E+00 0.  1.
          6    1    1    2  501    0  0.97612329822E+02  0.12374991608E+03  0.31894911443E+03  0.39560048819E+03  0.17300000000E+03 0.  1.
         -6    1    1    2    0  502 -0.97612329822E+02 -0.12374991608E+03  0.89043170533E+03  0.92067357436E+03  0.17300000000E+03 0. -1.
<mgrwt>
<rscale>  2 0.23403249E+03</rscale>
<asrwt>0</asrwt>
<pdfrwt beam="1">  1       21 0.19428112E+00 0.23403249E+03</pdfrwt>
<pdfrwt beam="2">  1       21 0.82225581E-02 0.23403249E+03</pdfrwt>
<totfact> 0.16231879E+04</totfact>
</mgrwt>
</event>
<event>
 4    1  0.4050555E+000  0.1734174E+03  0.7546771E-02  0.1174330E+00
         21   -1    0    0  503  502  0.00000000000E+00  0.00000000000E+00  0.13781742466E+03  0.13781742466E+03  0.00000000000E+00 0. -1.
         21   -1    0    0  501  503 -0.00000000000E+00 -0.00000000000E+00 -0.21821508696E+03  0.21821508696E+03  0.00000000000E+00 0. -1.
          6    1    1    2  501    0 -0.72913661822E+01 -0.95625894261E+01 -0.40695572432E+02  0.17812842769E+03  0.17300000000E+03 0. -1.
         -6    1    1    2    0  502  0.72913661822E+01  0.95625894261E+01 -0.39702089875E+02  0.17790408393E+03  0.17300000000E+03 0. -1.
<mgrwt>
<rscale>  2 0.17341744E+03</rscale>
<asrwt>0</asrwt>
<pdfrwt beam="1">  1       21 0.21202681E-01 0.17341744E+03</pdfrwt>
<pdfrwt beam="2">  1       21 0.33571552E-01 0.17341744E+03</pdfrwt>
<totfact> 0.17786262E+05</totfact>
</mgrwt>
</event>
<event>
 4    1  0.4050555E+000  0.2242441E+03  0.7546771E-02  0.1130758E+00
         21   -1    0    0  501  502  0.00000000000E+00  0.00000000000E+00  0.23574835137E+03  0.23574835137E+03  0.00000000000E+00 0. -1.
         21   -1    0    0  502  503 -0.00000000000E+00 -0.00000000000E+00 -0.61276643427E+03  0.61276643427E+03  0.00000000000E+00 0.  1.
          6    1    1    2  501    0 -0.23572606955E+02  0.14071510668E+03  0.15403894784E+03  0.27205405069E+03  0.17300000000E+03 0. -1.
         -6    1    1    2    0  503  0.23572606955E+02 -0.14071510668E+03 -0.53105703073E+03  0.57646073495E+03  0.17300000000E+03 0.  1.
<mgrwt>
<rscale>  2 0.22424408E+03</rscale>
<asrwt>0</asrwt>
<pdfrwt beam="1">  1       21 0.36268977E-01 0.22424408E+03</pdfrwt>
<pdfrwt beam="2">  1       21 0.94271759E-01 0.22424408E+03</pdfrwt>
<totfact> 0.67593978E+03</totfact>
</mgrwt>
</event>
<event>
 4    1  0.4050555E+000  0.2519416E+03  0.7546771E-02  0.1112084E+00
         21   -1    0    0  503  502  0.00000000000E+00  0.00000000000E+00  0.37357598090E+03  0.37357598090E+03  0.00000000000E+00 0. -1.
         21   -1    0    0  501  503 -0.00000000000E+00 -0.00000000000E+00 -0.20555609981E+03  0.20555609981E+03  0.00000000000E+00 0. -1.
          6    1    1    2  501    0  0.24270694116E+02  0.18153929174E+03 -0.36572421450E+02  0.25458225203E+03  0.17300000000E+03 0. -1.
         -6    1    1    2    0  502 -0.24270694116E+02 -0.18153929174E+03  0.20459230254E+03  0.32454982868E+03  0.17300000000E+03 0. -1.
<mgrwt>
<rscale>  2 0.25194162E+03</rscale>
<asrwt>0</asrwt>
<pdfrwt beam="1">  1       21 0.57473228E-01 0.25194162E+03</pdfrwt>
<pdfrwt beam="2">  1       21 0.31624015E-01 0.25194162E+03</pdfrwt>
<totfact> 0.26492199E+04</totfact>
</mgrwt>
</event>
<event>
 4    1  0.4050555E+000  0.2158159E+03  0.7546771E-02  0.1137041E+00
         21   -1    0    0  501  502  0.00000000000E+00  0.00000000000E+00  0.94382068412E+02  0.94382068412E+02  0.00000000000E+00 0.  1.
         21   -1    0    0  502  503 -0.00000000000E+00 -0.00000000000E+00 -0.54451937867E+03  0.54451937867E+03  0.00000000000E+00 0.  1.
          6    1    1    2  501    0 -0.12897790134E+03 -0.34956480509E+01 -0.12727485342E+03  0.25055020835E+03  0.17300000000E+03 0.  1.
         -6    1    1    2    0  503  0.12897790134E+03  0.34956480509E+01 -0.32286245684E+03  0.38835123874E+03  0.17300000000E+03 0.  1.
<mgrwt>
<rscale>  2 0.21581594E+03</rscale>
<asrwt>0</asrwt>
<pdfrwt beam="1">  1       21 0.14520318E-01 0.21581594E+03</pdfrwt>
<pdfrwt beam="2">  1       21 0.83772212E-01 0.21581594E+03</pdfrwt>
<totfact> 0.50971814E+04</totfact>
</mgrwt>
</event>
<event>
 4    1  0.4050555E+000  0.1912852E+03  0.7546771E-02  0.1157307E+00
         21   -1    0    0  501  502  0.00000000000E+00  0.00000000000E+00  0.76527043872E+02  0.76527043872E+02  0.00000000000E+00 0. -1.
         21   -1    0    0  502  503 -0.00000000000E+00 -0.00000000000E+00 -0.50188153498E+03  0.50188153498E+03  0.00000000000E+00 0. -1.
          6    1    1    2  501    0  0.63642425520E+01 -0.81366694506E+02 -0.14976575113E+03  0.24293995713E+03  0.17300000000E+03 0.  1.
         -6    1    1    2    0  503 -0.63642425520E+01  0.81366694506E+02 -0.27558873998E+03  0.33546862173E+03  0.17300000000E+03 0.  1.
<mgrwt>
<rscale>  2 0.19128524E+03</rscale>
<asrwt>0</asrwt>
<pdfrwt beam="1">  1       21 0.11773392E-01 0.19128524E+03</pdfrwt>
<pdfrwt beam="2">  1       21 0.77212543E-01 0.19128524E+03</pdfrwt>
<totfact> 0.90504872E+04</totfact>
</mgrwt>
</event>
<event>
 4    1  0.4050555E+000  0.2297167E+03  0.7546771E-02  0.1126839E+00
         21   -1    0    0  501  502  0.00000000000E+00  0.00000000000E+00  0.43471501506E+03  0.43471501506E+03  0.00000000000E+00 0. -1.
         21   -1    0    0  502  503 -0.00000000000E+00 -0.00000000000E+00 -0.13641575747E+03  0.13641575747E+03  0.00000000000E+00 0. -1.
          6    1    1    2  501    0  0.14804829689E+03 -0.30371976251E+02  0.24392630484E+03  0.33506685504E+03  0.17300000000E+03 0. -1.
         -6    1    1    2    0  503 -0.14804829689E+03  0.30371976251E+02  0.54372952751E+02  0.23606391750E+03  0.17300000000E+03 0. -1.
<mgrwt>
<rscale>  2 0.22971668E+03</rscale>
<asrwt>0</asrwt>
<pdfrwt beam="1">  1       21 0.66879232E-01 0.22971668E+03</pdfrwt>
<pdfrwt beam="2">  1       21 0.20987040E-01 0.22971668E+03</pdfrwt>
<totfact> 0.42424406E+04</totfact>
</mgrwt>
</event>
<event>
 4    1  0.4050555E+000  0.2266839E+03  0.7546771E-02  0.1128996E+00
         21   -1    0    0  503  502  0.00000000000E+00  0.00000000000E+00  0.65714425900E+03  0.65714425900E+03  0.00000000000E+00 0. -1.
         21   -1    0    0  501  503 -0.00000000000E+00 -0.00000000000E+00 -0.87103951377E+02  0.87103951377E+02  0.00000000000E+00 0. -1.
          6    1    1    2  501    0  0.10832513815E+03  0.98601397316E+02  0.16601229277E+03  0.28097268988E+03  0.17300000000E+03 0. -1.
         -6    1    1    2    0  502 -0.10832513815E+03 -0.98601397316E+02  0.40402801485E+03  0.46327552050E+03  0.17300000000E+03 0. -1.
<mgrwt>
<rscale>  2 0.22668386E+03</rscale>
<asrwt>0</asrwt>
<pdfrwt beam="1">  1       21 0.10109911E+00 0.22668386E+03</pdfrwt>
<pdfrwt beam="2">  1       21 0.13400608E-01 0.22668386E+03</pdfrwt>
<totfact> 0.37813909E+04</totfact>
</mgrwt>
</event>
<event>
 4    1  0.4050555E+000  0.1996550E+03  0.7546771E-02  0.1150030E+00
         21   -1    0    0  503  502  0.00000000000E+00  0.00000000000E+00  0.48430273520E+02  0.48430273520E+02  0.00000000000E+00 0. -1.
         21   -1    0    0  501  503 -0.00000000000E+00 -0.00000000000E+00 -0.19288665312E+04  0.19288665312E+04  0.00000000000E+00 0. -1.
          6    1    1    2  501    0 -0.98514709264E+02 -0.15099327070E+02 -0.16887767691E+04  0.17005378894E+04  0.17300000000E+03 0. -1.
         -6    1    1    2    0  502  0.98514709264E+02  0.15099327070E+02 -0.19165948860E+03  0.27675891529E+03  0.17300000000E+03 0. -1.
<mgrwt>
<rscale>  2 0.19965505E+03</rscale>
<asrwt>0</asrwt>
<pdfrwt beam="1">  1       21 0.74508135E-02 0.19965505E+03</pdfrwt>
<pdfrwt beam="2">  1       21 0.29674861E+00 0.19965505E+03</pdfrwt>
<totfact> 0.48006027E+03</totfact>
</mgrwt>
</event>
<event>
 4    1  0.4050555E+000  0.2962038E+03  0.7546771E-02  0.1087154E+00
         21   -1    0    0  503  502  0.00000000000E+00  0.00000000000E+00  0.42620429104E+03  0.42620429104E+03  0.00000000000E+00 0.  1.
         21   -1    0    0  501  503 -0.00000000000E+00 -0.00000000000E+00 -0.45816778199E+03  0.45816778199E+03  0.00000000000E+00 0.  1.
          6    1    1    2  501    0 -0.37264485425E+02 -0.23752695043E+03 -0.34412354057E+03  0.45404592854E+03  0.17300000000E+03 0.  1.
         -6    1    1    2    0  502  0.37264485425E+02  0.23752695043E+03  0.31216004962E+03  0.43032614449E+03  0.17300000000E+03 0.  1.
<mgrwt>
<rscale>  2 0.29620380E+03</rscale>
<asrwt>0</asrwt>
<pdfrwt beam="1">  1       21 0.65569891E-01 0.29620380E+03</pdfrwt>
<pdfrwt beam="2">  1       21 0.70487351E-01 0.29620380E+03</pdfrwt>
<totfact> 0.36402749E+03</totfact>
</mgrwt>
</event>
<event>
 4    1  0.4050555E+000  0.1754091E+03  0.7546771E-02  0.1172322E+00
         21   -1    0    0  501  502  0.00000000000E+00  0.00000000000E+00  0.46201591602E+02  0.46201591602E+02  0.00000000000E+00 0.  1.
         21   -1    0    0  502  503 -0.00000000000E+00 -0.00000000000E+00 -0.12585117527E+04  0.12585117527E+04  0.00000000000E+00 0.  1.
          6    1    1    2  501    0 -0.15922573690E+02 -0.24203503316E+02 -0.15852403300E+03  0.23642801645E+03  0.17300000000E+03 0.  1.
         -6    1    1    2    0  503  0.15922573690E+02  0.24203503316E+02 -0.10537861281E+04  0.10682853278E+04  0.17300000000E+03 0.  1.
<mgrwt>
<rscale>  2 0.17540906E+03</rscale>
<asrwt>0</asrwt>
<pdfrwt beam="1">  1       21 0.71079361E-02 0.17540906E+03</pdfrwt>
<pdfrwt beam="2">  1       21 0.19361722E+00 0.17540906E+03</pdfrwt>
<totfact> 0.22040110E+04</totfact>
</mgrwt>
</event>
<event>
 4    1  0.4050555E+000  0.1762222E+03  0.7546771E-02  0.1171510E+00
         21   -1    0    0  501  502  0.00000000000E+00  0.00000000000E+00  0.15357035573E+03  0.15357035573E+03  0.00000000000E+00 0.  1.
         21   -1    0    0  502  503 -0.00000000000E+00 -0.00000000000E+00 -0.21443096724E+03  0.21443096724E+03  0.00000000000E+00 0.  1.
          6    1    1    2  501    0  0.78788464667E+01  0.32606502699E+02  0.13487031598E+02  0.17673754627E+03  0.17300000000E+03 0.  1.
         -6    1    1    2    0  503 -0.78788464667E+01 -0.32606502699E+02 -0.74347643114E+02  0.19126377670E+03  0.17300000000E+03 0.  1.
<mgrwt>
<rscale>  2 0.17622219E+03</rscale>
<asrwt>0</asrwt>
<pdfrwt beam="1">  1       21 0.23626209E-01 0.17622219E+03</pdfrwt>
<pdfrwt beam="2">  1       21 0.32989380E-01 0.17622219E+03</pdfrwt>
<totfact> 0.15000583E+05</totfact>
</mgrwt>
</event>
<event>
 4    1  0.4050555E+000  0.3169631E+03  0.7546771E-02  0.1077056E+00
         21   -1    0    0  503  502  0.00000000000E+00  0.00000000000E+00  0.29530276176E+03  0.29530276176E+03  0.00000000000E+00 0. -1.
         21   -1    0    0  501  503 -0.00000000000E+00 -0.00000000000E+00 -0.55625311982E+03  0.55625311982E+03  0.00000000000E+00 0.  1.
          6    1    1    2  501    0  0.20335455346E+03 -0.17083191405E+03 -0.39582260864E+03  0.50709087428E+03  0.17300000000E+03 0.  1.
         -6    1    1    2    0  502 -0.20335455346E+03  0.17083191405E+03  0.13487225058E+03  0.34446500729E+03  0.17300000000E+03 0.  1.
<mgrwt>
<rscale>  2 0.31696312E+03</rscale>
<asrwt>0</asrwt>
<pdfrwt beam="1">  1       21 0.45431194E-01 0.31696312E+03</pdfrwt>
<pdfrwt beam="2">  1       21 0.85577403E-01 0.31696312E+03</pdfrwt>
<totfact> 0.50786420E+03</totfact>
</mgrwt>
</event>
<event>
 4    1  0.4050555E+000  0.3670329E+03  0.7546771E-02  0.1055833E+00
         21   -1    0    0  503  502  0.00000000000E+00  0.00000000000E+00  0.25668355259E+03  0.25668355259E+03  0.00000000000E+00 0.  1.
         21   -1    0    0  501  503 -0.00000000000E+00 -0.00000000000E+00 -0.62989182499E+03  0.62989182499E+03  0.00000000000E+00 0.  1.
          6    1    1    2  501    0  0.30332417151E+03 -0.11304244520E+03 -0.36765137843E+03  0.51950041723E+03  0.17300000000E+03 0.  1.
         -6    1    1    2    0  502 -0.30332417151E+03  0.11304244520E+03 -0.55568939651E+01  0.36707496035E+03  0.17300000000E+03 0.  1.
<mgrwt>
<rscale>  2 0.36703290E+03</rscale>
<asrwt>0</asrwt>
<pdfrwt beam="1">  1       21 0.39489778E-01 0.36703290E+03</pdfrwt>
<pdfrwt beam="2">  1       21 0.96906433E-01 0.36703290E+03</pdfrwt>
<totfact> 0.49478960E+03</totfact>
</mgrwt>
</event>
<event>
 4    1  0.4050555E+000  0.1921125E+03  0.7546771E-02  0.1156570E+00
         21   -1    0    0  501  502  0.00000000000E+00  0.00000000000E+00  0.22916414868E+03  0.22916414868E+03  0.00000000000E+00 0.  1.
         21   -1    0    0  502  503 -0.00000000000E+00 -0.00000000000E+00 -0.58313038337E+03  0.58313038337E+03  0.00000000000E+00 0.  1.
          6    1    1    2  501    0 -0.78409945851E+02 -0.28811584119E+02  0.16855623738E+03  0.25557470952E+03  0.17300000000E+03 0.  1.
         -6    1    1    2    0  503  0.78409945851E+02  0.28811584119E+02 -0.52252247206E+03  0.55671982253E+03  0.17300000000E+03 0.  1.
<mgrwt>
<rscale>  2 0.19211254E+03</rscale>
<asrwt>0</asrwt>
<pdfrwt beam="1">  1       21 0.35256023E-01 0.19211254E+03</pdfrwt>
<pdfrwt beam="2">  1       21 0.89712366E-01 0.19211254E+03</pdfrwt>
<totfact> 0.82128756E+03</totfact>
</mgrwt>
</event>
<event>
 4    1  0.4050555E+000  0.1817981E+03  0.7546771E-02  0.1166074E+00
         21   -1    0    0  501  502  0.00000000000E+00  0.00000000000E+00  0.27796524096E+03  0.27796524096E+03  0.00000000000E+00 0.  1.
         21   -1    0    0  502  503 -0.00000000000E+00 -0.00000000000E+00 -0.20710879041E+03  0.20710879041E+03  0.00000000000E+00 0.  1.
          6    1    1    2  501    0 -0.48011260899E+02  0.28573732546E+02  0.19370985548E+03  0.26565776381E+03  0.17300000000E+03 0.  1.
         -6    1    1    2    0  503  0.48011260899E+02 -0.28573732546E+02 -0.12285340493E+03  0.21941626756E+03  0.17300000000E+03 0.  1.
<mgrwt>
<rscale>  2 0.18179807E+03</rscale>
<asrwt>0</asrwt>
<pdfrwt beam="1">  1       21 0.42763883E-01 0.18179807E+03</pdfrwt>
<pdfrwt beam="2">  1       21 0.31862891E-01 0.18179807E+03</pdfrwt>
<totfact> 0.50071508E+04</totfact>
</mgrwt>
</event>
<event>
 4    1  0.4050555E+000  0.3159331E+03  0.7546771E-02  0.1077536E+00
         21   -1    0    0  501  502  0.00000000000E+00  0.00000000000E+00  0.13055848592E+03  0.13055848592E+03  0.00000000000E+00 0. -1.
         21   -1    0    0  502  503 -0.00000000000E+00 -0.00000000000E+00 -0.81880175336E+03  0.81880175336E+03  0.00000000000E+00 0.  1.
          6    1    1    2  501    0 -0.19800209992E+03  0.17515681232E+03 -0.46634778097E+03  0.56328855243E+03  0.17300000000E+03 0. -1.
         -6    1    1    2    0  503  0.19800209992E+03 -0.17515681232E+03 -0.22189548647E+03  0.38607168685E+03  0.17300000000E+03 0. -1.
<mgrwt>
<rscale>  2 0.31593313E+03</rscale>
<asrwt>0</asrwt>
<pdfrwt beam="1">  1       21 0.20085920E-01 0.31593313E+03</pdfrwt>
<pdfrwt beam="2">  1       21 0.12596950E+00 0.31593313E+03</pdfrwt>
<totfact> 0.99786056E+03</totfact>
</mgrwt>
</event>
<event>
 4    1  0.4050555E+000  0.2008531E+03  0.7546771E-02  0.1149021E+00
         21   -1    0    0  503  502  0.00000000000E+00  0.00000000000E+00  0.10687950542E+03  0.10687950542E+03  0.00000000000E+00 0.  1.
         21   -1    0    0  501  503 -0.00000000000E+00 -0.00000000000E+00 -0.51504930816E+03  0.51504930816E+03  0.00000000000E+00 0.  1.
          6    1    1    2  501    0  0.21442270822E+02 -0.99765614281E+02 -0.36481243374E+03  0.41644934936E+03  0.17300000000E+03 0.  1.
         -6    1    1    2    0  502 -0.21442270822E+02  0.99765614281E+02 -0.43357369008E+02  0.20547946422E+03  0.17300000000E+03 0.  1.
<mgrwt>
<rscale>  2 0.20085305E+03</rscale>
<asrwt>0</asrwt>
<pdfrwt beam="1">  1       21 0.16443001E-01 0.20085305E+03</pdfrwt>
<pdfrwt beam="2">  1       21 0.79238355E-01 0.20085305E+03</pdfrwt>
<totfact> 0.46416994E+04</totfact>
</mgrwt>
</event>
<event>
 4    1  0.4050555E+000  0.2361425E+03  0.7546771E-02  0.1122390E+00
         21   -1    0    0  501  502  0.00000000000E+00  0.00000000000E+00  0.78403741133E+03  0.78403741133E+03  0.00000000000E+00 0. -1.
         21   -1    0    0  502  503 -0.00000000000E+00 -0.00000000000E+00 -0.82776224150E+02  0.82776224150E+02  0.00000000000E+00 0. -1.
          6    1    1    2  501    0 -0.15683538572E+03  0.35169856668E+02  0.51324614632E+03  0.56496448008E+03  0.17300000000E+03 0. -1.
         -6    1    1    2    0  503  0.15683538572E+03 -0.35169856668E+02  0.18801504086E+03  0.30184915541E+03  0.17300000000E+03 0. -1.
<mgrwt>
<rscale>  2 0.23614245E+03</rscale>
<asrwt>0</asrwt>
<pdfrwt beam="1">  1       21 0.12062114E+00 0.23614245E+03</pdfrwt>
<pdfrwt beam="2">  1       21 0.12734804E-01 0.23614245E+03</pdfrwt>
<totfact> 0.26833481E+04</totfact>
</mgrwt>
</event>
<event>
 4    1  0.4050555E+000  0.2670477E+03  0.7546771E-02  0.1102981E+00
         21   -1    0    0  501  502  0.00000000000E+00  0.00000000000E+00  0.21590489295E+03  0.21590489295E+03  0.00000000000E+00 0.  1.
         21   -1    0    0  502  503 -0.00000000000E+00 -0.00000000000E+00 -0.36628456647E+03  0.36628456647E+03  0.00000000000E+00 0.  1.
          6    1    1    2  501    0 -0.18717129109E+03 -0.79701973164E+02  0.16043199209E+02  0.26752921518E+03  0.17300000000E+03 0.  1.
         -6    1    1    2    0  503  0.18717129109E+03  0.79701973164E+02 -0.16642287273E+03  0.31466024424E+03  0.17300000000E+03 0.  1.
<mgrwt>
<rscale>  2 0.26704774E+03</rscale>
<asrwt>0</asrwt>
<pdfrwt beam="1">  1       21 0.33216138E-01 0.26704774E+03</pdfrwt>
<pdfrwt beam="2">  1       21 0.56351471E-01 0.26704774E+03</pdfrwt>
<totfact> 0.24907031E+04</totfact>
</mgrwt>
</event>
<event>
 4    1  0.4050555E+000  0.2282272E+03  0.7546771E-02  0.1127894E+00
         21   -1    0    0  501  502  0.00000000000E+00  0.00000000000E+00  0.18505195866E+03  0.18505195866E+03  0.00000000000E+00 0.  1.
         21   -1    0    0  502  503 -0.00000000000E+00 -0.00000000000E+00 -0.32240145903E+03  0.32240145903E+03  0.00000000000E+00 0. -1.
          6    1    1    2  501    0 -0.63209750675E+02  0.13477078200E+03  0.21724716287E+02  0.22925880476E+03  0.17300000000E+03 0.  1.
         -6    1    1    2    0  503  0.63209750675E+02 -0.13477078200E+03 -0.15907421665E+03  0.27819461293E+03  0.17300000000E+03 0. -1.
<mgrwt>
<rscale>  2 0.22822716E+03</rscale>
<asrwt>0</asrwt>
<pdfrwt beam="1">  1       21 0.28469532E-01 0.22822716E+03</pdfrwt>
<pdfrwt beam="2">  1       21 0.49600224E-01 0.22822716E+03</pdfrwt>
<totfact> 0.44940577E+04</totfact>
</mgrwt>
</event>
<event>
 4    1  0.4050555E+000  0.1756617E+03  0.7546771E-02  0.1172069E+00
         21   -1    0    0  503  502  0.00000000000E+00  0.00000000000E+00  0.89830530866E+03  0.89830530866E+03  0.00000000000E+00 0. -1.
         21   -1    0    0  501  503 -0.00000000000E+00 -0.00000000000E+00 -0.66275786310E+02  0.66275786310E+02  0.00000000000E+00 0. -1.
          6    1    1    2  501    0 -0.24827331080E+02 -0.17653133958E+02  0.81280417334E+02  0.19355499412E+03  0.17300000000E+03 0. -1.
         -6    1    1    2    0  502  0.24827331080E+02  0.17653133958E+02  0.75074910501E+03  0.77102610084E+03  0.17300000000E+03 0. -1.
<mgrwt>
<rscale>  2 0.17566169E+03</rscale>
<asrwt>0</asrwt>
<pdfrwt beam="1">  1       21 0.13820081E+00 0.17566169E+03</pdfrwt>
<pdfrwt beam="2">  1       21 0.10196275E-01 0.17566169E+03</pdfrwt>
<totfact> 0.29313121E+04</totfact>
</mgrwt>
</event>
<event>
 4    1  0.4050555E+000  0.2326463E+03  0.7546771E-02  0.1124791E+00
         21   -1    0    0  501  502  0.00000000000E+00  0.00000000000E+00  0.26662088658E+03  0.26662088658E+03  0.00000000000E+00 0. -1.
         21   -1    0    0  502  503 -0.00000000000E+00 -0.00000000000E+00 -0.59734520472E+03  0.59734520472E+03  0.00000000000E+00 0. -1.
          6    1    1    2  501    0  0.99142911893E+01 -0.15523209406E+03  0.18562543328E+03  0.29762576783E+03  0.17300000000E+03 0. -1.
         -6    1    1    2    0  503 -0.99142911893E+01  0.15523209406E+03 -0.51634975142E+03  0.56634032347E+03  0.17300000000E+03 0. -1.
<mgrwt>
<rscale>  2 0.23264629E+03</rscale>
<asrwt>0</asrwt>
<pdfrwt beam="1">  1       21 0.41018598E-01 0.23264629E+03</pdfrwt>
<pdfrwt beam="2">  1       21 0.91899262E-01 0.23264629E+03</pdfrwt>
<totfact> 0.55656088E+03</totfact>
</mgrwt>
</event>
<event>
 4    1  0.4050555E+000  0.2813489E+03  0.7546771E-02  0.1094954E+00
         21   -1    0    0  503  502  0.00000000000E+00  0.00000000000E+00  0.11919380082E+03  0.11919380082E+03  0.00000000000E+00 0.  1.
         21   -1    0    0  501  503 -0.00000000000E+00 -0.00000000000E+00 -0.11100265688E+04  0.11100265688E+04  0.00000000000E+00 0. -1.
          6    1    1    2  501    0 -0.12706475740E+02  0.22151021247E+03 -0.88496546513E+03  0.92861246127E+03  0.17300000000E+03 0. -1.
         -6    1    1    2    0  502  0.12706475740E+02 -0.22151021247E+03 -0.10586730287E+03  0.30060790836E+03  0.17300000000E+03 0.  1.
<mgrwt>
<rscale>  2 0.28134894E+03</rscale>
<asrwt>0</asrwt>
<pdfrwt beam="1">  1       21 0.18337507E-01 0.28134894E+03</pdfrwt>
<pdfrwt beam="2">  1       21 0.17077332E+00 0.28134894E+03</pdfrwt>
<totfact> 0.53590648E+03</totfact>
</mgrwt>
</event>
<event>
 4    1  0.4050555E+000  0.1733875E+03  0.7546771E-02  0.1174361E+00
         21   -1    0    0  503  502  0.00000000000E+00  0.00000000000E+00  0.10142332323E+03  0.10142332323E+03  0.00000000000E+00 0. -1.
         21   -1    0    0  501  503 -0.00000000000E+00 -0.00000000000E+00 -0.59542778017E+03  0.59542778017E+03  0.00000000000E+00 0. -1.
          6    1    1    2  501    0  0.49921951231E+01 -0.10454713576E+02 -0.49391386155E+03  0.52346358582E+03  0.17300000000E+03 0. -1.
         -6    1    1    2    0  502 -0.49921951231E+01  0.10454713576E+02 -0.90595393483E-01  0.17338751759E+03  0.17300000000E+03 0. -1.
<mgrwt>
<rscale>  2 0.17338749E+03</rscale>
<asrwt>0</asrwt>
<pdfrwt beam="1">  1       21 0.15603588E-01 0.17338749E+03</pdfrwt>
<pdfrwt beam="2">  1       21 0.91604273E-01 0.17338749E+03</pdfrwt>
<totfact> 0.37196128E+04</totfact>
</mgrwt>
</event>
<event>
 4    1  0.4050555E+000  0.2003389E+03  0.7546771E-02  0.1149453E+00
         21   -1    0    0  501  502  0.00000000000E+00  0.00000000000E+00  0.52311814206E+03  0.52311814206E+03  0.00000000000E+00 0.  1.
         21   -1    0    0  502  503 -0.00000000000E+00 -0.00000000000E+00 -0.65179202321E+03  0.65179202321E+03  0.00000000000E+00 0. -1.
          6    1    1    2  501    0  0.26471691594E+02  0.97498357014E+02  0.48746062593E+03  0.52702328403E+03  0.17300000000E+03 0.  1.
         -6    1    1    2    0  503 -0.26471691594E+02 -0.97498357014E+02 -0.61613450708E+03  0.64788688124E+03  0.17300000000E+03 0. -1.
<mgrwt>
<rscale>  2 0.20033891E+03</rscale>
<asrwt>0</asrwt>
<pdfrwt beam="1">  1       21 0.80479714E-01 0.20033891E+03</pdfrwt>
<pdfrwt beam="2">  1       21 0.10027570E+00 0.20033891E+03</pdfrwt>
<totfact> 0.10983120E+03</totfact>
</mgrwt>
</event>
<event>
 4    1  0.4050555E+000  0.2227683E+03  0.7546771E-02  0.1131836E+00
         21   -1    0    0  503  502  0.00000000000E+00  0.00000000000E+00  0.51121260049E+03  0.51121260049E+03  0.00000000000E+00 0. -1.
         21   -1    0    0  501  503 -0.00000000000E+00 -0.00000000000E+00 -0.10365226639E+03  0.10365226639E+03  0.00000000000E+00 0.  1.
          6    1    1    2  501    0 -0.85563289558E+02 -0.11124578545E+03  0.12633400335E+03  0.25609760191E+03  0.17300000000E+03 0.  1.
         -6    1    1    2    0  502  0.85563289558E+02  0.11124578545E+03  0.28122633075E+03  0.35876726497E+03  0.17300000000E+03 0. -1.
<mgrwt>
<rscale>  2 0.22276827E+03</rscale>
<asrwt>0</asrwt>
<pdfrwt beam="1">  1       21 0.78648091E-01 0.22276827E+03</pdfrwt>
<pdfrwt beam="2">  1       21 0.15946503E-01 0.22276827E+03</pdfrwt>
<totfact> 0.49418274E+04</totfact>
</mgrwt>
</event>
<event>
 4    1  0.4050555E+000  0.2058074E+03  0.7546771E-02  0.1144930E+00
         21   -1    0    0  503  502  0.00000000000E+00  0.00000000000E+00  0.31484596414E+03  0.31484596414E+03  0.00000000000E+00 0.  1.
         21   -1    0    0  501  503 -0.00000000000E+00 -0.00000000000E+00 -0.17626717469E+03  0.17626717469E+03  0.00000000000E+00 0.  1.
          6    1    1    2  501    0  0.49403016009E+02 -0.99935189514E+02 -0.50197300767E+02  0.21184066913E+03  0.17300000000E+03 0.  1.
         -6    1    1    2    0  502 -0.49403016009E+02  0.99935189514E+02  0.18877609022E+03  0.27927246970E+03  0.17300000000E+03 0.  1.
<mgrwt>
<rscale>  2 0.20580743E+03</rscale>
<asrwt>0</asrwt>
<pdfrwt beam="1">  1       21 0.48437841E-01 0.20580743E+03</pdfrwt>
<pdfrwt beam="2">  1       21 0.27118027E-01 0.20580743E+03</pdfrwt>
<totfact> 0.52420974E+04</totfact>
</mgrwt>
</event>
<event>
 4    1  0.4050555E+000  0.2162310E+03  0.7546771E-02  0.1136725E+00
         21   -1    0    0  501  502  0.00000000000E+00  0.00000000000E+00  0.19084346514E+03  0.19084346514E+03  0.00000000000E+00 0.  1.
         21   -1    0    0  502  503 -0.00000000000E+00 -0.00000000000E+00 -0.25088464358E+03  0.25088464358E+03  0.00000000000E+00 0. -1.
          6    1    1    2  501    0  0.87202974006E+02 -0.96033742879E+02 -0.63858593643E+02  0.22546343036E+03  0.17300000000E+03 0. -1.
         -6    1    1    2    0  503 -0.87202974006E+02  0.96033742879E+02  0.38174151996E+01  0.21626467836E+03  0.17300000000E+03 0. -1.
<mgrwt>
<rscale>  2 0.21623098E+03</rscale>
<asrwt>0</asrwt>
<pdfrwt beam="1">  1       21 0.29360533E-01 0.21623098E+03</pdfrwt>
<pdfrwt beam="2">  1       21 0.38597637E-01 0.21623098E+03</pdfrwt>
<totfact> 0.71194268E+04</totfact>
</mgrwt>
</event>
<event>
 4    1  0.4050555E+000  0.1855049E+03  0.7546771E-02  0.1162579E+00
         21   -1    0    0  503  502  0.00000000000E+00  0.00000000000E+00  0.97987830918E+02  0.97987830918E+02  0.00000000000E+00 0.  1.
         21   -1    0    0  501  503 -0.00000000000E+00 -0.00000000000E+00 -0.71648967078E+03  0.71648967078E+03  0.00000000000E+00 0.  1.
          6    1    1    2  501    0  0.12460327361E+02 -0.65785966776E+02 -0.60003494817E+03  0.62805572381E+03  0.17300000000E+03 0.  1.
         -6    1    1    2    0  502 -0.12460327361E+02  0.65785966776E+02 -0.18466891692E+02  0.18642177789E+03  0.17300000000E+03 0.  1.
<mgrwt>
<rscale>  2 0.18550486E+03</rscale>
<asrwt>0</asrwt>
<pdfrwt beam="1">  1       21 0.15075051E-01 0.18550486E+03</pdfrwt>
<pdfrwt beam="2">  1       21 0.11022918E+00 0.18550486E+03</pdfrwt>
<totfact> 0.25367988E+04</totfact>
</mgrwt>
</event>
<event>
 4    1  0.4050555E+000  0.2035876E+03  0.7546771E-02  0.1146747E+00
         21   -1    0    0  501  502  0.00000000000E+00  0.00000000000E+00  0.23133084544E+03  0.23133084544E+03  0.00000000000E+00 0. -1.
         21   -1    0    0  502  503 -0.00000000000E+00 -0.00000000000E+00 -0.23589874103E+03  0.23589874103E+03  0.00000000000E+00 0. -1.
          6    1    1    2  501    0 -0.84055977499E+02  0.66734709832E+02  0.11227599615E+03  0.23249479169E+03  0.17300000000E+03 0. -1.
         -6    1    1    2    0  503  0.84055977499E+02 -0.66734709832E+02 -0.11684389174E+03  0.23473479479E+03  0.17300000000E+03 0. -1.
<mgrwt>
<rscale>  2 0.20358764E+03</rscale>
<asrwt>0</asrwt>
<pdfrwt beam="1">  1       21 0.35589361E-01 0.20358764E+03</pdfrwt>
<pdfrwt beam="2">  1       21 0.36292114E-01 0.20358764E+03</pdfrwt>
<totfact> 0.55449700E+04</totfact>
</mgrwt>
</event>
<event>
 4    1  0.4050555E+000  0.1909984E+03  0.7546771E-02  0.1157564E+00
         21   -1    0    0  503  502  0.00000000000E+00  0.00000000000E+00  0.42620822361E+03  0.42620822361E+03  0.00000000000E+00 0. -1.
         21   -1    0    0  501  503 -0.00000000000E+00 -0.00000000000E+00 -0.88650520934E+02  0.88650520934E+02  0.00000000000E+00 0. -1.
          6    1    1    2  501    0 -0.37717913077E+02 -0.71615143242E+02  0.12096937746E+03  0.22608396668E+03  0.17300000000E+03 0. -1.
         -6    1    1    2    0  502  0.37717913077E+02  0.71615143242E+02  0.21658832522E+03  0.28877477786E+03  0.17300000000E+03 0. -1.
<mgrwt>
<rscale>  2 0.19099835E+03</rscale>
<asrwt>0</asrwt>
<pdfrwt beam="1">  1       21 0.65570495E-01 0.19099835E+03</pdfrwt>
<pdfrwt beam="2">  1       21 0.13638542E-01 0.19099835E+03</pdfrwt>
<totfact> 0.99757062E+04</totfact>
</mgrwt>
</event>
<event>
 4    1  0.4050555E+000  0.2036587E+03  0.7546771E-02  0.1146688E+00
         21   -1    0    0  503  502  0.00000000000E+00  0.00000000000E+00  0.31634565802E+03  0.31634565802E+03  0.00000000000E+00 0. -1.
         21   -1    0    0  501  503 -0.00000000000E+00 -0.00000000000E+00 -0.15967468439E+03  0.15967468439E+03  0.00000000000E+00 0.  1.
          6    1    1    2  501    0 -0.93747985497E+02 -0.52527815237E+02 -0.22328361112E+02  0.20487901764E+03  0.17300000000E+03 0.  1.
         -6    1    1    2    0  502  0.93747985497E+02  0.52527815237E+02  0.17899933474E+03  0.27114132477E+03  0.17300000000E+03 0. -1.
<mgrwt>
<rscale>  2 0.20365868E+03</rscale>
<asrwt>0</asrwt>
<pdfrwt beam="1">  1       21 0.48668563E-01 0.20365868E+03</pdfrwt>
<pdfrwt beam="2">  1       21 0.24565336E-01 0.20365868E+03</pdfrwt>
<totfact> 0.62807535E+04</totfact>
</mgrwt>
</event>
<event>
 4    1  0.4050555E+000  0.4063239E+03  0.7546771E-02  0.1041612E+00
         21   -1    0    0  501  502  0.00000000000E+00  0.00000000000E+00  0.23911860962E+03  0.23911860962E+03  0.00000000000E+00 0.  1.
         21   -1    0    0  502  503 -0.00000000000E+00 -0.00000000000E+00 -0.91359903461E+03  0.91359903461E+03  0.00000000000E+00 0. -1.
          6    1    1    2  501    0 -0.14173983643E+03 -0.33923437366E+03 -0.52391758703E+02  0.40968773216E+03  0.17300000000E+03 0.  1.
         -6    1    1    2    0  503  0.14173983643E+03  0.33923437366E+03 -0.62208866629E+03  0.74302991207E+03  0.17300000000E+03 0. -1.
<mgrwt>
<rscale>  2 0.40632394E+03</rscale>
<asrwt>0</asrwt>
<pdfrwt beam="1">  1       21 0.36787478E-01 0.40632394E+03</pdfrwt>
<pdfrwt beam="2">  1       21 0.14055370E+00 0.40632394E+03</pdfrwt>
<totfact> 0.22073617E+03</totfact>
</mgrwt>
</event>
<event>
 4    1  0.4050555E+000  0.2147376E+03  0.7546771E-02  0.1137868E+00
         21   -1    0    0  501  502  0.00000000000E+00  0.00000000000E+00  0.66956670464E+03  0.66956670464E+03  0.00000000000E+00 0. -1.
         21   -1    0    0  502  503 -0.00000000000E+00 -0.00000000000E+00 -0.12944321698E+03  0.12944321698E+03  0.00000000000E+00 0. -1.
          6    1    1    2  501    0  0.10704024130E+03 -0.68743132832E+02  0.54335396917E+03  0.58424803584E+03  0.17300000000E+03 0. -1.
         -6    1    1    2    0  503 -0.10704024130E+03  0.68743132832E+02 -0.32304815116E+01  0.21476188577E+03  0.17300000000E+03 0. -1.
<mgrwt>
<rscale>  2 0.21473759E+03</rscale>
<asrwt>0</asrwt>
<pdfrwt beam="1">  1       21 0.10301026E+00 0.21473759E+03</pdfrwt>
<pdfrwt beam="2">  1       21 0.19914341E-01 0.21473759E+03</pdfrwt>
<totfact> 0.17553765E+04</totfact>
</mgrwt>
</event>
<event>
 4    1  0.4050555E+000  0.1815519E+03  0.7546771E-02  0.1166309E+00
         21   -1    0    0  501  502  0.00000000000E+00  0.00000000000E+00  0.34953855329E+03  0.34953855329E+03  0.00000000000E+00 0.  1.
         21   -1    0    0  502  503 -0.00000000000E+00 -0.00000000000E+00 -0.99292516217E+02  0.99292516217E+02  0.00000000000E+00 0.  1.
          6    1    1    2  501    0 -0.37161514519E+02 -0.40634064643E+02  0.17545009539E+03  0.25247542721E+03  0.17300000000E+03 0. -1.
         -6    1    1    2    0  503  0.37161514519E+02  0.40634064643E+02  0.74795941681E+02  0.19635564230E+03  0.17300000000E+03 0. -1.
<mgrwt>
<rscale>  2 0.18155194E+03</rscale>
<asrwt>0</asrwt>
<pdfrwt beam="1">  1       21 0.53775161E-01 0.18155194E+03</pdfrwt>
<pdfrwt beam="2">  1       21 0.15275772E-01 0.18155194E+03</pdfrwt>
<totfact> 0.12461476E+05</totfact>
</mgrwt>
</event>
<event>
 4    1  0.4050555E+000  0.2575557E+03  0.7546771E-02  0.1108621E+00
         21   -1    0    0  503  502  0.00000000000E+00  0.00000000000E+00  0.68444910307E+03  0.68444910307E+03  0.00000000000E+00 0.  1.
         21   -1    0    0  501  503 -0.00000000000E+00 -0.00000000000E+00 -0.97194909080E+02  0.97194909080E+02  0.00000000000E+00 0. -1.
          6    1    1    2  501    0 -0.18525264857E+03 -0.45687814454E+02  0.27273805631E+03  0.37512793491E+03  0.17300000000E+03 0. -1.
         -6    1    1    2    0  502  0.18525264857E+03  0.45687814454E+02  0.31451613767E+03  0.40651607723E+03  0.17300000000E+03 0. -1.
<mgrwt>
<rscale>  2 0.25755566E+03</rscale>
<asrwt>0</asrwt>
<pdfrwt beam="1">  1       21 0.10529986E+00 0.25755566E+03</pdfrwt>
<pdfrwt beam="2">  1       21 0.14953063E-01 0.25755566E+03</pdfrwt>
<totfact> 0.27668929E+04</totfact>
</mgrwt>
</event>
<event>
 4    1  0.4050555E+000  0.1768102E+03  0.7546771E-02  0.1170926E+00
         21   -1    0    0  503  502  0.00000000000E+00  0.00000000000E+00  0.40750427723E+02  0.40750427723E+02  0.00000000000E+00 0. -1.
         21   -1    0    0  501  503 -0.00000000000E+00 -0.00000000000E+00 -0.91182987865E+03  0.91182987865E+03  0.00000000000E+00 0. -1.
          6    1    1    2  501    0 -0.28131949894E+02 -0.23268766086E+02 -0.62525975485E+03  0.64977811837E+03  0.17300000000E+03 0. -1.
         -6    1    1    2    0  502  0.28131949894E+02  0.23268766086E+02 -0.24581969608E+03  0.30280218801E+03  0.17300000000E+03 0. -1.
<mgrwt>
<rscale>  2 0.17681019E+03</rscale>
<asrwt>0</asrwt>
<pdfrwt beam="1">  1       21 0.62692965E-02 0.17681019E+03</pdfrwt>
<pdfrwt beam="2">  1       21 0.14028152E+00 0.17681019E+03</pdfrwt>
<totfact> 0.65637289E+04</totfact>
</mgrwt>
</event>
<event>
 4    1  0.4050555E+000  0.2101761E+03  0.7546771E-02  0.1141427E+00
         21   -1    0    0  503  502  0.00000000000E+00  0.00000000000E+00  0.60932186177E+03  0.60932186177E+03  0.00000000000E+00 0. -1.
         21   -1    0    0  501  503 -0.00000000000E+00 -0.00000000000E+00 -0.20732150191E+03  0.20732150191E+03  0.00000000000E+00 0. -1.
          6    1    1    2  501    0  0.12234420302E+02  0.11872360048E+03 -0.12827937567E+03  0.24623073036E+03  0.17300000000E+03 0. -1.
         -6    1    1    2    0  502 -0.12234420302E+02 -0.11872360048E+03  0.53027973553E+03  0.57041263333E+03  0.17300000000E+03 0. -1.
<mgrwt>
<rscale>  2 0.21017606E+03</rscale>
<asrwt>0</asrwt>
<pdfrwt beam="1">  1       21 0.93741824E-01 0.21017606E+03</pdfrwt>
<pdfrwt beam="2">  1       21 0.31895616E-01 0.21017606E+03</pdfrwt>
<totfact> 0.89226576E+03</totfact>
</mgrwt>
</event>
<event>
 4    1  0.4050555E+000  0.2849858E+03  0.7546771E-02  0.1092997E+00
         21   -1    0    0  503  502  0.00000000000E+00  0.00000000000E+00  0.23265868384E+03  0.23265868384E+03  0.00000000000E+00 0. -1.
         21   -1    0    0  501  503 -0.00000000000E+00 -0.00000000000E+00 -0.46130365739E+03  0.46130365739E+03  0.00000000000E+00 0.  1.
          6    1    1    2  501    0 -0.15212464596E+03  0.16776764987E+03 -0.28546241700E+03  0.40336792606E+03  0.17300000000E+03 0.  1.
         -6    1    1    2    0  502  0.15212464596E+03 -0.16776764987E+03  0.56817443449E+02  0.29059441517E+03  0.17300000000E+03 0. -1.
<mgrwt>
<rscale>  2 0.28498578E+03</rscale>
<asrwt>0</asrwt>
<pdfrwt beam="1">  1       21 0.35793644E-01 0.28498578E+03</pdfrwt>
<pdfrwt beam="2">  1       21 0.70969793E-01 0.28498578E+03</pdfrwt>
<totfact> 0.12851698E+04</totfact>
</mgrwt>
</event>
<event>
 4    1  0.4050555E+000  0.1767628E+03  0.7546771E-02  0.1170973E+00
         21   -1    0    0  501  502  0.00000000000E+00  0.00000000000E+00  0.46555833203E+03  0.46555833203E+03  0.00000000000E+00 0.  1.
         21   -1    0    0  502  503 -0.00000000000E+00 -0.00000000000E+00 -0.13756247190E+03  0.13756247190E+03  0.00000000000E+00 0.  1.
          6    1    1    2  501    0 -0.36155052549E+02  0.29834078981E+01  0.37980353538E+03  0.41892220523E+03  0.17300000000E+03 0.  1.
         -6    1    1    2    0  503  0.36155052549E+02 -0.29834078981E+01 -0.51807675253E+02  0.18419859870E+03  0.17300000000E+03 0.  1.
<mgrwt>
<rscale>  2 0.17676280E+03</rscale>
<asrwt>0</asrwt>
<pdfrwt beam="1">  1       21 0.71624358E-01 0.17676280E+03</pdfrwt>
<pdfrwt beam="2">  1       21 0.21163457E-01 0.17676280E+03</pdfrwt>
<totfact> 0.36877049E+04</totfact>
</mgrwt>
</event>
<event>
 4    1  0.4050555E+000  0.2054235E+03  0.7546771E-02  0.1145242E+00
         21   -1    0    0  503  502  0.00000000000E+00  0.00000000000E+00  0.11837134072E+03  0.11837134072E+03  0.00000000000E+00 0. -1.
         21   -1    0    0  501  503 -0.00000000000E+00 -0.00000000000E+00 -0.91749395335E+03  0.91749395335E+03  0.00000000000E+00 0. -1.
          6    1    1    2  501    0  0.76632995258E+02 -0.79982393342E+02 -0.80455912168E+03  0.83036990521E+03  0.17300000000E+03 0. -1.
         -6    1    1    2    0  502 -0.76632995258E+02  0.79982393342E+02  0.54365090498E+01  0.20549538885E+03  0.17300000000E+03 0. -1.
<mgrwt>
<rscale>  2 0.20542346E+03</rscale>
<asrwt>0</asrwt>
<pdfrwt beam="1">  1       21 0.18210976E-01 0.20542346E+03</pdfrwt>
<pdfrwt beam="2">  1       21 0.14115291E+00 0.20542346E+03</pdfrwt>
<totfact> 0.95343230E+03</totfact>
</mgrwt>
</event>
<event>
 4    1  0.4050555E+000  0.1790135E+03  0.7546771E-02  0.1168761E+00
         21   -1    0    0  501  502  0.00000000000E+00  0.00000000000E+00  0.95515437047E+02  0.95515437047E+02  0.00000000000E+00 0.  1.
         21   -1    0    0  502  503 -0.00000000000E+00 -0.00000000000E+00 -0.48330203114E+03  0.48330203114E+03  0.00000000000E+00 0.  1.
          6    1    1    2  501    0  0.39168847833E+02 -0.24137923168E+02 -0.33850462071E+02  0.18218587146E+03  0.17300000000E+03 0.  1.
         -6    1    1    2    0  503 -0.39168847833E+02  0.24137923168E+02 -0.35393613202E+03  0.39663159673E+03  0.17300000000E+03 0.  1.
<mgrwt>
<rscale>  2 0.17901351E+03</rscale>
<asrwt>0</asrwt>
<pdfrwt beam="1">  1       21 0.14694683E-01 0.17901351E+03</pdfrwt>
<pdfrwt beam="2">  1       21 0.74354156E-01 0.17901351E+03</pdfrwt>
<totfact> 0.66410470E+04</totfact>
</mgrwt>
</event>
<event>
 4    1  0.4050555E+000  0.2151785E+03  0.7546771E-02  0.1137530E+00
         21   -1    0    0  501  502  0.00000000000E+00  0.00000000000E+00  0.48777827986E+02  0.48777827986E+02  0.00000000000E+00 0.  1.
         21   -1    0    0  502  503 -0.00000000000E+00 -0.00000000000E+00 -0.11160064101E+04  0.11160064101E+04  0.00000000000E+00 0. -1.
          6    1    1    2  501    0  0.11922533148E+02 -0.12739950687E+03 -0.30848153653E+03  0.37611519449E+03  0.17300000000E+03 0. -1.
         -6    1    1    2    0  503 -0.11922533148E+02  0.12739950687E+03 -0.75874704561E+03  0.78866904362E+03  0.17300000000E+03 0.  1.
<mgrwt>
<rscale>  2 0.21517849E+03</rscale>
<asrwt>0</asrwt>
<pdfrwt beam="1">  1       21 0.75042826E-02 0.21517849E+03</pdfrwt>
<pdfrwt beam="2">  1       21 0.17169326E+00 0.21517849E+03</pdfrwt>
<totfact> 0.27436608E+04</totfact>
</mgrwt>
</event>
<event>
 4    1  0.4050555E+000  0.1772734E+03  0.7546771E-02  0.1170468E+00
         21   -1    0    0  501  502  0.00000000000E+00  0.00000000000E+00  0.25251265529E+03  0.25251265529E+03  0.00000000000E+00 0. -1.
         21   -1    0    0  502  503 -0.00000000000E+00 -0.00000000000E+00 -0.12452298275E+03  0.12452298275E+03  0.00000000000E+00 0. -1.
          6    1    1    2  501    0  0.15084777621E+02 -0.35627339075E+02  0.59513117376E+02  0.18699644100E+03  0.17300000000E+03 0. -1.
         -6    1    1    2    0  503 -0.15084777621E+02  0.35627339075E+02  0.68476555172E+02  0.19003919705E+03  0.17300000000E+03 0. -1.
<mgrwt>
<rscale>  2 0.17727340E+03</rscale>
<asrwt>0</asrwt>
<pdfrwt beam="1">  1       21 0.38848101E-01 0.17727340E+03</pdfrwt>
<pdfrwt beam="2">  1       21 0.19157382E-01 0.17727340E+03</pdfrwt>
<totfact> 0.16057360E+05</totfact>
</mgrwt>
</event>
<event>
 4    1  0.4050555E+000  0.1845061E+03  0.7546771E-02  0.1163512E+00
         21   -1    0    0  501  502  0.00000000000E+00  0.00000000000E+00  0.14821665934E+03  0.14821665934E+03  0.00000000000E+00 0. -1.
         21   -1    0    0  502  503 -0.00000000000E+00 -0.00000000000E+00 -0.23170147227E+03  0.23170147227E+03  0.00000000000E+00 0.  1.
          6    1    1    2  501    0 -0.29278969725E+02  0.57063587567E+02 -0.24002526679E+02  0.18606082979E+03  0.17300000000E+03 0.  1.
         -6    1    1    2    0  503  0.29278969725E+02 -0.57063587567E+02 -0.59482286246E+02  0.19385730183E+03  0.17300000000E+03 0. -1.
<mgrwt>
<rscale>  2 0.18450613E+03</rscale>
<asrwt>0</asrwt>
<pdfrwt beam="1">  1       21 0.22802563E-01 0.18450613E+03</pdfrwt>
<pdfrwt beam="2">  1       21 0.35646380E-01 0.18450613E+03</pdfrwt>
<totfact> 0.13726775E+05</totfact>
</mgrwt>
</event>
<event>
 4    1  0.4050555E+000  0.1734316E+03  0.7546771E-02  0.1174316E+00
         21   -1    0    0  503  502  0.00000000000E+00  0.00000000000E+00  0.51234202488E+03  0.51234202488E+03  0.00000000000E+00 0. -1.
         21   -1    0    0  501  503 -0.00000000000E+00 -0.00000000000E+00 -0.10016017185E+03  0.10016017185E+03  0.00000000000E+00 0. -1.
          6    1    1    2  501    0  0.10466708680E+02  0.63230271851E+01  0.90736966474E+01  0.17366883611E+03  0.17300000000E+03 0. -1.
         -6    1    1    2    0  502 -0.10466708680E+02 -0.63230271851E+01  0.40310815638E+03  0.43883336063E+03  0.17300000000E+03 0. -1.
<mgrwt>
<rscale>  2 0.17343164E+03</rscale>
<asrwt>0</asrwt>
<pdfrwt beam="1">  1       21 0.78821849E-01 0.17343164E+03</pdfrwt>
<pdfrwt beam="2">  1       21 0.15409257E-01 0.17343164E+03</pdfrwt>
<totfact> 0.53611898E+04</totfact>
</mgrwt>
</event>
<event>
 4    1  0.4050555E+000  0.1820178E+03  0.7546771E-02  0.1165864E+00
         21   -1    0    0  501  502  0.00000000000E+00  0.00000000000E+00  0.34086580371E+02  0.34086580371E+02  0.00000000000E+00 0.  1.
         21   -1    0    0  502  503 -0.00000000000E+00 -0.00000000000E+00 -0.98765136460E+03  0.98765136460E+03  0.00000000000E+00 0.  1.
          6    1    1    2  501    0 -0.33566385798E+02 -0.45549840808E+02 -0.41237128168E+03  0.45075554817E+03  0.17300000000E+03 0. -1.
         -6    1    1    2    0  503  0.33566385798E+02  0.45549840808E+02 -0.54119350255E+03  0.57098239680E+03  0.17300000000E+03 0. -1.
<mgrwt>
<rscale>  2 0.18201783E+03</rscale>
<asrwt>0</asrwt>
<pdfrwt beam="1">  1       21 0.52440895E-02 0.18201783E+03</pdfrwt>
<pdfrwt beam="2">  1       21 0.15194636E+00 0.18201783E+03</pdfrwt>
<totfact> 0.72070577E+04</totfact>
</mgrwt>
</event>
<event>
 4    1  0.4050555E+000  0.1754942E+03  0.7546771E-02  0.1172236E+00
         21   -1    0    0  503  502  0.00000000000E+00  0.00000000000E+00  0.55186069598E+02  0.55186069598E+02  0.00000000000E+00 0.  1.
         21   -1    0    0  501  503 -0.00000000000E+00 -0.00000000000E+00 -0.93444202675E+03  0.93444202675E+03  0.00000000000E+00 0.  1.
          6    1    1    2  501    0 -0.69700078340E+01  0.28646478147E+02 -0.75365654548E+03  0.77381935247E+03  0.17300000000E+03 0.  1.
         -6    1    1    2    0  502  0.69700078340E+01 -0.28646478147E+02 -0.12559941167E+03  0.21580874387E+03  0.17300000000E+03 0.  1.
<mgrwt>
<rscale>  2 0.17549416E+03</rscale>
<asrwt>0</asrwt>
<pdfrwt beam="1">  1       21 0.84901658E-02 0.17549416E+03</pdfrwt>
<pdfrwt beam="2">  1       21 0.14376029E+00 0.17549416E+03</pdfrwt>
<totfact> 0.36510921E+04</totfact>
</mgrwt>
</event>
<event>
 4    1  0.4050555E+000  0.2041290E+03  0.7546771E-02  0.1146301E+00
         21   -1    0    0  501  502  0.00000000000E+00  0.00000000000E+00  0.24035363314E+03  0.24035363314E+03  0.00000000000E+00 0.  1.
         21   -1    0    0  502  503 -0.00000000000E+00 -0.00000000000E+00 -0.17622910423E+03  0.17622910423E+03  0.00000000000E+00 0.  1.
          6    1    1    2  501    0  0.71937543073E+02  0.81022502108E+02  0.58620929055E+02  0.21237954062E+03  0.17300000000E+03 0.  1.
         -6    1    1    2    0  503 -0.71937543073E+02 -0.81022502108E+02  0.55035998458E+01  0.20420319675E+03  0.17300000000E+03 0.  1.
<mgrwt>
<rscale>  2 0.20412902E+03</rscale>
<asrwt>0</asrwt>
<pdfrwt beam="1">  1       21 0.36977482E-01 0.20412902E+03</pdfrwt>
<pdfrwt beam="2">  1       21 0.27112170E-01 0.20412902E+03</pdfrwt>
<totfact> 0.91017323E+04</totfact>
</mgrwt>
</event>
<event>
 4    1  0.4050555E+000  0.1836795E+03  0.7546771E-02  0.1164289E+00
         21   -1    0    0  503  502  0.00000000000E+00  0.00000000000E+00  0.27565923938E+03  0.27565923938E+03  0.00000000000E+00 0. -1.
         21   -1    0    0  501  503 -0.00000000000E+00 -0.00000000000E+00 -0.16852326344E+03  0.16852326344E+03  0.00000000000E+00 0. -1.
          6    1    1    2  501    0 -0.26606884357E+02 -0.55688773714E+02 -0.62631618315E+02  0.19406412710E+03  0.17300000000E+03 0. -1.
         -6    1    1    2    0  502  0.26606884357E+02  0.55688773714E+02  0.16976759426E+03  0.25011837572E+03  0.17300000000E+03 0. -1.
<mgrwt>
<rscale>  2 0.18367952E+03</rscale>
<asrwt>0</asrwt>
<pdfrwt beam="1">  1       21 0.42409114E-01 0.18367952E+03</pdfrwt>
<pdfrwt beam="2">  1       21 0.25926656E-01 0.18367952E+03</pdfrwt>
<totfact> 0.75860203E+04</totfact>
</mgrwt>
</event>
<event>
 4    1  0.4050555E+000  0.1966523E+03  0.7546771E-02  0.1152595E+00
         21   -1    0    0  503  502  0.00000000000E+00  0.00000000000E+00  0.79280997543E+02  0.79280997543E+02  0.00000000000E+00 0.  1.
         21   -1    0    0  501  503 -0.00000000000E+00 -0.00000000000E+00 -0.75290846389E+03  0.75290846389E+03  0.00000000000E+00 0.  1.
          6    1    1    2  501    0 -0.74122404857E+02 -0.56999885399E+02 -0.58372723137E+03  0.61596233528E+03  0.17300000000E+03 0.  1.
         -6    1    1    2    0  502  0.74122404857E+02  0.56999885399E+02 -0.89900234980E+02  0.21622712616E+03  0.17300000000E+03 0.  1.
<mgrwt>
<rscale>  2 0.19665228E+03</rscale>
<asrwt>0</asrwt>
<pdfrwt beam="1">  1       21 0.12197076E-01 0.19665228E+03</pdfrwt>
<pdfrwt beam="2">  1       21 0.11583207E+00 0.19665228E+03</pdfrwt>
<totfact> 0.32756391E+04</totfact>
</mgrwt>
</event>
<event>
 4    1  0.4050555E+000  0.1859653E+03  0.7546771E-02  0.1162152E+00
         21   -1    0    0  503  502  0.00000000000E+00  0.00000000000E+00  0.30440948468E+03  0.30440948468E+03  0.00000000000E+00 0.  1.
         21   -1    0    0  501  503 -0.00000000000E+00 -0.00000000000E+00 -0.11930111530E+03  0.11930111530E+03  0.00000000000E+00 0.  1.
          6    1    1    2  501    0 -0.12031004292E+02  0.67151691346E+02  0.46270876008E+02  0.19163530124E+03  0.17300000000E+03 0.  1.
         -6    1    1    2    0  502  0.12031004292E+02 -0.67151691346E+02  0.13883749337E+03  0.23207529873E+03  0.17300000000E+03 0.  1.
<mgrwt>
<rscale>  2 0.18596531E+03</rscale>
<asrwt>0</asrwt>
<pdfrwt beam="1">  1       21 0.46832228E-01 0.18596531E+03</pdfrwt>
<pdfrwt beam="2">  1       21 0.18354018E-01 0.18596531E+03</pdfrwt>
<totfact> 0.11848594E+05</totfact>
</mgrwt>
</event>
<event>
 4    1  0.4050555E+000  0.1880944E+03  0.7546771E-02  0.1160191E+00
         21   -1    0    0  503  502  0.00000000000E+00  0.00000000000E+00  0.13063409754E+03  0.13063409754E+03  0.00000000000E+00 0. -1.
         21   -1    0    0  501  503 -0.00000000000E+00 -0.00000000000E+00 -0.58775947039E+03  0.58775947039E+03  0.00000000000E+00 0. -1.
          6    1    1    2  501    0 -0.21245767371E+02  0.70704506664E+02 -0.49232611418E+03  0.52703369209E+03  0.17300000000E+03 0. -1.
         -6    1    1    2    0  502  0.21245767371E+02 -0.70704506664E+02  0.35200741331E+02  0.19135987585E+03  0.17300000000E+03 0. -1.
<mgrwt>
<rscale>  2 0.18809442E+03</rscale>
<asrwt>0</asrwt>
<pdfrwt beam="1">  1       21 0.20097554E-01 0.18809442E+03</pdfrwt>
<pdfrwt beam="2">  1       21 0.90424533E-01 0.18809442E+03</pdfrwt>
<totfact> 0.23834277E+04</totfact>
</mgrwt>
</event>
<event>
 4    1  0.4050555E+000  0.1787264E+03  0.7546771E-02  0.1169041E+00
         21   -1    0    0  503  502  0.00000000000E+00  0.00000000000E+00  0.17761743084E+03  0.17761743084E+03  0.00000000000E+00 0. -1.
         21   -1    0    0  501  503 -0.00000000000E+00 -0.00000000000E+00 -0.39613508524E+03  0.39613508524E+03  0.00000000000E+00 0. -1.
          6    1    1    2  501    0  0.35174405232E+02 -0.27872551480E+02 -0.32123840480E+03  0.36761016121E+03  0.17300000000E+03 0. -1.
         -6    1    1    2    0  502 -0.35174405232E+02  0.27872551480E+02  0.10272075040E+03  0.20614235487E+03  0.17300000000E+03 0. -1.
<mgrwt>
<rscale>  2 0.17872638E+03</rscale>
<asrwt>0</asrwt>
<pdfrwt beam="1">  1       21 0.27325759E-01 0.17872638E+03</pdfrwt>
<pdfrwt beam="2">  1       21 0.60943858E-01 0.17872638E+03</pdfrwt>
<totfact> 0.32238698E+04</totfact>
</mgrwt>
</event>
<event>
 4    1  0.4050555E+000  0.1946535E+03  0.7546771E-02  0.1154330E+00
         21   -1    0    0  501  502  0.00000000000E+00  0.00000000000E+00  0.96319583083E+02  0.96319583083E+02  0.00000000000E+00 0.  1.
         21   -1    0    0  502  503 -0.00000000000E+00 -0.00000000000E+00 -0.39599162549E+03  0.39599162549E+03  0.00000000000E+00 0.  1.
          6    1    1    2  501    0  0.22676813923E+02  0.86294592773E+02 -0.12983752642E+03  0.23398243075E+03  0.17300000000E+03 0.  1.
         -6    1    1    2    0  503 -0.22676813923E+02 -0.86294592773E+02 -0.16983451599E+03  0.25832877782E+03  0.17300000000E+03 0.  1.
<mgrwt>
<rscale>  2 0.19465352E+03</rscale>
<asrwt>0</asrwt>
<pdfrwt beam="1">  1       21 0.14818397E-01 0.19465352E+03</pdfrwt>
<pdfrwt beam="2">  1       21 0.60921790E-01 0.19465352E+03</pdfrwt>
<totfact> 0.10049877E+05</totfact>
</mgrwt>
</event>
<event>
 4    1  0.4050555E+000  0.1846778E+03  0.7546771E-02  0.1163351E+00
         21   -1    0    0  503  502  0.00000000000E+00  0.00000000000E+00  0.30725031065E+03  0.30725031065E+03  0.00000000000E+00 0.  1.
         21   -1    0    0  501  503 -0.00000000000E+00 -0.00000000000E+00 -0.12766117104E+03  0.12766117104E+03  0.00000000000E+00 0.  1.
          6    1    1    2  501    0  0.54803891969E+02 -0.34255140184E+02  0.11244296461E+02  0.18501977031E+03  0.17300000000E+03 0.  1.
         -6    1    1    2    0  502 -0.54803891969E+02  0.34255140184E+02  0.16834484314E+03  0.24989171138E+03  0.17300000000E+03 0.  1.
<mgrwt>
<rscale>  2 0.18467778E+03</rscale>
<asrwt>0</asrwt>
<pdfrwt beam="1">  1       21 0.47269278E-01 0.18467778E+03</pdfrwt>
<pdfrwt beam="2">  1       21 0.19640180E-01 0.18467778E+03</pdfrwt>
<totfact> 0.10254699E+05</totfact>
</mgrwt>
</event>
<event>
 4    1  0.4050555E+000  0.1975230E+03  0.7546771E-02  0.1151846E+00
         21   -1    0    0  503  502  0.00000000000E+00  0.00000000000E+00  0.51157538745E+02  0.51157538745E+02  0.00000000000E+00 0. -1.
         21   -1    0    0  501  503 -0.00000000000E+00 -0.00000000000E+00 -0.17076290391E+04  0.17076290391E+04  0.00000000000E+00 0. -1.
          6    1    1    2  501    0 -0.63312453887E+02  0.71259200632E+02 -0.14824157664E+04  0.14955172499E+04  0.17300000000E+03 0. -1.
         -6    1    1    2    0  502  0.63312453887E+02 -0.71259200632E+02 -0.17405573404E+03  0.26326932796E+03  0.17300000000E+03 0. -1.
<mgrwt>
<rscale>  2 0.19752301E+03</rscale>
<asrwt>0</asrwt>
<pdfrwt beam="1">  1       21 0.78703913E-02 0.19752301E+03</pdfrwt>
<pdfrwt beam="2">  1       21 0.26271214E+00 0.19752301E+03</pdfrwt>
<totfact> 0.68836851E+03</totfact>
</mgrwt>
</event>
<event>
 4    1  0.4050555E+000  0.1748945E+03  0.7546771E-02  0.1172838E+00
         21   -1    0    0  501  502  0.00000000000E+00  0.00000000000E+00  0.49935780033E+02  0.49935780033E+02  0.00000000000E+00 0. -1.
         21   -1    0    0  502  503 -0.00000000000E+00 -0.00000000000E+00 -0.62438460637E+03  0.62438460637E+03  0.00000000000E+00 0.  1.
          6    1    1    2  501    0  0.19901435067E+02 -0.16218038491E+02 -0.24080358432E+03  0.29761461340E+03  0.17300000000E+03 0.  1.
         -6    1    1    2    0  503 -0.19901435067E+02  0.16218038491E+02 -0.33364524202E+03  0.37670577300E+03  0.17300000000E+03 0.  1.
<mgrwt>
<rscale>  2 0.17489452E+03</rscale>
<asrwt>0</asrwt>
<pdfrwt beam="1">  1       21 0.76824278E-02 0.17489452E+03</pdfrwt>
<pdfrwt beam="2">  1       21 0.96059169E-01 0.17489452E+03</pdfrwt>
<totfact> 0.11702550E+05</totfact>
</mgrwt>
</event>
<event>
 4    1  0.4050555E+000  0.1860363E+03  0.7546771E-02  0.1162086E+00
         21   -1    0    0  501  502  0.00000000000E+00  0.00000000000E+00  0.35108509406E+02  0.35108509406E+02  0.00000000000E+00 0. -1.
         21   -1    0    0  502  503 -0.00000000000E+00 -0.00000000000E+00 -0.17035572041E+04  0.17035572041E+04  0.00000000000E+00 0. -1.
          6    1    1    2  501    0  0.67742021472E+02  0.95671028041E+01 -0.26993681196E+03  0.32783439933E+03  0.17300000000E+03 0. -1.
         -6    1    1    2    0  503 -0.67742021472E+02 -0.95671028041E+01 -0.13985118828E+04  0.14108313142E+04  0.17300000000E+03 0. -1.
<mgrwt>
<rscale>  2 0.18603632E+03</rscale>
<asrwt>0</asrwt>
<pdfrwt beam="1">  1       21 0.54013080E-02 0.18603632E+03</pdfrwt>
<pdfrwt beam="2">  1       21 0.26208578E+00 0.18603632E+03</pdfrwt>
<totfact> 0.13416699E+04</totfact>
</mgrwt>
</event>
<event>
 4    1  0.4050555E+000  0.1781625E+03  0.7546771E-02  0.1169593E+00
         21   -1    0    0  501  502  0.00000000000E+00  0.00000000000E+00  0.30065044327E+03  0.30065044327E+03  0.00000000000E+00 0. -1.
         21   -1    0    0  502  503 -0.00000000000E+00 -0.00000000000E+00 -0.22342215623E+03  0.22342215623E+03  0.00000000000E+00 0. -1.
          6    1    1    2  501    0 -0.12884908493E+01  0.42558189947E+02  0.22892066376E+03  0.29008021311E+03  0.17300000000E+03 0. -1.
         -6    1    1    2    0  503  0.12884908493E+01 -0.42558189947E+02 -0.15169237672E+03  0.23399238640E+03  0.17300000000E+03 0. -1.
<mgrwt>
<rscale>  2 0.17816245E+03</rscale>
<asrwt>0</asrwt>
<pdfrwt beam="1">  1       21 0.46253914E-01 0.17816245E+03</pdfrwt>
<pdfrwt beam="2">  1       21 0.34372639E-01 0.17816245E+03</pdfrwt>
<totfact> 0.36799795E+04</totfact>
</mgrwt>
</event>
<event>
 4    1  0.4050555E+000  0.2439140E+03  0.7546771E-02  0.1117213E+00
         21   -1    0    0  501  502  0.00000000000E+00  0.00000000000E+00  0.45240166320E+03  0.45240166320E+03  0.00000000000E+00 0. -1.
         21   -1    0    0  502  503 -0.00000000000E+00 -0.00000000000E+00 -0.13495779608E+03  0.13495779608E+03  0.00000000000E+00 0.  1.
          6    1    1    2  501    0 -0.12328169107E+03 -0.11986094830E+03  0.20568208817E+03  0.31905978072E+03  0.17300000000E+03 0. -1.
         -6    1    1    2    0  503  0.12328169107E+03  0.11986094830E+03  0.11176177896E+03  0.26829967856E+03  0.17300000000E+03 0.  1.
<mgrwt>
<rscale>  2 0.24391396E+03</rscale>
<asrwt>0</asrwt>
<pdfrwt beam="1">  1       21 0.69600255E-01 0.24391396E+03</pdfrwt>
<pdfrwt beam="2">  1       21 0.20762738E-01 0.24391396E+03</pdfrwt>
<totfact> 0.39398274E+04</totfact>
</mgrwt>
</event>
<event>
 4    1  0.4050555E+000  0.2344222E+03  0.7546771E-02  0.1123565E+00
         21   -1    0    0  503  502  0.00000000000E+00  0.00000000000E+00  0.11236460561E+04  0.11236460561E+04  0.00000000000E+00 0. -1.
         21   -1    0    0  501  503 -0.00000000000E+00 -0.00000000000E+00 -0.73318935133E+02  0.73318935133E+02  0.00000000000E+00 0. -1.
          6    1    1    2  501    0  0.85615850043E+02  0.13302144739E+03  0.17982308895E+03  0.29544901855E+03  0.17300000000E+03 0. -1.
         -6    1    1    2    0  502 -0.85615850043E+02 -0.13302144739E+03  0.87050403202E+03  0.90151597269E+03  0.17300000000E+03 0. -1.
<mgrwt>
<rscale>  2 0.23442222E+03</rscale>
<asrwt>0</asrwt>
<pdfrwt beam="1">  1       21 0.17286861E+00 0.23442222E+03</pdfrwt>
<pdfrwt beam="2">  1       21 0.11279837E-01 0.23442222E+03</pdfrwt>
<totfact> 0.12961125E+04</totfact>
</mgrwt>
</event>
<event>
 4    1  0.4050555E+000  0.1768437E+03  0.7546771E-02  0.1170893E+00
         21   -1    0    0  501  502  0.00000000000E+00  0.00000000000E+00  0.36560134287E+02  0.36560134287E+02  0.00000000000E+00 0.  1.
         21   -1    0    0  502  503 -0.00000000000E+00 -0.00000000000E+00 -0.10133746034E+04  0.10133746034E+04  0.00000000000E+00 0.  1.
          6    1    1    2  501    0 -0.18215219824E+02  0.31826285401E+02 -0.28113810249E+03  0.33213301454E+03  0.17300000000E+03 0.  1.
         -6    1    1    2    0  503  0.18215219824E+02 -0.31826285401E+02 -0.69567636663E+03  0.71780172315E+03  0.17300000000E+03 0.  1.
<mgrwt>
<rscale>  2 0.17684374E+03</rscale>
<asrwt>0</asrwt>
<pdfrwt beam="1">  1       21 0.56246358E-02 0.17684374E+03</pdfrwt>
<pdfrwt beam="2">  1       21 0.15590379E+00 0.17684374E+03</pdfrwt>
<totfact> 0.59940819E+04</totfact>
</mgrwt>
</event>
<event>
 4    1  0.4050555E+000  0.2089160E+03  0.7546771E-02  0.1142427E+00
         21   -1    0    0  503  502  0.00000000000E+00  0.00000000000E+00  0.13127584335E+03  0.13127584335E+03  0.00000000000E+00 0. -1.
         21   -1    0    0  501  503 -0.00000000000E+00 -0.00000000000E+00 -0.34964120895E+03  0.34964120895E+03  0.00000000000E+00 0.  1.
          6    1    1    2  501    0 -0.23167963981E+02 -0.11480473438E+03 -0.16246355382E+03  0.26465125715E+03  0.17300000000E+03 0. -1.
         -6    1    1    2    0  502  0.23167963981E+02  0.11480473438E+03 -0.55901811780E+02  0.21626579515E+03  0.17300000000E+03 0. -1.
<mgrwt>
<rscale>  2 0.20891597E+03</rscale>
<asrwt>0</asrwt>
<pdfrwt beam="1">  1       21 0.20196284E-01 0.20891597E+03</pdfrwt>
<pdfrwt beam="2">  1       21 0.53790954E-01 0.20891597E+03</pdfrwt>
<totfact> 0.73567849E+04</totfact>
</mgrwt>
</event>
<event>
 4    1  0.4050555E+000  0.2897199E+03  0.7546771E-02  0.1090495E+00
         21   -1    0    0  501  502  0.00000000000E+00  0.00000000000E+00  0.97614067888E+03  0.97614067888E+03  0.00000000000E+00 0. -1.
         21   -1    0    0  502  503 -0.00000000000E+00 -0.00000000000E+00 -0.16124100690E+03  0.16124100690E+03  0.00000000000E+00 0.  1.
          6    1    1    2  501    0 -0.13282861922E+03 -0.19069661714E+03  0.79595491164E+03  0.84704301144E+03  0.17300000000E+03 0. -1.
         -6    1    1    2    0  503  0.13282861922E+03  0.19069661714E+03  0.18944760348E+02  0.29033867434E+03  0.17300000000E+03 0.  1.
<mgrwt>
<rscale>  2 0.28971994E+03</rscale>
<asrwt>0</asrwt>
<pdfrwt beam="1">  1       21 0.15017549E+00 0.28971994E+03</pdfrwt>
<pdfrwt beam="2">  1       21 0.24806309E-01 0.28971994E+03</pdfrwt>
<totfact> 0.42748341E+03</totfact>
</mgrwt>
</event>
<event>
 4    1  0.4050555E+000  0.1752970E+03  0.7546771E-02  0.1172434E+00
         21   -1    0    0  501  502  0.00000000000E+00  0.00000000000E+00  0.21746295662E+03  0.21746295662E+03  0.00000000000E+00 0.  1.
         21   -1    0    0  502  503 -0.00000000000E+00 -0.00000000000E+00 -0.21676787952E+03  0.21676787952E+03  0.00000000000E+00 0.  1.
          6    1    1    2  501    0  0.22256841736E+02 -0.17455021395E+02  0.12844898761E+03  0.21732047118E+03  0.17300000000E+03 0.  1.
         -6    1    1    2    0  503 -0.22256841736E+02  0.17455021395E+02 -0.12775391051E+03  0.21691036496E+03  0.17300000000E+03 0.  1.
<mgrwt>
<rscale>  2 0.17529702E+03</rscale>
<asrwt>0</asrwt>
<pdfrwt beam="1">  1       21 0.33455839E-01 0.17529702E+03</pdfrwt>
<pdfrwt beam="2">  1       21 0.33348905E-01 0.17529702E+03</pdfrwt>
<totfact> 0.75051079E+04</totfact>
</mgrwt>
</event>
<event>
 4    1  0.4050555E+000  0.2113074E+03  0.7546771E-02  0.1140535E+00
         21   -1    0    0  503  502  0.00000000000E+00  0.00000000000E+00  0.31386146163E+03  0.31386146163E+03  0.00000000000E+00 0.  1.
         21   -1    0    0  501  503 -0.00000000000E+00 -0.00000000000E+00 -0.28499393025E+03  0.28499393025E+03  0.00000000000E+00 0. -1.
          6    1    1    2  501    0 -0.34198201737E+01  0.12128537354E+03 -0.19746741979E+03  0.28921310289E+03  0.17300000000E+03 0. -1.
         -6    1    1    2    0  502  0.34198201737E+01 -0.12128537354E+03  0.22633495118E+03  0.30964228899E+03  0.17300000000E+03 0.  1.
<mgrwt>
<rscale>  2 0.21130745E+03</rscale>
<asrwt>0</asrwt>
<pdfrwt beam="1">  1       21 0.48286379E-01 0.21130745E+03</pdfrwt>
<pdfrwt beam="2">  1       21 0.43845220E-01 0.21130745E+03</pdfrwt>
<totfact> 0.20252595E+04</totfact>
</mgrwt>
</event>
<event>
 4    1  0.4050555E+000  0.1979701E+03  0.7546771E-02  0.1151463E+00
         21   -1    0    0  503  502  0.00000000000E+00  0.00000000000E+00  0.68787082729E+03  0.68787082729E+03  0.00000000000E+00 0.  1.
         21   -1    0    0  501  503 -0.00000000000E+00 -0.00000000000E+00 -0.11774287040E+03  0.11774287040E+03  0.00000000000E+00 0.  1.
          6    1    1    2  501    0  0.36104166247E+02 -0.89216897512E+02 -0.43122003531E+01  0.19801707172E+03  0.17300000000E+03 0.  1.
         -6    1    1    2    0  502 -0.36104166247E+02  0.89216897512E+02  0.57444015725E+03  0.60759662596E+03  0.17300000000E+03 0.  1.
<mgrwt>
<rscale>  2 0.19797011E+03</rscale>
<asrwt>0</asrwt>
<pdfrwt beam="1">  1       21 0.10582628E+00 0.19797011E+03</pdfrwt>
<pdfrwt beam="2">  1       21 0.18114288E-01 0.19797011E+03</pdfrwt>
<totfact> 0.19829204E+04</totfact>
</mgrwt>
</event>
<event>
 4    1  0.4050555E+000  0.2730946E+03  0.7546771E-02  0.1099521E+00
         21   -1    0    0  503  502  0.00000000000E+00  0.00000000000E+00  0.27729306099E+03  0.27729306099E+03  0.00000000000E+00 0. -1.
         21   -1    0    0  501  503 -0.00000000000E+00 -0.00000000000E+00 -0.27186556828E+03  0.27186556828E+03  0.00000000000E+00 0.  1.
          6    1    1    2  501    0  0.12668569271E+03  0.16912235647E+03 -0.25674246333E+02  0.27429874794E+03  0.17300000000E+03 0.  1.
         -6    1    1    2    0  502 -0.12668569271E+03 -0.16912235647E+03  0.31101739041E+02  0.27485988133E+03  0.17300000000E+03 0. -1.
<mgrwt>
<rscale>  2 0.27309456E+03</rscale>
<asrwt>0</asrwt>
<pdfrwt beam="1">  1       21 0.42660471E-01 0.27309456E+03</pdfrwt>
<pdfrwt beam="2">  1       21 0.41825472E-01 0.27309456E+03</pdfrwt>
<totfact> 0.27974370E+04</totfact>
</mgrwt>
</event>
<event>
 4    1  0.4050555E+000  0.1917829E+03  0.7546771E-02  0.1156863E+00
         21   -1    0    0  503  502  0.00000000000E+00  0.00000000000E+00  0.46418032306E+03  0.46418032306E+03  0.00000000000E+00 0. -1.
         21   -1    0    0  501  503 -0.00000000000E+00 -0.00000000000E+00 -0.79561931058E+02  0.79561931058E+02  0.00000000000E+00 0. -1.
          6    1    1    2  501    0  0.61547285580E+02 -0.55350016432E+02  0.20965829026E+03  0.28414308254E+03  0.17300000000E+03 0. -1.
         -6    1    1    2    0  502 -0.61547285580E+02  0.55350016432E+02  0.17496010174E+03  0.25959917157E+03  0.17300000000E+03 0. -1.
<mgrwt>
<rscale>  2 0.19178293E+03</rscale>
<asrwt>0</asrwt>
<pdfrwt beam="1">  1       21 0.71412356E-01 0.19178293E+03</pdfrwt>
<pdfrwt beam="2">  1       21 0.12240297E-01 0.19178293E+03</pdfrwt>
<totfact> 0.10044945E+05</totfact>
</mgrwt>
</event>
<event>
 4    1  0.4050555E+000  0.2076080E+03  0.7546771E-02  0.1143474E+00
         21   -1    0    0  501  502  0.00000000000E+00  0.00000000000E+00  0.46126066645E+03  0.46126066645E+03  0.00000000000E+00 0.  1.
         21   -1    0    0  502  503 -0.00000000000E+00 -0.00000000000E+00 -0.10674330364E+03  0.10674330364E+03  0.00000000000E+00 0. -1.
          6    1    1    2  501    0  0.35836356737E+02 -0.10903135662E+03  0.27751217242E+03  0.34657479284E+03  0.17300000000E+03 0.  1.
         -6    1    1    2    0  503 -0.35836356737E+02  0.10903135662E+03  0.77005190386E+02  0.22142917725E+03  0.17300000000E+03 0. -1.
<mgrwt>
<rscale>  2 0.20760800E+03</rscale>
<asrwt>0</asrwt>
<pdfrwt beam="1">  1       21 0.70963178E-01 0.20760800E+03</pdfrwt>
<pdfrwt beam="2">  1       21 0.16422047E-01 0.20760800E+03</pdfrwt>
<totfact> 0.59346221E+04</totfact>
</mgrwt>
</event>
<event>
 4    1  0.4050555E+000  0.2197547E+03  0.7546771E-02  0.1134066E+00
         21   -1    0    0  503  502  0.00000000000E+00  0.00000000000E+00  0.14918500803E+03  0.14918500803E+03  0.00000000000E+00 0.  1.
         21   -1    0    0  501  503 -0.00000000000E+00 -0.00000000000E+00 -0.32485230097E+03  0.32485230097E+03  0.00000000000E+00 0.  1.
          6    1    1    2  501    0  0.46320633834E+02  0.12734801165E+03 -0.73755532935E+02  0.23180163034E+03  0.17300000000E+03 0.  1.
         -6    1    1    2    0  502 -0.46320633834E+02 -0.12734801165E+03 -0.10191176001E+03  0.24223567867E+03  0.17300000000E+03 0.  1.
<mgrwt>
<rscale>  2 0.21975468E+03</rscale>
<asrwt>0</asrwt>
<pdfrwt beam="1">  1       21 0.22951540E-01 0.21975468E+03</pdfrwt>
<pdfrwt beam="2">  1       21 0.49977277E-01 0.21975468E+03</pdfrwt>
<totfact> 0.67157462E+04</totfact>
</mgrwt>
</event>
<event>
 4    1  0.4050555E+000  0.2002002E+03  0.7546771E-02  0.1149570E+00
         21   -1    0    0  503  502  0.00000000000E+00  0.00000000000E+00  0.68718658236E+03  0.68718658236E+03  0.00000000000E+00 0. -1.
         21   -1    0    0  501  503 -0.00000000000E+00 -0.00000000000E+00 -0.10822882490E+03  0.10822882490E+03  0.00000000000E+00 0. -1.
          6    1    1    2  501    0  0.87867464159E+02 -0.49299471548E+02  0.19419274041E+02  0.20113984527E+03  0.17300000000E+03 0. -1.
         -6    1    1    2    0  502 -0.87867464159E+02  0.49299471548E+02  0.55953848341E+03  0.59427556199E+03  0.17300000000E+03 0. -1.
<mgrwt>
<rscale>  2 0.20020022E+03</rscale>
<asrwt>0</asrwt>
<pdfrwt beam="1">  1       21 0.10572101E+00 0.20020022E+03</pdfrwt>
<pdfrwt beam="2">  1       21 0.16650589E-01 0.20020022E+03</pdfrwt>
<totfact> 0.23186740E+04</totfact>
</mgrwt>
</event>
<event>
 4    1  0.4050555E+000  0.1788402E+03  0.7546771E-02  0.1168930E+00
         21   -1    0    0  501  502  0.00000000000E+00  0.00000000000E+00  0.15239822489E+03  0.15239822489E+03  0.00000000000E+00 0. -1.
         21   -1    0    0  502  503 -0.00000000000E+00 -0.00000000000E+00 -0.21004220492E+03  0.21004220492E+03  0.00000000000E+00 0. -1.
          6    1    1    2  501    0 -0.31726982000E+02  0.32376230130E+02 -0.34010286267E+02  0.18204538235E+03  0.17300000000E+03 0. -1.
         -6    1    1    2    0  503  0.31726982000E+02 -0.32376230130E+02 -0.23633693760E+02  0.18039504745E+03  0.17300000000E+03 0. -1.
<mgrwt>
<rscale>  2 0.17884021E+03</rscale>
<asrwt>0</asrwt>
<pdfrwt beam="1">  1       21 0.23445881E-01 0.17884021E+03</pdfrwt>
<pdfrwt beam="2">  1       21 0.32314185E-01 0.17884021E+03</pdfrwt>
<totfact> 0.15837176E+05</totfact>
</mgrwt>
</event>
<event>
 4    1  0.4050555E+000  0.1933617E+03  0.7546771E-02  0.1155464E+00
         21   -1    0    0  501  502  0.00000000000E+00  0.00000000000E+00  0.14639632074E+04  0.14639632074E+04  0.00000000000E+00 0.  1.
         21   -1    0    0  502  503 -0.00000000000E+00 -0.00000000000E+00 -0.29704810046E+02  0.29704810046E+02  0.00000000000E+00 0.  1.
          6    1    1    2  501    0 -0.40329142419E+02 -0.76376057396E+02  0.99679513945E+03  0.10153764287E+04  0.17300000000E+03 0.  1.
         -6    1    1    2    0  503  0.40329142419E+02  0.76376057396E+02  0.43746325786E+03  0.47829158873E+03  0.17300000000E+03 0.  1.
<mgrwt>
<rscale>  2 0.19336169E+03</rscale>
<asrwt>0</asrwt>
<pdfrwt beam="1">  1       21 0.22522505E+00 0.19336169E+03</pdfrwt>
<pdfrwt beam="2">  1       21 0.45699719E-02 0.19336169E+03</pdfrwt>
<totfact> 0.29258902E+04</totfact>
</mgrwt>
</event>
<event>
 4    1  0.4050555E+000  0.2037889E+03  0.7546771E-02  0.1146581E+00
         21   -1    0    0  501  502  0.00000000000E+00  0.00000000000E+00  0.79459383586E+02  0.79459383586E+02  0.00000000000E+00 0. -1.
         21   -1    0    0  502  503 -0.00000000000E+00 -0.00000000000E+00 -0.57765672894E+03  0.57765672894E+03  0.00000000000E+00 0. -1.
          6    1    1    2  501    0 -0.10309656579E+03  0.31176855097E+02 -0.14771624471E+03  0.25169423339E+03  0.17300000000E+03 0. -1.
         -6    1    1    2    0  503  0.10309656579E+03 -0.31176855097E+02 -0.35048110065E+03  0.40542187914E+03  0.17300000000E+03 0. -1.
<mgrwt>
<rscale>  2 0.20378886E+03</rscale>
<asrwt>0</asrwt>
<pdfrwt beam="1">  1       21 0.12224520E-01 0.20378886E+03</pdfrwt>
<pdfrwt beam="2">  1       21 0.88870267E-01 0.20378886E+03</pdfrwt>
<totfact> 0.61076669E+04</totfact>
</mgrwt>
</event>
<event>
 4    1  0.4050555E+000  0.1846475E+03  0.7546771E-02  0.1163380E+00
         21   -1    0    0  503  502  0.00000000000E+00  0.00000000000E+00  0.55891664781E+03  0.55891664781E+03  0.00000000000E+00 0.  1.
         21   -1    0    0  501  503 -0.00000000000E+00 -0.00000000000E+00 -0.14384269724E+03  0.14384269724E+03  0.00000000000E+00 0.  1.
          6    1    1    2  501    0 -0.64472177485E+02  0.30042321012E+01 -0.59122009564E+02  0.19388166261E+03  0.17300000000E+03 0.  1.
         -6    1    1    2    0  502  0.64472177485E+02 -0.30042321012E+01  0.47419596013E+03  0.50887768244E+03  0.17300000000E+03 0.  1.
<mgrwt>
<rscale>  2 0.18464747E+03</rscale>
<asrwt>0</asrwt>
<pdfrwt beam="1">  1       21 0.85987176E-01 0.18464747E+03</pdfrwt>
<pdfrwt beam="2">  1       21 0.22129646E-01 0.18464747E+03</pdfrwt>
<totfact> 0.22383616E+04</totfact>
</mgrwt>
</event>
<event>
 4    1  0.4050555E+000  0.3338091E+03  0.7546771E-02  0.1069464E+00
         21   -1    0    0  501  502  0.00000000000E+00  0.00000000000E+00  0.27410961840E+03  0.27410961840E+03  0.00000000000E+00 0. -1.
         21   -1    0    0  502  503 -0.00000000000E+00 -0.00000000000E+00 -0.59701545271E+03  0.59701545271E+03  0.00000000000E+00 0.  1.
          6    1    1    2  501    0 -0.28427516603E+03 -0.26212887597E+02  0.84589887678E+02  0.34436018149E+03  0.17300000000E+03 0. -1.
         -6    1    1    2    0  503  0.28427516603E+03  0.26212887597E+02 -0.40749572199E+03  0.52676488962E+03  0.17300000000E+03 0.  1.
<mgrwt>
<rscale>  2 0.33380906E+03</rscale>
<asrwt>0</asrwt>
<pdfrwt beam="1">  1       21 0.42170711E-01 0.33380906E+03</pdfrwt>
<pdfrwt beam="2">  1       21 0.91848531E-01 0.33380906E+03</pdfrwt>
<totfact> 0.49819240E+03</totfact>
</mgrwt>
</event>
<event>
 4    1  0.4050555E+000  0.2287285E+03  0.7546771E-02  0.1127538E+00
         21   -1    0    0  501  502  0.00000000000E+00  0.00000000000E+00  0.14847977836E+04  0.14847977836E+04  0.00000000000E+00 0. -1.
         21   -1    0    0  502  503 -0.00000000000E+00 -0.00000000000E+00 -0.36753123962E+02  0.36753123962E+02  0.00000000000E+00 0. -1.
          6    1    1    2  501    0 -0.14962249934E+03  0.90337034732E+00  0.87864622600E+03  0.90792945698E+03  0.17300000000E+03 0. -1.
         -6    1    1    2    0  503  0.14962249934E+03 -0.90337034732E+00  0.56939843363E+03  0.61362145058E+03  0.17300000000E+03 0. -1.
<mgrwt>
<rscale>  2 0.22872846E+03</rscale>
<asrwt>0</asrwt>
<pdfrwt beam="1">  1       21 0.22843038E+00 0.22872846E+03</pdfrwt>
<pdfrwt beam="2">  1       21 0.56543279E-02 0.22872846E+03</pdfrwt>
<totfact> 0.18962602E+04</totfact>
</mgrwt>
</event>
<event>
 4    1  0.4050555E+000  0.1739927E+03  0.7546771E-02  0.1173747E+00
         21   -1    0    0  501  502  0.00000000000E+00  0.00000000000E+00  0.15403768923E+04  0.15403768923E+04  0.00000000000E+00 0.  1.
         21   -1    0    0  502  503 -0.00000000000E+00 -0.00000000000E+00 -0.20790511615E+02  0.20790511615E+02  0.00000000000E+00 0.  1.
          6    1    1    2  501    0  0.75753662554E+01 -0.16943179829E+02  0.94235564188E+03  0.95828368101E+03  0.17300000000E+03 0.  1.
         -6    1    1    2    0  503 -0.75753662554E+01  0.16943179829E+02  0.57723073879E+03  0.60288372289E+03  0.17300000000E+03 0.  1.
<mgrwt>
<rscale>  2 0.17399269E+03</rscale>
<asrwt>0</asrwt>
<pdfrwt beam="1">  1       21 0.23698097E+00 0.17399269E+03</pdfrwt>
<pdfrwt beam="2">  1       21 0.31985415E-02 0.17399269E+03</pdfrwt>
<totfact> 0.45836830E+04</totfact>
</mgrwt>
</event>
<event>
 4    1  0.4050555E+000  0.1731779E+03  0.7546771E-02  0.1174574E+00
         21   -1    0    0  501  502  0.00000000000E+00  0.00000000000E+00  0.16637758052E+04  0.16637758052E+04  0.00000000000E+00 0. -1.
         21   -1    0    0  502  503 -0.00000000000E+00 -0.00000000000E+00 -0.18034705867E+02  0.18034705867E+02  0.00000000000E+00 0. -1.
          6    1    1    2  501    0 -0.59747514309E+00  0.78257588071E+01  0.84173941177E+03  0.85936944140E+03  0.17300000000E+03 0.  1.
         -6    1    1    2    0  503  0.59747514309E+00 -0.78257588071E+01  0.80400168754E+03  0.82244106965E+03  0.17300000000E+03 0.  1.
<mgrwt>
<rscale>  2 0.17317794E+03</rscale>
<asrwt>0</asrwt>
<pdfrwt beam="1">  1       21 0.25596539E+00 0.17317794E+03</pdfrwt>
<pdfrwt beam="2">  1       21 0.27745714E-02 0.17317794E+03</pdfrwt>
<totfact> 0.44879679E+04</totfact>
</mgrwt>
</event>
<event>
 4    1  0.4050555E+000  0.2546595E+03  0.7546771E-02  0.1110395E+00
         21   -1    0    0  503  502  0.00000000000E+00  0.00000000000E+00  0.40924323928E+03  0.40924323928E+03  0.00000000000E+00 0.  1.
         21   -1    0    0  501  503 -0.00000000000E+00 -0.00000000000E+00 -0.46850860591E+03  0.46850860591E+03  0.00000000000E+00 0. -1.
          6    1    1    2  501    0 -0.13871161299E+03 -0.12522607240E+03 -0.38665311736E+03  0.46298176417E+03  0.17300000000E+03 0. -1.
         -6    1    1    2    0  502  0.13871161299E+03  0.12522607240E+03  0.32738775073E+03  0.41477008102E+03  0.17300000000E+03 0.  1.
<mgrwt>
<rscale>  2 0.25465954E+03</rscale>
<asrwt>0</asrwt>
<pdfrwt beam="1">  1       21 0.62960499E-01 0.25465954E+03</pdfrwt>
<pdfrwt beam="2">  1       21 0.72078247E-01 0.25465954E+03</pdfrwt>
<totfact> 0.38785741E+03</totfact>
</mgrwt>
</event>
<event>
 4    1  0.4050555E+000  0.1898888E+03  0.7546771E-02  0.1158562E+00
         21   -1    0    0  503  502  0.00000000000E+00  0.00000000000E+00  0.62313802075E+02  0.62313802075E+02  0.00000000000E+00 0. -1.
         21   -1    0    0  501  503 -0.00000000000E+00 -0.00000000000E+00 -0.10263752625E+04  0.10263752625E+04  0.00000000000E+00 0. -1.
          6    1    1    2  501    0  0.67580098451E+02  0.39518123204E+02 -0.84155448192E+03  0.86271182779E+03  0.17300000000E+03 0. -1.
         -6    1    1    2    0  502 -0.67580098451E+02 -0.39518123204E+02 -0.12250697853E+03  0.22597723681E+03  0.17300000000E+03 0. -1.
<mgrwt>
<rscale>  2 0.18988879E+03</rscale>
<asrwt>0</asrwt>
<pdfrwt beam="1">  1       21 0.95867401E-02 0.18988879E+03</pdfrwt>
<pdfrwt beam="2">  1       21 0.15790386E+00 0.18988879E+03</pdfrwt>
<totfact> 0.22839749E+04</totfact>
</mgrwt>
</event>
<event>
 4    1  0.4050555E+000  0.2040816E+03  0.7546771E-02  0.1146340E+00
         21   -1    0    0  501  502  0.00000000000E+00  0.00000000000E+00  0.20147097246E+04  0.20147097246E+04  0.00000000000E+00 0. -1.
         21   -1    0    0  502  503 -0.00000000000E+00 -0.00000000000E+00 -0.21311770169E+02  0.21311770169E+02  0.00000000000E+00 0. -1.
          6    1    1    2  501    0 -0.93622413707E+02 -0.54361119946E+02  0.11729984205E+04  0.11906194112E+04  0.17300000000E+03 0. -1.
         -6    1    1    2    0  503  0.93622413707E+02  0.54361119946E+02  0.82039953385E+03  0.84540208354E+03  0.17300000000E+03 0. -1.
<mgrwt>
<rscale>  2 0.20408157E+03</rscale>
<asrwt>0</asrwt>
<pdfrwt beam="1">  1       21 0.30995519E+00 0.20408157E+03</pdfrwt>
<pdfrwt beam="2">  1       21 0.32787355E-02 0.20408157E+03</pdfrwt>
<totfact> 0.16144457E+04</totfact>
</mgrwt>
</event>
<event>
 4    1  0.4050555E+000  0.2103287E+03  0.7546771E-02  0.1141306E+00
         21   -1    0    0  501  502  0.00000000000E+00  0.00000000000E+00  0.49611696534E+03  0.49611696534E+03  0.00000000000E+00 0. -1.
         21   -1    0    0  502  503 -0.00000000000E+00 -0.00000000000E+00 -0.20756607387E+03  0.20756607387E+03  0.00000000000E+00 0.  1.
          6    1    1    2  501    0  0.11906325032E+03 -0.11536259881E+02  0.41000496181E+03  0.46080604551E+03  0.17300000000E+03 0. -1.
         -6    1    1    2    0  503 -0.11906325032E+03  0.11536259881E+02 -0.12145407034E+03  0.24287699370E+03  0.17300000000E+03 0.  1.
<mgrwt>
<rscale>  2 0.21032865E+03</rscale>
<asrwt>0</asrwt>
<pdfrwt beam="1">  1       21 0.76325687E-01 0.21032865E+03</pdfrwt>
<pdfrwt beam="2">  1       21 0.31933242E-01 0.21032865E+03</pdfrwt>
<totfact> 0.14255735E+04</totfact>
</mgrwt>
</event>
<event>
 4    1  0.4050555E+000  0.1898267E+03  0.7546771E-02  0.1158618E+00
         21   -1    0    0  501  502  0.00000000000E+00  0.00000000000E+00  0.74822948644E+03  0.74822948644E+03  0.00000000000E+00 0. -1.
         21   -1    0    0  502  503 -0.00000000000E+00 -0.00000000000E+00 -0.12899626293E+03  0.12899626293E+03  0.00000000000E+00 0. -1.
          6    1    1    2  501    0  0.77590253077E+02 -0.92148599876E+01  0.65683120904E+03  0.68371148754E+03  0.17300000000E+03 0. -1.
         -6    1    1    2    0  503 -0.77590253077E+02  0.92148599876E+01 -0.37597985526E+02  0.19351426183E+03  0.17300000000E+03 0. -1.
<mgrwt>
<rscale>  2 0.18982666E+03</rscale>
<asrwt>0</asrwt>
<pdfrwt beam="1">  1       21 0.11511223E+00 0.18982666E+03</pdfrwt>
<pdfrwt beam="2">  1       21 0.19845579E-01 0.18982666E+03</pdfrwt>
<totfact> 0.13723770E+04</totfact>
</mgrwt>
</event>
<event>
 4    1  0.4050555E+000  0.2418366E+03  0.7546771E-02  0.1118575E+00
         21   -1    0    0  503  502  0.00000000000E+00  0.00000000000E+00  0.19485509484E+04  0.19485509484E+04  0.00000000000E+00 0. -1.
         21   -1    0    0  501  503 -0.00000000000E+00 -0.00000000000E+00 -0.32738983622E+02  0.32738983622E+02  0.00000000000E+00 0. -1.
          6    1    1    2  501    0 -0.51623640851E+02  0.16090657146E+03  0.67213264363E+03  0.71431590747E+03  0.17300000000E+03 0. -1.
         -6    1    1    2    0  502  0.51623640851E+02 -0.16090657146E+03  0.12436793211E+04  0.12669740245E+04  0.17300000000E+03 0. -1.
<mgrwt>
<rscale>  2 0.24183657E+03</rscale>
<asrwt>0</asrwt>
<pdfrwt beam="1">  1       21 0.29977698E+00 0.24183657E+03</pdfrwt>
<pdfrwt beam="2">  1       21 0.50367682E-02 0.24183657E+03</pdfrwt>
<totfact> 0.86646617E+03</totfact>
</mgrwt>
</event>
<event>
 4    1  0.4050555E+000  0.2094136E+03  0.7546771E-02  0.1142031E+00
         21   -1    0    0  503  502  0.00000000000E+00  0.00000000000E+00  0.20001148519E+03  0.20001148519E+03  0.00000000000E+00 0. -1.
         21   -1    0    0  501  503 -0.00000000000E+00 -0.00000000000E+00 -0.22251441974E+03  0.22251441974E+03  0.00000000000E+00 0. -1.
          6    1    1    2  501    0 -0.11305710641E+03  0.33810603499E+02 -0.36809757059E+02  0.21262413888E+03  0.17300000000E+03 0. -1.
         -6    1    1    2    0  502  0.11305710641E+03 -0.33810603499E+02  0.14306822513E+02  0.20990176605E+03  0.17300000000E+03 0. -1.
<mgrwt>
<rscale>  2 0.20941362E+03</rscale>
<asrwt>0</asrwt>
<pdfrwt beam="1">  1       21 0.30770998E-01 0.20941362E+03</pdfrwt>
<pdfrwt beam="2">  1       21 0.34232987E-01 0.20941362E+03</pdfrwt>
<totfact> 0.82801018E+04</totfact>
</mgrwt>
</event>
<event>
 4    1  0.4050555E+000  0.1749575E+03  0.7546771E-02  0.1172774E+00
         21   -1    0    0  501  502  0.00000000000E+00  0.00000000000E+00  0.14877488823E+03  0.14877488823E+03  0.00000000000E+00 0.  1.
         21   -1    0    0  502  503 -0.00000000000E+00 -0.00000000000E+00 -0.27714558778E+03  0.27714558778E+03  0.00000000000E+00 0.  1.
          6    1    1    2  501    0  0.22893259933E+02 -0.12530819872E+02  0.43904912942E+02  0.18038227235E+03  0.17300000000E+03 0.  1.
         -6    1    1    2    0  503 -0.22893259933E+02  0.12530819872E+02 -0.17227561249E+03  0.24553820366E+03  0.17300000000E+03 0.  1.
<mgrwt>
<rscale>  2 0.17495749E+03</rscale>
<asrwt>0</asrwt>
<pdfrwt beam="1">  1       21 0.22888444E-01 0.17495749E+03</pdfrwt>
<pdfrwt beam="2">  1       21 0.42637783E-01 0.17495749E+03</pdfrwt>
<totfact> 0.95432456E+04</totfact>
</mgrwt>
</event>
<event>
 4    1  0.4050555E+000  0.2795853E+03  0.7546771E-02  0.1095916E+00
         21   -1    0    0  503  502  0.00000000000E+00  0.00000000000E+00  0.14836119177E+04  0.14836119177E+04  0.00000000000E+00 0.  1.
         21   -1    0    0  501  503 -0.00000000000E+00 -0.00000000000E+00 -0.11972255741E+03  0.11972255741E+03  0.00000000000E+00 0. -1.
          6    1    1    2  501    0 -0.32745835383E+02  0.21717879275E+03  0.82075036984E+02  0.29138330332E+03  0.17300000000E+03 0. -1.
         -6    1    1    2    0  502  0.32745835383E+02 -0.21717879275E+03  0.12818143233E+04  0.13119511718E+04  0.17300000000E+03 0.  1.
<mgrwt>
<rscale>  2 0.27958526E+03</rscale>
<asrwt>0</asrwt>
<pdfrwt beam="1">  1       21 0.22824797E+00 0.27958526E+03</pdfrwt>
<pdfrwt beam="2">  1       21 0.18418856E-01 0.27958526E+03</pdfrwt>
<totfact> 0.22284456E+03</totfact>
</mgrwt>
</event>
<event>
 4    1  0.4050555E+000  0.1796665E+03  0.7546771E-02  0.1168126E+00
         21   -1    0    0  501  502  0.00000000000E+00  0.00000000000E+00  0.36561911681E+02  0.36561911681E+02  0.00000000000E+00 0. -1.
         21   -1    0    0  502  503 -0.00000000000E+00 -0.00000000000E+00 -0.10784710773E+04  0.10784710773E+04  0.00000000000E+00 0. -1.
          6    1    1    2  501    0  0.36341586679E+02 -0.32099064673E+02 -0.28353339269E+03  0.33566537749E+03  0.17300000000E+03 0.  1.
         -6    1    1    2    0  503 -0.36341586679E+02  0.32099064673E+02 -0.75837577297E+03  0.77936761153E+03  0.17300000000E+03 0.  1.
<mgrwt>
<rscale>  2 0.17966653E+03</rscale>
<asrwt>0</asrwt>
<pdfrwt beam="1">  1       21 0.56249103E-02 0.17966653E+03</pdfrwt>
<pdfrwt beam="2">  1       21 0.16591860E+00 0.17966653E+03</pdfrwt>
<totfact> 0.50600818E+04</totfact>
</mgrwt>
</event>
<event>
 4    1  0.4050555E+000  0.1910047E+03  0.7546771E-02  0.1157558E+00
         21   -1    0    0  501  502  0.00000000000E+00  0.00000000000E+00  0.52833323545E+03  0.52833323545E+03  0.00000000000E+00 0. -1.
         21   -1    0    0  502  503 -0.00000000000E+00 -0.00000000000E+00 -0.24647770044E+03  0.24647770044E+03  0.00000000000E+00 0. -1.
          6    1    1    2  501    0 -0.76915323096E+02 -0.25255550313E+02  0.46961618366E+03  0.50697353945E+03  0.17300000000E+03 0. -1.
         -6    1    1    2    0  503  0.76915323096E+02  0.25255550313E+02 -0.18776064865E+03  0.26783739644E+03  0.17300000000E+03 0. -1.
<mgrwt>
<rscale>  2 0.19100474E+03</rscale>
<asrwt>0</asrwt>
<pdfrwt beam="1">  1       21 0.81282036E-01 0.19100474E+03</pdfrwt>
<pdfrwt beam="2">  1       21 0.37919646E-01 0.19100474E+03</pdfrwt>
<totfact> 0.89091423E+03</totfact>
</mgrwt>
</event>
<event>
 4    1  0.4050555E+000  0.2411049E+03  0.7546771E-02  0.1119059E+00
         21   -1    0    0  503  502  0.00000000000E+00  0.00000000000E+00  0.13260569096E+03  0.13260569096E+03  0.00000000000E+00 0. -1.
         21   -1    0    0  501  503 -0.00000000000E+00 -0.00000000000E+00 -0.95807449787E+03  0.95807449787E+03  0.00000000000E+00 0.  1.
          6    1    1    2  501    0  0.15296586710E+03  0.69310957434E+02 -0.81437926809E+03  0.84932040927E+03  0.17300000000E+03 0.  1.
         -6    1    1    2    0  502 -0.15296586710E+03 -0.69310957434E+02 -0.11089538820E+02  0.24135977956E+03  0.17300000000E+03 0. -1.
<mgrwt>
<rscale>  2 0.24110488E+03</rscale>
<asrwt>0</asrwt>
<pdfrwt beam="1">  1       21 0.20400876E-01 0.24110488E+03</pdfrwt>
<pdfrwt beam="2">  1       21 0.14739607E+00 0.24110488E+03</pdfrwt>
<totfact> 0.67167087E+03</totfact>
</mgrwt>
</event>
<event>
 4    1  0.4050555E+000  0.1902775E+03  0.7546771E-02  0.1158211E+00
         21   -1    0    0  501  502  0.00000000000E+00  0.00000000000E+00  0.87086419150E+02  0.87086419150E+02  0.00000000000E+00 0. -1.
         21   -1    0    0  502  503 -0.00000000000E+00 -0.00000000000E+00 -0.62660930313E+03  0.62660930313E+03  0.00000000000E+00 0.  1.
          6    1    1    2  501    0  0.65711814098E+02 -0.44254588904E+02 -0.62752570987E+02  0.20035817008E+03  0.17300000000E+03 0. -1.
         -6    1    1    2    0  503 -0.65711814098E+02  0.44254588904E+02 -0.47677031299E+03  0.51333755220E+03  0.17300000000E+03 0.  1.
<mgrwt>
<rscale>  2 0.19027746E+03</rscale>
<asrwt>0</asrwt>
<pdfrwt beam="1">  1       21 0.13397910E-01 0.19027746E+03</pdfrwt>
<pdfrwt beam="2">  1       21 0.96401436E-01 0.19027746E+03</pdfrwt>
<totfact> 0.43144302E+04</totfact>
</mgrwt>
</event>
<event>
 4    1  0.4050555E+000  0.2132929E+03  0.7546771E-02  0.1138985E+00
         21   -1    0    0  503  502  0.00000000000E+00  0.00000000000E+00  0.16073195445E+03  0.16073195445E+03  0.00000000000E+00 0. -1.
         21   -1    0    0  501  503 -0.00000000000E+00 -0.00000000000E+00 -0.57962700915E+03  0.57962700915E+03  0.00000000000E+00 0.  1.
          6    1    1    2  501    0 -0.97426497450E+02  0.77928929408E+02 -0.47424441560E+03  0.52000154440E+03  0.17300000000E+03 0.  1.
         -6    1    1    2    0  502  0.97426497450E+02 -0.77928929408E+02  0.55349360911E+02  0.22035741920E+03  0.17300000000E+03 0. -1.
<mgrwt>
<rscale>  2 0.21329285E+03</rscale>
<asrwt>0</asrwt>
<pdfrwt beam="1">  1       21 0.24727994E-01 0.21329285E+03</pdfrwt>
<pdfrwt beam="2">  1       21 0.89173383E-01 0.21329285E+03</pdfrwt>
<totfact> 0.16385594E+04</totfact>
</mgrwt>
</event>
<event>
 4    1  0.4050555E+000  0.1738932E+03  0.7546771E-02  0.1173848E+00
         21   -1    0    0  503  502  0.00000000000E+00  0.00000000000E+00  0.23954203960E+03  0.23954203960E+03  0.00000000000E+00 0.  1.
         21   -1    0    0  501  503 -0.00000000000E+00 -0.00000000000E+00 -0.12623601672E+03  0.12623601672E+03  0.00000000000E+00 0.  1.
          6    1    1    2  501    0  0.88291685070E+01 -0.15227478296E+02  0.56706682830E+02  0.18290565379E+03  0.17300000000E+03 0.  1.
         -6    1    1    2    0  502 -0.88291685070E+01  0.15227478296E+02  0.56599340043E+02  0.18287240252E+03  0.17300000000E+03 0.  1.
<mgrwt>
<rscale>  2 0.17389316E+03</rscale>
<asrwt>0</asrwt>
<pdfrwt beam="1">  1       21 0.36852621E-01 0.17389316E+03</pdfrwt>
<pdfrwt beam="2">  1       21 0.19420926E-01 0.17389316E+03</pdfrwt>
<totfact> 0.17414802E+05</totfact>
</mgrwt>
</event>
<event>
 4    1  0.4050555E+000  0.2171352E+03  0.7546771E-02  0.1136037E+00
         21   -1    0    0  503  502  0.00000000000E+00  0.00000000000E+00  0.15827102837E+03  0.15827102837E+03  0.00000000000E+00 0. -1.
         21   -1    0    0  501  503 -0.00000000000E+00 -0.00000000000E+00 -0.34722667908E+03  0.34722667908E+03  0.00000000000E+00 0.  1.
          6    1    1    2  501    0  0.13119572700E+03 -0.25247413136E+01 -0.18974828293E+03  0.28836106529E+03  0.17300000000E+03 0.  1.
         -6    1    1    2    0  502 -0.13119572700E+03  0.25247413136E+01  0.79263221017E+00  0.21713664216E+03  0.17300000000E+03 0. -1.
<mgrwt>
<rscale>  2 0.21713520E+03</rscale>
<asrwt>0</asrwt>
<pdfrwt beam="1">  1       21 0.24349389E-01 0.21713520E+03</pdfrwt>
<pdfrwt beam="2">  1       21 0.53419488E-01 0.21713520E+03</pdfrwt>
<totfact> 0.52226910E+04</totfact>
</mgrwt>
</event>
<event>
 4    1  0.4050555E+000  0.1801328E+03  0.7546771E-02  0.1167675E+00
         21   -1    0    0  503  502  0.00000000000E+00  0.00000000000E+00  0.33349546354E+03  0.33349546354E+03  0.00000000000E+00 0.  1.
         21   -1    0    0  501  503 -0.00000000000E+00 -0.00000000000E+00 -0.10154521988E+03  0.10154521988E+03  0.00000000000E+00 0. -1.
          6    1    1    2  501    0 -0.11456759254E+01 -0.50174776720E+02  0.71479460945E+02  0.19379663085E+03  0.17300000000E+03 0. -1.
         -6    1    1    2    0  502  0.11456759254E+01  0.50174776720E+02  0.16047078271E+03  0.24124405256E+03  0.17300000000E+03 0.  1.
<mgrwt>
<rscale>  2 0.18013279E+03</rscale>
<asrwt>0</asrwt>
<pdfrwt beam="1">  1       21 0.51306994E-01 0.18013279E+03</pdfrwt>
<pdfrwt beam="2">  1       21 0.15622342E-01 0.18013279E+03</pdfrwt>
<totfact> 0.13207601E+05</totfact>
</mgrwt>
</event>
<event>
 4    1  0.4050555E+000  0.1790528E+03  0.7546771E-02  0.1168723E+00
         21   -1    0    0  501  502  0.00000000000E+00  0.00000000000E+00  0.77538154019E+03  0.77538154019E+03  0.00000000000E+00 0. -1.
         21   -1    0    0  502  503 -0.00000000000E+00 -0.00000000000E+00 -0.18508457369E+03  0.18508457369E+03  0.00000000000E+00 0.  1.
          6    1    1    2  501    0 -0.15099754224E+02 -0.43622269392E+02  0.71835436657E+03  0.74033296626E+03  0.17300000000E+03 0. -1.
         -6    1    1    2    0  503  0.15099754224E+02  0.43622269392E+02 -0.12805740007E+03  0.22013314761E+03  0.17300000000E+03 0.  1.
<mgrwt>
<rscale>  2 0.17905280E+03</rscale>
<asrwt>0</asrwt>
<pdfrwt beam="1">  1       21 0.11928947E+00 0.17905280E+03</pdfrwt>
<pdfrwt beam="2">  1       21 0.28474550E-01 0.17905280E+03</pdfrwt>
<totfact> 0.63888504E+03</totfact>
</mgrwt>
</event>
<event>
 4    1  0.4050555E+000  0.2001727E+03  0.7546771E-02  0.1149593E+00
         21   -1    0    0  501  502  0.00000000000E+00  0.00000000000E+00  0.71351709688E+03  0.71351709688E+03  0.00000000000E+00 0. -1.
         21   -1    0    0  502  503 -0.00000000000E+00 -0.00000000000E+00 -0.71739813819E+03  0.71739813819E+03  0.00000000000E+00 0. -1.
          6    1    1    2  501    0 -0.73188936952E+02  0.69162856940E+02  0.68494388479E+03  0.71359459540E+03  0.17300000000E+03 0. -1.
         -6    1    1    2    0  503  0.73188936952E+02 -0.69162856940E+02 -0.68882492610E+03  0.71732063967E+03  0.17300000000E+03 0. -1.
<mgrwt>
<rscale>  2 0.20017273E+03</rscale>
<asrwt>0</asrwt>
<pdfrwt beam="1">  1       21 0.10977186E+00 0.20017273E+03</pdfrwt>
<pdfrwt beam="2">  1       21 0.11036894E+00 0.20017273E+03</pdfrwt>
<totfact> 0.42162578E+02</totfact>
</mgrwt>
</event>
<event>
 4    1  0.4050555E+000  0.2553476E+03  0.7546771E-02  0.1109971E+00
         21   -1    0    0  503  502  0.00000000000E+00  0.00000000000E+00  0.41857050347E+03  0.41857050347E+03  0.00000000000E+00 0. -1.
         21   -1    0    0  501  503 -0.00000000000E+00 -0.00000000000E+00 -0.27687587499E+03  0.27687587499E+03  0.00000000000E+00 0.  1.
          6    1    1    2  501    0 -0.20580253030E+02  0.18668118345E+03 -0.15912019916E+03  0.30086815859E+03  0.17300000000E+03 0.  1.
         -6    1    1    2    0  502  0.20580253030E+02 -0.18668118345E+03  0.30081482765E+03  0.39457821988E+03  0.17300000000E+03 0. -1.
<mgrwt>
<rscale>  2 0.25534763E+03</rscale>
<asrwt>0</asrwt>
<pdfrwt beam="1">  1       21 0.64395462E-01 0.25534763E+03</pdfrwt>
<pdfrwt beam="2">  1       21 0.42596289E-01 0.25534763E+03</pdfrwt>
<totfact> 0.11355627E+04</totfact>
</mgrwt>
</event>
<event>
 4    1  0.4050555E+000  0.2239853E+03  0.7546771E-02  0.1130946E+00
         21   -1    0    0  503  502  0.00000000000E+00  0.00000000000E+00  0.60287547774E+02  0.60287547774E+02  0.00000000000E+00 0.  1.
         21   -1    0    0  501  503 -0.00000000000E+00 -0.00000000000E+00 -0.10896217917E+04  0.10896217917E+04  0.00000000000E+00 0. -1.
          6    1    1    2  501    0 -0.88858253183E+02 -0.11110635714E+03 -0.79414327095E+03  0.82512601859E+03  0.17300000000E+03 0. -1.
         -6    1    1    2    0  502  0.88858253183E+02  0.11110635714E+03 -0.23519097296E+03  0.32478332087E+03  0.17300000000E+03 0.  1.
<mgrwt>
<rscale>  2 0.22398529E+03</rscale>
<asrwt>0</asrwt>
<pdfrwt beam="1">  1       21 0.92750077E-02 0.22398529E+03</pdfrwt>
<pdfrwt beam="2">  1       21 0.16763412E+00 0.22398529E+03</pdfrwt>
<totfact> 0.20117429E+04</totfact>
</mgrwt>
</event>
<event>
 4    1  0.4050555E+000  0.2070275E+03  0.7546771E-02  0.1143942E+00
         21   -1    0    0  503  502  0.00000000000E+00  0.00000000000E+00  0.53756507175E+03  0.53756507175E+03  0.00000000000E+00 0.  1.
         21   -1    0    0  501  503 -0.00000000000E+00 -0.00000000000E+00 -0.11560612165E+03  0.11560612165E+03  0.00000000000E+00 0.  1.
          6    1    1    2  501    0 -0.95556350876E+02  0.61647161366E+02  0.29048900898E+02  0.20905556042E+03  0.17300000000E+03 0.  1.
         -6    1    1    2    0  502  0.95556350876E+02 -0.61647161366E+02  0.39291004920E+03  0.44411563298E+03  0.17300000000E+03 0.  1.
<mgrwt>
<rscale>  2 0.20702751E+03</rscale>
<asrwt>0</asrwt>
<pdfrwt beam="1">  1       21 0.82702317E-01 0.20702751E+03</pdfrwt>
<pdfrwt beam="2">  1       21 0.17785558E-01 0.20702751E+03</pdfrwt>
<totfact> 0.36333062E+04</totfact>
</mgrwt>
</event>
<event>
 4    1  0.4050555E+000  0.1799176E+03  0.7546771E-02  0.1167883E+00
         21   -1    0    0  503  502  0.00000000000E+00  0.00000000000E+00  0.26867796235E+03  0.26867796235E+03  0.00000000000E+00 0.  1.
         21   -1    0    0  501  503 -0.00000000000E+00 -0.00000000000E+00 -0.13226933650E+03  0.13226933650E+03  0.00000000000E+00 0. -1.
          6    1    1    2  501    0 -0.29251843896E+01 -0.49323120219E+02  0.83532344757E+01  0.18011136393E+03  0.17300000000E+03 0.  1.
         -6    1    1    2    0  502  0.29251843896E+01  0.49323120219E+02  0.12805539137E+03  0.22083593492E+03  0.17300000000E+03 0. -1.
<mgrwt>
<rscale>  2 0.17991756E+03</rscale>
<asrwt>0</asrwt>
<pdfrwt beam="1">  1       21 0.41335071E-01 0.17991756E+03</pdfrwt>
<pdfrwt beam="2">  1       21 0.20349129E-01 0.17991756E+03</pdfrwt>
<totfact> 0.12651071E+05</totfact>
</mgrwt>
</event>
<event>
 4    1  0.4050555E+000  0.2032771E+03  0.7546771E-02  0.1147003E+00
         21   -1    0    0  503  502  0.00000000000E+00  0.00000000000E+00  0.12261405281E+03  0.12261405281E+03  0.00000000000E+00 0. -1.
         21   -1    0    0  501  503 -0.00000000000E+00 -0.00000000000E+00 -0.37587234707E+03  0.37587234707E+03  0.00000000000E+00 0. -1.
          6    1    1    2  501    0  0.14123584774E+00 -0.10673599190E+03 -0.20677731850E+03  0.28996284480E+03  0.17300000000E+03 0. -1.
         -6    1    1    2    0  502 -0.14123584774E+00  0.10673599190E+03 -0.46480975753E+02  0.20852355508E+03  0.17300000000E+03 0. -1.
<mgrwt>
<rscale>  2 0.20327713E+03</rscale>
<asrwt>0</asrwt>
<pdfrwt beam="1">  1       21 0.18863700E-01 0.20327713E+03</pdfrwt>
<pdfrwt beam="2">  1       21 0.57826515E-01 0.20327713E+03</pdfrwt>
<totfact> 0.71838537E+04</totfact>
</mgrwt>
</event>
<event>
 4    1  0.4050555E+000  0.2115010E+03  0.7546771E-02  0.1140383E+00
         21   -1    0    0  501  502  0.00000000000E+00  0.00000000000E+00  0.66252658875E+02  0.66252658875E+02  0.00000000000E+00 0. -1.
         21   -1    0    0  502  503 -0.00000000000E+00 -0.00000000000E+00 -0.10615801658E+04  0.10615801658E+04  0.00000000000E+00 0. -1.
          6    1    1    2  501    0 -0.33283241161E+02  0.11702942605E+03 -0.15744725302E+03  0.26367081406E+03  0.17300000000E+03 0. -1.
         -6    1    1    2    0  503  0.33283241161E+02 -0.11702942605E+03 -0.83788025390E+03  0.86416201061E+03  0.17300000000E+03 0. -1.
<mgrwt>
<rscale>  2 0.21150097E+03</rscale>
<asrwt>0</asrwt>
<pdfrwt beam="1">  1       21 0.10192716E-01 0.21150097E+03</pdfrwt>
<pdfrwt beam="2">  1       21 0.16332004E+00 0.21150097E+03</pdfrwt>
<totfact> 0.18436467E+04</totfact>
</mgrwt>
</event>
<event>
 4    1  0.4050555E+000  0.1857425E+03  0.7546771E-02  0.1162358E+00
         21   -1    0    0  501  502  0.00000000000E+00  0.00000000000E+00  0.12544016700E+03  0.12544016700E+03  0.00000000000E+00 0.  1.
         21   -1    0    0  502  503 -0.00000000000E+00 -0.00000000000E+00 -0.28173039177E+03  0.28173039177E+03  0.00000000000E+00 0.  1.
          6    1    1    2  501    0  0.64568327843E+02 -0.20055238358E+02 -0.46757553878E+02  0.19153733420E+03  0.17300000000E+03 0.  1.
         -6    1    1    2    0  503 -0.64568327843E+02  0.20055238358E+02 -0.10953267089E+03  0.21563322457E+03  0.17300000000E+03 0.  1.
<mgrwt>
<rscale>  2 0.18574251E+03</rscale>
<asrwt>0</asrwt>
<pdfrwt beam="1">  1       21 0.19298487E-01 0.18574251E+03</pdfrwt>
<pdfrwt beam="2">  1       21 0.43343137E-01 0.18574251E+03</pdfrwt>
<totfact> 0.12655217E+05</totfact>
</mgrwt>
</event>
<event>
 4    1  0.4050555E+000  0.1790259E+03  0.7546771E-02  0.1168749E+00
         21   -1    0    0  503  502  0.00000000000E+00  0.00000000000E+00  0.99763775702E+02  0.99763775702E+02  0.00000000000E+00 0.  1.
         21   -1    0    0  501  503 -0.00000000000E+00 -0.00000000000E+00 -0.66270273106E+03  0.66270273106E+03  0.00000000000E+00 0.  1.
          6    1    1    2  501    0  0.42622229897E+02 -0.17453475264E+02 -0.55511557697E+03  0.58326973355E+03  0.17300000000E+03 0.  1.
         -6    1    1    2    0  502 -0.42622229897E+02  0.17453475264E+02 -0.78233783879E+01  0.17919677321E+03  0.17300000000E+03 0.  1.
<mgrwt>
<rscale>  2 0.17902592E+03</rscale>
<asrwt>0</asrwt>
<pdfrwt beam="1">  1       21 0.15348274E-01 0.17902592E+03</pdfrwt>
<pdfrwt beam="2">  1       21 0.10195426E+00 0.17902592E+03</pdfrwt>
<totfact> 0.29723696E+04</totfact>
</mgrwt>
</event>
<event>
 4    1  0.4050555E+000  0.3561022E+03  0.7546771E-02  0.1060138E+00
         21   -1    0    0  501  502  0.00000000000E+00  0.00000000000E+00  0.14980217195E+04  0.14980217195E+04  0.00000000000E+00 0. -1.
         21   -1    0    0  502  503 -0.00000000000E+00 -0.00000000000E+00 -0.17773748018E+03  0.17773748018E+03  0.00000000000E+00 0.  1.
          6    1    1    2  501    0  0.25507229253E+03  0.17837564739E+03  0.12665095473E+04  0.13156196941E+04  0.17300000000E+03 0. -1.
         -6    1    1    2    0  503 -0.25507229253E+03 -0.17837564739E+03  0.53774691997E+02  0.36013950560E+03  0.17300000000E+03 0.  1.
<mgrwt>
<rscale>  2 0.35610216E+03</rscale>
<asrwt>0</asrwt>
<pdfrwt beam="1">  1       21 0.23046487E+00 0.35610216E+03</pdfrwt>
<pdfrwt beam="2">  1       21 0.27344229E-01 0.35610216E+03</pdfrwt>
<totfact> 0.96318459E+02</totfact>
</mgrwt>
</event>
<event>
 4    1  0.4050555E+000  0.1757983E+03  0.7546771E-02  0.1171933E+00
         21   -1    0    0  501  502  0.00000000000E+00  0.00000000000E+00  0.66284841089E+02  0.66284841089E+02  0.00000000000E+00 0. -1.
         21   -1    0    0  502  503 -0.00000000000E+00 -0.00000000000E+00 -0.51025547889E+03  0.51025547889E+03  0.00000000000E+00 0. -1.
          6    1    1    2  501    0 -0.51832504803E+01  0.30808636243E+02 -0.13732512640E+03  0.22307673230E+03  0.17300000000E+03 0. -1.
         -6    1    1    2    0  503  0.51832504803E+01 -0.30808636243E+02 -0.30664551141E+03  0.35346358768E+03  0.17300000000E+03 0. -1.
<mgrwt>
<rscale>  2 0.17579829E+03</rscale>
<asrwt>0</asrwt>
<pdfrwt beam="1">  1       21 0.10197668E-01 0.17579829E+03</pdfrwt>
<pdfrwt beam="2">  1       21 0.78500841E-01 0.17579829E+03</pdfrwt>
<totfact> 0.11323155E+05</totfact>
</mgrwt>
</event>
<event>
 4    1  0.4050555E+000  0.1758005E+03  0.7546771E-02  0.1171930E+00
         21   -1    0    0  501  502  0.00000000000E+00  0.00000000000E+00  0.25548344758E+03  0.25548344758E+03  0.00000000000E+00 0.  1.
         21   -1    0    0  502  503 -0.00000000000E+00 -0.00000000000E+00 -0.12207267354E+03  0.12207267354E+03  0.00000000000E+00 0.  1.
          6    1    1    2  501    0  0.46889676391E+01  0.30900235716E+02  0.48762907032E+02  0.18243802259E+03  0.17300000000E+03 0.  1.
         -6    1    1    2    0  503 -0.46889676391E+01 -0.30900235716E+02  0.84647867001E+02  0.19511809853E+03  0.17300000000E+03 0.  1.
<mgrwt>
<rscale>  2 0.17580049E+03</rscale>
<asrwt>0</asrwt>
<pdfrwt beam="1">  1       21 0.39305146E-01 0.17580049E+03</pdfrwt>
<pdfrwt beam="2">  1       21 0.18780411E-01 0.17580049E+03</pdfrwt>
<totfact> 0.16281268E+05</totfact>
</mgrwt>
</event>
<event>
 4    1  0.4050555E+000  0.2072668E+03  0.7546771E-02  0.1143749E+00
         21   -1    0    0  503  502  0.00000000000E+00  0.00000000000E+00  0.36205491679E+02  0.36205491679E+02  0.00000000000E+00 0.  1.
         21   -1    0    0  501  503 -0.00000000000E+00 -0.00000000000E+00 -0.11866841403E+04  0.11866841403E+04  0.00000000000E+00 0. -1.
          6    1    1    2  501    0  0.95793368462E+02  0.62081778906E+02 -0.56866564927E+03  0.60526038807E+03  0.17300000000E+03 0.  1.
         -6    1    1    2    0  502 -0.95793368462E+02 -0.62081778906E+02 -0.58181299938E+03  0.61762924393E+03  0.17300000000E+03 0.  1.
<mgrwt>
<rscale>  2 0.20726678E+03</rscale>
<asrwt>0</asrwt>
<pdfrwt beam="1">  1       21 0.55700756E-02 0.20726678E+03</pdfrwt>
<pdfrwt beam="2">  1       21 0.18256679E+00 0.20726678E+03</pdfrwt>
<totfact> 0.38770968E+04</totfact>
</mgrwt>
</event>
<event>
 4    1  0.4050555E+000  0.2825006E+03  0.7546771E-02  0.1094331E+00
         21   -1    0    0  501  502  0.00000000000E+00  0.00000000000E+00  0.33515820414E+03  0.33515820414E+03  0.00000000000E+00 0. -1.
         21   -1    0    0  502  503 -0.00000000000E+00 -0.00000000000E+00 -0.25372208278E+03  0.25372208278E+03  0.00000000000E+00 0.  1.
          6    1    1    2  501    0 -0.78905379782E+01  0.22319342406E+03  0.11374169107E+03  0.30453856475E+03  0.17300000000E+03 0. -1.
         -6    1    1    2    0  503  0.78905379782E+01 -0.22319342406E+03 -0.32305569700E+02  0.28434172217E+03  0.17300000000E+03 0.  1.
<mgrwt>
<rscale>  2 0.28250056E+03</rscale>
<asrwt>0</asrwt>
<pdfrwt beam="1">  1       21 0.51562800E-01 0.28250056E+03</pdfrwt>
<pdfrwt beam="2">  1       21 0.39034167E-01 0.28250056E+03</pdfrwt>
<totfact> 0.21612604E+04</totfact>
</mgrwt>
</event>
<event>
 4    1  0.4050555E+000  0.2181910E+03  0.7546771E-02  0.1135239E+00
         21   -1    0    0  501  502  0.00000000000E+00  0.00000000000E+00  0.79832044480E+03  0.79832044480E+03  0.00000000000E+00 0.  1.
         21   -1    0    0  502  503 -0.00000000000E+00 -0.00000000000E+00 -0.60325411164E+02  0.60325411164E+02  0.00000000000E+00 0. -1.
          6    1    1    2  501    0  0.12401020295E+03  0.47956119628E+02  0.41494826252E+03  0.46881700099E+03  0.17300000000E+03 0.  1.
         -6    1    1    2    0  503 -0.12401020295E+03 -0.47956119628E+02  0.32304677111E+03  0.38982885497E+03  0.17300000000E+03 0.  1.
<mgrwt>
<rscale>  2 0.21819102E+03</rscale>
<asrwt>0</asrwt>
<pdfrwt beam="1">  1       21 0.12281852E+00 0.21819102E+03</pdfrwt>
<pdfrwt beam="2">  1       21 0.92808331E-02 0.21819102E+03</pdfrwt>
<totfact> 0.45512446E+04</totfact>
</mgrwt>
</event>
<event>
 4    1  0.4050555E+000  0.1961691E+03  0.7546771E-02  0.1153012E+00
         21   -1    0    0  503  502  0.00000000000E+00  0.00000000000E+00  0.23101090361E+04  0.23101090361E+04  0.00000000000E+00 0. -1.
         21   -1    0    0  501  503 -0.00000000000E+00 -0.00000000000E+00 -0.19130745562E+02  0.19130745562E+02  0.00000000000E+00 0. -1.
          6    1    1    2  501    0 -0.31880949931E+02 -0.86815471203E+02  0.72680354483E+03  0.75281187144E+03  0.17300000000E+03 0. -1.
         -6    1    1    2    0  502  0.31880949931E+02  0.86815471203E+02  0.15641747457E+04  0.15764279102E+04  0.17300000000E+03 0. -1.
<mgrwt>
<rscale>  2 0.19616911E+03</rscale>
<asrwt>0</asrwt>
<pdfrwt beam="1">  1       21 0.35540117E+00 0.19616911E+03</pdfrwt>
<pdfrwt beam="2">  1       21 0.29431934E-02 0.19616911E+03</pdfrwt>
<totfact> 0.10565697E+04</totfact>
</mgrwt>
</event>
<event>
 4    1  0.4050555E+000  0.2108216E+03  0.7546771E-02  0.1140917E+00
         21   -1    0    0  501  502  0.00000000000E+00  0.00000000000E+00  0.63669086030E+02  0.63669086030E+02  0.00000000000E+00 0. -1.
         21   -1    0    0  502  503 -0.00000000000E+00 -0.00000000000E+00 -0.80433036217E+03  0.80433036217E+03  0.00000000000E+00 0. -1.
          6    1    1    2  501    0 -0.65613099975E+02  0.10105269617E+03 -0.21258769953E+03  0.29939815678E+03  0.17300000000E+03 0. -1.
         -6    1    1    2    0  503  0.65613099975E+02 -0.10105269617E+03 -0.52807357661E+03  0.56860129142E+03  0.17300000000E+03 0. -1.
<mgrwt>
<rscale>  2 0.21082155E+03</rscale>
<asrwt>0</asrwt>
<pdfrwt beam="1">  1       21 0.97952440E-02 0.21082155E+03</pdfrwt>
<pdfrwt beam="2">  1       21 0.12374313E+00 0.21082155E+03</pdfrwt>
<totfact> 0.40764243E+04</totfact>
</mgrwt>
</event>
<event>
 4    1  0.4050555E+000  0.1833761E+03  0.7546771E-02  0.1164575E+00
         21   -1    0    0  503  502  0.00000000000E+00  0.00000000000E+00  0.86074065131E+02  0.86074065131E+02  0.00000000000E+00 0.  1.
         21   -1    0    0  501  503 -0.00000000000E+00 -0.00000000000E+00 -0.63667224625E+03  0.63667224625E+03  0.00000000000E+00 0.  1.
          6    1    1    2  501    0 -0.60799003918E+02  0.11334320826E+01 -0.49992762138E+03  0.53249829123E+03  0.17300000000E+03 0.  1.
         -6    1    1    2    0  502  0.60799003918E+02 -0.11334320826E+01 -0.50670559735E+02  0.19024802015E+03  0.17300000000E+03 0.  1.
<mgrwt>
<rscale>  2 0.18337613E+03</rscale>
<asrwt>0</asrwt>
<pdfrwt beam="1">  1       21 0.13242163E-01 0.18337613E+03</pdfrwt>
<pdfrwt beam="2">  1       21 0.97949581E-01 0.18337613E+03</pdfrwt>
<totfact> 0.42593642E+04</totfact>
</mgrwt>
</event>
<event>
 4    1  0.4050555E+000  0.1851426E+03  0.7546771E-02  0.1162917E+00
         21   -1    0    0  501  502  0.00000000000E+00  0.00000000000E+00  0.38089475741E+03  0.38089475741E+03  0.00000000000E+00 0. -1.
         21   -1    0    0  502  503 -0.00000000000E+00 -0.00000000000E+00 -0.12024932483E+03  0.12024932483E+03  0.00000000000E+00 0. -1.
          6    1    1    2  501    0  0.65339312770E+02 -0.89200076147E+01  0.25601270447E+03  0.31594350314E+03  0.17300000000E+03 0. -1.
         -6    1    1    2    0  503 -0.65339312770E+02  0.89200076147E+01  0.46327281198E+01  0.18520057910E+03  0.17300000000E+03 0. -1.
<mgrwt>
<rscale>  2 0.18514263E+03</rscale>
<asrwt>0</asrwt>
<pdfrwt beam="1">  1       21 0.58599193E-01 0.18514263E+03</pdfrwt>
<pdfrwt beam="2">  1       21 0.18499896E-01 0.18514263E+03</pdfrwt>
<totfact> 0.72974340E+04</totfact>
</mgrwt>
</event>
<event>
 4    1  0.4050555E+000  0.2607484E+03  0.7546771E-02  0.1106694E+00
         21   -1    0    0  503  502  0.00000000000E+00  0.00000000000E+00  0.92132260808E+03  0.92132260808E+03  0.00000000000E+00 0. -1.
         21   -1    0    0  501  503 -0.00000000000E+00 -0.00000000000E+00 -0.74843354387E+02  0.74843354387E+02  0.00000000000E+00 0. -1.
          6    1    1    2  501    0 -0.11356086884E+03  0.15863377059E+03  0.36431291534E+03  0.44801076369E+03  0.17300000000E+03 0. -1.
         -6    1    1    2    0  502  0.11356086884E+03 -0.15863377059E+03  0.48216633835E+03  0.54815519877E+03  0.17300000000E+03 0. -1.
<mgrwt>
<rscale>  2 0.26074843E+03</rscale>
<asrwt>0</asrwt>
<pdfrwt beam="1">  1       21 0.14174193E+00 0.26074843E+03</pdfrwt>
<pdfrwt beam="2">  1       21 0.11514363E-01 0.26074843E+03</pdfrwt>
<totfact> 0.21042598E+04</totfact>
</mgrwt>
</event>
<event>
 4    1  0.4050555E+000  0.2207595E+03  0.7546771E-02  0.1133318E+00
         21   -1    0    0  503  502  0.00000000000E+00  0.00000000000E+00  0.20397021456E+03  0.20397021456E+03  0.00000000000E+00 0. -1.
         21   -1    0    0  501  503 -0.00000000000E+00 -0.00000000000E+00 -0.25703344265E+03  0.25703344265E+03  0.00000000000E+00 0.  1.
          6    1    1    2  501    0 -0.12400192834E+03 -0.58560023373E+02 -0.87703412897E+02  0.23754292918E+03  0.17300000000E+03 0.  1.
         -6    1    1    2    0  502  0.12400192834E+03  0.58560023373E+02  0.34640184802E+02  0.22346072803E+03  0.17300000000E+03 0. -1.
<mgrwt>
<rscale>  2 0.22075949E+03</rscale>
<asrwt>0</asrwt>
<pdfrwt beam="1">  1       21 0.31380033E-01 0.22075949E+03</pdfrwt>
<pdfrwt beam="2">  1       21 0.39543607E-01 0.22075949E+03</pdfrwt>
<totfact> 0.59406152E+04</totfact>
</mgrwt>
</event>
<event>
 4    1  0.4050555E+000  0.2233315E+03  0.7546771E-02  0.1131423E+00
         21   -1    0    0  501  502  0.00000000000E+00  0.00000000000E+00  0.48847722252E+03  0.48847722252E+03  0.00000000000E+00 0.  1.
         21   -1    0    0  502  503 -0.00000000000E+00 -0.00000000000E+00 -0.18607569781E+03  0.18607569781E+03  0.00000000000E+00 0.  1.
          6    1    1    2  501    0 -0.64043488489E+01  0.14109198427E+03  0.37776940688E+03  0.43884699895E+03  0.17300000000E+03 0.  1.
         -6    1    1    2    0  503  0.64043488489E+01 -0.14109198427E+03 -0.75367882174E+02  0.23570592138E+03  0.17300000000E+03 0.  1.
<mgrwt>
<rscale>  2 0.22333151E+03</rscale>
<asrwt>0</asrwt>
<pdfrwt beam="1">  1       21 0.75150341E-01 0.22333151E+03</pdfrwt>
<pdfrwt beam="2">  1       21 0.28627031E-01 0.22333151E+03</pdfrwt>
<totfact> 0.18140434E+04</totfact>
</mgrwt>
</event>
<event>
 4    1  0.4050555E+000  0.2013035E+03  0.7546771E-02  0.1148644E+00
         21   -1    0    0  503  502  0.00000000000E+00  0.00000000000E+00  0.48645936102E+03  0.48645936102E+03  0.00000000000E+00 0. -1.
         21   -1    0    0  501  503 -0.00000000000E+00 -0.00000000000E+00 -0.10813105043E+03  0.10813105043E+03  0.00000000000E+00 0. -1.
          6    1    1    2  501    0 -0.44347269485E+02  0.92883856525E+02  0.46704532679E+02  0.20665044032E+03  0.17300000000E+03 0. -1.
         -6    1    1    2    0  502  0.44347269485E+02 -0.92883856525E+02  0.33162377791E+03  0.38793997112E+03  0.17300000000E+03 0. -1.
<mgrwt>
<rscale>  2 0.20130348E+03</rscale>
<asrwt>0</asrwt>
<pdfrwt beam="1">  1       21 0.74839900E-01 0.20130348E+03</pdfrwt>
<pdfrwt beam="2">  1       21 0.16635546E-01 0.20130348E+03</pdfrwt>
<totfact> 0.51642227E+04</totfact>
</mgrwt>
</event>
<event>
 4    1  0.4050555E+000  0.1940348E+03  0.7546771E-02  0.1154872E+00
         21   -1    0    0  501  502  0.00000000000E+00  0.00000000000E+00  0.14865314310E+03  0.14865314310E+03  0.00000000000E+00 0.  1.
         21   -1    0    0  502  503 -0.00000000000E+00 -0.00000000000E+00 -0.26010913492E+03  0.26010913492E+03  0.00000000000E+00 0.  1.
          6    1    1    2  501    0 -0.82010423336E+02  0.31540206594E+02 -0.22588984853E+02  0.19534522365E+03  0.17300000000E+03 0.  1.
         -6    1    1    2    0  503  0.82010423336E+02 -0.31540206594E+02 -0.88867006968E+02  0.21341705437E+03  0.17300000000E+03 0.  1.
<mgrwt>
<rscale>  2 0.19403478E+03</rscale>
<asrwt>0</asrwt>
<pdfrwt beam="1">  1       21 0.22869715E-01 0.19403478E+03</pdfrwt>
<pdfrwt beam="2">  1       21 0.40016789E-01 0.19403478E+03</pdfrwt>
<totfact> 0.10792064E+05</totfact>
</mgrwt>
</event>
<event>
 4    1  0.4050555E+000  0.1871008E+03  0.7546771E-02  0.1161102E+00
         21   -1    0    0  503  502  0.00000000000E+00  0.00000000000E+00  0.44996574273E+02  0.44996574273E+02  0.00000000000E+00 0.  1.
         21   -1    0    0  501  503 -0.00000000000E+00 -0.00000000000E+00 -0.10642282338E+04  0.10642282338E+04  0.00000000000E+00 0.  1.
          6    1    1    2  501    0  0.70896746032E+02  0.71676315389E+01 -0.79724884303E+03  0.81890929977E+03  0.17300000000E+03 0.  1.
         -6    1    1    2    0  502 -0.70896746032E+02 -0.71676315389E+01 -0.22198281650E+03  0.29031550830E+03  0.17300000000E+03 0.  1.
<mgrwt>
<rscale>  2 0.18710084E+03</rscale>
<asrwt>0</asrwt>
<pdfrwt beam="1">  1       21 0.69225501E-02 0.18710084E+03</pdfrwt>
<pdfrwt beam="2">  1       21 0.16372742E+00 0.18710084E+03</pdfrwt>
<totfact> 0.36590935E+04</totfact>
</mgrwt>
</event>
<event>
 4    1  0.4050555E+000  0.2714316E+03  0.7546771E-02  0.1100463E+00
         21   -1    0    0  503  502  0.00000000000E+00  0.00000000000E+00  0.59887696124E+03  0.59887696124E+03  0.00000000000E+00 0.  1.
         21   -1    0    0  501  503 -0.00000000000E+00 -0.00000000000E+00 -0.13208512081E+03  0.13208512081E+03  0.00000000000E+00 0.  1.
          6    1    1    2  501    0  0.19555725289E+03  0.74185350731E+02  0.32913168975E+03  0.42661783204E+03  0.17300000000E+03 0.  1.
         -6    1    1    2    0  502 -0.19555725289E+03 -0.74185350731E+02  0.13766015069E+03  0.30434425000E+03  0.17300000000E+03 0.  1.
<mgrwt>
<rscale>  2 0.27143159E+03</rscale>
<asrwt>0</asrwt>
<pdfrwt beam="1">  1       21 0.92134915E-01 0.27143159E+03</pdfrwt>
<pdfrwt beam="2">  1       21 0.20320788E-01 0.27143159E+03</pdfrwt>
<totfact> 0.21385737E+04</totfact>
</mgrwt>
</event>
<event>
 4    1  0.4050555E+000  0.2064959E+03  0.7546771E-02  0.1144371E+00
         21   -1    0    0  503  502  0.00000000000E+00  0.00000000000E+00  0.25358975487E+03  0.25358975487E+03  0.00000000000E+00 0.  1.
         21   -1    0    0  501  503 -0.00000000000E+00 -0.00000000000E+00 -0.26689188391E+03  0.26689188391E+03  0.00000000000E+00 0.  1.
          6    1    1    2  501    0  0.11273277291E+03 -0.16968167666E+01 -0.16494464218E+03  0.26428638304E+03  0.17300000000E+03 0.  1.
         -6    1    1    2    0  502 -0.11273277291E+03  0.16968167666E+01  0.15164251313E+03  0.25619525574E+03  0.17300000000E+03 0.  1.
<mgrwt>
<rscale>  2 0.20649590E+03</rscale>
<asrwt>0</asrwt>
<pdfrwt beam="1">  1       21 0.39013809E-01 0.20649590E+03</pdfrwt>
<pdfrwt beam="2">  1       21 0.41060290E-01 0.20649590E+03</pdfrwt>
<totfact> 0.35925679E+04</totfact>
</mgrwt>
</event>
<event>
 4    1  0.4050555E+000  0.1913267E+03  0.7546771E-02  0.1157270E+00
         21   -1    0    0  503  502  0.00000000000E+00  0.00000000000E+00  0.10696780026E+04  0.10696780026E+04  0.00000000000E+00 0.  1.
         21   -1    0    0  501  503 -0.00000000000E+00 -0.00000000000E+00 -0.62608023079E+02  0.62608023079E+02  0.00000000000E+00 0. -1.
          6    1    1    2  501    0 -0.40941413720E+02 -0.70715587034E+02  0.12232180215E+03  0.22708702492E+03  0.17300000000E+03 0. -1.
         -6    1    1    2    0  502  0.40941413720E+02  0.70715587034E+02  0.88474817734E+03  0.90519900073E+03  0.17300000000E+03 0.  1.
<mgrwt>
<rscale>  2 0.19132667E+03</rscale>
<asrwt>0</asrwt>
<pdfrwt beam="1">  1       21 0.16456583E+00 0.19132667E+03</pdfrwt>
<pdfrwt beam="2">  1       21 0.96320043E-02 0.19132667E+03</pdfrwt>
<totfact> 0.20237933E+04</totfact>
</mgrwt>
</event>
<event>
 4    1  0.4050555E+000  0.1912498E+03  0.7546771E-02  0.1157339E+00
         21   -1    0    0  501  502  0.00000000000E+00  0.00000000000E+00  0.10318588040E+03  0.10318588040E+03  0.00000000000E+00 0. -1.
         21   -1    0    0  502  503 -0.00000000000E+00 -0.00000000000E+00 -0.35447193945E+03  0.35447193945E+03  0.00000000000E+00 0. -1.
          6    1    1    2  501    0  0.76859753528E+02  0.27204327619E+02 -0.12558958458E+03  0.22879956492E+03  0.17300000000E+03 0. -1.
         -6    1    1    2    0  503 -0.76859753528E+02 -0.27204327619E+02 -0.12569647447E+03  0.22885825492E+03  0.17300000000E+03 0. -1.
<mgrwt>
<rscale>  2 0.19124983E+03</rscale>
<asrwt>0</asrwt>
<pdfrwt beam="1">  1       21 0.15874751E-01 0.19124983E+03</pdfrwt>
<pdfrwt beam="2">  1       21 0.54534144E-01 0.19124983E+03</pdfrwt>
<totfact> 0.11239973E+05</totfact>
</mgrwt>
</event>
<event>
 4    1  0.4050555E+000  0.2509492E+03  0.7546771E-02  0.1112706E+00
         21   -1    0    0  503  502  0.00000000000E+00  0.00000000000E+00  0.72883976642E+02  0.72883976642E+02  0.00000000000E+00 0.  1.
         21   -1    0    0  501  503 -0.00000000000E+00 -0.00000000000E+00 -0.86504120421E+03  0.86504120421E+03  0.00000000000E+00 0.  1.
          6    1    1    2  501    0  0.17088661614E+03 -0.62002314623E+02 -0.41193968893E+03  0.48235861132E+03  0.17300000000E+03 0.  1.
         -6    1    1    2    0  502 -0.17088661614E+03  0.62002314623E+02 -0.38021753864E+03  0.45556656954E+03  0.17300000000E+03 0.  1.
<mgrwt>
<rscale>  2 0.25094924E+03</rscale>
<asrwt>0</asrwt>
<pdfrwt beam="1">  1       21 0.11212920E-01 0.25094924E+03</pdfrwt>
<pdfrwt beam="2">  1       21 0.13308326E+00 0.25094924E+03</pdfrwt>
<totfact> 0.26110850E+04</totfact>
</mgrwt>
</event>
<event>
 4    1  0.4050555E+000  0.2183482E+03  0.7546771E-02  0.1135121E+00
         21   -1    0    0  503  502  0.00000000000E+00  0.00000000000E+00  0.65544530910E+03  0.65544530910E+03  0.00000000000E+00 0. -1.
         21   -1    0    0  501  503 -0.00000000000E+00 -0.00000000000E+00 -0.78430585722E+02  0.78430585722E+02  0.00000000000E+00 0. -1.
          6    1    1    2  501    0  0.11967148867E+03 -0.58529390844E+02  0.18965328895E+03  0.28921328601E+03  0.17300000000E+03 0. -1.
         -6    1    1    2    0  502 -0.11967148867E+03  0.58529390844E+02  0.38736143443E+03  0.44466260881E+03  0.17300000000E+03 0. -1.
<mgrwt>
<rscale>  2 0.21834824E+03</rscale>
<asrwt>0</asrwt>
<pdfrwt beam="1">  1       21 0.10083774E+00 0.21834824E+03</pdfrwt>
<pdfrwt beam="2">  1       21 0.12066244E-01 0.21834824E+03</pdfrwt>
<totfact> 0.46157383E+04</totfact>
</mgrwt>
</event>
<event>
 4    1  0.4050555E+000  0.2010880E+03  0.7546771E-02  0.1148824E+00
         21   -1    0    0  501  502  0.00000000000E+00  0.00000000000E+00  0.42597702532E+02  0.42597702532E+02  0.00000000000E+00 0.  1.
         21   -1    0    0  502  503 -0.00000000000E+00 -0.00000000000E+00 -0.25927802779E+04  0.25927802779E+04  0.00000000000E+00 0.  1.
          6    1    1    2  501    0 -0.92623375648E+02  0.43912276044E+02 -0.22599020024E+03  0.30250280711E+03  0.17300000000E+03 0.  1.
         -6    1    1    2    0  503  0.92623375648E+02 -0.43912276044E+02 -0.23241923751E+04  0.23328751733E+04  0.17300000000E+03 0.  1.
<mgrwt>
<rscale>  2 0.20108798E+03</rscale>
<asrwt>0</asrwt>
<pdfrwt beam="1">  1       21 0.65534925E-02 0.20108798E+03</pdfrwt>
<pdfrwt beam="2">  1       21 0.39888929E+00 0.20108798E+03</pdfrwt>
<totfact> 0.14817202E+03</totfact>
</mgrwt>
</event>
<event>
 4    1  0.4050555E+000  0.1910575E+03  0.7546771E-02  0.1157511E+00
         21   -1    0    0  501  502  0.00000000000E+00  0.00000000000E+00  0.97019984455E+02  0.97019984455E+02  0.00000000000E+00 0.  1.
         21   -1    0    0  502  503 -0.00000000000E+00 -0.00000000000E+00 -0.40157607346E+03  0.40157607346E+03  0.00000000000E+00 0. -1.
          6    1    1    2  501    0 -0.14246113542E+02 -0.79818540331E+02 -0.89661205317E+02  0.21104995350E+03  0.17300000000E+03 0.  1.
         -6    1    1    2    0  503  0.14246113542E+02  0.79818540331E+02 -0.21489488369E+03  0.28754610442E+03  0.17300000000E+03 0. -1.
<mgrwt>
<rscale>  2 0.19105746E+03</rscale>
<asrwt>0</asrwt>
<pdfrwt beam="1">  1       21 0.14926152E-01 0.19105746E+03</pdfrwt>
<pdfrwt beam="2">  1       21 0.61780933E-01 0.19105746E+03</pdfrwt>
<totfact> 0.96370551E+04</totfact>
</mgrwt>
</event>
<event>
 4    1  0.4050555E+000  0.2084634E+03  0.7546771E-02  0.1142789E+00
         21   -1    0    0  501  502  0.00000000000E+00  0.00000000000E+00  0.53692146903E+03  0.53692146903E+03  0.00000000000E+00 0. -1.
         21   -1    0    0  502  503 -0.00000000000E+00 -0.00000000000E+00 -0.86206839274E+02  0.86206839274E+02  0.00000000000E+00 0. -1.
          6    1    1    2  501    0 -0.24465204604E+02 -0.11370773884E+03  0.30238755504E+03  0.36728085922E+03  0.17300000000E+03 0. -1.
         -6    1    1    2    0  503  0.24465204604E+02  0.11370773884E+03  0.14832707471E+03  0.25584744908E+03  0.17300000000E+03 0. -1.
<mgrwt>
<rscale>  2 0.20846342E+03</rscale>
<asrwt>0</asrwt>
<pdfrwt beam="1">  1       21 0.82603301E-01 0.20846342E+03</pdfrwt>
<pdfrwt beam="2">  1       21 0.13262591E-01 0.20846342E+03</pdfrwt>
<totfact> 0.62247236E+04</totfact>
</mgrwt>
</event>
<event>
 4    1  0.4050555E+000  0.2068326E+03  0.7546771E-02  0.1144099E+00
         21   -1    0    0  503  502  0.00000000000E+00  0.00000000000E+00  0.16567885955E+03  0.16567885955E+03  0.00000000000E+00 0.  1.
         21   -1    0    0  501  503 -0.00000000000E+00 -0.00000000000E+00 -0.39669730011E+03  0.39669730011E+03  0.00000000000E+00 0.  1.
          6    1    1    2  501    0  0.10310756590E+03 -0.47111958048E+02 -0.28164931347E+03  0.34943675038E+03  0.17300000000E+03 0.  1.
         -6    1    1    2    0  502 -0.10310756590E+03  0.47111958048E+02  0.50630872912E+02  0.21293940929E+03  0.17300000000E+03 0.  1.
<mgrwt>
<rscale>  2 0.20683256E+03</rscale>
<asrwt>0</asrwt>
<pdfrwt beam="1">  1       21 0.25489056E-01 0.20683256E+03</pdfrwt>
<pdfrwt beam="2">  1       21 0.61030353E-01 0.20683256E+03</pdfrwt>
<totfact> 0.36190123E+04</totfact>
</mgrwt>
</event>
<event>
 4    1  0.4050555E+000  0.2347928E+03  0.7546771E-02  0.1123311E+00
         21   -1    0    0  503  502  0.00000000000E+00  0.00000000000E+00  0.67635569387E+03  0.67635569387E+03  0.00000000000E+00 0.  1.
         21   -1    0    0  501  503 -0.00000000000E+00 -0.00000000000E+00 -0.29485123804E+03  0.29485123804E+03  0.00000000000E+00 0. -1.
          6    1    1    2  501    0 -0.15589945652E+03  0.29899925706E+02 -0.22231512880E+03  0.32334449522E+03  0.17300000000E+03 0. -1.
         -6    1    1    2    0  502  0.15589945652E+03 -0.29899925706E+02  0.60381958463E+03  0.64786243669E+03  0.17300000000E+03 0.  1.
<mgrwt>
<rscale>  2 0.23479277E+03</rscale>
<asrwt>0</asrwt>
<pdfrwt beam="1">  1       21 0.10405472E+00 0.23479277E+03</pdfrwt>
<pdfrwt beam="2">  1       21 0.45361729E-01 0.23479277E+03</pdfrwt>
<totfact> 0.33666281E+03</totfact>
</mgrwt>
</event>
<event>
 4    1  0.4050555E+000  0.2702598E+03  0.7546771E-02  0.1101131E+00
         21   -1    0    0  503  502  0.00000000000E+00  0.00000000000E+00  0.10275004044E+04  0.10275004044E+04  0.00000000000E+00 0.  1.
         21   -1    0    0  501  503 -0.00000000000E+00 -0.00000000000E+00 -0.10611273050E+03  0.10611273050E+03  0.00000000000E+00 0. -1.
          6    1    1    2  501    0 -0.19688227905E+03 -0.65944929190E+02  0.13504156205E+03  0.30212015651E+03  0.17300000000E+03 0. -1.
         -6    1    1    2    0  502  0.19688227905E+03  0.65944929190E+02  0.78634611181E+03  0.83149297836E+03  0.17300000000E+03 0.  1.
<mgrwt>
<rscale>  2 0.27025981E+03</rscale>
<asrwt>0</asrwt>
<pdfrwt beam="1">  1       21 0.15807698E+00 0.27025981E+03</pdfrwt>
<pdfrwt beam="2">  1       21 0.16325036E-01 0.27025981E+03</pdfrwt>
<totfact> 0.82870660E+03</totfact>
</mgrwt>
</event>
<event>
 4    1  0.4050555E+000  0.2175612E+03  0.7546771E-02  0.1135714E+00
         21   -1    0    0  501  502  0.00000000000E+00  0.00000000000E+00  0.31780358884E+03  0.31780358884E+03  0.00000000000E+00 0.  1.
         21   -1    0    0  502  503 -0.00000000000E+00 -0.00000000000E+00 -0.20300079316E+03  0.20300079316E+03  0.00000000000E+00 0. -1.
          6    1    1    2  501    0 -0.77405904325E+02 -0.10682794020E+03  0.19178518563E+03  0.29002489593E+03  0.17300000000E+03 0. -1.
         -6    1    1    2    0  503  0.77405904325E+02  0.10682794020E+03 -0.76982389941E+02  0.23077948608E+03  0.17300000000E+03 0. -1.
<mgrwt>
<rscale>  2 0.21756122E+03</rscale>
<asrwt>0</asrwt>
<pdfrwt beam="1">  1       21 0.48892860E-01 0.21756122E+03</pdfrwt>
<pdfrwt beam="2">  1       21 0.31230891E-01 0.21756122E+03</pdfrwt>
<totfact> 0.38835363E+04</totfact>
</mgrwt>
</event>
<event>
 4    1  0.4050555E+000  0.2007555E+03  0.7546771E-02  0.1149103E+00
         21   -1    0    0  501  502  0.00000000000E+00  0.00000000000E+00  0.41130793085E+02  0.41130793085E+02  0.00000000000E+00 0. -1.
         21   -1    0    0  502  503 -0.00000000000E+00 -0.00000000000E+00 -0.16393527972E+04  0.16393527972E+04  0.00000000000E+00 0. -1.
          6    1    1    2  501    0  0.91365499956E+02  0.45012236450E+02 -0.26618072160E+03  0.33339905903E+03  0.17300000000E+03 0. -1.
         -6    1    1    2    0  503 -0.91365499956E+02 -0.45012236450E+02 -0.13320412826E+04  0.13470845313E+04  0.17300000000E+03 0. -1.
<mgrwt>
<rscale>  2 0.20075546E+03</rscale>
<asrwt>0</asrwt>
<pdfrwt beam="1">  1       21 0.63278140E-02 0.20075546E+03</pdfrwt>
<pdfrwt beam="2">  1       21 0.25220814E+00 0.20075546E+03</pdfrwt>
<totfact> 0.11528371E+04</totfact>
</mgrwt>
</event>
<event>
 4    1  0.4050555E+000  0.2088681E+03  0.7546771E-02  0.1142465E+00
         21   -1    0    0  501  502  0.00000000000E+00  0.00000000000E+00  0.47003538431E+02  0.47003538431E+02  0.00000000000E+00 0.  1.
         21   -1    0    0  502  503 -0.00000000000E+00 -0.00000000000E+00 -0.93342482884E+03  0.93342482884E+03  0.00000000000E+00 0. -1.
          6    1    1    2  501    0  0.10457161076E+03  0.52551672954E+02 -0.40632730588E+03  0.45686735451E+03  0.17300000000E+03 0. -1.
         -6    1    1    2    0  503 -0.10457161076E+03 -0.52551672954E+02 -0.48009398453E+03  0.52356101277E+03  0.17300000000E+03 0. -1.
<mgrwt>
<rscale>  2 0.20886814E+03</rscale>
<asrwt>0</asrwt>
<pdfrwt beam="1">  1       21 0.72313138E-02 0.20886814E+03</pdfrwt>
<pdfrwt beam="2">  1       21 0.14360382E+00 0.20886814E+03</pdfrwt>
<totfact> 0.47471976E+04</totfact>
</mgrwt>
</event>
<event>
 4    1  0.4050555E+000  0.1927852E+03  0.7546771E-02  0.1155973E+00
         21   -1    0    0  501  502  0.00000000000E+00  0.00000000000E+00  0.11616764420E+03  0.11616764420E+03  0.00000000000E+00 0.  1.
         21   -1    0    0  502  503 -0.00000000000E+00 -0.00000000000E+00 -0.60729341175E+03  0.60729341175E+03  0.00000000000E+00 0.  1.
          6    1    1    2  501    0  0.47839161046E+02 -0.70345951265E+02  0.32641459547E+01  0.19281284407E+03  0.17300000000E+03 0.  1.
         -6    1    1    2    0  503 -0.47839161046E+02  0.70345951265E+02 -0.49438991351E+03  0.53064821188E+03  0.17300000000E+03 0.  1.
<mgrwt>
<rscale>  2 0.19278521E+03</rscale>
<asrwt>0</asrwt>
<pdfrwt beam="1">  1       21 0.17871946E-01 0.19278521E+03</pdfrwt>
<pdfrwt beam="2">  1       21 0.93429753E-01 0.19278521E+03</pdfrwt>
<totfact> 0.27399687E+04</totfact>
</mgrwt>
</event>
<event>
 4    1  0.4050555E+000  0.1863695E+03  0.7546771E-02  0.1161777E+00
         21   -1    0    0  501  502  0.00000000000E+00  0.00000000000E+00  0.34879140037E+03  0.34879140037E+03  0.00000000000E+00 0.  1.
         21   -1    0    0  502  503 -0.00000000000E+00 -0.00000000000E+00 -0.99764037813E+02  0.99764037813E+02  0.00000000000E+00 0. -1.
          6    1    1    2  501    0 -0.27003469468E+02 -0.63838964249E+02  0.13407470493E+03  0.22958577312E+03  0.17300000000E+03 0.  1.
         -6    1    1    2    0  503  0.27003469468E+02  0.63838964249E+02  0.11495265763E+03  0.21896966506E+03  0.17300000000E+03 0. -1.
<mgrwt>
<rscale>  2 0.18636953E+03</rscale>
<asrwt>0</asrwt>
<pdfrwt beam="1">  1       21 0.53660215E-01 0.18636953E+03</pdfrwt>
<pdfrwt beam="2">  1       21 0.15348314E-01 0.18636953E+03</pdfrwt>
<totfact> 0.12389213E+05</totfact>
</mgrwt>
</event>
<event>
 4    1  0.4050555E+000  0.2187472E+03  0.7546771E-02  0.1134821E+00
         21   -1    0    0  501  502  0.00000000000E+00  0.00000000000E+00  0.65756710137E+03  0.65756710137E+03  0.00000000000E+00 0.  1.
         21   -1    0    0  502  503 -0.00000000000E+00 -0.00000000000E+00 -0.10790882803E+03  0.10790882803E+03  0.00000000000E+00 0.  1.
          6    1    1    2  501    0  0.10249218500E+03  0.86120224990E+02  0.49324006649E+03  0.53957029600E+03  0.17300000000E+03 0.  1.
         -6    1    1    2    0  503 -0.10249218500E+03 -0.86120224990E+02  0.56418206845E+02  0.22590563340E+03  0.17300000000E+03 0.  1.
<mgrwt>
<rscale>  2 0.21874721E+03</rscale>
<asrwt>0</asrwt>
<pdfrwt beam="1">  1       21 0.10116417E+00 0.21874721E+03</pdfrwt>
<pdfrwt beam="2">  1       21 0.16601359E-01 0.21874721E+03</pdfrwt>
<totfact> 0.25637818E+04</totfact>
</mgrwt>
</event>
<event>
 4    1  0.4050555E+000  0.1935895E+03  0.7546771E-02  0.1155263E+00
         21   -1    0    0  501  502  0.00000000000E+00  0.00000000000E+00  0.91452739158E+02  0.91452739158E+02  0.00000000000E+00 0.  1.
         21   -1    0    0  502  503 -0.00000000000E+00 -0.00000000000E+00 -0.66378999014E+03  0.66378999014E+03  0.00000000000E+00 0.  1.
          6    1    1    2  501    0  0.68438497655E+02 -0.53516890198E+02 -0.52578926369E+02  0.20060266448E+03  0.17300000000E+03 0.  1.
         -6    1    1    2    0  503 -0.68438497655E+02  0.53516890198E+02 -0.51975832461E+03  0.55464006482E+03  0.17300000000E+03 0.  1.
<mgrwt>
<rscale>  2 0.19358948E+03</rscale>
<asrwt>0</asrwt>
<pdfrwt beam="1">  1       21 0.14069652E-01 0.19358948E+03</pdfrwt>
<pdfrwt beam="2">  1       21 0.10212154E+00 0.19358948E+03</pdfrwt>
<totfact> 0.34395540E+04</totfact>
</mgrwt>
</event>
<event>
 4    1  0.4050555E+000  0.2744928E+03  0.7546771E-02  0.1098735E+00
         21   -1    0    0  503  502  0.00000000000E+00  0.00000000000E+00  0.57917885060E+03  0.57917885060E+03  0.00000000000E+00 0.  1.
         21   -1    0    0  501  503 -0.00000000000E+00 -0.00000000000E+00 -0.13726883135E+03  0.13726883135E+03  0.00000000000E+00 0.  1.
          6    1    1    2  501    0 -0.35950072027E+01 -0.21308297987E+03  0.13904288501E+03  0.30769986068E+03  0.17300000000E+03 0.  1.
         -6    1    1    2    0  502  0.35950072027E+01  0.21308297987E+03  0.30286713425E+03  0.40874782127E+03  0.17300000000E+03 0.  1.
<mgrwt>
<rscale>  2 0.27449277E+03</rscale>
<asrwt>0</asrwt>
<pdfrwt beam="1">  1       21 0.89104438E-01 0.27449277E+03</pdfrwt>
<pdfrwt beam="2">  1       21 0.21118282E-01 0.27449277E+03</pdfrwt>
<totfact> 0.21475478E+04</totfact>
</mgrwt>
</event>
<event>
 4    1  0.4050555E+000  0.2070838E+03  0.7546771E-02  0.1143896E+00
         21   -1    0    0  503  502  0.00000000000E+00  0.00000000000E+00  0.79426441285E+02  0.79426441285E+02  0.00000000000E+00 0.  1.
         21   -1    0    0  501  503 -0.00000000000E+00 -0.00000000000E+00 -0.75575668327E+03  0.75575668327E+03  0.00000000000E+00 0.  1.
          6    1    1    2  501    0  0.11283878849E+03  0.14903167388E+02 -0.56133019581E+03  0.59831035869E+03  0.17300000000E+03 0.  1.
         -6    1    1    2    0  502 -0.11283878849E+03 -0.14903167388E+02 -0.11500004617E+03  0.23687276586E+03  0.17300000000E+03 0.  1.
<mgrwt>
<rscale>  2 0.20708379E+03</rscale>
<asrwt>0</asrwt>
<pdfrwt beam="1">  1       21 0.12219452E-01 0.20708379E+03</pdfrwt>
<pdfrwt beam="2">  1       21 0.11627027E+00 0.20708379E+03</pdfrwt>
<totfact> 0.32155440E+04</totfact>
</mgrwt>
</event>
<event>
 4    1  0.4050555E+000  0.1875775E+03  0.7546771E-02  0.1160665E+00
         21   -1    0    0  501  502  0.00000000000E+00  0.00000000000E+00  0.19758889493E+03  0.19758889493E+03  0.00000000000E+00 0.  1.
         21   -1    0    0  502  503 -0.00000000000E+00 -0.00000000000E+00 -0.39133725892E+03  0.39133725892E+03  0.00000000000E+00 0. -1.
          6    1    1    2  501    0  0.51870274045E+02 -0.50653498609E+02  0.12050302391E+03  0.22294905477E+03  0.17300000000E+03 0.  1.
         -6    1    1    2    0  503 -0.51870274045E+02  0.50653498609E+02 -0.31425138790E+03  0.36597709908E+03  0.17300000000E+03 0. -1.
<mgrwt>
<rscale>  2 0.18757746E+03</rscale>
<asrwt>0</asrwt>
<pdfrwt beam="1">  1       21 0.30398292E-01 0.18757746E+03</pdfrwt>
<pdfrwt beam="2">  1       21 0.60205732E-01 0.18757746E+03</pdfrwt>
<totfact> 0.26789282E+04</totfact>
</mgrwt>
</event>
<event>
 4    1  0.4050555E+000  0.1784470E+03  0.7546771E-02  0.1169315E+00
         21   -1    0    0  503  502  0.00000000000E+00  0.00000000000E+00  0.81994566777E+02  0.81994566777E+02  0.00000000000E+00 0. -1.
         21   -1    0    0  501  503 -0.00000000000E+00 -0.00000000000E+00 -0.68089100199E+03  0.68089100199E+03  0.00000000000E+00 0. -1.
          6    1    1    2  501    0  0.14317887580E+02  0.41343990562E+02 -0.54946968664E+03  0.57771988368E+03  0.17300000000E+03 0. -1.
         -6    1    1    2    0  502 -0.14317887580E+02 -0.41343990562E+02 -0.49426748574E+02  0.18516568509E+03  0.17300000000E+03 0. -1.
<mgrwt>
<rscale>  2 0.17844699E+03</rscale>
<asrwt>0</asrwt>
<pdfrwt beam="1">  1       21 0.12614549E-01 0.17844699E+03</pdfrwt>
<pdfrwt beam="2">  1       21 0.10475246E+00 0.17844699E+03</pdfrwt>
<totfact> 0.39726412E+04</totfact>
</mgrwt>
</event>
<event>
 4    1  0.4050555E+000  0.2430040E+03  0.7546771E-02  0.1117808E+00
         21   -1    0    0  503  502  0.00000000000E+00  0.00000000000E+00  0.34768278529E+03  0.34768278529E+03  0.00000000000E+00 0. -1.
         21   -1    0    0  501  503 -0.00000000000E+00 -0.00000000000E+00 -0.23663844155E+03  0.23663844155E+03  0.00000000000E+00 0.  1.
          6    1    1    2  501    0 -0.88206720835E+02 -0.14608742871E+03 -0.99701280922E+02  0.26266196498E+03  0.17300000000E+03 0.  1.
         -6    1    1    2    0  502  0.88206720835E+02  0.14608742871E+03  0.21074562466E+03  0.32165926186E+03  0.17300000000E+03 0. -1.
<mgrwt>
<rscale>  2 0.24300404E+03</rscale>
<asrwt>0</asrwt>
<pdfrwt beam="1">  1       21 0.53489659E-01 0.24300404E+03</pdfrwt>
<pdfrwt beam="2">  1       21 0.36405914E-01 0.24300404E+03</pdfrwt>
<totfact> 0.23429137E+04</totfact>
</mgrwt>
</event>
<event>
 4    1  0.4050555E+000  0.1732323E+03  0.7546771E-02  0.1174518E+00
         21   -1    0    0  503  502  0.00000000000E+00  0.00000000000E+00  0.80529738803E+02  0.80529738803E+02  0.00000000000E+00 0. -1.
         21   -1    0    0  501  503 -0.00000000000E+00 -0.00000000000E+00 -0.44201922779E+03  0.44201922779E+03  0.00000000000E+00 0. -1.
          6    1    1    2  501    0  0.73533181550E+01 -0.51331256658E+01 -0.28424926969E+03  0.33287695562E+03  0.17300000000E+03 0. -1.
         -6    1    1    2    0  502 -0.73533181550E+01  0.51331256658E+01 -0.77240219297E+02  0.18967201097E+03  0.17300000000E+03 0. -1.
<mgrwt>
<rscale>  2 0.17323227E+03</rscale>
<asrwt>0</asrwt>
<pdfrwt beam="1">  1       21 0.12389190E-01 0.17323227E+03</pdfrwt>
<pdfrwt beam="2">  1       21 0.68002959E-01 0.17323227E+03</pdfrwt>
<totfact> 0.11024904E+05</totfact>
</mgrwt>
</event>
<event>
 4    1  0.4050555E+000  0.1890179E+03  0.7546771E-02  0.1159350E+00
         21   -1    0    0  501  502  0.00000000000E+00  0.00000000000E+00  0.20282277985E+03  0.20282277985E+03  0.00000000000E+00 0.  1.
         21   -1    0    0  502  503 -0.00000000000E+00 -0.00000000000E+00 -0.19093307927E+03  0.19093307927E+03  0.00000000000E+00 0. -1.
          6    1    1    2  501    0  0.33833543843E+02 -0.68220678398E+02  0.60722072517E+02  0.19853196151E+03  0.17300000000E+03 0.  1.
         -6    1    1    2    0  503 -0.33833543843E+02  0.68220678398E+02 -0.48832371936E+02  0.19522389761E+03  0.17300000000E+03 0. -1.
<mgrwt>
<rscale>  2 0.18901791E+03</rscale>
<asrwt>0</asrwt>
<pdfrwt beam="1">  1       21 0.31203505E-01 0.18901791E+03</pdfrwt>
<pdfrwt beam="2">  1       21 0.29374320E-01 0.18901791E+03</pdfrwt>
<totfact> 0.10970692E+05</totfact>
</mgrwt>
</event>
<event>
 4    1  0.4050555E+000  0.1733859E+03  0.7546771E-02  0.1174362E+00
         21   -1    0    0  501  502  0.00000000000E+00  0.00000000000E+00  0.14519690501E+03  0.14519690501E+03  0.00000000000E+00 0. -1.
         21   -1    0    0  502  503 -0.00000000000E+00 -0.00000000000E+00 -0.22394258113E+03  0.22394258113E+03  0.00000000000E+00 0. -1.
          6    1    1    2  501    0  0.36101366250E+01 -0.10983185835E+02  0.11322925121E+02  0.17375520738E+03  0.17300000000E+03 0. -1.
         -6    1    1    2    0  503 -0.36101366250E+01  0.10983185835E+02 -0.90068601236E+02  0.19538427876E+03  0.17300000000E+03 0. -1.
<mgrwt>
<rscale>  2 0.17338588E+03</rscale>
<asrwt>0</asrwt>
<pdfrwt beam="1">  1       21 0.22337985E-01 0.17338588E+03</pdfrwt>
<pdfrwt beam="2">  1       21 0.34452705E-01 0.17338588E+03</pdfrwt>
<totfact> 0.15323206E+05</totfact>
</mgrwt>
</event>
<event>
 4    1  0.4050555E+000  0.2017622E+03  0.7546771E-02  0.1148261E+00
         21   -1    0    0  501  502  0.00000000000E+00  0.00000000000E+00  0.28778782334E+03  0.28778782334E+03  0.00000000000E+00 0.  1.
         21   -1    0    0  502  503 -0.00000000000E+00 -0.00000000000E+00 -0.16391100466E+03  0.16391100466E+03  0.00000000000E+00 0.  1.
          6    1    1    2  501    0  0.88130528331E+02  0.54881703483E+02  0.14554026857E+03  0.24877693055E+03  0.17300000000E+03 0.  1.
         -6    1    1    2    0  503 -0.88130528331E+02 -0.54881703483E+02 -0.21663449885E+02  0.20292189744E+03  0.17300000000E+03 0.  1.
<mgrwt>
<rscale>  2 0.20176221E+03</rscale>
<asrwt>0</asrwt>
<pdfrwt beam="1">  1       21 0.44275050E-01 0.20176221E+03</pdfrwt>
<pdfrwt beam="2">  1       21 0.25217078E-01 0.20176221E+03</pdfrwt>
<totfact> 0.72697623E+04</totfact>
</mgrwt>
</event>
<event>
 4    1  0.4050555E+000  0.1933381E+03  0.7546771E-02  0.1155485E+00
         21   -1    0    0  501  502  0.00000000000E+00  0.00000000000E+00  0.14783956955E+02  0.14783956955E+02  0.00000000000E+00 0.  1.
         21   -1    0    0  502  503 -0.00000000000E+00 -0.00000000000E+00 -0.26962547746E+04  0.26962547746E+04  0.00000000000E+00 0.  1.
          6    1    1    2  501    0 -0.24352783642E+02 -0.82810390430E+02 -0.10025115954E+04  0.10209843867E+04  0.17300000000E+03 0.  1.
         -6    1    1    2    0  503  0.24352783642E+02  0.82810390430E+02 -0.16789592222E+04  0.16900543449E+04  0.17300000000E+03 0.  1.
<mgrwt>
<rscale>  2 0.19333809E+03</rscale>
<asrwt>0</asrwt>
<pdfrwt beam="1">  1       21 0.22744572E-02 0.19333809E+03</pdfrwt>
<pdfrwt beam="2">  1       21 0.41480802E+00 0.19333809E+03</pdfrwt>
<totfact> 0.70111731E+03</totfact>
</mgrwt>
</event>
<event>
 4    1  0.4050555E+000  0.2893556E+03  0.7546771E-02  0.1090686E+00
         21   -1    0    0  501  502  0.00000000000E+00  0.00000000000E+00  0.16033289037E+03  0.16033289037E+03  0.00000000000E+00 0. -1.
         21   -1    0    0  502  503 -0.00000000000E+00 -0.00000000000E+00 -0.52563716952E+03  0.52563716952E+03  0.00000000000E+00 0.  1.
          6    1    1    2  501    0 -0.18331858919E+03  0.14209847687E+03 -0.15493817631E+03  0.32822632550E+03  0.17300000000E+03 0. -1.
         -6    1    1    2    0  503  0.18331858919E+03 -0.14209847687E+03 -0.21036610284E+03  0.35774373439E+03  0.17300000000E+03 0. -1.
<mgrwt>
<rscale>  2 0.28935563E+03</rscale>
<asrwt>0</asrwt>
<pdfrwt beam="1">  1       21 0.24666599E-01 0.28935563E+03</pdfrwt>
<pdfrwt beam="2">  1       21 0.80867256E-01 0.28935563E+03</pdfrwt>
<totfact> 0.19851495E+04</totfact>
</mgrwt>
</event>
<event>
 4    1  0.4050555E+000  0.1781114E+03  0.7546771E-02  0.1169643E+00
         21   -1    0    0  503  502  0.00000000000E+00  0.00000000000E+00  0.20971804597E+03  0.20971804597E+03  0.00000000000E+00 0.  1.
         21   -1    0    0  501  503 -0.00000000000E+00 -0.00000000000E+00 -0.17043466806E+03  0.17043466806E+03  0.00000000000E+00 0.  1.
          6    1    1    2  501    0 -0.13304405269E+02 -0.40220367049E+02 -0.44099392750E+02  0.18348962250E+03  0.17300000000E+03 0.  1.
         -6    1    1    2    0  502  0.13304405269E+02  0.40220367049E+02  0.83382770655E+02  0.19666309152E+03  0.17300000000E+03 0.  1.
<mgrwt>
<rscale>  2 0.17811144E+03</rscale>
<asrwt>0</asrwt>
<pdfrwt beam="1">  1       21 0.32264315E-01 0.17811144E+03</pdfrwt>
<pdfrwt beam="2">  1       21 0.26220718E-01 0.17811144E+03</pdfrwt>
<totfact> 0.12841340E+05</totfact>
</mgrwt>
</event>
<event>
 4    1  0.4050555E+000  0.2084962E+03  0.7546771E-02  0.1142762E+00
         21   -1    0    0  501  502  0.00000000000E+00  0.00000000000E+00  0.10279348908E+03  0.10279348908E+03  0.00000000000E+00 0. -1.
         21   -1    0    0  502  503 -0.00000000000E+00 -0.00000000000E+00 -0.66222175332E+03  0.66222175332E+03  0.00000000000E+00 0. -1.
          6    1    1    2  501    0 -0.81080326040E+02 -0.83472498353E+02 -0.49763004676E+02  0.21435259244E+03  0.17300000000E+03 0. -1.
         -6    1    1    2    0  503  0.81080326040E+02  0.83472498353E+02 -0.50966525956E+03  0.55066264996E+03  0.17300000000E+03 0. -1.
<mgrwt>
<rscale>  2 0.20849623E+03</rscale>
<asrwt>0</asrwt>
<pdfrwt beam="1">  1       21 0.15814383E-01 0.20849623E+03</pdfrwt>
<pdfrwt beam="2">  1       21 0.10188027E+00 0.20849623E+03</pdfrwt>
<totfact> 0.27718184E+04</totfact>
</mgrwt>
</event>
<event>
 4    1  0.4050555E+000  0.2463436E+03  0.7546771E-02  0.1115638E+00
         21   -1    0    0  501  502  0.00000000000E+00  0.00000000000E+00  0.70386968863E+03  0.70386968863E+03  0.00000000000E+00 0. -1.
         21   -1    0    0  502  503 -0.00000000000E+00 -0.00000000000E+00 -0.29645357323E+03  0.29645357323E+03  0.00000000000E+00 0.  1.
          6    1    1    2  501    0  0.15338935257E+03  0.85017048403E+02  0.62490640911E+03  0.67170917229E+03  0.17300000000E+03 0. -1.
         -6    1    1    2    0  503 -0.15338935257E+03 -0.85017048403E+02 -0.21749029371E+03  0.32861408956E+03  0.17300000000E+03 0.  1.
<mgrwt>
<rscale>  2 0.24634365E+03</rscale>
<asrwt>0</asrwt>
<pdfrwt beam="1">  1       21 0.10828764E+00 0.24634365E+03</pdfrwt>
<pdfrwt beam="2">  1       21 0.45608242E-01 0.24634365E+03</pdfrwt>
<totfact> 0.29984372E+03</totfact>
</mgrwt>
</event>
<event>
 4    1  0.4050555E+000  0.1985054E+03  0.7546771E-02  0.1151006E+00
         21   -1    0    0  501  502  0.00000000000E+00  0.00000000000E+00  0.27456681630E+03  0.27456681630E+03  0.00000000000E+00 0.  1.
         21   -1    0    0  502  503 -0.00000000000E+00 -0.00000000000E+00 -0.19435202550E+03  0.19435202550E+03  0.00000000000E+00 0. -1.
          6    1    1    2  501    0 -0.50101945081E+02  0.83457624174E+02  0.16001988275E+03  0.25497204319E+03  0.17300000000E+03 0.  1.
         -6    1    1    2    0  503  0.50101945081E+02 -0.83457624174E+02 -0.79805091947E+02  0.21394679861E+03  0.17300000000E+03 0. -1.
<mgrwt>
<rscale>  2 0.19850536E+03</rscale>
<asrwt>0</asrwt>
<pdfrwt beam="1">  1       21 0.42241049E-01 0.19850536E+03</pdfrwt>
<pdfrwt beam="2">  1       21 0.29900312E-01 0.19850536E+03</pdfrwt>
<totfact> 0.57684995E+04</totfact>
</mgrwt>
</event>
<event>
 4    1  0.4050555E+000  0.1821746E+03  0.7546771E-02  0.1165715E+00
         21   -1    0    0  503  502  0.00000000000E+00  0.00000000000E+00  0.10029106139E+03  0.10029106139E+03  0.00000000000E+00 0. -1.
         21   -1    0    0  501  503 -0.00000000000E+00 -0.00000000000E+00 -0.35535918636E+03  0.35535918636E+03  0.00000000000E+00 0.  1.
          6    1    1    2  501    0 -0.40210988508E+02 -0.40517401390E+02 -0.18728934261E+03  0.26127548922E+03  0.17300000000E+03 0.  1.
         -6    1    1    2    0  502  0.40210988508E+02  0.40517401390E+02 -0.67778782362E+02  0.19437475852E+03  0.17300000000E+03 0. -1.
<mgrwt>
<rscale>  2 0.18217460E+03</rscale>
<asrwt>0</asrwt>
<pdfrwt beam="1">  1       21 0.15429394E-01 0.18217460E+03</pdfrwt>
<pdfrwt beam="2">  1       21 0.54670644E-01 0.18217460E+03</pdfrwt>
<totfact> 0.11815126E+05</totfact>
</mgrwt>
</event>
<event>
 4    1  0.4050555E+000  0.2158721E+03  0.7546771E-02  0.1136999E+00
         21   -1    0    0  503  502  0.00000000000E+00  0.00000000000E+00  0.22103820278E+03  0.22103820278E+03  0.00000000000E+00 0. -1.
         21   -1    0    0  501  503 -0.00000000000E+00 -0.00000000000E+00 -0.30777966756E+03  0.30777966756E+03  0.00000000000E+00 0. -1.
          6    1    1    2  501    0 -0.57491287824E+02  0.11561359420E+03 -0.19177170698E+03  0.28875099816E+03  0.17300000000E+03 0. -1.
         -6    1    1    2    0  502  0.57491287824E+02 -0.11561359420E+03  0.10503024220E+03  0.24006687218E+03  0.17300000000E+03 0. -1.
<mgrwt>
<rscale>  2 0.21587207E+03</rscale>
<asrwt>0</asrwt>
<pdfrwt beam="1">  1       21 0.34005877E-01 0.21587207E+03</pdfrwt>
<pdfrwt beam="2">  1       21 0.47350718E-01 0.21587207E+03</pdfrwt>
<totfact> 0.35121288E+04</totfact>
</mgrwt>
</event>
<event>
 4    1  0.4050555E+000  0.2126899E+03  0.7546771E-02  0.1139453E+00
         21   -1    0    0  501  502  0.00000000000E+00  0.00000000000E+00  0.48233241807E+03  0.48233241807E+03  0.00000000000E+00 0. -1.
         21   -1    0    0  502  503 -0.00000000000E+00 -0.00000000000E+00 -0.11118221307E+03  0.11118221307E+03  0.00000000000E+00 0.  1.
          6    1    1    2  501    0 -0.12148634198E+03  0.23432457952E+02  0.30295282794E+03  0.37015865157E+03  0.17300000000E+03 0. -1.
         -6    1    1    2    0  503  0.12148634198E+03 -0.23432457952E+02  0.68197377065E+02  0.22335597957E+03  0.17300000000E+03 0.  1.
<mgrwt>
<rscale>  2 0.21268994E+03</rscale>
<asrwt>0</asrwt>
<pdfrwt beam="1">  1       21 0.74204986E-01 0.21268994E+03</pdfrwt>
<pdfrwt beam="2">  1       21 0.17104956E-01 0.21268994E+03</pdfrwt>
<totfact> 0.49731067E+04</totfact>
</mgrwt>
</event>
<event>
 4    1  0.4050555E+000  0.1976004E+03  0.7546771E-02  0.1151779E+00
         21   -1    0    0  503  502  0.00000000000E+00  0.00000000000E+00  0.30991714350E+03  0.30991714350E+03  0.00000000000E+00 0. -1.
         21   -1    0    0  501  503 -0.00000000000E+00 -0.00000000000E+00 -0.18520421591E+03  0.18520421591E+03  0.00000000000E+00 0. -1.
          6    1    1    2  501    0 -0.93281747791E+02 -0.20382435056E+02 -0.77626610664E+02  0.21230124543E+03  0.17300000000E+03 0. -1.
         -6    1    1    2    0  502  0.93281747791E+02  0.20382435056E+02  0.20233953826E+03  0.28282011398E+03  0.17300000000E+03 0. -1.
<mgrwt>
<rscale>  2 0.19760043E+03</rscale>
<asrwt>0</asrwt>
<pdfrwt beam="1">  1       21 0.47679560E-01 0.19760043E+03</pdfrwt>
<pdfrwt beam="2">  1       21 0.28492956E-01 0.19760043E+03</pdfrwt>
<totfact> 0.49420769E+04</totfact>
</mgrwt>
</event>
<event>
 4    1  0.4050555E+000  0.1943231E+03  0.7546771E-02  0.1154619E+00
         21   -1    0    0  503  502  0.00000000000E+00  0.00000000000E+00  0.10278632835E+04  0.10278632835E+04  0.00000000000E+00 0.  1.
         21   -1    0    0  501  503 -0.00000000000E+00 -0.00000000000E+00 -0.44267381732E+02  0.44267381732E+02  0.00000000000E+00 0.  1.
          6    1    1    2  501    0  0.74584307748E+02 -0.47640909050E+02  0.27071252030E+03  0.33323676842E+03  0.17300000000E+03 0.  1.
         -6    1    1    2    0  502 -0.74584307748E+02  0.47640909050E+02  0.71288338144E+03  0.73889389679E+03  0.17300000000E+03 0.  1.
<mgrwt>
<rscale>  2 0.19432312E+03</rscale>
<asrwt>0</asrwt>
<pdfrwt beam="1">  1       21 0.15813279E+00 0.19432312E+03</pdfrwt>
<pdfrwt beam="2">  1       21 0.68103672E-02 0.19432312E+03</pdfrwt>
<totfact> 0.41162450E+04</totfact>
</mgrwt>
</event>
<event>
 4    1  0.4050555E+000  0.2621890E+03  0.7546771E-02  0.1105835E+00
         21   -1    0    0  503  502  0.00000000000E+00  0.00000000000E+00  0.26733345520E+03  0.26733345520E+03  0.00000000000E+00 0.  1.
         21   -1    0    0  501  503 -0.00000000000E+00 -0.00000000000E+00 -0.26615058395E+03  0.26615058395E+03  0.00000000000E+00 0. -1.
          6    1    1    2  501    0  0.18170381820E+03 -0.76143121400E+02 -0.48479070425E+02  0.26663321765E+03  0.17300000000E+03 0.  1.
         -6    1    1    2    0  502 -0.18170381820E+03  0.76143121400E+02  0.49661941671E+02  0.26685082150E+03  0.17300000000E+03 0. -1.
<mgrwt>
<rscale>  2 0.26218896E+03</rscale>
<asrwt>0</asrwt>
<pdfrwt beam="1">  1       21 0.41128224E-01 0.26218896E+03</pdfrwt>
<pdfrwt beam="2">  1       21 0.40946244E-01 0.26218896E+03</pdfrwt>
<totfact> 0.31634373E+04</totfact>
</mgrwt>
</event>
<event>
 4    1  0.4050555E+000  0.1780053E+03  0.7546771E-02  0.1169748E+00
         21   -1    0    0  501  502  0.00000000000E+00  0.00000000000E+00  0.34704590888E+03  0.34704590888E+03  0.00000000000E+00 0. -1.
         21   -1    0    0  502  503 -0.00000000000E+00 -0.00000000000E+00 -0.12182566073E+03  0.12182566073E+03  0.00000000000E+00 0. -1.
          6    1    1    2  501    0 -0.20125297242E+02 -0.36767727219E+02  0.22995786020E+03  0.29080321666E+03  0.17300000000E+03 0. -1.
         -6    1    1    2    0  503  0.20125297242E+02  0.36767727219E+02 -0.47376120527E+01  0.17806835295E+03  0.17300000000E+03 0. -1.
<mgrwt>
<rscale>  2 0.17800532E+03</rscale>
<asrwt>0</asrwt>
<pdfrwt beam="1">  1       21 0.53391678E-01 0.17800532E+03</pdfrwt>
<pdfrwt beam="2">  1       21 0.18742410E-01 0.17800532E+03</pdfrwt>
<totfact> 0.87017875E+04</totfact>
</mgrwt>
</event>
<event>
 4    1  0.4050555E+000  0.1764701E+03  0.7546771E-02  0.1171264E+00
         21   -1    0    0  503  502  0.00000000000E+00  0.00000000000E+00  0.11947348700E+03  0.11947348700E+03  0.00000000000E+00 0. -1.
         21   -1    0    0  501  503 -0.00000000000E+00 -0.00000000000E+00 -0.38878122358E+03  0.38878122358E+03  0.00000000000E+00 0. -1.
          6    1    1    2  501    0  0.30201188238E+02  0.17337620086E+02 -0.28053963482E+03  0.33142750571E+03  0.17300000000E+03 0. -1.
         -6    1    1    2    0  502 -0.30201188238E+02 -0.17337620086E+02  0.11231898233E+02  0.17682720486E+03  0.17300000000E+03 0. -1.
<mgrwt>
<rscale>  2 0.17647012E+03</rscale>
<asrwt>0</asrwt>
<pdfrwt beam="1">  1       21 0.18380537E-01 0.17647012E+03</pdfrwt>
<pdfrwt beam="2">  1       21 0.59812496E-01 0.17647012E+03</pdfrwt>
<totfact> 0.70951777E+04</totfact>
</mgrwt>
</event>
<event>
 4    1  0.4050555E+000  0.1776203E+03  0.7546771E-02  0.1170126E+00
         21   -1    0    0  503  502  0.00000000000E+00  0.00000000000E+00  0.33701795018E+03  0.33701795018E+03  0.00000000000E+00 0. -1.
         21   -1    0    0  501  503 -0.00000000000E+00 -0.00000000000E+00 -0.97937189005E+02  0.97937189005E+02  0.00000000000E+00 0. -1.
          6    1    1    2  501    0 -0.30800599062E+02  0.25909521679E+02  0.73838415259E+02  0.19235667855E+03  0.17300000000E+03 0. -1.
         -6    1    1    2    0  502  0.30800599062E+02 -0.25909521679E+02  0.16524234591E+03  0.24259846063E+03  0.17300000000E+03 0. -1.
<mgrwt>
<rscale>  2 0.17762033E+03</rscale>
<asrwt>0</asrwt>
<pdfrwt beam="1">  1       21 0.51848915E-01 0.17762033E+03</pdfrwt>
<pdfrwt beam="2">  1       21 0.15067260E-01 0.17762033E+03</pdfrwt>
<totfact> 0.13812527E+05</totfact>
</mgrwt>
</event>
<event>
 4    1  0.4050555E+000  0.3017054E+03  0.7546771E-02  0.1084391E+00
         21   -1    0    0  503  502  0.00000000000E+00  0.00000000000E+00  0.17877014857E+03  0.17877014857E+03  0.00000000000E+00 0. -1.
         21   -1    0    0  501  503 -0.00000000000E+00 -0.00000000000E+00 -0.52085759520E+03  0.52085759520E+03  0.00000000000E+00 0. -1.
          6    1    1    2  501    0  0.22400150018E+03  0.10450117813E+03 -0.22342256530E+03  0.37542484068E+03  0.17300000000E+03 0. -1.
         -6    1    1    2    0  502 -0.22400150018E+03 -0.10450117813E+03 -0.11866488133E+03  0.32420290309E+03  0.17300000000E+03 0. -1.
<mgrwt>
<rscale>  2 0.30170543E+03</rscale>
<asrwt>0</asrwt>
<pdfrwt beam="1">  1       21 0.27503100E-01 0.30170543E+03</pdfrwt>
<pdfrwt beam="2">  1       21 0.80131937E-01 0.30170543E+03</pdfrwt>
<totfact> 0.16333754E+04</totfact>
</mgrwt>
</event>
<event>
 4    1  0.4050555E+000  0.2261287E+03  0.7546771E-02  0.1129395E+00
         21   -1    0    0  501  502  0.00000000000E+00  0.00000000000E+00  0.16353873688E+03  0.16353873688E+03  0.00000000000E+00 0. -1.
         21   -1    0    0  502  503 -0.00000000000E+00 -0.00000000000E+00 -0.52188882747E+03  0.52188882747E+03  0.00000000000E+00 0.  1.
          6    1    1    2  501    0 -0.34788617573E+02 -0.14140351349E+03  0.37814842449E+02  0.22926875899E+03  0.17300000000E+03 0. -1.
         -6    1    1    2    0  503  0.34788617573E+02  0.14140351349E+03 -0.39616493304E+03  0.45615880536E+03  0.17300000000E+03 0.  1.
<mgrwt>
<rscale>  2 0.22612873E+03</rscale>
<asrwt>0</asrwt>
<pdfrwt beam="1">  1       21 0.25159805E-01 0.22612873E+03</pdfrwt>
<pdfrwt beam="2">  1       21 0.80290590E-01 0.22612873E+03</pdfrwt>
<totfact> 0.20017694E+04</totfact>
</mgrwt>
</event>
<event>
 4    1  0.4050555E+000  0.1783178E+03  0.7546771E-02  0.1169441E+00
         21   -1    0    0  503  502  0.00000000000E+00  0.00000000000E+00  0.24378335181E+03  0.24378335181E+03  0.00000000000E+00 0. -1.
         21   -1    0    0  501  503 -0.00000000000E+00 -0.00000000000E+00 -0.13490049013E+03  0.13490049013E+03  0.00000000000E+00 0. -1.
          6    1    1    2  501    0  0.27651515309E+02  0.33221206349E+02  0.19982678908E+02  0.17943400544E+03  0.17300000000E+03 0. -1.
         -6    1    1    2    0  502 -0.27651515309E+02 -0.33221206349E+02  0.88900182777E+02  0.19924983651E+03  0.17300000000E+03 0. -1.
<mgrwt>
<rscale>  2 0.17831785E+03</rscale>
<asrwt>0</asrwt>
<pdfrwt beam="1">  1       21 0.37505131E-01 0.17831785E+03</pdfrwt>
<pdfrwt beam="2">  1       21 0.20753922E-01 0.17831785E+03</pdfrwt>
<totfact> 0.14836584E+05</totfact>
</mgrwt>
</event>
<event>
 4    1  0.4050555E+000  0.1741438E+03  0.7546771E-02  0.1173594E+00
         21   -1    0    0  501  502  0.00000000000E+00  0.00000000000E+00  0.20905940747E+03  0.20905940747E+03  0.00000000000E+00 0. -1.
         21   -1    0    0  502  503 -0.00000000000E+00 -0.00000000000E+00 -0.15244494116E+03  0.15244494116E+03  0.00000000000E+00 0. -1.
          6    1    1    2  501    0  0.12927625747E+02  0.15163685226E+02  0.68091756062E+02  0.18698274814E+03  0.17300000000E+03 0. -1.
         -6    1    1    2    0  503 -0.12927625747E+02 -0.15163685226E+02 -0.11477289758E+02  0.17452160049E+03  0.17300000000E+03 0. -1.
<mgrwt>
<rscale>  2 0.17414379E+03</rscale>
<asrwt>0</asrwt>
<pdfrwt beam="1">  1       21 0.32162986E-01 0.17414379E+03</pdfrwt>
<pdfrwt beam="2">  1       21 0.23453068E-01 0.17414379E+03</pdfrwt>
<totfact> 0.15998591E+05</totfact>
</mgrwt>
</event>
<event>
 4    1  0.4050555E+000  0.1824994E+03  0.7546771E-02  0.1165406E+00
         21   -1    0    0  503  502  0.00000000000E+00  0.00000000000E+00  0.59512196864E+03  0.59512196864E+03  0.00000000000E+00 0. -1.
         21   -1    0    0  501  503 -0.00000000000E+00 -0.00000000000E+00 -0.59302403031E+02  0.59302403031E+02  0.00000000000E+00 0. -1.
          6    1    1    2  501    0  0.57685977867E+02  0.70267577013E+01  0.19028639755E+03  0.26365689913E+03  0.17300000000E+03 0. -1.
         -6    1    1    2    0  502 -0.57685977867E+02 -0.70267577013E+01  0.34553316805E+03  0.39076747254E+03  0.17300000000E+03 0. -1.
<mgrwt>
<rscale>  2 0.18249944E+03</rscale>
<asrwt>0</asrwt>
<pdfrwt beam="1">  1       21 0.91557222E-01 0.18249944E+03</pdfrwt>
<pdfrwt beam="2">  1       21 0.91234470E-02 0.18249944E+03</pdfrwt>
<totfact> 0.96689743E+04</totfact>
</mgrwt>
</event>
<event>
 4    1  0.4050555E+000  0.1863718E+03  0.7546771E-02  0.1161775E+00
         21   -1    0    0  503  502  0.00000000000E+00  0.00000000000E+00  0.26841441652E+03  0.26841441652E+03  0.00000000000E+00 0. -1.
         21   -1    0    0  501  503 -0.00000000000E+00 -0.00000000000E+00 -0.26725592353E+03  0.26725592353E+03  0.00000000000E+00 0. -1.
          6    1    1    2  501    0 -0.64067309746E+02 -0.26473075270E+02 -0.19177738049E+03  0.26741916079E+03  0.17300000000E+03 0. -1.
         -6    1    1    2    0  502  0.64067309746E+02  0.26473075270E+02  0.19293587348E+03  0.26825117925E+03  0.17300000000E+03 0. -1.
<mgrwt>
<rscale>  2 0.18637179E+03</rscale>
<asrwt>0</asrwt>
<pdfrwt beam="1">  1       21 0.41294526E-01 0.18637179E+03</pdfrwt>
<pdfrwt beam="2">  1       21 0.41116296E-01 0.18637179E+03</pdfrwt>
<totfact> 0.32279378E+04</totfact>
</mgrwt>
</event>
<event>
 4    1  0.4050555E+000  0.2304041E+03  0.7546771E-02  0.1126356E+00
         21   -1    0    0  501  502  0.00000000000E+00  0.00000000000E+00  0.12125064368E+03  0.12125064368E+03  0.00000000000E+00 0.  1.
         21   -1    0    0  502  503 -0.00000000000E+00 -0.00000000000E+00 -0.55904668188E+03  0.55904668188E+03  0.00000000000E+00 0. -1.
          6    1    1    2  501    0  0.13883002093E+03 -0.62315847701E+02 -0.60502600047E+02  0.23821545751E+03  0.17300000000E+03 0.  1.
         -6    1    1    2    0  503 -0.13883002093E+03  0.62315847701E+02 -0.37729343815E+03  0.44208186804E+03  0.17300000000E+03 0. -1.
<mgrwt>
<rscale>  2 0.23040408E+03</rscale>
<asrwt>0</asrwt>
<pdfrwt beam="1">  1       21 0.18653945E-01 0.23040408E+03</pdfrwt>
<pdfrwt beam="2">  1       21 0.86007182E-01 0.23040408E+03</pdfrwt>
<totfact> 0.30039362E+04</totfact>
</mgrwt>
</event>
<event>
 4    1  0.4050555E+000  0.2028095E+03  0.7546771E-02  0.1147390E+00
         21   -1    0    0  501  502  0.00000000000E+00  0.00000000000E+00  0.27413749651E+03  0.27413749651E+03  0.00000000000E+00 0. -1.
         21   -1    0    0  502  503 -0.00000000000E+00 -0.00000000000E+00 -0.15166626866E+03  0.15166626866E+03  0.00000000000E+00 0. -1.
          6    1    1    2  501    0 -0.93717221714E+02  0.49191051232E+02  0.83279526239E+02  0.21924223283E+03  0.17300000000E+03 0. -1.
         -6    1    1    2    0  503  0.93717221714E+02 -0.49191051232E+02  0.39191701606E+02  0.20656153234E+03  0.17300000000E+03 0. -1.
<mgrwt>
<rscale>  2 0.20280946E+03</rscale>
<asrwt>0</asrwt>
<pdfrwt beam="1">  1       21 0.42174999E-01 0.20280946E+03</pdfrwt>
<pdfrwt beam="2">  1       21 0.23333272E-01 0.20280946E+03</pdfrwt>
<totfact> 0.93051684E+04</totfact>
</mgrwt>
</event>
<event>
 4    1  0.4050555E+000  0.2015655E+03  0.7546771E-02  0.1148425E+00
         21   -1    0    0  501  502  0.00000000000E+00  0.00000000000E+00  0.37030068491E+03  0.37030068491E+03  0.00000000000E+00 0. -1.
         21   -1    0    0  502  503 -0.00000000000E+00 -0.00000000000E+00 -0.16689901050E+03  0.16689901050E+03  0.00000000000E+00 0.  1.
          6    1    1    2  501    0 -0.69969467708E+02  0.76183381617E+02  0.25891981322E+03  0.32812818185E+03  0.17300000000E+03 0. -1.
         -6    1    1    2    0  503  0.69969467708E+02 -0.76183381617E+02 -0.55518138809E+02  0.20907151356E+03  0.17300000000E+03 0.  1.
<mgrwt>
<rscale>  2 0.20156546E+03</rscale>
<asrwt>0</asrwt>
<pdfrwt beam="1">  1       21 0.56969336E-01 0.20156546E+03</pdfrwt>
<pdfrwt beam="2">  1       21 0.25676771E-01 0.20156546E+03</pdfrwt>
<totfact> 0.41474609E+04</totfact>
</mgrwt>
</event>
<event>
 4    1  0.4050555E+000  0.3416633E+03  0.7546771E-02  0.1066090E+00
         21   -1    0    0  501  502  0.00000000000E+00  0.00000000000E+00  0.40996534677E+03  0.40996534677E+03  0.00000000000E+00 0. -1.
         21   -1    0    0  502  503 -0.00000000000E+00 -0.00000000000E+00 -0.28578568827E+03  0.28578568827E+03  0.00000000000E+00 0. -1.
          6    1    1    2  501    0 -0.29452825575E+03 -0.76083221348E+01  0.41053037117E+02  0.34412080997E+03  0.17300000000E+03 0. -1.
         -6    1    1    2    0  503  0.29452825575E+03  0.76083221348E+01  0.83126621379E+02  0.35163022507E+03  0.17300000000E+03 0. -1.
<mgrwt>
<rscale>  2 0.34166326E+03</rscale>
<asrwt>0</asrwt>
<pdfrwt beam="1">  1       21 0.63071592E-01 0.34166326E+03</pdfrwt>
<pdfrwt beam="2">  1       21 0.43967029E-01 0.34166326E+03</pdfrwt>
<totfact> 0.10707941E+04</totfact>
</mgrwt>
</event>
<event>
 4    1  0.4050555E+000  0.1903891E+03  0.7546771E-02  0.1158111E+00
         21   -1    0    0  501  502  0.00000000000E+00  0.00000000000E+00  0.19455876526E+03  0.19455876526E+03  0.00000000000E+00 0.  1.
         21   -1    0    0  502  503 -0.00000000000E+00 -0.00000000000E+00 -0.21306033703E+03  0.21306033703E+03  0.00000000000E+00 0.  1.
          6    1    1    2  501    0 -0.79255786729E+02 -0.61263165817E+01  0.62967560359E+02  0.20053160634E+03  0.17300000000E+03 0.  1.
         -6    1    1    2    0  503  0.79255786729E+02  0.61263165817E+01 -0.81469132131E+02  0.20708749594E+03  0.17300000000E+03 0.  1.
<mgrwt>
<rscale>  2 0.19038911E+03</rscale>
<asrwt>0</asrwt>
<pdfrwt beam="1">  1       21 0.29932118E-01 0.19038911E+03</pdfrwt>
<pdfrwt beam="2">  1       21 0.32778513E-01 0.19038911E+03</pdfrwt>
<totfact> 0.95973215E+04</totfact>
</mgrwt>
</event>
<event>
 4    1  0.4050555E+000  0.2423810E+03  0.7546771E-02  0.1118217E+00
         21   -1    0    0  501  502  0.00000000000E+00  0.00000000000E+00  0.58132645499E+02  0.58132645499E+02  0.00000000000E+00 0.  1.
         21   -1    0    0  502  503 -0.00000000000E+00 -0.00000000000E+00 -0.10834454761E+04  0.10834454761E+04  0.00000000000E+00 0. -1.
          6    1    1    2  501    0 -0.16206786265E+03  0.50532793393E+02 -0.36464725542E+03  0.43785405811E+03  0.17300000000E+03 0.  1.
         -6    1    1    2    0  503  0.16206786265E+03 -0.50532793393E+02 -0.66066557517E+03  0.70372406348E+03  0.17300000000E+03 0. -1.
<mgrwt>
<rscale>  2 0.24238101E+03</rscale>
<asrwt>0</asrwt>
<pdfrwt beam="1">  1       21 0.89434832E-02 0.24238101E+03</pdfrwt>
<pdfrwt beam="2">  1       21 0.16668393E+00 0.24238101E+03</pdfrwt>
<totfact> 0.21551482E+04</totfact>
</mgrwt>
</event>
<event>
 4    1  0.4050555E+000  0.1906283E+03  0.7546771E-02  0.1157896E+00
         21   -1    0    0  503  502  0.00000000000E+00  0.00000000000E+00  0.42333207650E+02  0.42333207650E+02  0.00000000000E+00 0. -1.
         21   -1    0    0  501  503 -0.00000000000E+00 -0.00000000000E+00 -0.10330547149E+04  0.10330547149E+04  0.00000000000E+00 0. -1.
          6    1    1    2  501    0  0.40912507744E+02  0.68820929268E+02 -0.71644307517E+03  0.74137024054E+03  0.17300000000E+03 0. -1.
         -6    1    1    2    0  502 -0.40912507744E+02 -0.68820929268E+02 -0.27427843210E+03  0.33401768203E+03  0.17300000000E+03 0. -1.
<mgrwt>
<rscale>  2 0.19062831E+03</rscale>
<asrwt>0</asrwt>
<pdfrwt beam="1">  1       21 0.65128023E-02 0.19062831E+03</pdfrwt>
<pdfrwt beam="2">  1       21 0.15893147E+00 0.19062831E+03</pdfrwt>
<totfact> 0.43952362E+04</totfact>
</mgrwt>
</event>
<event>
 4    1  0.4050555E+000  0.3030112E+03  0.7546771E-02  0.1083745E+00
         21   -1    0    0  501  502  0.00000000000E+00  0.00000000000E+00  0.61983445975E+03  0.61983445975E+03  0.00000000000E+00 0.  1.
         21   -1    0    0  502  503 -0.00000000000E+00 -0.00000000000E+00 -0.17702247304E+03  0.17702247304E+03  0.00000000000E+00 0. -1.
          6    1    1    2  501    0 -0.18589665547E+03 -0.16531551422E+03  0.38237122026E+03  0.48787655799E+03  0.17300000000E+03 0.  1.
         -6    1    1    2    0  503  0.18589665547E+03  0.16531551422E+03  0.60440766448E+02  0.30898037479E+03  0.17300000000E+03 0. -1.
<mgrwt>
<rscale>  2 0.30301120E+03</rscale>
<asrwt>0</asrwt>
<pdfrwt beam="1">  1       21 0.95359146E-01 0.30301120E+03</pdfrwt>
<pdfrwt beam="2">  1       21 0.27234227E-01 0.30301120E+03</pdfrwt>
<totfact> 0.11094659E+04</totfact>
</mgrwt>
</event>
<event>
 4    1  0.4050555E+000  0.2886196E+03  0.7546771E-02  0.1091072E+00
         21   -1    0    0  501  502  0.00000000000E+00  0.00000000000E+00  0.44584934236E+03  0.44584934236E+03  0.00000000000E+00 0. -1.
         21   -1    0    0  502  503 -0.00000000000E+00 -0.00000000000E+00 -0.73059015124E+03  0.73059015124E+03  0.00000000000E+00 0.  1.
          6    1    1    2  501    0 -0.55137401938E+02 -0.22434824547E+03  0.36509154538E+03  0.46539564335E+03  0.17300000000E+03 0. -1.
         -6    1    1    2    0  503  0.55137401938E+02  0.22434824547E+03 -0.64983235427E+03  0.71104385026E+03  0.17300000000E+03 0.  1.
<mgrwt>
<rscale>  2 0.28861959E+03</rscale>
<asrwt>0</asrwt>
<pdfrwt beam="1">  1       21 0.68592207E-01 0.28861959E+03</pdfrwt>
<pdfrwt beam="2">  1       21 0.11239848E+00 0.28861959E+03</pdfrwt>
<totfact> 0.11100580E+03</totfact>
</mgrwt>
</event>
<event>
 4    1  0.4050555E+000  0.3670644E+03  0.7546771E-02  0.1055821E+00
         21   -1    0    0  501  502  0.00000000000E+00  0.00000000000E+00  0.27419672598E+03  0.27419672598E+03  0.00000000000E+00 0.  1.
         21   -1    0    0  502  503 -0.00000000000E+00 -0.00000000000E+00 -0.49855502432E+03  0.49855502432E+03  0.00000000000E+00 0. -1.
          6    1    1    2  501    0  0.14382107274E+03 -0.29003924882E+03 -0.65844938478E+02  0.37292334701E+03  0.17300000000E+03 0.  1.
         -6    1    1    2    0  503 -0.14382107274E+03  0.29003924882E+03 -0.15851335986E+03  0.39982840329E+03  0.17300000000E+03 0. -1.
<mgrwt>
<rscale>  2 0.36706439E+03</rscale>
<asrwt>0</asrwt>
<pdfrwt beam="1">  1       21 0.42184112E-01 0.36706439E+03</pdfrwt>
<pdfrwt beam="2">  1       21 0.76700773E-01 0.36706439E+03</pdfrwt>
<totfact> 0.74578672E+03</totfact>
</mgrwt>
</event>
<event>
 4    1  0.4050555E+000  0.1802178E+03  0.7546771E-02  0.1167592E+00
         21   -1    0    0  501  502  0.00000000000E+00  0.00000000000E+00  0.14044405440E+04  0.14044405440E+04  0.00000000000E+00 0. -1.
         21   -1    0    0  502  503 -0.00000000000E+00 -0.00000000000E+00 -0.23863443943E+02  0.23863443943E+02  0.00000000000E+00 0. -1.
          6    1    1    2  501    0  0.50262739892E+02 -0.48081829831E+01  0.81586862137E+03  0.83553579754E+03  0.17300000000E+03 0. -1.
         -6    1    1    2    0  503 -0.50262739892E+02  0.48081829831E+01  0.56470847869E+03  0.59276819040E+03  0.17300000000E+03 0. -1.
<mgrwt>
<rscale>  2 0.18021782E+03</rscale>
<asrwt>0</asrwt>
<pdfrwt beam="1">  1       21 0.21606771E+00 0.18021782E+03</pdfrwt>
<pdfrwt beam="2">  1       21 0.36713002E-02 0.18021782E+03</pdfrwt>
<totfact> 0.48532730E+04</totfact>
</mgrwt>
</event>
<event>
 4    1  0.4050555E+000  0.1906112E+03  0.7546771E-02  0.1157911E+00
         21   -1    0    0  503  502  0.00000000000E+00  0.00000000000E+00  0.19649174324E+03  0.19649174324E+03  0.00000000000E+00 0. -1.
         21   -1    0    0  501  503 -0.00000000000E+00 -0.00000000000E+00 -0.19050670588E+03  0.19050670588E+03  0.00000000000E+00 0.  1.
          6    1    1    2  501    0 -0.15769960250E+02  0.78453386947E+02 -0.30183261814E+02  0.19298615200E+03  0.17300000000E+03 0.  1.
         -6    1    1    2    0  502  0.15769960250E+02 -0.78453386947E+02  0.36168299171E+02  0.19401229712E+03  0.17300000000E+03 0. -1.
<mgrwt>
<rscale>  2 0.19061119E+03</rscale>
<asrwt>0</asrwt>
<pdfrwt beam="1">  1       21 0.30229499E-01 0.19061119E+03</pdfrwt>
<pdfrwt beam="2">  1       21 0.29308724E-01 0.19061119E+03</pdfrwt>
<totfact> 0.11716176E+05</totfact>
</mgrwt>
</event>
<event>
 4    1  0.4050555E+000  0.2057607E+03  0.7546771E-02  0.1144968E+00
         21   -1    0    0  501  502  0.00000000000E+00  0.00000000000E+00  0.15330835734E+03  0.15330835734E+03  0.00000000000E+00 0. -1.
         21   -1    0    0  502  503 -0.00000000000E+00 -0.00000000000E+00 -0.29009463330E+03  0.29009463330E+03  0.00000000000E+00 0. -1.
          6    1    1    2  501    0 -0.10961252615E+03 -0.19838688740E+02 -0.19801397562E+02  0.20671133207E+03  0.17300000000E+03 0. -1.
         -6    1    1    2    0  503  0.10961252615E+03  0.19838688740E+02 -0.11698487840E+03  0.23669165857E+03  0.17300000000E+03 0. -1.
<mgrwt>
<rscale>  2 0.20576073E+03</rscale>
<asrwt>0</asrwt>
<pdfrwt beam="1">  1       21 0.23585902E-01 0.20576073E+03</pdfrwt>
<pdfrwt beam="2">  1       21 0.44629943E-01 0.20576073E+03</pdfrwt>
<totfact> 0.81101793E+04</totfact>
</mgrwt>
</event>
<event>
 4    1  0.4050555E+000  0.4109000E+03  0.7546771E-02  0.1040069E+00
         21   -1    0    0  503  502  0.00000000000E+00  0.00000000000E+00  0.68654585152E+03  0.68654585152E+03  0.00000000000E+00 0. -1.
         21   -1    0    0  501  503 -0.00000000000E+00 -0.00000000000E+00 -0.26707063782E+03  0.26707063782E+03  0.00000000000E+00 0. -1.
          6    1    1    2  501    0 -0.37122336628E+03  0.33212269418E+02  0.75572286523E+02  0.41779182975E+03  0.17300000000E+03 0. -1.
         -6    1    1    2    0  502  0.37122336628E+03 -0.33212269418E+02  0.34390292718E+03  0.53582465960E+03  0.17300000000E+03 0. -1.
<mgrwt>
<rscale>  2 0.41090004E+03</rscale>
<asrwt>0</asrwt>
<pdfrwt beam="1">  1       21 0.10562244E+00 0.41090004E+03</pdfrwt>
<pdfrwt beam="2">  1       21 0.41087791E-01 0.41090004E+03</pdfrwt>
<totfact> 0.36349562E+03</totfact>
</mgrwt>
</event>
<event>
 4    1  0.4050555E+000  0.2973908E+03  0.7546771E-02  0.1086552E+00
         21   -1    0    0  503  502  0.00000000000E+00  0.00000000000E+00  0.11782046662E+03  0.11782046662E+03  0.00000000000E+00 0. -1.
         21   -1    0    0  501  503 -0.00000000000E+00 -0.00000000000E+00 -0.90106580319E+03  0.90106580319E+03  0.00000000000E+00 0.  1.
          6    1    1    2  501    0  0.23971724554E+03 -0.32371350220E+02 -0.59977075208E+03  0.66945217692E+03  0.17300000000E+03 0.  1.
         -6    1    1    2    0  502 -0.23971724554E+03  0.32371350220E+02 -0.18347458449E+03  0.34943409289E+03  0.17300000000E+03 0. -1.
<mgrwt>
<rscale>  2 0.29739076E+03</rscale>
<asrwt>0</asrwt>
<pdfrwt beam="1">  1       21 0.18126225E-01 0.29739076E+03</pdfrwt>
<pdfrwt beam="2">  1       21 0.13862551E+00 0.29739076E+03</pdfrwt>
<totfact> 0.95406125E+03</totfact>
</mgrwt>
</event>
<event>
 4    1  0.4050555E+000  0.1827453E+03  0.7546771E-02  0.1165172E+00
         21   -1    0    0  501  502  0.00000000000E+00  0.00000000000E+00  0.17543713052E+04  0.17543713052E+04  0.00000000000E+00 0.  1.
         21   -1    0    0  502  503 -0.00000000000E+00 -0.00000000000E+00 -0.26841405722E+02  0.26841405722E+02  0.00000000000E+00 0.  1.
          6    1    1    2  501    0 -0.16063984908E+02 -0.56646238896E+02  0.13440362971E+04  0.13564031170E+04  0.17300000000E+03 0.  1.
         -6    1    1    2    0  503  0.16063984908E+02  0.56646238896E+02  0.38349360240E+03  0.42480959390E+03  0.17300000000E+03 0.  1.
<mgrwt>
<rscale>  2 0.18274531E+03</rscale>
<asrwt>0</asrwt>
<pdfrwt beam="1">  1       21 0.26990319E+00 0.18274531E+03</pdfrwt>
<pdfrwt beam="2">  1       21 0.41294484E-02 0.18274531E+03</pdfrwt>
<totfact> 0.19085991E+04</totfact>
</mgrwt>
</event>
<event>
 4    1  0.4050555E+000  0.1850945E+03  0.7546771E-02  0.1162962E+00
         21   -1    0    0  503  502  0.00000000000E+00  0.00000000000E+00  0.60950011032E+03  0.60950011032E+03  0.00000000000E+00 0.  1.
         21   -1    0    0  501  503 -0.00000000000E+00 -0.00000000000E+00 -0.56461304794E+02  0.56461304794E+02  0.00000000000E+00 0.  1.
          6    1    1    2  501    0 -0.54408031095E+02 -0.37023639804E+02  0.29873554970E+03  0.35142981150E+03  0.17300000000E+03 0. -1.
         -6    1    1    2    0  502  0.54408031095E+02  0.37023639804E+02  0.25430325582E+03  0.31453160361E+03  0.17300000000E+03 0. -1.
<mgrwt>
<rscale>  2 0.18509453E+03</rscale>
<asrwt>0</asrwt>
<pdfrwt beam="1">  1       21 0.93769243E-01 0.18509453E+03</pdfrwt>
<pdfrwt beam="2">  1       21 0.86863550E-02 0.18509453E+03</pdfrwt>
<totfact> 0.99573347E+04</totfact>
</mgrwt>
</event>
<event>
 4    1  0.4050555E+000  0.2366718E+03  0.7546771E-02  0.1122030E+00
         21   -1    0    0  503  502  0.00000000000E+00  0.00000000000E+00  0.86609539744E+03  0.86609539744E+03  0.00000000000E+00 0.  1.
         21   -1    0    0  501  503 -0.00000000000E+00 -0.00000000000E+00 -0.97355511550E+02  0.97355511550E+02  0.00000000000E+00 0. -1.
          6    1    1    2  501    0  0.16137205796E+03  0.66019742306E+01  0.10526154984E+03  0.25902417074E+03  0.17300000000E+03 0. -1.
         -6    1    1    2    0  502 -0.16137205796E+03 -0.66019742306E+01  0.66347833605E+03  0.70442673825E+03  0.17300000000E+03 0.  1.
<mgrwt>
<rscale>  2 0.23667177E+03</rscale>
<asrwt>0</asrwt>
<pdfrwt beam="1">  1       21 0.13324544E+00 0.23667177E+03</pdfrwt>
<pdfrwt beam="2">  1       21 0.14977772E-01 0.23667177E+03</pdfrwt>
<totfact> 0.15531849E+04</totfact>
</mgrwt>
</event>
<event>
 4    1  0.4050555E+000  0.2482987E+03  0.7546771E-02  0.1114385E+00
         21   -1    0    0  501  502  0.00000000000E+00  0.00000000000E+00  0.61557554392E+02  0.61557554392E+02  0.00000000000E+00 0.  1.
         21   -1    0    0  502  503 -0.00000000000E+00 -0.00000000000E+00 -0.10479714749E+04  0.10479714749E+04  0.00000000000E+00 0.  1.
          6    1    1    2  501    0  0.17525117018E+03 -0.31785000104E+02 -0.37643264348E+03  0.45094766211E+03  0.17300000000E+03 0.  1.
         -6    1    1    2    0  503 -0.17525117018E+03  0.31785000104E+02 -0.60998127706E+03  0.65858136722E+03  0.17300000000E+03 0.  1.
<mgrwt>
<rscale>  2 0.24829873E+03</rscale>
<asrwt>0</asrwt>
<pdfrwt beam="1">  1       21 0.94703927E-02 0.24829873E+03</pdfrwt>
<pdfrwt beam="2">  1       21 0.16122639E+00 0.24829873E+03</pdfrwt>
<totfact> 0.21272773E+04</totfact>
</mgrwt>
</event>
<event>
 4    1  0.4050555E+000  0.1890862E+03  0.7546771E-02  0.1159288E+00
         21   -1    0    0  501  502  0.00000000000E+00  0.00000000000E+00  0.23396841311E+04  0.23396841311E+04  0.00000000000E+00 0.  1.
         21   -1    0    0  502  503 -0.00000000000E+00 -0.00000000000E+00 -0.20886825174E+02  0.20886825174E+02  0.00000000000E+00 0.  1.
          6    1    1    2  501    0 -0.76072606559E+02 -0.61290802791E+01  0.17708414354E+04  0.17809079135E+04  0.17300000000E+03 0.  1.
         -6    1    1    2    0  503  0.76072606559E+02  0.61290802791E+01  0.54795587048E+03  0.57966304271E+03  0.17300000000E+03 0.  1.
<mgrwt>
<rscale>  2 0.18908624E+03</rscale>
<asrwt>0</asrwt>
<pdfrwt beam="1">  1       21 0.35995120E+00 0.18908624E+03</pdfrwt>
<pdfrwt beam="2">  1       21 0.32133596E-02 0.18908624E+03</pdfrwt>
<totfact> 0.86579724E+03</totfact>
</mgrwt>
</event>
<event>
 4    1  0.4050555E+000  0.2082780E+03  0.7546771E-02  0.1142937E+00
         21   -1    0    0  503  502  0.00000000000E+00  0.00000000000E+00  0.86736016564E+02  0.86736016564E+02  0.00000000000E+00 0. -1.
         21   -1    0    0  501  503 -0.00000000000E+00 -0.00000000000E+00 -0.58453946541E+03  0.58453946541E+03  0.00000000000E+00 0.  1.
          6    1    1    2  501    0  0.11588937317E+03  0.45142161914E+01 -0.37644171045E+03  0.43021864945E+03  0.17300000000E+03 0.  1.
         -6    1    1    2    0  502 -0.11588937317E+03 -0.45142161914E+01 -0.12136173839E+03  0.24105683253E+03  0.17300000000E+03 0. -1.
<mgrwt>
<rscale>  2 0.20827800E+03</rscale>
<asrwt>0</asrwt>
<pdfrwt beam="1">  1       21 0.13344003E-01 0.20827800E+03</pdfrwt>
<pdfrwt beam="2">  1       21 0.89929147E-01 0.20827800E+03</pdfrwt>
<totfact> 0.50641586E+04</totfact>
</mgrwt>
</event>
<event>
 4    1  0.4050555E+000  0.2510700E+03  0.7546771E-02  0.1112630E+00
         21   -1    0    0  501  502  0.00000000000E+00  0.00000000000E+00  0.75025264412E+02  0.75025264412E+02  0.00000000000E+00 0. -1.
         21   -1    0    0  502  503 -0.00000000000E+00 -0.00000000000E+00 -0.84716992342E+03  0.84716992342E+03  0.00000000000E+00 0. -1.
          6    1    1    2  501    0  0.10744816113E+03  0.14684020434E+03 -0.42789891495E+03  0.49611856885E+03  0.17300000000E+03 0. -1.
         -6    1    1    2    0  503 -0.10744816113E+03 -0.14684020434E+03 -0.34424574406E+03  0.42607661898E+03  0.17300000000E+03 0. -1.
<mgrwt>
<rscale>  2 0.25107002E+03</rscale>
<asrwt>0</asrwt>
<pdfrwt beam="1">  1       21 0.11542348E-01 0.25107002E+03</pdfrwt>
<pdfrwt beam="2">  1       21 0.13033384E+00 0.25107002E+03</pdfrwt>
<totfact> 0.26145509E+04</totfact>
</mgrwt>
</event>
<event>
 4    1  0.4050555E+000  0.1810508E+03  0.7546771E-02  0.1166790E+00
         21   -1    0    0  503  502  0.00000000000E+00  0.00000000000E+00  0.10165280571E+04  0.10165280571E+04  0.00000000000E+00 0.  1.
         21   -1    0    0  501  503 -0.00000000000E+00 -0.00000000000E+00 -0.55983442766E+02  0.55983442766E+02  0.00000000000E+00 0.  1.
          6    1    1    2  501    0 -0.12737367440E+02 -0.51847281424E+02  0.13108747567E+03  0.22352473554E+03  0.17300000000E+03 0.  1.
         -6    1    1    2    0  502  0.12737367440E+02  0.51847281424E+02  0.82945713870E+03  0.84898676436E+03  0.17300000000E+03 0.  1.
<mgrwt>
<rscale>  2 0.18105077E+03</rscale>
<asrwt>0</asrwt>
<pdfrwt beam="1">  1       21 0.15638892E+00 0.18105077E+03</pdfrwt>
<pdfrwt beam="2">  1       21 0.86128381E-02 0.18105077E+03</pdfrwt>
<totfact> 0.28445470E+04</totfact>
</mgrwt>
</event>
<event>
 4    1  0.4050555E+000  0.1780733E+03  0.7546771E-02  0.1169681E+00
         21   -1    0    0  501  502  0.00000000000E+00  0.00000000000E+00  0.88185984130E+02  0.88185984130E+02  0.00000000000E+00 0. -1.
         21   -1    0    0  502  503 -0.00000000000E+00 -0.00000000000E+00 -0.76657210658E+03  0.76657210658E+03  0.00000000000E+00 0. -1.
          6    1    1    2  501    0  0.25357563612E+02 -0.33735418302E+02 -0.27785829887E+02  0.18022801342E+03  0.17300000000E+03 0. -1.
         -6    1    1    2    0  503 -0.25357563612E+02  0.33735418302E+02 -0.65060029257E+03  0.67453007729E+03  0.17300000000E+03 0. -1.
<mgrwt>
<rscale>  2 0.17807326E+03</rscale>
<asrwt>0</asrwt>
<pdfrwt beam="1">  1       21 0.13567075E-01 0.17807326E+03</pdfrwt>
<pdfrwt beam="2">  1       21 0.11793417E+00 0.17807326E+03</pdfrwt>
<totfact> 0.26173084E+04</totfact>
</mgrwt>
</event>
<event>
 4    1  0.4050555E+000  0.1888447E+03  0.7546771E-02  0.1159507E+00
         21   -1    0    0  501  502  0.00000000000E+00  0.00000000000E+00  0.19741192434E+04  0.19741192434E+04  0.00000000000E+00 0.  1.
         21   -1    0    0  502  503 -0.00000000000E+00 -0.00000000000E+00 -0.24565433130E+02  0.24565433130E+02  0.00000000000E+00 0.  1.
          6    1    1    2  501    0 -0.40084931403E+02 -0.64238061056E+02  0.14888507258E+04  0.15007794021E+04  0.17300000000E+03 0.  1.
         -6    1    1    2    0  503  0.40084931403E+02  0.64238061056E+02  0.46070308449E+03  0.49790527440E+03  0.17300000000E+03 0.  1.
<mgrwt>
<rscale>  2 0.18884473E+03</rscale>
<asrwt>0</asrwt>
<pdfrwt beam="1">  1       21 0.30371053E+00 0.18884473E+03</pdfrwt>
<pdfrwt beam="2">  1       21 0.37792989E-02 0.18884473E+03</pdfrwt>
<totfact> 0.14060126E+04</totfact>
</mgrwt>
</event>
<event>
 4    1  0.4050555E+000  0.3427645E+03  0.7546771E-02  0.1065625E+00
         21   -1    0    0  503  502  0.00000000000E+00  0.00000000000E+00  0.78663992776E+03  0.78663992776E+03  0.00000000000E+00 0. -1.
         21   -1    0    0  501  503 -0.00000000000E+00 -0.00000000000E+00 -0.19707811895E+03  0.19707811895E+03  0.00000000000E+00 0.  1.
          6    1    1    2  501    0 -0.25801512413E+03 -0.14486793049E+03  0.52738129364E+02  0.34679796979E+03  0.17300000000E+03 0.  1.
         -6    1    1    2    0  502  0.25801512413E+03  0.14486793049E+03  0.53682367944E+03  0.63692007691E+03  0.17300000000E+03 0. -1.
<mgrwt>
<rscale>  2 0.34276453E+03</rscale>
<asrwt>0</asrwt>
<pdfrwt beam="1">  1       21 0.12102153E+00 0.34276453E+03</pdfrwt>
<pdfrwt beam="2">  1       21 0.30319711E-01 0.34276453E+03</pdfrwt>
<totfact> 0.49260497E+03</totfact>
</mgrwt>
</event>
<event>
 4    1  0.4050555E+000  0.2099943E+03  0.7546771E-02  0.1141571E+00
         21   -1    0    0  503  502  0.00000000000E+00  0.00000000000E+00  0.33343925077E+02  0.33343925077E+02  0.00000000000E+00 0. -1.
         21   -1    0    0  501  503 -0.00000000000E+00 -0.00000000000E+00 -0.17196736675E+04  0.17196736675E+04  0.00000000000E+00 0.  1.
          6    1    1    2  501    0 -0.11629286138E+03  0.25388231450E+02 -0.12643949414E+04  0.12817145391E+04  0.17300000000E+03 0.  1.
         -6    1    1    2    0  502  0.11629286138E+03 -0.25388231450E+02 -0.42193480107E+03  0.47130305352E+03  0.17300000000E+03 0. -1.
<mgrwt>
<rscale>  2 0.20999427E+03</rscale>
<asrwt>0</asrwt>
<pdfrwt beam="1">  1       21 0.51298345E-02 0.20999427E+03</pdfrwt>
<pdfrwt beam="2">  1       21 0.26456519E+00 0.20999427E+03</pdfrwt>
<totfact> 0.13853842E+04</totfact>
</mgrwt>
</event>
<event>
 4    1  0.4050555E+000  0.1933272E+03  0.7546771E-02  0.1155494E+00
         21   -1    0    0  501  502  0.00000000000E+00  0.00000000000E+00  0.92816544020E+03  0.92816544020E+03  0.00000000000E+00 0.  1.
         21   -1    0    0  502  503 -0.00000000000E+00 -0.00000000000E+00 -0.43454918494E+02  0.43454918494E+02  0.00000000000E+00 0.  1.
          6    1    1    2  501    0  0.75488471943E+02 -0.41807723304E+02  0.57391726386E+03  0.60560417838E+03  0.17300000000E+03 0.  1.
         -6    1    1    2    0  503 -0.75488471943E+02  0.41807723304E+02  0.31079325785E+03  0.36601618031E+03  0.17300000000E+03 0.  1.
<mgrwt>
<rscale>  2 0.19332717E+03</rscale>
<asrwt>0</asrwt>
<pdfrwt beam="1">  1       21 0.14279467E+00 0.19332717E+03</pdfrwt>
<pdfrwt beam="2">  1       21 0.66853728E-02 0.19332717E+03</pdfrwt>
<totfact> 0.55652831E+04</totfact>
</mgrwt>
</event>
<event>
 4    1  0.4050555E+000  0.2363584E+03  0.7546771E-02  0.1122243E+00
         21   -1    0    0  503  502  0.00000000000E+00  0.00000000000E+00  0.87758634189E+02  0.87758634189E+02  0.00000000000E+00 0. -1.
         21   -1    0    0  501  503 -0.00000000000E+00 -0.00000000000E+00 -0.70273280818E+03  0.70273280818E+03  0.00000000000E+00 0.  1.
          6    1    1    2  501    0  0.15434282516E+03  0.45984506110E+02 -0.42875622114E+03  0.48958878628E+03  0.17300000000E+03 0.  1.
         -6    1    1    2    0  502 -0.15434282516E+03 -0.45984506110E+02 -0.18621795285E+03  0.30090265609E+03  0.17300000000E+03 0. -1.
<mgrwt>
<rscale>  2 0.23635838E+03</rscale>
<asrwt>0</asrwt>
<pdfrwt beam="1">  1       21 0.13501328E-01 0.23635838E+03</pdfrwt>
<pdfrwt beam="2">  1       21 0.10811274E+00 0.23635838E+03</pdfrwt>
<totfact> 0.31581179E+04</totfact>
</mgrwt>
</event>
<event>
 4    1  0.4050555E+000  0.1762884E+03  0.7546771E-02  0.1171444E+00
         21   -1    0    0  501  502  0.00000000000E+00  0.00000000000E+00  0.60193349949E+03  0.60193349949E+03  0.00000000000E+00 0. -1.
         21   -1    0    0  502  503 -0.00000000000E+00 -0.00000000000E+00 -0.39355321688E+03  0.39355321688E+03  0.00000000000E+00 0. -1.
          6    1    1    2  501    0  0.31788853964E+02 -0.11750049880E+02  0.56813704436E+03  0.59485905564E+03  0.17300000000E+03 0. -1.
         -6    1    1    2    0  503 -0.31788853964E+02  0.11750049880E+02 -0.35975676176E+03  0.40062766073E+03  0.17300000000E+03 0. -1.
<mgrwt>
<rscale>  2 0.17628839E+03</rscale>
<asrwt>0</asrwt>
<pdfrwt beam="1">  1       21 0.92605154E-01 0.17628839E+03</pdfrwt>
<pdfrwt beam="2">  1       21 0.60546649E-01 0.17628839E+03</pdfrwt>
<totfact> 0.25358885E+03</totfact>
</mgrwt>
</event>
<event>
 4    1  0.4050555E+000  0.1918412E+03  0.7546771E-02  0.1156811E+00
         21   -1    0    0  503  502  0.00000000000E+00  0.00000000000E+00  0.17725805119E+04  0.17725805119E+04  0.00000000000E+00 0. -1.
         21   -1    0    0  501  503 -0.00000000000E+00 -0.00000000000E+00 -0.23079040126E+02  0.23079040126E+02  0.00000000000E+00 0. -1.
          6    1    1    2  501    0 -0.69179509950E+02  0.45697159331E+02  0.59029550383E+03  0.62068656890E+03  0.17300000000E+03 0. -1.
         -6    1    1    2    0  502  0.69179509950E+02 -0.45697159331E+02  0.11592059680E+04  0.11749729832E+04  0.17300000000E+03 0. -1.
<mgrwt>
<rscale>  2 0.19184117E+03</rscale>
<asrwt>0</asrwt>
<pdfrwt beam="1">  1       21 0.27270459E+00 0.19184117E+03</pdfrwt>
<pdfrwt beam="2">  1       21 0.35506230E-02 0.19184117E+03</pdfrwt>
<totfact> 0.23467630E+04</totfact>
</mgrwt>
</event>
<event>
 4    1  0.4050555E+000  0.1867367E+03  0.7546771E-02  0.1161438E+00
         21   -1    0    0  501  502  0.00000000000E+00  0.00000000000E+00  0.13453242637E+04  0.13453242637E+04  0.00000000000E+00 0.  1.
         21   -1    0    0  502  503 -0.00000000000E+00 -0.00000000000E+00 -0.26792366211E+02  0.26792366211E+02  0.00000000000E+00 0.  1.
          6    1    1    2  501    0 -0.70047642427E+02 -0.59085608811E+01  0.78307315252E+03  0.80503052458E+03  0.17300000000E+03 0.  1.
         -6    1    1    2    0  503  0.70047642427E+02  0.59085608811E+01  0.53545874496E+03  0.56708610533E+03  0.17300000000E+03 0.  1.
<mgrwt>
<rscale>  2 0.18673667E+03</rscale>
<asrwt>0</asrwt>
<pdfrwt beam="1">  1       21 0.20697291E+00 0.18673667E+03</pdfrwt>
<pdfrwt beam="2">  1       21 0.41219035E-02 0.18673667E+03</pdfrwt>
<totfact> 0.45354674E+04</totfact>
</mgrwt>
</event>
<event>
 4    1  0.4050555E+000  0.2011096E+03  0.7546771E-02  0.1148806E+00
         21   -1    0    0  503  502  0.00000000000E+00  0.00000000000E+00  0.54314517525E+02  0.54314517525E+02  0.00000000000E+00 0.  1.
         21   -1    0    0  501  503 -0.00000000000E+00 -0.00000000000E+00 -0.75499304616E+03  0.75499304616E+03  0.00000000000E+00 0. -1.
          6    1    1    2  501    0 -0.15562160162E+02  0.10136024654E+03 -0.39771144080E+03  0.44566744390E+03  0.17300000000E+03 0.  1.
         -6    1    1    2    0  502  0.15562160162E+02 -0.10136024654E+03 -0.30296708783E+03  0.36364011978E+03  0.17300000000E+03 0. -1.
<mgrwt>
<rscale>  2 0.20110962E+03</rscale>
<asrwt>0</asrwt>
<pdfrwt beam="1">  1       21 0.83560800E-02 0.20110962E+03</pdfrwt>
<pdfrwt beam="2">  1       21 0.11615277E+00 0.20110962E+03</pdfrwt>
<totfact> 0.63372818E+04</totfact>
</mgrwt>
</event>
<event>
 4    1  0.4050555E+000  0.2014809E+03  0.7546771E-02  0.1148496E+00
         21   -1    0    0  501  502  0.00000000000E+00  0.00000000000E+00  0.99352111555E+03  0.99352111555E+03  0.00000000000E+00 0.  1.
         21   -1    0    0  502  503 -0.00000000000E+00 -0.00000000000E+00 -0.67523679089E+02  0.67523679089E+02  0.00000000000E+00 0.  1.
          6    1    1    2  501    0 -0.43799756505E+02 -0.93526129466E+02  0.79638029069E+03  0.82147192464E+03  0.17300000000E+03 0.  1.
         -6    1    1    2    0  503  0.43799756505E+02  0.93526129466E+02  0.12961714576E+03  0.23957287000E+03  0.17300000000E+03 0.  1.
<mgrwt>
<rscale>  2 0.20148091E+03</rscale>
<asrwt>0</asrwt>
<pdfrwt beam="1">  1       21 0.15284939E+00 0.20148091E+03</pdfrwt>
<pdfrwt beam="2">  1       21 0.10388259E-01 0.20148091E+03</pdfrwt>
<totfact> 0.21448099E+04</totfact>
</mgrwt>
</event>
<event>
 4    1  0.4050555E+000  0.2685352E+03  0.7546771E-02  0.1102121E+00
         21   -1    0    0  501  502  0.00000000000E+00  0.00000000000E+00  0.21589762525E+03  0.21589762525E+03  0.00000000000E+00 0.  1.
         21   -1    0    0  502  503 -0.00000000000E+00 -0.00000000000E+00 -0.36726415653E+03  0.36726415653E+03  0.00000000000E+00 0. -1.
          6    1    1    2  501    0  0.14745399460E+03  0.14296660404E+03  0.12060853911E+02  0.26880586785E+03  0.17300000000E+03 0. -1.
         -6    1    1    2    0  503 -0.14745399460E+03 -0.14296660404E+03 -0.16342738519E+03  0.31435591393E+03  0.17300000000E+03 0.  1.
<mgrwt>
<rscale>  2 0.26853516E+03</rscale>
<asrwt>0</asrwt>
<pdfrwt beam="1">  1       21 0.33215020E-01 0.26853516E+03</pdfrwt>
<pdfrwt beam="2">  1       21 0.56502177E-01 0.26853516E+03</pdfrwt>
<totfact> 0.24750773E+04</totfact>
</mgrwt>
</event>
<event>
 4    1  0.4050555E+000  0.1780156E+03  0.7546771E-02  0.1169737E+00
         21   -1    0    0  501  502  0.00000000000E+00  0.00000000000E+00  0.22894559493E+03  0.22894559493E+03  0.00000000000E+00 0.  1.
         21   -1    0    0  502  503 -0.00000000000E+00 -0.00000000000E+00 -0.16531652707E+03  0.16531652707E+03  0.00000000000E+00 0.  1.
          6    1    1    2  501    0  0.41596000004E+02  0.55067849896E+01  0.11133587935E+03  0.20996483021E+03  0.17300000000E+03 0.  1.
         -6    1    1    2    0  503 -0.41596000004E+02 -0.55067849896E+01 -0.47706811484E+02  0.18429729178E+03  0.17300000000E+03 0.  1.
<mgrwt>
<rscale>  2 0.17801559E+03</rscale>
<asrwt>0</asrwt>
<pdfrwt beam="1">  1       21 0.35222399E-01 0.17801559E+03</pdfrwt>
<pdfrwt beam="2">  1       21 0.25433312E-01 0.17801559E+03</pdfrwt>
<totfact> 0.11450309E+05</totfact>
</mgrwt>
</event>
<event>
 4    1  0.4050555E+000  0.1909543E+03  0.7546771E-02  0.1157603E+00
         21   -1    0    0  501  502  0.00000000000E+00  0.00000000000E+00  0.31444338119E+03  0.31444338119E+03  0.00000000000E+00 0.  1.
         21   -1    0    0  502  503 -0.00000000000E+00 -0.00000000000E+00 -0.11673203173E+03  0.11673203173E+03  0.00000000000E+00 0.  1.
          6    1    1    2  501    0 -0.33608073491E+02  0.73519021558E+02  0.11636318115E+03  0.22361560559E+03  0.17300000000E+03 0.  1.
         -6    1    1    2    0  503  0.33608073491E+02 -0.73519021558E+02  0.81348168305E+02  0.20755980734E+03  0.17300000000E+03 0.  1.
<mgrwt>
<rscale>  2 0.19095431E+03</rscale>
<asrwt>0</asrwt>
<pdfrwt beam="1">  1       21 0.48375905E-01 0.19095431E+03</pdfrwt>
<pdfrwt beam="2">  1       21 0.17958774E-01 0.19095431E+03</pdfrwt>
<totfact> 0.11514797E+05</totfact>
</mgrwt>
</event>
<event>
 4    1  0.4050555E+000  0.1794676E+03  0.7546771E-02  0.1168319E+00
         21   -1    0    0  503  502  0.00000000000E+00  0.00000000000E+00  0.39672444076E+02  0.39672444076E+02  0.00000000000E+00 0.  1.
         21   -1    0    0  501  503 -0.00000000000E+00 -0.00000000000E+00 -0.87189736917E+03  0.87189736917E+03  0.00000000000E+00 0.  1.
          6    1    1    2  501    0 -0.30564011310E+02 -0.36680427680E+02 -0.53571079536E+03  0.56497315762E+03  0.17300000000E+03 0.  1.
         -6    1    1    2    0  502  0.30564011310E+02  0.36680427680E+02 -0.29651412974E+03  0.34659665563E+03  0.17300000000E+03 0.  1.
<mgrwt>
<rscale>  2 0.17946758E+03</rscale>
<asrwt>0</asrwt>
<pdfrwt beam="1">  1       21 0.61034532E-02 0.17946758E+03</pdfrwt>
<pdfrwt beam="2">  1       21 0.13413805E+00 0.17946758E+03</pdfrwt>
<totfact> 0.76949684E+04</totfact>
</mgrwt>
</event>
<event>
 4    1  0.4050555E+000  0.2398241E+03  0.7546771E-02  0.1119910E+00
         21   -1    0    0  503  502  0.00000000000E+00  0.00000000000E+00  0.33584886191E+03  0.33584886191E+03  0.00000000000E+00 0. -1.
         21   -1    0    0  501  503 -0.00000000000E+00 -0.00000000000E+00 -0.17264451327E+03  0.17264451327E+03  0.00000000000E+00 0. -1.
          6    1    1    2  501    0 -0.13853531771E+03  0.91621738468E+02  0.10441675221E+03  0.26156917891E+03  0.17300000000E+03 0. -1.
         -6    1    1    2    0  502  0.13853531771E+03 -0.91621738468E+02  0.58787596423E+02  0.24692419627E+03  0.17300000000E+03 0. -1.
<mgrwt>
<rscale>  2 0.23982405E+03</rscale>
<asrwt>0</asrwt>
<pdfrwt beam="1">  1       21 0.51669055E-01 0.23982405E+03</pdfrwt>
<pdfrwt beam="2">  1       21 0.26560695E-01 0.23982405E+03</pdfrwt>
<totfact> 0.46951668E+04</totfact>
</mgrwt>
</event>
<event>
 4    1  0.4050555E+000  0.1746288E+03  0.7546771E-02  0.1173105E+00
         21   -1    0    0  503  502  0.00000000000E+00  0.00000000000E+00  0.45282185982E+03  0.45282185982E+03  0.00000000000E+00 0.  1.
         21   -1    0    0  501  503 -0.00000000000E+00 -0.00000000000E+00 -0.95174571141E+02  0.95174571141E+02  0.00000000000E+00 0. -1.
          6    1    1    2  501    0  0.16750342986E+02  0.16901107977E+02  0.30659991557E+02  0.17729990559E+03  0.17300000000E+03 0. -1.
         -6    1    1    2    0  502 -0.16750342986E+02 -0.16901107977E+02  0.32698729712E+03  0.37069652536E+03  0.17300000000E+03 0.  1.
<mgrwt>
<rscale>  2 0.17462881E+03</rscale>
<asrwt>0</asrwt>
<pdfrwt beam="1">  1       21 0.69664900E-01 0.17462881E+03</pdfrwt>
<pdfrwt beam="2">  1       21 0.14642242E-01 0.17462881E+03</pdfrwt>
<totfact> 0.77348347E+04</totfact>
</mgrwt>
</event>
<event>
 4    1  0.4050555E+000  0.2430848E+03  0.7546771E-02  0.1117755E+00
         21   -1    0    0  503  502  0.00000000000E+00  0.00000000000E+00  0.29545267810E+03  0.29545267810E+03  0.00000000000E+00 0.  1.
         21   -1    0    0  501  503 -0.00000000000E+00 -0.00000000000E+00 -0.44956040913E+03  0.44956040913E+03  0.00000000000E+00 0. -1.
          6    1    1    2  501    0  0.16036318595E+03  0.58692835050E+02 -0.35459586279E+03  0.42991676660E+03  0.17300000000E+03 0. -1.
         -6    1    1    2    0  502 -0.16036318595E+03 -0.58692835050E+02  0.20048813176E+03  0.31509632063E+03  0.17300000000E+03 0.  1.
<mgrwt>
<rscale>  2 0.24308476E+03</rscale>
<asrwt>0</asrwt>
<pdfrwt beam="1">  1       21 0.45454258E-01 0.24308476E+03</pdfrwt>
<pdfrwt beam="2">  1       21 0.69163140E-01 0.24308476E+03</pdfrwt>
<totfact> 0.85460858E+03</totfact>
</mgrwt>
</event>
<event>
 4    1  0.4050555E+000  0.1798275E+03  0.7546771E-02  0.1167970E+00
         21   -1    0    0  501  502  0.00000000000E+00  0.00000000000E+00  0.22340305313E+02  0.22340305313E+02  0.00000000000E+00 0.  1.
         21   -1    0    0  502  503 -0.00000000000E+00 -0.00000000000E+00 -0.21216358442E+04  0.21216358442E+04  0.00000000000E+00 0.  1.
          6    1    1    2  501    0 -0.46899408502E+02 -0.14469338512E+02 -0.44538816036E+03  0.48032127755E+03  0.17300000000E+03 0.  1.
         -6    1    1    2    0  503  0.46899408502E+02  0.14469338512E+02 -0.16539073785E+04  0.16636548720E+04  0.17300000000E+03 0.  1.
<mgrwt>
<rscale>  2 0.17982746E+03</rscale>
<asrwt>0</asrwt>
<pdfrwt beam="1">  1       21 0.34369705E-02 0.17982746E+03</pdfrwt>
<pdfrwt beam="2">  1       21 0.32640547E+00 0.17982746E+03</pdfrwt>
<totfact> 0.12312966E+04</totfact>
</mgrwt>
</event>
<event>
 4    1  0.4050555E+000  0.2674982E+03  0.7546771E-02  0.1102720E+00
         21   -1    0    0  501  502  0.00000000000E+00  0.00000000000E+00  0.40165151506E+02  0.40165151506E+02  0.00000000000E+00 0.  1.
         21   -1    0    0  502  503 -0.00000000000E+00 -0.00000000000E+00 -0.27380578846E+04  0.27380578846E+04  0.00000000000E+00 0. -1.
          6    1    1    2  501    0  0.61670437471E+01 -0.20393200705E+03 -0.52790444580E+03  0.59180942864E+03  0.17300000000E+03 0.  1.
         -6    1    1    2    0  503 -0.61670437471E+01  0.20393200705E+03 -0.21699882873E+04  0.21864136074E+04  0.17300000000E+03 0. -1.
<mgrwt>
<rscale>  2 0.26749822E+03</rscale>
<asrwt>0</asrwt>
<pdfrwt beam="1">  1       21 0.61792552E-02 0.26749822E+03</pdfrwt>
<pdfrwt beam="2">  1       21 0.42123960E+00 0.26749822E+03</pdfrwt>
<totfact> 0.10880424E+03</totfact>
</mgrwt>
</event>
<event>
 4    1  0.4050555E+000  0.2386893E+03  0.7546771E-02  0.1120669E+00
         21   -1    0    0  503  502  0.00000000000E+00  0.00000000000E+00  0.99191858883E+03  0.99191858883E+03  0.00000000000E+00 0.  1.
         21   -1    0    0  501  503 -0.00000000000E+00 -0.00000000000E+00 -0.92720317516E+02  0.92720317516E+02  0.00000000000E+00 0. -1.
          6    1    1    2  501    0  0.69565821784E+02 -0.14901067887E+03  0.11505460363E+03  0.26497197549E+03  0.17300000000E+03 0. -1.
         -6    1    1    2    0  502 -0.69565821784E+02  0.14901067887E+03  0.78414366768E+03  0.81966693085E+03  0.17300000000E+03 0.  1.
<mgrwt>
<rscale>  2 0.23868931E+03</rscale>
<asrwt>0</asrwt>
<pdfrwt beam="1">  1       21 0.15260285E+00 0.23868931E+03</pdfrwt>
<pdfrwt beam="2">  1       21 0.14264665E-01 0.23868931E+03</pdfrwt>
<totfact> 0.11894925E+04</totfact>
</mgrwt>
</event>
<event>
 4    1  0.4050555E+000  0.1813164E+03  0.7546771E-02  0.1166535E+00
         21   -1    0    0  501  502  0.00000000000E+00  0.00000000000E+00  0.24567292019E+03  0.24567292019E+03  0.00000000000E+00 0.  1.
         21   -1    0    0  502  503 -0.00000000000E+00 -0.00000000000E+00 -0.20561880518E+03  0.20561880518E+03  0.00000000000E+00 0.  1.
          6    1    1    2  501    0 -0.53758162131E+02  0.75303290771E+01  0.15336640156E+03  0.23748031282E+03  0.17300000000E+03 0.  1.
         -6    1    1    2    0  503  0.53758162131E+02 -0.75303290771E+01 -0.11331228655E+03  0.21381141255E+03  0.17300000000E+03 0.  1.
<mgrwt>
<rscale>  2 0.18131642E+03</rscale>
<asrwt>0</asrwt>
<pdfrwt beam="1">  1       21 0.37795834E-01 0.18131642E+03</pdfrwt>
<pdfrwt beam="2">  1       21 0.31633663E-01 0.18131642E+03</pdfrwt>
<totfact> 0.65176191E+04</totfact>
</mgrwt>
</event>
<event>
 4    1  0.4050555E+000  0.1927290E+03  0.7546771E-02  0.1156023E+00
         21   -1    0    0  501  502  0.00000000000E+00  0.00000000000E+00  0.27805321829E+02  0.27805321829E+02  0.00000000000E+00 0.  1.
         21   -1    0    0  502  503 -0.00000000000E+00 -0.00000000000E+00 -0.19348493727E+04  0.19348493727E+04  0.00000000000E+00 0.  1.
          6    1    1    2  501    0  0.20035601597E+02  0.82547222964E+02 -0.40752033796E+03  0.45079629014E+03  0.17300000000E+03 0.  1.
         -6    1    1    2    0  503 -0.20035601597E+02 -0.82547222964E+02 -0.14995237129E+04  0.15118584044E+04  0.17300000000E+03 0.  1.
<mgrwt>
<rscale>  2 0.19272900E+03</rscale>
<asrwt>0</asrwt>
<pdfrwt beam="1">  1       21 0.42777411E-02 0.19272900E+03</pdfrwt>
<pdfrwt beam="2">  1       21 0.29766918E+00 0.19272900E+03</pdfrwt>
<totfact> 0.12323703E+04</totfact>
</mgrwt>
</event>
<event>
 4    1  0.4050555E+000  0.1965198E+03  0.7546771E-02  0.1152709E+00
         21   -1    0    0  501  502  0.00000000000E+00  0.00000000000E+00  0.42016613313E+02  0.42016613313E+02  0.00000000000E+00 0. -1.
         21   -1    0    0  502  503 -0.00000000000E+00 -0.00000000000E+00 -0.92464845268E+03  0.92464845268E+03  0.00000000000E+00 0. -1.
          6    1    1    2  501    0  0.89686279416E+02 -0.25444097479E+02 -0.47855033245E+03  0.51733011849E+03  0.17300000000E+03 0. -1.
         -6    1    1    2    0  503 -0.89686279416E+02  0.25444097479E+02 -0.40408150692E+03  0.44933494750E+03  0.17300000000E+03 0. -1.
<mgrwt>
<rscale>  2 0.19651980E+03</rscale>
<asrwt>0</asrwt>
<pdfrwt beam="1">  1       21 0.64640948E-02 0.19651980E+03</pdfrwt>
<pdfrwt beam="2">  1       21 0.14225360E+00 0.19651980E+03</pdfrwt>
<totfact> 0.59451690E+04</totfact>
</mgrwt>
</event>
<event>
 4    1  0.4050555E+000  0.1896232E+03  0.7546771E-02  0.1158802E+00
         21   -1    0    0  503  502  0.00000000000E+00  0.00000000000E+00  0.31649223711E+03  0.31649223711E+03  0.00000000000E+00 0. -1.
         21   -1    0    0  501  503 -0.00000000000E+00 -0.00000000000E+00 -0.20781477259E+03  0.20781477259E+03  0.00000000000E+00 0. -1.
          6    1    1    2  501    0 -0.84873022903E+01  0.77174701128E+02 -0.12216416227E+03  0.22556828531E+03  0.17300000000E+03 0. -1.
         -6    1    1    2    0  502  0.84873022903E+01 -0.77174701128E+02  0.23084162678E+03  0.29873872439E+03  0.17300000000E+03 0. -1.
<mgrwt>
<rscale>  2 0.18962323E+03</rscale>
<asrwt>0</asrwt>
<pdfrwt beam="1">  1       21 0.48691113E-01 0.18962323E+03</pdfrwt>
<pdfrwt beam="2">  1       21 0.31971503E-01 0.18962323E+03</pdfrwt>
<totfact> 0.37944760E+04</totfact>
</mgrwt>
</event>
<event>
 4    1  0.4050555E+000  0.2883231E+03  0.7546771E-02  0.1091228E+00
         21   -1    0    0  503  502  0.00000000000E+00  0.00000000000E+00  0.12567339865E+03  0.12567339865E+03  0.00000000000E+00 0. -1.
         21   -1    0    0  501  503 -0.00000000000E+00 -0.00000000000E+00 -0.66359040585E+03  0.66359040585E+03  0.00000000000E+00 0.  1.
          6    1    1    2  501    0 -0.22878557401E+03  0.29298215088E+02 -0.29122241497E+03  0.40980570916E+03  0.17300000000E+03 0.  1.
         -6    1    1    2    0  502  0.22878557401E+03 -0.29298215088E+02 -0.24669459223E+03  0.37945809534E+03  0.17300000000E+03 0. -1.
<mgrwt>
<rscale>  2 0.28832312E+03</rscale>
<asrwt>0</asrwt>
<pdfrwt beam="1">  1       21 0.19334369E-01 0.28832312E+03</pdfrwt>
<pdfrwt beam="2">  1       21 0.10209083E+00 0.28832312E+03</pdfrwt>
<totfact> 0.18260799E+04</totfact>
</mgrwt>
</event>
<event>
 4    1  0.4050555E+000  0.2287389E+03  0.7546771E-02  0.1127531E+00
         21   -1    0    0  503  502  0.00000000000E+00  0.00000000000E+00  0.32463241341E+03  0.32463241341E+03  0.00000000000E+00 0. -1.
         21   -1    0    0  501  503 -0.00000000000E+00 -0.00000000000E+00 -0.27996255327E+03  0.27996255327E+03  0.00000000000E+00 0. -1.
          6    1    1    2  501    0  0.48343088228E+02  0.14161712408E+03 -0.17457906739E+03  0.28774870075E+03  0.17300000000E+03 0. -1.
         -6    1    1    2    0  502 -0.48343088228E+02 -0.14161712408E+03  0.21924892753E+03  0.31684626593E+03  0.17300000000E+03 0. -1.
<mgrwt>
<rscale>  2 0.22873886E+03</rscale>
<asrwt>0</asrwt>
<pdfrwt beam="1">  1       21 0.49943448E-01 0.22873886E+03</pdfrwt>
<pdfrwt beam="2">  1       21 0.43071162E-01 0.22873886E+03</pdfrwt>
<totfact> 0.19390507E+04</totfact>
</mgrwt>
</event>
<event>
 4    1  0.4050555E+000  0.1947475E+03  0.7546771E-02  0.1154248E+00
         21   -1    0    0  501  502  0.00000000000E+00  0.00000000000E+00  0.20013322841E+03  0.20013322841E+03  0.00000000000E+00 0. -1.
         21   -1    0    0  502  503 -0.00000000000E+00 -0.00000000000E+00 -0.20524112203E+03  0.20524112203E+03  0.00000000000E+00 0. -1.
          6    1    1    2  501    0 -0.23370350726E+02 -0.86321651643E+02  0.53566170477E+02  0.20198003727E+03  0.17300000000E+03 0. -1.
         -6    1    1    2    0  503  0.23370350726E+02  0.86321651643E+02 -0.58674064094E+02  0.20339431318E+03  0.17300000000E+03 0. -1.
<mgrwt>
<rscale>  2 0.19474753E+03</rscale>
<asrwt>0</asrwt>
<pdfrwt beam="1">  1       21 0.30789727E-01 0.19474753E+03</pdfrwt>
<pdfrwt beam="2">  1       21 0.31575557E-01 0.19474753E+03</pdfrwt>
<totfact> 0.97584323E+04</totfact>
</mgrwt>
</event>
<event>
 4    1  0.4050555E+000  0.1765399E+03  0.7546771E-02  0.1171194E+00
         21   -1    0    0  501  502  0.00000000000E+00  0.00000000000E+00  0.52270163696E+03  0.52270163696E+03  0.00000000000E+00 0.  1.
         21   -1    0    0  502  503 -0.00000000000E+00 -0.00000000000E+00 -0.95497864067E+02  0.95497864067E+02  0.00000000000E+00 0. -1.
          6    1    1    2  501    0 -0.20549058312E+02 -0.28549605182E+02  0.40304632309E+03  0.44001441148E+03  0.17300000000E+03 0.  1.
         -6    1    1    2    0  503  0.20549058312E+02  0.28549605182E+02  0.24157449796E+02  0.17818508954E+03  0.17300000000E+03 0. -1.
<mgrwt>
<rscale>  2 0.17653992E+03</rscale>
<asrwt>0</asrwt>
<pdfrwt beam="1">  1       21 0.80415635E-01 0.17653992E+03</pdfrwt>
<pdfrwt beam="2">  1       21 0.14691979E-01 0.17653992E+03</pdfrwt>
<totfact> 0.55799598E+04</totfact>
</mgrwt>
</event>
<event>
 4    1  0.4050555E+000  0.2194133E+03  0.7546771E-02  0.1134321E+00
         21   -1    0    0  501  502  0.00000000000E+00  0.00000000000E+00  0.74412415656E+03  0.74412415656E+03  0.00000000000E+00 0.  1.
         21   -1    0    0  502  503 -0.00000000000E+00 -0.00000000000E+00 -0.17687234950E+03  0.17687234950E+03  0.00000000000E+00 0. -1.
          6    1    1    2  501    0  0.18516576949E+02 -0.13368004393E+03  0.65035699077E+03  0.68637193504E+03  0.17300000000E+03 0.  1.
         -6    1    1    2    0  503 -0.18516576949E+02  0.13368004393E+03 -0.83105183706E+02  0.23462457102E+03  0.17300000000E+03 0. -1.
<mgrwt>
<rscale>  2 0.21941335E+03</rscale>
<asrwt>0</asrwt>
<pdfrwt beam="1">  1       21 0.11448064E+00 0.21941335E+03</pdfrwt>
<pdfrwt beam="2">  1       21 0.27211131E-01 0.21941335E+03</pdfrwt>
<totfact> 0.74844750E+03</totfact>
</mgrwt>
</event>
<event>
 4    1  0.4050555E+000  0.2219360E+03  0.7546771E-02  0.1132448E+00
         21   -1    0    0  501  502  0.00000000000E+00  0.00000000000E+00  0.18417246308E+03  0.18417246308E+03  0.00000000000E+00 0. -1.
         21   -1    0    0  502  503 -0.00000000000E+00 -0.00000000000E+00 -0.43916945103E+03  0.43916945103E+03  0.00000000000E+00 0. -1.
          6    1    1    2  501    0  0.76957254998E+02 -0.11577639199E+03  0.67395821774E+02  0.23194350353E+03  0.17300000000E+03 0. -1.
         -6    1    1    2    0  503 -0.76957254998E+02  0.11577639199E+03 -0.32239280972E+03  0.39139841057E+03  0.17300000000E+03 0. -1.
<mgrwt>
<rscale>  2 0.22193601E+03</rscale>
<asrwt>0</asrwt>
<pdfrwt beam="1">  1       21 0.28334225E-01 0.22193601E+03</pdfrwt>
<pdfrwt beam="2">  1       21 0.67564530E-01 0.22193601E+03</pdfrwt>
<totfact> 0.23457102E+04</totfact>
</mgrwt>
</event>
<event>
 4    1  0.4050555E+000  0.1838159E+03  0.7546771E-02  0.1164160E+00
         21   -1    0    0  503  502  0.00000000000E+00  0.00000000000E+00  0.28420264030E+03  0.28420264030E+03  0.00000000000E+00 0.  1.
         21   -1    0    0  501  503 -0.00000000000E+00 -0.00000000000E+00 -0.17314213228E+03  0.17314213228E+03  0.00000000000E+00 0.  1.
          6    1    1    2  501    0  0.47746771870E+02 -0.39743470034E+02 -0.72475223769E+02  0.19758784298E+03  0.17300000000E+03 0.  1.
         -6    1    1    2    0  502 -0.47746771870E+02  0.39743470034E+02  0.18353573178E+03  0.25975692960E+03  0.17300000000E+03 0.  1.
<mgrwt>
<rscale>  2 0.18381593E+03</rscale>
<asrwt>0</asrwt>
<pdfrwt beam="1">  1       21 0.43723483E-01 0.18381593E+03</pdfrwt>
<pdfrwt beam="2">  1       21 0.26637251E-01 0.18381593E+03</pdfrwt>
<totfact> 0.67679495E+04</totfact>
</mgrwt>
</event>
<event>
 4    1  0.4050555E+000  0.2032618E+03  0.7546771E-02  0.1147016E+00
         21   -1    0    0  501  502  0.00000000000E+00  0.00000000000E+00  0.10925069811E+03  0.10925069811E+03  0.00000000000E+00 0. -1.
         21   -1    0    0  502  503 -0.00000000000E+00 -0.00000000000E+00 -0.56237269639E+03  0.56237269639E+03  0.00000000000E+00 0. -1.
          6    1    1    2  501    0  0.80655957887E+02  0.69864103055E+02 -0.34370786691E+02  0.20614734395E+03  0.17300000000E+03 0. -1.
         -6    1    1    2    0  503 -0.80655957887E+02 -0.69864103055E+02 -0.41875121159E+03  0.46547605056E+03  0.17300000000E+03 0. -1.
<mgrwt>
<rscale>  2 0.20326184E+03</rscale>
<asrwt>0</asrwt>
<pdfrwt beam="1">  1       21 0.16807800E-01 0.20326184E+03</pdfrwt>
<pdfrwt beam="2">  1       21 0.86518876E-01 0.20326184E+03</pdfrwt>
<totfact> 0.36443675E+04</totfact>
</mgrwt>
</event>
<event>
 4    1  0.4050555E+000  0.1983467E+03  0.7546771E-02  0.1151141E+00
         21   -1    0    0  501  502  0.00000000000E+00  0.00000000000E+00  0.16859837679E+04  0.16859837679E+04  0.00000000000E+00 0.  1.
         21   -1    0    0  502  503 -0.00000000000E+00 -0.00000000000E+00 -0.26104937730E+02  0.26104937730E+02  0.00000000000E+00 0.  1.
          6    1    1    2  501    0 -0.75382865946E+02  0.61072365878E+02  0.55105939450E+03  0.58566873455E+03  0.17300000000E+03 0.  1.
         -6    1    1    2    0  503  0.75382865946E+02 -0.61072365878E+02  0.11088194357E+04  0.11264199711E+04  0.17300000000E+03 0.  1.
<mgrwt>
<rscale>  2 0.19834669E+03</rscale>
<asrwt>0</asrwt>
<pdfrwt beam="1">  1       21 0.25938203E+00 0.19834669E+03</pdfrwt>
<pdfrwt beam="2">  1       21 0.40161456E-02 0.19834669E+03</pdfrwt>
<totfact> 0.22691300E+04</totfact>
</mgrwt>
</event>
<event>
 4    1  0.4050555E+000  0.2859707E+03  0.7546771E-02  0.1092472E+00
         21   -1    0    0  503  502  0.00000000000E+00  0.00000000000E+00  0.50145548032E+03  0.50145548032E+03  0.00000000000E+00 0.  1.
         21   -1    0    0  501  503 -0.00000000000E+00 -0.00000000000E+00 -0.26823798654E+03  0.26823798654E+03  0.00000000000E+00 0. -1.
          6    1    1    2  501    0 -0.13203030050E+03 -0.18552147263E+03 -0.12434914054E+03  0.31183637666E+03  0.17300000000E+03 0. -1.
         -6    1    1    2    0  502  0.13203030050E+03  0.18552147263E+03  0.35756663432E+03  0.45785709019E+03  0.17300000000E+03 0.  1.
<mgrwt>
<rscale>  2 0.28597066E+03</rscale>
<asrwt>0</asrwt>
<pdfrwt beam="1">  1       21 0.77146997E-01 0.28597066E+03</pdfrwt>
<pdfrwt beam="2">  1       21 0.41267383E-01 0.28597066E+03</pdfrwt>
<totfact> 0.79771934E+03</totfact>
</mgrwt>
</event>
<event>
 4    1  0.4050555E+000  0.1862307E+03  0.7546771E-02  0.1161906E+00
         21   -1    0    0  501  502  0.00000000000E+00  0.00000000000E+00  0.12875235452E+03  0.12875235452E+03  0.00000000000E+00 0.  1.
         21   -1    0    0  502  503 -0.00000000000E+00 -0.00000000000E+00 -0.26954163553E+03  0.26954163553E+03  0.00000000000E+00 0.  1.
          6    1    1    2  501    0  0.53652663209E+02 -0.43292975918E+02 -0.65354359414E+02  0.19736535240E+03  0.17300000000E+03 0.  1.
         -6    1    1    2    0  503 -0.53652663209E+02  0.43292975918E+02 -0.75434921591E+02  0.20092863765E+03  0.17300000000E+03 0.  1.
<mgrwt>
<rscale>  2 0.18623074E+03</rscale>
<asrwt>0</asrwt>
<pdfrwt beam="1">  1       21 0.19808055E-01 0.18623074E+03</pdfrwt>
<pdfrwt beam="2">  1       21 0.41467944E-01 0.18623074E+03</pdfrwt>
<totfact> 0.13188748E+05</totfact>
</mgrwt>
</event>
<event>
 4    1  0.4050555E+000  0.1990094E+03  0.7546771E-02  0.1150577E+00
         21   -1    0    0  503  502  0.00000000000E+00  0.00000000000E+00  0.15846224245E+03  0.15846224245E+03  0.00000000000E+00 0.  1.
         21   -1    0    0  501  503 -0.00000000000E+00 -0.00000000000E+00 -0.30339885452E+03  0.30339885452E+03  0.00000000000E+00 0.  1.
          6    1    1    2  501    0  0.54535590031E+02  0.81863313444E+02 -0.16941166918E+03  0.26135234134E+03  0.17300000000E+03 0.  1.
         -6    1    1    2    0  502 -0.54535590031E+02 -0.81863313444E+02  0.24475057111E+02  0.20050875564E+03  0.17300000000E+03 0.  1.
<mgrwt>
<rscale>  2 0.19900938E+03</rscale>
<asrwt>0</asrwt>
<pdfrwt beam="1">  1       21 0.24378807E-01 0.19900938E+03</pdfrwt>
<pdfrwt beam="2">  1       21 0.46676747E-01 0.19900938E+03</pdfrwt>
<totfact> 0.69640510E+04</totfact>
</mgrwt>
</event>
<event>
 4    1  0.4050555E+000  0.2036867E+03  0.7546771E-02  0.1146665E+00
         21   -1    0    0  503  502  0.00000000000E+00  0.00000000000E+00  0.55008220303E+02  0.55008220303E+02  0.00000000000E+00 0. -1.
         21   -1    0    0  501  503 -0.00000000000E+00 -0.00000000000E+00 -0.15128825390E+04  0.15128825390E+04  0.00000000000E+00 0.  1.
          6    1    1    2  501    0  0.47664108196E+02 -0.96371237758E+02 -0.12840836635E+04  0.13001381225E+04  0.17300000000E+03 0.  1.
         -6    1    1    2    0  502 -0.47664108196E+02  0.96371237758E+02 -0.17379065514E+03  0.26775263676E+03  0.17300000000E+03 0. -1.
<mgrwt>
<rscale>  2 0.20368673E+03</rscale>
<asrwt>0</asrwt>
<pdfrwt beam="1">  1       21 0.84628037E-02 0.20368673E+03</pdfrwt>
<pdfrwt beam="2">  1       21 0.23275114E+00 0.20368673E+03</pdfrwt>
<totfact> 0.90664122E+03</totfact>
</mgrwt>
</event>
<event>
 4    1  0.4050555E+000  0.2007115E+03  0.7546771E-02  0.1149140E+00
         21   -1    0    0  503  502  0.00000000000E+00  0.00000000000E+00  0.41480759583E+03  0.41480759583E+03  0.00000000000E+00 0. -1.
         21   -1    0    0  501  503 -0.00000000000E+00 -0.00000000000E+00 -0.97760028627E+02  0.97760028627E+02  0.00000000000E+00 0.  1.
          6    1    1    2  501    0  0.97201332661E+01 -0.10129973332E+03  0.13774816606E+03  0.24343310008E+03  0.17300000000E+03 0.  1.
         -6    1    1    2    0  502 -0.97201332661E+01  0.10129973332E+03  0.17929940114E+03  0.26913452437E+03  0.17300000000E+03 0. -1.
<mgrwt>
<rscale>  2 0.20071153E+03</rscale>
<asrwt>0</asrwt>
<pdfrwt beam="1">  1       21 0.63816552E-01 0.20071153E+03</pdfrwt>
<pdfrwt beam="2">  1       21 0.15040005E-01 0.20071153E+03</pdfrwt>
<totfact> 0.88247213E+04</totfact>
</mgrwt>
</event>
<event>
 4    1  0.4050555E+000  0.3560235E+03  0.7546771E-02  0.1060170E+00
         21   -1    0    0  503  502  0.00000000000E+00  0.00000000000E+00  0.12139470388E+04  0.12139470388E+04  0.00000000000E+00 0. -1.
         21   -1    0    0  501  503 -0.00000000000E+00 -0.00000000000E+00 -0.67039634866E+03  0.67039634866E+03  0.00000000000E+00 0. -1.
          6    1    1    2  501    0  0.20257322156E+03 -0.23619440225E+03 -0.59392140992E+03  0.69245602525E+03  0.17300000000E+03 0. -1.
         -6    1    1    2    0  502 -0.20257322156E+03  0.23619440225E+03  0.11374721001E+04  0.11918873622E+04  0.17300000000E+03 0. -1.
<mgrwt>
<rscale>  2 0.35602346E+03</rscale>
<asrwt>0</asrwt>
<pdfrwt beam="1">  1       21 0.18676108E+00 0.35602346E+03</pdfrwt>
<pdfrwt beam="2">  1       21 0.10313790E+00 0.35602346E+03</pdfrwt>
<totfact> 0.10597543E+02</totfact>
</mgrwt>
</event>
<event>
 4    1  0.4050555E+000  0.1983598E+03  0.7546771E-02  0.1151130E+00
         21   -1    0    0  501  502  0.00000000000E+00  0.00000000000E+00  0.31392167015E+03  0.31392167015E+03  0.00000000000E+00 0. -1.
         21   -1    0    0  502  503 -0.00000000000E+00 -0.00000000000E+00 -0.18711351737E+03  0.18711351737E+03  0.00000000000E+00 0.  1.
          6    1    1    2  501    0 -0.63875486582E+02 -0.73058526419E+02  0.20734701174E+03  0.28694844371E+03  0.17300000000E+03 0. -1.
         -6    1    1    2    0  503  0.63875486582E+02  0.73058526419E+02 -0.80538858966E+02  0.21408674380E+03  0.17300000000E+03 0.  1.
<mgrwt>
<rscale>  2 0.19835984E+03</rscale>
<asrwt>0</asrwt>
<pdfrwt beam="1">  1       21 0.48295642E-01 0.19835984E+03</pdfrwt>
<pdfrwt beam="2">  1       21 0.28786695E-01 0.19835984E+03</pdfrwt>
<totfact> 0.47156185E+04</totfact>
</mgrwt>
</event>
<event>
 4    1  0.4050555E+000  0.2250382E+03  0.7546771E-02  0.1130182E+00
         21   -1    0    0  503  502  0.00000000000E+00  0.00000000000E+00  0.45521199500E+02  0.45521199500E+02  0.00000000000E+00 0.  1.
         21   -1    0    0  501  503 -0.00000000000E+00 -0.00000000000E+00 -0.11291633035E+04  0.11291633035E+04  0.00000000000E+00 0. -1.
          6    1    1    2  501    0  0.13432212626E+03  0.51679376408E+02 -0.47046442374E+03  0.52151602618E+03  0.17300000000E+03 0.  1.
         -6    1    1    2    0  502 -0.13432212626E+03 -0.51679376408E+02 -0.61317768023E+03  0.65316847680E+03  0.17300000000E+03 0. -1.
<mgrwt>
<rscale>  2 0.22503820E+03</rscale>
<asrwt>0</asrwt>
<pdfrwt beam="1">  1       21 0.70032619E-02 0.22503820E+03</pdfrwt>
<pdfrwt beam="2">  1       21 0.17371742E+00 0.22503820E+03</pdfrwt>
<totfact> 0.29758880E+04</totfact>
</mgrwt>
</event>
<event>
 4    1  0.4050555E+000  0.2112195E+03  0.7546771E-02  0.1140604E+00
         21   -1    0    0  501  502  0.00000000000E+00  0.00000000000E+00  0.17294512678E+04  0.17294512678E+04  0.00000000000E+00 0. -1.
         21   -1    0    0  502  503 -0.00000000000E+00 -0.00000000000E+00 -0.66910399058E+02  0.66910399058E+02  0.00000000000E+00 0.  1.
          6    1    1    2  501    0  0.88456985910E+02 -0.82825452876E+02  0.15353335578E+04  0.15497944469E+04  0.17300000000E+03 0. -1.
         -6    1    1    2    0  503 -0.88456985910E+02  0.82825452876E+02  0.12720731099E+03  0.24656721998E+03  0.17300000000E+03 0.  1.
<mgrwt>
<rscale>  2 0.21121954E+03</rscale>
<asrwt>0</asrwt>
<pdfrwt beam="1">  1       21 0.26606939E+00 0.21121954E+03</pdfrwt>
<pdfrwt beam="2">  1       21 0.10293909E-01 0.21121954E+03</pdfrwt>
<totfact> 0.40494487E+03</totfact>
</mgrwt>
</event>
<event>
 4    1  0.4050555E+000  0.1969946E+03  0.7546771E-02  0.1152300E+00
         21   -1    0    0  501  502  0.00000000000E+00  0.00000000000E+00  0.38234903647E+03  0.38234903647E+03  0.00000000000E+00 0.  1.
         21   -1    0    0  502  503 -0.00000000000E+00 -0.00000000000E+00 -0.14694513386E+03  0.14694513386E+03  0.00000000000E+00 0. -1.
          6    1    1    2  501    0  0.91012369749E+02 -0.24384958412E+02  0.26488322878E+03  0.33010604740E+03  0.17300000000E+03 0.  1.
         -6    1    1    2    0  503 -0.91012369749E+02  0.24384958412E+02 -0.29479326161E+02  0.19918812293E+03  0.17300000000E+03 0. -1.
<mgrwt>
<rscale>  2 0.19699461E+03</rscale>
<asrwt>0</asrwt>
<pdfrwt beam="1">  1       21 0.58822928E-01 0.19699461E+03</pdfrwt>
<pdfrwt beam="2">  1       21 0.22606944E-01 0.19699461E+03</pdfrwt>
<totfact> 0.49470621E+04</totfact>
</mgrwt>
</event>
<event>
 4    1  0.4050555E+000  0.1968969E+03  0.7546771E-02  0.1152384E+00
         21   -1    0    0  503  502  0.00000000000E+00  0.00000000000E+00  0.91698152486E+02  0.91698152486E+02  0.00000000000E+00 0. -1.
         21   -1    0    0  501  503 -0.00000000000E+00 -0.00000000000E+00 -0.77049905955E+03  0.77049905955E+03  0.00000000000E+00 0. -1.
          6    1    1    2  501    0 -0.66177572010E+02  0.66782657914E+02 -0.62900348985E+03  0.65910073940E+03  0.17300000000E+03 0. -1.
         -6    1    1    2    0  502  0.66177572010E+02 -0.66782657914E+02 -0.49797417212E+02  0.20309647263E+03  0.17300000000E+03 0. -1.
<mgrwt>
<rscale>  2 0.19689691E+03</rscale>
<asrwt>0</asrwt>
<pdfrwt beam="1">  1       21 0.14107408E-01 0.19689691E+03</pdfrwt>
<pdfrwt beam="2">  1       21 0.11853832E+00 0.19689691E+03</pdfrwt>
<totfact> 0.23810197E+04</totfact>
</mgrwt>
</event>
<event>
 4    1  0.4050555E+000  0.1849652E+03  0.7546771E-02  0.1163082E+00
         21   -1    0    0  503  502  0.00000000000E+00  0.00000000000E+00  0.58343431113E+03  0.58343431113E+03  0.00000000000E+00 0.  1.
         21   -1    0    0  501  503 -0.00000000000E+00 -0.00000000000E+00 -0.35932966210E+03  0.35932966210E+03  0.00000000000E+00 0.  1.
          6    1    1    2  501    0  0.54733556772E+02  0.35879824759E+02 -0.31915514045E+03  0.36887955722E+03  0.17300000000E+03 0.  1.
         -6    1    1    2    0  502 -0.54733556772E+02 -0.35879824759E+02  0.54325978949E+03  0.57388441601E+03  0.17300000000E+03 0.  1.
<mgrwt>
<rscale>  2 0.18496520E+03</rscale>
<asrwt>0</asrwt>
<pdfrwt beam="1">  1       21 0.89759125E-01 0.18496520E+03</pdfrwt>
<pdfrwt beam="2">  1       21 0.55281487E-01 0.18496520E+03</pdfrwt>
<totfact> 0.32833189E+03</totfact>
</mgrwt>
</event>
<event>
 4    1  0.4050555E+000  0.3157599E+03  0.7546771E-02  0.1077617E+00
         21   -1    0    0  501  502  0.00000000000E+00  0.00000000000E+00  0.41252632081E+03  0.41252632081E+03  0.00000000000E+00 0. -1.
         21   -1    0    0  502  503 -0.00000000000E+00 -0.00000000000E+00 -0.29377531134E+03  0.29377531134E+03  0.00000000000E+00 0.  1.
          6    1    1    2  501    0 -0.12210496929E+03  0.23423424902E+03  0.20807240213E+03  0.37815133408E+03  0.17300000000E+03 0. -1.
         -6    1    1    2    0  503  0.12210496929E+03 -0.23423424902E+03 -0.89321392662E+02  0.32815029807E+03  0.17300000000E+03 0.  1.
<mgrwt>
<rscale>  2 0.31575989E+03</rscale>
<asrwt>0</asrwt>
<pdfrwt beam="1">  1       21 0.63465588E-01 0.31575989E+03</pdfrwt>
<pdfrwt beam="2">  1       21 0.45196202E-01 0.31575989E+03</pdfrwt>
<totfact> 0.10080930E+04</totfact>
</mgrwt>
</event>
<event>
 4    1  0.4050555E+000  0.1939847E+03  0.7546771E-02  0.1154916E+00
         21   -1    0    0  503  502  0.00000000000E+00  0.00000000000E+00  0.27394548233E+03  0.27394548233E+03  0.00000000000E+00 0.  1.
         21   -1    0    0  501  503 -0.00000000000E+00 -0.00000000000E+00 -0.17545483037E+03  0.17545483037E+03  0.00000000000E+00 0.  1.
          6    1    1    2  501    0 -0.85814970936E+02  0.18353198372E+02 -0.55451870544E+02  0.20175470025E+03  0.17300000000E+03 0.  1.
         -6    1    1    2    0  502  0.85814970936E+02 -0.18353198372E+02  0.15394252251E+03  0.24764561245E+03  0.17300000000E+03 0.  1.
<mgrwt>
<rscale>  2 0.19398466E+03</rscale>
<asrwt>0</asrwt>
<pdfrwt beam="1">  1       21 0.42145459E-01 0.19398466E+03</pdfrwt>
<pdfrwt beam="2">  1       21 0.26993051E-01 0.19398466E+03</pdfrwt>
<totfact> 0.70806878E+04</totfact>
</mgrwt>
</event>
<event>
 4    1  0.4050555E+000  0.2048515E+03  0.7546771E-02  0.1145709E+00
         21   -1    0    0  503  502  0.00000000000E+00  0.00000000000E+00  0.13497526143E+04  0.13497526143E+04  0.00000000000E+00 0. -1.
         21   -1    0    0  501  503 -0.00000000000E+00 -0.00000000000E+00 -0.47018053476E+02  0.47018053476E+02  0.00000000000E+00 0. -1.
          6    1    1    2  501    0  0.33362065207E+02 -0.10450893560E+03  0.24488581816E+03  0.31926980588E+03  0.17300000000E+03 0. -1.
         -6    1    1    2    0  502 -0.33362065207E+02  0.10450893560E+03  0.10578487426E+04  0.10775008619E+04  0.17300000000E+03 0. -1.
<mgrwt>
<rscale>  2 0.20485152E+03</rscale>
<asrwt>0</asrwt>
<pdfrwt beam="1">  1       21 0.20765422E+00 0.20485152E+03</pdfrwt>
<pdfrwt beam="2">  1       21 0.72335477E-02 0.20485152E+03</pdfrwt>
<totfact> 0.16992664E+04</totfact>
</mgrwt>
</event>
<event>
 4    1  0.4050555E+000  0.1820905E+03  0.7546771E-02  0.1165795E+00
         21   -1    0    0  503  502  0.00000000000E+00  0.00000000000E+00  0.65523287469E+02  0.65523287469E+02  0.00000000000E+00 0. -1.
         21   -1    0    0  501  503 -0.00000000000E+00 -0.00000000000E+00 -0.95781624953E+03  0.95781624953E+03  0.00000000000E+00 0. -1.
          6    1    1    2  501    0 -0.36028265820E+01 -0.56700642848E+02 -0.79755617527E+03  0.81807872235E+03  0.17300000000E+03 0. -1.
         -6    1    1    2    0  502  0.36028265820E+01  0.56700642848E+02 -0.94736786798E+02  0.20526081465E+03  0.17300000000E+03 0. -1.
<mgrwt>
<rscale>  2 0.18209048E+03</rscale>
<asrwt>0</asrwt>
<pdfrwt beam="1">  1       21 0.10080507E-01 0.18209048E+03</pdfrwt>
<pdfrwt beam="2">  1       21 0.14735633E+00 0.18209048E+03</pdfrwt>
<totfact> 0.25226526E+04</totfact>
</mgrwt>
</event>
<event>
 4    1  0.4050555E+000  0.1993585E+03  0.7546771E-02  0.1150281E+00
         21   -1    0    0  501  502  0.00000000000E+00  0.00000000000E+00  0.16571159592E+03  0.16571159592E+03  0.00000000000E+00 0.  1.
         21   -1    0    0  502  503 -0.00000000000E+00 -0.00000000000E+00 -0.13209794738E+04  0.13209794738E+04  0.00000000000E+00 0.  1.
          6    1    1    2  501    0  0.62466850044E+02 -0.76894063555E+02  0.94853424292E+02  0.22077358643E+03  0.17300000000E+03 0.  1.
         -6    1    1    2    0  503 -0.62466850044E+02  0.76894063555E+02 -0.12501213022E+04  0.12659174833E+04  0.17300000000E+03 0.  1.
<mgrwt>
<rscale>  2 0.19935848E+03</rscale>
<asrwt>0</asrwt>
<pdfrwt beam="1">  1       21 0.25494093E-01 0.19935848E+03</pdfrwt>
<pdfrwt beam="2">  1       21 0.20322760E+00 0.19935848E+03</pdfrwt>
<totfact> 0.18551122E+03</totfact>
</mgrwt>
</event>
<event>
 4    1  0.4050555E+000  0.2405274E+03  0.7546771E-02  0.1119442E+00
         21   -1    0    0  501  502  0.00000000000E+00  0.00000000000E+00  0.48676413687E+03  0.48676413687E+03  0.00000000000E+00 0. -1.
         21   -1    0    0  502  503 -0.00000000000E+00 -0.00000000000E+00 -0.11940727412E+03  0.11940727412E+03  0.00000000000E+00 0.  1.
          6    1    1    2  501    0  0.53516931764E+02  0.15830462664E+03  0.16303028358E+03  0.29057234928E+03  0.17300000000E+03 0. -1.
         -6    1    1    2    0  503 -0.53516931764E+02 -0.15830462664E+03  0.20432657917E+03  0.31559906172E+03  0.17300000000E+03 0.  1.
<mgrwt>
<rscale>  2 0.24052737E+03</rscale>
<asrwt>0</asrwt>
<pdfrwt beam="1">  1       21 0.74886789E-01 0.24052737E+03</pdfrwt>
<pdfrwt beam="2">  1       21 0.18370350E-01 0.24052737E+03</pdfrwt>
<totfact> 0.42151165E+04</totfact>
</mgrwt>
</event>
<event>
 4    1  0.4050555E+000  0.3635682E+03  0.7546771E-02  0.1057180E+00
         21   -1    0    0  503  502  0.00000000000E+00  0.00000000000E+00  0.22924688389E+03  0.22924688389E+03  0.00000000000E+00 0.  1.
         21   -1    0    0  501  503 -0.00000000000E+00 -0.00000000000E+00 -0.76124072628E+03  0.76124072628E+03  0.00000000000E+00 0. -1.
          6    1    1    2  501    0 -0.41417689059E+01  0.31974312908E+03 -0.50990809547E+03  0.62624922249E+03  0.17300000000E+03 0. -1.
         -6    1    1    2    0  502  0.41417689059E+01 -0.31974312908E+03 -0.22085746923E+02  0.36423838768E+03  0.17300000000E+03 0.  1.
<mgrwt>
<rscale>  2 0.36356818E+03</rscale>
<asrwt>0</asrwt>
<pdfrwt beam="1">  1       21 0.35268752E-01 0.36356818E+03</pdfrwt>
<pdfrwt beam="2">  1       21 0.11711396E+00 0.36356818E+03</pdfrwt>
<totfact> 0.39195191E+03</totfact>
</mgrwt>
</event>
<event>
 4    1  0.4050555E+000  0.2387566E+03  0.7546771E-02  0.1120624E+00
         21   -1    0    0  501  502  0.00000000000E+00  0.00000000000E+00  0.60530285632E+02  0.60530285632E+02  0.00000000000E+00 0. -1.
         21   -1    0    0  502  503 -0.00000000000E+00 -0.00000000000E+00 -0.94261785333E+03  0.94261785333E+03  0.00000000000E+00 0. -1.
          6    1    1    2  501    0 -0.15690364213E+03 -0.49567971976E+02 -0.42587400354E+03  0.48823498815E+03  0.17300000000E+03 0. -1.
         -6    1    1    2    0  503  0.15690364213E+03  0.49567971976E+02 -0.45621356415E+03  0.51491315081E+03  0.17300000000E+03 0. -1.
<mgrwt>
<rscale>  2 0.23875665E+03</rscale>
<asrwt>0</asrwt>
<pdfrwt beam="1">  1       21 0.93123527E-02 0.23875665E+03</pdfrwt>
<pdfrwt beam="2">  1       21 0.14501811E+00 0.23875665E+03</pdfrwt>
<totfact> 0.29250230E+04</totfact>
</mgrwt>
</event>
<event>
 4    1  0.4050555E+000  0.1844065E+03  0.7546771E-02  0.1163605E+00
         21   -1    0    0  503  502  0.00000000000E+00  0.00000000000E+00  0.21261241131E+03  0.21261241131E+03  0.00000000000E+00 0. -1.
         21   -1    0    0  501  503 -0.00000000000E+00 -0.00000000000E+00 -0.26596995616E+03  0.26596995616E+03  0.00000000000E+00 0. -1.
          6    1    1    2  501    0 -0.63800551318E+02  0.24957509176E+01 -0.17776322836E+03  0.25613571496E+03  0.17300000000E+03 0. -1.
         -6    1    1    2    0  502  0.63800551318E+02 -0.24957509176E+01  0.12440568351E+03  0.22244665251E+03  0.17300000000E+03 0. -1.
<mgrwt>
<rscale>  2 0.18440645E+03</rscale>
<asrwt>0</asrwt>
<pdfrwt beam="1">  1       21 0.32709602E-01 0.18440645E+03</pdfrwt>
<pdfrwt beam="2">  1       21 0.40918455E-01 0.18440645E+03</pdfrwt>
<totfact> 0.51951090E+04</totfact>
</mgrwt>
</event>
<event>
 4    1  0.4050555E+000  0.2273236E+03  0.7546771E-02  0.1128538E+00
         21   -1    0    0  503  502  0.00000000000E+00  0.00000000000E+00  0.19052734814E+03  0.19052734814E+03  0.00000000000E+00 0.  1.
         21   -1    0    0  501  503 -0.00000000000E+00 -0.00000000000E+00 -0.33836998544E+03  0.33836998544E+03  0.00000000000E+00 0.  1.
          6    1    1    2  501    0 -0.14405663365E+03  0.31539164062E+02 -0.19172204557E+03  0.29737749633E+03  0.17300000000E+03 0.  1.
         -6    1    1    2    0  502  0.14405663365E+03 -0.31539164062E+02  0.43879408265E+02  0.23151983724E+03  0.17300000000E+03 0.  1.
<mgrwt>
<rscale>  2 0.22732363E+03</rscale>
<asrwt>0</asrwt>
<pdfrwt beam="1">  1       21 0.29311900E-01 0.22732363E+03</pdfrwt>
<pdfrwt beam="2">  1       21 0.52056920E-01 0.22732363E+03</pdfrwt>
<totfact> 0.38377280E+04</totfact>
</mgrwt>
</event>
<event>
 4    1  0.4050555E+000  0.1792525E+03  0.7546771E-02  0.1168528E+00
         21   -1    0    0  503  502  0.00000000000E+00  0.00000000000E+00  0.34043571198E+02  0.34043571198E+02  0.00000000000E+00 0. -1.
         21   -1    0    0  501  503 -0.00000000000E+00 -0.00000000000E+00 -0.96640720243E+03  0.96640720243E+03  0.00000000000E+00 0. -1.
          6    1    1    2  501    0 -0.46476937090E+02  0.65067525461E+01 -0.54263446540E+03  0.57147493957E+03  0.17300000000E+03 0. -1.
         -6    1    1    2    0  502  0.46476937090E+02 -0.65067525461E+01 -0.38972916583E+03  0.42897583406E+03  0.17300000000E+03 0. -1.
<mgrwt>
<rscale>  2 0.17925246E+03</rscale>
<asrwt>0</asrwt>
<pdfrwt beam="1">  1       21 0.52374720E-02 0.17925246E+03</pdfrwt>
<pdfrwt beam="2">  1       21 0.14867804E+00 0.17925246E+03</pdfrwt>
<totfact> 0.76581157E+04</totfact>
</mgrwt>
</event>
<event>
 4    1  0.4050555E+000  0.1901040E+03  0.7546771E-02  0.1158368E+00
         21   -1    0    0  503  502  0.00000000000E+00  0.00000000000E+00  0.60795070574E+03  0.60795070574E+03  0.00000000000E+00 0. -1.
         21   -1    0    0  501  503 -0.00000000000E+00 -0.00000000000E+00 -0.13142758878E+03  0.13142758878E+03  0.00000000000E+00 0. -1.
          6    1    1    2  501    0 -0.77181305262E+02  0.15924037089E+02 -0.35333130491E+02  0.19335966216E+03  0.17300000000E+03 0. -1.
         -6    1    1    2    0  502  0.77181305262E+02 -0.15924037089E+02  0.51185624745E+03  0.54601863237E+03  0.17300000000E+03 0. -1.
<mgrwt>
<rscale>  2 0.19010399E+03</rscale>
<asrwt>0</asrwt>
<pdfrwt beam="1">  1       21 0.93530876E-01 0.19010399E+03</pdfrwt>
<pdfrwt beam="2">  1       21 0.20219629E-01 0.19010399E+03</pdfrwt>
<totfact> 0.21761775E+04</totfact>
</mgrwt>
</event>
<event>
 4    1  0.4050555E+000  0.1879802E+03  0.7546771E-02  0.1160296E+00
         21   -1    0    0  503  502  0.00000000000E+00  0.00000000000E+00  0.19650619361E+04  0.19650619361E+04  0.00000000000E+00 0.  1.
         21   -1    0    0  501  503 -0.00000000000E+00 -0.00000000000E+00 -0.20047404223E+02  0.20047404223E+02  0.00000000000E+00 0.  1.
          6    1    1    2  501    0  0.36100483679E+02  0.64064752832E+02  0.65395153503E+03  0.68043305890E+03  0.17300000000E+03 0.  1.
         -6    1    1    2    0  502 -0.36100483679E+02 -0.64064752832E+02  0.12910629968E+04  0.13046762814E+04  0.17300000000E+03 0.  1.
<mgrwt>
<rscale>  2 0.18798015E+03</rscale>
<asrwt>0</asrwt>
<pdfrwt beam="1">  1       21 0.30231707E+00 0.18798015E+03</pdfrwt>
<pdfrwt beam="2">  1       21 0.30842176E-02 0.18798015E+03</pdfrwt>
<totfact> 0.20102550E+04</totfact>
</mgrwt>
</event>
<event>
 4    1  0.4050555E+000  0.1982413E+03  0.7546771E-02  0.1151231E+00
         21   -1    0    0  503  502  0.00000000000E+00  0.00000000000E+00  0.62056773759E+02  0.62056773759E+02  0.00000000000E+00 0.  1.
         21   -1    0    0  501  503 -0.00000000000E+00 -0.00000000000E+00 -0.10333931982E+04  0.10333931982E+04  0.00000000000E+00 0.  1.
          6    1    1    2  501    0  0.70200919043E+02  0.66651761217E+02 -0.82648302184E+03  0.84992576835E+03  0.17300000000E+03 0.  1.
         -6    1    1    2    0  502 -0.70200919043E+02 -0.66651761217E+02 -0.14485340256E+03  0.24552420358E+03  0.17300000000E+03 0.  1.
<mgrwt>
<rscale>  2 0.19824133E+03</rscale>
<asrwt>0</asrwt>
<pdfrwt beam="1">  1       21 0.95471978E-02 0.19824133E+03</pdfrwt>
<pdfrwt beam="2">  1       21 0.15898354E+00 0.19824133E+03</pdfrwt>
<totfact> 0.22462155E+04</totfact>
</mgrwt>
</event>
<event>
 4    1  0.4050555E+000  0.2158911E+03  0.7546771E-02  0.1136984E+00
         21   -1    0    0  501  502  0.00000000000E+00  0.00000000000E+00  0.34361205610E+03  0.34361205610E+03  0.00000000000E+00 0.  1.
         21   -1    0    0  502  503 -0.00000000000E+00 -0.00000000000E+00 -0.33369949246E+03  0.33369949246E+03  0.00000000000E+00 0.  1.
          6    1    1    2  501    0  0.50287480816E+02  0.11895855826E+03  0.26585622226E+03  0.34247408694E+03  0.17300000000E+03 0.  1.
         -6    1    1    2    0  503 -0.50287480816E+02 -0.11895855826E+03 -0.25594365862E+03  0.33483746161E+03  0.17300000000E+03 0.  1.
<mgrwt>
<rscale>  2 0.21589111E+03</rscale>
<asrwt>0</asrwt>
<pdfrwt beam="1">  1       21 0.52863393E-01 0.21589111E+03</pdfrwt>
<pdfrwt beam="2">  1       21 0.51338383E-01 0.21589111E+03</pdfrwt>
<totfact> 0.12044463E+04</totfact>
</mgrwt>
</event>
<event>
 4    1  0.4050555E+000  0.1821446E+03  0.7546771E-02  0.1165744E+00
         21   -1    0    0  503  502  0.00000000000E+00  0.00000000000E+00  0.17375197647E+03  0.17375197647E+03  0.00000000000E+00 0.  1.
         21   -1    0    0  501  503 -0.00000000000E+00 -0.00000000000E+00 -0.64173164045E+03  0.64173164045E+03  0.00000000000E+00 0.  1.
          6    1    1    2  501    0  0.43833854823E+02 -0.36417449057E+02 -0.57572937894E+03  0.60385507797E+03  0.17300000000E+03 0.  1.
         -6    1    1    2    0  502 -0.43833854823E+02  0.36417449057E+02  0.10774971495E+03  0.21162853895E+03  0.17300000000E+03 0.  1.
<mgrwt>
<rscale>  2 0.18214455E+03</rscale>
<asrwt>0</asrwt>
<pdfrwt beam="1">  1       21 0.26731074E-01 0.18214455E+03</pdfrwt>
<pdfrwt beam="2">  1       21 0.98727943E-01 0.18214455E+03</pdfrwt>
<totfact> 0.11356409E+04</totfact>
</mgrwt>
</event>
<event>
 4    1  0.4050555E+000  0.1830461E+03  0.7546771E-02  0.1164887E+00
         21   -1    0    0  503  502  0.00000000000E+00  0.00000000000E+00  0.22719559076E+03  0.22719559076E+03  0.00000000000E+00 0. -1.
         21   -1    0    0  501  503 -0.00000000000E+00 -0.00000000000E+00 -0.16637211842E+03  0.16637211842E+03  0.00000000000E+00 0. -1.
          6    1    1    2  501    0 -0.39978078442E+02 -0.44481802661E+02 -0.35907035402E+02  0.18653469574E+03  0.17300000000E+03 0. -1.
         -6    1    1    2    0  502  0.39978078442E+02  0.44481802661E+02  0.96730507750E+02  0.20703301344E+03  0.17300000000E+03 0. -1.
<mgrwt>
<rscale>  2 0.18304611E+03</rscale>
<asrwt>0</asrwt>
<pdfrwt beam="1">  1       21 0.34953168E-01 0.18304611E+03</pdfrwt>
<pdfrwt beam="2">  1       21 0.25595711E-01 0.18304611E+03</pdfrwt>
<totfact> 0.11464368E+05</totfact>
</mgrwt>
</event>
<event>
 4    1  0.4050555E+000  0.1736001E+03  0.7546771E-02  0.1174145E+00
         21   -1    0    0  503  502  0.00000000000E+00  0.00000000000E+00  0.23919572937E+02  0.23919572937E+02  0.00000000000E+00 0.  1.
         21   -1    0    0  501  503 -0.00000000000E+00 -0.00000000000E+00 -0.12978809883E+04  0.12978809883E+04  0.00000000000E+00 0.  1.
          6    1    1    2  501    0  0.59446136213E+01  0.13140117872E+02 -0.74999328848E+03  0.76982266393E+03  0.17300000000E+03 0.  1.
         -6    1    1    2    0  502 -0.59446136213E+01 -0.13140117872E+02 -0.52396812685E+03  0.55197789728E+03  0.17300000000E+03 0.  1.
<mgrwt>
<rscale>  2 0.17360012E+03</rscale>
<asrwt>0</asrwt>
<pdfrwt beam="1">  1       21 0.36799354E-02 0.17360012E+03</pdfrwt>
<pdfrwt beam="2">  1       21 0.19967394E+00 0.17360012E+03</pdfrwt>
<totfact> 0.61533235E+04</totfact>
</mgrwt>
</event>
<event>
 4    1  0.4050555E+000  0.2146896E+03  0.7546771E-02  0.1137905E+00
         21   -1    0    0  503  502  0.00000000000E+00  0.00000000000E+00  0.68753462347E+02  0.68753462347E+02  0.00000000000E+00 0. -1.
         21   -1    0    0  501  503 -0.00000000000E+00 -0.00000000000E+00 -0.10690400712E+04  0.10690400712E+04  0.00000000000E+00 0. -1.
          6    1    1    2  501    0 -0.86906114878E+02 -0.92789882258E+02 -0.84754536097E+03  0.87431388755E+03  0.17300000000E+03 0. -1.
         -6    1    1    2    0  502  0.86906114878E+02  0.92789882258E+02 -0.15274124788E+03  0.26347964600E+03  0.17300000000E+03 0. -1.
<mgrwt>
<rscale>  2 0.21468962E+03</rscale>
<asrwt>0</asrwt>
<pdfrwt beam="1">  1       21 0.10577456E-01 0.21468962E+03</pdfrwt>
<pdfrwt beam="2">  1       21 0.16446770E+00 0.21468962E+03</pdfrwt>
<totfact> 0.16899887E+04</totfact>
</mgrwt>
</event>
<event>
 4    1  0.4050555E+000  0.3097567E+03  0.7546771E-02  0.1080463E+00
         21   -1    0    0  503  502  0.00000000000E+00  0.00000000000E+00  0.21696622943E+03  0.21696622943E+03  0.00000000000E+00 0.  1.
         21   -1    0    0  501  503 -0.00000000000E+00 -0.00000000000E+00 -0.94161794191E+03  0.94161794191E+03  0.00000000000E+00 0.  1.
          6    1    1    2  501    0 -0.13293554853E+03  0.21988256762E+03 -0.78419601039E+03  0.84315632377E+03  0.17300000000E+03 0.  1.
         -6    1    1    2    0  502  0.13293554853E+03 -0.21988256762E+03  0.59544297908E+02  0.31542784757E+03  0.17300000000E+03 0.  1.
<mgrwt>
<rscale>  2 0.30975668E+03</rscale>
<asrwt>0</asrwt>
<pdfrwt beam="1">  1       21 0.33379419E-01 0.30975668E+03</pdfrwt>
<pdfrwt beam="2">  1       21 0.14486430E+00 0.30975668E+03</pdfrwt>
<totfact> 0.25995866E+03</totfact>
</mgrwt>
</event>
<event>
 4    1  0.4050555E+000  0.2489155E+03  0.7546771E-02  0.1113992E+00
         21   -1    0    0  501  502  0.00000000000E+00  0.00000000000E+00  0.36046041693E+03  0.36046041693E+03  0.00000000000E+00 0.  1.
         21   -1    0    0  502  503 -0.00000000000E+00 -0.00000000000E+00 -0.18617074437E+03  0.18617074437E+03  0.00000000000E+00 0. -1.
          6    1    1    2  501    0  0.16734183089E+03 -0.63455965594E+02  0.16284714316E+03  0.29745275250E+03  0.17300000000E+03 0.  1.
         -6    1    1    2    0  503 -0.16734183089E+03  0.63455965594E+02  0.11442529400E+02  0.24917840880E+03  0.17300000000E+03 0.  1.
<mgrwt>
<rscale>  2 0.24891554E+03</rscale>
<asrwt>0</asrwt>
<pdfrwt beam="1">  1       21 0.55455449E-01 0.24891554E+03</pdfrwt>
<pdfrwt beam="2">  1       21 0.28641653E-01 0.24891554E+03</pdfrwt>
<totfact> 0.34777225E+04</totfact>
</mgrwt>
</event>
<event>
 4    1  0.4050555E+000  0.2014183E+03  0.7546771E-02  0.1148548E+00
         21   -1    0    0  503  502  0.00000000000E+00  0.00000000000E+00  0.30557098336E+02  0.30557098336E+02  0.00000000000E+00 0. -1.
         21   -1    0    0  501  503 -0.00000000000E+00 -0.00000000000E+00 -0.13287270030E+04  0.13287270030E+04  0.00000000000E+00 0. -1.
          6    1    1    2  501    0  0.10304004306E+03 -0.48047487584E+01 -0.66837429483E+03  0.69806413321E+03  0.17300000000E+03 0.  1.
         -6    1    1    2    0  502 -0.10304004306E+03  0.48047487584E+01 -0.62979560982E+03  0.66121996812E+03  0.17300000000E+03 0.  1.
<mgrwt>
<rscale>  2 0.20141831E+03</rscale>
<asrwt>0</asrwt>
<pdfrwt beam="1">  1       21 0.47010926E-02 0.20141831E+03</pdfrwt>
<pdfrwt beam="2">  1       21 0.20441951E+00 0.20141831E+03</pdfrwt>
<totfact> 0.37340033E+04</totfact>
</mgrwt>
</event>
<event>
 4    1  0.4050555E+000  0.1965303E+03  0.7546771E-02  0.1152700E+00
         21   -1    0    0  503  502  0.00000000000E+00  0.00000000000E+00  0.72865954871E+02  0.72865954871E+02  0.00000000000E+00 0. -1.
         21   -1    0    0  501  503 -0.00000000000E+00 -0.00000000000E+00 -0.53798820179E+03  0.53798820179E+03  0.00000000000E+00 0.  1.
          6    1    1    2  501    0 -0.83165632682E+02 -0.42174063309E+02 -0.26961129852E+03  0.33363816683E+03  0.17300000000E+03 0.  1.
         -6    1    1    2    0  502  0.83165632682E+02  0.42174063309E+02 -0.19551094840E+03  0.27721598984E+03  0.17300000000E+03 0. -1.
<mgrwt>
<rscale>  2 0.19653034E+03</rscale>
<asrwt>0</asrwt>
<pdfrwt beam="1">  1       21 0.11210147E-01 0.19653034E+03</pdfrwt>
<pdfrwt beam="2">  1       21 0.82767416E-01 0.19653034E+03</pdfrwt>
<totfact> 0.84230758E+04</totfact>
</mgrwt>
</event>
<event>
 4    1  0.4050555E+000  0.1836915E+03  0.7546771E-02  0.1164277E+00
         21   -1    0    0  501  502  0.00000000000E+00  0.00000000000E+00  0.34140784159E+02  0.34140784159E+02  0.00000000000E+00 0.  1.
         21   -1    0    0  502  503 -0.00000000000E+00 -0.00000000000E+00 -0.13308915466E+04  0.13308915466E+04  0.00000000000E+00 0.  1.
          6    1    1    2  501    0  0.94825055254E+01 -0.61021635066E+02 -0.30211144397E+03  0.35357302278E+03  0.17300000000E+03 0.  1.
         -6    1    1    2    0  503 -0.94825055254E+01  0.61021635066E+02 -0.99463931846E+03  0.10114593080E+04  0.17300000000E+03 0.  1.
<mgrwt>
<rscale>  2 0.18369147E+03</rscale>
<asrwt>0</asrwt>
<pdfrwt beam="1">  1       21 0.52524281E-02 0.18369147E+03</pdfrwt>
<pdfrwt beam="2">  1       21 0.20475256E+00 0.18369147E+03</pdfrwt>
<totfact> 0.31181721E+04</totfact>
</mgrwt>
</event>
<event>
 4    1  0.4050555E+000  0.3149609E+03  0.7546771E-02  0.1077992E+00
         21   -1    0    0  501  502  0.00000000000E+00  0.00000000000E+00  0.38340816411E+03  0.38340816411E+03  0.00000000000E+00 0.  1.
         21   -1    0    0  502  503 -0.00000000000E+00 -0.00000000000E+00 -0.26662825250E+03  0.26662825250E+03  0.00000000000E+00 0. -1.
          6    1    1    2  501    0  0.17755453919E+03 -0.19428266562E+03  0.11431880680E+03  0.33506590119E+03  0.17300000000E+03 0. -1.
         -6    1    1    2    0  503 -0.17755453919E+03  0.19428266562E+03  0.24611047963E+01  0.31497051542E+03  0.17300000000E+03 0.  1.
<mgrwt>
<rscale>  2 0.31496090E+03</rscale>
<asrwt>0</asrwt>
<pdfrwt beam="1">  1       21 0.58985871E-01 0.31496090E+03</pdfrwt>
<pdfrwt beam="2">  1       21 0.41019731E-01 0.31496090E+03</pdfrwt>
<totfact> 0.14452849E+04</totfact>
</mgrwt>
</event>
<event>
 4    1  0.4050555E+000  0.2536807E+03  0.7546771E-02  0.1111001E+00
         21   -1    0    0  501  502  0.00000000000E+00  0.00000000000E+00  0.13009591527E+03  0.13009591527E+03  0.00000000000E+00 0.  1.
         21   -1    0    0  502  503 -0.00000000000E+00 -0.00000000000E+00 -0.62065368111E+03  0.62065368111E+03  0.00000000000E+00 0.  1.
          6    1    1    2  501    0 -0.14545875310E+03 -0.11518091050E+03 -0.76154480879E+02  0.26486486357E+03  0.17300000000E+03 0.  1.
         -6    1    1    2    0  503  0.14545875310E+03  0.11518091050E+03 -0.41440328495E+03  0.48588473281E+03  0.17300000000E+03 0.  1.
<mgrwt>
<rscale>  2 0.25368069E+03</rscale>
<asrwt>0</asrwt>
<pdfrwt beam="1">  1       21 0.20014756E-01 0.25368069E+03</pdfrwt>
<pdfrwt beam="2">  1       21 0.95485183E-01 0.25368069E+03</pdfrwt>
<totfact> 0.20398324E+04</totfact>
</mgrwt>
</event>
<event>
 4    1  0.4050555E+000  0.1771943E+03  0.7546771E-02  0.1170546E+00
         21   -1    0    0  503  502  0.00000000000E+00  0.00000000000E+00  0.58880344209E+03  0.58880344209E+03  0.00000000000E+00 0.  1.
         21   -1    0    0  501  503 -0.00000000000E+00 -0.00000000000E+00 -0.95944558186E+02  0.95944558186E+02  0.00000000000E+00 0.  1.
          6    1    1    2  501    0  0.86010942241E+01 -0.37347666424E+02  0.18239717782E+02  0.17813061027E+03  0.17300000000E+03 0.  1.
         -6    1    1    2    0  502 -0.86010942241E+01  0.37347666424E+02  0.47461916612E+03  0.50661739001E+03  0.17300000000E+03 0.  1.
<mgrwt>
<rscale>  2 0.17719432E+03</rscale>
<asrwt>0</asrwt>
<pdfrwt beam="1">  1       21 0.90585143E-01 0.17719432E+03</pdfrwt>
<pdfrwt beam="2">  1       21 0.14760702E-01 0.17719432E+03</pdfrwt>
<totfact> 0.42139613E+04</totfact>
</mgrwt>
</event>
<event>
 4    1  0.4050555E+000  0.2479628E+03  0.7546771E-02  0.1114599E+00
         21   -1    0    0  501  502  0.00000000000E+00  0.00000000000E+00  0.48052739320E+03  0.48052739320E+03  0.00000000000E+00 0.  1.
         21   -1    0    0  502  503 -0.00000000000E+00 -0.00000000000E+00 -0.13999135209E+03  0.13999135209E+03  0.00000000000E+00 0. -1.
          6    1    1    2  501    0  0.11657030077E+03 -0.13404436743E+03  0.26124574719E+03  0.36018726780E+03  0.17300000000E+03 0. -1.
         -6    1    1    2    0  503 -0.11657030077E+03  0.13404436743E+03  0.79290293926E+02  0.26033147749E+03  0.17300000000E+03 0. -1.
<mgrwt>
<rscale>  2 0.24796275E+03</rscale>
<asrwt>0</asrwt>
<pdfrwt beam="1">  1       21 0.73927291E-01 0.24796275E+03</pdfrwt>
<pdfrwt beam="2">  1       21 0.21537131E-01 0.24796275E+03</pdfrwt>
<totfact> 0.32084166E+04</totfact>
</mgrwt>
</event>
<event>
 4    1  0.4050555E+000  0.3199798E+03  0.7546771E-02  0.1075659E+00
         21   -1    0    0  503  502  0.00000000000E+00  0.00000000000E+00  0.12438701315E+03  0.12438701315E+03  0.00000000000E+00 0. -1.
         21   -1    0    0  501  503 -0.00000000000E+00 -0.00000000000E+00 -0.20878202416E+04  0.20878202416E+04  0.00000000000E+00 0.  1.
          6    1    1    2  501    0 -0.13142591616E+03  0.23491545758E+03 -0.18425931077E+04  0.18701701538E+04  0.17300000000E+03 0.  1.
         -6    1    1    2    0  502  0.13142591616E+03 -0.23491545758E+03 -0.12084012077E+03  0.34203710096E+03  0.17300000000E+03 0. -1.
<mgrwt>
<rscale>  2 0.31997976E+03</rscale>
<asrwt>0</asrwt>
<pdfrwt beam="1">  1       21 0.19136463E-01 0.31997976E+03</pdfrwt>
<pdfrwt beam="2">  1       21 0.32120312E+00 0.31997976E+03</pdfrwt>
<totfact> 0.56021788E+02</totfact>
</mgrwt>
</event>
<event>
 4    1  0.4050555E+000  0.1853496E+03  0.7546771E-02  0.1162724E+00
         21   -1    0    0  503  502  0.00000000000E+00  0.00000000000E+00  0.18718435195E+03  0.18718435195E+03  0.00000000000E+00 0.  1.
         21   -1    0    0  501  503 -0.00000000000E+00 -0.00000000000E+00 -0.19557587657E+03  0.19557587657E+03  0.00000000000E+00 0.  1.
          6    1    1    2  501    0  0.13793640816E+02  0.65078402887E+02 -0.51686442475E+02  0.19242128621E+03  0.17300000000E+03 0. -1.
         -6    1    1    2    0  502 -0.13793640816E+02 -0.65078402887E+02  0.43294917854E+02  0.19033894231E+03  0.17300000000E+03 0. -1.
<mgrwt>
<rscale>  2 0.18534957E+03</rscale>
<asrwt>0</asrwt>
<pdfrwt beam="1">  1       21 0.28797593E-01 0.18534957E+03</pdfrwt>
<pdfrwt beam="2">  1       21 0.30088596E-01 0.18534957E+03</pdfrwt>
<totfact> 0.12256051E+05</totfact>
</mgrwt>
</event>
<event>
 4    1  0.4050555E+000  0.1829119E+03  0.7546771E-02  0.1165014E+00
         21   -1    0    0  503  502  0.00000000000E+00  0.00000000000E+00  0.37817077328E+02  0.37817077328E+02  0.00000000000E+00 0. -1.
         21   -1    0    0  501  503 -0.00000000000E+00 -0.00000000000E+00 -0.95392026758E+03  0.95392026758E+03  0.00000000000E+00 0. -1.
          6    1    1    2  501    0  0.53104578020E+02 -0.26601757009E+02 -0.59162771252E+03  0.61925770072E+03  0.17300000000E+03 0. -1.
         -6    1    1    2    0  502 -0.53104578020E+02  0.26601757009E+02 -0.32447547773E+03  0.37247964419E+03  0.17300000000E+03 0. -1.
<mgrwt>
<rscale>  2 0.18291186E+03</rscale>
<asrwt>0</asrwt>
<pdfrwt beam="1">  1       21 0.58180115E-02 0.18291186E+03</pdfrwt>
<pdfrwt beam="2">  1       21 0.14675698E+00 0.18291186E+03</pdfrwt>
<totfact> 0.66126469E+04</totfact>
</mgrwt>
</event>
<event>
 4    1  0.4050555E+000  0.2634999E+03  0.7546771E-02  0.1105058E+00
         21   -1    0    0  501  502  0.00000000000E+00  0.00000000000E+00  0.83172868349E+03  0.83172868349E+03  0.00000000000E+00 0. -1.
         21   -1    0    0  502  503 -0.00000000000E+00 -0.00000000000E+00 -0.11517572868E+03  0.11517572868E+03  0.00000000000E+00 0. -1.
          6    1    1    2  501    0 -0.19860599440E+03  0.76718614545E+01  0.60664711266E+03  0.66140223598E+03  0.17300000000E+03 0. -1.
         -6    1    1    2    0  503  0.19860599440E+03 -0.76718614545E+01  0.10990584215E+03  0.28550217619E+03  0.17300000000E+03 0. -1.
<mgrwt>
<rscale>  2 0.26349990E+03</rscale>
<asrwt>0</asrwt>
<pdfrwt beam="1">  1       21 0.12795826E+00 0.26349990E+03</pdfrwt>
<pdfrwt beam="2">  1       21 0.17719343E-01 0.26349990E+03</pdfrwt>
<totfact> 0.12444237E+04</totfact>
</mgrwt>
</event>
<event>
 4    1  0.4050555E+000  0.1836580E+03  0.7546771E-02  0.1164309E+00
         21   -1    0    0  503  502  0.00000000000E+00  0.00000000000E+00  0.67523693258E+02  0.67523693258E+02  0.00000000000E+00 0.  1.
         21   -1    0    0  501  503 -0.00000000000E+00 -0.00000000000E+00 -0.81374040226E+03  0.81374040226E+03  0.00000000000E+00 0.  1.
          6    1    1    2  501    0  0.55021729678E+02 -0.27818814112E+02 -0.64691356895E+03  0.67247858170E+03  0.17300000000E+03 0.  1.
         -6    1    1    2    0  502 -0.55021729678E+02  0.27818814112E+02 -0.99303140051E+02  0.20878551382E+03  0.17300000000E+03 0.  1.
<mgrwt>
<rscale>  2 0.18365804E+03</rscale>
<asrwt>0</asrwt>
<pdfrwt beam="1">  1       21 0.10388261E-01 0.18365804E+03</pdfrwt>
<pdfrwt beam="2">  1       21 0.12519083E+00 0.18365804E+03</pdfrwt>
<totfact> 0.36231419E+04</totfact>
</mgrwt>
</event>
<event>
 4    1  0.4050555E+000  0.1860065E+03  0.7546771E-02  0.1162113E+00
         21   -1    0    0  503  502  0.00000000000E+00  0.00000000000E+00  0.51202388263E+03  0.51202388263E+03  0.00000000000E+00 0. -1.
         21   -1    0    0  501  503 -0.00000000000E+00 -0.00000000000E+00 -0.69703483632E+02  0.69703483632E+02  0.00000000000E+00 0. -1.
          6    1    1    2  501    0  0.60105605814E+02  0.32507469587E+02  0.17029568878E+03  0.25218850300E+03  0.17300000000E+03 0. -1.
         -6    1    1    2    0  502 -0.60105605814E+02 -0.32507469587E+02  0.27202471022E+03  0.32953886326E+03  0.17300000000E+03 0. -1.
<mgrwt>
<rscale>  2 0.18600650E+03</rscale>
<asrwt>0</asrwt>
<pdfrwt beam="1">  1       21 0.78772902E-01 0.18600650E+03</pdfrwt>
<pdfrwt beam="2">  1       21 0.10723613E-01 0.18600650E+03</pdfrwt>
<totfact> 0.10238153E+05</totfact>
</mgrwt>
</event>
<event>
 4    1  0.4050555E+000  0.2352257E+03  0.7546771E-02  0.1123015E+00
         21   -1    0    0  503  502  0.00000000000E+00  0.00000000000E+00  0.90923732147E+02  0.90923732147E+02  0.00000000000E+00 0.  1.
         21   -1    0    0  501  503 -0.00000000000E+00 -0.00000000000E+00 -0.61060870574E+03  0.61060870574E+03  0.00000000000E+00 0.  1.
          6    1    1    2  501    0 -0.14730083290E+03  0.60865381677E+02 -0.23944761768E+03  0.33565799808E+03  0.17300000000E+03 0.  1.
         -6    1    1    2    0  502  0.14730083290E+03 -0.60865381677E+02 -0.28023735591E+03  0.36587443981E+03  0.17300000000E+03 0.  1.
<mgrwt>
<rscale>  2 0.23522570E+03</rscale>
<asrwt>0</asrwt>
<pdfrwt beam="1">  1       21 0.13988267E-01 0.23522570E+03</pdfrwt>
<pdfrwt beam="2">  1       21 0.93939799E-01 0.23522570E+03</pdfrwt>
<totfact> 0.41458226E+04</totfact>
</mgrwt>
</event>
<event>
 4    1  0.4050555E+000  0.1952655E+03  0.7546771E-02  0.1153796E+00
         21   -1    0    0  503  502  0.00000000000E+00  0.00000000000E+00  0.52715775438E+03  0.52715775438E+03  0.00000000000E+00 0. -1.
         21   -1    0    0  501  503 -0.00000000000E+00 -0.00000000000E+00 -0.10752831706E+03  0.10752831706E+03  0.00000000000E+00 0. -1.
          6    1    1    2  501    0 -0.13452263010E+02 -0.89547023968E+02  0.28247875558E+02  0.19729818893E+03  0.17300000000E+03 0. -1.
         -6    1    1    2    0  502  0.13452263010E+02  0.89547023968E+02  0.39138156176E+03  0.43738788251E+03  0.17300000000E+03 0. -1.
<mgrwt>
<rscale>  2 0.19526554E+03</rscale>
<asrwt>0</asrwt>
<pdfrwt beam="1">  1       21 0.81101191E-01 0.19526554E+03</pdfrwt>
<pdfrwt beam="2">  1       21 0.16542818E-01 0.19526554E+03</pdfrwt>
<totfact> 0.43679488E+04</totfact>
</mgrwt>
</event>
<event>
 4    1  0.4050555E+000  0.2005369E+03  0.7546771E-02  0.1149287E+00
         21   -1    0    0  501  502  0.00000000000E+00  0.00000000000E+00  0.31051639125E+03  0.31051639125E+03  0.00000000000E+00 0. -1.
         21   -1    0    0  502  503 -0.00000000000E+00 -0.00000000000E+00 -0.15947328377E+03  0.15947328377E+03  0.00000000000E+00 0. -1.
          6    1    1    2  501    0  0.10132976198E+03 -0.42803857295E+01  0.17738246346E+03  0.26773042545E+03  0.17300000000E+03 0. -1.
         -6    1    1    2    0  503 -0.10132976198E+03  0.42803857295E+01 -0.26339355983E+02  0.20225924958E+03  0.17300000000E+03 0. -1.
<mgrwt>
<rscale>  2 0.20053689E+03</rscale>
<asrwt>0</asrwt>
<pdfrwt beam="1">  1       21 0.47771752E-01 0.20053689E+03</pdfrwt>
<pdfrwt beam="2">  1       21 0.24534351E-01 0.20053689E+03</pdfrwt>
<totfact> 0.65531585E+04</totfact>
</mgrwt>
</event>
<event>
 4    1  0.4050555E+000  0.1819039E+03  0.7546771E-02  0.1165973E+00
         21   -1    0    0  501  502  0.00000000000E+00  0.00000000000E+00  0.54256958862E+02  0.54256958862E+02  0.00000000000E+00 0.  1.
         21   -1    0    0  502  503 -0.00000000000E+00 -0.00000000000E+00 -0.75839902922E+03  0.75839902922E+03  0.00000000000E+00 0.  1.
          6    1    1    2  501    0 -0.30985042327E+02  0.46903621217E+02 -0.17224541935E+03  0.25051448465E+03  0.17300000000E+03 0.  1.
         -6    1    1    2    0  503  0.30985042327E+02 -0.46903621217E+02 -0.53189665101E+03  0.56214150343E+03  0.17300000000E+03 0.  1.
<mgrwt>
<rscale>  2 0.18190388E+03</rscale>
<asrwt>0</asrwt>
<pdfrwt beam="1">  1       21 0.83472254E-02 0.18190388E+03</pdfrwt>
<pdfrwt beam="2">  1       21 0.11667676E+00 0.18190388E+03</pdfrwt>
<totfact> 0.63391679E+04</totfact>
</mgrwt>
</event>
<event>
 4    1  0.4050555E+000  0.2366549E+03  0.7546771E-02  0.1122041E+00
         21   -1    0    0  503  502  0.00000000000E+00  0.00000000000E+00  0.81674251916E+03  0.81674251916E+03  0.00000000000E+00 0.  1.
         21   -1    0    0  501  503 -0.00000000000E+00 -0.00000000000E+00 -0.10297763192E+03  0.10297763192E+03  0.00000000000E+00 0. -1.
          6    1    1    2  501    0 -0.12091066047E+03 -0.10703816110E+03  0.91073314183E+02  0.25357425797E+03  0.17300000000E+03 0. -1.
         -6    1    1    2    0  502  0.12091066047E+03  0.10703816110E+03  0.62269157306E+03  0.66614589311E+03  0.17300000000E+03 0.  1.
<mgrwt>
<rscale>  2 0.23665493E+03</rscale>
<asrwt>0</asrwt>
<pdfrwt beam="1">  1       21 0.12565269E+00 0.23665493E+03</pdfrwt>
<pdfrwt beam="2">  1       21 0.15842713E-01 0.23665493E+03</pdfrwt>
<totfact> 0.16263356E+04</totfact>
</mgrwt>
</event>
<event>
 4    1  0.4050555E+000  0.2259739E+03  0.7546771E-02  0.1129506E+00
         21   -1    0    0  503  502  0.00000000000E+00  0.00000000000E+00  0.42164198755E+03  0.42164198755E+03  0.00000000000E+00 0. -1.
         21   -1    0    0  501  503 -0.00000000000E+00 -0.00000000000E+00 -0.13331711601E+03  0.13331711601E+03  0.00000000000E+00 0.  1.
          6    1    1    2  501    0  0.11397557987E+03 -0.90248369827E+02  0.60191141595E+02  0.23385289091E+03  0.17300000000E+03 0.  1.
         -6    1    1    2    0  502 -0.11397557987E+03  0.90248369827E+02  0.22813372994E+03  0.32110621265E+03  0.17300000000E+03 0. -1.
<mgrwt>
<rscale>  2 0.22597389E+03</rscale>
<asrwt>0</asrwt>
<pdfrwt beam="1">  1       21 0.64867998E-01 0.22597389E+03</pdfrwt>
<pdfrwt beam="2">  1       21 0.20510326E-01 0.22597389E+03</pdfrwt>
<totfact> 0.47443765E+04</totfact>
</mgrwt>
</event>
<event>
 4    1  0.4050555E+000  0.1775459E+03  0.7546771E-02  0.1170200E+00
         21   -1    0    0  501  502  0.00000000000E+00  0.00000000000E+00  0.50878005640E+03  0.50878005640E+03  0.00000000000E+00 0.  1.
         21   -1    0    0  502  503 -0.00000000000E+00 -0.00000000000E+00 -0.67918665175E+02  0.67918665175E+02  0.00000000000E+00 0.  1.
          6    1    1    2  501    0  0.39036693333E+02  0.83471367303E+01  0.30585952947E+03  0.35365603329E+03  0.17300000000E+03 0.  1.
         -6    1    1    2    0  503 -0.39036693333E+02 -0.83471367303E+01  0.13500186176E+03  0.22304268828E+03  0.17300000000E+03 0.  1.
<mgrwt>
<rscale>  2 0.17754588E+03</rscale>
<asrwt>0</asrwt>
<pdfrwt beam="1">  1       21 0.78273852E-01 0.17754588E+03</pdfrwt>
<pdfrwt beam="2">  1       21 0.10449026E-01 0.17754588E+03</pdfrwt>
<totfact> 0.10909638E+05</totfact>
</mgrwt>
</event>
<event>
 4    1  0.4050555E+000  0.2255813E+03  0.7546771E-02  0.1129789E+00
         21   -1    0    0  501  502  0.00000000000E+00  0.00000000000E+00  0.15947297628E+03  0.15947297628E+03  0.00000000000E+00 0. -1.
         21   -1    0    0  502  503 -0.00000000000E+00 -0.00000000000E+00 -0.33957680913E+03  0.33957680913E+03  0.00000000000E+00 0.  1.
          6    1    1    2  501    0 -0.26899843741E+02  0.14224742066E+03 -0.28769538247E+02  0.22740847963E+03  0.17300000000E+03 0.  1.
         -6    1    1    2    0  503  0.26899843741E+02 -0.14224742066E+03 -0.15133429461E+03  0.27164130577E+03  0.17300000000E+03 0. -1.
<mgrwt>
<rscale>  2 0.22558132E+03</rscale>
<asrwt>0</asrwt>
<pdfrwt beam="1">  1       21 0.24534304E-01 0.22558132E+03</pdfrwt>
<pdfrwt beam="2">  1       21 0.52242585E-01 0.22558132E+03</pdfrwt>
<totfact> 0.53754044E+04</totfact>
</mgrwt>
</event>
<event>
 4    1  0.4050555E+000  0.1934876E+03  0.7546771E-02  0.1155353E+00
         21   -1    0    0  503  502  0.00000000000E+00  0.00000000000E+00  0.10835795924E+03  0.10835795924E+03  0.00000000000E+00 0. -1.
         21   -1    0    0  501  503 -0.00000000000E+00 -0.00000000000E+00 -0.44310978132E+03  0.44310978132E+03  0.00000000000E+00 0. -1.
          6    1    1    2  501    0  0.70711902976E+02 -0.50082796669E+02 -0.29679118491E+03  0.35429150030E+03  0.17300000000E+03 0. -1.
         -6    1    1    2    0  502 -0.70711902976E+02  0.50082796669E+02 -0.37960637169E+02  0.19717624025E+03  0.17300000000E+03 0. -1.
<mgrwt>
<rscale>  2 0.19348762E+03</rscale>
<asrwt>0</asrwt>
<pdfrwt beam="1">  1       21 0.16670455E-01 0.19348762E+03</pdfrwt>
<pdfrwt beam="2">  1       21 0.68170735E-01 0.19348762E+03</pdfrwt>
<totfact> 0.63496985E+04</totfact>
</mgrwt>
</event>
<event>
 4    1  0.4050555E+000  0.1804459E+03  0.7546771E-02  0.1167372E+00
         21   -1    0    0  501  502  0.00000000000E+00  0.00000000000E+00  0.43369984517E+03  0.43369984517E+03  0.00000000000E+00 0. -1.
         21   -1    0    0  502  503 -0.00000000000E+00 -0.00000000000E+00 -0.10862284345E+03  0.10862284345E+03  0.00000000000E+00 0. -1.
          6    1    1    2  501    0  0.49011692679E+02 -0.15152204487E+02  0.31323000260E+03  0.36148827070E+03  0.17300000000E+03 0. -1.
         -6    1    1    2    0  503 -0.49011692679E+02  0.15152204487E+02  0.11846999119E+02  0.18083441793E+03  0.17300000000E+03 0. -1.
<mgrwt>
<rscale>  2 0.18044593E+03</rscale>
<asrwt>0</asrwt>
<pdfrwt beam="1">  1       21 0.66723052E-01 0.18044593E+03</pdfrwt>
<pdfrwt beam="2">  1       21 0.16711207E-01 0.18044593E+03</pdfrwt>
<totfact> 0.66632983E+04</totfact>
</mgrwt>
</event>
<event>
 4    1  0.4050555E+000  0.2000549E+03  0.7546771E-02  0.1149693E+00
         21   -1    0    0  503  502  0.00000000000E+00  0.00000000000E+00  0.29468980299E+03  0.29468980299E+03  0.00000000000E+00 0.  1.
         21   -1    0    0  501  503 -0.00000000000E+00 -0.00000000000E+00 -0.13631801896E+03  0.13631801896E+03  0.00000000000E+00 0.  1.
          6    1    1    2  501    0  0.47422557325E+02  0.88566627957E+02  0.66035521516E+02  0.21067186958E+03  0.17300000000E+03 0.  1.
         -6    1    1    2    0  502 -0.47422557325E+02 -0.88566627957E+02  0.92336262514E+02  0.22033595237E+03  0.17300000000E+03 0.  1.
<mgrwt>
<rscale>  2 0.20005486E+03</rscale>
<asrwt>0</asrwt>
<pdfrwt beam="1">  1       21 0.45336893E-01 0.20005486E+03</pdfrwt>
<pdfrwt beam="2">  1       21 0.20972003E-01 0.20005486E+03</pdfrwt>
<totfact> 0.98266274E+04</totfact>
</mgrwt>
</event>
<event>
 4    1  0.4050555E+000  0.2489793E+03  0.7546771E-02  0.1113952E+00
         21   -1    0    0  503  502  0.00000000000E+00  0.00000000000E+00  0.78921855409E+03  0.78921855409E+03  0.00000000000E+00 0. -1.
         21   -1    0    0  501  503 -0.00000000000E+00 -0.00000000000E+00 -0.79848139775E+02  0.79848139775E+02  0.00000000000E+00 0.  1.
          6    1    1    2  501    0  0.23955777973E+02 -0.17744800033E+03  0.29921380998E+03  0.38925515565E+03  0.17300000000E+03 0. -1.
         -6    1    1    2    0  502 -0.23955777973E+02  0.17744800033E+03  0.41015660434E+03  0.47981153821E+03  0.17300000000E+03 0.  1.
<mgrwt>
<rscale>  2 0.24897926E+03</rscale>
<asrwt>0</asrwt>
<pdfrwt beam="1">  1       21 0.12141823E+00 0.24897926E+03</pdfrwt>
<pdfrwt beam="2">  1       21 0.12284330E-01 0.24897926E+03</pdfrwt>
<totfact> 0.27987667E+04</totfact>
</mgrwt>
</event>
<event>
 4    1  0.4050555E+000  0.1980081E+03  0.7546771E-02  0.1151431E+00
         21   -1    0    0  501  502  0.00000000000E+00  0.00000000000E+00  0.28789271920E+03  0.28789271920E+03  0.00000000000E+00 0.  1.
         21   -1    0    0  502  503 -0.00000000000E+00 -0.00000000000E+00 -0.13811311233E+03  0.13811311233E+03  0.00000000000E+00 0.  1.
          6    1    1    2  501    0 -0.74211434961E+02 -0.61407393538E+02  0.10004483299E+03  0.22184718540E+03  0.17300000000E+03 0.  1.
         -6    1    1    2    0  503  0.74211434961E+02  0.61407393538E+02  0.49734773872E+02  0.20415864614E+03  0.17300000000E+03 0.  1.
<mgrwt>
<rscale>  2 0.19800809E+03</rscale>
<asrwt>0</asrwt>
<pdfrwt beam="1">  1       21 0.44291187E-01 0.19800809E+03</pdfrwt>
<pdfrwt beam="2">  1       21 0.21248171E-01 0.19800809E+03</pdfrwt>
<totfact> 0.10067274E+05</totfact>
</mgrwt>
</event>
<event>
 4    1  0.4050555E+000  0.2032905E+03  0.7546771E-02  0.1146992E+00
         21   -1    0    0  503  502  0.00000000000E+00  0.00000000000E+00  0.44170964333E+03  0.44170964333E+03  0.00000000000E+00 0. -1.
         21   -1    0    0  501  503 -0.00000000000E+00 -0.00000000000E+00 -0.98604967103E+02  0.98604967103E+02  0.00000000000E+00 0.  1.
          6    1    1    2  501    0  0.20306763960E+02  0.10481246201E+03  0.11045364659E+03  0.23135908216E+03  0.17300000000E+03 0.  1.
         -6    1    1    2    0  502 -0.20306763960E+02 -0.10481246201E+03  0.23265102964E+03  0.30895552827E+03  0.17300000000E+03 0. -1.
<mgrwt>
<rscale>  2 0.20329047E+03</rscale>
<asrwt>0</asrwt>
<pdfrwt beam="1">  1       21 0.67955329E-01 0.20329047E+03</pdfrwt>
<pdfrwt beam="2">  1       21 0.15169995E-01 0.20329047E+03</pdfrwt>
<totfact> 0.75647388E+04</totfact>
</mgrwt>
</event>
<event>
 4    1  0.4050555E+000  0.3587333E+03  0.7546771E-02  0.1059087E+00
         21   -1    0    0  501  502  0.00000000000E+00  0.00000000000E+00  0.80058149102E+03  0.80058149102E+03  0.00000000000E+00 0. -1.
         21   -1    0    0  502  503 -0.00000000000E+00 -0.00000000000E+00 -0.24838334042E+03  0.24838334042E+03  0.00000000000E+00 0.  1.
          6    1    1    2  501    0 -0.10781365637E+03 -0.29518946399E+03  0.58764090287E+03  0.68848488354E+03  0.17300000000E+03 0. -1.
         -6    1    1    2    0  503  0.10781365637E+03  0.29518946399E+03 -0.35442752259E+02  0.36047994790E+03  0.17300000000E+03 0.  1.
<mgrwt>
<rscale>  2 0.35873333E+03</rscale>
<asrwt>0</asrwt>
<pdfrwt beam="1">  1       21 0.12316638E+00 0.35873333E+03</pdfrwt>
<pdfrwt beam="2">  1       21 0.38212822E-01 0.35873333E+03</pdfrwt>
<totfact> 0.29399699E+03</totfact>
</mgrwt>
</event>
<event>
 4    1  0.4050555E+000  0.1884177E+03  0.7546771E-02  0.1159896E+00
         21   -1    0    0  503  502  0.00000000000E+00  0.00000000000E+00  0.47288100536E+03  0.47288100536E+03  0.00000000000E+00 0.  1.
         21   -1    0    0  501  503 -0.00000000000E+00 -0.00000000000E+00 -0.84451009675E+02  0.84451009675E+02  0.00000000000E+00 0. -1.
          6    1    1    2  501    0  0.47201686755E+02 -0.57829353941E+02  0.10135991471E+03  0.21395108254E+03  0.17300000000E+03 0. -1.
         -6    1    1    2    0  502 -0.47201686755E+02  0.57829353941E+02  0.28707008097E+03  0.34338093249E+03  0.17300000000E+03 0.  1.
<mgrwt>
<rscale>  2 0.18841771E+03</rscale>
<asrwt>0</asrwt>
<pdfrwt beam="1">  1       21 0.72750922E-01 0.18841771E+03</pdfrwt>
<pdfrwt beam="2">  1       21 0.12992463E-01 0.18841771E+03</pdfrwt>
<totfact> 0.86726020E+04</totfact>
</mgrwt>
</event>
<event>
 4    1  0.4050555E+000  0.2738415E+03  0.7546771E-02  0.1099101E+00
         21   -1    0    0  503  502  0.00000000000E+00  0.00000000000E+00  0.20991594940E+03  0.20991594940E+03  0.00000000000E+00 0. -1.
         21   -1    0    0  501  503 -0.00000000000E+00 -0.00000000000E+00 -0.41108776451E+03  0.41108776451E+03  0.00000000000E+00 0.  1.
          6    1    1    2  501    0  0.11238500843E+03 -0.18008262238E+03 -0.21296989741E+03  0.34690822736E+03  0.17300000000E+03 0. -1.
         -6    1    1    2    0  502 -0.11238500843E+03  0.18008262238E+03  0.11798082305E+02  0.27409548655E+03  0.17300000000E+03 0.  1.
<mgrwt>
<rscale>  2 0.27384145E+03</rscale>
<asrwt>0</asrwt>
<pdfrwt beam="1">  1       21 0.32294762E-01 0.27384145E+03</pdfrwt>
<pdfrwt beam="2">  1       21 0.63244271E-01 0.27384145E+03</pdfrwt>
<totfact> 0.20457248E+04</totfact>
</mgrwt>
</event>
<event>
 4    1  0.4050555E+000  0.2210765E+03  0.7546771E-02  0.1133083E+00
         21   -1    0    0  503  502  0.00000000000E+00  0.00000000000E+00  0.83880860214E+02  0.83880860214E+02  0.00000000000E+00 0.  1.
         21   -1    0    0  501  503 -0.00000000000E+00 -0.00000000000E+00 -0.58794064609E+03  0.58794064609E+03  0.00000000000E+00 0. -1.
          6    1    1    2  501    0  0.13427615228E+03 -0.30260842918E+02 -0.28383648605E+03  0.35977486641E+03  0.17300000000E+03 0. -1.
         -6    1    1    2    0  502 -0.13427615228E+03  0.30260842918E+02 -0.22022329983E+03  0.31204663990E+03  0.17300000000E+03 0.  1.
<mgrwt>
<rscale>  2 0.22107647E+03</rscale>
<asrwt>0</asrwt>
<pdfrwt beam="1">  1       21 0.12904748E-01 0.22107647E+03</pdfrwt>
<pdfrwt beam="2">  1       21 0.90452406E-01 0.22107647E+03</pdfrwt>
<totfact> 0.52757512E+04</totfact>
</mgrwt>
</event>
<event>
 4    1  0.4050555E+000  0.2407390E+03  0.7546771E-02  0.1119302E+00
         21   -1    0    0  501  502  0.00000000000E+00  0.00000000000E+00  0.10950009578E+03  0.10950009578E+03  0.00000000000E+00 0.  1.
         21   -1    0    0  502  503 -0.00000000000E+00 -0.00000000000E+00 -0.53294439973E+03  0.53294439973E+03  0.00000000000E+00 0.  1.
          6    1    1    2  501    0 -0.13822726796E+03 -0.94442940208E+02 -0.18505434985E+03  0.30364512010E+03  0.17300000000E+03 0.  1.
         -6    1    1    2    0  503  0.13822726796E+03  0.94442940208E+02 -0.23838995410E+03  0.33879937541E+03  0.17300000000E+03 0.  1.
<mgrwt>
<rscale>  2 0.24073896E+03</rscale>
<asrwt>0</asrwt>
<pdfrwt beam="1">  1       21 0.16846169E-01 0.24073896E+03</pdfrwt>
<pdfrwt beam="2">  1       21 0.81991446E-01 0.24073896E+03</pdfrwt>
<totfact> 0.40307864E+04</totfact>
</mgrwt>
</event>
<event>
 4    1  0.4050555E+000  0.1860694E+03  0.7546771E-02  0.1162055E+00
         21   -1    0    0  501  502  0.00000000000E+00  0.00000000000E+00  0.19643104658E+03  0.19643104658E+03  0.00000000000E+00 0. -1.
         21   -1    0    0  502  503 -0.00000000000E+00 -0.00000000000E+00 -0.18103914656E+03  0.18103914656E+03  0.00000000000E+00 0. -1.
          6    1    1    2  501    0  0.52551386308E+02 -0.43944962323E+02  0.38379276239E+02  0.18998625414E+03  0.17300000000E+03 0.  1.
         -6    1    1    2    0  503 -0.52551386308E+02  0.43944962323E+02 -0.22987376221E+02  0.18748393900E+03  0.17300000000E+03 0.  1.
<mgrwt>
<rscale>  2 0.18606936E+03</rscale>
<asrwt>0</asrwt>
<pdfrwt beam="1">  1       21 0.30220161E-01 0.18606936E+03</pdfrwt>
<pdfrwt beam="2">  1       21 0.27852176E-01 0.18606936E+03</pdfrwt>
<totfact> 0.12959793E+05</totfact>
</mgrwt>
</event>
<event>
 4    1  0.4050555E+000  0.2433651E+03  0.7546771E-02  0.1117571E+00
         21   -1    0    0  503  502  0.00000000000E+00  0.00000000000E+00  0.15035463799E+04  0.15035463799E+04  0.00000000000E+00 0.  1.
         21   -1    0    0  501  503 -0.00000000000E+00 -0.00000000000E+00 -0.50646688167E+02  0.50646688167E+02  0.00000000000E+00 0.  1.
          6    1    1    2  501    0 -0.10287465545E+03  0.13680051805E+03  0.36011301553E+03  0.43463543393E+03  0.17300000000E+03 0.  1.
         -6    1    1    2    0  502  0.10287465545E+03 -0.13680051805E+03  0.10927866762E+04  0.11195576341E+04  0.17300000000E+03 0.  1.
<mgrwt>
<rscale>  2 0.24336511E+03</rscale>
<asrwt>0</asrwt>
<pdfrwt beam="1">  1       21 0.23131479E+00 0.24336511E+03</pdfrwt>
<pdfrwt beam="2">  1       21 0.77917993E-02 0.24336511E+03</pdfrwt>
<totfact> 0.10347355E+04</totfact>
</mgrwt>
</event>
<event>
 4    1  0.4050555E+000  0.2773721E+03  0.7546771E-02  0.1097133E+00
         21   -1    0    0  501  502  0.00000000000E+00  0.00000000000E+00  0.29381805839E+03  0.29381805839E+03  0.00000000000E+00 0. -1.
         21   -1    0    0  502  503 -0.00000000000E+00 -0.00000000000E+00 -0.31628490277E+03  0.31628490277E+03  0.00000000000E+00 0.  1.
          6    1    1    2  501    0 -0.16225265215E+03 -0.14380673181E+03  0.11532342770E+03  0.30039106548E+03  0.17300000000E+03 0.  1.
         -6    1    1    2    0  503  0.16225265215E+03  0.14380673181E+03 -0.13779027208E+03  0.30971189568E+03  0.17300000000E+03 0. -1.
<mgrwt>
<rscale>  2 0.27737213E+03</rscale>
<asrwt>0</asrwt>
<pdfrwt beam="1">  1       21 0.45202778E-01 0.27737213E+03</pdfrwt>
<pdfrwt beam="2">  1       21 0.48659216E-01 0.27737213E+03</pdfrwt>
<totfact> 0.18107231E+04</totfact>
</mgrwt>
</event>
<event>
 4    1  0.4050555E+000  0.1850242E+03  0.7546771E-02  0.1163027E+00
         21   -1    0    0  501  502  0.00000000000E+00  0.00000000000E+00  0.17280109875E+03  0.17280109875E+03  0.00000000000E+00 0.  1.
         21   -1    0    0  502  503 -0.00000000000E+00 -0.00000000000E+00 -0.21943786310E+03  0.21943786310E+03  0.00000000000E+00 0. -1.
          6    1    1    2  501    0 -0.47087635927E+02  0.45691611025E+02  0.37820628699E+02  0.18885012240E+03  0.17300000000E+03 0. -1.
         -6    1    1    2    0  503  0.47087635927E+02 -0.45691611025E+02 -0.84457393049E+02  0.20338883946E+03  0.17300000000E+03 0. -1.
<mgrwt>
<rscale>  2 0.18502424E+03</rscale>
<asrwt>0</asrwt>
<pdfrwt beam="1">  1       21 0.26584784E-01 0.18502424E+03</pdfrwt>
<pdfrwt beam="2">  1       21 0.33759671E-01 0.18502424E+03</pdfrwt>
<totfact> 0.11411689E+05</totfact>
</mgrwt>
</event>
<event>
 4    1  0.4050555E+000  0.2355257E+03  0.7546771E-02  0.1122810E+00
         21   -1    0    0  503  502  0.00000000000E+00  0.00000000000E+00  0.57039108060E+02  0.57039108060E+02  0.00000000000E+00 0. -1.
         21   -1    0    0  501  503 -0.00000000000E+00 -0.00000000000E+00 -0.11154782961E+04  0.11154782961E+04  0.00000000000E+00 0. -1.
          6    1    1    2  501    0  0.13895161031E+02 -0.15921774531E+03 -0.73908699207E+03  0.77570738540E+03  0.17300000000E+03 0.  1.
         -6    1    1    2    0  502 -0.13895161031E+02  0.15921774531E+03 -0.31935219600E+03  0.39681001879E+03  0.17300000000E+03 0.  1.
<mgrwt>
<rscale>  2 0.23552572E+03</rscale>
<asrwt>0</asrwt>
<pdfrwt beam="1">  1       21 0.87752471E-02 0.23552572E+03</pdfrwt>
<pdfrwt beam="2">  1       21 0.17161205E+00 0.23552572E+03</pdfrwt>
<totfact> 0.20636594E+04</totfact>
</mgrwt>
</event>
<event>
 4    1  0.4050555E+000  0.4424347E+03  0.7546771E-02  0.1030002E+00
         21   -1    0    0  503  502  0.00000000000E+00  0.00000000000E+00  0.11608108284E+04  0.11608108284E+04  0.00000000000E+00 0.  1.
         21   -1    0    0  501  503 -0.00000000000E+00 -0.00000000000E+00 -0.16966105892E+03  0.16966105892E+03  0.00000000000E+00 0. -1.
          6    1    1    2  501    0 -0.37188243642E+03  0.16590020951E+03  0.44373503524E+03  0.62661727357E+03  0.17300000000E+03 0. -1.
         -6    1    1    2    0  502  0.37188243642E+03 -0.16590020951E+03  0.54741473427E+03  0.70385461377E+03  0.17300000000E+03 0.  1.
<mgrwt>
<rscale>  2 0.44243466E+03</rscale>
<asrwt>0</asrwt>
<pdfrwt beam="1">  1       21 0.17858628E+00 0.44243466E+03</pdfrwt>
<pdfrwt beam="2">  1       21 0.26101702E-01 0.44243466E+03</pdfrwt>
<totfact> 0.22180107E+03</totfact>
</mgrwt>
</event>
<event>
 4    1  0.4050555E+000  0.1857989E+03  0.7546771E-02  0.1162306E+00
         21   -1    0    0  503  502  0.00000000000E+00  0.00000000000E+00  0.12355411513E+03  0.12355411513E+03  0.00000000000E+00 0. -1.
         21   -1    0    0  501  503 -0.00000000000E+00 -0.00000000000E+00 -0.33289647399E+03  0.33289647399E+03  0.00000000000E+00 0.  1.
          6    1    1    2  501    0 -0.30827532615E+02  0.60348095372E+02 -0.19615933479E+03  0.27018459247E+03  0.17300000000E+03 0.  1.
         -6    1    1    2    0  502  0.30827532615E+02 -0.60348095372E+02 -0.13183024067E+02  0.18626599664E+03  0.17300000000E+03 0. -1.
<mgrwt>
<rscale>  2 0.18579889E+03</rscale>
<asrwt>0</asrwt>
<pdfrwt beam="1">  1       21 0.19008326E-01 0.18579889E+03</pdfrwt>
<pdfrwt beam="2">  1       21 0.51214842E-01 0.18579889E+03</pdfrwt>
<totfact> 0.92215090E+04</totfact>
</mgrwt>
</event>
<event>
 4    1  0.4050555E+000  0.1812848E+03  0.7546771E-02  0.1166565E+00
         21   -1    0    0  501  502  0.00000000000E+00  0.00000000000E+00  0.28970705039E+03  0.28970705039E+03  0.00000000000E+00 0.  1.
         21   -1    0    0  502  503 -0.00000000000E+00 -0.00000000000E+00 -0.28651372028E+03  0.28651372028E+03  0.00000000000E+00 0. -1.
          6    1    1    2  501    0  0.34638013452E+02  0.41657800663E+02  0.22552169815E+03  0.28935134468E+03  0.17300000000E+03 0.  1.
         -6    1    1    2    0  503 -0.34638013452E+02 -0.41657800663E+02 -0.22232836804E+03  0.28686942599E+03  0.17300000000E+03 0. -1.
<mgrwt>
<rscale>  2 0.18128476E+03</rscale>
<asrwt>0</asrwt>
<pdfrwt beam="1">  1       21 0.44570316E-01 0.18128476E+03</pdfrwt>
<pdfrwt beam="2">  1       21 0.44079034E-01 0.18128476E+03</pdfrwt>
<totfact> 0.24048386E+04</totfact>
</mgrwt>
</event>
<event>
 4    1  0.4050555E+000  0.2890276E+03  0.7546771E-02  0.1090858E+00
         21   -1    0    0  501  502  0.00000000000E+00  0.00000000000E+00  0.93279884977E+03  0.93279884977E+03  0.00000000000E+00 0.  1.
         21   -1    0    0  502  503 -0.00000000000E+00 -0.00000000000E+00 -0.10078746973E+03  0.10078746973E+03  0.00000000000E+00 0.  1.
          6    1    1    2  501    0  0.23146060276E+03 -0.58274279512E+01  0.58852893600E+03  0.65567009849E+03  0.17300000000E+03 0.  1.
         -6    1    1    2    0  503 -0.23146060276E+03  0.58274279512E+01  0.24348244404E+03  0.37791622101E+03  0.17300000000E+03 0.  1.
<mgrwt>
<rscale>  2 0.28902763E+03</rscale>
<asrwt>0</asrwt>
<pdfrwt beam="1">  1       21 0.14350751E+00 0.28902763E+03</pdfrwt>
<pdfrwt beam="2">  1       21 0.15505765E-01 0.28902763E+03</pdfrwt>
<totfact> 0.11686050E+04</totfact>
</mgrwt>
</event>
<event>
 4    1  0.4050555E+000  0.2077114E+03  0.7546771E-02  0.1143391E+00
         21   -1    0    0  501  502  0.00000000000E+00  0.00000000000E+00  0.85698665304E+03  0.85698665304E+03  0.00000000000E+00 0.  1.
         21   -1    0    0  502  503 -0.00000000000E+00 -0.00000000000E+00 -0.53707444664E+02  0.53707444664E+02  0.00000000000E+00 0.  1.
          6    1    1    2  501    0  0.87944073851E+02 -0.74033004458E+02  0.51559219900E+03  0.55585912023E+03  0.17300000000E+03 0.  1.
         -6    1    1    2    0  503 -0.87944073851E+02  0.74033004458E+02  0.28768700938E+03  0.35483497748E+03  0.17300000000E+03 0.  1.
<mgrwt>
<rscale>  2 0.20771145E+03</rscale>
<asrwt>0</asrwt>
<pdfrwt beam="1">  1       21 0.13184409E+00 0.20771145E+03</pdfrwt>
<pdfrwt beam="2">  1       21 0.82626844E-02 0.20771145E+03</pdfrwt>
<totfact> 0.46928218E+04</totfact>
</mgrwt>
</event>
<event>
 4    1  0.4050555E+000  0.2552871E+03  0.7546771E-02  0.1110008E+00
         21   -1    0    0  503  502  0.00000000000E+00  0.00000000000E+00  0.31499361631E+02  0.31499361631E+02  0.00000000000E+00 0. -1.
         21   -1    0    0  501  503 -0.00000000000E+00 -0.00000000000E+00 -0.23966514632E+04  0.23966514632E+04  0.00000000000E+00 0. -1.
          6    1    1    2  501    0 -0.14293126108E+03  0.12170931909E+03 -0.16314904032E+04  0.16513426172E+04  0.17300000000E+03 0. -1.
         -6    1    1    2    0  502  0.14293126108E+03 -0.12170931909E+03 -0.73366169845E+03  0.77680820768E+03  0.17300000000E+03 0. -1.
<mgrwt>
<rscale>  2 0.25528710E+03</rscale>
<asrwt>0</asrwt>
<pdfrwt beam="1">  1       21 0.48460556E-02 0.25528710E+03</pdfrwt>
<pdfrwt beam="2">  1       21 0.36871562E+00 0.25528710E+03</pdfrwt>
<totfact> 0.35671606E+03</totfact>
</mgrwt>
</event>
<event>
 4    1  0.4050555E+000  0.1749099E+03  0.7546771E-02  0.1172822E+00
         21   -1    0    0  503  502  0.00000000000E+00  0.00000000000E+00  0.45336216339E+03  0.45336216339E+03  0.00000000000E+00 0.  1.
         21   -1    0    0  501  503 -0.00000000000E+00 -0.00000000000E+00 -0.10538573337E+03  0.10538573337E+03  0.00000000000E+00 0.  1.
          6    1    1    2  501    0 -0.95933031709E+01  0.23925789987E+02  0.64399581170E+01  0.17502842041E+03  0.17300000000E+03 0.  1.
         -6    1    1    2    0  502  0.95933031709E+01 -0.23925789987E+02  0.34153647190E+03  0.38371947635E+03  0.17300000000E+03 0.  1.
<mgrwt>
<rscale>  2 0.17490991E+03</rscale>
<asrwt>0</asrwt>
<pdfrwt beam="1">  1       21 0.69748024E-01 0.17490991E+03</pdfrwt>
<pdfrwt beam="2">  1       21 0.16213190E-01 0.17490991E+03</pdfrwt>
<totfact> 0.64073581E+04</totfact>
</mgrwt>
</event>
<event>
 4    1  0.4050555E+000  0.2447368E+03  0.7546771E-02  0.1116677E+00
         21   -1    0    0  501  502  0.00000000000E+00  0.00000000000E+00  0.33298565908E+02  0.33298565908E+02  0.00000000000E+00 0.  1.
         21   -1    0    0  502  503 -0.00000000000E+00 -0.00000000000E+00 -0.21010093185E+04  0.21010093185E+04  0.00000000000E+00 0.  1.
          6    1    1    2  501    0 -0.17259187259E+03 -0.13383684163E+02 -0.62909606560E+03  0.67502439751E+03  0.17300000000E+03 0.  1.
         -6    1    1    2    0  503  0.17259187259E+03  0.13383684163E+02 -0.14386146870E+04  0.14592834869E+04  0.17300000000E+03 0.  1.
<mgrwt>
<rscale>  2 0.24473675E+03</rscale>
<asrwt>0</asrwt>
<pdfrwt beam="1">  1       21 0.51228549E-02 0.24473675E+03</pdfrwt>
<pdfrwt beam="2">  1       21 0.32323229E+00 0.24473675E+03</pdfrwt>
<totfact> 0.61231320E+03</totfact>
</mgrwt>
</event>
<event>
 4    1  0.4050555E+000  0.2191017E+03  0.7546771E-02  0.1134555E+00
         21   -1    0    0  503  502  0.00000000000E+00  0.00000000000E+00  0.10055453531E+03  0.10055453531E+03  0.00000000000E+00 0. -1.
         21   -1    0    0  501  503 -0.00000000000E+00 -0.00000000000E+00 -0.71049996579E+03  0.71049996579E+03  0.00000000000E+00 0. -1.
          6    1    1    2  501    0 -0.33438594500E+02 -0.13022453017E+03 -0.53724714517E+03  0.58020691383E+03  0.17300000000E+03 0. -1.
         -6    1    1    2    0  502  0.33438594500E+02  0.13022453017E+03 -0.72698285306E+02  0.23084758727E+03  0.17300000000E+03 0. -1.
<mgrwt>
<rscale>  2 0.21910173E+03</rscale>
<asrwt>0</asrwt>
<pdfrwt beam="1">  1       21 0.15469929E-01 0.21910173E+03</pdfrwt>
<pdfrwt beam="2">  1       21 0.10930769E+00 0.21910173E+03</pdfrwt>
<totfact> 0.24211681E+04</totfact>
</mgrwt>
</event>
<event>
 4    1  0.4050555E+000  0.1850893E+03  0.7546771E-02  0.1162967E+00
         21   -1    0    0  501  502  0.00000000000E+00  0.00000000000E+00  0.76319670224E+02  0.76319670224E+02  0.00000000000E+00 0. -1.
         21   -1    0    0  502  503 -0.00000000000E+00 -0.00000000000E+00 -0.45875370611E+03  0.45875370611E+03  0.00000000000E+00 0. -1.
          6    1    1    2  501    0 -0.38629003236E+02  0.53262132886E+02 -0.15195925741E+03  0.23947791256E+03  0.17300000000E+03 0. -1.
         -6    1    1    2    0  503  0.38629003236E+02 -0.53262132886E+02 -0.23047477848E+03  0.29559546378E+03  0.17300000000E+03 0. -1.
<mgrwt>
<rscale>  2 0.18508932E+03</rscale>
<asrwt>0</asrwt>
<pdfrwt beam="1">  1       21 0.11741488E-01 0.18508932E+03</pdfrwt>
<pdfrwt beam="2">  1       21 0.70577492E-01 0.18508932E+03</pdfrwt>
<totfact> 0.11133155E+05</totfact>
</mgrwt>
</event>
<event>
 4    1  0.4050555E+000  0.1990436E+03  0.7546771E-02  0.1150548E+00
         21   -1    0    0  503  502  0.00000000000E+00  0.00000000000E+00  0.57914615553E+03  0.57914615553E+03  0.00000000000E+00 0.  1.
         21   -1    0    0  501  503 -0.00000000000E+00 -0.00000000000E+00 -0.92150864600E+02  0.92150864600E+02  0.00000000000E+00 0.  1.
          6    1    1    2  501    0  0.47740433640E+02  0.86082555566E+02  0.73125105596E+02  0.21205102321E+03  0.17300000000E+03 0.  1.
         -6    1    1    2    0  502 -0.47740433640E+02 -0.86082555566E+02  0.41387018534E+03  0.45924599692E+03  0.17300000000E+03 0.  1.
<mgrwt>
<rscale>  2 0.19904360E+03</rscale>
<asrwt>0</asrwt>
<pdfrwt beam="1">  1       21 0.89099406E-01 0.19904360E+03</pdfrwt>
<pdfrwt beam="2">  1       21 0.14177056E-01 0.19904360E+03</pdfrwt>
<totfact> 0.46582610E+04</totfact>
</mgrwt>
</event>
<event>
 4    1  0.4050555E+000  0.2354013E+03  0.7546771E-02  0.1122895E+00
         21   -1    0    0  501  502  0.00000000000E+00  0.00000000000E+00  0.66601412484E+02  0.66601412484E+02  0.00000000000E+00 0. -1.
         21   -1    0    0  502  503 -0.00000000000E+00 -0.00000000000E+00 -0.90143251727E+03  0.90143251727E+03  0.00000000000E+00 0. -1.
          6    1    1    2  501    0  0.15040445798E+03 -0.53509756002E+02 -0.28310542862E+03  0.36818810231E+03  0.17300000000E+03 0. -1.
         -6    1    1    2    0  503 -0.15040445798E+03  0.53509756002E+02 -0.55172567616E+03  0.59984582745E+03  0.17300000000E+03 0. -1.
<mgrwt>
<rscale>  2 0.23540135E+03</rscale>
<asrwt>0</asrwt>
<pdfrwt beam="1">  1       21 0.10246372E-01 0.23540135E+03</pdfrwt>
<pdfrwt beam="2">  1       21 0.13868191E+00 0.23540135E+03</pdfrwt>
<totfact> 0.27798966E+04</totfact>
</mgrwt>
</event>
<event>
 4    1  0.4050555E+000  0.1740472E+03  0.7546771E-02  0.1173692E+00
         21   -1    0    0  501  502  0.00000000000E+00  0.00000000000E+00  0.90223064646E+03  0.90223064646E+03  0.00000000000E+00 0.  1.
         21   -1    0    0  502  503 -0.00000000000E+00 -0.00000000000E+00 -0.34575285683E+02  0.34575285683E+02  0.00000000000E+00 0.  1.
          6    1    1    2  501    0  0.18994901820E+02  0.16158563980E+01  0.51349737645E+03  0.54219182298E+03  0.17300000000E+03 0.  1.
         -6    1    1    2    0  503 -0.18994901820E+02 -0.16158563980E+01  0.35415798433E+03  0.39461410916E+03  0.17300000000E+03 0.  1.
<mgrwt>
<rscale>  2 0.17404717E+03</rscale>
<asrwt>0</asrwt>
<pdfrwt beam="1">  1       21 0.13880470E+00 0.17404717E+03</pdfrwt>
<pdfrwt beam="2">  1       21 0.53192754E-02 0.17404717E+03</pdfrwt>
<totfact> 0.89380006E+04</totfact>
</mgrwt>
</event>
<event>
 4    1  0.4050555E+000  0.1859116E+03  0.7546771E-02  0.1162201E+00
         21   -1    0    0  503  502  0.00000000000E+00  0.00000000000E+00  0.17483673281E+03  0.17483673281E+03  0.00000000000E+00 0.  1.
         21   -1    0    0  501  503 -0.00000000000E+00 -0.00000000000E+00 -0.31521126146E+03  0.31521126146E+03  0.00000000000E+00 0.  1.
          6    1    1    2  501    0  0.37197425467E+02  0.57012961362E+02 -0.21980037491E+03  0.28788075836E+03  0.17300000000E+03 0.  1.
         -6    1    1    2    0  502 -0.37197425467E+02 -0.57012961362E+02  0.79425846252E+02  0.20216723591E+03  0.17300000000E+03 0.  1.
<mgrwt>
<rscale>  2 0.18591161E+03</rscale>
<asrwt>0</asrwt>
<pdfrwt beam="1">  1       21 0.26897959E-01 0.18591161E+03</pdfrwt>
<pdfrwt beam="2">  1       21 0.48494040E-01 0.18591161E+03</pdfrwt>
<totfact> 0.53624552E+04</totfact>
</mgrwt>
</event>
<event>
 4    1  0.4050555E+000  0.2112454E+03  0.7546771E-02  0.1140584E+00
         21   -1    0    0  503  502  0.00000000000E+00  0.00000000000E+00  0.17971621091E+04  0.17971621091E+04  0.00000000000E+00 0.  1.
         21   -1    0    0  501  503 -0.00000000000E+00 -0.00000000000E+00 -0.30466511832E+02  0.30466511832E+02  0.00000000000E+00 0. -1.
          6    1    1    2  501    0 -0.11776224100E+03  0.28769634291E+02  0.49031556185E+03  0.53388574382E+03  0.17300000000E+03 0. -1.
         -6    1    1    2    0  502  0.11776224100E+03 -0.28769634291E+02  0.12763800354E+04  0.12937428771E+04  0.17300000000E+03 0.  1.
<mgrwt>
<rscale>  2 0.21124544E+03</rscale>
<asrwt>0</asrwt>
<pdfrwt beam="1">  1       21 0.27648640E+00 0.21124544E+03</pdfrwt>
<pdfrwt beam="2">  1       21 0.46871571E-02 0.21124544E+03</pdfrwt>
<totfact> 0.13746837E+04</totfact>
</mgrwt>
</event>
<event>
 4    1  0.4050555E+000  0.2800753E+03  0.7546771E-02  0.1095648E+00
         21   -1    0    0  501  502  0.00000000000E+00  0.00000000000E+00  0.40557353304E+03  0.40557353304E+03  0.00000000000E+00 0. -1.
         21   -1    0    0  502  503 -0.00000000000E+00 -0.00000000000E+00 -0.24611351958E+03  0.24611351958E+03  0.00000000000E+00 0. -1.
          6    1    1    2  501    0 -0.15215600759E+03 -0.15925368161E+03  0.23051532270E+03  0.36273888646E+03  0.17300000000E+03 0. -1.
         -6    1    1    2    0  503  0.15215600759E+03  0.15925368161E+03 -0.71055309239E+02  0.28894816615E+03  0.17300000000E+03 0. -1.
<mgrwt>
<rscale>  2 0.28007532E+03</rscale>
<asrwt>0</asrwt>
<pdfrwt beam="1">  1       21 0.62395928E-01 0.28007532E+03</pdfrwt>
<pdfrwt beam="2">  1       21 0.37863618E-01 0.28007532E+03</pdfrwt>
<totfact> 0.15279858E+04</totfact>
</mgrwt>
</event>
<event>
 4    1  0.4050555E+000  0.2413837E+03  0.7546771E-02  0.1118874E+00
         21   -1    0    0  501  502  0.00000000000E+00  0.00000000000E+00  0.12523945021E+04  0.12523945021E+04  0.00000000000E+00 0.  1.
         21   -1    0    0  502  503 -0.00000000000E+00 -0.00000000000E+00 -0.50287269677E+02  0.50287269677E+02  0.00000000000E+00 0.  1.
          6    1    1    2  501    0  0.11761525393E+03 -0.12043157810E+03  0.77924031866E+03  0.81577054813E+03  0.17300000000E+03 0.  1.
         -6    1    1    2    0  503 -0.11761525393E+03  0.12043157810E+03  0.42286691374E+03  0.48691122363E+03  0.17300000000E+03 0.  1.
<mgrwt>
<rscale>  2 0.24138375E+03</rscale>
<asrwt>0</asrwt>
<pdfrwt beam="1">  1       21 0.19267605E+00 0.24138375E+03</pdfrwt>
<pdfrwt beam="2">  1       21 0.77365040E-02 0.24138375E+03</pdfrwt>
<totfact> 0.18417345E+04</totfact>
</mgrwt>
</event>
<event>
 4    1  0.4050555E+000  0.1858843E+03  0.7546771E-02  0.1162227E+00
         21   -1    0    0  501  502  0.00000000000E+00  0.00000000000E+00  0.25918826351E+03  0.25918826351E+03  0.00000000000E+00 0.  1.
         21   -1    0    0  502  503 -0.00000000000E+00 -0.00000000000E+00 -0.13377900654E+03  0.13377900654E+03  0.00000000000E+00 0.  1.
          6    1    1    2  501    0 -0.24944036090E+02  0.63259439829E+02  0.74310923730E+02  0.20018759964E+03  0.17300000000E+03 0. -1.
         -6    1    1    2    0  503  0.24944036090E+02 -0.63259439829E+02  0.51098333235E+02  0.19277967041E+03  0.17300000000E+03 0. -1.
<mgrwt>
<rscale>  2 0.18588427E+03</rscale>
<asrwt>0</asrwt>
<pdfrwt beam="1">  1       21 0.39875117E-01 0.18588427E+03</pdfrwt>
<pdfrwt beam="2">  1       21 0.20581386E-01 0.18588427E+03</pdfrwt>
<totfact> 0.13292378E+05</totfact>
</mgrwt>
</event>
<event>
 4    1  0.4050555E+000  0.2194272E+03  0.7546771E-02  0.1134311E+00
         21   -1    0    0  503  502  0.00000000000E+00  0.00000000000E+00  0.78773710619E+03  0.78773710619E+03  0.00000000000E+00 0. -1.
         21   -1    0    0  501  503 -0.00000000000E+00 -0.00000000000E+00 -0.92665980260E+02  0.92665980260E+02  0.00000000000E+00 0.  1.
          6    1    1    2  501    0  0.91282947510E+01 -0.13466988002E+03  0.90704474944E+02  0.23743547360E+03  0.17300000000E+03 0.  1.
         -6    1    1    2    0  502 -0.91282947510E+01  0.13466988002E+03  0.60436665098E+03  0.64296761285E+03  0.17300000000E+03 0. -1.
<mgrwt>
<rscale>  2 0.21942721E+03</rscale>
<asrwt>0</asrwt>
<pdfrwt beam="1">  1       21 0.12119032E+00 0.21942721E+03</pdfrwt>
<pdfrwt beam="2">  1       21 0.14256305E-01 0.21942721E+03</pdfrwt>
<totfact> 0.21812275E+04</totfact>
</mgrwt>
</event>
<event>
 4    1  0.4050555E+000  0.2379306E+03  0.7546771E-02  0.1121179E+00
         21   -1    0    0  501  502  0.00000000000E+00  0.00000000000E+00  0.23386923731E+03  0.23386923731E+03  0.00000000000E+00 0. -1.
         21   -1    0    0  502  503 -0.00000000000E+00 -0.00000000000E+00 -0.24377182548E+03  0.24377182548E+03  0.00000000000E+00 0. -1.
          6    1    1    2  501    0  0.22199734783E+02  0.16183053572E+03  0.15047513281E+02  0.23840591052E+03  0.17300000000E+03 0. -1.
         -6    1    1    2    0  503 -0.22199734783E+02 -0.16183053572E+03 -0.24950101449E+02  0.23923515226E+03  0.17300000000E+03 0. -1.
<mgrwt>
<rscale>  2 0.23793056E+03</rscale>
<asrwt>0</asrwt>
<pdfrwt beam="1">  1       21 0.35979883E-01 0.23793056E+03</pdfrwt>
<pdfrwt beam="2">  1       21 0.37503357E-01 0.23793056E+03</pdfrwt>
<totfact> 0.50036081E+04</totfact>
</mgrwt>
</event>
<event>
 4    1  0.4050555E+000  0.1733109E+03  0.7546771E-02  0.1174438E+00
         21   -1    0    0  501  502  0.00000000000E+00  0.00000000000E+00  0.41519065416E+03  0.41519065416E+03  0.00000000000E+00 0.  1.
         21   -1    0    0  502  503 -0.00000000000E+00 -0.00000000000E+00 -0.78205322000E+02  0.78205322000E+02  0.00000000000E+00 0.  1.
          6    1    1    2  501    0 -0.65180315487E+01  0.80733713113E+01  0.23602866152E+03  0.29282450908E+03  0.17300000000E+03 0. -1.
         -6    1    1    2    0  503  0.65180315487E+01 -0.80733713113E+01  0.10095667064E+03  0.20057146708E+03  0.17300000000E+03 0. -1.
<mgrwt>
<rscale>  2 0.17331089E+03</rscale>
<asrwt>0</asrwt>
<pdfrwt beam="1">  1       21 0.63875484E-01 0.17331089E+03</pdfrwt>
<pdfrwt beam="2">  1       21 0.12031588E-01 0.17331089E+03</pdfrwt>
<totfact> 0.13312096E+05</totfact>
</mgrwt>
</event>
<event>
 4    1  0.4050555E+000  0.2033991E+03  0.7546771E-02  0.1146902E+00
         21   -1    0    0  503  502  0.00000000000E+00  0.00000000000E+00  0.70657267273E+02  0.70657267273E+02  0.00000000000E+00 0. -1.
         21   -1    0    0  501  503 -0.00000000000E+00 -0.00000000000E+00 -0.60686220205E+03  0.60686220205E+03  0.00000000000E+00 0. -1.
          6    1    1    2  501    0 -0.10595192907E+03  0.14710115177E+02 -0.33163157320E+03  0.38903817178E+03  0.17300000000E+03 0. -1.
         -6    1    1    2    0  502  0.10595192907E+03 -0.14710115177E+02 -0.20457336158E+03  0.28848129754E+03  0.17300000000E+03 0. -1.
<mgrwt>
<rscale>  2 0.20339911E+03</rscale>
<asrwt>0</asrwt>
<pdfrwt beam="1">  1       21 0.10870349E-01 0.20339911E+03</pdfrwt>
<pdfrwt beam="2">  1       21 0.93363416E-01 0.20339911E+03</pdfrwt>
<totfact> 0.67181761E+04</totfact>
</mgrwt>
</event>
<event>
 4    1  0.4050555E+000  0.2058068E+03  0.7546771E-02  0.1144930E+00
         21   -1    0    0  501  502  0.00000000000E+00  0.00000000000E+00  0.12993466569E+04  0.12993466569E+04  0.00000000000E+00 0. -1.
         21   -1    0    0  502  503 -0.00000000000E+00 -0.00000000000E+00 -0.32824192240E+02  0.32824192240E+02  0.00000000000E+00 0. -1.
          6    1    1    2  501    0 -0.10096225991E+03 -0.47265978840E+02  0.68852165754E+03  0.71862265729E+03  0.17300000000E+03 0. -1.
         -6    1    1    2    0  503  0.10096225991E+03  0.47265978840E+02  0.57800080713E+03  0.61354819185E+03  0.17300000000E+03 0. -1.
<mgrwt>
<rscale>  2 0.20580683E+03</rscale>
<asrwt>0</asrwt>
<pdfrwt beam="1">  1       21 0.19989945E+00 0.20580683E+03</pdfrwt>
<pdfrwt beam="2">  1       21 0.50498767E-02 0.20580683E+03</pdfrwt>
<totfact> 0.35245842E+04</totfact>
</mgrwt>
</event>
<event>
 4    1  0.4050555E+000  0.1838804E+03  0.7546771E-02  0.1164100E+00
         21   -1    0    0  501  502  0.00000000000E+00  0.00000000000E+00  0.18091561259E+03  0.18091561259E+03  0.00000000000E+00 0. -1.
         21   -1    0    0  502  503 -0.00000000000E+00 -0.00000000000E+00 -0.23423174290E+03  0.23423174290E+03  0.00000000000E+00 0.  1.
          6    1    1    2  501    0  0.93830741637E+01  0.61603298632E+02  0.66657489311E+02  0.19558944083E+03  0.17300000000E+03 0. -1.
         -6    1    1    2    0  503 -0.93830741637E+01 -0.61603298632E+02 -0.11997361962E+03  0.21955791466E+03  0.17300000000E+03 0.  1.
<mgrwt>
<rscale>  2 0.18388042E+03</rscale>
<asrwt>0</asrwt>
<pdfrwt beam="1">  1       21 0.27833171E-01 0.18388042E+03</pdfrwt>
<pdfrwt beam="2">  1       21 0.36035653E-01 0.18388042E+03</pdfrwt>
<totfact> 0.91836681E+04</totfact>
</mgrwt>
</event>
<event>
 4    1  0.4050555E+000  0.2281007E+03  0.7546771E-02  0.1127984E+00
         21   -1    0    0  501  502  0.00000000000E+00  0.00000000000E+00  0.14872297604E+03  0.14872297604E+03  0.00000000000E+00 0. -1.
         21   -1    0    0  502  503 -0.00000000000E+00 -0.00000000000E+00 -0.36162017775E+03  0.36162017775E+03  0.00000000000E+00 0. -1.
          6    1    1    2  501    0 -0.11524142401E+03  0.93916773146E+02 -0.60402263048E+02  0.23596266541E+03  0.17300000000E+03 0.  1.
         -6    1    1    2    0  503  0.11524142401E+03 -0.93916773146E+02 -0.15249493866E+03  0.27438048838E+03  0.17300000000E+03 0.  1.
<mgrwt>
<rscale>  2 0.22810074E+03</rscale>
<asrwt>0</asrwt>
<pdfrwt beam="1">  1       21 0.22880458E-01 0.22810074E+03</pdfrwt>
<pdfrwt beam="2">  1       21 0.55633873E-01 0.22810074E+03</pdfrwt>
<totfact> 0.53687004E+04</totfact>
</mgrwt>
</event>
<event>
 4    1  0.4050555E+000  0.1857596E+03  0.7546771E-02  0.1162342E+00
         21   -1    0    0  501  502  0.00000000000E+00  0.00000000000E+00  0.51381741358E+02  0.51381741358E+02  0.00000000000E+00 0. -1.
         21   -1    0    0  502  503 -0.00000000000E+00 -0.00000000000E+00 -0.68972229326E+03  0.68972229326E+03  0.00000000000E+00 0. -1.
          6    1    1    2  501    0  0.34545286610E+02 -0.58174204366E+02 -0.25906173869E+03  0.31877829182E+03  0.17300000000E+03 0. -1.
         -6    1    1    2    0  503 -0.34545286610E+02  0.58174204366E+02 -0.37927881321E+03  0.42232574280E+03  0.17300000000E+03 0. -1.
<mgrwt>
<rscale>  2 0.18575956E+03</rscale>
<asrwt>0</asrwt>
<pdfrwt beam="1">  1       21 0.79048833E-02 0.18575956E+03</pdfrwt>
<pdfrwt beam="2">  1       21 0.10611112E+00 0.18575956E+03</pdfrwt>
<totfact> 0.87542979E+04</totfact>
</mgrwt>
</event>
<event>
 4    1  0.4050555E+000  0.2389037E+03  0.7546771E-02  0.1120525E+00
         21   -1    0    0  501  502  0.00000000000E+00  0.00000000000E+00  0.28223604758E+03  0.28223604758E+03  0.00000000000E+00 0. -1.
         21   -1    0    0  502  503 -0.00000000000E+00 -0.00000000000E+00 -0.24491304921E+03  0.24491304921E+03  0.00000000000E+00 0.  1.
          6    1    1    2  501    0  0.12507066939E+03 -0.10725339077E+03  0.12870253600E+03  0.27136562963E+03  0.17300000000E+03 0. -1.
         -6    1    1    2    0  503 -0.12507066939E+03  0.10725339077E+03 -0.91379537634E+02  0.25578346716E+03  0.17300000000E+03 0.  1.
<mgrwt>
<rscale>  2 0.23890367E+03</rscale>
<asrwt>0</asrwt>
<pdfrwt beam="1">  1       21 0.43420930E-01 0.23890367E+03</pdfrwt>
<pdfrwt beam="2">  1       21 0.37678931E-01 0.23890367E+03</pdfrwt>
<totfact> 0.33844876E+04</totfact>
</mgrwt>
</event>
<event>
 4    1  0.4050555E+000  0.2753914E+03  0.7546771E-02  0.1098233E+00
         21   -1    0    0  501  502  0.00000000000E+00  0.00000000000E+00  0.85287277689E+03  0.85287277689E+03  0.00000000000E+00 0. -1.
         21   -1    0    0  502  503 -0.00000000000E+00 -0.00000000000E+00 -0.13257050512E+03  0.13257050512E+03  0.00000000000E+00 0.  1.
          6    1    1    2  501    0  0.87725675727E+02  0.19548821586E+03  0.64287038675E+03  0.69937312708E+03  0.17300000000E+03 0. -1.
         -6    1    1    2    0  503 -0.87725675727E+02 -0.19548821586E+03  0.77431885013E+02  0.28607015493E+03  0.17300000000E+03 0.  1.
<mgrwt>
<rscale>  2 0.27539142E+03</rscale>
<asrwt>0</asrwt>
<pdfrwt beam="1">  1       21 0.13121119E+00 0.27539142E+03</pdfrwt>
<pdfrwt beam="2">  1       21 0.20395463E-01 0.27539142E+03</pdfrwt>
<totfact> 0.89115088E+03</totfact>
</mgrwt>
</event>
<event>
 4    1  0.4050555E+000  0.1960937E+03  0.7546771E-02  0.1153077E+00
         21   -1    0    0  501  502  0.00000000000E+00  0.00000000000E+00  0.60420736944E+02  0.60420736944E+02  0.00000000000E+00 0. -1.
         21   -1    0    0  502  503 -0.00000000000E+00 -0.00000000000E+00 -0.69157323472E+03  0.69157323472E+03  0.00000000000E+00 0. -1.
          6    1    1    2  501    0 -0.18097587321E+02 -0.90532959297E+02 -0.20939068030E+03  0.28687487931E+03  0.17300000000E+03 0. -1.
         -6    1    1    2    0  503  0.18097587321E+02  0.90532959297E+02 -0.42176181748E+03  0.46511909235E+03  0.17300000000E+03 0. -1.
<mgrwt>
<rscale>  2 0.19609370E+03</rscale>
<asrwt>0</asrwt>
<pdfrwt beam="1">  1       21 0.92954981E-02 0.19609370E+03</pdfrwt>
<pdfrwt beam="2">  1       21 0.10639588E+00 0.19609370E+03</pdfrwt>
<totfact> 0.65216386E+04</totfact>
</mgrwt>
</event>
<event>
 4    1  0.4050555E+000  0.2015252E+03  0.7546771E-02  0.1148459E+00
         21   -1    0    0  503  502  0.00000000000E+00  0.00000000000E+00  0.24191258942E+03  0.24191258942E+03  0.00000000000E+00 0. -1.
         21   -1    0    0  501  503 -0.00000000000E+00 -0.00000000000E+00 -0.24075805217E+03  0.24075805217E+03  0.00000000000E+00 0. -1.
          6    1    1    2  501    0  0.83254438851E+01  0.10302478161E+03 -0.13220106566E+03  0.24101771803E+03  0.17300000000E+03 0. -1.
         -6    1    1    2    0  502 -0.83254438851E+01 -0.10302478161E+03  0.13335560290E+03  0.24165292356E+03  0.17300000000E+03 0. -1.
<mgrwt>
<rscale>  2 0.20152523E+03</rscale>
<asrwt>0</asrwt>
<pdfrwt beam="1">  1       21 0.37217322E-01 0.20152523E+03</pdfrwt>
<pdfrwt beam="2">  1       21 0.37039700E-01 0.20152523E+03</pdfrwt>
<totfact> 0.48734747E+04</totfact>
</mgrwt>
</event>
<event>
 4    1  0.4050555E+000  0.1896876E+03  0.7546771E-02  0.1158743E+00
         21   -1    0    0  503  502  0.00000000000E+00  0.00000000000E+00  0.13201646148E+03  0.13201646148E+03  0.00000000000E+00 0. -1.
         21   -1    0    0  501  503 -0.00000000000E+00 -0.00000000000E+00 -0.54311937520E+03  0.54311937520E+03  0.00000000000E+00 0. -1.
          6    1    1    2  501    0  0.31553217776E+02 -0.71110986268E+02 -0.44381141755E+03  0.48264889130E+03  0.17300000000E+03 0. -1.
         -6    1    1    2    0  502 -0.31553217776E+02  0.71110986268E+02  0.32708503830E+02  0.19248694538E+03  0.17300000000E+03 0. -1.
<mgrwt>
<rscale>  2 0.18968758E+03</rscale>
<asrwt>0</asrwt>
<pdfrwt beam="1">  1       21 0.20310225E-01 0.18968758E+03</pdfrwt>
<pdfrwt beam="2">  1       21 0.83556827E-01 0.18968758E+03</pdfrwt>
<totfact> 0.27993605E+04</totfact>
</mgrwt>
</event>
<event>
 4    1  0.4050555E+000  0.2547714E+03  0.7546771E-02  0.1110326E+00
         21   -1    0    0  503  502  0.00000000000E+00  0.00000000000E+00  0.74487839373E+02  0.74487839373E+02  0.00000000000E+00 0. -1.
         21   -1    0    0  501  503 -0.00000000000E+00 -0.00000000000E+00 -0.12148974788E+04  0.12148974788E+04  0.00000000000E+00 0. -1.
          6    1    1    2  501    0  0.16598265692E+03 -0.86193038584E+02 -0.91300935702E+03  0.94788953380E+03  0.17300000000E+03 0. -1.
         -6    1    1    2    0  502 -0.16598265692E+03  0.86193038584E+02 -0.22740028241E+03  0.34149578437E+03  0.17300000000E+03 0. -1.
<mgrwt>
<rscale>  2 0.25477143E+03</rscale>
<asrwt>0</asrwt>
<pdfrwt beam="1">  1       21 0.11459668E-01 0.25477143E+03</pdfrwt>
<pdfrwt beam="2">  1       21 0.18690730E+00 0.25477143E+03</pdfrwt>
<totfact> 0.99567898E+03</totfact>
</mgrwt>
</event>
<event>
 4    1  0.4050555E+000  0.1901293E+03  0.7546771E-02  0.1158345E+00
         21   -1    0    0  501  502  0.00000000000E+00  0.00000000000E+00  0.24069087967E+03  0.24069087967E+03  0.00000000000E+00 0.  1.
         21   -1    0    0  502  503 -0.00000000000E+00 -0.00000000000E+00 -0.16255566489E+03  0.16255566489E+03  0.00000000000E+00 0. -1.
          6    1    1    2  501    0 -0.77489375861E+02  0.14681051861E+02  0.94679140764E+02  0.21239886146E+03  0.17300000000E+03 0.  1.
         -6    1    1    2    0  503  0.77489375861E+02 -0.14681051861E+02 -0.16543925982E+02  0.19084768309E+03  0.17300000000E+03 0.  1.
<mgrwt>
<rscale>  2 0.19012926E+03</rscale>
<asrwt>0</asrwt>
<pdfrwt beam="1">  1       21 0.37029366E-01 0.19012926E+03</pdfrwt>
<pdfrwt beam="2">  1       21 0.25008564E-01 0.19012926E+03</pdfrwt>
<totfact> 0.10656982E+05</totfact>
</mgrwt>
</event>
<event>
 4    1  0.4050555E+000  0.2150574E+03  0.7546771E-02  0.1137622E+00
         21   -1    0    0  501  502  0.00000000000E+00  0.00000000000E+00  0.42817729711E+03  0.42817729711E+03  0.00000000000E+00 0.  1.
         21   -1    0    0  502  503 -0.00000000000E+00 -0.00000000000E+00 -0.11072248428E+03  0.11072248428E+03  0.00000000000E+00 0.  1.
          6    1    1    2  501    0  0.85344994012E+02 -0.95062814199E+02  0.20085994388E+03  0.29426930472E+03  0.17300000000E+03 0.  1.
         -6    1    1    2    0  503 -0.85344994012E+02  0.95062814199E+02  0.11659486896E+03  0.24463047666E+03  0.17300000000E+03 0.  1.
<mgrwt>
<rscale>  2 0.21505745E+03</rscale>
<asrwt>0</asrwt>
<pdfrwt beam="1">  1       21 0.65873430E-01 0.21505745E+03</pdfrwt>
<pdfrwt beam="2">  1       21 0.17034229E-01 0.21505745E+03</pdfrwt>
<totfact> 0.65135832E+04</totfact>
</mgrwt>
</event>
<event>
 4    1  0.4050555E+000  0.2421623E+03  0.7546771E-02  0.1118361E+00
         21   -1    0    0  503  502  0.00000000000E+00  0.00000000000E+00  0.71632621479E+02  0.71632621479E+02  0.00000000000E+00 0.  1.
         21   -1    0    0  501  503 -0.00000000000E+00 -0.00000000000E+00 -0.85221264017E+03  0.85221264017E+03  0.00000000000E+00 0.  1.
          6    1    1    2  501    0 -0.14626391347E+03  0.85559559835E+02 -0.48194917107E+03  0.53936775410E+03  0.17300000000E+03 0.  1.
         -6    1    1    2    0  502  0.14626391347E+03 -0.85559559835E+02 -0.29863084762E+03  0.38447750755E+03  0.17300000000E+03 0.  1.
<mgrwt>
<rscale>  2 0.24216228E+03</rscale>
<asrwt>0</asrwt>
<pdfrwt beam="1">  1       21 0.11020403E-01 0.24216228E+03</pdfrwt>
<pdfrwt beam="2">  1       21 0.13110964E+00 0.24216228E+03</pdfrwt>
<totfact> 0.28102992E+04</totfact>
</mgrwt>
</event>
<event>
 4    1  0.4050555E+000  0.1781293E+03  0.7546771E-02  0.1169626E+00
         21   -1    0    0  501  502  0.00000000000E+00  0.00000000000E+00  0.15473128363E+04  0.15473128363E+04  0.00000000000E+00 0. -1.
         21   -1    0    0  502  503 -0.00000000000E+00 -0.00000000000E+00 -0.26477957192E+02  0.26477957192E+02  0.00000000000E+00 0. -1.
          6    1    1    2  501    0 -0.10311458996E+02  0.41167109085E+02  0.11341086633E+04  0.11480124204E+04  0.17300000000E+03 0. -1.
         -6    1    1    2    0  503  0.10311458996E+02 -0.41167109085E+02  0.38672621576E+03  0.42577837311E+03  0.17300000000E+03 0. -1.
<mgrwt>
<rscale>  2 0.17812933E+03</rscale>
<asrwt>0</asrwt>
<pdfrwt beam="1">  1       21 0.23804806E+00 0.17812933E+03</pdfrwt>
<pdfrwt beam="2">  1       21 0.40735331E-02 0.17812933E+03</pdfrwt>
<totfact> 0.30096503E+04</totfact>
</mgrwt>
</event>
<event>
 4    1  0.4050555E+000  0.2641540E+03  0.7546771E-02  0.1104673E+00
         21   -1    0    0  501  502  0.00000000000E+00  0.00000000000E+00  0.10819840954E+03  0.10819840954E+03  0.00000000000E+00 0. -1.
         21   -1    0    0  502  503 -0.00000000000E+00 -0.00000000000E+00 -0.67172109255E+03  0.67172109255E+03  0.00000000000E+00 0.  1.
          6    1    1    2  501    0 -0.19559034047E+03 -0.39909603752E+02 -0.20384145698E+03  0.33365955305E+03  0.17300000000E+03 0. -1.
         -6    1    1    2    0  503  0.19559034047E+03  0.39909603752E+02 -0.35968122603E+03  0.44625994904E+03  0.17300000000E+03 0.  1.
<mgrwt>
<rscale>  2 0.26415404E+03</rscale>
<asrwt>0</asrwt>
<pdfrwt beam="1">  1       21 0.16645910E-01 0.26415404E+03</pdfrwt>
<pdfrwt beam="2">  1       21 0.10334170E+00 0.26415404E+03</pdfrwt>
<totfact> 0.23694620E+04</totfact>
</mgrwt>
</event>
<event>
 4    1  0.4050555E+000  0.1881580E+03  0.7546771E-02  0.1160133E+00
         21   -1    0    0  501  502  0.00000000000E+00  0.00000000000E+00  0.20466377246E+03  0.20466377246E+03  0.00000000000E+00 0. -1.
         21   -1    0    0  502  503 -0.00000000000E+00 -0.00000000000E+00 -0.67151123865E+03  0.67151123865E+03  0.00000000000E+00 0.  1.
          6    1    1    2  501    0 -0.48945696400E+02 -0.55486584399E+02  0.14404320380E+03  0.23696389346E+03  0.17300000000E+03 0. -1.
         -6    1    1    2    0  503  0.48945696400E+02  0.55486584399E+02 -0.61089066999E+03  0.63921111764E+03  0.17300000000E+03 0.  1.
<mgrwt>
<rscale>  2 0.18815802E+03</rscale>
<asrwt>0</asrwt>
<pdfrwt beam="1">  1       21 0.31486734E-01 0.18815802E+03</pdfrwt>
<pdfrwt beam="2">  1       21 0.10330942E+00 0.18815802E+03</pdfrwt>
<totfact> 0.73891733E+03</totfact>
</mgrwt>
</event>
<event>
 4    1  0.4050555E+000  0.2041249E+03  0.7546771E-02  0.1146305E+00
         21   -1    0    0  501  502  0.00000000000E+00  0.00000000000E+00  0.57493653124E+03  0.57493653124E+03  0.00000000000E+00 0. -1.
         21   -1    0    0  502  503 -0.00000000000E+00 -0.00000000000E+00 -0.11061707049E+03  0.11061707049E+03  0.00000000000E+00 0. -1.
          6    1    1    2  501    0 -0.98340242186E+02 -0.45465952111E+02  0.43344779013E+03  0.47910744390E+03  0.17300000000E+03 0. -1.
         -6    1    1    2    0  503  0.98340242186E+02  0.45465952111E+02  0.30871670618E+02  0.20644615783E+03  0.17300000000E+03 0. -1.
<mgrwt>
<rscale>  2 0.20412485E+03</rscale>
<asrwt>0</asrwt>
<pdfrwt beam="1">  1       21 0.88451773E-01 0.20412485E+03</pdfrwt>
<pdfrwt beam="2">  1       21 0.17018011E-01 0.20412485E+03</pdfrwt>
<totfact> 0.33834977E+04</totfact>
</mgrwt>
</event>
<event>
 4    1  0.4050555E+000  0.1782904E+03  0.7546771E-02  0.1169468E+00
         21   -1    0    0  501  502  0.00000000000E+00  0.00000000000E+00  0.35341706610E+02  0.35341706610E+02  0.00000000000E+00 0. -1.
         21   -1    0    0  502  503 -0.00000000000E+00 -0.00000000000E+00 -0.96472066621E+03  0.96472066621E+03  0.00000000000E+00 0. -1.
          6    1    1    2  501    0 -0.19430480306E+02 -0.38482994319E+02 -0.33460871668E+03  0.37914440217E+03  0.17300000000E+03 0. -1.
         -6    1    1    2    0  503  0.19430480306E+02  0.38482994319E+02 -0.59477024292E+03  0.62091797065E+03  0.17300000000E+03 0. -1.
<mgrwt>
<rscale>  2 0.17829045E+03</rscale>
<asrwt>0</asrwt>
<pdfrwt beam="1">  1       21 0.54371854E-02 0.17829045E+03</pdfrwt>
<pdfrwt beam="2">  1       21 0.14841857E+00 0.17829045E+03</pdfrwt>
<totfact> 0.72231659E+04</totfact>
</mgrwt>
</event>
<event>
 4    1  0.4050555E+000  0.1774269E+03  0.7546771E-02  0.1170317E+00
         21   -1    0    0  503  502  0.00000000000E+00  0.00000000000E+00  0.24469080998E+03  0.24469080998E+03  0.00000000000E+00 0. -1.
         21   -1    0    0  501  503 -0.00000000000E+00 -0.00000000000E+00 -0.29681648234E+03  0.29681648234E+03  0.00000000000E+00 0. -1.
          6    1    1    2  501    0  0.10120659608E+02  0.38064169553E+02 -0.22985881704E+03  0.29037111517E+03  0.17300000000E+03 0. -1.
         -6    1    1    2    0  502 -0.10120659608E+02 -0.38064169553E+02  0.17773314468E+03  0.25113617715E+03  0.17300000000E+03 0. -1.
<mgrwt>
<rscale>  2 0.17742691E+03</rscale>
<asrwt>0</asrwt>
<pdfrwt beam="1">  1       21 0.37644740E-01 0.17742691E+03</pdfrwt>
<pdfrwt beam="2">  1       21 0.45664074E-01 0.17742691E+03</pdfrwt>
<totfact> 0.31548685E+04</totfact>
</mgrwt>
</event>
<event>
 4    1  0.4050555E+000  0.1781930E+03  0.7546771E-02  0.1169563E+00
         21   -1    0    0  501  502  0.00000000000E+00  0.00000000000E+00  0.10802077369E+04  0.10802077369E+04  0.00000000000E+00 0.  1.
         21   -1    0    0  502  503 -0.00000000000E+00 -0.00000000000E+00 -0.35845961081E+02  0.35845961081E+02  0.00000000000E+00 0.  1.
          6    1    1    2  501    0 -0.22501323298E+02  0.36296484465E+02  0.75890691546E+03  0.77954631079E+03  0.17300000000E+03 0. -1.
         -6    1    1    2    0  503  0.22501323298E+02 -0.36296484465E+02  0.28545486039E+03  0.33650738722E+03  0.17300000000E+03 0. -1.
<mgrwt>
<rscale>  2 0.17819300E+03</rscale>
<asrwt>0</asrwt>
<pdfrwt beam="1">  1       21 0.16618578E+00 0.17819300E+03</pdfrwt>
<pdfrwt beam="2">  1       21 0.55147641E-02 0.17819300E+03</pdfrwt>
<totfact> 0.52150563E+04</totfact>
</mgrwt>
</event>
<event>
 4    1  0.4050555E+000  0.2239743E+03  0.7546771E-02  0.1130954E+00
         21   -1    0    0  501  502  0.00000000000E+00  0.00000000000E+00  0.25407081171E+03  0.25407081171E+03  0.00000000000E+00 0.  1.
         21   -1    0    0  502  503 -0.00000000000E+00 -0.00000000000E+00 -0.19918241276E+03  0.19918241276E+03  0.00000000000E+00 0. -1.
          6    1    1    2  501    0 -0.13160823467E+03 -0.53988651077E+02  0.62660784610E+01  0.22406196825E+03  0.17300000000E+03 0. -1.
         -6    1    1    2    0  503  0.13160823467E+03  0.53988651077E+02  0.48622320490E+02  0.22919125622E+03  0.17300000000E+03 0.  1.
<mgrwt>
<rscale>  2 0.22397433E+03</rscale>
<asrwt>0</asrwt>
<pdfrwt beam="1">  1       21 0.39087817E-01 0.22397433E+03</pdfrwt>
<pdfrwt beam="2">  1       21 0.30643448E-01 0.22397433E+03</pdfrwt>
<totfact> 0.63632142E+04</totfact>
</mgrwt>
</event>
<event>
 4    1  0.4050555E+000  0.1845940E+03  0.7546771E-02  0.1163430E+00
         21   -1    0    0  503  502  0.00000000000E+00  0.00000000000E+00  0.11035229065E+03  0.11035229065E+03  0.00000000000E+00 0. -1.
         21   -1    0    0  501  503 -0.00000000000E+00 -0.00000000000E+00 -0.31126404368E+03  0.31126404368E+03  0.00000000000E+00 0. -1.
          6    1    1    2  501    0  0.64270224799E+02 -0.39108816605E+01 -0.11927520520E+03  0.21977609371E+03  0.17300000000E+03 0. -1.
         -6    1    1    2    0  502 -0.64270224799E+02  0.39108816605E+01 -0.81636547821E+02  0.20184024061E+03  0.17300000000E+03 0. -1.
<mgrwt>
<rscale>  2 0.18459403E+03</rscale>
<asrwt>0</asrwt>
<pdfrwt beam="1">  1       21 0.16977276E-01 0.18459403E+03</pdfrwt>
<pdfrwt beam="2">  1       21 0.47886776E-01 0.18459403E+03</pdfrwt>
<totfact> 0.13071681E+05</totfact>
</mgrwt>
</event>
<event>
 4    1  0.4050555E+000  0.3395361E+03  0.7546771E-02  0.1066994E+00
         21   -1    0    0  503  502  0.00000000000E+00  0.00000000000E+00  0.28551669877E+03  0.28551669877E+03  0.00000000000E+00 0. -1.
         21   -1    0    0  501  503 -0.00000000000E+00 -0.00000000000E+00 -0.51189966217E+03  0.51189966217E+03  0.00000000000E+00 0. -1.
          6    1    1    2  501    0  0.29205821214E+03  0.75993606352E+01 -0.29643279121E+03  0.45072957443E+03  0.17300000000E+03 0. -1.
         -6    1    1    2    0  502 -0.29205821214E+03 -0.75993606352E+01  0.70049827811E+02  0.34668678650E+03  0.17300000000E+03 0. -1.
<mgrwt>
<rscale>  2 0.33953608E+03</rscale>
<asrwt>0</asrwt>
<pdfrwt beam="1">  1       21 0.43925647E-01 0.33953608E+03</pdfrwt>
<pdfrwt beam="2">  1       21 0.78753793E-01 0.33953608E+03</pdfrwt>
<totfact> 0.65290852E+03</totfact>
</mgrwt>
</event>
<event>
 4    1  0.4050555E+000  0.1932391E+03  0.7546771E-02  0.1155572E+00
         21   -1    0    0  501  502  0.00000000000E+00  0.00000000000E+00  0.24012293770E+03  0.24012293770E+03  0.00000000000E+00 0.  1.
         21   -1    0    0  502  503 -0.00000000000E+00 -0.00000000000E+00 -0.16051660427E+03  0.16051660427E+03  0.00000000000E+00 0.  1.
          6    1    1    2  501    0 -0.67948114270E+01 -0.85826355656E+02  0.44222627472E+01  0.19328965103E+03  0.17300000000E+03 0. -1.
         -6    1    1    2    0  503  0.67948114270E+01  0.85826355656E+02  0.75184070678E+02  0.20734989094E+03  0.17300000000E+03 0. -1.
<mgrwt>
<rscale>  2 0.19323906E+03</rscale>
<asrwt>0</asrwt>
<pdfrwt beam="1">  1       21 0.36941991E-01 0.19323906E+03</pdfrwt>
<pdfrwt beam="2">  1       21 0.24694862E-01 0.19323906E+03</pdfrwt>
<totfact> 0.10956343E+05</totfact>
</mgrwt>
</event>
<event>
 4    1  0.4050555E+000  0.2145807E+03  0.7546771E-02  0.1137989E+00
         21   -1    0    0  503  502  0.00000000000E+00  0.00000000000E+00  0.18813341724E+03  0.18813341724E+03  0.00000000000E+00 0.  1.
         21   -1    0    0  501  503 -0.00000000000E+00 -0.00000000000E+00 -0.25660885104E+03  0.25660885104E+03  0.00000000000E+00 0.  1.
          6    1    1    2  501    0  0.56632189350E+02  0.11361635875E+03  0.13574516373E+02  0.21500964942E+03  0.17300000000E+03 0.  1.
         -6    1    1    2    0  502 -0.56632189350E+02 -0.11361635875E+03 -0.82049950177E+02  0.22973261887E+03  0.17300000000E+03 0.  1.
<mgrwt>
<rscale>  2 0.21458071E+03</rscale>
<asrwt>0</asrwt>
<pdfrwt beam="1">  1       21 0.28943603E-01 0.21458071E+03</pdfrwt>
<pdfrwt beam="2">  1       21 0.39478285E-01 0.21458071E+03</pdfrwt>
<totfact> 0.69995723E+04</totfact>
</mgrwt>
</event>
<event>
 4    1  0.4050555E+000  0.2761170E+03  0.7546771E-02  0.1097829E+00
         21   -1    0    0  501  502  0.00000000000E+00  0.00000000000E+00  0.40087036400E+03  0.40087036400E+03  0.00000000000E+00 0. -1.
         21   -1    0    0  502  503 -0.00000000000E+00 -0.00000000000E+00 -0.26453497471E+03  0.26453497471E+03  0.00000000000E+00 0.  1.
          6    1    1    2  501    0  0.20419309779E+03  0.67947013565E+02  0.24454683592E+03  0.36884112134E+03  0.17300000000E+03 0. -1.
         -6    1    1    2    0  503 -0.20419309779E+03 -0.67947013565E+02 -0.10821144663E+03  0.29656421736E+03  0.17300000000E+03 0.  1.
<mgrwt>
<rscale>  2 0.27611704E+03</rscale>
<asrwt>0</asrwt>
<pdfrwt beam="1">  1       21 0.61672364E-01 0.27611704E+03</pdfrwt>
<pdfrwt beam="2">  1       21 0.40697688E-01 0.27611704E+03</pdfrwt>
<totfact> 0.13559247E+04</totfact>
</mgrwt>
</event>
<event>
 4    1  0.4050555E+000  0.2007335E+03  0.7546771E-02  0.1149122E+00
         21   -1    0    0  503  502  0.00000000000E+00  0.00000000000E+00  0.40923641850E+03  0.40923641850E+03  0.00000000000E+00 0.  1.
         21   -1    0    0  501  503 -0.00000000000E+00 -0.00000000000E+00 -0.12615739161E+03  0.12615739161E+03  0.00000000000E+00 0.  1.
          6    1    1    2  501    0 -0.74368984848E+02 -0.69528352322E+02  0.16110942339E+02  0.20137899629E+03  0.17300000000E+03 0.  1.
         -6    1    1    2    0  502  0.74368984848E+02  0.69528352322E+02  0.26696808455E+03  0.33401481382E+03  0.17300000000E+03 0.  1.
<mgrwt>
<rscale>  2 0.20073350E+03</rscale>
<asrwt>0</asrwt>
<pdfrwt beam="1">  1       21 0.62959448E-01 0.20073350E+03</pdfrwt>
<pdfrwt beam="2">  1       21 0.19408830E-01 0.20073350E+03</pdfrwt>
<totfact> 0.56799753E+04</totfact>
</mgrwt>
</event>
<event>
 4    1  0.4050555E+000  0.1809349E+03  0.7546771E-02  0.1166901E+00
         21   -1    0    0  503  502  0.00000000000E+00  0.00000000000E+00  0.30471257041E+02  0.30471257041E+02  0.00000000000E+00 0.  1.
         21   -1    0    0  501  503 -0.00000000000E+00 -0.00000000000E+00 -0.14978004593E+04  0.14978004593E+04  0.00000000000E+00 0.  1.
          6    1    1    2  501    0  0.24139333718E+02  0.47177763104E+02 -0.11399525138E+04  0.11542223280E+04  0.17300000000E+03 0.  1.
         -6    1    1    2    0  502 -0.24139333718E+02 -0.47177763104E+02 -0.32737668847E+03  0.37404938834E+03  0.17300000000E+03 0.  1.
<mgrwt>
<rscale>  2 0.18093493E+03</rscale>
<asrwt>0</asrwt>
<pdfrwt beam="1">  1       21 0.46878866E-02 0.18093493E+03</pdfrwt>
<pdfrwt beam="2">  1       21 0.23043079E+00 0.18093493E+03</pdfrwt>
<totfact> 0.26328134E+04</totfact>
</mgrwt>
</event>
<event>
 4    1  0.4050555E+000  0.2840880E+03  0.7546771E-02  0.1093477E+00
         21   -1    0    0  501  502  0.00000000000E+00  0.00000000000E+00  0.93821848975E+02  0.93821848975E+02  0.00000000000E+00 0.  1.
         21   -1    0    0  502  503 -0.00000000000E+00 -0.00000000000E+00 -0.10505503980E+04  0.10505503980E+04  0.00000000000E+00 0.  1.
          6    1    1    2  501    0 -0.22097931447E+03  0.44103688317E+02 -0.23480737257E+03  0.36856545546E+03  0.17300000000E+03 0.  1.
         -6    1    1    2    0  503  0.22097931447E+03 -0.44103688317E+02 -0.72192117645E+03  0.77580679151E+03  0.17300000000E+03 0.  1.
<mgrwt>
<rscale>  2 0.28408800E+03</rscale>
<asrwt>0</asrwt>
<pdfrwt beam="1">  1       21 0.14434130E-01 0.28408800E+03</pdfrwt>
<pdfrwt beam="2">  1       21 0.16162315E+00 0.28408800E+03</pdfrwt>
<totfact> 0.97054894E+03</totfact>
</mgrwt>
</event>
<event>
 4    1  0.4050555E+000  0.1899532E+03  0.7546771E-02  0.1158504E+00
         21   -1    0    0  503  502  0.00000000000E+00  0.00000000000E+00  0.53208521382E+03  0.53208521382E+03  0.00000000000E+00 0.  1.
         21   -1    0    0  501  503 -0.00000000000E+00 -0.00000000000E+00 -0.76369121217E+02  0.76369121217E+02  0.00000000000E+00 0.  1.
          6    1    1    2  501    0  0.14967862633E+00  0.78442274063E+02  0.12602670474E+03  0.22795820466E+03  0.17300000000E+03 0.  1.
         -6    1    1    2    0  502 -0.14967862633E+00 -0.78442274063E+02  0.32968938786E+03  0.38049613038E+03  0.17300000000E+03 0.  1.
<mgrwt>
<rscale>  2 0.18995319E+03</rscale>
<asrwt>0</asrwt>
<pdfrwt beam="1">  1       21 0.81859261E-01 0.18995319E+03</pdfrwt>
<pdfrwt beam="2">  1       21 0.11749096E-01 0.18995319E+03</pdfrwt>
<totfact> 0.79657856E+04</totfact>
</mgrwt>
</event>
<event>
 4    1  0.4050555E+000  0.1907473E+03  0.7546771E-02  0.1157789E+00
         21   -1    0    0  501  502  0.00000000000E+00  0.00000000000E+00  0.44808775985E+02  0.44808775985E+02  0.00000000000E+00 0.  1.
         21   -1    0    0  502  503 -0.00000000000E+00 -0.00000000000E+00 -0.90373352598E+03  0.90373352598E+03  0.00000000000E+00 0.  1.
          6    1    1    2  501    0  0.18953060279E+01 -0.80323989598E+02 -0.27835675260E+03  0.33744187234E+03  0.17300000000E+03 0.  1.
         -6    1    1    2    0  503 -0.18953060279E+01  0.80323989598E+02 -0.58056799740E+03  0.61110042963E+03  0.17300000000E+03 0.  1.
<mgrwt>
<rscale>  2 0.19074731E+03</rscale>
<asrwt>0</asrwt>
<pdfrwt beam="1">  1       21 0.68936583E-02 0.19074731E+03</pdfrwt>
<pdfrwt beam="2">  1       21 0.13903592E+00 0.19074731E+03</pdfrwt>
<totfact> 0.56635542E+04</totfact>
</mgrwt>
</event>
<event>
 4    1  0.4050555E+000  0.2847837E+03  0.7546771E-02  0.1093104E+00
         21   -1    0    0  501  502  0.00000000000E+00  0.00000000000E+00  0.53942898239E+03  0.53942898239E+03  0.00000000000E+00 0. -1.
         21   -1    0    0  502  503 -0.00000000000E+00 -0.00000000000E+00 -0.18514946630E+03  0.18514946630E+03  0.00000000000E+00 0. -1.
          6    1    1    2  501    0 -0.68294609667E+02  0.21565855919E+03  0.33421091225E+03  0.43908848963E+03  0.17300000000E+03 0. -1.
         -6    1    1    2    0  503  0.68294609667E+02 -0.21565855919E+03  0.20068603840E+02  0.28548995906E+03  0.17300000000E+03 0. -1.
<mgrwt>
<rscale>  2 0.28478372E+03</rscale>
<asrwt>0</asrwt>
<pdfrwt beam="1">  1       21 0.82989074E-01 0.28478372E+03</pdfrwt>
<pdfrwt beam="2">  1       21 0.28484533E-01 0.28478372E+03</pdfrwt>
<totfact> 0.14177912E+04</totfact>
</mgrwt>
</event>
<event>
 4    1  0.4050555E+000  0.3621142E+03  0.7546771E-02  0.1057750E+00
         21   -1    0    0  503  502  0.00000000000E+00  0.00000000000E+00  0.51094498912E+03  0.51094498912E+03  0.00000000000E+00 0. -1.
         21   -1    0    0  501  503 -0.00000000000E+00 -0.00000000000E+00 -0.26272375860E+03  0.26272375860E+03  0.00000000000E+00 0. -1.
          6    1    1    2  501    0 -0.25750946750E+03  0.18677948199E+03  0.65224014509E+02  0.36794139862E+03  0.17300000000E+03 0. -1.
         -6    1    1    2    0  502  0.25750946750E+03 -0.18677948199E+03  0.18299721601E+03  0.40572734911E+03  0.17300000000E+03 0. -1.
<mgrwt>
<rscale>  2 0.36211421E+03</rscale>
<asrwt>0</asrwt>
<pdfrwt beam="1">  1       21 0.78606921E-01 0.36211421E+03</pdfrwt>
<pdfrwt beam="2">  1       21 0.40419040E-01 0.36211421E+03</pdfrwt>
<totfact> 0.77148709E+03</totfact>
</mgrwt>
</event>
<event>
 4    1  0.4050555E+000  0.2186350E+03  0.7546771E-02  0.1134905E+00
         21   -1    0    0  503  502  0.00000000000E+00  0.00000000000E+00  0.24893321265E+03  0.24893321265E+03  0.00000000000E+00 0. -1.
         21   -1    0    0  501  503 -0.00000000000E+00 -0.00000000000E+00 -0.25374508504E+03  0.25374508504E+03  0.00000000000E+00 0. -1.
          6    1    1    2  501    0 -0.74657987517E+02 -0.11089828752E+03 -0.12636456612E+03  0.25252573898E+03  0.17300000000E+03 0. -1.
         -6    1    1    2    0  502  0.74657987517E+02  0.11089828752E+03  0.12155269373E+03  0.25015255871E+03  0.17300000000E+03 0. -1.
<mgrwt>
<rscale>  2 0.21863496E+03</rscale>
<asrwt>0</asrwt>
<pdfrwt beam="1">  1       21 0.38297417E-01 0.21863496E+03</pdfrwt>
<pdfrwt beam="2">  1       21 0.39037705E-01 0.21863496E+03</pdfrwt>
<totfact> 0.41063450E+04</totfact>
</mgrwt>
</event>
<event>
 4    1  0.4050555E+000  0.1865007E+03  0.7546771E-02  0.1161656E+00
         21   -1    0    0  503  502  0.00000000000E+00  0.00000000000E+00  0.17684542323E+03  0.17684542323E+03  0.00000000000E+00 0. -1.
         21   -1    0    0  501  503 -0.00000000000E+00 -0.00000000000E+00 -0.19928181696E+03  0.19928181696E+03  0.00000000000E+00 0.  1.
          6    1    1    2  501    0  0.49896511943E+02 -0.48619287170E+02  0.10257869232E+02  0.18678254969E+03  0.17300000000E+03 0.  1.
         -6    1    1    2    0  502 -0.49896511943E+02  0.48619287170E+02 -0.32694262967E+02  0.18934469050E+03  0.17300000000E+03 0. -1.
<mgrwt>
<rscale>  2 0.18650066E+03</rscale>
<asrwt>0</asrwt>
<pdfrwt beam="1">  1       21 0.27206988E-01 0.18650066E+03</pdfrwt>
<pdfrwt beam="2">  1       21 0.30658741E-01 0.18650066E+03</pdfrwt>
<totfact> 0.13181369E+05</totfact>
</mgrwt>
</event>
<event>
 4    1  0.4050555E+000  0.2120636E+03  0.7546771E-02  0.1139942E+00
         21   -1    0    0  501  502  0.00000000000E+00  0.00000000000E+00  0.17595912137E+03  0.17595912137E+03  0.00000000000E+00 0.  1.
         21   -1    0    0  502  503 -0.00000000000E+00 -0.00000000000E+00 -0.68880104186E+03  0.68880104186E+03  0.00000000000E+00 0.  1.
          6    1    1    2  501    0  0.94759027477E+02 -0.77863374122E+02  0.86485301289E+02  0.22902114675E+03  0.17300000000E+03 0.  1.
         -6    1    1    2    0  503 -0.94759027477E+02  0.77863374122E+02 -0.59932722177E+03  0.63573901648E+03  0.17300000000E+03 0.  1.
<mgrwt>
<rscale>  2 0.21206362E+03</rscale>
<asrwt>0</asrwt>
<pdfrwt beam="1">  1       21 0.27070633E-01 0.21206362E+03</pdfrwt>
<pdfrwt beam="2">  1       21 0.10596939E+00 0.21206362E+03</pdfrwt>
<totfact> 0.91662712E+03</totfact>
</mgrwt>
</event>
<event>
 4    1  0.4050555E+000  0.2637228E+03  0.7546771E-02  0.1104927E+00
         21   -1    0    0  503  502  0.00000000000E+00  0.00000000000E+00  0.19130043239E+03  0.19130043239E+03  0.00000000000E+00 0.  1.
         21   -1    0    0  501  503 -0.00000000000E+00 -0.00000000000E+00 -0.45651181603E+03  0.45651181603E+03  0.00000000000E+00 0.  1.
          6    1    1    2  501    0  0.16630668644E+03  0.10937457534E+03 -0.27876135844E+03  0.38374158837E+03  0.17300000000E+03 0.  1.
         -6    1    1    2    0  502 -0.16630668644E+03 -0.10937457534E+03  0.13549974789E+02  0.26407066005E+03  0.17300000000E+03 0.  1.
<mgrwt>
<rscale>  2 0.26372279E+03</rscale>
<asrwt>0</asrwt>
<pdfrwt beam="1">  1       21 0.29430836E-01 0.26372279E+03</pdfrwt>
<pdfrwt beam="2">  1       21 0.70232585E-01 0.26372279E+03</pdfrwt>
<totfact> 0.19586069E+04</totfact>
</mgrwt>
</event>
<event>
 4    1  0.4050555E+000  0.1918617E+03  0.7546771E-02  0.1156793E+00
         21   -1    0    0  503  502  0.00000000000E+00  0.00000000000E+00  0.14039985518E+03  0.14039985518E+03  0.00000000000E+00 0. -1.
         21   -1    0    0  501  503 -0.00000000000E+00 -0.00000000000E+00 -0.41941596348E+03  0.41941596348E+03  0.00000000000E+00 0. -1.
          6    1    1    2  501    0  0.54144782191E+01 -0.82780434642E+02 -0.31088798005E+03  0.36532485964E+03  0.17300000000E+03 0. -1.
         -6    1    1    2    0  502 -0.54144782191E+01  0.82780434642E+02  0.31871871744E+02  0.19449095902E+03  0.17300000000E+03 0. -1.
<mgrwt>
<rscale>  2 0.19186171E+03</rscale>
<asrwt>0</asrwt>
<pdfrwt beam="1">  1       21 0.21599978E-01 0.19186171E+03</pdfrwt>
<pdfrwt beam="2">  1       21 0.64525533E-01 0.19186171E+03</pdfrwt>
<totfact> 0.44269183E+04</totfact>
</mgrwt>
</event>
<event>
 4    1  0.4050555E+000  0.2420270E+03  0.7546771E-02  0.1118450E+00
         21   -1    0    0  503  502  0.00000000000E+00  0.00000000000E+00  0.63931142596E+02  0.63931142596E+02  0.00000000000E+00 0. -1.
         21   -1    0    0  501  503 -0.00000000000E+00 -0.00000000000E+00 -0.15131387546E+04  0.15131387546E+04  0.00000000000E+00 0. -1.
          6    1    1    2  501    0 -0.15298913190E+03 -0.72404448722E+02 -0.12198570220E+04  0.12436350883E+04  0.17300000000E+03 0. -1.
         -6    1    1    2    0  502  0.15298913190E+03  0.72404448722E+02 -0.22935059006E+03  0.33343480898E+03  0.17300000000E+03 0. -1.
<mgrwt>
<rscale>  2 0.24202702E+03</rscale>
<asrwt>0</asrwt>
<pdfrwt beam="1">  1       21 0.98355608E-02 0.24202702E+03</pdfrwt>
<pdfrwt beam="2">  1       21 0.23279057E+00 0.24202702E+03</pdfrwt>
<totfact> 0.67330896E+03</totfact>
</mgrwt>
</event>
<event>
 4    1  0.4050555E+000  0.2044467E+03  0.7546771E-02  0.1146041E+00
         21   -1    0    0  501  502  0.00000000000E+00  0.00000000000E+00  0.41505748188E+03  0.41505748188E+03  0.00000000000E+00 0.  1.
         21   -1    0    0  502  503 -0.00000000000E+00 -0.00000000000E+00 -0.15250056677E+03  0.15250056677E+03  0.00000000000E+00 0. -1.
          6    1    1    2  501    0 -0.88147095367E+02  0.64027641317E+02  0.29666112522E+03  0.36028637567E+03  0.17300000000E+03 0.  1.
         -6    1    1    2    0  503  0.88147095367E+02 -0.64027641317E+02 -0.34104210102E+02  0.20727167298E+03  0.17300000000E+03 0. -1.
<mgrwt>
<rscale>  2 0.20444669E+03</rscale>
<asrwt>0</asrwt>
<pdfrwt beam="1">  1       21 0.63854997E-01 0.20444669E+03</pdfrwt>
<pdfrwt beam="2">  1       21 0.23461626E-01 0.20444669E+03</pdfrwt>
<totfact> 0.38481732E+04</totfact>
</mgrwt>
</event>
<event>
 4    1  0.4050555E+000  0.1985780E+03  0.7546771E-02  0.1150944E+00
         21   -1    0    0  503  502  0.00000000000E+00  0.00000000000E+00  0.12209214619E+03  0.12209214619E+03  0.00000000000E+00 0.  1.
         21   -1    0    0  501  503 -0.00000000000E+00 -0.00000000000E+00 -0.42993588400E+03  0.42993588400E+03  0.00000000000E+00 0.  1.
          6    1    1    2  501    0  0.26693854753E+02 -0.93763929019E+02 -0.29158988169E+03  0.35278590586E+03  0.17300000000E+03 0.  1.
         -6    1    1    2    0  502 -0.26693854753E+02  0.93763929019E+02 -0.16253856115E+02  0.19924212432E+03  0.17300000000E+03 0.  1.
<mgrwt>
<rscale>  2 0.19857804E+03</rscale>
<asrwt>0</asrwt>
<pdfrwt beam="1">  1       21 0.18783407E-01 0.19857804E+03</pdfrwt>
<pdfrwt beam="2">  1       21 0.66143982E-01 0.19857804E+03</pdfrwt>
<totfact> 0.54281838E+04</totfact>
</mgrwt>
</event>
<event>
 4    1  0.4050555E+000  0.1770016E+03  0.7546771E-02  0.1170737E+00
         21   -1    0    0  501  502  0.00000000000E+00  0.00000000000E+00  0.30345663510E+03  0.30345663510E+03  0.00000000000E+00 0.  1.
         21   -1    0    0  502  503 -0.00000000000E+00 -0.00000000000E+00 -0.11634800443E+03  0.11634800443E+03  0.00000000000E+00 0.  1.
          6    1    1    2  501    0  0.31371746422E+02  0.20405535617E+02  0.16400209846E+03  0.24130118246E+03  0.17300000000E+03 0.  1.
         -6    1    1    2    0  503 -0.31371746422E+02 -0.20405535617E+02  0.23106532212E+02  0.17850345708E+03  0.17300000000E+03 0.  1.
<mgrwt>
<rscale>  2 0.17700162E+03</rscale>
<asrwt>0</asrwt>
<pdfrwt beam="1">  1       21 0.46685636E-01 0.17700162E+03</pdfrwt>
<pdfrwt beam="2">  1       21 0.17899693E-01 0.17700162E+03</pdfrwt>
<totfact> 0.12530435E+05</totfact>
</mgrwt>
</event>
<event>
 4    1  0.4050555E+000  0.2164222E+03  0.7546771E-02  0.1136579E+00
         21   -1    0    0  501  502  0.00000000000E+00  0.00000000000E+00  0.52969285463E+02  0.52969285463E+02  0.00000000000E+00 0.  1.
         21   -1    0    0  502  503 -0.00000000000E+00 -0.00000000000E+00 -0.23624555149E+04  0.23624555149E+04  0.00000000000E+00 0.  1.
          6    1    1    2  501    0  0.94292633760E+02  0.89545814273E+02 -0.19942540043E+03  0.29429414532E+03  0.17300000000E+03 0.  1.
         -6    1    1    2    0  503 -0.94292633760E+02 -0.89545814273E+02 -0.21100608290E+04  0.21211306550E+04  0.17300000000E+03 0.  1.
<mgrwt>
<rscale>  2 0.21642217E+03</rscale>
<asrwt>0</asrwt>
<pdfrwt beam="1">  1       21 0.81491222E-02 0.21642217E+03</pdfrwt>
<pdfrwt beam="2">  1       21 0.36345463E+00 0.21642217E+03</pdfrwt>
<totfact> 0.16371410E+03</totfact>
</mgrwt>
</event>
<event>
 4    1  0.4050555E+000  0.2062248E+03  0.7546771E-02  0.1144591E+00
         21   -1    0    0  501  502  0.00000000000E+00  0.00000000000E+00  0.90519603490E+03  0.90519603490E+03  0.00000000000E+00 0.  1.
         21   -1    0    0  502  503 -0.00000000000E+00 -0.00000000000E+00 -0.84779227022E+02  0.84779227022E+02  0.00000000000E+00 0.  1.
          6    1    1    2  501    0 -0.11085607014E+03  0.17623856469E+02  0.74071097281E+03  0.76888322510E+03  0.17300000000E+03 0.  1.
         -6    1    1    2    0  503  0.11085607014E+03 -0.17623856469E+02  0.79705835075E+02  0.22109203683E+03  0.17300000000E+03 0.  1.
<mgrwt>
<rscale>  2 0.20622480E+03</rscale>
<asrwt>0</asrwt>
<pdfrwt beam="1">  1       21 0.13926092E+00 0.20622480E+03</pdfrwt>
<pdfrwt beam="2">  1       21 0.13042959E-01 0.20622480E+03</pdfrwt>
<totfact> 0.18164660E+04</totfact>
</mgrwt>
</event>
<event>
 4    1  0.4050555E+000  0.1843764E+03  0.7546771E-02  0.1163634E+00
         21   -1    0    0  501  502  0.00000000000E+00  0.00000000000E+00  0.80226497925E+03  0.80226497925E+03  0.00000000000E+00 0.  1.
         21   -1    0    0  502  503 -0.00000000000E+00 -0.00000000000E+00 -0.46074282111E+02  0.46074282111E+02  0.00000000000E+00 0.  1.
          6    1    1    2  501    0 -0.62727426670E+02 -0.11441940684E+02  0.49831247187E+03  0.53132849319E+03  0.17300000000E+03 0.  1.
         -6    1    1    2    0  503  0.62727426670E+02  0.11441940684E+02  0.25787822527E+03  0.31701076817E+03  0.17300000000E+03 0.  1.
<mgrwt>
<rscale>  2 0.18437638E+03</rscale>
<asrwt>0</asrwt>
<pdfrwt beam="1">  1       21 0.12342537E+00 0.18437638E+03</pdfrwt>
<pdfrwt beam="2">  1       21 0.70883517E-02 0.18437638E+03</pdfrwt>
<totfact> 0.73169918E+04</totfact>
</mgrwt>
</event>
<event>
 4    1  0.4050555E+000  0.1851839E+03  0.7546771E-02  0.1162878E+00
         21   -1    0    0  501  502  0.00000000000E+00  0.00000000000E+00  0.77815621526E+03  0.77815621526E+03  0.00000000000E+00 0.  1.
         21   -1    0    0  502  503 -0.00000000000E+00 -0.00000000000E+00 -0.57686895726E+02  0.57686895726E+02  0.00000000000E+00 0.  1.
          6    1    1    2  501    0  0.63073915098E+02  0.19640404209E+02  0.56328372028E+03  0.59294317921E+03  0.17300000000E+03 0.  1.
         -6    1    1    2    0  503 -0.63073915098E+02 -0.19640404209E+02  0.15718559926E+03  0.24289993178E+03  0.17300000000E+03 0.  1.
<mgrwt>
<rscale>  2 0.18518387E+03</rscale>
<asrwt>0</asrwt>
<pdfrwt beam="1">  1       21 0.11971633E+00 0.18518387E+03</pdfrwt>
<pdfrwt beam="2">  1       21 0.88749076E-02 0.18518387E+03</pdfrwt>
<totfact> 0.53381046E+04</totfact>
</mgrwt>
</event>
<event>
 4    1  0.4050555E+000  0.2419162E+03  0.7546771E-02  0.1118523E+00
         21   -1    0    0  501  502  0.00000000000E+00  0.00000000000E+00  0.48580340783E+02  0.48580340783E+02  0.00000000000E+00 0.  1.
         21   -1    0    0  502  503 -0.00000000000E+00 -0.00000000000E+00 -0.12533831966E+04  0.12533831966E+04  0.00000000000E+00 0. -1.
          6    1    1    2  501    0 -0.13729493923E+03  0.98714593796E+02 -0.47407013595E+03  0.53222736228E+03  0.17300000000E+03 0.  1.
         -6    1    1    2    0  503  0.13729493923E+03 -0.98714593796E+02 -0.73073271985E+03  0.76973617508E+03  0.17300000000E+03 0. -1.
<mgrwt>
<rscale>  2 0.24191625E+03</rscale>
<asrwt>0</asrwt>
<pdfrwt beam="1">  1       21 0.74739000E-02 0.24191625E+03</pdfrwt>
<pdfrwt beam="2">  1       21 0.19282815E+00 0.24191625E+03</pdfrwt>
<totfact> 0.19509181E+04</totfact>
</mgrwt>
</event>
<event>
 4    1  0.4050555E+000  0.2007386E+03  0.7546771E-02  0.1149117E+00
         21   -1    0    0  501  502  0.00000000000E+00  0.00000000000E+00  0.16465787443E+04  0.16465787443E+04  0.00000000000E+00 0.  1.
         21   -1    0    0  502  503 -0.00000000000E+00 -0.00000000000E+00 -0.51089555448E+02  0.51089555448E+02  0.00000000000E+00 0. -1.
          6    1    1    2  501    0  0.10134960973E+03  0.97599982560E+01  0.14104282259E+04  0.14246416326E+04  0.17300000000E+03 0.  1.
         -6    1    1    2    0  503 -0.10134960973E+03 -0.97599982560E+01  0.18506096295E+03  0.27302666714E+03  0.17300000000E+03 0. -1.
<mgrwt>
<rscale>  2 0.20073864E+03</rscale>
<asrwt>0</asrwt>
<pdfrwt beam="1">  1       21 0.25331976E+00 0.20073864E+03</pdfrwt>
<pdfrwt beam="2">  1       21 0.78599329E-02 0.20073864E+03</pdfrwt>
<totfact> 0.78049972E+03</totfact>
</mgrwt>
</event>
<event>
 4    1  0.4050555E+000  0.2344966E+03  0.7546771E-02  0.1123514E+00
         21   -1    0    0  503  502  0.00000000000E+00  0.00000000000E+00  0.31925049019E+03  0.31925049019E+03  0.00000000000E+00 0. -1.
         21   -1    0    0  501  503 -0.00000000000E+00 -0.00000000000E+00 -0.28707726532E+03  0.28707726532E+03  0.00000000000E+00 0. -1.
          6    1    1    2  501    0  0.39137924504E+02  0.15338792973E+03 -0.17565393701E+03  0.29298965802E+03  0.17300000000E+03 0. -1.
         -6    1    1    2    0  502 -0.39137924504E+02 -0.15338792973E+03  0.20782716188E+03  0.31333809749E+03  0.17300000000E+03 0. -1.
<mgrwt>
<rscale>  2 0.23449655E+03</rscale>
<asrwt>0</asrwt>
<pdfrwt beam="1">  1       21 0.49115460E-01 0.23449655E+03</pdfrwt>
<pdfrwt beam="2">  1       21 0.44165733E-01 0.23449655E+03</pdfrwt>
<totfact> 0.19014016E+04</totfact>
</mgrwt>
</event>
<event>
 4    1  0.4050555E+000  0.1838017E+03  0.7546771E-02  0.1164174E+00
         21   -1    0    0  503  502  0.00000000000E+00  0.00000000000E+00  0.57461484537E+03  0.57461484537E+03  0.00000000000E+00 0. -1.
         21   -1    0    0  501  503 -0.00000000000E+00 -0.00000000000E+00 -0.62104769533E+02  0.62104769533E+02  0.00000000000E+00 0. -1.
          6    1    1    2  501    0  0.59102311529E+02 -0.18999577060E+02  0.18273328233E+03  0.25918047694E+03  0.17300000000E+03 0. -1.
         -6    1    1    2    0  502 -0.59102311529E+02  0.18999577060E+02  0.32977679351E+03  0.37753913796E+03  0.17300000000E+03 0. -1.
<mgrwt>
<rscale>  2 0.18380171E+03</rscale>
<asrwt>0</asrwt>
<pdfrwt beam="1">  1       21 0.88402280E-01 0.18380171E+03</pdfrwt>
<pdfrwt beam="2">  1       21 0.95545803E-02 0.18380171E+03</pdfrwt>
<totfact> 0.96631570E+04</totfact>
</mgrwt>
</event>
<event>
 4    1  0.4050555E+000  0.2392382E+03  0.7546771E-02  0.1120301E+00
         21   -1    0    0  501  502  0.00000000000E+00  0.00000000000E+00  0.10983683419E+04  0.10983683419E+04  0.00000000000E+00 0.  1.
         21   -1    0    0  502  503 -0.00000000000E+00 -0.00000000000E+00 -0.82637674894E+02  0.82637674894E+02  0.00000000000E+00 0. -1.
          6    1    1    2  501    0 -0.11611680773E+03 -0.11757040741E+03  0.86677636087E+03  0.89918639530E+03  0.17300000000E+03 0.  1.
         -6    1    1    2    0  503  0.11611680773E+03  0.11757040741E+03  0.14895430612E+03  0.28181962147E+03  0.17300000000E+03 0. -1.
<mgrwt>
<rscale>  2 0.23923819E+03</rscale>
<asrwt>0</asrwt>
<pdfrwt beam="1">  1       21 0.16897973E+00 0.23923819E+03</pdfrwt>
<pdfrwt beam="2">  1       21 0.12713489E-01 0.23923819E+03</pdfrwt>
<totfact> 0.11102002E+04</totfact>
</mgrwt>
</event>
<event>
 4    1  0.4050555E+000  0.2564621E+03  0.7546771E-02  0.1109288E+00
         21   -1    0    0  503  502  0.00000000000E+00  0.00000000000E+00  0.10379366303E+04  0.10379366303E+04  0.00000000000E+00 0.  1.
         21   -1    0    0  501  503 -0.00000000000E+00 -0.00000000000E+00 -0.72688346828E+02  0.72688346828E+02  0.00000000000E+00 0. -1.
          6    1    1    2  501    0 -0.14453586941E+03  0.12228330698E+03  0.28378500954E+03  0.38250066190E+03  0.17300000000E+03 0. -1.
         -6    1    1    2    0  502  0.14453586941E+03 -0.12228330698E+03  0.68146327390E+03  0.72812431520E+03  0.17300000000E+03 0. -1.
<mgrwt>
<rscale>  2 0.25646213E+03</rscale>
<asrwt>0</asrwt>
<pdfrwt beam="1">  1       21 0.15968255E+00 0.25646213E+03</pdfrwt>
<pdfrwt beam="2">  1       21 0.11182823E-01 0.25646213E+03</pdfrwt>
<totfact> 0.16170395E+04</totfact>
</mgrwt>
</event>
<event>
 4    1  0.4050555E+000  0.2568741E+03  0.7546771E-02  0.1109036E+00
         21   -1    0    0  501  502  0.00000000000E+00  0.00000000000E+00  0.68061179746E+02  0.68061179746E+02  0.00000000000E+00 0.  1.
         21   -1    0    0  502  503 -0.00000000000E+00 -0.00000000000E+00 -0.10664744044E+04  0.10664744044E+04  0.00000000000E+00 0. -1.
          6    1    1    2  501    0  0.93347688387E+02 -0.16535266367E+03 -0.32813615914E+03  0.41672248949E+03  0.17300000000E+03 0.  1.
         -6    1    1    2    0  503 -0.93347688387E+02  0.16535266367E+03 -0.67027706549E+03  0.71781309464E+03  0.17300000000E+03 0. -1.
<mgrwt>
<rscale>  2 0.25687408E+03</rscale>
<asrwt>0</asrwt>
<pdfrwt beam="1">  1       21 0.10470951E-01 0.25687408E+03</pdfrwt>
<pdfrwt beam="2">  1       21 0.16407297E+00 0.25687408E+03</pdfrwt>
<totfact> 0.16881914E+04</totfact>
</mgrwt>
</event>
<event>
 4    1  0.4050555E+000  0.1861806E+03  0.7546771E-02  0.1161952E+00
         21   -1    0    0  501  502  0.00000000000E+00  0.00000000000E+00  0.43442843085E+02  0.43442843085E+02  0.00000000000E+00 0. -1.
         21   -1    0    0  502  503 -0.00000000000E+00 -0.00000000000E+00 -0.86865321028E+03  0.86865321028E+03  0.00000000000E+00 0.  1.
          6    1    1    2  501    0  0.28028569659E+02 -0.62837998021E+02 -0.28245391191E+03  0.33829488182E+03  0.17300000000E+03 0. -1.
         -6    1    1    2    0  503 -0.28028569659E+02  0.62837998021E+02 -0.54275645529E+03  0.57380117155E+03  0.17300000000E+03 0.  1.
<mgrwt>
<rscale>  2 0.18618060E+03</rscale>
<asrwt>0</asrwt>
<pdfrwt beam="1">  1       21 0.66835149E-02 0.18618060E+03</pdfrwt>
<pdfrwt beam="2">  1       21 0.13363894E+00 0.18618060E+03</pdfrwt>
<totfact> 0.66251650E+04</totfact>
</mgrwt>
</event>
<event>
 4    1  0.4050555E+000  0.1846170E+03  0.7546771E-02  0.1163408E+00
         21   -1    0    0  503  502  0.00000000000E+00  0.00000000000E+00  0.25352703062E+03  0.25352703062E+03  0.00000000000E+00 0.  1.
         21   -1    0    0  501  503 -0.00000000000E+00 -0.00000000000E+00 -0.15714616237E+03  0.15714616237E+03  0.00000000000E+00 0. -1.
          6    1    1    2  501    0 -0.64232459191E+02  0.53503491027E+01 -0.29866989207E+02  0.18701730426E+03  0.17300000000E+03 0. -1.
         -6    1    1    2    0  502  0.64232459191E+02 -0.53503491027E+01  0.12624785746E+03  0.22365588873E+03  0.17300000000E+03 0.  1.
<mgrwt>
<rscale>  2 0.18461700E+03</rscale>
<asrwt>0</asrwt>
<pdfrwt beam="1">  1       21 0.39004158E-01 0.18461700E+03</pdfrwt>
<pdfrwt beam="2">  1       21 0.24176333E-01 0.18461700E+03</pdfrwt>
<totfact> 0.10262966E+05</totfact>
</mgrwt>
</event>
<event>
 4    1  0.4050555E+000  0.2289800E+03  0.7546771E-02  0.1127360E+00
         21   -1    0    0  501  502  0.00000000000E+00  0.00000000000E+00  0.41223251398E+02  0.41223251398E+02  0.00000000000E+00 0.  1.
         21   -1    0    0  502  503 -0.00000000000E+00 -0.00000000000E+00 -0.14436888141E+04  0.14436888141E+04  0.00000000000E+00 0.  1.
          6    1    1    2  501    0  0.46211783420E+02  0.14271415512E+03 -0.44512002188E+03  0.50056337548E+03  0.17300000000E+03 0.  1.
         -6    1    1    2    0  503 -0.46211783420E+02 -0.14271415512E+03 -0.95734554081E+03  0.98434869000E+03  0.17300000000E+03 0.  1.
<mgrwt>
<rscale>  2 0.22898004E+03</rscale>
<asrwt>0</asrwt>
<pdfrwt beam="1">  1       21 0.63420397E-02 0.22898004E+03</pdfrwt>
<pdfrwt beam="2">  1       21 0.22210593E+00 0.22898004E+03</pdfrwt>
<totfact> 0.17019394E+04</totfact>
</mgrwt>
</event>
<event>
 4    1  0.4050555E+000  0.1866430E+03  0.7546771E-02  0.1161524E+00
         21   -1    0    0  503  502  0.00000000000E+00  0.00000000000E+00  0.95829058906E+02  0.95829058906E+02  0.00000000000E+00 0. -1.
         21   -1    0    0  501  503 -0.00000000000E+00 -0.00000000000E+00 -0.10905832357E+04  0.10905832357E+04  0.00000000000E+00 0. -1.
          6    1    1    2  501    0 -0.29114361360E+02 -0.63709946727E+02 -0.98173107156E+03  0.99931551585E+03  0.17300000000E+03 0. -1.
         -6    1    1    2    0  502  0.29114361360E+02  0.63709946727E+02 -0.13023105229E+02  0.18709677875E+03  0.17300000000E+03 0. -1.
<mgrwt>
<rscale>  2 0.18664298E+03</rscale>
<asrwt>0</asrwt>
<pdfrwt beam="1">  1       21 0.14742933E-01 0.18664298E+03</pdfrwt>
<pdfrwt beam="2">  1       21 0.16778203E+00 0.18664298E+03</pdfrwt>
<totfact> 0.89984014E+03</totfact>
</mgrwt>
</event>
<event>
 4    1  0.4050555E+000  0.2077333E+03  0.7546771E-02  0.1143374E+00
         21   -1    0    0  503  502  0.00000000000E+00  0.00000000000E+00  0.92882407336E+02  0.92882407336E+02  0.00000000000E+00 0. -1.
         21   -1    0    0  501  503 -0.00000000000E+00 -0.00000000000E+00 -0.51442508333E+03  0.51442508333E+03  0.00000000000E+00 0. -1.
          6    1    1    2  501    0 -0.11012007041E+03 -0.33131477574E+02 -0.30527389269E+03  0.36924960971E+03  0.17300000000E+03 0. -1.
         -6    1    1    2    0  502  0.11012007041E+03  0.33131477574E+02 -0.11626878331E+03  0.23805788095E+03  0.17300000000E+03 0. -1.
<mgrwt>
<rscale>  2 0.20773330E+03</rscale>
<asrwt>0</asrwt>
<pdfrwt beam="1">  1       21 0.14289601E-01 0.20773330E+03</pdfrwt>
<pdfrwt beam="2">  1       21 0.79142320E-01 0.20773330E+03</pdfrwt>
<totfact> 0.59946779E+04</totfact>
</mgrwt>
</event>
<event>
 4    1  0.4050555E+000  0.2668665E+03  0.7546771E-02  0.1103086E+00
         21   -1    0    0  501  502  0.00000000000E+00  0.00000000000E+00  0.77583204589E+03  0.77583204589E+03  0.00000000000E+00 0.  1.
         21   -1    0    0  502  503 -0.00000000000E+00 -0.00000000000E+00 -0.95513774396E+02  0.95513774396E+02  0.00000000000E+00 0.  1.
          6    1    1    2  501    0  0.14696180511E+03 -0.14032456179E+03  0.42612152747E+03  0.50278952950E+03  0.17300000000E+03 0.  1.
         -6    1    1    2    0  503 -0.14696180511E+03  0.14032456179E+03  0.25419674402E+03  0.36855629078E+03  0.17300000000E+03 0.  1.
<mgrwt>
<rscale>  2 0.26686655E+03</rscale>
<asrwt>0</asrwt>
<pdfrwt beam="1">  1       21 0.11935877E+00 0.26686655E+03</pdfrwt>
<pdfrwt beam="2">  1       21 0.14694427E-01 0.26686655E+03</pdfrwt>
<totfact> 0.20916540E+04</totfact>
</mgrwt>
</event>
<event>
 4    1  0.4050555E+000  0.2116936E+03  0.7546771E-02  0.1140232E+00
         21   -1    0    0  503  502  0.00000000000E+00  0.00000000000E+00  0.32918197591E+03  0.32918197591E+03  0.00000000000E+00 0. -1.
         21   -1    0    0  501  503 -0.00000000000E+00 -0.00000000000E+00 -0.14182414936E+03  0.14182414936E+03  0.00000000000E+00 0. -1.
          6    1    1    2  501    0  0.93682985086E+01 -0.12164454966E+03  0.46523423200E+02  0.21674545067E+03  0.17300000000E+03 0. -1.
         -6    1    1    2    0  502 -0.93682985086E+01  0.12164454966E+03  0.14083440336E+03  0.25426067460E+03  0.17300000000E+03 0. -1.
<mgrwt>
<rscale>  2 0.21169356E+03</rscale>
<asrwt>0</asrwt>
<pdfrwt beam="1">  1       21 0.50643381E-01 0.21169356E+03</pdfrwt>
<pdfrwt beam="2">  1       21 0.21819100E-01 0.21169356E+03</pdfrwt>
<totfact> 0.72133152E+04</totfact>
</mgrwt>
</event>
<event>
 4    1  0.4050555E+000  0.1769486E+03  0.7546771E-02  0.1170789E+00
         21   -1    0    0  503  502  0.00000000000E+00  0.00000000000E+00  0.15330027155E+03  0.15330027155E+03  0.00000000000E+00 0. -1.
         21   -1    0    0  501  503 -0.00000000000E+00 -0.00000000000E+00 -0.40422604683E+03  0.40422604683E+03  0.00000000000E+00 0. -1.
          6    1    1    2  501    0 -0.24455379503E+02  0.27995165875E+02 -0.32153588332E+03  0.36700969900E+03  0.17300000000E+03 0. -1.
         -6    1    1    2    0  502  0.24455379503E+02 -0.27995165875E+02  0.70610108052E+02  0.19051661937E+03  0.17300000000E+03 0. -1.
<mgrwt>
<rscale>  2 0.17694857E+03</rscale>
<asrwt>0</asrwt>
<pdfrwt beam="1">  1       21 0.23584657E-01 0.17694857E+03</pdfrwt>
<pdfrwt beam="2">  1       21 0.62188623E-01 0.17694857E+03</pdfrwt>
<totfact> 0.40919672E+04</totfact>
</mgrwt>
</event>
<event>
 4    1  0.4050555E+000  0.2410103E+03  0.7546771E-02  0.1119122E+00
         21   -1    0    0  503  502  0.00000000000E+00  0.00000000000E+00  0.13926984595E+03  0.13926984595E+03  0.00000000000E+00 0. -1.
         21   -1    0    0  501  503 -0.00000000000E+00 -0.00000000000E+00 -0.44987756306E+03  0.44987756306E+03  0.00000000000E+00 0.  1.
          6    1    1    2  501    0 -0.16771699148E+03 -0.52896079815E+01 -0.23484664221E+03  0.33650990259E+03  0.17300000000E+03 0.  1.
         -6    1    1    2    0  502  0.16771699148E+03  0.52896079815E+01 -0.75761074899E+02  0.25263750643E+03  0.17300000000E+03 0. -1.
<mgrwt>
<rscale>  2 0.24101031E+03</rscale>
<asrwt>0</asrwt>
<pdfrwt beam="1">  1       21 0.21426131E-01 0.24101031E+03</pdfrwt>
<pdfrwt beam="2">  1       21 0.69211931E-01 0.24101031E+03</pdfrwt>
<totfact> 0.37637942E+04</totfact>
</mgrwt>
</event>
<event>
 4    1  0.4050555E+000  0.1815454E+03  0.7546771E-02  0.1166316E+00
         21   -1    0    0  503  502  0.00000000000E+00  0.00000000000E+00  0.66088058061E+02  0.66088058061E+02  0.00000000000E+00 0.  1.
         21   -1    0    0  501  503 -0.00000000000E+00 -0.00000000000E+00 -0.52061015280E+03  0.52061015280E+03  0.00000000000E+00 0.  1.
          6    1    1    2  501    0 -0.49255637601E+02  0.24568900543E+02 -0.28742772542E+03  0.33996094783E+03  0.17300000000E+03 0.  1.
         -6    1    1    2    0  502  0.49255637601E+02 -0.24568900543E+02 -0.16709436932E+03  0.24673726303E+03  0.17300000000E+03 0.  1.
<mgrwt>
<rscale>  2 0.18154545E+03</rscale>
<asrwt>0</asrwt>
<pdfrwt beam="1">  1       21 0.10167394E-01 0.18154545E+03</pdfrwt>
<pdfrwt beam="2">  1       21 0.80093869E-01 0.18154545E+03</pdfrwt>
<totfact> 0.10854979E+05</totfact>
</mgrwt>
</event>
<event>
 4    1  0.4050555E+000  0.1901585E+03  0.7546771E-02  0.1158318E+00
         21   -1    0    0  501  502  0.00000000000E+00  0.00000000000E+00  0.84886119040E+03  0.84886119040E+03  0.00000000000E+00 0.  1.
         21   -1    0    0  502  503 -0.00000000000E+00 -0.00000000000E+00 -0.11347556732E+03  0.11347556732E+03  0.00000000000E+00 0. -1.
          6    1    1    2  501    0 -0.78907510969E+02  0.22066991629E+01  0.74796851799E+03  0.77176237840E+03  0.17300000000E+03 0.  1.
         -6    1    1    2    0  503  0.78907510969E+02 -0.22066991629E+01 -0.12582894907E+02  0.19057437932E+03  0.17300000000E+03 0. -1.
<mgrwt>
<rscale>  2 0.19015853E+03</rscale>
<asrwt>0</asrwt>
<pdfrwt beam="1">  1       21 0.13059403E+00 0.19015853E+03</pdfrwt>
<pdfrwt beam="2">  1       21 0.17457780E-01 0.19015853E+03</pdfrwt>
<totfact> 0.12716431E+04</totfact>
</mgrwt>
</event>
<event>
 4    1  0.4050555E+000  0.2161475E+03  0.7546771E-02  0.1136788E+00
         21   -1    0    0  503  502  0.00000000000E+00  0.00000000000E+00  0.16268107651E+04  0.16268107651E+04  0.00000000000E+00 0.  1.
         21   -1    0    0  501  503 -0.00000000000E+00 -0.00000000000E+00 -0.31163806145E+02  0.31163806145E+02  0.00000000000E+00 0. -1.
          6    1    1    2  501    0  0.12843512081E+03  0.17180527691E+02  0.56561445275E+03  0.60550760520E+03  0.17300000000E+03 0. -1.
         -6    1    1    2    0  502 -0.12843512081E+03 -0.17180527691E+02  0.10300325062E+04  0.10524669660E+04  0.17300000000E+03 0.  1.
<mgrwt>
<rscale>  2 0.21614752E+03</rscale>
<asrwt>0</asrwt>
<pdfrwt beam="1">  1       21 0.25027851E+00 0.21614752E+03</pdfrwt>
<pdfrwt beam="2">  1       21 0.47944330E-02 0.21614752E+03</pdfrwt>
<totfact> 0.18753551E+04</totfact>
</mgrwt>
</event>
<event>
 4    1  0.4050555E+000  0.1814993E+03  0.7546771E-02  0.1166360E+00
         21   -1    0    0  503  502  0.00000000000E+00  0.00000000000E+00  0.20555983590E+03  0.20555983590E+03  0.00000000000E+00 0. -1.
         21   -1    0    0  501  503 -0.00000000000E+00 -0.00000000000E+00 -0.22122348740E+03  0.22122348740E+03  0.00000000000E+00 0. -1.
          6    1    1    2  501    0  0.51339406129E+01 -0.54650239487E+02 -0.11985665400E+03  0.21750315752E+03  0.17300000000E+03 0. -1.
         -6    1    1    2    0  502 -0.51339406129E+01  0.54650239487E+02  0.10419300250E+03  0.20928016579E+03  0.17300000000E+03 0. -1.
<mgrwt>
<rscale>  2 0.18149933E+03</rscale>
<asrwt>0</asrwt>
<pdfrwt beam="1">  1       21 0.31624590E-01 0.18149933E+03</pdfrwt>
<pdfrwt beam="2">  1       21 0.34034383E-01 0.18149933E+03</pdfrwt>
<totfact> 0.80315863E+04</totfact>
</mgrwt>
</event>
<event>
 4    1  0.4050555E+000  0.2064437E+03  0.7546771E-02  0.1144414E+00
         21   -1    0    0  503  502  0.00000000000E+00  0.00000000000E+00  0.44832623243E+03  0.44832623243E+03  0.00000000000E+00 0.  1.
         21   -1    0    0  501  503 -0.00000000000E+00 -0.00000000000E+00 -0.13549686426E+03  0.13549686426E+03  0.00000000000E+00 0.  1.
          6    1    1    2  501    0  0.34863478440E+02  0.10711932067E+03 -0.30490690876E+01  0.20646623891E+03  0.17300000000E+03 0.  1.
         -6    1    1    2    0  502 -0.34863478440E+02 -0.10711932067E+03  0.31587843725E+03  0.37735685777E+03  0.17300000000E+03 0.  1.
<mgrwt>
<rscale>  2 0.20644372E+03</rscale>
<asrwt>0</asrwt>
<pdfrwt beam="1">  1       21 0.68973266E-01 0.20644372E+03</pdfrwt>
<pdfrwt beam="2">  1       21 0.20845672E-01 0.20644372E+03</pdfrwt>
<totfact> 0.40599367E+04</totfact>
</mgrwt>
</event>
<event>
 4    1  0.4050555E+000  0.2188004E+03  0.7546771E-02  0.1134781E+00
         21   -1    0    0  503  502  0.00000000000E+00  0.00000000000E+00  0.58913469052E+03  0.58913469052E+03  0.00000000000E+00 0.  1.
         21   -1    0    0  501  503 -0.00000000000E+00 -0.00000000000E+00 -0.27274361221E+03  0.27274361221E+03  0.00000000000E+00 0.  1.
          6    1    1    2  501    0 -0.10035633416E+03 -0.88731111986E+02 -0.20288448652E+03  0.29838853683E+03  0.17300000000E+03 0.  1.
         -6    1    1    2    0  502  0.10035633416E+03  0.88731111986E+02  0.51927556484E+03  0.56348976590E+03  0.17300000000E+03 0.  1.
<mgrwt>
<rscale>  2 0.21880037E+03</rscale>
<asrwt>0</asrwt>
<pdfrwt beam="1">  1       21 0.90636106E-01 0.21880037E+03</pdfrwt>
<pdfrwt beam="2">  1       21 0.41960556E-01 0.21880037E+03</pdfrwt>
<totfact> 0.55407831E+03</totfact>
</mgrwt>
</event>
<event>
 4    1  0.4050555E+000  0.3644735E+03  0.7546771E-02  0.1056826E+00
         21   -1    0    0  501  502  0.00000000000E+00  0.00000000000E+00  0.99314705104E+02  0.99314705104E+02  0.00000000000E+00 0.  1.
         21   -1    0    0  502  503 -0.00000000000E+00 -0.00000000000E+00 -0.18597312389E+04  0.18597312389E+04  0.00000000000E+00 0. -1.
          6    1    1    2  501    0 -0.20049047411E+03 -0.25043061742E+03 -0.36118177345E+03  0.51312103623E+03  0.17300000000E+03 0.  1.
         -6    1    1    2    0  503  0.20049047411E+03  0.25043061742E+03 -0.13992347604E+04  0.14459249078E+04  0.17300000000E+03 0. -1.
<mgrwt>
<rscale>  2 0.36447349E+03</rscale>
<asrwt>0</asrwt>
<pdfrwt beam="1">  1       21 0.15279186E-01 0.36447349E+03</pdfrwt>
<pdfrwt beam="2">  1       21 0.28611249E+00 0.36447349E+03</pdfrwt>
<totfact> 0.13327843E+03</totfact>
</mgrwt>
</event>
<event>
 4    1  0.4050555E+000  0.1838626E+03  0.7546771E-02  0.1164116E+00
         21   -1    0    0  503  502  0.00000000000E+00  0.00000000000E+00  0.12470831995E+03  0.12470831995E+03  0.00000000000E+00 0.  1.
         21   -1    0    0  501  503 -0.00000000000E+00 -0.00000000000E+00 -0.12616910959E+04  0.12616910959E+04  0.00000000000E+00 0.  1.
          6    1    1    2  501    0  0.62258298302E+02 -0.60050274340E+00 -0.11827259942E+04  0.11969320088E+04  0.17300000000E+03 0.  1.
         -6    1    1    2    0  502 -0.62258298302E+02  0.60050274340E+00  0.45743218267E+02  0.18946740703E+03  0.17300000000E+03 0.  1.
<mgrwt>
<rscale>  2 0.18386260E+03</rscale>
<asrwt>0</asrwt>
<pdfrwt beam="1">  1       21 0.19185895E-01 0.18386260E+03</pdfrwt>
<pdfrwt beam="2">  1       21 0.19410632E+00 0.18386260E+03</pdfrwt>
<totfact> 0.36877357E+03</totfact>
</mgrwt>
</event>
<event>
 4    1  0.4050555E+000  0.1982640E+03  0.7546771E-02  0.1151212E+00
         21   -1    0    0  501  502  0.00000000000E+00  0.00000000000E+00  0.48209216353E+02  0.48209216353E+02  0.00000000000E+00 0. -1.
         21   -1    0    0  502  503 -0.00000000000E+00 -0.00000000000E+00 -0.81543263864E+03  0.81543263864E+03  0.00000000000E+00 0. -1.
          6    1    1    2  501    0 -0.94907933733E+02 -0.19289333662E+02 -0.37998414815E+03  0.42859835175E+03  0.17300000000E+03 0. -1.
         -6    1    1    2    0  503  0.94907933733E+02  0.19289333662E+02 -0.38723927414E+03  0.43504350324E+03  0.17300000000E+03 0. -1.
<mgrwt>
<rscale>  2 0.19826395E+03</rscale>
<asrwt>0</asrwt>
<pdfrwt beam="1">  1       21 0.74168026E-02 0.19826395E+03</pdfrwt>
<pdfrwt beam="2">  1       21 0.12545117E+00 0.19826395E+03</pdfrwt>
<totfact> 0.64516453E+04</totfact>
</mgrwt>
</event>
<event>
 4    1  0.4050555E+000  0.2650676E+03  0.7546771E-02  0.1104136E+00
         21   -1    0    0  501  502  0.00000000000E+00  0.00000000000E+00  0.63895840517E+02  0.63895840517E+02  0.00000000000E+00 0. -1.
         21   -1    0    0  502  503 -0.00000000000E+00 -0.00000000000E+00 -0.11903259476E+04  0.11903259476E+04  0.00000000000E+00 0.  1.
          6    1    1    2  501    0  0.18590949610E+03  0.75957052949E+02 -0.39009729398E+03  0.47163196817E+03  0.17300000000E+03 0. -1.
         -6    1    1    2    0  503 -0.18590949610E+03 -0.75957052949E+02 -0.73633281315E+03  0.78258981999E+03  0.17300000000E+03 0.  1.
<mgrwt>
<rscale>  2 0.26506757E+03</rscale>
<asrwt>0</asrwt>
<pdfrwt beam="1">  1       21 0.98301297E-02 0.26506757E+03</pdfrwt>
<pdfrwt beam="2">  1       21 0.18312706E+00 0.26506757E+03</pdfrwt>
<totfact> 0.13804060E+04</totfact>
</mgrwt>
</event>
<event>
 4    1  0.4050555E+000  0.2780191E+03  0.7546771E-02  0.1096776E+00
         21   -1    0    0  503  502  0.00000000000E+00  0.00000000000E+00  0.70014052224E+03  0.70014052224E+03  0.00000000000E+00 0. -1.
         21   -1    0    0  501  503 -0.00000000000E+00 -0.00000000000E+00 -0.54448433875E+03  0.54448433875E+03  0.00000000000E+00 0.  1.
          6    1    1    2  501    0  0.19050978290E+03  0.10522174129E+03 -0.47782469492E+03  0.55282097582E+03  0.17300000000E+03 0.  1.
         -6    1    1    2    0  502 -0.19050978290E+03 -0.10522174129E+03  0.63348087841E+03  0.69180388517E+03  0.17300000000E+03 0. -1.
<mgrwt>
<rscale>  2 0.27801905E+03</rscale>
<asrwt>0</asrwt>
<pdfrwt beam="1">  1       21 0.10771393E+00 0.27801905E+03</pdfrwt>
<pdfrwt beam="2">  1       21 0.83766821E-01 0.27801905E+03</pdfrwt>
<totfact> 0.78993689E+02</totfact>
</mgrwt>
</event>
<event>
 4    1  0.4050555E+000  0.2047417E+03  0.7546771E-02  0.1145799E+00
         21   -1    0    0  501  502  0.00000000000E+00  0.00000000000E+00  0.10817227489E+03  0.10817227489E+03  0.00000000000E+00 0.  1.
         21   -1    0    0  502  503 -0.00000000000E+00 -0.00000000000E+00 -0.85841295162E+03  0.85841295162E+03  0.00000000000E+00 0. -1.
          6    1    1    2  501    0  0.76197123150E+01 -0.10923411413E+03 -0.17170530538E+02  0.20546040695E+03  0.17300000000E+03 0.  1.
         -6    1    1    2    0  503 -0.76197123150E+01  0.10923411413E+03 -0.73307014620E+03  0.76112481956E+03  0.17300000000E+03 0. -1.
<mgrwt>
<rscale>  2 0.20474167E+03</rscale>
<asrwt>0</asrwt>
<pdfrwt beam="1">  1       21 0.16641888E-01 0.20474167E+03</pdfrwt>
<pdfrwt beam="2">  1       21 0.13206353E+00 0.20474167E+03</pdfrwt>
<totfact> 0.13362905E+04</totfact>
</mgrwt>
</event>
<event>
 4    1  0.4050555E+000  0.2629509E+03  0.7546771E-02  0.1105383E+00
         21   -1    0    0  501  502  0.00000000000E+00  0.00000000000E+00  0.17195232780E+03  0.17195232780E+03  0.00000000000E+00 0.  1.
         21   -1    0    0  502  503 -0.00000000000E+00 -0.00000000000E+00 -0.89721633565E+03  0.89721633565E+03  0.00000000000E+00 0.  1.
          6    1    1    2  501    0  0.19618343715E+03  0.26948655452E+02  0.34484886942E+02  0.26520252350E+03  0.17300000000E+03 0.  1.
         -6    1    1    2    0  503 -0.19618343715E+03 -0.26948655452E+02 -0.75974889480E+03  0.80396613995E+03  0.17300000000E+03 0.  1.
<mgrwt>
<rscale>  2 0.26295089E+03</rscale>
<asrwt>0</asrwt>
<pdfrwt beam="1">  1       21 0.26454204E-01 0.26295089E+03</pdfrwt>
<pdfrwt beam="2">  1       21 0.13803329E+00 0.26295089E+03</pdfrwt>
<totfact> 0.47931758E+03</totfact>
</mgrwt>
</event>
<event>
 4    1  0.4050555E+000  0.1880026E+03  0.7546771E-02  0.1160275E+00
         21   -1    0    0  503  502  0.00000000000E+00  0.00000000000E+00  0.33381159509E+03  0.33381159509E+03  0.00000000000E+00 0. -1.
         21   -1    0    0  501  503 -0.00000000000E+00 -0.00000000000E+00 -0.27005991896E+03  0.27005991896E+03  0.00000000000E+00 0. -1.
          6    1    1    2  501    0 -0.72933754155E+02 -0.98313952983E+01 -0.20354259767E+03  0.27708225836E+03  0.17300000000E+03 0. -1.
         -6    1    1    2    0  502  0.72933754155E+02  0.98313952983E+01  0.26729427380E+03  0.32678925569E+03  0.17300000000E+03 0. -1.
<mgrwt>
<rscale>  2 0.18800263E+03</rscale>
<asrwt>0</asrwt>
<pdfrwt beam="1">  1       21 0.51355630E-01 0.18800263E+03</pdfrwt>
<pdfrwt beam="2">  1       21 0.41547680E-01 0.18800263E+03</pdfrwt>
<totfact> 0.20153268E+04</totfact>
</mgrwt>
</event>
<event>
 4    1  0.4050555E+000  0.2763080E+03  0.7546771E-02  0.1097723E+00
         21   -1    0    0  503  502  0.00000000000E+00  0.00000000000E+00  0.25918894043E+03  0.25918894043E+03  0.00000000000E+00 0.  1.
         21   -1    0    0  501  503 -0.00000000000E+00 -0.00000000000E+00 -0.29470133116E+03  0.29470133116E+03  0.00000000000E+00 0.  1.
          6    1    1    2  501    0  0.84978194152E+02 -0.19797936615E+03 -0.11644205179E+02  0.27655326868E+03  0.17300000000E+03 0.  1.
         -6    1    1    2    0  502 -0.84978194152E+02  0.19797936615E+03 -0.23868185553E+02  0.27733700291E+03  0.17300000000E+03 0.  1.
<mgrwt>
<rscale>  2 0.27630802E+03</rscale>
<asrwt>0</asrwt>
<pdfrwt beam="1">  1       21 0.39875222E-01 0.27630802E+03</pdfrwt>
<pdfrwt beam="2">  1       21 0.45338666E-01 0.27630802E+03</pdfrwt>
<totfact> 0.27162668E+04</totfact>
</mgrwt>
</event>
<event>
 4    1  0.4050555E+000  0.2112300E+03  0.7546771E-02  0.1140596E+00
         21   -1    0    0  503  502  0.00000000000E+00  0.00000000000E+00  0.87004365538E+03  0.87004365538E+03  0.00000000000E+00 0. -1.
         21   -1    0    0  501  503 -0.00000000000E+00 -0.00000000000E+00 -0.90425506800E+02  0.90425506800E+02  0.00000000000E+00 0.  1.
          6    1    1    2  501    0  0.12112463675E+03  0.42360963438E+01  0.73847437708E+02  0.22376676741E+03  0.17300000000E+03 0.  1.
         -6    1    1    2    0  502 -0.12112463675E+03 -0.42360963438E+01  0.70577071087E+03  0.73670239477E+03  0.17300000000E+03 0. -1.
<mgrwt>
<rscale>  2 0.21123002E+03</rscale>
<asrwt>0</asrwt>
<pdfrwt beam="1">  1       21 0.13385286E+00 0.21123002E+03</pdfrwt>
<pdfrwt beam="2">  1       21 0.13911617E-01 0.21123002E+03</pdfrwt>
<totfact> 0.17836886E+04</totfact>
</mgrwt>
</event>
<event>
 4    1  0.4050555E+000  0.1871748E+03  0.7546771E-02  0.1161034E+00
         21   -1    0    0  503  502  0.00000000000E+00  0.00000000000E+00  0.91637319436E+03  0.91637319436E+03  0.00000000000E+00 0.  1.
         21   -1    0    0  501  503 -0.00000000000E+00 -0.00000000000E+00 -0.44432016758E+02  0.44432016758E+02  0.00000000000E+00 0.  1.
          6    1    1    2  501    0  0.49083852554E+02  0.51924676674E+02  0.25651027475E+03  0.31754041897E+03  0.17300000000E+03 0.  1.
         -6    1    1    2    0  502 -0.49083852554E+02 -0.51924676674E+02  0.61543090285E+03  0.64326479215E+03  0.17300000000E+03 0.  1.
<mgrwt>
<rscale>  2 0.18717478E+03</rscale>
<asrwt>0</asrwt>
<pdfrwt beam="1">  1       21 0.14098048E+00 0.18717478E+03</pdfrwt>
<pdfrwt beam="2">  1       21 0.68356956E-02 0.18717478E+03</pdfrwt>
<totfact> 0.55544864E+04</totfact>
</mgrwt>
</event>
<event>
 4    1  0.4050555E+000  0.1839895E+03  0.7546771E-02  0.1163997E+00
         21   -1    0    0  501  502  0.00000000000E+00  0.00000000000E+00  0.18734547744E+03  0.18734547744E+03  0.00000000000E+00 0.  1.
         21   -1    0    0  502  503 -0.00000000000E+00 -0.00000000000E+00 -0.24682703515E+03  0.24682703515E+03  0.00000000000E+00 0.  1.
          6    1    1    2  501    0  0.38561313889E+02  0.49357403379E+02  0.82628221324E+02  0.20169172307E+03  0.17300000000E+03 0.  1.
         -6    1    1    2    0  503 -0.38561313889E+02 -0.49357403379E+02 -0.14210977903E+03  0.23248078951E+03  0.17300000000E+03 0.  1.
<mgrwt>
<rscale>  2 0.18398948E+03</rscale>
<asrwt>0</asrwt>
<pdfrwt beam="1">  1       21 0.28822381E-01 0.18398948E+03</pdfrwt>
<pdfrwt beam="2">  1       21 0.37973390E-01 0.18398948E+03</pdfrwt>
<totfact> 0.77313024E+04</totfact>
</mgrwt>
</event>
<event>
 4    1  0.4050555E+000  0.2454593E+03  0.7546771E-02  0.1116208E+00
         21   -1    0    0  503  502  0.00000000000E+00  0.00000000000E+00  0.18667713221E+03  0.18667713221E+03  0.00000000000E+00 0. -1.
         21   -1    0    0  501  503 -0.00000000000E+00 -0.00000000000E+00 -0.78493181241E+03  0.78493181241E+03  0.00000000000E+00 0. -1.
          6    1    1    2  501    0 -0.17309906969E+03  0.18920818087E+02 -0.67190627453E+03  0.71533791109E+03  0.17300000000E+03 0. -1.
         -6    1    1    2    0  502  0.17309906969E+03 -0.18920818087E+02  0.73651594335E+02  0.25627103354E+03  0.17300000000E+03 0. -1.
<mgrwt>
<rscale>  2 0.24545934E+03</rscale>
<asrwt>0</asrwt>
<pdfrwt beam="1">  1       21 0.28719559E-01 0.24545934E+03</pdfrwt>
<pdfrwt beam="2">  1       21 0.12075874E+00 0.24545934E+03</pdfrwt>
<totfact> 0.58058608E+03</totfact>
</mgrwt>
</event>
<event>
 4    1  0.4050555E+000  0.2495706E+03  0.7546771E-02  0.1113577E+00
         21   -1    0    0  503  502  0.00000000000E+00  0.00000000000E+00  0.10367619568E+03  0.10367619568E+03  0.00000000000E+00 0. -1.
         21   -1    0    0  501  503 -0.00000000000E+00 -0.00000000000E+00 -0.64454808670E+03  0.64454808670E+03  0.00000000000E+00 0. -1.
          6    1    1    2  501    0 -0.19569547036E+02 -0.17881135805E+03 -0.36793632715E+03  0.44459263351E+03  0.17300000000E+03 0. -1.
         -6    1    1    2    0  502  0.19569547036E+02  0.17881135805E+03 -0.17293556387E+03  0.30363164886E+03  0.17300000000E+03 0. -1.
<mgrwt>
<rscale>  2 0.24957057E+03</rscale>
<asrwt>0</asrwt>
<pdfrwt beam="1">  1       21 0.15950184E-01 0.24957057E+03</pdfrwt>
<pdfrwt beam="2">  1       21 0.99161244E-01 0.24957057E+03</pdfrwt>
<totfact> 0.28502249E+04</totfact>
</mgrwt>
</event>
<event>
 4    1  0.4050555E+000  0.2025692E+03  0.7546771E-02  0.1147589E+00
         21   -1    0    0  501  502  0.00000000000E+00  0.00000000000E+00  0.13230667733E+03  0.13230667733E+03  0.00000000000E+00 0. -1.
         21   -1    0    0  502  503 -0.00000000000E+00 -0.00000000000E+00 -0.31995385220E+03  0.31995385220E+03  0.00000000000E+00 0. -1.
          6    1    1    2  501    0  0.43210664350E+02 -0.96115158817E+02 -0.54230537615E+02  0.20970273360E+03  0.17300000000E+03 0. -1.
         -6    1    1    2    0  503 -0.43210664350E+02  0.96115158817E+02 -0.13341663726E+03  0.24255779593E+03  0.17300000000E+03 0. -1.
<mgrwt>
<rscale>  2 0.20256921E+03</rscale>
<asrwt>0</asrwt>
<pdfrwt beam="1">  1       21 0.20354873E-01 0.20256921E+03</pdfrwt>
<pdfrwt beam="2">  1       21 0.49223670E-01 0.20256921E+03</pdfrwt>
<totfact> 0.87564320E+04</totfact>
</mgrwt>
</event>
<event>
 4    1  0.4050555E+000  0.1746329E+03  0.7546771E-02  0.1173101E+00
         21   -1    0    0  501  502  0.00000000000E+00  0.00000000000E+00  0.10014902073E+04  0.10014902073E+04  0.00000000000E+00 0. -1.
         21   -1    0    0  502  503 -0.00000000000E+00 -0.00000000000E+00 -0.15621517157E+03  0.15621517157E+03  0.00000000000E+00 0. -1.
          6    1    1    2  501    0 -0.13022504964E+01 -0.23789541533E+02  0.94201661800E+03  0.95806677571E+03  0.17300000000E+03 0. -1.
         -6    1    1    2    0  503  0.13022504964E+01  0.23789541533E+02 -0.96741582248E+02  0.19963860318E+03  0.17300000000E+03 0. -1.
<mgrwt>
<rscale>  2 0.17463287E+03</rscale>
<asrwt>0</asrwt>
<pdfrwt beam="1">  1       21 0.15407541E+00 0.17463287E+03</pdfrwt>
<pdfrwt beam="2">  1       21 0.24033104E-01 0.17463287E+03</pdfrwt>
<totfact> 0.46203244E+03</totfact>
</mgrwt>
</event>
<event>
 4    1  0.4050555E+000  0.1864842E+03  0.7546771E-02  0.1161671E+00
         21   -1    0    0  503  502  0.00000000000E+00  0.00000000000E+00  0.15612130550E+03  0.15612130550E+03  0.00000000000E+00 0.  1.
         21   -1    0    0  501  503 -0.00000000000E+00 -0.00000000000E+00 -0.59218817509E+03  0.59218817509E+03  0.00000000000E+00 0.  1.
          6    1    1    2  501    0 -0.65535533949E+02 -0.23504362899E+02 -0.51355623248E+03  0.54636651179E+03  0.17300000000E+03 0.  1.
         -6    1    1    2    0  502  0.65535533949E+02  0.23504362899E+02  0.77489362901E+02  0.20194296880E+03  0.17300000000E+03 0.  1.
<mgrwt>
<rscale>  2 0.18648421E+03</rscale>
<asrwt>0</asrwt>
<pdfrwt beam="1">  1       21 0.24018663E-01 0.18648421E+03</pdfrwt>
<pdfrwt beam="2">  1       21 0.91105872E-01 0.18648421E+03</pdfrwt>
<totfact> 0.16760317E+04</totfact>
</mgrwt>
</event>
<event>
 4    1  0.4050555E+000  0.2512607E+03  0.7546771E-02  0.1112511E+00
         21   -1    0    0  503  502  0.00000000000E+00  0.00000000000E+00  0.31354208175E+03  0.31354208175E+03  0.00000000000E+00 0.  1.
         21   -1    0    0  501  503 -0.00000000000E+00 -0.00000000000E+00 -0.31037772189E+03  0.31037772189E+03  0.00000000000E+00 0. -1.
          6    1    1    2  501    0  0.15469135172E+03  0.96299085040E+02 -0.18331083863E+03  0.31102217226E+03  0.17300000000E+03 0.  1.
         -6    1    1    2    0  502 -0.15469135172E+03 -0.96299085040E+02  0.18647519849E+03  0.31289763138E+03  0.17300000000E+03 0.  1.
<mgrwt>
<rscale>  2 0.25126068E+03</rscale>
<asrwt>0</asrwt>
<pdfrwt beam="1">  1       21 0.48237243E-01 0.25126068E+03</pdfrwt>
<pdfrwt beam="2">  1       21 0.47750419E-01 0.25126068E+03</pdfrwt>
<totfact> 0.16655719E+04</totfact>
</mgrwt>
</event>
<event>
 4    1  0.4050555E+000  0.1789012E+03  0.7546771E-02  0.1168871E+00
         21   -1    0    0  503  502  0.00000000000E+00  0.00000000000E+00  0.98145791668E+02  0.98145791668E+02  0.00000000000E+00 0.  1.
         21   -1    0    0  501  503 -0.00000000000E+00 -0.00000000000E+00 -0.33598614884E+03  0.33598614884E+03  0.00000000000E+00 0.  1.
          6    1    1    2  501    0  0.45301749413E+02 -0.49381734248E+01 -0.15614901017E+03  0.23746188627E+03  0.17300000000E+03 0.  1.
         -6    1    1    2    0  502 -0.45301749413E+02  0.49381734248E+01 -0.81691347006E+02  0.19667005423E+03  0.17300000000E+03 0.  1.
<mgrwt>
<rscale>  2 0.17890119E+03</rscale>
<asrwt>0</asrwt>
<pdfrwt beam="1">  1       21 0.15099353E-01 0.17890119E+03</pdfrwt>
<pdfrwt beam="2">  1       21 0.51690177E-01 0.17890119E+03</pdfrwt>
<totfact> 0.13841590E+05</totfact>
</mgrwt>
</event>
<event>
 4    1  0.4050555E+000  0.3211036E+03  0.7546771E-02  0.1075143E+00
         21   -1    0    0  501  502  0.00000000000E+00  0.00000000000E+00  0.12865320718E+03  0.12865320718E+03  0.00000000000E+00 0.  1.
         21   -1    0    0  502  503 -0.00000000000E+00 -0.00000000000E+00 -0.86173726712E+03  0.86173726712E+03  0.00000000000E+00 0. -1.
          6    1    1    2  501    0  0.18537209065E+02 -0.26987935498E+03 -0.23554931940E+03  0.39823482549E+03  0.17300000000E+03 0.  1.
         -6    1    1    2    0  503 -0.18537209065E+02  0.26987935498E+03 -0.49753474054E+03  0.59215564880E+03  0.17300000000E+03 0. -1.
<mgrwt>
<rscale>  2 0.32110356E+03</rscale>
<asrwt>0</asrwt>
<pdfrwt beam="1">  1       21 0.19792801E-01 0.32110356E+03</pdfrwt>
<pdfrwt beam="2">  1       21 0.13257496E+00 0.32110356E+03</pdfrwt>
<totfact> 0.89787577E+03</totfact>
</mgrwt>
</event>
<event>
 4    1  0.4050555E+000  0.2805377E+03  0.7546771E-02  0.1095396E+00
         21   -1    0    0  501  502  0.00000000000E+00  0.00000000000E+00  0.66838458576E+03  0.66838458576E+03  0.00000000000E+00 0.  1.
         21   -1    0    0  502  503 -0.00000000000E+00 -0.00000000000E+00 -0.12973448903E+03  0.12973448903E+03  0.00000000000E+00 0. -1.
          6    1    1    2  501    0  0.16487348471E+03  0.14693238425E+03  0.39062034268E+03  0.48092166058E+03  0.17300000000E+03 0.  1.
         -6    1    1    2    0  503 -0.16487348471E+03 -0.14693238425E+03  0.14802975405E+03  0.31719741422E+03  0.17300000000E+03 0. -1.
<mgrwt>
<rscale>  2 0.28053768E+03</rscale>
<asrwt>0</asrwt>
<pdfrwt beam="1">  1       21 0.10282840E+00 0.28053768E+03</pdfrwt>
<pdfrwt beam="2">  1       21 0.19959153E-01 0.28053768E+03</pdfrwt>
<totfact> 0.16961590E+04</totfact>
</mgrwt>
</event>
<event>
 4    1  0.4050555E+000  0.1915262E+03  0.7546771E-02  0.1157092E+00
         21   -1    0    0  503  502  0.00000000000E+00  0.00000000000E+00  0.89581362187E+03  0.89581362187E+03  0.00000000000E+00 0.  1.
         21   -1    0    0  501  503 -0.00000000000E+00 -0.00000000000E+00 -0.44847616213E+02  0.44847616213E+02  0.00000000000E+00 0.  1.
          6    1    1    2  501    0  0.78020023795E+02 -0.25810410676E+02  0.28680363484E+03  0.34487479811E+03  0.17300000000E+03 0.  1.
         -6    1    1    2    0  502 -0.78020023795E+02  0.25810410676E+02  0.56416237082E+03  0.59578643998E+03  0.17300000000E+03 0.  1.
<mgrwt>
<rscale>  2 0.19152624E+03</rscale>
<asrwt>0</asrwt>
<pdfrwt beam="1">  1       21 0.13781747E+00 0.19152624E+03</pdfrwt>
<pdfrwt beam="2">  1       21 0.68996340E-02 0.19152624E+03</pdfrwt>
<totfact> 0.57824755E+04</totfact>
</mgrwt>
</event>
<event>
 4    1  0.4050555E+000  0.2212999E+03  0.7546771E-02  0.1132918E+00
         21   -1    0    0  503  502  0.00000000000E+00  0.00000000000E+00  0.66412260502E+02  0.66412260502E+02  0.00000000000E+00 0. -1.
         21   -1    0    0  501  503 -0.00000000000E+00 -0.00000000000E+00 -0.85609866880E+03  0.85609866880E+03  0.00000000000E+00 0. -1.
          6    1    1    2  501    0  0.29569762160E+02  0.13479719006E+03 -0.56658185095E+03  0.60826692094E+03  0.17300000000E+03 0. -1.
         -6    1    1    2    0  502 -0.29569762160E+02 -0.13479719006E+03 -0.22310455735E+03  0.31424400837E+03  0.17300000000E+03 0. -1.
<mgrwt>
<rscale>  2 0.22129992E+03</rscale>
<asrwt>0</asrwt>
<pdfrwt beam="1">  1       21 0.10217271E-01 0.22129992E+03</pdfrwt>
<pdfrwt beam="2">  1       21 0.13170748E+00 0.22129992E+03</pdfrwt>
<totfact> 0.32137297E+04</totfact>
</mgrwt>
</event>
<event>
 4    1  0.4050555E+000  0.3904101E+03  0.7546771E-02  0.1047152E+00
         21   -1    0    0  501  502  0.00000000000E+00  0.00000000000E+00  0.14367097183E+04  0.14367097183E+04  0.00000000000E+00 0.  1.
         21   -1    0    0  502  503 -0.00000000000E+00 -0.00000000000E+00 -0.16182411191E+03  0.16182411191E+03  0.00000000000E+00 0.  1.
          6    1    1    2  501    0  0.69491622046E+02  0.34301889070E+03  0.11065067883E+04  0.11733615460E+04  0.17300000000E+03 0.  1.
         -6    1    1    2    0  503 -0.69491622046E+02 -0.34301889070E+03  0.16837881802E+03  0.42517228422E+03  0.17300000000E+03 0.  1.
<mgrwt>
<rscale>  2 0.39041010E+03</rscale>
<asrwt>0</asrwt>
<pdfrwt beam="1">  1       21 0.22103226E+00 0.39041010E+03</pdfrwt>
<pdfrwt beam="2">  1       21 0.24896018E-01 0.39041010E+03</pdfrwt>
<totfact> 0.12988513E+03</totfact>
</mgrwt>
</event>
<event>
 4    1  0.4050555E+000  0.2361997E+03  0.7546771E-02  0.1122351E+00
         21   -1    0    0  503  502  0.00000000000E+00  0.00000000000E+00  0.84724225761E+02  0.84724225761E+02  0.00000000000E+00 0.  1.
         21   -1    0    0  501  503 -0.00000000000E+00 -0.00000000000E+00 -0.73125054613E+03  0.73125054613E+03  0.00000000000E+00 0. -1.
          6    1    1    2  501    0  0.15873591399E+03  0.25771848124E+02 -0.45195581187E+03  0.50995522787E+03  0.17300000000E+03 0. -1.
         -6    1    1    2    0  502 -0.15873591399E+03 -0.25771848124E+02 -0.19457050850E+03  0.30601954402E+03  0.17300000000E+03 0. -1.
<mgrwt>
<rscale>  2 0.23619966E+03</rscale>
<asrwt>0</asrwt>
<pdfrwt beam="1">  1       21 0.13034496E-01 0.23619966E+03</pdfrwt>
<pdfrwt beam="2">  1       21 0.11250009E+00 0.23619966E+03</pdfrwt>
<totfact> 0.30553414E+04</totfact>
</mgrwt>
</event>
<event>
 4    1  0.4050555E+000  0.1738465E+03  0.7546771E-02  0.1173895E+00
         21   -1    0    0  503  502  0.00000000000E+00  0.00000000000E+00  0.99137098189E+02  0.99137098189E+02  0.00000000000E+00 0. -1.
         21   -1    0    0  501  503 -0.00000000000E+00 -0.00000000000E+00 -0.32924424922E+03  0.32924424922E+03  0.00000000000E+00 0. -1.
          6    1    1    2  501    0  0.17061786149E+02  0.15835148581E+01 -0.17334775933E+03  0.24550368171E+03  0.17300000000E+03 0. -1.
         -6    1    1    2    0  502 -0.17061786149E+02 -0.15835148581E+01 -0.56759391696E+02  0.18287766570E+03  0.17300000000E+03 0. -1.
<mgrwt>
<rscale>  2 0.17384652E+03</rscale>
<asrwt>0</asrwt>
<pdfrwt beam="1">  1       21 0.15251861E-01 0.17384652E+03</pdfrwt>
<pdfrwt beam="2">  1       21 0.50652961E-01 0.17384652E+03</pdfrwt>
<totfact> 0.14203263E+05</totfact>
</mgrwt>
</event>
<event>
 4    1  0.4050555E+000  0.2778512E+03  0.7546771E-02  0.1096868E+00
         21   -1    0    0  501  502  0.00000000000E+00  0.00000000000E+00  0.42480338913E+03  0.42480338913E+03  0.00000000000E+00 0.  1.
         21   -1    0    0  502  503 -0.00000000000E+00 -0.00000000000E+00 -0.18226418855E+03  0.18226418855E+03  0.00000000000E+00 0.  1.
          6    1    1    2  501    0 -0.20849790545E+03  0.61651469820E+02  0.13763823817E+03  0.31007348309E+03  0.17300000000E+03 0.  1.
         -6    1    1    2    0  503  0.20849790545E+03 -0.61651469820E+02  0.10490096242E+03  0.29699409459E+03  0.17300000000E+03 0.  1.
<mgrwt>
<rscale>  2 0.27785118E+03</rscale>
<asrwt>0</asrwt>
<pdfrwt beam="1">  1       21 0.65354367E-01 0.27785118E+03</pdfrwt>
<pdfrwt beam="2">  1       21 0.28040645E-01 0.27785118E+03</pdfrwt>
<totfact> 0.25089184E+04</totfact>
</mgrwt>
</event>
<event>
 4    1  0.4050555E+000  0.2119400E+03  0.7546771E-02  0.1140039E+00
         21   -1    0    0  503  502  0.00000000000E+00  0.00000000000E+00  0.67639356577E+02  0.67639356577E+02  0.00000000000E+00 0.  1.
         21   -1    0    0  501  503 -0.00000000000E+00 -0.00000000000E+00 -0.98563349306E+03  0.98563349306E+03  0.00000000000E+00 0. -1.
          6    1    1    2  501    0  0.79583245218E+02  0.93038040831E+02 -0.75979409054E+03  0.78880012042E+03  0.17300000000E+03 0. -1.
         -6    1    1    2    0  502 -0.79583245218E+02 -0.93038040831E+02 -0.15820004594E+03  0.26447272921E+03  0.17300000000E+03 0.  1.
<mgrwt>
<rscale>  2 0.21194002E+03</rscale>
<asrwt>0</asrwt>
<pdfrwt beam="1">  1       21 0.10406056E-01 0.21194002E+03</pdfrwt>
<pdfrwt beam="2">  1       21 0.15163591E+00 0.21194002E+03</pdfrwt>
<totfact> 0.21691803E+04</totfact>
</mgrwt>
</event>
<event>
 4    1  0.4050555E+000  0.2257936E+03  0.7546771E-02  0.1129636E+00
         21   -1    0    0  501  502  0.00000000000E+00  0.00000000000E+00  0.13485389291E+04  0.13485389291E+04  0.00000000000E+00 0. -1.
         21   -1    0    0  502  503 -0.00000000000E+00 -0.00000000000E+00 -0.39166398231E+02  0.39166398231E+02  0.00000000000E+00 0. -1.
          6    1    1    2  501    0 -0.12716007189E+03  0.69886090414E+02  0.78400363876E+03  0.81587036660E+03  0.17300000000E+03 0.  1.
         -6    1    1    2    0  503  0.12716007189E+03 -0.69886090414E+02  0.52536889215E+03  0.57183496077E+03  0.17300000000E+03 0.  1.
<mgrwt>
<rscale>  2 0.22579360E+03</rscale>
<asrwt>0</asrwt>
<pdfrwt beam="1">  1       21 0.20746749E+00 0.22579360E+03</pdfrwt>
<pdfrwt beam="2">  1       21 0.60256008E-02 0.22579360E+03</pdfrwt>
<totfact> 0.23002641E+04</totfact>
</mgrwt>
</event>
<event>
 4    1  0.4050555E+000  0.2424322E+03  0.7546771E-02  0.1118183E+00
         21   -1    0    0  501  502  0.00000000000E+00  0.00000000000E+00  0.29355481484E+02  0.29355481484E+02  0.00000000000E+00 0. -1.
         21   -1    0    0  502  503 -0.00000000000E+00 -0.00000000000E+00 -0.27192998242E+04  0.27192998242E+04  0.00000000000E+00 0. -1.
          6    1    1    2  501    0  0.10479682507E+03 -0.13364875206E+03 -0.63918453207E+03  0.68361555681E+03  0.17300000000E+03 0. -1.
         -6    1    1    2    0  503 -0.10479682507E+03  0.13364875206E+03 -0.20507598107E+04  0.20650397489E+04  0.17300000000E+03 0. -1.
<mgrwt>
<rscale>  2 0.24243218E+03</rscale>
<asrwt>0</asrwt>
<pdfrwt beam="1">  1       21 0.45162258E-02 0.24243218E+03</pdfrwt>
<pdfrwt beam="2">  1       21 0.41835401E+00 0.24243218E+03</pdfrwt>
<totfact> 0.19974133E+03</totfact>
</mgrwt>
</event>
<event>
 4    1  0.4050555E+000  0.1763920E+03  0.7546771E-02  0.1171341E+00
         21   -1    0    0  503  502  0.00000000000E+00  0.00000000000E+00  0.17414617513E+03  0.17414617513E+03  0.00000000000E+00 0. -1.
         21   -1    0    0  501  503 -0.00000000000E+00 -0.00000000000E+00 -0.20547936633E+03  0.20547936633E+03  0.00000000000E+00 0. -1.
          6    1    1    2  501    0 -0.31397891609E+02  0.14118062432E+02 -0.84232808945E+02  0.19547202712E+03  0.17300000000E+03 0. -1.
         -6    1    1    2    0  502  0.31397891609E+02 -0.14118062432E+02  0.52899617742E+02  0.18415351433E+03  0.17300000000E+03 0. -1.
<mgrwt>
<rscale>  2 0.17639203E+03</rscale>
<asrwt>0</asrwt>
<pdfrwt beam="1">  1       21 0.26791719E-01 0.17639203E+03</pdfrwt>
<pdfrwt beam="2">  1       21 0.31612210E-01 0.17639203E+03</pdfrwt>
<totfact> 0.12832503E+05</totfact>
</mgrwt>
</event>
<event>
 4    1  0.4050555E+000  0.1983938E+03  0.7546771E-02  0.1151101E+00
         21   -1    0    0  501  502  0.00000000000E+00  0.00000000000E+00  0.13318227848E+04  0.13318227848E+04  0.00000000000E+00 0. -1.
         21   -1    0    0  502  503 -0.00000000000E+00 -0.00000000000E+00 -0.80906570874E+02  0.80906570874E+02  0.00000000000E+00 0. -1.
          6    1    1    2  501    0 -0.92906696221E+02  0.28274252824E+02  0.11882140454E+04  0.12046629011E+04  0.17300000000E+03 0. -1.
         -6    1    1    2    0  503  0.92906696221E+02 -0.28274252824E+02  0.62702168489E+02  0.20806645455E+03  0.17300000000E+03 0. -1.
<mgrwt>
<rscale>  2 0.19839377E+03</rscale>
<asrwt>0</asrwt>
<pdfrwt beam="1">  1       21 0.20489580E+00 0.19839377E+03</pdfrwt>
<pdfrwt beam="2">  1       21 0.12447166E-01 0.19839377E+03</pdfrwt>
<totfact> 0.68321818E+03</totfact>
</mgrwt>
</event>
<event>
 4    1  0.4050555E+000  0.1824389E+03  0.7546771E-02  0.1165463E+00
         21   -1    0    0  501  502  0.00000000000E+00  0.00000000000E+00  0.26845081359E+04  0.26845081359E+04  0.00000000000E+00 0.  1.
         21   -1    0    0  502  503 -0.00000000000E+00 -0.00000000000E+00 -0.13497148772E+02  0.13497148772E+02  0.00000000000E+00 0.  1.
          6    1    1    2  501    0 -0.24659093873E+02  0.52410658472E+02  0.17203770166E+04  0.17300234181E+04  0.17300000000E+03 0.  1.
         -6    1    1    2    0  503  0.24659093873E+02 -0.52410658472E+02  0.95063397050E+03  0.96798186652E+03  0.17300000000E+03 0.  1.
<mgrwt>
<rscale>  2 0.18243889E+03</rscale>
<asrwt>0</asrwt>
<pdfrwt beam="1">  1       21 0.41300083E+00 0.18243889E+03</pdfrwt>
<pdfrwt beam="2">  1       21 0.20764866E-02 0.18243889E+03</pdfrwt>
<totfact> 0.84796501E+03</totfact>
</mgrwt>
</event>
<event>
 4    1  0.4050555E+000  0.2031636E+03  0.7546771E-02  0.1147097E+00
         21   -1    0    0  501  502  0.00000000000E+00  0.00000000000E+00  0.59083620484E+03  0.59083620484E+03  0.00000000000E+00 0.  1.
         21   -1    0    0  502  503 -0.00000000000E+00 -0.00000000000E+00 -0.70788320608E+02  0.70788320608E+02  0.00000000000E+00 0.  1.
          6    1    1    2  501    0  0.10043010528E+03  0.35500005334E+02  0.29791987514E+03  0.36059909654E+03  0.17300000000E+03 0. -1.
         -6    1    1    2    0  503 -0.10043010528E+03 -0.35500005334E+02  0.22212800909E+03  0.30102542891E+03  0.17300000000E+03 0. -1.
<mgrwt>
<rscale>  2 0.20316362E+03</rscale>
<asrwt>0</asrwt>
<pdfrwt beam="1">  1       21 0.90897874E-01 0.20316362E+03</pdfrwt>
<pdfrwt beam="2">  1       21 0.10890511E-01 0.20316362E+03</pdfrwt>
<totfact> 0.71275818E+04</totfact>
</mgrwt>
</event>
<event>
 4    1  0.4050555E+000  0.1963144E+03  0.7546771E-02  0.1152886E+00
         21   -1    0    0  501  502  0.00000000000E+00  0.00000000000E+00  0.18500396083E+03  0.18500396083E+03  0.00000000000E+00 0.  1.
         21   -1    0    0  502  503 -0.00000000000E+00 -0.00000000000E+00 -0.20865236748E+03  0.20865236748E+03  0.00000000000E+00 0.  1.
          6    1    1    2  501    0  0.58585482974E+02  0.71958837094E+02 -0.19723987220E+02  0.19730273369E+03  0.17300000000E+03 0.  1.
         -6    1    1    2    0  503 -0.58585482974E+02 -0.71958837094E+02 -0.39244194283E+01  0.19635359462E+03  0.17300000000E+03 0.  1.
<mgrwt>
<rscale>  2 0.19631437E+03</rscale>
<asrwt>0</asrwt>
<pdfrwt beam="1">  1       21 0.28462148E-01 0.19631437E+03</pdfrwt>
<pdfrwt beam="2">  1       21 0.32100364E-01 0.19631437E+03</pdfrwt>
<totfact> 0.11002829E+05</totfact>
</mgrwt>
</event>
<event>
 4    1  0.4050555E+000  0.2465043E+03  0.7546771E-02  0.1115534E+00
         21   -1    0    0  503  502  0.00000000000E+00  0.00000000000E+00  0.16252178287E+04  0.16252178287E+04  0.00000000000E+00 0. -1.
         21   -1    0    0  501  503 -0.00000000000E+00 -0.00000000000E+00 -0.67652633389E+02  0.67652633389E+02  0.00000000000E+00 0.  1.
          6    1    1    2  501    0  0.16561434303E+03 -0.58371779428E+02  0.21265300128E+03  0.32555441051E+03  0.17300000000E+03 0.  1.
         -6    1    1    2    0  502 -0.16561434303E+03  0.58371779428E+02  0.13449121941E+04  0.13673160516E+04  0.17300000000E+03 0. -1.
<mgrwt>
<rscale>  2 0.24650431E+03</rscale>
<asrwt>0</asrwt>
<pdfrwt beam="1">  1       21 0.25003348E+00 0.24650431E+03</pdfrwt>
<pdfrwt beam="2">  1       21 0.10408099E-01 0.24650431E+03</pdfrwt>
<totfact> 0.47782880E+03</totfact>
</mgrwt>
</event>
<event>
 4    1  0.4050555E+000  0.1959991E+03  0.7546771E-02  0.1153159E+00
         21   -1    0    0  501  502  0.00000000000E+00  0.00000000000E+00  0.11403202348E+04  0.11403202348E+04  0.00000000000E+00 0. -1.
         21   -1    0    0  502  503 -0.00000000000E+00 -0.00000000000E+00 -0.39367052249E+02  0.39367052249E+02  0.00000000000E+00 0. -1.
          6    1    1    2  501    0 -0.52084283332E+02  0.75986060217E+02  0.32645489381E+03  0.38077349121E+03  0.17300000000E+03 0. -1.
         -6    1    1    2    0  503  0.52084283332E+02 -0.75986060217E+02  0.77449828878E+03  0.79891379587E+03  0.17300000000E+03 0. -1.
<mgrwt>
<rscale>  2 0.19599912E+03</rscale>
<asrwt>0</asrwt>
<pdfrwt beam="1">  1       21 0.17543386E+00 0.19599912E+03</pdfrwt>
<pdfrwt beam="2">  1       21 0.60564705E-02 0.19599912E+03</pdfrwt>
<totfact> 0.37867158E+04</totfact>
</mgrwt>
</event>
<event>
 4    1  0.4050555E+000  0.2304668E+03  0.7546771E-02  0.1126312E+00
         21   -1    0    0  501  502  0.00000000000E+00  0.00000000000E+00  0.11982229917E+04  0.11982229917E+04  0.00000000000E+00 0.  1.
         21   -1    0    0  502  503 -0.00000000000E+00 -0.00000000000E+00 -0.57718039207E+02  0.57718039207E+02  0.00000000000E+00 0. -1.
          6    1    1    2  501    0 -0.14090547616E+03 -0.57720019219E+02  0.87271578622E+03  0.90263381132E+03  0.17300000000E+03 0.  1.
         -6    1    1    2    0  503  0.14090547616E+03  0.57720019219E+02  0.26778916624E+03  0.35330721955E+03  0.17300000000E+03 0. -1.
<mgrwt>
<rscale>  2 0.23046682E+03</rscale>
<asrwt>0</asrwt>
<pdfrwt beam="1">  1       21 0.18434198E+00 0.23046682E+03</pdfrwt>
<pdfrwt beam="2">  1       21 0.88796992E-02 0.23046682E+03</pdfrwt>
<totfact> 0.16558536E+04</totfact>
</mgrwt>
</event>
<event>
 4    1  0.4050555E+000  0.1827181E+03  0.7546771E-02  0.1165198E+00
         21   -1    0    0  503  502  0.00000000000E+00  0.00000000000E+00  0.15928696915E+04  0.15928696915E+04  0.00000000000E+00 0. -1.
         21   -1    0    0  501  503 -0.00000000000E+00 -0.00000000000E+00 -0.29187776031E+02  0.29187776031E+02  0.00000000000E+00 0. -1.
          6    1    1    2  501    0  0.58788913504E+02 -0.88621034927E+00  0.35122773873E+03  0.39591267493E+03  0.17300000000E+03 0. -1.
         -6    1    1    2    0  502 -0.58788913504E+02  0.88621034927E+00  0.12124541767E+04  0.12261447926E+04  0.17300000000E+03 0. -1.
<mgrwt>
<rscale>  2 0.18271815E+03</rscale>
<asrwt>0</asrwt>
<pdfrwt beam="1">  1       21 0.24505681E+00 0.18271815E+03</pdfrwt>
<pdfrwt beam="2">  1       21 0.44904283E-02 0.18271815E+03</pdfrwt>
<totfact> 0.23136639E+04</totfact>
</mgrwt>
</event>
<event>
 4    1  0.4050555E+000  0.1759967E+03  0.7546771E-02  0.1171735E+00
         21   -1    0    0  501  502  0.00000000000E+00  0.00000000000E+00  0.27462508740E+03  0.27462508740E+03  0.00000000000E+00 0.  1.
         21   -1    0    0  502  503 -0.00000000000E+00 -0.00000000000E+00 -0.15667121010E+03  0.15667121010E+03  0.00000000000E+00 0.  1.
          6    1    1    2  501    0 -0.32166113438E+02  0.33434464075E+01  0.17310506977E+03  0.24686069486E+03  0.17300000000E+03 0.  1.
         -6    1    1    2    0  503  0.32166113438E+02 -0.33434464075E+01 -0.55151192473E+02  0.18443560263E+03  0.17300000000E+03 0.  1.
<mgrwt>
<rscale>  2 0.17599670E+03</rscale>
<asrwt>0</asrwt>
<pdfrwt beam="1">  1       21 0.42250013E-01 0.17599670E+03</pdfrwt>
<pdfrwt beam="2">  1       21 0.24103263E-01 0.17599670E+03</pdfrwt>
<totfact> 0.88118474E+04</totfact>
</mgrwt>
</event>
<event>
 4    1  0.4050555E+000  0.3194033E+03  0.7546771E-02  0.1075924E+00
         21   -1    0    0  503  502  0.00000000000E+00  0.00000000000E+00  0.78768613688E+03  0.78768613688E+03  0.00000000000E+00 0. -1.
         21   -1    0    0  501  503 -0.00000000000E+00 -0.00000000000E+00 -0.22988491733E+03  0.22988491733E+03  0.00000000000E+00 0.  1.
          6    1    1    2  501    0 -0.13080966180E+03  0.23447457747E+03 -0.57283864911E+02  0.32449951661E+03  0.17300000000E+03 0.  1.
         -6    1    1    2    0  502  0.13080966180E+03 -0.23447457747E+03  0.61508508447E+03  0.69307153760E+03  0.17300000000E+03 0. -1.
<mgrwt>
<rscale>  2 0.31940334E+03</rscale>
<asrwt>0</asrwt>
<pdfrwt beam="1">  1       21 0.12118248E+00 0.31940334E+03</pdfrwt>
<pdfrwt beam="2">  1       21 0.35366911E-01 0.31940334E+03</pdfrwt>
<totfact> 0.36528075E+03</totfact>
</mgrwt>
</event>
<event>
 4    1  0.4050555E+000  0.1740887E+03  0.7546771E-02  0.1173650E+00
         21   -1    0    0  501  502  0.00000000000E+00  0.00000000000E+00  0.51960520071E+02  0.51960520071E+02  0.00000000000E+00 0.  1.
         21   -1    0    0  502  503 -0.00000000000E+00 -0.00000000000E+00 -0.58636025900E+03  0.58636025900E+03  0.00000000000E+00 0.  1.
          6    1    1    2  501    0 -0.11276417709E+02  0.15834262155E+02 -0.24402051351E+03  0.29975472051E+03  0.17300000000E+03 0. -1.
         -6    1    1    2    0  503  0.11276417709E+02 -0.15834262155E+02 -0.29037922542E+03  0.33856605856E+03  0.17300000000E+03 0. -1.
<mgrwt>
<rscale>  2 0.17408872E+03</rscale>
<asrwt>0</asrwt>
<pdfrwt beam="1">  1       21 0.79939260E-02 0.17408872E+03</pdfrwt>
<pdfrwt beam="2">  1       21 0.90209273E-01 0.17408872E+03</pdfrwt>
<totfact> 0.12644349E+05</totfact>
</mgrwt>
</event>
<event>
 4    1  0.4050555E+000  0.1888822E+03  0.7546771E-02  0.1159473E+00
         21   -1    0    0  501  502  0.00000000000E+00  0.00000000000E+00  0.29063282465E+02  0.29063282465E+02  0.00000000000E+00 0.  1.
         21   -1    0    0  502  503 -0.00000000000E+00 -0.00000000000E+00 -0.13806903941E+04  0.13806903941E+04  0.00000000000E+00 0.  1.
          6    1    1    2  501    0 -0.65310111165E+02 -0.38497867153E+02 -0.44105760844E+03  0.47980028174E+03  0.17300000000E+03 0.  1.
         -6    1    1    2    0  503  0.65310111165E+02  0.38497867153E+02 -0.91056950318E+03  0.92995339481E+03  0.17300000000E+03 0.  1.
<mgrwt>
<rscale>  2 0.18888223E+03</rscale>
<asrwt>0</asrwt>
<pdfrwt beam="1">  1       21 0.44712747E-02 0.18888223E+03</pdfrwt>
<pdfrwt beam="2">  1       21 0.21241388E+00 0.18888223E+03</pdfrwt>
<totfact> 0.36516742E+04</totfact>
</mgrwt>
</event>
<event>
 4    1  0.4050555E+000  0.2279986E+03  0.7546771E-02  0.1128056E+00
         21   -1    0    0  503  502  0.00000000000E+00  0.00000000000E+00  0.12744246087E+03  0.12744246087E+03  0.00000000000E+00 0.  1.
         21   -1    0    0  501  503 -0.00000000000E+00 -0.00000000000E+00 -0.43294489102E+03  0.43294489102E+03  0.00000000000E+00 0.  1.
          6    1    1    2  501    0  0.14843013941E+03  0.47817634883E+01 -0.22014647685E+03  0.31693507666E+03  0.17300000000E+03 0.  1.
         -6    1    1    2    0  502 -0.14843013941E+03 -0.47817634883E+01 -0.85355953302E+02  0.24345227522E+03  0.17300000000E+03 0.  1.
<mgrwt>
<rscale>  2 0.22799862E+03</rscale>
<asrwt>0</asrwt>
<pdfrwt beam="1">  1       21 0.19606533E-01 0.22799862E+03</pdfrwt>
<pdfrwt beam="2">  1       21 0.66606906E-01 0.22799862E+03</pdfrwt>
<totfact> 0.48678635E+04</totfact>
</mgrwt>
</event>
<event>
 4    1  0.4050555E+000  0.2002830E+03  0.7546771E-02  0.1149500E+00
         21   -1    0    0  503  502  0.00000000000E+00  0.00000000000E+00  0.63114823449E+02  0.63114823449E+02  0.00000000000E+00 0. -1.
         21   -1    0    0  501  503 -0.00000000000E+00 -0.00000000000E+00 -0.63756420413E+03  0.63756420413E+03  0.00000000000E+00 0.  1.
          6    1    1    2  501    0  0.20980012449E+02 -0.98712258128E+02 -0.30686619377E+03  0.36644253534E+03  0.17300000000E+03 0.  1.
         -6    1    1    2    0  502 -0.20980012449E+02  0.98712258128E+02 -0.26758318690E+03  0.33423649223E+03  0.17300000000E+03 0. -1.
<mgrwt>
<rscale>  2 0.20028298E+03</rscale>
<asrwt>0</asrwt>
<pdfrwt beam="1">  1       21 0.97099730E-02 0.20028298E+03</pdfrwt>
<pdfrwt beam="2">  1       21 0.98086799E-01 0.20028298E+03</pdfrwt>
<totfact> 0.73184524E+04</totfact>
</mgrwt>
</event>
<event>
 4    1  0.4050555E+000  0.1970027E+03  0.7546771E-02  0.1152293E+00
         21   -1    0    0  501  502  0.00000000000E+00  0.00000000000E+00  0.39000878571E+03  0.39000878571E+03  0.00000000000E+00 0.  1.
         21   -1    0    0  502  503 -0.00000000000E+00 -0.00000000000E+00 -0.10031054158E+03  0.10031054158E+03  0.00000000000E+00 0.  1.
          6    1    1    2  501    0  0.68817409267E+02  0.64383476087E+02  0.16674001211E+03  0.25809358661E+03  0.17300000000E+03 0.  1.
         -6    1    1    2    0  503 -0.68817409267E+02 -0.64383476087E+02  0.12295823203E+03  0.23222574068E+03  0.17300000000E+03 0.  1.
<mgrwt>
<rscale>  2 0.19700271E+03</rscale>
<asrwt>0</asrwt>
<pdfrwt beam="1">  1       21 0.60001351E-01 0.19700271E+03</pdfrwt>
<pdfrwt beam="2">  1       21 0.15432391E-01 0.19700271E+03</pdfrwt>
<totfact> 0.96340782E+04</totfact>
</mgrwt>
</event>
<event>
 4    1  0.4050555E+000  0.3019345E+03  0.7546771E-02  0.1084278E+00
         21   -1    0    0  503  502  0.00000000000E+00  0.00000000000E+00  0.70701289310E+03  0.70701289310E+03  0.00000000000E+00 0. -1.
         21   -1    0    0  501  503 -0.00000000000E+00 -0.00000000000E+00 -0.13040521680E+03  0.13040521680E+03  0.00000000000E+00 0.  1.
          6    1    1    2  501    0 -0.22714873672E+03 -0.98177995886E+02  0.24396861390E+03  0.38818185434E+03  0.17300000000E+03 0.  1.
         -6    1    1    2    0  502  0.22714873672E+03  0.98177995886E+02  0.33263906241E+03  0.44923625556E+03  0.17300000000E+03 0.  1.
<mgrwt>
<rscale>  2 0.30193454E+03</rscale>
<asrwt>0</asrwt>
<pdfrwt beam="1">  1       21 0.10877121E+00 0.30193454E+03</pdfrwt>
<pdfrwt beam="2">  1       21 0.20062341E-01 0.30193454E+03</pdfrwt>
<totfact> 0.14512026E+04</totfact>
</mgrwt>
</event>
<event>
 4    1  0.4050555E+000  0.1949598E+03  0.7546771E-02  0.1154062E+00
         21   -1    0    0  503  502  0.00000000000E+00  0.00000000000E+00  0.33804667089E+02  0.33804667089E+02  0.00000000000E+00 0. -1.
         21   -1    0    0  501  503 -0.00000000000E+00 -0.00000000000E+00 -0.11260243233E+04  0.11260243233E+04  0.00000000000E+00 0. -1.
          6    1    1    2  501    0 -0.15285757441E+02 -0.88581487326E+02 -0.56826202655E+03  0.60077538656E+03  0.17300000000E+03 0. -1.
         -6    1    1    2    0  502  0.15285757441E+02  0.88581487326E+02 -0.52395762971E+03  0.55905360388E+03  0.17300000000E+03 0. -1.
<mgrwt>
<rscale>  2 0.19495983E+03</rscale>
<asrwt>0</asrwt>
<pdfrwt beam="1">  1       21 0.52007192E-02 0.19495983E+03</pdfrwt>
<pdfrwt beam="2">  1       21 0.17323447E+00 0.19495983E+03</pdfrwt>
<totfact> 0.50896305E+04</totfact>
</mgrwt>
</event>
<event>
 4    1  0.4050555E+000  0.1829382E+03  0.7546771E-02  0.1164989E+00
         21   -1    0    0  501  502  0.00000000000E+00  0.00000000000E+00  0.70090433180E+02  0.70090433180E+02  0.00000000000E+00 0.  1.
         21   -1    0    0  502  503 -0.00000000000E+00 -0.00000000000E+00 -0.57570882628E+03  0.57570882628E+03  0.00000000000E+00 0.  1.
          6    1    1    2  501    0 -0.23346455631E+02 -0.54702052618E+02 -0.11942681621E+03  0.21846998874E+03  0.17300000000E+03 0.  1.
         -6    1    1    2    0  503  0.23346455631E+02  0.54702052618E+02 -0.38619157689E+03  0.42732927072E+03  0.17300000000E+03 0.  1.
<mgrwt>
<rscale>  2 0.18293816E+03</rscale>
<asrwt>0</asrwt>
<pdfrwt beam="1">  1       21 0.10783144E-01 0.18293816E+03</pdfrwt>
<pdfrwt beam="2">  1       21 0.88570588E-01 0.18293816E+03</pdfrwt>
<totfact> 0.77728899E+04</totfact>
</mgrwt>
</event>
<event>
 4    1  0.4050555E+000  0.1835203E+03  0.7546771E-02  0.1164439E+00
         21   -1    0    0  501  502  0.00000000000E+00  0.00000000000E+00  0.29112532627E+03  0.29112532627E+03  0.00000000000E+00 0.  1.
         21   -1    0    0  502  503 -0.00000000000E+00 -0.00000000000E+00 -0.13230799491E+03  0.13230799491E+03  0.00000000000E+00 0.  1.
          6    1    1    2  501    0 -0.27782501865E+02 -0.54578768229E+02  0.15444598620E+03  0.23986094306E+03  0.17300000000E+03 0.  1.
         -6    1    1    2    0  503  0.27782501865E+02  0.54578768229E+02  0.43713451623E+01  0.18357237812E+03  0.17300000000E+03 0.  1.
<mgrwt>
<rscale>  2 0.18352032E+03</rscale>
<asrwt>0</asrwt>
<pdfrwt beam="1">  1       21 0.44788512E-01 0.18352032E+03</pdfrwt>
<pdfrwt beam="2">  1       21 0.20355076E-01 0.18352032E+03</pdfrwt>
<totfact> 0.10722956E+05</totfact>
</mgrwt>
</event>
<event>
 4    1  0.4050555E+000  0.2064246E+03  0.7546771E-02  0.1144429E+00
         21   -1    0    0  501  502  0.00000000000E+00  0.00000000000E+00  0.21297094334E+03  0.21297094334E+03  0.00000000000E+00 0. -1.
         21   -1    0    0  502  503 -0.00000000000E+00 -0.00000000000E+00 -0.30022030709E+03  0.30022030709E+03  0.00000000000E+00 0. -1.
          6    1    1    2  501    0  0.10096334470E+03 -0.49885137841E+02  0.10457071604E+03  0.23140042914E+03  0.17300000000E+03 0. -1.
         -6    1    1    2    0  503 -0.10096334470E+03  0.49885137841E+02 -0.19182007980E+03  0.28179082129E+03  0.17300000000E+03 0. -1.
<mgrwt>
<rscale>  2 0.20642462E+03</rscale>
<asrwt>0</asrwt>
<pdfrwt beam="1">  1       21 0.32764761E-01 0.20642462E+03</pdfrwt>
<pdfrwt beam="2">  1       21 0.46187739E-01 0.20642462E+03</pdfrwt>
<totfact> 0.39986107E+04</totfact>
</mgrwt>
</event>
<event>
 4    1  0.4050555E+000  0.1944863E+03  0.7546771E-02  0.1154476E+00
         21   -1    0    0  503  502  0.00000000000E+00  0.00000000000E+00  0.76700888074E+03  0.76700888074E+03  0.00000000000E+00 0. -1.
         21   -1    0    0  501  503 -0.00000000000E+00 -0.00000000000E+00 -0.85745011390E+02  0.85745011390E+02  0.00000000000E+00 0. -1.
          6    1    1    2  501    0 -0.88810277597E+02  0.29393128196E+01  0.62711801452E+02  0.20434694764E+03  0.17300000000E+03 0. -1.
         -6    1    1    2    0  502  0.88810277597E+02 -0.29393128196E+01  0.61855206790E+03  0.64840694450E+03  0.17300000000E+03 0. -1.
<mgrwt>
<rscale>  2 0.19448626E+03</rscale>
<asrwt>0</asrwt>
<pdfrwt beam="1">  1       21 0.11800136E+00 0.19448626E+03</pdfrwt>
<pdfrwt beam="2">  1       21 0.13191541E-01 0.19448626E+03</pdfrwt>
<totfact> 0.27225043E+04</totfact>
</mgrwt>
</event>
<event>
 4    1  0.4050555E+000  0.1909502E+03  0.7546771E-02  0.1157607E+00
         21   -1    0    0  501  502  0.00000000000E+00  0.00000000000E+00  0.52392104276E+03  0.52392104276E+03  0.00000000000E+00 0. -1.
         21   -1    0    0  502  503 -0.00000000000E+00 -0.00000000000E+00 -0.90391273996E+02  0.90391273996E+02  0.00000000000E+00 0. -1.
          6    1    1    2  501    0  0.39653041800E+02 -0.70431552084E+02  0.36409620130E+03  0.41113016315E+03  0.17300000000E+03 0. -1.
         -6    1    1    2    0  503 -0.39653041800E+02  0.70431552084E+02  0.69433567467E+02  0.20318215361E+03  0.17300000000E+03 0. -1.
<mgrwt>
<rscale>  2 0.19095017E+03</rscale>
<asrwt>0</asrwt>
<pdfrwt beam="1">  1       21 0.80603236E-01 0.19095017E+03</pdfrwt>
<pdfrwt beam="2">  1       21 0.13906350E-01 0.19095017E+03</pdfrwt>
<totfact> 0.60908101E+04</totfact>
</mgrwt>
</event>
<event>
 4    1  0.4050555E+000  0.1794856E+03  0.7546771E-02  0.1168302E+00
         21   -1    0    0  503  502  0.00000000000E+00  0.00000000000E+00  0.79116796445E+03  0.79116796445E+03  0.00000000000E+00 0.  1.
         21   -1    0    0  501  503 -0.00000000000E+00 -0.00000000000E+00 -0.48397782749E+02  0.48397782749E+02  0.00000000000E+00 0.  1.
          6    1    1    2  501    0  0.47812960221E+02  0.70391157465E-01  0.20416999559E+03  0.27184641109E+03  0.17300000000E+03 0.  1.
         -6    1    1    2    0  502 -0.47812960221E+02 -0.70391157465E-01  0.53860018611E+03  0.56771933611E+03  0.17300000000E+03 0.  1.
<mgrwt>
<rscale>  2 0.17948561E+03</rscale>
<asrwt>0</asrwt>
<pdfrwt beam="1">  1       21 0.12171814E+00 0.17948561E+03</pdfrwt>
<pdfrwt beam="2">  1       21 0.74458133E-02 0.17948561E+03</pdfrwt>
<totfact> 0.69738241E+04</totfact>
</mgrwt>
</event>
<event>
 4    1  0.4050555E+000  0.2292314E+03  0.7546771E-02  0.1127182E+00
         21   -1    0    0  501  502  0.00000000000E+00  0.00000000000E+00  0.55922955420E+03  0.55922955420E+03  0.00000000000E+00 0. -1.
         21   -1    0    0  502  503 -0.00000000000E+00 -0.00000000000E+00 -0.99678382685E+02  0.99678382685E+02  0.00000000000E+00 0. -1.
          6    1    1    2  501    0 -0.14443678334E+03  0.41905473969E+02  0.30866261384E+03  0.38447322704E+03  0.17300000000E+03 0. -1.
         -6    1    1    2    0  503  0.14443678334E+03 -0.41905473969E+02  0.15088855767E+03  0.27443470984E+03  0.17300000000E+03 0. -1.
<mgrwt>
<rscale>  2 0.22923144E+03</rscale>
<asrwt>0</asrwt>
<pdfrwt beam="1">  1       21 0.86035314E-01 0.22923144E+03</pdfrwt>
<pdfrwt beam="2">  1       21 0.15335136E-01 0.22923144E+03</pdfrwt>
<totfact> 0.43125610E+04</totfact>
</mgrwt>
</event>
<event>
 4    1  0.4050555E+000  0.1909438E+03  0.7546771E-02  0.1157613E+00
         21   -1    0    0  501  502  0.00000000000E+00  0.00000000000E+00  0.26588251646E+03  0.26588251646E+03  0.00000000000E+00 0. -1.
         21   -1    0    0  502  503 -0.00000000000E+00 -0.00000000000E+00 -0.15974119519E+03  0.15974119519E+03  0.00000000000E+00 0. -1.
          6    1    1    2  501    0 -0.53150661482E+01 -0.80636652854E+02  0.13314316581E+03  0.23278020172E+03  0.17300000000E+03 0. -1.
         -6    1    1    2    0  503  0.53150661482E+01  0.80636652854E+02 -0.27001844539E+02  0.19284350993E+03  0.17300000000E+03 0. -1.
<mgrwt>
<rscale>  2 0.19094376E+03</rscale>
<asrwt>0</asrwt>
<pdfrwt beam="1">  1       21 0.40905003E-01 0.19094376E+03</pdfrwt>
<pdfrwt beam="2">  1       21 0.24575568E-01 0.19094376E+03</pdfrwt>
<totfact> 0.90156530E+04</totfact>
</mgrwt>
</event>
<event>
 4    1  0.4050555E+000  0.1731334E+03  0.7546771E-02  0.1174619E+00
         21   -1    0    0  501  502  0.00000000000E+00  0.00000000000E+00  0.25954239367E+03  0.25954239367E+03  0.00000000000E+00 0.  1.
         21   -1    0    0  502  503 -0.00000000000E+00 -0.00000000000E+00 -0.12965227213E+03  0.12965227213E+03  0.00000000000E+00 0.  1.
          6    1    1    2  501    0 -0.54789783610E+01 -0.40180507217E+01  0.12925484832E+03  0.21606012994E+03  0.17300000000E+03 0. -1.
         -6    1    1    2    0  503  0.54789783610E+01  0.40180507217E+01  0.63527321926E+00  0.17313453586E+03  0.17300000000E+03 0. -1.
<mgrwt>
<rscale>  2 0.17313337E+03</rscale>
<asrwt>0</asrwt>
<pdfrwt beam="1">  1       21 0.39929599E-01 0.17313337E+03</pdfrwt>
<pdfrwt beam="2">  1       21 0.19946503E-01 0.17313337E+03</pdfrwt>
<totfact> 0.14115631E+05</totfact>
</mgrwt>
</event>
<event>
 4    1  0.4050555E+000  0.1763025E+03  0.7546771E-02  0.1171430E+00
         21   -1    0    0  503  502  0.00000000000E+00  0.00000000000E+00  0.63092183495E+03  0.63092183495E+03  0.00000000000E+00 0. -1.
         21   -1    0    0  501  503 -0.00000000000E+00 -0.00000000000E+00 -0.50023217931E+02  0.50023217931E+02  0.00000000000E+00 0. -1.
          6    1    1    2  501    0  0.28408458985E+02  0.18615071290E+02  0.24854065155E+03  0.30472121175E+03  0.17300000000E+03 0. -1.
         -6    1    1    2    0  502 -0.28408458985E+02 -0.18615071290E+02  0.33235796547E+03  0.37622384113E+03  0.17300000000E+03 0. -1.
<mgrwt>
<rscale>  2 0.17630247E+03</rscale>
<asrwt>0</asrwt>
<pdfrwt beam="1">  1       21 0.97064892E-01 0.17630247E+03</pdfrwt>
<pdfrwt beam="2">  1       21 0.76958801E-02 0.17630247E+03</pdfrwt>
<totfact> 0.11379379E+05</totfact>
</mgrwt>
</event>
<event>
 4    1  0.4050555E+000  0.1943965E+03  0.7546771E-02  0.1154555E+00
         21   -1    0    0  503  502  0.00000000000E+00  0.00000000000E+00  0.51935251270E+03  0.51935251270E+03  0.00000000000E+00 0. -1.
         21   -1    0    0  501  503 -0.00000000000E+00 -0.00000000000E+00 -0.35438045283E+03  0.35438045283E+03  0.00000000000E+00 0. -1.
          6    1    1    2  501    0 -0.17583466897E+02  0.86901227404E+02 -0.30695625357E+03  0.36333475369E+03  0.17300000000E+03 0. -1.
         -6    1    1    2    0  502  0.17583466897E+02 -0.86901227404E+02  0.47192831344E+03  0.51039821185E+03  0.17300000000E+03 0. -1.
<mgrwt>
<rscale>  2 0.19439651E+03</rscale>
<asrwt>0</asrwt>
<pdfrwt beam="1">  1       21 0.79900387E-01 0.19439651E+03</pdfrwt>
<pdfrwt beam="2">  1       21 0.54520069E-01 0.19439651E+03</pdfrwt>
<totfact> 0.43766108E+03</totfact>
</mgrwt>
</event>
<event>
 4    1  0.4050555E+000  0.1839890E+03  0.7546771E-02  0.1163997E+00
         21   -1    0    0  501  502  0.00000000000E+00  0.00000000000E+00  0.46922531655E+02  0.46922531655E+02  0.00000000000E+00 0. -1.
         21   -1    0    0  502  503 -0.00000000000E+00 -0.00000000000E+00 -0.11692373919E+04  0.11692373919E+04  0.00000000000E+00 0.  1.
          6    1    1    2  501    0  0.23228950106E+02 -0.58166783852E+02 -0.18484514898E+03  0.26080584343E+03  0.17300000000E+03 0. -1.
         -6    1    1    2    0  503 -0.23228950106E+02  0.58166783852E+02 -0.93746971130E+03  0.95535408015E+03  0.17300000000E+03 0.  1.
<mgrwt>
<rscale>  2 0.18398902E+03</rscale>
<asrwt>0</asrwt>
<pdfrwt beam="1">  1       21 0.72188516E-02 0.18398902E+03</pdfrwt>
<pdfrwt beam="2">  1       21 0.17988266E+00 0.18398902E+03</pdfrwt>
<totfact> 0.26302952E+04</totfact>
</mgrwt>
</event>
<event>
 4    1  0.4050555E+000  0.1793177E+03  0.7546771E-02  0.1168465E+00
         21   -1    0    0  501  502  0.00000000000E+00  0.00000000000E+00  0.67783641268E+03  0.67783641268E+03  0.00000000000E+00 0.  1.
         21   -1    0    0  502  503 -0.00000000000E+00 -0.00000000000E+00 -0.59409993241E+02  0.59409993241E+02  0.00000000000E+00 0.  1.
          6    1    1    2  501    0 -0.34442666741E+02 -0.32241864884E+02  0.47469339993E+03  0.50743340359E+03  0.17300000000E+03 0.  1.
         -6    1    1    2    0  503  0.34442666741E+02  0.32241864884E+02  0.14373301952E+03  0.22981300234E+03  0.17300000000E+03 0.  1.
<mgrwt>
<rscale>  2 0.17931769E+03</rscale>
<asrwt>0</asrwt>
<pdfrwt beam="1">  1       21 0.10428252E+00 0.17931769E+03</pdfrwt>
<pdfrwt beam="2">  1       21 0.91399994E-02 0.17931769E+03</pdfrwt>
<totfact> 0.71046425E+04</totfact>
</mgrwt>
</event>
<event>
 4    1  0.4050555E+000  0.2108514E+03  0.7546771E-02  0.1140894E+00
         21   -1    0    0  503  502  0.00000000000E+00  0.00000000000E+00  0.88865707911E+03  0.88865707911E+03  0.00000000000E+00 0.  1.
         21   -1    0    0  501  503 -0.00000000000E+00 -0.00000000000E+00 -0.61084101638E+02  0.61084101638E+02  0.00000000000E+00 0.  1.
          6    1    1    2  501    0 -0.60411159173E+02  0.10430622378E+03  0.21176395683E+03  0.29883485386E+03  0.17300000000E+03 0.  1.
         -6    1    1    2    0  502  0.60411159173E+02 -0.10430622378E+03  0.61580902064E+03  0.65090632689E+03  0.17300000000E+03 0.  1.
<mgrwt>
<rscale>  2 0.21085136E+03</rscale>
<asrwt>0</asrwt>
<pdfrwt beam="1">  1       21 0.13671647E+00 0.21085136E+03</pdfrwt>
<pdfrwt beam="2">  1       21 0.93975547E-02 0.21085136E+03</pdfrwt>
<totfact> 0.34074275E+04</totfact>
</mgrwt>
</event>
<event>
 4    1  0.4050555E+000  0.2000636E+03  0.7546771E-02  0.1149685E+00
         21   -1    0    0  503  502  0.00000000000E+00  0.00000000000E+00  0.86269143250E+03  0.86269143250E+03  0.00000000000E+00 0.  1.
         21   -1    0    0  501  503 -0.00000000000E+00 -0.00000000000E+00 -0.46421932560E+02  0.46421932560E+02  0.00000000000E+00 0.  1.
          6    1    1    2  501    0 -0.85375642165E+02 -0.52985317001E+02  0.39739414269E+03  0.44491296760E+03  0.17300000000E+03 0.  1.
         -6    1    1    2    0  502  0.85375642165E+02  0.52985317001E+02  0.41887535726E+03  0.46420039747E+03  0.17300000000E+03 0.  1.
<mgrwt>
<rscale>  2 0.20006360E+03</rscale>
<asrwt>0</asrwt>
<pdfrwt beam="1">  1       21 0.13272175E+00 0.20006360E+03</pdfrwt>
<pdfrwt beam="2">  1       21 0.71418364E-02 0.20006360E+03</pdfrwt>
<totfact> 0.59699891E+04</totfact>
</mgrwt>
</event>
<event>
 4    1  0.4050555E+000  0.2586540E+03  0.7546771E-02  0.1107955E+00
         21   -1    0    0  503  502  0.00000000000E+00  0.00000000000E+00  0.60210198695E+02  0.60210198695E+02  0.00000000000E+00 0. -1.
         21   -1    0    0  501  503 -0.00000000000E+00 -0.00000000000E+00 -0.11160518387E+04  0.11160518387E+04  0.00000000000E+00 0.  1.
          6    1    1    2  501    0 -0.19140527468E+03 -0.18355077137E+02 -0.56694258555E+03  0.62315791204E+03  0.17300000000E+03 0. -1.
         -6    1    1    2    0  502  0.19140527468E+03  0.18355077137E+02 -0.48889905445E+03  0.55310412534E+03  0.17300000000E+03 0.  1.
<mgrwt>
<rscale>  2 0.25865399E+03</rscale>
<asrwt>0</asrwt>
<pdfrwt beam="1">  1       21 0.92631079E-02 0.25865399E+03</pdfrwt>
<pdfrwt beam="2">  1       21 0.17170027E+00 0.25865399E+03</pdfrwt>
<totfact> 0.18485397E+04</totfact>
</mgrwt>
</event>
<event>
 4    1  0.4050555E+000  0.4232667E+03  0.7546771E-02  0.1036008E+00
         21   -1    0    0  503  502  0.00000000000E+00  0.00000000000E+00  0.60735800283E+02  0.60735800283E+02  0.00000000000E+00 0. -1.
         21   -1    0    0  501  503 -0.00000000000E+00 -0.00000000000E+00 -0.31106670712E+04  0.31106670712E+04  0.00000000000E+00 0.  1.
          6    1    1    2  501    0  0.38628700425E+03  0.28389716628E+01 -0.18856369922E+04  0.19325582981E+04  0.17300000000E+03 0.  1.
         -6    1    1    2    0  502 -0.38628700425E+03 -0.28389716628E+01 -0.11642942788E+04  0.12388445734E+04  0.17300000000E+03 0. -1.
<mgrwt>
<rscale>  2 0.42326671E+03</rscale>
<asrwt>0</asrwt>
<pdfrwt beam="1">  1       21 0.93439708E-02 0.42326671E+03</pdfrwt>
<pdfrwt beam="2">  1       21 0.47856409E+00 0.42326671E+03</pdfrwt>
<totfact> 0.18843953E+02</totfact>
</mgrwt>
</event>
<event>
 4    1  0.4050555E+000  0.1925167E+03  0.7546771E-02  0.1156211E+00
         21   -1    0    0  501  502  0.00000000000E+00  0.00000000000E+00  0.42896021991E+03  0.42896021991E+03  0.00000000000E+00 0. -1.
         21   -1    0    0  502  503 -0.00000000000E+00 -0.00000000000E+00 -0.19386662693E+03  0.19386662693E+03  0.00000000000E+00 0. -1.
          6    1    1    2  501    0  0.35377286892E+02  0.76694985428E+02  0.34940379386E+03  0.39893067616E+03  0.17300000000E+03 0. -1.
         -6    1    1    2    0  503 -0.35377286892E+02 -0.76694985428E+02 -0.11431020088E+03  0.22389617067E+03  0.17300000000E+03 0. -1.
<mgrwt>
<rscale>  2 0.19251668E+03</rscale>
<asrwt>0</asrwt>
<pdfrwt beam="1">  1       21 0.65993880E-01 0.19251668E+03</pdfrwt>
<pdfrwt beam="2">  1       21 0.29825635E-01 0.19251668E+03</pdfrwt>
<totfact> 0.22729461E+04</totfact>
</mgrwt>
</event>
<event>
 4    1  0.4050555E+000  0.1973483E+03  0.7546771E-02  0.1151996E+00
         21   -1    0    0  503  502  0.00000000000E+00  0.00000000000E+00  0.48808403246E+03  0.48808403246E+03  0.00000000000E+00 0.  1.
         21   -1    0    0  501  503 -0.00000000000E+00 -0.00000000000E+00 -0.89835711819E+02  0.89835711819E+02  0.00000000000E+00 0.  1.
          6    1    1    2  501    0 -0.91475624077E+02  0.25486707946E+02  0.10251713291E+03  0.22238733018E+03  0.17300000000E+03 0.  1.
         -6    1    1    2    0  502  0.91475624077E+02 -0.25486707946E+02  0.29573118773E+03  0.35553241411E+03  0.17300000000E+03 0.  1.
<mgrwt>
<rscale>  2 0.19734833E+03</rscale>
<asrwt>0</asrwt>
<pdfrwt beam="1">  1       21 0.75089850E-01 0.19734833E+03</pdfrwt>
<pdfrwt beam="2">  1       21 0.13820879E-01 0.19734833E+03</pdfrwt>
<totfact> 0.72015844E+04</totfact>
</mgrwt>
</event>
<event>
 4    1  0.4050555E+000  0.3143481E+03  0.7546771E-02  0.1078280E+00
         21   -1    0    0  501  502  0.00000000000E+00  0.00000000000E+00  0.18523857751E+04  0.18523857751E+04  0.00000000000E+00 0.  1.
         21   -1    0    0  502  503 -0.00000000000E+00 -0.00000000000E+00 -0.15718184078E+03  0.15718184078E+03  0.00000000000E+00 0. -1.
          6    1    1    2  501    0 -0.12249596534E+03  0.23212163469E+03  0.16642747531E+04  0.16937016173E+04  0.17300000000E+03 0.  1.
         -6    1    1    2    0  503  0.12249596534E+03 -0.23212163469E+03  0.30929181290E+02  0.31586599860E+03  0.17300000000E+03 0. -1.
<mgrwt>
<rscale>  2 0.31434808E+03</rscale>
<asrwt>0</asrwt>
<pdfrwt beam="1">  1       21 0.28498241E+00 0.31434808E+03</pdfrwt>
<pdfrwt beam="2">  1       21 0.24181823E-01 0.31434808E+03</pdfrwt>
<totfact> 0.59081077E+02</totfact>
</mgrwt>
</event>
<event>
 4    1  0.4050555E+000  0.1993774E+03  0.7546771E-02  0.1150265E+00
         21   -1    0    0  503  502  0.00000000000E+00  0.00000000000E+00  0.13034889902E+03  0.13034889902E+03  0.00000000000E+00 0.  1.
         21   -1    0    0  501  503 -0.00000000000E+00 -0.00000000000E+00 -0.52485690460E+03  0.52485690460E+03  0.00000000000E+00 0.  1.
          6    1    1    2  501    0 -0.54624131843E+02 -0.82695651715E+02 -0.40930268622E+03  0.45528019454E+03  0.17300000000E+03 0.  1.
         -6    1    1    2    0  502  0.54624131843E+02  0.82695651715E+02  0.14794680647E+02  0.19992560908E+03  0.17300000000E+03 0.  1.
<mgrwt>
<rscale>  2 0.19937745E+03</rscale>
<asrwt>0</asrwt>
<pdfrwt beam="1">  1       21 0.20053677E-01 0.19937745E+03</pdfrwt>
<pdfrwt beam="2">  1       21 0.80747215E-01 0.19937745E+03</pdfrwt>
<totfact> 0.30815516E+04</totfact>
</mgrwt>
</event>
<event>
 4    1  0.4050555E+000  0.2665146E+03  0.7546771E-02  0.1103291E+00
         21   -1    0    0  501  502  0.00000000000E+00  0.00000000000E+00  0.15968502039E+03  0.15968502039E+03  0.00000000000E+00 0.  1.
         21   -1    0    0  502  503 -0.00000000000E+00 -0.00000000000E+00 -0.73000286377E+03  0.73000286377E+03  0.00000000000E+00 0.  1.
          6    1    1    2  501    0 -0.76519468321E+02  0.18773869372E+03 -0.71158404104E+01  0.26660960473E+03  0.17300000000E+03 0.  1.
         -6    1    1    2    0  503  0.76519468321E+02 -0.18773869372E+03 -0.56320200297E+03  0.62307827943E+03  0.17300000000E+03 0.  1.
<mgrwt>
<rscale>  2 0.26651463E+03</rscale>
<asrwt>0</asrwt>
<pdfrwt beam="1">  1       21 0.24566926E-01 0.26651463E+03</pdfrwt>
<pdfrwt beam="2">  1       21 0.11230813E+00 0.26651463E+03</pdfrwt>
<totfact> 0.92820714E+03</totfact>
</mgrwt>
</event>
<event>
 4    1  0.4050555E+000  0.2059572E+03  0.7546771E-02  0.1144808E+00
         21   -1    0    0  501  502  0.00000000000E+00  0.00000000000E+00  0.48413693474E+03  0.48413693474E+03  0.00000000000E+00 0.  1.
         21   -1    0    0  502  503 -0.00000000000E+00 -0.00000000000E+00 -0.12831441832E+03  0.12831441832E+03  0.00000000000E+00 0. -1.
          6    1    1    2  501    0 -0.10254529911E+03 -0.44427782315E+02  0.35037196601E+03  0.40642204760E+03  0.17300000000E+03 0.  1.
         -6    1    1    2    0  503  0.10254529911E+03  0.44427782315E+02  0.54505504195E+01  0.20602930547E+03  0.17300000000E+03 0. -1.
<mgrwt>
<rscale>  2 0.20595720E+03</rscale>
<asrwt>0</asrwt>
<pdfrwt beam="1">  1       21 0.74482604E-01 0.20595720E+03</pdfrwt>
<pdfrwt beam="2">  1       21 0.19740680E-01 0.20595720E+03</pdfrwt>
<totfact> 0.37923422E+04</totfact>
</mgrwt>
</event>
<event>
 4    1  0.4050555E+000  0.3687504E+03  0.7546771E-02  0.1055172E+00
         21   -1    0    0  503  502  0.00000000000E+00  0.00000000000E+00  0.63160642603E+02  0.63160642603E+02  0.00000000000E+00 0. -1.
         21   -1    0    0  501  503 -0.00000000000E+00 -0.00000000000E+00 -0.23559146676E+04  0.23559146676E+04  0.00000000000E+00 0.  1.
          6    1    1    2  501    0  0.75278519369E+02 -0.31682964916E+03 -0.15014613568E+04  0.15460799100E+04  0.17300000000E+03 0.  1.
         -6    1    1    2    0  502 -0.75278519369E+02  0.31682964916E+03 -0.79129266815E+03  0.87299540018E+03  0.17300000000E+03 0. -1.
<mgrwt>
<rscale>  2 0.36875043E+03</rscale>
<asrwt>0</asrwt>
<pdfrwt beam="1">  1       21 0.97170211E-02 0.36875043E+03</pdfrwt>
<pdfrwt beam="2">  1       21 0.36244844E+00 0.36875043E+03</pdfrwt>
<totfact> 0.10517105E+03</totfact>
</mgrwt>
</event>
<event>
 4    1  0.4050555E+000  0.1799116E+03  0.7546771E-02  0.1167889E+00
         21   -1    0    0  503  502  0.00000000000E+00  0.00000000000E+00  0.45739278436E+03  0.45739278436E+03  0.00000000000E+00 0. -1.
         21   -1    0    0  501  503 -0.00000000000E+00 -0.00000000000E+00 -0.11684985290E+03  0.11684985290E+03  0.00000000000E+00 0. -1.
          6    1    1    2  501    0 -0.44215178214E+02  0.22004451155E+02 -0.10039628231E+02  0.18019148701E+03  0.17300000000E+03 0. -1.
         -6    1    1    2    0  502  0.44215178214E+02 -0.22004451155E+02  0.35058255969E+03  0.39405115025E+03  0.17300000000E+03 0. -1.
<mgrwt>
<rscale>  2 0.17991158E+03</rscale>
<asrwt>0</asrwt>
<pdfrwt beam="1">  1       21 0.70368120E-01 0.17991158E+03</pdfrwt>
<pdfrwt beam="2">  1       21 0.17976901E-01 0.17991158E+03</pdfrwt>
<totfact> 0.51857801E+04</totfact>
</mgrwt>
</event>
<event>
 4    1  0.4050555E+000  0.2482274E+03  0.7546771E-02  0.1114430E+00
         21   -1    0    0  503  502  0.00000000000E+00  0.00000000000E+00  0.73114683856E+03  0.73114683856E+03  0.00000000000E+00 0. -1.
         21   -1    0    0  501  503 -0.00000000000E+00 -0.00000000000E+00 -0.16923605873E+03  0.16923605873E+03  0.00000000000E+00 0.  1.
          6    1    1    2  501    0  0.14397147574E+02  0.17742765610E+03 -0.38024031748E+02  0.25112283448E+03  0.17300000000E+03 0.  1.
         -6    1    1    2    0  502 -0.14397147574E+02 -0.17742765610E+03  0.59993481159E+03  0.64926006281E+03  0.17300000000E+03 0. -1.
<mgrwt>
<rscale>  2 0.24822742E+03</rscale>
<asrwt>0</asrwt>
<pdfrwt beam="1">  1       21 0.11248413E+00 0.24822742E+03</pdfrwt>
<pdfrwt beam="2">  1       21 0.26036317E-01 0.24822742E+03</pdfrwt>
<totfact> 0.83541896E+03</totfact>
</mgrwt>
</event>
<event>
 4    1  0.4050555E+000  0.1914035E+03  0.7546771E-02  0.1157202E+00
         21   -1    0    0  501  502  0.00000000000E+00  0.00000000000E+00  0.42767235701E+02  0.42767235701E+02  0.00000000000E+00 0. -1.
         21   -1    0    0  502  503 -0.00000000000E+00 -0.00000000000E+00 -0.10924894260E+04  0.10924894260E+04  0.00000000000E+00 0. -1.
          6    1    1    2  501    0 -0.75518902592E+02 -0.31673372182E+02 -0.26111231746E+03  0.32375136985E+03  0.17300000000E+03 0. -1.
         -6    1    1    2    0  503  0.75518902592E+02  0.31673372182E+02 -0.78860987288E+03  0.81150529189E+03  0.17300000000E+03 0. -1.
<mgrwt>
<rscale>  2 0.19140352E+03</rscale>
<asrwt>0</asrwt>
<pdfrwt beam="1">  1       21 0.65795761E-02 0.19140352E+03</pdfrwt>
<pdfrwt beam="2">  1       21 0.16807526E+00 0.19140352E+03</pdfrwt>
<totfact> 0.37085449E+04</totfact>
</mgrwt>
</event>
<event>
 4    1  0.4050555E+000  0.2247592E+03  0.7546771E-02  0.1130384E+00
         21   -1    0    0  503  502  0.00000000000E+00  0.00000000000E+00  0.69269603850E+02  0.69269603850E+02  0.00000000000E+00 0.  1.
         21   -1    0    0  501  503 -0.00000000000E+00 -0.00000000000E+00 -0.80754981635E+03  0.80754981635E+03  0.00000000000E+00 0. -1.
          6    1    1    2  501    0  0.14180969483E+03  0.21857033448E+02 -0.50563027197E+03  0.55333415888E+03  0.17300000000E+03 0.  1.
         -6    1    1    2    0  502 -0.14180969483E+03 -0.21857033448E+02 -0.23264994054E+03  0.32348526132E+03  0.17300000000E+03 0. -1.
<mgrwt>
<rscale>  2 0.22475925E+03</rscale>
<asrwt>0</asrwt>
<pdfrwt beam="1">  1       21 0.10656862E-01 0.22475925E+03</pdfrwt>
<pdfrwt beam="2">  1       21 0.12423843E+00 0.22475925E+03</pdfrwt>
<totfact> 0.34495888E+04</totfact>
</mgrwt>
</event>
<event>
 4    1  0.4050555E+000  0.3974533E+03  0.7546771E-02  0.1044665E+00
         21   -1    0    0  501  502  0.00000000000E+00  0.00000000000E+00  0.77737680059E+03  0.77737680059E+03  0.00000000000E+00 0.  1.
         21   -1    0    0  502  503 -0.00000000000E+00 -0.00000000000E+00 -0.30346499251E+03  0.30346499251E+03  0.00000000000E+00 0. -1.
          6    1    1    2  501    0 -0.34366284276E+03 -0.99679517103E+02  0.54758007879E+03  0.67661887227E+03  0.17300000000E+03 0.  1.
         -6    1    1    2    0  503  0.34366284276E+03  0.99679517103E+02 -0.73668270705E+02  0.40422292084E+03  0.17300000000E+03 0. -1.
<mgrwt>
<rscale>  2 0.39745334E+03</rscale>
<asrwt>0</asrwt>
<pdfrwt beam="1">  1       21 0.11959643E+00 0.39745334E+03</pdfrwt>
<pdfrwt beam="2">  1       21 0.46686922E-01 0.39745334E+03</pdfrwt>
<totfact> 0.20571786E+03</totfact>
</mgrwt>
</event>
<event>
 4    1  0.4050555E+000  0.2167374E+03  0.7546771E-02  0.1136339E+00
         21   -1    0    0  503  502  0.00000000000E+00  0.00000000000E+00  0.90148688845E+02  0.90148688845E+02  0.00000000000E+00 0. -1.
         21   -1    0    0  501  503 -0.00000000000E+00 -0.00000000000E+00 -0.62817508792E+03  0.62817508792E+03  0.00000000000E+00 0.  1.
          6    1    1    2  501    0  0.11304236653E+03  0.65326404629E+02 -0.41730762939E+03  0.47023480658E+03  0.17300000000E+03 0.  1.
         -6    1    1    2    0  502 -0.11304236653E+03 -0.65326404629E+02 -0.12071876969E+03  0.24808897019E+03  0.17300000000E+03 0. -1.
<mgrwt>
<rscale>  2 0.21673744E+03</rscale>
<asrwt>0</asrwt>
<pdfrwt beam="1">  1       21 0.13869030E-01 0.21673744E+03</pdfrwt>
<pdfrwt beam="2">  1       21 0.96642318E-01 0.21673744E+03</pdfrwt>
<totfact> 0.39739276E+04</totfact>
</mgrwt>
</event>
<event>
 4    1  0.4050555E+000  0.1819028E+03  0.7546771E-02  0.1165974E+00
         21   -1    0    0  503  502  0.00000000000E+00  0.00000000000E+00  0.79054250530E+02  0.79054250530E+02  0.00000000000E+00 0.  1.
         21   -1    0    0  501  503 -0.00000000000E+00 -0.00000000000E+00 -0.51937129545E+03  0.51937129545E+03  0.00000000000E+00 0.  1.
          6    1    1    2  501    0  0.55434236215E+02  0.93105890128E+01 -0.35198543435E+03  0.39621002966E+03  0.17300000000E+03 0.  1.
         -6    1    1    2    0  502 -0.55434236215E+02 -0.93105890128E+01 -0.88331610571E+02  0.20221551632E+03  0.17300000000E+03 0.  1.
<mgrwt>
<rscale>  2 0.18190284E+03</rscale>
<asrwt>0</asrwt>
<pdfrwt beam="1">  1       21 0.12162192E-01 0.18190284E+03</pdfrwt>
<pdfrwt beam="2">  1       21 0.79903278E-01 0.18190284E+03</pdfrwt>
<totfact> 0.79367669E+04</totfact>
</mgrwt>
</event>
<event>
 4    1  0.4050555E+000  0.2159280E+03  0.7546771E-02  0.1136956E+00
         21   -1    0    0  503  502  0.00000000000E+00  0.00000000000E+00  0.38642587804E+03  0.38642587804E+03  0.00000000000E+00 0. -1.
         21   -1    0    0  501  503 -0.00000000000E+00 -0.00000000000E+00 -0.12131950710E+03  0.12131950710E+03  0.00000000000E+00 0. -1.
          6    1    1    2  501    0 -0.12654669712E+03 -0.26111792639E+02  0.11378914248E+03  0.24407552359E+03  0.17300000000E+03 0. -1.
         -6    1    1    2    0  502  0.12654669712E+03  0.26111792639E+02  0.15131722845E+03  0.26366986156E+03  0.17300000000E+03 0. -1.
<mgrwt>
<rscale>  2 0.21592798E+03</rscale>
<asrwt>0</asrwt>
<pdfrwt beam="1">  1       21 0.59450134E-01 0.21592798E+03</pdfrwt>
<pdfrwt beam="2">  1       21 0.18664540E-01 0.21592798E+03</pdfrwt>
<totfact> 0.68669914E+04</totfact>
</mgrwt>
</event>
<event>
 4    1  0.4050555E+000  0.2382627E+03  0.7546771E-02  0.1120956E+00
         21   -1    0    0  503  502  0.00000000000E+00  0.00000000000E+00  0.23644951017E+03  0.23644951017E+03  0.00000000000E+00 0. -1.
         21   -1    0    0  501  503 -0.00000000000E+00 -0.00000000000E+00 -0.24010389184E+03  0.24010389184E+03  0.00000000000E+00 0.  1.
          6    1    1    2  501    0 -0.16374995133E+03 -0.51061028018E+01 -0.26453273196E-02  0.23826270974E+03  0.17300000000E+03 0. -1.
         -6    1    1    2    0  502  0.16374995133E+03  0.51061028018E+01 -0.36517363422E+01  0.23829069227E+03  0.17300000000E+03 0.  1.
<mgrwt>
<rscale>  2 0.23826271E+03</rscale>
<asrwt>0</asrwt>
<pdfrwt beam="1">  1       21 0.36376848E-01 0.23826271E+03</pdfrwt>
<pdfrwt beam="2">  1       21 0.36939060E-01 0.23826271E+03</pdfrwt>
<totfact> 0.50456295E+04</totfact>
</mgrwt>
</event>
<event>
 4    1  0.4050555E+000  0.1857461E+03  0.7546771E-02  0.1162355E+00
         21   -1    0    0  501  502  0.00000000000E+00  0.00000000000E+00  0.41447410675E+03  0.41447410675E+03  0.00000000000E+00 0.  1.
         21   -1    0    0  502  503 -0.00000000000E+00 -0.00000000000E+00 -0.11424766986E+03  0.11424766986E+03  0.00000000000E+00 0.  1.
          6    1    1    2  501    0 -0.60019668971E+02 -0.31148746174E+02  0.28783255010E+03  0.34256266864E+03  0.17300000000E+03 0.  1.
         -6    1    1    2    0  503  0.60019668971E+02  0.31148746174E+02  0.12393886793E+02  0.18615910797E+03  0.17300000000E+03 0.  1.
<mgrwt>
<rscale>  2 0.18574608E+03</rscale>
<asrwt>0</asrwt>
<pdfrwt beam="1">  1       21 0.63765246E-01 0.18574608E+03</pdfrwt>
<pdfrwt beam="2">  1       21 0.17576565E-01 0.18574608E+03</pdfrwt>
<totfact> 0.66862671E+04</totfact>
</mgrwt>
</event>
<event>
 4    1  0.4050555E+000  0.1781399E+03  0.7546771E-02  0.1169615E+00
         21   -1    0    0  501  502  0.00000000000E+00  0.00000000000E+00  0.10955847632E+03  0.10955847632E+03  0.00000000000E+00 0.  1.
         21   -1    0    0  502  503 -0.00000000000E+00 -0.00000000000E+00 -0.53002188035E+03  0.53002188035E+03  0.00000000000E+00 0.  1.
          6    1    1    2  501    0 -0.42283102624E+02 -0.41190796704E+01  0.51249446676E+01  0.17821361520E+03  0.17300000000E+03 0.  1.
         -6    1    1    2    0  503  0.42283102624E+02  0.41190796704E+01 -0.42558834870E+03  0.46136674147E+03  0.17300000000E+03 0.  1.
<mgrwt>
<rscale>  2 0.17813991E+03</rscale>
<asrwt>0</asrwt>
<pdfrwt beam="1">  1       21 0.16855150E-01 0.17813991E+03</pdfrwt>
<pdfrwt beam="2">  1       21 0.81541828E-01 0.17813991E+03</pdfrwt>
<totfact> 0.42053446E+04</totfact>
</mgrwt>
</event>
<event>
 4    1  0.4050555E+000  0.1755755E+03  0.7546771E-02  0.1172155E+00
         21   -1    0    0  503  502  0.00000000000E+00  0.00000000000E+00  0.18115460325E+03  0.18115460325E+03  0.00000000000E+00 0.  1.
         21   -1    0    0  501  503 -0.00000000000E+00 -0.00000000000E+00 -0.21738875677E+03  0.21738875677E+03  0.00000000000E+00 0.  1.
          6    1    1    2  501    0 -0.17866715378E+02  0.24053005546E+02 -0.11099066887E+03  0.20771541871E+03  0.17300000000E+03 0.  1.
         -6    1    1    2    0  502  0.17866715378E+02 -0.24053005546E+02  0.74756515355E+02  0.19082794130E+03  0.17300000000E+03 0.  1.
<mgrwt>
<rscale>  2 0.17557553E+03</rscale>
<asrwt>0</asrwt>
<pdfrwt beam="1">  1       21 0.27869939E-01 0.17557553E+03</pdfrwt>
<pdfrwt beam="2">  1       21 0.33444424E-01 0.17557553E+03</pdfrwt>
<totfact> 0.10652428E+05</totfact>
</mgrwt>
</event>
<event>
 4    1  0.4050555E+000  0.1969578E+03  0.7546771E-02  0.1152331E+00
         21   -1    0    0  501  502  0.00000000000E+00  0.00000000000E+00  0.77616750549E+03  0.77616750549E+03  0.00000000000E+00 0.  1.
         21   -1    0    0  502  503 -0.00000000000E+00 -0.00000000000E+00 -0.90687191104E+02  0.90687191104E+02  0.00000000000E+00 0.  1.
          6    1    1    2  501    0 -0.84630387924E+02  0.41244212575E+02  0.63313044994E+03  0.66305848480E+03  0.17300000000E+03 0.  1.
         -6    1    1    2    0  503  0.84630387924E+02 -0.41244212575E+02  0.52349864444E+02  0.20379621179E+03  0.17300000000E+03 0.  1.
<mgrwt>
<rscale>  2 0.19695783E+03</rscale>
<asrwt>0</asrwt>
<pdfrwt beam="1">  1       21 0.11941038E+00 0.19695783E+03</pdfrwt>
<pdfrwt beam="2">  1       21 0.13951876E-01 0.19695783E+03</pdfrwt>
<totfact> 0.23855317E+04</totfact>
</mgrwt>
</event>
<event>
 4    1  0.4050555E+000  0.1764013E+03  0.7546771E-02  0.1171332E+00
         21   -1    0    0  503  502  0.00000000000E+00  0.00000000000E+00  0.10044011744E+04  0.10044011744E+04  0.00000000000E+00 0.  1.
         21   -1    0    0  501  503 -0.00000000000E+00 -0.00000000000E+00 -0.32417276886E+02  0.32417276886E+02  0.00000000000E+00 0.  1.
          6    1    1    2  501    0 -0.34351797703E+02  0.28908889669E+01  0.37687406201E+03  0.41611472199E+03  0.17300000000E+03 0. -1.
         -6    1    1    2    0  502  0.34351797703E+02 -0.28908889669E+01  0.59510983554E+03  0.62070372932E+03  0.17300000000E+03 0. -1.
<mgrwt>
<rscale>  2 0.17640126E+03</rscale>
<asrwt>0</asrwt>
<pdfrwt beam="1">  1       21 0.15452323E+00 0.17640126E+03</pdfrwt>
<pdfrwt beam="2">  1       21 0.49872741E-02 0.17640126E+03</pdfrwt>
<totfact> 0.75288167E+04</totfact>
</mgrwt>
</event>
<event>
 4    1  0.4050555E+000  0.1821249E+03  0.7546771E-02  0.1165762E+00
         21   -1    0    0  503  502  0.00000000000E+00  0.00000000000E+00  0.17767991692E+03  0.17767991692E+03  0.00000000000E+00 0.  1.
         21   -1    0    0  501  503 -0.00000000000E+00 -0.00000000000E+00 -0.21315755659E+03  0.21315755659E+03  0.00000000000E+00 0.  1.
          6    1    1    2  501    0 -0.47698148737E+02  0.31070558376E+02 -0.86611228886E+02  0.20167051832E+03  0.17300000000E+03 0.  1.
         -6    1    1    2    0  502  0.47698148737E+02 -0.31070558376E+02  0.51133589212E+02  0.18916695519E+03  0.17300000000E+03 0.  1.
<mgrwt>
<rscale>  2 0.18212494E+03</rscale>
<asrwt>0</asrwt>
<pdfrwt beam="1">  1       21 0.27335372E-01 0.18212494E+03</pdfrwt>
<pdfrwt beam="2">  1       21 0.32793470E-01 0.18212494E+03</pdfrwt>
<totfact> 0.11465733E+05</totfact>
</mgrwt>
</event>
<event>
 4    1  0.4050555E+000  0.3735393E+03  0.7546771E-02  0.1053348E+00
         21   -1    0    0  501  502  0.00000000000E+00  0.00000000000E+00  0.11353732883E+04  0.11353732883E+04  0.00000000000E+00 0.  1.
         21   -1    0    0  502  503 -0.00000000000E+00 -0.00000000000E+00 -0.13604385109E+03  0.13604385109E+03  0.00000000000E+00 0. -1.
          6    1    1    2  501    0 -0.32129804292E+03  0.79813353104E+02  0.69729974455E+03  0.79104901079E+03  0.17300000000E+03 0.  1.
         -6    1    1    2    0  503  0.32129804292E+03 -0.79813353104E+02  0.30202969264E+03  0.48036812858E+03  0.17300000000E+03 0. -1.
<mgrwt>
<rscale>  2 0.37353929E+03</rscale>
<asrwt>0</asrwt>
<pdfrwt beam="1">  1       21 0.17467281E+00 0.37353929E+03</pdfrwt>
<pdfrwt beam="2">  1       21 0.20929824E-01 0.37353929E+03</pdfrwt>
<totfact> 0.37316944E+03</totfact>
</mgrwt>
</event>
<event>
 4    1  0.4050555E+000  0.1778957E+03  0.7546771E-02  0.1169855E+00
         21   -1    0    0  501  502  0.00000000000E+00  0.00000000000E+00  0.56013567836E+02  0.56013567836E+02  0.00000000000E+00 0.  1.
         21   -1    0    0  502  503 -0.00000000000E+00 -0.00000000000E+00 -0.59361969040E+03  0.59361969040E+03  0.00000000000E+00 0.  1.
          6    1    1    2  501    0  0.93039388095E+01 -0.40389380802E+02 -0.19746439719E+03  0.26578008488E+03  0.17300000000E+03 0.  1.
         -6    1    1    2    0  503 -0.93039388095E+01  0.40389380802E+02 -0.34014172537E+03  0.38385317336E+03  0.17300000000E+03 0.  1.
<mgrwt>
<rscale>  2 0.17789566E+03</rscale>
<asrwt>0</asrwt>
<pdfrwt beam="1">  1       21 0.86174717E-02 0.17789566E+03</pdfrwt>
<pdfrwt beam="2">  1       21 0.91326109E-01 0.17789566E+03</pdfrwt>
<totfact> 0.10766913E+05</totfact>
</mgrwt>
</event>
<event>
 4    1  0.4050555E+000  0.2321219E+03  0.7546771E-02  0.1125155E+00
         21   -1    0    0  503  502  0.00000000000E+00  0.00000000000E+00  0.62503978539E+02  0.62503978539E+02  0.00000000000E+00 0. -1.
         21   -1    0    0  501  503 -0.00000000000E+00 -0.00000000000E+00 -0.11263409378E+04  0.11263409378E+04  0.00000000000E+00 0. -1.
          6    1    1    2  501    0 -0.15086326751E+03 -0.34523145120E+02 -0.81986664408E+03  0.85209265172E+03  0.17300000000E+03 0. -1.
         -6    1    1    2    0  502  0.15086326751E+03  0.34523145120E+02 -0.24397031515E+03  0.33675226459E+03  0.17300000000E+03 0. -1.
<mgrwt>
<rscale>  2 0.23212189E+03</rscale>
<asrwt>0</asrwt>
<pdfrwt beam="1">  1       21 0.96159981E-02 0.23212189E+03</pdfrwt>
<pdfrwt beam="2">  1       21 0.17328320E+00 0.23212189E+03</pdfrwt>
<totfact> 0.17127424E+04</totfact>
</mgrwt>
</event>
<event>
 4    1  0.4050555E+000  0.1759161E+03  0.7546771E-02  0.1171815E+00
         21   -1    0    0  503  502  0.00000000000E+00  0.00000000000E+00  0.15172326278E+04  0.15172326278E+04  0.00000000000E+00 0.  1.
         21   -1    0    0  501  503 -0.00000000000E+00 -0.00000000000E+00 -0.21980295022E+02  0.21980295022E+02  0.00000000000E+00 0.  1.
          6    1    1    2  501    0  0.22306642908E+02  0.22801429343E+02  0.54105091967E+03  0.56893109352E+03  0.17300000000E+03 0.  1.
         -6    1    1    2    0  502 -0.22306642908E+02 -0.22801429343E+02  0.95420141313E+03  0.97028182932E+03  0.17300000000E+03 0.  1.
<mgrwt>
<rscale>  2 0.17591615E+03</rscale>
<asrwt>0</asrwt>
<pdfrwt beam="1">  1       21 0.23342032E+00 0.17591615E+03</pdfrwt>
<pdfrwt beam="2">  1       21 0.33815850E-02 0.17591615E+03</pdfrwt>
<totfact> 0.43820451E+04</totfact>
</mgrwt>
</event>
<event>
 4    1  0.4050555E+000  0.3681159E+03  0.7546771E-02  0.1055416E+00
         21   -1    0    0  501  502  0.00000000000E+00  0.00000000000E+00  0.12110639952E+04  0.12110639952E+04  0.00000000000E+00 0.  1.
         21   -1    0    0  502  503 -0.00000000000E+00 -0.00000000000E+00 -0.89683284112E+03  0.89683284112E+03  0.00000000000E+00 0. -1.
          6    1    1    2  501    0 -0.31766193339E+03  0.68346149921E+02  0.11431267950E+04  0.12009363720E+04  0.17300000000E+03 0.  1.
         -6    1    1    2    0  503  0.31766193339E+03 -0.68346149921E+02 -0.82889564097E+03  0.90696046427E+03  0.17300000000E+03 0. -1.
<mgrwt>
<rscale>  2 0.36811588E+03</rscale>
<asrwt>0</asrwt>
<pdfrwt beam="1">  1       21 0.18631754E+00 0.36811588E+03</pdfrwt>
<pdfrwt beam="2">  1       21 0.13797428E+00 0.36811588E+03</pdfrwt>
<totfact> 0.50780615E+01</totfact>
</mgrwt>
</event>
<event>
 4    1  0.4050555E+000  0.1751271E+03  0.7546771E-02  0.1172604E+00
         21   -1    0    0  503  502  0.00000000000E+00  0.00000000000E+00  0.94544644454E+02  0.94544644454E+02  0.00000000000E+00 0. -1.
         21   -1    0    0  501  503 -0.00000000000E+00 -0.00000000000E+00 -0.48306380665E+03  0.48306380665E+03  0.00000000000E+00 0. -1.
          6    1    1    2  501    0  0.21654113420E+02  0.16480822641E+02 -0.35977989260E+03  0.40013883748E+03  0.17300000000E+03 0. -1.
         -6    1    1    2    0  502 -0.21654113420E+02 -0.16480822641E+02 -0.28739269599E+02  0.17746961362E+03  0.17300000000E+03 0. -1.
<mgrwt>
<rscale>  2 0.17512715E+03</rscale>
<asrwt>0</asrwt>
<pdfrwt beam="1">  1       21 0.14545330E-01 0.17512715E+03</pdfrwt>
<pdfrwt beam="2">  1       21 0.74317509E-01 0.17512715E+03</pdfrwt>
<totfact> 0.67847206E+04</totfact>
</mgrwt>
</event>
<event>
 4    1  0.4050555E+000  0.1788403E+03  0.7546771E-02  0.1168930E+00
         21   -1    0    0  503  502  0.00000000000E+00  0.00000000000E+00  0.22643921232E+03  0.22643921232E+03  0.00000000000E+00 0.  1.
         21   -1    0    0  501  503 -0.00000000000E+00 -0.00000000000E+00 -0.14643662546E+03  0.14643662546E+03  0.00000000000E+00 0.  1.
          6    1    1    2  501    0 -0.26628184674E+02  0.36684914153E+02  0.49034521426E+01  0.17890748164E+03  0.17300000000E+03 0.  1.
         -6    1    1    2    0  502  0.26628184674E+02 -0.36684914153E+02  0.75099134713E+02  0.19396835613E+03  0.17300000000E+03 0.  1.
<mgrwt>
<rscale>  2 0.17884027E+03</rscale>
<asrwt>0</asrwt>
<pdfrwt beam="1">  1       21 0.34836802E-01 0.17884027E+03</pdfrwt>
<pdfrwt beam="2">  1       21 0.22528712E-01 0.17884027E+03</pdfrwt>
<totfact> 0.14725790E+05</totfact>
</mgrwt>
</event>
<event>
 4    1  0.4050555E+000  0.2465026E+03  0.7546771E-02  0.1115535E+00
         21   -1    0    0  501  502  0.00000000000E+00  0.00000000000E+00  0.47894500809E+03  0.47894500809E+03  0.00000000000E+00 0.  1.
         21   -1    0    0  502  503 -0.00000000000E+00 -0.00000000000E+00 -0.17552137421E+03  0.17552137421E+03  0.00000000000E+00 0. -1.
          6    1    1    2  501    0  0.15624213551E+03 -0.80143088929E+02  0.32399467781E+03  0.40710695261E+03  0.17300000000E+03 0.  1.
         -6    1    1    2    0  503 -0.15624213551E+03  0.80143088929E+02 -0.20571043931E+02  0.24735942970E+03  0.17300000000E+03 0. -1.
<mgrwt>
<rscale>  2 0.24650258E+03</rscale>
<asrwt>0</asrwt>
<pdfrwt beam="1">  1       21 0.73683847E-01 0.24650258E+03</pdfrwt>
<pdfrwt beam="2">  1       21 0.27003288E-01 0.24650258E+03</pdfrwt>
<totfact> 0.20980843E+04</totfact>
</mgrwt>
</event>
<event>
 4    1  0.4050555E+000  0.2192092E+03  0.7546771E-02  0.1134474E+00
         21   -1    0    0  501  502  0.00000000000E+00  0.00000000000E+00  0.25851471070E+03  0.25851471070E+03  0.00000000000E+00 0. -1.
         21   -1    0    0  502  503 -0.00000000000E+00 -0.00000000000E+00 -0.59753069990E+03  0.59753069990E+03  0.00000000000E+00 0. -1.
          6    1    1    2  501    0 -0.27778749409E+02 -0.13172705454E+03  0.18575600743E+03  0.28732902762E+03  0.17300000000E+03 0. -1.
         -6    1    1    2    0  503  0.27778749409E+02  0.13172705454E+03 -0.52477199663E+03  0.56871638298E+03  0.17300000000E+03 0. -1.
<mgrwt>
<rscale>  2 0.21920921E+03</rscale>
<asrwt>0</asrwt>
<pdfrwt beam="1">  1       21 0.39771494E-01 0.21920921E+03</pdfrwt>
<pdfrwt beam="2">  1       21 0.91927799E-01 0.21920921E+03</pdfrwt>
<totfact> 0.59762686E+03</totfact>
</mgrwt>
</event>
<event>
 4    1  0.4050555E+000  0.2299029E+03  0.7546771E-02  0.1126708E+00
         21   -1    0    0  501  502  0.00000000000E+00  0.00000000000E+00  0.33494349580E+03  0.33494349580E+03  0.00000000000E+00 0.  1.
         21   -1    0    0  502  503 -0.00000000000E+00 -0.00000000000E+00 -0.18029072353E+03  0.18029072353E+03  0.00000000000E+00 0.  1.
          6    1    1    2  501    0  0.72483476852E+02 -0.13293783468E+03  0.16830807990E+03  0.28492618705E+03  0.17300000000E+03 0.  1.
         -6    1    1    2    0  503 -0.72483476852E+02  0.13293783468E+03 -0.13655307623E+02  0.23030803228E+03  0.17300000000E+03 0.  1.
<mgrwt>
<rscale>  2 0.22990285E+03</rscale>
<asrwt>0</asrwt>
<pdfrwt beam="1">  1       21 0.51529768E-01 0.22990285E+03</pdfrwt>
<pdfrwt beam="2">  1       21 0.27737035E-01 0.22990285E+03</pdfrwt>
<totfact> 0.43605395E+04</totfact>
</mgrwt>
</event>
<event>
 4    1  0.4050555E+000  0.2206189E+03  0.7546771E-02  0.1133422E+00
         21   -1    0    0  503  502  0.00000000000E+00  0.00000000000E+00  0.37665002841E+03  0.37665002841E+03  0.00000000000E+00 0.  1.
         21   -1    0    0  501  503 -0.00000000000E+00 -0.00000000000E+00 -0.23282323437E+03  0.23282323437E+03  0.00000000000E+00 0.  1.
          6    1    1    2  501    0 -0.91139350433E+02 -0.10216315021E+03 -0.13136310392E+03  0.25676634423E+03  0.17300000000E+03 0.  1.
         -6    1    1    2    0  502  0.91139350433E+02  0.10216315021E+03  0.27518989795E+03  0.35270691855E+03  0.17300000000E+03 0.  1.
<mgrwt>
<rscale>  2 0.22061888E+03</rscale>
<asrwt>0</asrwt>
<pdfrwt beam="1">  1       21 0.57946158E-01 0.22061888E+03</pdfrwt>
<pdfrwt beam="2">  1       21 0.35818959E-01 0.22061888E+03</pdfrwt>
<totfact> 0.20645889E+04</totfact>
</mgrwt>
</event>
<event>
 4    1  0.4050555E+000  0.2008562E+03  0.7546771E-02  0.1149019E+00
         21   -1    0    0  501  502  0.00000000000E+00  0.00000000000E+00  0.45818174541E+03  0.45818174541E+03  0.00000000000E+00 0. -1.
         21   -1    0    0  502  503 -0.00000000000E+00 -0.00000000000E+00 -0.10024902998E+03  0.10024902998E+03  0.00000000000E+00 0. -1.
          6    1    1    2  501    0 -0.10161848264E+03 -0.93758519754E+01  0.27636423211E+03  0.34164369071E+03  0.17300000000E+03 0. -1.
         -6    1    1    2    0  503  0.10161848264E+03  0.93758519754E+01  0.81568483326E+02  0.21678708469E+03  0.17300000000E+03 0. -1.
<mgrwt>
<rscale>  2 0.20085622E+03</rscale>
<asrwt>0</asrwt>
<pdfrwt beam="1">  1       21 0.70489498E-01 0.20085622E+03</pdfrwt>
<pdfrwt beam="2">  1       21 0.15422928E-01 0.20085622E+03</pdfrwt>
<totfact> 0.67783994E+04</totfact>
</mgrwt>
</event>
<event>
 4    1  0.4050555E+000  0.1835734E+03  0.7546771E-02  0.1164389E+00
         21   -1    0    0  503  502  0.00000000000E+00  0.00000000000E+00  0.25887250906E+03  0.25887250906E+03  0.00000000000E+00 0. -1.
         21   -1    0    0  501  503 -0.00000000000E+00 -0.00000000000E+00 -0.17229489690E+03  0.17229489690E+03  0.00000000000E+00 0. -1.
          6    1    1    2  501    0  0.13242756931E+02  0.59956710388E+02 -0.63300695260E+02  0.19418072961E+03  0.17300000000E+03 0. -1.
         -6    1    1    2    0  502 -0.13242756931E+02 -0.59956710388E+02  0.14987830742E+03  0.23698667635E+03  0.17300000000E+03 0. -1.
<mgrwt>
<rscale>  2 0.18357336E+03</rscale>
<asrwt>0</asrwt>
<pdfrwt beam="1">  1       21 0.39826540E-01 0.18357336E+03</pdfrwt>
<pdfrwt beam="2">  1       21 0.26506907E-01 0.18357336E+03</pdfrwt>
<totfact> 0.82581513E+04</totfact>
</mgrwt>
</event>
<event>
 4    1  0.4050555E+000  0.1741715E+03  0.7546771E-02  0.1173566E+00
         21   -1    0    0  501  502  0.00000000000E+00  0.00000000000E+00  0.25164950819E+03  0.25164950819E+03  0.00000000000E+00 0. -1.
         21   -1    0    0  502  503 -0.00000000000E+00 -0.00000000000E+00 -0.37709072037E+03  0.37709072037E+03  0.00000000000E+00 0. -1.
          6    1    1    2  501    0 -0.19088974128E+02 -0.65044871772E+01  0.19657709999E+03  0.26263711377E+03  0.17300000000E+03 0. -1.
         -6    1    1    2    0  503  0.19088974128E+02  0.65044871772E+01 -0.32201831217E+03  0.36610311479E+03  0.17300000000E+03 0. -1.
<mgrwt>
<rscale>  2 0.17417146E+03</rscale>
<asrwt>0</asrwt>
<pdfrwt beam="1">  1       21 0.38715309E-01 0.17417146E+03</pdfrwt>
<pdfrwt beam="2">  1       21 0.58013957E-01 0.17417146E+03</pdfrwt>
<totfact> 0.18121556E+04</totfact>
</mgrwt>
</event>
<event>
 4    1  0.4050555E+000  0.2147481E+03  0.7546771E-02  0.1137860E+00
         21   -1    0    0  501  502  0.00000000000E+00  0.00000000000E+00  0.27469380821E+02  0.27469380821E+02  0.00000000000E+00 0.  1.
         21   -1    0    0  502  503 -0.00000000000E+00 -0.00000000000E+00 -0.18787559112E+04  0.18787559112E+04  0.00000000000E+00 0.  1.
          6    1    1    2  501    0  0.10499753837E+03  0.71855931255E+02 -0.61473644006E+03  0.65116637555E+03  0.17300000000E+03 0.  1.
         -6    1    1    2    0  503 -0.10499753837E+03 -0.71855931255E+02 -0.12365500903E+04  0.12550589165E+04  0.17300000000E+03 0.  1.
<mgrwt>
<rscale>  2 0.21474813E+03</rscale>
<asrwt>0</asrwt>
<pdfrwt beam="1">  1       21 0.42260582E-02 0.21474813E+03</pdfrwt>
<pdfrwt beam="2">  1       21 0.28903939E+00 0.21474813E+03</pdfrwt>
<totfact> 0.13804130E+04</totfact>
</mgrwt>
</event>
<event>
 4    1  0.4050555E+000  0.2238183E+03  0.7546771E-02  0.1131068E+00
         21   -1    0    0  501  502  0.00000000000E+00  0.00000000000E+00  0.21524444140E+03  0.21524444140E+03  0.00000000000E+00 0.  1.
         21   -1    0    0  502  503 -0.00000000000E+00 -0.00000000000E+00 -0.23398567810E+03  0.23398567810E+03  0.00000000000E+00 0.  1.
          6    1    1    2  501    0 -0.13774443306E+03  0.34527074323E+02  0.70591926560E+01  0.22392963158E+03  0.17300000000E+03 0.  1.
         -6    1    1    2    0  503  0.13774443306E+03 -0.34527074323E+02 -0.25800429361E+02  0.22530048792E+03  0.17300000000E+03 0.  1.
<mgrwt>
<rscale>  2 0.22381834E+03</rscale>
<asrwt>0</asrwt>
<pdfrwt beam="1">  1       21 0.33114529E-01 0.22381834E+03</pdfrwt>
<pdfrwt beam="2">  1       21 0.35997797E-01 0.22381834E+03</pdfrwt>
<totfact> 0.64451648E+04</totfact>
</mgrwt>
</event>
<event>
 4    1  0.4050555E+000  0.1982028E+03  0.7546771E-02  0.1151264E+00
         21   -1    0    0  501  502  0.00000000000E+00  0.00000000000E+00  0.24138341588E+03  0.24138341588E+03  0.00000000000E+00 0.  1.
         21   -1    0    0  502  503 -0.00000000000E+00 -0.00000000000E+00 -0.16398628096E+03  0.16398628096E+03  0.00000000000E+00 0.  1.
          6    1    1    2  501    0 -0.38111465129E+02  0.88898102795E+02  0.56320497023E+02  0.20604939903E+03  0.17300000000E+03 0.  1.
         -6    1    1    2    0  503  0.38111465129E+02 -0.88898102795E+02  0.21076637901E+02  0.19932029781E+03  0.17300000000E+03 0.  1.
<mgrwt>
<rscale>  2 0.19820282E+03</rscale>
<asrwt>0</asrwt>
<pdfrwt beam="1">  1       21 0.37135910E-01 0.19820282E+03</pdfrwt>
<pdfrwt beam="2">  1       21 0.25228659E-01 0.19820282E+03</pdfrwt>
<totfact> 0.10387321E+05</totfact>
</mgrwt>
</event>
<event>
 4    1  0.4050555E+000  0.1746903E+03  0.7546771E-02  0.1173043E+00
         21   -1    0    0  501  502  0.00000000000E+00  0.00000000000E+00  0.87527717073E+03  0.87527717073E+03  0.00000000000E+00 0. -1.
         21   -1    0    0  502  503 -0.00000000000E+00 -0.00000000000E+00 -0.49362148111E+02  0.49362148111E+02  0.00000000000E+00 0. -1.
          6    1    1    2  501    0  0.69100795804E+00 -0.24232581544E+02  0.66350147182E+03  0.68611289057E+03  0.17300000000E+03 0. -1.
         -6    1    1    2    0  503 -0.69100795804E+00  0.24232581544E+02  0.16241355080E+03  0.23852642827E+03  0.17300000000E+03 0. -1.
<mgrwt>
<rscale>  2 0.17469028E+03</rscale>
<asrwt>0</asrwt>
<pdfrwt beam="1">  1       21 0.13465801E+00 0.17469028E+03</pdfrwt>
<pdfrwt beam="2">  1       21 0.75941773E-02 0.17469028E+03</pdfrwt>
<totfact> 0.52444575E+04</totfact>
</mgrwt>
</event>
<event>
 4    1  0.4050555E+000  0.1797728E+03  0.7546771E-02  0.1168023E+00
         21   -1    0    0  503  502  0.00000000000E+00  0.00000000000E+00  0.66465475888E+03  0.66465475888E+03  0.00000000000E+00 0.  1.
         21   -1    0    0  501  503 -0.00000000000E+00 -0.00000000000E+00 -0.49587984605E+02  0.49587984605E+02  0.00000000000E+00 0.  1.
          6    1    1    2  501    0 -0.34546467634E+02  0.34580584444E+02  0.35732176815E+03  0.39999640153E+03  0.17300000000E+03 0.  1.
         -6    1    1    2    0  502  0.34546467634E+02 -0.34580584444E+02  0.25774500613E+03  0.31424634195E+03  0.17300000000E+03 0.  1.
<mgrwt>
<rscale>  2 0.17977284E+03</rscale>
<asrwt>0</asrwt>
<pdfrwt beam="1">  1       21 0.10225457E+00 0.17977284E+03</pdfrwt>
<pdfrwt beam="2">  1       21 0.76289212E-02 0.17977284E+03</pdfrwt>
<totfact> 0.10199810E+05</totfact>
</mgrwt>
</event>
<event>
 4    1  0.4050555E+000  0.2067514E+03  0.7546771E-02  0.1144165E+00
         21   -1    0    0  503  502  0.00000000000E+00  0.00000000000E+00  0.27645418297E+03  0.27645418297E+03  0.00000000000E+00 0. -1.
         21   -1    0    0  501  503 -0.00000000000E+00 -0.00000000000E+00 -0.30879886497E+03  0.30879886497E+03  0.00000000000E+00 0. -1.
          6    1    1    2  501    0  0.10582768804E+03 -0.40220084029E+02 -0.22294072886E+03  0.30405381645E+03  0.17300000000E+03 0. -1.
         -6    1    1    2    0  502 -0.10582768804E+03  0.40220084029E+02  0.19059604686E+03  0.28119923149E+03  0.17300000000E+03 0. -1.
<mgrwt>
<rscale>  2 0.20675143E+03</rscale>
<asrwt>0</asrwt>
<pdfrwt beam="1">  1       21 0.42531413E-01 0.20675143E+03</pdfrwt>
<pdfrwt beam="2">  1       21 0.47507518E-01 0.20675143E+03</pdfrwt>
<totfact> 0.22351447E+04</totfact>
</mgrwt>
</event>
<event>
 4    1  0.4050555E+000  0.1844494E+03  0.7546771E-02  0.1163565E+00
         21   -1    0    0  501  502  0.00000000000E+00  0.00000000000E+00  0.11175981739E+04  0.11175981739E+04  0.00000000000E+00 0. -1.
         21   -1    0    0  502  503 -0.00000000000E+00 -0.00000000000E+00 -0.32923371345E+02  0.32923371345E+02  0.00000000000E+00 0.  1.
          6    1    1    2  501    0  0.32639082005E+02 -0.55020525494E+02  0.70027529531E+03  0.72415955226E+03  0.17300000000E+03 0. -1.
         -6    1    1    2    0  503 -0.32639082005E+02  0.55020525494E+02  0.38439950729E+03  0.42636199303E+03  0.17300000000E+03 0.  1.
<mgrwt>
<rscale>  2 0.18444936E+03</rscale>
<asrwt>0</asrwt>
<pdfrwt beam="1">  1       21 0.17193815E+00 0.18444936E+03</pdfrwt>
<pdfrwt beam="2">  1       21 0.50651349E-02 0.18444936E+03</pdfrwt>
<totfact> 0.54685384E+04</totfact>
</mgrwt>
</event>
<event>
 4    1  0.4050555E+000  0.2345827E+03  0.7546771E-02  0.1123455E+00
         21   -1    0    0  503  502  0.00000000000E+00  0.00000000000E+00  0.71999184695E+02  0.71999184695E+02  0.00000000000E+00 0.  1.
         21   -1    0    0  501  503 -0.00000000000E+00 -0.00000000000E+00 -0.10508471599E+04  0.10508471599E+04  0.00000000000E+00 0.  1.
          6    1    1    2  501    0  0.15521052015E+03  0.31776358708E+02 -0.78259290238E+03  0.81699491638E+03  0.17300000000E+03 0.  1.
         -6    1    1    2    0  502 -0.15521052015E+03 -0.31776358708E+02 -0.19625507286E+03  0.30585142825E+03  0.17300000000E+03 0.  1.
<mgrwt>
<rscale>  2 0.23458270E+03</rscale>
<asrwt>0</asrwt>
<pdfrwt beam="1">  1       21 0.11076798E-01 0.23458270E+03</pdfrwt>
<pdfrwt beam="2">  1       21 0.16166879E+00 0.23458270E+03</pdfrwt>
<totfact> 0.16105271E+04</totfact>
</mgrwt>
</event>
<event>
 4    1  0.4050555E+000  0.1837499E+03  0.7546771E-02  0.1164222E+00
         21   -1    0    0  503  502  0.00000000000E+00  0.00000000000E+00  0.45741187809E+03  0.45741187809E+03  0.00000000000E+00 0.  1.
         21   -1    0    0  501  503 -0.00000000000E+00 -0.00000000000E+00 -0.75172229566E+02  0.75172229566E+02  0.00000000000E+00 0.  1.
          6    1    1    2  501    0 -0.37540320635E+02  0.49251881334E+02  0.15534329730E+03  0.24061496941E+03  0.17300000000E+03 0.  1.
         -6    1    1    2    0  502  0.37540320635E+02 -0.49251881334E+02  0.22689635122E+03  0.29196913824E+03  0.17300000000E+03 0.  1.
<mgrwt>
<rscale>  2 0.18374989E+03</rscale>
<asrwt>0</asrwt>
<pdfrwt beam="1">  1       21 0.70371057E-01 0.18374989E+03</pdfrwt>
<pdfrwt beam="2">  1       21 0.11564959E-01 0.18374989E+03</pdfrwt>
<totfact> 0.11517865E+05</totfact>
</mgrwt>
</event>
<event>
 4    1  0.4050555E+000  0.2224365E+03  0.7546771E-02  0.1132079E+00
         21   -1    0    0  501  502  0.00000000000E+00  0.00000000000E+00  0.74832149929E+03  0.74832149929E+03  0.00000000000E+00 0.  1.
         21   -1    0    0  502  503 -0.00000000000E+00 -0.00000000000E+00 -0.14237900433E+03  0.14237900433E+03  0.00000000000E+00 0.  1.
          6    1    1    2  501    0 -0.10513123753E+03 -0.92176143008E+02  0.62890406690E+03  0.66708196184E+03  0.17300000000E+03 0.  1.
         -6    1    1    2    0  503  0.10513123753E+03  0.92176143008E+02 -0.22961571937E+02  0.22361854179E+03  0.17300000000E+03 0.  1.
<mgrwt>
<rscale>  2 0.22243655E+03</rscale>
<asrwt>0</asrwt>
<pdfrwt beam="1">  1       21 0.11512638E+00 0.22243655E+03</pdfrwt>
<pdfrwt beam="2">  1       21 0.21904463E-01 0.22243655E+03</pdfrwt>
<totfact> 0.11151924E+04</totfact>
</mgrwt>
</event>
<event>
 4    1  0.4050555E+000  0.2245441E+03  0.7546771E-02  0.1130540E+00
         21   -1    0    0  501  502  0.00000000000E+00  0.00000000000E+00  0.14392200477E+03  0.14392200477E+03  0.00000000000E+00 0.  1.
         21   -1    0    0  502  503 -0.00000000000E+00 -0.00000000000E+00 -0.35039751932E+03  0.35039751932E+03  0.00000000000E+00 0.  1.
          6    1    1    2  501    0 -0.33999569254E+02 -0.13905059859E+03 -0.10669615640E+03  0.24860432311E+03  0.17300000000E+03 0.  1.
         -6    1    1    2    0  503  0.33999569254E+02  0.13905059859E+03 -0.99779358148E+02  0.24571520098E+03  0.17300000000E+03 0.  1.
<mgrwt>
<rscale>  2 0.22454407E+03</rscale>
<asrwt>0</asrwt>
<pdfrwt beam="1">  1       21 0.22141847E-01 0.22454407E+03</pdfrwt>
<pdfrwt beam="2">  1       21 0.53907310E-01 0.22454407E+03</pdfrwt>
<totfact> 0.61180419E+04</totfact>
</mgrwt>
</event>
<event>
 4    1  0.4050555E+000  0.1801220E+03  0.7546771E-02  0.1167685E+00
         21   -1    0    0  501  502  0.00000000000E+00  0.00000000000E+00  0.20420629191E+02  0.20420629191E+02  0.00000000000E+00 0.  1.
         21   -1    0    0  502  503 -0.00000000000E+00 -0.00000000000E+00 -0.30464191220E+04  0.30464191220E+04  0.00000000000E+00 0.  1.
          6    1    1    2  501    0 -0.39174305547E+02  0.31309980319E+02 -0.45230337857E+03  0.48684934770E+03  0.17300000000E+03 0.  1.
         -6    1    1    2    0  503  0.39174305547E+02 -0.31309980319E+02 -0.25736951142E+04  0.25799904034E+04  0.17300000000E+03 0.  1.
<mgrwt>
<rscale>  2 0.18012202E+03</rscale>
<asrwt>0</asrwt>
<pdfrwt beam="1">  1       21 0.31416351E-02 0.18012202E+03</pdfrwt>
<pdfrwt beam="2">  1       21 0.46867990E+00 0.18012202E+03</pdfrwt>
<totfact> 0.18650391E+03</totfact>
</mgrwt>
</event>
<event>
 4    1  0.4050555E+000  0.3005933E+03  0.7546771E-02  0.1084944E+00
         21   -1    0    0  501  502  0.00000000000E+00  0.00000000000E+00  0.55215590523E+02  0.55215590523E+02  0.00000000000E+00 0.  1.
         21   -1    0    0  502  503 -0.00000000000E+00 -0.00000000000E+00 -0.21628174647E+04  0.21628174647E+04  0.00000000000E+00 0.  1.
          6    1    1    2  501    0 -0.62194029046E+02 -0.23782181385E+03 -0.50668184135E+03  0.58913733606E+03  0.17300000000E+03 0.  1.
         -6    1    1    2    0  503  0.62194029046E+02  0.23782181385E+03 -0.16009200328E+04  0.16288957192E+04  0.17300000000E+03 0.  1.
<mgrwt>
<rscale>  2 0.30059327E+03</rscale>
<asrwt>0</asrwt>
<pdfrwt beam="1">  1       21 0.84947069E-02 0.30059327E+03</pdfrwt>
<pdfrwt beam="2">  1       21 0.33274112E+00 0.30059327E+03</pdfrwt>
<totfact> 0.21298475E+03</totfact>
</mgrwt>
</event>
<event>
 4    1  0.4050555E+000  0.2229992E+03  0.7546771E-02  0.1131667E+00
         21   -1    0    0  503  502  0.00000000000E+00  0.00000000000E+00  0.46640520701E+03  0.46640520701E+03  0.00000000000E+00 0.  1.
         21   -1    0    0  501  503 -0.00000000000E+00 -0.00000000000E+00 -0.21855243915E+03  0.21855243915E+03  0.00000000000E+00 0.  1.
          6    1    1    2  501    0  0.11589772487E+03 -0.79795630214E+02 -0.12116711345E+03  0.25379143920E+03  0.17300000000E+03 0.  1.
         -6    1    1    2    0  502 -0.11589772487E+03  0.79795630214E+02  0.36901988130E+03  0.43116620696E+03  0.17300000000E+03 0.  1.
<mgrwt>
<rscale>  2 0.22299916E+03</rscale>
<asrwt>0</asrwt>
<pdfrwt beam="1">  1       21 0.71754647E-01 0.22299916E+03</pdfrwt>
<pdfrwt beam="2">  1       21 0.33623452E-01 0.22299916E+03</pdfrwt>
<totfact> 0.14668103E+04</totfact>
</mgrwt>
</event>
<event>
 4    1  0.4050555E+000  0.3214671E+03  0.7546771E-02  0.1074976E+00
         21   -1    0    0  501  502  0.00000000000E+00  0.00000000000E+00  0.36821603947E+03  0.36821603947E+03  0.00000000000E+00 0. -1.
         21   -1    0    0  502  503 -0.00000000000E+00 -0.00000000000E+00 -0.28082377305E+03  0.28082377305E+03  0.00000000000E+00 0.  1.
          6    1    1    2  501    0  0.14673727193E+03 -0.22777247664E+03  0.51686563180E+02  0.32559580603E+03  0.17300000000E+03 0.  1.
         -6    1    1    2    0  503 -0.14673727193E+03  0.22777247664E+03  0.35705703238E+02  0.32344400649E+03  0.17300000000E+03 0. -1.
<mgrwt>
<rscale>  2 0.32146715E+03</rscale>
<asrwt>0</asrwt>
<pdfrwt beam="1">  1       21 0.56648621E-01 0.32146715E+03</pdfrwt>
<pdfrwt beam="2">  1       21 0.43203657E-01 0.32146715E+03</pdfrwt>
<totfact> 0.14137297E+04</totfact>
</mgrwt>
</event>
<event>
 4    1  0.4050555E+000  0.1786039E+03  0.7546771E-02  0.1169161E+00
         21   -1    0    0  503  502  0.00000000000E+00  0.00000000000E+00  0.21893483726E+04  0.21893483726E+04  0.00000000000E+00 0. -1.
         21   -1    0    0  501  503 -0.00000000000E+00 -0.00000000000E+00 -0.15027632297E+02  0.15027632297E+02  0.00000000000E+00 0. -1.
          6    1    1    2  501    0  0.44386931236E+02  0.40513471085E+00  0.89487432785E+03  0.91252365802E+03  0.17300000000E+03 0. -1.
         -6    1    1    2    0  502 -0.44386931236E+02 -0.40513471085E+00  0.12794464125E+04  0.12918523469E+04  0.17300000000E+03 0. -1.
<mgrwt>
<rscale>  2 0.17860393E+03</rscale>
<asrwt>0</asrwt>
<pdfrwt beam="1">  1       21 0.33682257E+00 0.17860393E+03</pdfrwt>
<pdfrwt beam="2">  1       21 0.23119452E-02 0.17860393E+03</pdfrwt>
<totfact> 0.20624880E+04</totfact>
</mgrwt>
</event>
<event>
 4    1  0.4050555E+000  0.2055312E+03  0.7546771E-02  0.1145154E+00
         21   -1    0    0  503  502  0.00000000000E+00  0.00000000000E+00  0.97219934033E+02  0.97219934033E+02  0.00000000000E+00 0. -1.
         21   -1    0    0  501  503 -0.00000000000E+00 -0.00000000000E+00 -0.70834063153E+03  0.70834063153E+03  0.00000000000E+00 0. -1.
          6    1    1    2  501    0  0.11053131443E+03 -0.98443945971E+01 -0.55599114316E+03  0.59276406339E+03  0.17300000000E+03 0. -1.
         -6    1    1    2    0  502 -0.11053131443E+03  0.98443945971E+01 -0.55129554334E+02  0.21279650217E+03  0.17300000000E+03 0. -1.
<mgrwt>
<rscale>  2 0.20553122E+03</rscale>
<asrwt>0</asrwt>
<pdfrwt beam="1">  1       21 0.14956913E-01 0.20553122E+03</pdfrwt>
<pdfrwt beam="2">  1       21 0.10897548E+00 0.20553122E+03</pdfrwt>
<totfact> 0.26143063E+04</totfact>
</mgrwt>
</event>
<event>
 4    1  0.4050555E+000  0.2693792E+03  0.7546771E-02  0.1101635E+00
         21   -1    0    0  501  502  0.00000000000E+00  0.00000000000E+00  0.11695966054E+04  0.11695966054E+04  0.00000000000E+00 0.  1.
         21   -1    0    0  502  503 -0.00000000000E+00 -0.00000000000E+00 -0.62299198666E+02  0.62299198666E+02  0.00000000000E+00 0. -1.
          6    1    1    2  501    0 -0.10709866429E+03 -0.17653901745E+03  0.59315697093E+03  0.65146016052E+03  0.17300000000E+03 0.  1.
         -6    1    1    2    0  503  0.10709866429E+03  0.17653901745E+03  0.51414043579E+03  0.58043564353E+03  0.17300000000E+03 0. -1.
<mgrwt>
<rscale>  2 0.26937919E+03</rscale>
<asrwt>0</asrwt>
<pdfrwt beam="1">  1       21 0.17993792E+00 0.26937919E+03</pdfrwt>
<pdfrwt beam="2">  1       21 0.95844930E-02 0.26937919E+03</pdfrwt>
<totfact> 0.15148298E+04</totfact>
</mgrwt>
</event>
<event>
 4    1  0.4050555E+000  0.1735046E+03  0.7546771E-02  0.1174242E+00
         21   -1    0    0  503  502  0.00000000000E+00  0.00000000000E+00  0.50018296394E+03  0.50018296394E+03  0.00000000000E+00 0.  1.
         21   -1    0    0  501  503 -0.00000000000E+00 -0.00000000000E+00 -0.44282260714E+03  0.44282260714E+03  0.00000000000E+00 0.  1.
          6    1    1    2  501    0  0.93363274260E+01 -0.93640774031E+01 -0.40961108047E+03  0.44484277020E+03  0.17300000000E+03 0.  1.
         -6    1    1    2    0  502 -0.93363274260E+01  0.93640774031E+01  0.46697143727E+03  0.49816280088E+03  0.17300000000E+03 0.  1.
<mgrwt>
<rscale>  2 0.17350462E+03</rscale>
<asrwt>0</asrwt>
<pdfrwt beam="1">  1       21 0.76951225E-01 0.17350462E+03</pdfrwt>
<pdfrwt beam="2">  1       21 0.68126555E-01 0.17350462E+03</pdfrwt>
<totfact> 0.30026913E+03</totfact>
</mgrwt>
</event>
<event>
 4    1  0.4050555E+000  0.2194247E+03  0.7546771E-02  0.1134313E+00
         21   -1    0    0  501  502  0.00000000000E+00  0.00000000000E+00  0.78403799008E+03  0.78403799008E+03  0.00000000000E+00 0. -1.
         21   -1    0    0  502  503 -0.00000000000E+00 -0.00000000000E+00 -0.64378832907E+02  0.64378832907E+02  0.00000000000E+00 0. -1.
          6    1    1    2  501    0 -0.66545945989E+02  0.11743017812E+03  0.45093687264E+03  0.50148905548E+03  0.17300000000E+03 0. -1.
         -6    1    1    2    0  503  0.66545945989E+02 -0.11743017812E+03  0.26872228453E+03  0.34692776750E+03  0.17300000000E+03 0. -1.
<mgrwt>
<rscale>  2 0.21942472E+03</rscale>
<asrwt>0</asrwt>
<pdfrwt beam="1">  1       21 0.12062122E+00 0.21942472E+03</pdfrwt>
<pdfrwt beam="2">  1       21 0.99044364E-02 0.21942472E+03</pdfrwt>
<totfact> 0.42417979E+04</totfact>
</mgrwt>
</event>
<event>
 4    1  0.4050555E+000  0.2267878E+03  0.7546771E-02  0.1128921E+00
         21   -1    0    0  503  502  0.00000000000E+00  0.00000000000E+00  0.46315358825E+03  0.46315358825E+03  0.00000000000E+00 0.  1.
         21   -1    0    0  501  503 -0.00000000000E+00 -0.00000000000E+00 -0.11131041041E+03  0.11131041041E+03  0.00000000000E+00 0. -1.
          6    1    1    2  501    0 -0.14496469306E+03 -0.22112284007E+02  0.16200042160E+03  0.27870567260E+03  0.17300000000E+03 0. -1.
         -6    1    1    2    0  502  0.14496469306E+03  0.22112284007E+02  0.18984275625E+03  0.29575832607E+03  0.17300000000E+03 0. -1.
<mgrwt>
<rscale>  2 0.22678782E+03</rscale>
<asrwt>0</asrwt>
<pdfrwt beam="1">  1       21 0.71254397E-01 0.22678782E+03</pdfrwt>
<pdfrwt beam="2">  1       21 0.17124679E-01 0.22678782E+03</pdfrwt>
<totfact> 0.53974088E+04</totfact>
</mgrwt>
</event>
<event>
 4    1  0.4050555E+000  0.2523982E+03  0.7546771E-02  0.1111799E+00
         21   -1    0    0  503  502  0.00000000000E+00  0.00000000000E+00  0.11677637595E+04  0.11677637595E+04  0.00000000000E+00 0.  1.
         21   -1    0    0  501  503 -0.00000000000E+00 -0.00000000000E+00 -0.77775610493E+02  0.77775610493E+02  0.00000000000E+00 0.  1.
          6    1    1    2  501    0  0.16640828199E+03  0.78000861989E+02  0.20469356885E+03  0.32496816446E+03  0.17300000000E+03 0.  1.
         -6    1    1    2    0  502 -0.16640828199E+03 -0.78000861989E+02  0.88529458012E+03  0.92057120549E+03  0.17300000000E+03 0.  1.
<mgrwt>
<rscale>  2 0.25239820E+03</rscale>
<asrwt>0</asrwt>
<pdfrwt beam="1">  1       21 0.17965595E+00 0.25239820E+03</pdfrwt>
<pdfrwt beam="2">  1       21 0.11965479E-01 0.25239820E+03</pdfrwt>
<totfact> 0.10338748E+04</totfact>
</mgrwt>
</event>
<event>
 4    1  0.4050555E+000  0.2125657E+03  0.7546771E-02  0.1139550E+00
         21   -1    0    0  503  502  0.00000000000E+00  0.00000000000E+00  0.54350839274E+02  0.54350839274E+02  0.00000000000E+00 0. -1.
         21   -1    0    0  501  503 -0.00000000000E+00 -0.00000000000E+00 -0.84668649780E+03  0.84668649780E+03  0.00000000000E+00 0.  1.
          6    1    1    2  501    0 -0.67816843505E+02  0.10322807058E+03 -0.45681656092E+03  0.50385070125E+03  0.17300000000E+03 0.  1.
         -6    1    1    2    0  502  0.67816843505E+02 -0.10322807058E+03 -0.33551909761E+03  0.39718663583E+03  0.17300000000E+03 0. -1.
<mgrwt>
<rscale>  2 0.21256566E+03</rscale>
<asrwt>0</asrwt>
<pdfrwt beam="1">  1       21 0.83616669E-02 0.21256566E+03</pdfrwt>
<pdfrwt beam="2">  1       21 0.13025947E+00 0.21256566E+03</pdfrwt>
<totfact> 0.47270539E+04</totfact>
</mgrwt>
</event>
<event>
 4    1  0.4050555E+000  0.2534376E+03  0.7546771E-02  0.1111151E+00
         21   -1    0    0  501  502  0.00000000000E+00  0.00000000000E+00  0.19373192933E+03  0.19373192933E+03  0.00000000000E+00 0.  1.
         21   -1    0    0  502  503 -0.00000000000E+00 -0.00000000000E+00 -0.33168003745E+03  0.33168003745E+03  0.00000000000E+00 0.  1.
          6    1    1    2  501    0  0.99859844835E+01 -0.18493759962E+03 -0.74296730969E+02  0.26410346433E+03  0.17300000000E+03 0.  1.
         -6    1    1    2    0  503 -0.99859844835E+01  0.18493759962E+03 -0.63651377156E+02  0.26130850245E+03  0.17300000000E+03 0.  1.
<mgrwt>
<rscale>  2 0.25343764E+03</rscale>
<asrwt>0</asrwt>
<pdfrwt beam="1">  1       21 0.29804912E-01 0.25343764E+03</pdfrwt>
<pdfrwt beam="2">  1       21 0.51027698E-01 0.25343764E+03</pdfrwt>
<totfact> 0.38302091E+04</totfact>
</mgrwt>
</event>
<event>
 4    1  0.4050555E+000  0.2106988E+03  0.7546771E-02  0.1141014E+00
         21   -1    0    0  501  502  0.00000000000E+00  0.00000000000E+00  0.12687147146E+03  0.12687147146E+03  0.00000000000E+00 0.  1.
         21   -1    0    0  502  503 -0.00000000000E+00 -0.00000000000E+00 -0.13035284406E+04  0.13035284406E+04  0.00000000000E+00 0.  1.
          6    1    1    2  501    0 -0.10989078128E+03  0.48877501062E+02  0.23393136439E+02  0.21199347337E+03  0.17300000000E+03 0.  1.
         -6    1    1    2    0  503  0.10989078128E+03 -0.48877501062E+02 -0.12000501056E+04  0.12184064387E+04  0.17300000000E+03 0.  1.
<mgrwt>
<rscale>  2 0.21069882E+03</rscale>
<asrwt>0</asrwt>
<pdfrwt beam="1">  1       21 0.19518688E-01 0.21069882E+03</pdfrwt>
<pdfrwt beam="2">  1       21 0.20054284E+00 0.21069882E+03</pdfrwt>
<totfact> 0.31623918E+03</totfact>
</mgrwt>
</event>
<event>
 4    1  0.4050555E+000  0.1764738E+03  0.7546771E-02  0.1171260E+00
         21   -1    0    0  503  502  0.00000000000E+00  0.00000000000E+00  0.82758723628E+02  0.82758723628E+02  0.00000000000E+00 0. -1.
         21   -1    0    0  501  503 -0.00000000000E+00 -0.00000000000E+00 -0.37762803957E+03  0.37762803957E+03  0.00000000000E+00 0. -1.
          6    1    1    2  501    0  0.28803216542E+02 -0.19605609419E+02 -0.16102986149E+03  0.23890086123E+03  0.17300000000E+03 0.  1.
         -6    1    1    2    0  502 -0.28803216542E+02  0.19605609419E+02 -0.13383945445E+03  0.22148590197E+03  0.17300000000E+03 0.  1.
<mgrwt>
<rscale>  2 0.17647381E+03</rscale>
<asrwt>0</asrwt>
<pdfrwt beam="1">  1       21 0.12732111E-01 0.17647381E+03</pdfrwt>
<pdfrwt beam="2">  1       21 0.58096623E-01 0.17647381E+03</pdfrwt>
<totfact> 0.14730570E+05</totfact>
</mgrwt>
</event>
<event>
 4    1  0.4050555E+000  0.1762046E+03  0.7546771E-02  0.1171528E+00
         21   -1    0    0  503  502  0.00000000000E+00  0.00000000000E+00  0.69214217832E+03  0.69214217832E+03  0.00000000000E+00 0. -1.
         21   -1    0    0  501  503 -0.00000000000E+00 -0.00000000000E+00 -0.45677054418E+02  0.45677054418E+02  0.00000000000E+00 0. -1.
          6    1    1    2  501    0  0.19594537339E+02 -0.27112981494E+02  0.27383016048E+03  0.32562404157E+03  0.17300000000E+03 0. -1.
         -6    1    1    2    0  502 -0.19594537339E+02  0.27112981494E+02  0.37263496342E+03  0.41219519117E+03  0.17300000000E+03 0. -1.
<mgrwt>
<rscale>  2 0.17620460E+03</rscale>
<asrwt>0</asrwt>
<pdfrwt beam="1">  1       21 0.10648340E+00 0.17620460E+03</pdfrwt>
<pdfrwt beam="2">  1       21 0.70272396E-02 0.17620460E+03</pdfrwt>
<totfact> 0.10685992E+05</totfact>
</mgrwt>
</event>
<event>
 4    1  0.4050555E+000  0.1790458E+03  0.7546771E-02  0.1168730E+00
         21   -1    0    0  501  502  0.00000000000E+00  0.00000000000E+00  0.21499355617E+03  0.21499355617E+03  0.00000000000E+00 0.  1.
         21   -1    0    0  502  503 -0.00000000000E+00 -0.00000000000E+00 -0.32192393261E+03  0.32192393261E+03  0.00000000000E+00 0.  1.
          6    1    1    2  501    0 -0.29506627218E+02  0.35464894537E+02  0.14322920940E+03  0.22928586136E+03  0.17300000000E+03 0.  1.
         -6    1    1    2    0  503  0.29506627218E+02 -0.35464894537E+02 -0.25015958584E+03  0.30763162741E+03  0.17300000000E+03 0.  1.
<mgrwt>
<rscale>  2 0.17904580E+03</rscale>
<asrwt>0</asrwt>
<pdfrwt beam="1">  1       21 0.33075932E-01 0.17904580E+03</pdfrwt>
<pdfrwt beam="2">  1       21 0.49526759E-01 0.17904580E+03</pdfrwt>
<totfact> 0.34449398E+04</totfact>
</mgrwt>
</event>
<event>
 4    1  0.4050555E+000  0.3630968E+03  0.7546771E-02  0.1057364E+00
         21   -1    0    0  503  502  0.00000000000E+00  0.00000000000E+00  0.47005365717E+03  0.47005365717E+03  0.00000000000E+00 0. -1.
         21   -1    0    0  501  503 -0.00000000000E+00 -0.00000000000E+00 -0.78818437160E+03  0.78818437160E+03  0.00000000000E+00 0.  1.
          6    1    1    2  501    0 -0.29646687462E+03  0.11839615748E+03 -0.66398889881E+03  0.75678300430E+03  0.17300000000E+03 0.  1.
         -6    1    1    2    0  502  0.29646687462E+03 -0.11839615748E+03  0.34585818439E+03  0.50145502447E+03  0.17300000000E+03 0. -1.
<mgrwt>
<rscale>  2 0.36309676E+03</rscale>
<asrwt>0</asrwt>
<pdfrwt beam="1">  1       21 0.72315948E-01 0.36309676E+03</pdfrwt>
<pdfrwt beam="2">  1       21 0.12125913E+00 0.36309676E+03</pdfrwt>
<totfact> 0.78058488E+02</totfact>
</mgrwt>
</event>
<event>
 4    1  0.4050555E+000  0.1993573E+03  0.7546771E-02  0.1150282E+00
         21   -1    0    0  501  502  0.00000000000E+00  0.00000000000E+00  0.27275539984E+03  0.27275539984E+03  0.00000000000E+00 0. -1.
         21   -1    0    0  502  503 -0.00000000000E+00 -0.00000000000E+00 -0.18719631612E+03  0.18719631612E+03  0.00000000000E+00 0. -1.
          6    1    1    2  501    0 -0.98108787947E+02 -0.13747412003E+02  0.15104337996E+03  0.25011483010E+03  0.17300000000E+03 0.  1.
         -6    1    1    2    0  503  0.98108787947E+02  0.13747412003E+02 -0.65484296236E+02  0.20983688585E+03  0.17300000000E+03 0.  1.
<mgrwt>
<rscale>  2 0.19935728E+03</rscale>
<asrwt>0</asrwt>
<pdfrwt beam="1">  1       21 0.41962369E-01 0.19935728E+03</pdfrwt>
<pdfrwt beam="2">  1       21 0.28799433E-01 0.19935728E+03</pdfrwt>
<totfact> 0.62869451E+04</totfact>
</mgrwt>
</event>
<event>
 4    1  0.4050555E+000  0.1950136E+03  0.7546771E-02  0.1154016E+00
         21   -1    0    0  501  502  0.00000000000E+00  0.00000000000E+00  0.62364046340E+02  0.62364046340E+02  0.00000000000E+00 0. -1.
         21   -1    0    0  502  503 -0.00000000000E+00 -0.00000000000E+00 -0.14088901785E+04  0.14088901785E+04  0.00000000000E+00 0. -1.
          6    1    1    2  501    0 -0.89376307935E+02 -0.10637857357E+02 -0.11925762085E+03  0.22858842613E+03  0.17300000000E+03 0. -1.
         -6    1    1    2    0  503  0.89376307935E+02  0.10637857357E+02 -0.12272685113E+04  0.12426657987E+04  0.17300000000E+03 0. -1.
<mgrwt>
<rscale>  2 0.19501356E+03</rscale>
<asrwt>0</asrwt>
<pdfrwt beam="1">  1       21 0.95944693E-02 0.19501356E+03</pdfrwt>
<pdfrwt beam="2">  1       21 0.21675232E+00 0.19501356E+03</pdfrwt>
<totfact> 0.91761156E+03</totfact>
</mgrwt>
</event>
<event>
 4    1  0.4050555E+000  0.2160464E+03  0.7546771E-02  0.1136865E+00
         21   -1    0    0  503  502  0.00000000000E+00  0.00000000000E+00  0.30771614350E+03  0.30771614350E+03  0.00000000000E+00 0. -1.
         21   -1    0    0  501  503 -0.00000000000E+00 -0.00000000000E+00 -0.16382785655E+03  0.16382785655E+03  0.00000000000E+00 0. -1.
          6    1    1    2  501    0  0.11033974061E+03 -0.67618060155E+02  0.77565915402E+01  0.21618562656E+03  0.17300000000E+03 0. -1.
         -6    1    1    2    0  502 -0.11033974061E+03  0.67618060155E+02  0.13613169541E+03  0.25535837349E+03  0.17300000000E+03 0. -1.
<mgrwt>
<rscale>  2 0.21604643E+03</rscale>
<asrwt>0</asrwt>
<pdfrwt beam="1">  1       21 0.47340945E-01 0.21604643E+03</pdfrwt>
<pdfrwt beam="2">  1       21 0.25204286E-01 0.21604643E+03</pdfrwt>
<totfact> 0.62987061E+04</totfact>
</mgrwt>
</event>
<event>
 4    1  0.4050555E+000  0.1779759E+03  0.7546771E-02  0.1169777E+00
         21   -1    0    0  503  502  0.00000000000E+00  0.00000000000E+00  0.21585133514E+02  0.21585133514E+02  0.00000000000E+00 0. -1.
         21   -1    0    0  501  503 -0.00000000000E+00 -0.00000000000E+00 -0.23741838765E+04  0.23741838765E+04  0.00000000000E+00 0. -1.
          6    1    1    2  501    0 -0.23165756743E+02 -0.34781520902E+02 -0.19165765114E+04  0.19248223114E+04  0.17300000000E+03 0. -1.
         -6    1    1    2    0  502  0.23165756743E+02  0.34781520902E+02 -0.43602223158E+03  0.47094669859E+03  0.17300000000E+03 0. -1.
<mgrwt>
<rscale>  2 0.17797586E+03</rscale>
<asrwt>0</asrwt>
<pdfrwt beam="1">  1       21 0.33207885E-02 0.17797586E+03</pdfrwt>
<pdfrwt beam="2">  1       21 0.36525919E+00 0.17797586E+03</pdfrwt>
<totfact> 0.77342661E+03</totfact>
</mgrwt>
</event>
<event>
 4    1  0.4050555E+000  0.2350282E+03  0.7546771E-02  0.1123150E+00
         21   -1    0    0  503  502  0.00000000000E+00  0.00000000000E+00  0.39463258379E+02  0.39463258379E+02  0.00000000000E+00 0. -1.
         21   -1    0    0  501  503 -0.00000000000E+00 -0.00000000000E+00 -0.16470569524E+04  0.16470569524E+04  0.00000000000E+00 0.  1.
          6    1    1    2  501    0 -0.89696860144E+02 -0.13139144361E+03 -0.11305618925E+04  0.11547330562E+04  0.17300000000E+03 0.  1.
         -6    1    1    2    0  502  0.89696860144E+02  0.13139144361E+03 -0.47703180151E+03  0.53178715463E+03  0.17300000000E+03 0. -1.
<mgrwt>
<rscale>  2 0.23502816E+03</rscale>
<asrwt>0</asrwt>
<pdfrwt beam="1">  1       21 0.60712702E-02 0.23502816E+03</pdfrwt>
<pdfrwt beam="2">  1       21 0.25339339E+00 0.23502816E+03</pdfrwt>
<totfact> 0.11826168E+04</totfact>
</mgrwt>
</event>
<event>
 4    1  0.4050555E+000  0.2253244E+03  0.7546771E-02  0.1129975E+00
         21   -1    0    0  501  502  0.00000000000E+00  0.00000000000E+00  0.11939385472E+03  0.11939385472E+03  0.00000000000E+00 0.  1.
         21   -1    0    0  502  503 -0.00000000000E+00 -0.00000000000E+00 -0.11403330177E+04  0.11403330177E+04  0.00000000000E+00 0.  1.
          6    1    1    2  501    0 -0.80390786168E+01  0.14414389359E+03 -0.11686515897E+02  0.22562726674E+03  0.17300000000E+03 0.  1.
         -6    1    1    2    0  503  0.80390786168E+01 -0.14414389359E+03 -0.10092526471E+04  0.10340996057E+04  0.17300000000E+03 0.  1.
<mgrwt>
<rscale>  2 0.22532441E+03</rscale>
<asrwt>0</asrwt>
<pdfrwt beam="1">  1       21 0.18368285E-01 0.22532441E+03</pdfrwt>
<pdfrwt beam="2">  1       21 0.17543585E+00 0.22532441E+03</pdfrwt>
<totfact> 0.51463901E+03</totfact>
</mgrwt>
</event>
<event>
 4    1  0.4050555E+000  0.1884468E+03  0.7546771E-02  0.1159870E+00
         21   -1    0    0  501  502  0.00000000000E+00  0.00000000000E+00  0.12887601593E+03  0.12887601593E+03  0.00000000000E+00 0. -1.
         21   -1    0    0  502  503 -0.00000000000E+00 -0.00000000000E+00 -0.67392657822E+03  0.67392657822E+03  0.00000000000E+00 0. -1.
          6    1    1    2  501    0  0.72410449818E+02  0.18437370174E+02  0.36090113322E+02  0.19187158763E+03  0.17300000000E+03 0. -1.
         -6    1    1    2    0  503 -0.72410449818E+02 -0.18437370174E+02 -0.58114067561E+03  0.61093100651E+03  0.17300000000E+03 0. -1.
<mgrwt>
<rscale>  2 0.18844684E+03</rscale>
<asrwt>0</asrwt>
<pdfrwt beam="1">  1       21 0.19827079E-01 0.18844684E+03</pdfrwt>
<pdfrwt beam="2">  1       21 0.10368101E+00 0.18844684E+03</pdfrwt>
<totfact> 0.17715255E+04</totfact>
</mgrwt>
</event>
<event>
 4    1  0.4050555E+000  0.1960549E+03  0.7546771E-02  0.1153111E+00
         21   -1    0    0  503  502  0.00000000000E+00  0.00000000000E+00  0.89923303312E+03  0.89923303312E+03  0.00000000000E+00 0.  1.
         21   -1    0    0  501  503 -0.00000000000E+00 -0.00000000000E+00 -0.51374266180E+02  0.51374266180E+02  0.00000000000E+00 0.  1.
          6    1    1    2  501    0  0.72587265697E+02 -0.56917718149E+02  0.22912880003E+03  0.30155852630E+03  0.17300000000E+03 0.  1.
         -6    1    1    2    0  502 -0.72587265697E+02  0.56917718149E+02  0.61872996692E+03  0.64904877301E+03  0.17300000000E+03 0.  1.
<mgrwt>
<rscale>  2 0.19605494E+03</rscale>
<asrwt>0</asrwt>
<pdfrwt beam="1">  1       21 0.13834353E+00 0.19605494E+03</pdfrwt>
<pdfrwt beam="2">  1       21 0.79037339E-02 0.19605494E+03</pdfrwt>
<totfact> 0.45136276E+04</totfact>
</mgrwt>
</event>
<event>
 4    1  0.4050555E+000  0.2304966E+03  0.7546771E-02  0.1126291E+00
         21   -1    0    0  501  502  0.00000000000E+00  0.00000000000E+00  0.70355462681E+02  0.70355462681E+02  0.00000000000E+00 0.  1.
         21   -1    0    0  502  503 -0.00000000000E+00 -0.00000000000E+00 -0.92910685657E+03  0.92910685657E+03  0.00000000000E+00 0. -1.
          6    1    1    2  501    0  0.14084980032E+03 -0.57974355289E+02 -0.21313942185E+03  0.31393805960E+03  0.17300000000E+03 0.  1.
         -6    1    1    2    0  503 -0.14084980032E+03  0.57974355289E+02 -0.64561197205E+03  0.68552425965E+03  0.17300000000E+03 0. -1.
<mgrwt>
<rscale>  2 0.23049662E+03</rscale>
<asrwt>0</asrwt>
<pdfrwt beam="1">  1       21 0.10823918E-01 0.23049662E+03</pdfrwt>
<pdfrwt beam="2">  1       21 0.14293951E+00 0.23049662E+03</pdfrwt>
<totfact> 0.23364626E+04</totfact>
</mgrwt>
</event>
<event>
 4    1  0.4050555E+000  0.2220110E+03  0.7546771E-02  0.1132393E+00
         21   -1    0    0  503  502  0.00000000000E+00  0.00000000000E+00  0.36500028193E+02  0.36500028193E+02  0.00000000000E+00 0. -1.
         21   -1    0    0  501  503 -0.00000000000E+00 -0.00000000000E+00 -0.19409994985E+04  0.19409994985E+04  0.00000000000E+00 0.  1.
          6    1    1    2  501    0 -0.13843642927E+03 -0.13973543135E+02 -0.14976653955E+04  0.15140312222E+04  0.17300000000E+03 0. -1.
         -6    1    1    2    0  502  0.13843642927E+03  0.13973543135E+02 -0.40683407473E+03  0.46346830444E+03  0.17300000000E+03 0. -1.
<mgrwt>
<rscale>  2 0.22201105E+03</rscale>
<asrwt>0</asrwt>
<pdfrwt beam="1">  1       21 0.56153894E-02 0.22201105E+03</pdfrwt>
<pdfrwt beam="2">  1       21 0.29861528E+00 0.22201105E+03</pdfrwt>
<totfact> 0.74449000E+03</totfact>
</mgrwt>
</event>
<event>
 4    1  0.4050555E+000  0.1805278E+03  0.7546771E-02  0.1167293E+00
         21   -1    0    0  501  502  0.00000000000E+00  0.00000000000E+00  0.68213563833E+03  0.68213563833E+03  0.00000000000E+00 0.  1.
         21   -1    0    0  502  503 -0.00000000000E+00 -0.00000000000E+00 -0.61899916158E+02  0.61899916158E+02  0.00000000000E+00 0.  1.
          6    1    1    2  501    0  0.25076595147E+02  0.45082639431E+02  0.48781622613E+03  0.52014896951E+03  0.17300000000E+03 0.  1.
         -6    1    1    2    0  503 -0.25076595147E+02 -0.45082639431E+02  0.13241949604E+03  0.22388658498E+03  0.17300000000E+03 0.  1.
<mgrwt>
<rscale>  2 0.18052778E+03</rscale>
<asrwt>0</asrwt>
<pdfrwt beam="1">  1       21 0.10494394E+00 0.18052778E+03</pdfrwt>
<pdfrwt beam="2">  1       21 0.95230645E-02 0.18052778E+03</pdfrwt>
<totfact> 0.65074957E+04</totfact>
</mgrwt>
</event>
<event>
 4    1  0.4050555E+000  0.2062987E+03  0.7546771E-02  0.1144531E+00
         21   -1    0    0  501  502  0.00000000000E+00  0.00000000000E+00  0.47909911714E+03  0.47909911714E+03  0.00000000000E+00 0. -1.
         21   -1    0    0  502  503 -0.00000000000E+00 -0.00000000000E+00 -0.11180956478E+03  0.11180956478E+03  0.00000000000E+00 0.  1.
          6    1    1    2  501    0 -0.53453076884E+00  0.11238273464E+03  0.31758351654E+03  0.37870629087E+03  0.17300000000E+03 0. -1.
         -6    1    1    2    0  503  0.53453076884E+00 -0.11238273464E+03  0.49706035824E+02  0.21220239105E+03  0.17300000000E+03 0.  1.
<mgrwt>
<rscale>  2 0.20629873E+03</rscale>
<asrwt>0</asrwt>
<pdfrwt beam="1">  1       21 0.73707555E-01 0.20629873E+03</pdfrwt>
<pdfrwt beam="2">  1       21 0.17201472E-01 0.20629873E+03</pdfrwt>
<totfact> 0.50115072E+04</totfact>
</mgrwt>
</event>
<event>
 4    1  0.4050555E+000  0.1795925E+03  0.7546771E-02  0.1168198E+00
         21   -1    0    0  501  502  0.00000000000E+00  0.00000000000E+00  0.69757266018E+02  0.69757266018E+02  0.00000000000E+00 0. -1.
         21   -1    0    0  502  503 -0.00000000000E+00 -0.00000000000E+00 -0.81632003201E+03  0.81632003201E+03  0.00000000000E+00 0. -1.
          6    1    1    2  501    0  0.16364625883E+02  0.45350503607E+02 -0.81549358513E+02  0.19724037881E+03  0.17300000000E+03 0. -1.
         -6    1    1    2    0  503 -0.16364625883E+02 -0.45350503607E+02 -0.66501340748E+03  0.68883691922E+03  0.17300000000E+03 0. -1.
<mgrwt>
<rscale>  2 0.17959251E+03</rscale>
<asrwt>0</asrwt>
<pdfrwt beam="1">  1       21 0.10731887E-01 0.17959251E+03</pdfrwt>
<pdfrwt beam="2">  1       21 0.12558769E+00 0.17959251E+03</pdfrwt>
<totfact> 0.34013377E+04</totfact>
</mgrwt>
</event>
<event>
 4    1  0.4050555E+000  0.1943480E+03  0.7546771E-02  0.1154597E+00
         21   -1    0    0  503  502  0.00000000000E+00  0.00000000000E+00  0.16059240947E+03  0.16059240947E+03  0.00000000000E+00 0.  1.
         21   -1    0    0  501  503 -0.00000000000E+00 -0.00000000000E+00 -0.39787379844E+03  0.39787379844E+03  0.00000000000E+00 0.  1.
          6    1    1    2  501    0  0.46662459190E+02  0.75264638345E+02 -0.29718852011E+03  0.35509458933E+03  0.17300000000E+03 0.  1.
         -6    1    1    2    0  502 -0.46662459190E+02 -0.75264638345E+02  0.59907131136E+02  0.20337161858E+03  0.17300000000E+03 0.  1.
<mgrwt>
<rscale>  2 0.19434801E+03</rscale>
<asrwt>0</asrwt>
<pdfrwt beam="1">  1       21 0.24706525E-01 0.19434801E+03</pdfrwt>
<pdfrwt beam="2">  1       21 0.61211353E-01 0.19434801E+03</pdfrwt>
<totfact> 0.38421376E+04</totfact>
</mgrwt>
</event>
<event>
 4    1  0.4050555E+000  0.1992608E+03  0.7546771E-02  0.1150364E+00
         21   -1    0    0  501  502  0.00000000000E+00  0.00000000000E+00  0.29178152274E+03  0.29178152274E+03  0.00000000000E+00 0. -1.
         21   -1    0    0  502  503 -0.00000000000E+00 -0.00000000000E+00 -0.22940779747E+03  0.22940779747E+03  0.00000000000E+00 0.  1.
          6    1    1    2  501    0  0.34083715189E+02  0.92812494715E+02  0.19740295929E+03  0.28048669693E+03  0.17300000000E+03 0. -1.
         -6    1    1    2    0  503 -0.34083715189E+02 -0.92812494715E+02 -0.13502923402E+03  0.24070262329E+03  0.17300000000E+03 0.  1.
<mgrwt>
<rscale>  2 0.19926078E+03</rscale>
<asrwt>0</asrwt>
<pdfrwt beam="1">  1       21 0.44889465E-01 0.19926078E+03</pdfrwt>
<pdfrwt beam="2">  1       21 0.35293507E-01 0.19926078E+03</pdfrwt>
<totfact> 0.36734793E+04</totfact>
</mgrwt>
</event>
<event>
 4    1  0.4050555E+000  0.3148059E+03  0.7546771E-02  0.1078065E+00
         21   -1    0    0  501  502  0.00000000000E+00  0.00000000000E+00  0.14864436291E+03  0.14864436291E+03  0.00000000000E+00 0.  1.
         21   -1    0    0  502  503 -0.00000000000E+00 -0.00000000000E+00 -0.14464685239E+04  0.14464685239E+04  0.00000000000E+00 0. -1.
          6    1    1    2  501    0  0.24086318423E+03  0.10563466653E+03 -0.63331234492E+02  0.32111306662E+03  0.17300000000E+03 0.  1.
         -6    1    1    2    0  503 -0.24086318423E+03 -0.10563466653E+03 -0.12344929265E+04  0.12739998202E+04  0.17300000000E+03 0. -1.
<mgrwt>
<rscale>  2 0.31480590E+03</rscale>
<asrwt>0</asrwt>
<pdfrwt beam="1">  1       21 0.22868365E-01 0.31480590E+03</pdfrwt>
<pdfrwt beam="2">  1       21 0.22253361E+00 0.31480590E+03</pdfrwt>
<totfact> 0.15667061E+03</totfact>
</mgrwt>
</event>
<event>
 4    1  0.4050555E+000  0.2719237E+03  0.7546771E-02  0.1100184E+00
         21   -1    0    0  503  502  0.00000000000E+00  0.00000000000E+00  0.20389839681E+03  0.20389839681E+03  0.00000000000E+00 0.  1.
         21   -1    0    0  501  503 -0.00000000000E+00 -0.00000000000E+00 -0.41225849637E+03  0.41225849637E+03  0.00000000000E+00 0.  1.
          6    1    1    2  501    0  0.98312236361E+02  0.18533269655E+03 -0.21105633732E+03  0.34421981604E+03  0.17300000000E+03 0.  1.
         -6    1    1    2    0  502 -0.98312236361E+02 -0.18533269655E+03  0.26962377649E+01  0.27193707715E+03  0.17300000000E+03 0.  1.
<mgrwt>
<rscale>  2 0.27192371E+03</rscale>
<asrwt>0</asrwt>
<pdfrwt beam="1">  1       21 0.31368985E-01 0.27192371E+03</pdfrwt>
<pdfrwt beam="2">  1       21 0.63424383E-01 0.27192371E+03</pdfrwt>
<totfact> 0.21552979E+04</totfact>
</mgrwt>
</event>
<event>
 4    1  0.4050555E+000  0.1894953E+03  0.7546771E-02  0.1158917E+00
         21   -1    0    0  501  502  0.00000000000E+00  0.00000000000E+00  0.15928120781E+03  0.15928120781E+03  0.00000000000E+00 0.  1.
         21   -1    0    0  502  503 -0.00000000000E+00 -0.00000000000E+00 -0.77309585127E+03  0.77309585127E+03  0.00000000000E+00 0.  1.
          6    1    1    2  501    0 -0.51652822538E+02 -0.57545158043E+02  0.85465140609E+02  0.20787676530E+03  0.17300000000E+03 0.  1.
         -6    1    1    2    0  503  0.51652822538E+02  0.57545158043E+02 -0.69927978407E+03  0.72450029378E+03  0.17300000000E+03 0.  1.
<mgrwt>
<rscale>  2 0.18949528E+03</rscale>
<asrwt>0</asrwt>
<pdfrwt beam="1">  1       21 0.24504802E-01 0.18949528E+03</pdfrwt>
<pdfrwt beam="2">  1       21 0.11893782E+00 0.18949528E+03</pdfrwt>
<totfact> 0.85152434E+03</totfact>
</mgrwt>
</event>
<event>
 4    1  0.4050555E+000  0.1780611E+03  0.7546771E-02  0.1169693E+00
         21   -1    0    0  501  502  0.00000000000E+00  0.00000000000E+00  0.73794879615E+02  0.73794879615E+02  0.00000000000E+00 0. -1.
         21   -1    0    0  502  503 -0.00000000000E+00 -0.00000000000E+00 -0.13846936858E+04  0.13846936858E+04  0.00000000000E+00 0. -1.
          6    1    1    2  501    0  0.41553436937E+02 -0.70748330275E+01 -0.49817840664E+02  0.18489877942E+03  0.17300000000E+03 0. -1.
         -6    1    1    2    0  503 -0.41553436937E+02  0.70748330275E+01 -0.12610809655E+04  0.12735897860E+04  0.17300000000E+03 0. -1.
<mgrwt>
<rscale>  2 0.17806106E+03</rscale>
<asrwt>0</asrwt>
<pdfrwt beam="1">  1       21 0.11353058E-01 0.17806106E+03</pdfrwt>
<pdfrwt beam="2">  1       21 0.21302981E+00 0.17806106E+03</pdfrwt>
<totfact> 0.72957843E+03</totfact>
</mgrwt>
</event>
<event>
 4    1  0.4050555E+000  0.2180846E+03  0.7546771E-02  0.1135319E+00
         21   -1    0    0  501  502  0.00000000000E+00  0.00000000000E+00  0.30014647176E+03  0.30014647176E+03  0.00000000000E+00 0.  1.
         21   -1    0    0  502  503 -0.00000000000E+00 -0.00000000000E+00 -0.15848010525E+03  0.15848010525E+03  0.00000000000E+00 0. -1.
          6    1    1    2  501    0 -0.12626636550E+03 -0.41093552991E+02  0.73486691417E+02  0.23013293760E+03  0.17300000000E+03 0.  1.
         -6    1    1    2    0  503  0.12626636550E+03  0.41093552991E+02  0.68179675092E+02  0.22849363941E+03  0.17300000000E+03 0.  1.
<mgrwt>
<rscale>  2 0.21808456E+03</rscale>
<asrwt>0</asrwt>
<pdfrwt beam="1">  1       21 0.46176380E-01 0.21808456E+03</pdfrwt>
<pdfrwt beam="2">  1       21 0.24381555E-01 0.21808456E+03</pdfrwt>
<totfact> 0.70607329E+04</totfact>
</mgrwt>
</event>
<event>
 4    1  0.4050555E+000  0.1758524E+03  0.7546771E-02  0.1171879E+00
         21   -1    0    0  503  502  0.00000000000E+00  0.00000000000E+00  0.20455487644E+03  0.20455487644E+03  0.00000000000E+00 0. -1.
         21   -1    0    0  501  503 -0.00000000000E+00 -0.00000000000E+00 -0.48326992679E+03  0.48326992679E+03  0.00000000000E+00 0. -1.
          6    1    1    2  501    0 -0.29812032051E+02 -0.10310248530E+02 -0.42444789925E+03  0.45943451944E+03  0.17300000000E+03 0. -1.
         -6    1    1    2    0  502  0.29812032051E+02  0.10310248530E+02  0.14573284890E+03  0.22839028379E+03  0.17300000000E+03 0. -1.
<mgrwt>
<rscale>  2 0.17585238E+03</rscale>
<asrwt>0</asrwt>
<pdfrwt beam="1">  1       21 0.31469981E-01 0.17585238E+03</pdfrwt>
<pdfrwt beam="2">  1       21 0.74349219E-01 0.17585238E+03</pdfrwt>
<totfact> 0.15903312E+04</totfact>
</mgrwt>
</event>
<event>
 4    1  0.4050555E+000  0.1990838E+03  0.7546771E-02  0.1150514E+00
         21   -1    0    0  503  502  0.00000000000E+00  0.00000000000E+00  0.66384214652E+03  0.66384214652E+03  0.00000000000E+00 0. -1.
         21   -1    0    0  501  503 -0.00000000000E+00 -0.00000000000E+00 -0.76163033278E+02  0.76163033278E+02  0.00000000000E+00 0.  1.
          6    1    1    2  501    0 -0.70520529790E+02  0.68791180098E+02  0.12183971337E+03  0.23340798473E+03  0.17300000000E+03 0.  1.
         -6    1    1    2    0  502  0.70520529790E+02 -0.68791180098E+02  0.46583939987E+03  0.50659719507E+03  0.17300000000E+03 0. -1.
<mgrwt>
<rscale>  2 0.19908383E+03</rscale>
<asrwt>0</asrwt>
<pdfrwt beam="1">  1       21 0.10212956E+00 0.19908383E+03</pdfrwt>
<pdfrwt beam="2">  1       21 0.11717390E-01 0.19908383E+03</pdfrwt>
<totfact> 0.47650461E+04</totfact>
</mgrwt>
</event>
<event>
 4    1  0.4050555E+000  0.1852713E+03  0.7546771E-02  0.1162797E+00
         21   -1    0    0  501  502  0.00000000000E+00  0.00000000000E+00  0.58248769156E+02  0.58248769156E+02  0.00000000000E+00 0.  1.
         21   -1    0    0  502  503 -0.00000000000E+00 -0.00000000000E+00 -0.71671536211E+03  0.71671536211E+03  0.00000000000E+00 0.  1.
          6    1    1    2  501    0 -0.61854919282E+02  0.23883876027E+02 -0.16585113938E+03  0.24866055378E+03  0.17300000000E+03 0.  1.
         -6    1    1    2    0  503  0.61854919282E+02 -0.23883876027E+02 -0.49261545357E+03  0.52630357748E+03  0.17300000000E+03 0.  1.
<mgrwt>
<rscale>  2 0.18527134E+03</rscale>
<asrwt>0</asrwt>
<pdfrwt beam="1">  1       21 0.89613491E-02 0.18527134E+03</pdfrwt>
<pdfrwt beam="2">  1       21 0.11026390E+00 0.18527134E+03</pdfrwt>
<totfact> 0.64132970E+04</totfact>
</mgrwt>
</event>
<event>
 4    1  0.4050555E+000  0.2316160E+03  0.7546771E-02  0.1125507E+00
         21   -1    0    0  503  502  0.00000000000E+00  0.00000000000E+00  0.44468294080E+03  0.44468294080E+03  0.00000000000E+00 0.  1.
         21   -1    0    0  501  503 -0.00000000000E+00 -0.00000000000E+00 -0.22807869911E+03  0.22807869911E+03  0.00000000000E+00 0.  1.
          6    1    1    2  501    0 -0.13416635593E+03  0.75606740744E+02 -0.12257015048E+03  0.26204853004E+03  0.17300000000E+03 0.  1.
         -6    1    1    2    0  502  0.13416635593E+03 -0.75606740744E+02  0.33917439217E+03  0.41071310986E+03  0.17300000000E+03 0.  1.
<mgrwt>
<rscale>  2 0.23161604E+03</rscale>
<asrwt>0</asrwt>
<pdfrwt beam="1">  1       21 0.68412760E-01 0.23161604E+03</pdfrwt>
<pdfrwt beam="2">  1       21 0.35089031E-01 0.23161604E+03</pdfrwt>
<totfact> 0.14903051E+04</totfact>
</mgrwt>
</event>
<event>
 4    1  0.4050555E+000  0.1736716E+03  0.7546771E-02  0.1174072E+00
         21   -1    0    0  503  502  0.00000000000E+00  0.00000000000E+00  0.17402928317E+04  0.17402928317E+04  0.00000000000E+00 0.  1.
         21   -1    0    0  501  503 -0.00000000000E+00 -0.00000000000E+00 -0.87098943047E+02  0.87098943047E+02  0.00000000000E+00 0.  1.
          6    1    1    2  501    0  0.22255805483E+01 -0.15095693251E+02  0.88447389276E+01  0.17389670086E+03  0.17300000000E+03 0.  1.
         -6    1    1    2    0  502 -0.22255805483E+01  0.15095693251E+02  0.16443491497E+04  0.16534950739E+04  0.17300000000E+03 0.  1.
<mgrwt>
<rscale>  2 0.17367162E+03</rscale>
<asrwt>0</asrwt>
<pdfrwt beam="1">  1       21 0.26773733E+00 0.17367162E+03</pdfrwt>
<pdfrwt beam="2">  1       21 0.13399839E-01 0.17367162E+03</pdfrwt>
<totfact> 0.25805432E+03</totfact>
</mgrwt>
</event>
<event>
 4    1  0.4050555E+000  0.1833877E+03  0.7546771E-02  0.1164564E+00
         21   -1    0    0  501  502  0.00000000000E+00  0.00000000000E+00  0.33448692603E+03  0.33448692603E+03  0.00000000000E+00 0.  1.
         21   -1    0    0  502  503 -0.00000000000E+00 -0.00000000000E+00 -0.11320820482E+03  0.11320820482E+03  0.00000000000E+00 0.  1.
          6    1    1    2  501    0  0.55326366043E+02  0.25318623427E+02  0.18550501055E+03  0.26085081639E+03  0.17300000000E+03 0.  1.
         -6    1    1    2    0  503 -0.55326366043E+02 -0.25318623427E+02  0.35773710656E+02  0.18684431446E+03  0.17300000000E+03 0.  1.
<mgrwt>
<rscale>  2 0.18338768E+03</rscale>
<asrwt>0</asrwt>
<pdfrwt beam="1">  1       21 0.51459527E-01 0.18338768E+03</pdfrwt>
<pdfrwt beam="2">  1       21 0.17416647E-01 0.18338768E+03</pdfrwt>
<totfact> 0.10742141E+05</totfact>
</mgrwt>
</event>
<event>
 4    1  0.4050555E+000  0.2101937E+03  0.7546771E-02  0.1141413E+00
         21   -1    0    0  503  502  0.00000000000E+00  0.00000000000E+00  0.43428995327E+03  0.43428995327E+03  0.00000000000E+00 0.  1.
         21   -1    0    0  501  503 -0.00000000000E+00 -0.00000000000E+00 -0.12121857612E+03  0.12121857612E+03  0.00000000000E+00 0. -1.
          6    1    1    2  501    0 -0.33150053114E+02  0.11468857795E+03  0.45173305218E+02  0.21499307765E+03  0.17300000000E+03 0. -1.
         -6    1    1    2    0  502  0.33150053114E+02 -0.11468857795E+03  0.26789807193E+03  0.34051545174E+03  0.17300000000E+03 0.  1.
<mgrwt>
<rscale>  2 0.21019371E+03</rscale>
<asrwt>0</asrwt>
<pdfrwt beam="1">  1       21 0.66813838E-01 0.21019371E+03</pdfrwt>
<pdfrwt beam="2">  1       21 0.18649012E-01 0.21019371E+03</pdfrwt>
<totfact> 0.53513205E+04</totfact>
</mgrwt>
</event>
<event>
 4    1  0.4050555E+000  0.1850716E+03  0.7546771E-02  0.1162983E+00
         21   -1    0    0  503  502  0.00000000000E+00  0.00000000000E+00  0.81443024237E+03  0.81443024237E+03  0.00000000000E+00 0.  1.
         21   -1    0    0  501  503 -0.00000000000E+00 -0.00000000000E+00 -0.43029649158E+02  0.43029649158E+02  0.00000000000E+00 0.  1.
          6    1    1    2  501    0 -0.56789106103E+02  0.33128243967E+02  0.45019953655E+03  0.48675569420E+03  0.17300000000E+03 0.  1.
         -6    1    1    2    0  502  0.56789106103E+02 -0.33128243967E+02  0.32120105665E+03  0.37070419733E+03  0.17300000000E+03 0.  1.
<mgrwt>
<rscale>  2 0.18507156E+03</rscale>
<asrwt>0</asrwt>
<pdfrwt beam="1">  1       21 0.12529695E+00 0.18507156E+03</pdfrwt>
<pdfrwt beam="2">  1       21 0.66199466E-02 0.18507156E+03</pdfrwt>
<totfact> 0.79257851E+04</totfact>
</mgrwt>
</event>
<event>
 4    1  0.4050555E+000  0.1742821E+03  0.7546771E-02  0.1173454E+00
         21   -1    0    0  503  502  0.00000000000E+00  0.00000000000E+00  0.73256764494E+03  0.73256764494E+03  0.00000000000E+00 0. -1.
         21   -1    0    0  501  503 -0.00000000000E+00 -0.00000000000E+00 -0.43540504089E+02  0.43540504089E+02  0.00000000000E+00 0. -1.
          6    1    1    2  501    0 -0.18585362960E+02 -0.99913416242E+01  0.25974275234E+03  0.31279472505E+03  0.17300000000E+03 0.  1.
         -6    1    1    2    0  502  0.18585362960E+02  0.99913416242E+01  0.42928438851E+03  0.46331342398E+03  0.17300000000E+03 0.  1.
<mgrwt>
<rscale>  2 0.17428208E+03</rscale>
<asrwt>0</asrwt>
<pdfrwt beam="1">  1       21 0.11270271E+00 0.17428208E+03</pdfrwt>
<pdfrwt beam="2">  1       21 0.66985396E-02 0.17428208E+03</pdfrwt>
<totfact> 0.10128662E+05</totfact>
</mgrwt>
</event>
<event>
 4    1  0.4050555E+000  0.1887356E+03  0.7546771E-02  0.1159607E+00
         21   -1    0    0  503  502  0.00000000000E+00  0.00000000000E+00  0.33419252929E+03  0.33419252929E+03  0.00000000000E+00 0. -1.
         21   -1    0    0  501  503 -0.00000000000E+00 -0.00000000000E+00 -0.12954680998E+03  0.12954680998E+03  0.00000000000E+00 0.  1.
          6    1    1    2  501    0 -0.32970487466E+01 -0.75374007287E+02  0.47116580034E+01  0.18879436227E+03  0.17300000000E+03 0.  1.
         -6    1    1    2    0  502  0.32970487466E+01  0.75374007287E+02  0.19993406130E+03  0.27494497699E+03  0.17300000000E+03 0. -1.
<mgrwt>
<rscale>  2 0.18873556E+03</rscale>
<asrwt>0</asrwt>
<pdfrwt beam="1">  1       21 0.51414235E-01 0.18873556E+03</pdfrwt>
<pdfrwt beam="2">  1       21 0.19930278E-01 0.18873556E+03</pdfrwt>
<totfact> 0.83652274E+04</totfact>
</mgrwt>
</event>
<event>
 4    1  0.4050555E+000  0.1734921E+03  0.7546771E-02  0.1174254E+00
         21   -1    0    0  503  502  0.00000000000E+00  0.00000000000E+00  0.30690030031E+02  0.30690030031E+02  0.00000000000E+00 0. -1.
         21   -1    0    0  501  503 -0.00000000000E+00 -0.00000000000E+00 -0.99923775974E+03  0.99923775974E+03  0.00000000000E+00 0. -1.
          6    1    1    2  501    0  0.12909431799E+02  0.19645448535E+01 -0.55430363719E+03  0.58082014003E+03  0.17300000000E+03 0.  1.
         -6    1    1    2    0  502 -0.12909431799E+02 -0.19645448535E+01 -0.41424409252E+03  0.44910764974E+03  0.17300000000E+03 0.  1.
<mgrwt>
<rscale>  2 0.17349211E+03</rscale>
<asrwt>0</asrwt>
<pdfrwt beam="1">  1       21 0.47215442E-02 0.17349211E+03</pdfrwt>
<pdfrwt beam="2">  1       21 0.15372885E+00 0.17349211E+03</pdfrwt>
<totfact> 0.83846137E+04</totfact>
</mgrwt>
</event>
<event>
 4    1  0.4050555E+000  0.1817183E+03  0.7546771E-02  0.1166150E+00
         21   -1    0    0  501  502  0.00000000000E+00  0.00000000000E+00  0.47879132406E+03  0.47879132406E+03  0.00000000000E+00 0. -1.
         21   -1    0    0  502  503 -0.00000000000E+00 -0.00000000000E+00 -0.70012543196E+02  0.70012543196E+02  0.00000000000E+00 0. -1.
          6    1    1    2  501    0  0.16960804946E+02  0.52961007254E+02  0.17088121664E+03  0.24944323481E+03  0.17300000000E+03 0. -1.
         -6    1    1    2    0  503 -0.16960804946E+02 -0.52961007254E+02  0.23789756423E+03  0.29936063245E+03  0.17300000000E+03 0. -1.
<mgrwt>
<rscale>  2 0.18171829E+03</rscale>
<asrwt>0</asrwt>
<pdfrwt beam="1">  1       21 0.73660202E-01 0.18171829E+03</pdfrwt>
<pdfrwt beam="2">  1       21 0.10771161E-01 0.18171829E+03</pdfrwt>
<totfact> 0.11822127E+05</totfact>
</mgrwt>
</event>
<event>
 4    1  0.4050555E+000  0.3221766E+03  0.7546771E-02  0.1074652E+00
         21   -1    0    0  503  502  0.00000000000E+00  0.00000000000E+00  0.18048138269E+04  0.18048138269E+04  0.00000000000E+00 0.  1.
         21   -1    0    0  501  503 -0.00000000000E+00 -0.00000000000E+00 -0.10599126727E+03  0.10599126727E+03  0.00000000000E+00 0. -1.
          6    1    1    2  501    0  0.76952027386E+02  0.26066668683E+03  0.20326454420E+03  0.38093859226E+03  0.17300000000E+03 0. -1.
         -6    1    1    2    0  502 -0.76952027386E+02 -0.26066668683E+03  0.14955580154E+04  0.15298665019E+04  0.17300000000E+03 0.  1.
<mgrwt>
<rscale>  2 0.32217656E+03</rscale>
<asrwt>0</asrwt>
<pdfrwt beam="1">  1       21 0.27766364E+00 0.32217656E+03</pdfrwt>
<pdfrwt beam="2">  1       21 0.16306350E-01 0.32217656E+03</pdfrwt>
<totfact> 0.13655743E+03</totfact>
</mgrwt>
</event>
<event>
 4    1  0.4050555E+000  0.2443030E+03  0.7546771E-02  0.1116959E+00
         21   -1    0    0  503  502  0.00000000000E+00  0.00000000000E+00  0.14614197370E+04  0.14614197370E+04  0.00000000000E+00 0. -1.
         21   -1    0    0  501  503 -0.00000000000E+00 -0.00000000000E+00 -0.24080772898E+03  0.24080772898E+03  0.00000000000E+00 0.  1.
          6    1    1    2  501    0 -0.15172090256E+03  0.82071501710E+02 -0.16528480722E+03  0.29496276233E+03  0.17300000000E+03 0.  1.
         -6    1    1    2    0  502  0.15172090256E+03 -0.82071501710E+02  0.13858968152E+04  0.14072647036E+04  0.17300000000E+03 0. -1.
<mgrwt>
<rscale>  2 0.24430302E+03</rscale>
<asrwt>0</asrwt>
<pdfrwt beam="1">  1       21 0.22483380E+00 0.24430302E+03</pdfrwt>
<pdfrwt beam="2">  1       21 0.37047344E-01 0.24430302E+03</pdfrwt>
<totfact> 0.62363265E+02</totfact>
</mgrwt>
</event>
<event>
 4    1  0.4050555E+000  0.2199050E+03  0.7546771E-02  0.1133954E+00
         21   -1    0    0  503  502  0.00000000000E+00  0.00000000000E+00  0.46678053890E+02  0.46678053890E+02  0.00000000000E+00 0. -1.
         21   -1    0    0  501  503 -0.00000000000E+00 -0.00000000000E+00 -0.10361678474E+04  0.10361678474E+04  0.00000000000E+00 0.  1.
          6    1    1    2  501    0 -0.13017491452E+03 -0.38518910407E+02 -0.48774530386E+03  0.53502681827E+03  0.17300000000E+03 0. -1.
         -6    1    1    2    0  502  0.13017491452E+03  0.38518910407E+02 -0.50174448968E+03  0.54781908305E+03  0.17300000000E+03 0. -1.
<mgrwt>
<rscale>  2 0.21990501E+03</rscale>
<asrwt>0</asrwt>
<pdfrwt beam="1">  1       21 0.71812399E-02 0.21990501E+03</pdfrwt>
<pdfrwt beam="2">  1       21 0.15941042E+00 0.21990501E+03</pdfrwt>
<totfact> 0.36194072E+04</totfact>
</mgrwt>
</event>
<event>
 4    1  0.4050555E+000  0.2322603E+03  0.7546771E-02  0.1125059E+00
         21   -1    0    0  503  502  0.00000000000E+00  0.00000000000E+00  0.26192541808E+02  0.26192541808E+02  0.00000000000E+00 0. -1.
         21   -1    0    0  501  503 -0.00000000000E+00 -0.00000000000E+00 -0.24015988128E+04  0.24015988128E+04  0.00000000000E+00 0.  1.
          6    1    1    2  501    0 -0.74404373453E+02  0.13594057029E+03 -0.16458188396E+04  0.16621265000E+04  0.17300000000E+03 0. -1.
         -6    1    1    2    0  502  0.74404373453E+02 -0.13594057029E+03 -0.72958743144E+03  0.76566485459E+03  0.17300000000E+03 0. -1.
<mgrwt>
<rscale>  2 0.23226031E+03</rscale>
<asrwt>0</asrwt>
<pdfrwt beam="1">  1       21 0.40296199E-02 0.23226031E+03</pdfrwt>
<pdfrwt beam="2">  1       21 0.36947692E+00 0.23226031E+03</pdfrwt>
<totfact> 0.49393538E+03</totfact>
</mgrwt>
</event>
<event>
 4    1  0.4050555E+000  0.2206722E+03  0.7546771E-02  0.1133383E+00
         21   -1    0    0  501  502  0.00000000000E+00  0.00000000000E+00  0.71184188800E+03  0.71184188800E+03  0.00000000000E+00 0.  1.
         21   -1    0    0  502  503 -0.00000000000E+00 -0.00000000000E+00 -0.68431496722E+02  0.68431496722E+02  0.00000000000E+00 0. -1.
          6    1    1    2  501    0 -0.68219079175E+02  0.11879971535E+03  0.31459257337E+03  0.38427165176E+03  0.17300000000E+03 0.  1.
         -6    1    1    2    0  503  0.68219079175E+02 -0.11879971535E+03  0.32881781791E+03  0.39600173296E+03  0.17300000000E+03 0.  1.
<mgrwt>
<rscale>  2 0.22067219E+03</rscale>
<asrwt>0</asrwt>
<pdfrwt beam="1">  1       21 0.10951413E+00 0.22067219E+03</pdfrwt>
<pdfrwt beam="2">  1       21 0.10527923E-01 0.22067219E+03</pdfrwt>
<totfact> 0.48211518E+04</totfact>
</mgrwt>
</event>
<event>
 4    1  0.4050555E+000  0.2183451E+03  0.7546771E-02  0.1135123E+00
         21   -1    0    0  501  502  0.00000000000E+00  0.00000000000E+00  0.95239103414E+02  0.95239103414E+02  0.00000000000E+00 0.  1.
         21   -1    0    0  502  503 -0.00000000000E+00 -0.00000000000E+00 -0.63303684988E+03  0.63303684988E+03  0.00000000000E+00 0.  1.
          6    1    1    2  501    0 -0.10479909796E+03  0.82235779874E+02 -0.10233055248E+03  0.24113505841E+03  0.17300000000E+03 0.  1.
         -6    1    1    2    0  503  0.10479909796E+03 -0.82235779874E+02 -0.43546719398E+03  0.48714089488E+03  0.17300000000E+03 0.  1.
<mgrwt>
<rscale>  2 0.21834508E+03</rscale>
<asrwt>0</asrwt>
<pdfrwt beam="1">  1       21 0.14652170E-01 0.21834508E+03</pdfrwt>
<pdfrwt beam="2">  1       21 0.97390284E-01 0.21834508E+03</pdfrwt>
<totfact> 0.35283925E+04</totfact>
</mgrwt>
</event>
<event>
 4    1  0.4050555E+000  0.1827875E+03  0.7546771E-02  0.1165132E+00
         21   -1    0    0  503  502  0.00000000000E+00  0.00000000000E+00  0.19195936045E+03  0.19195936045E+03  0.00000000000E+00 0.  1.
         21   -1    0    0  501  503 -0.00000000000E+00 -0.00000000000E+00 -0.22397944795E+03  0.22397944795E+03  0.00000000000E+00 0.  1.
          6    1    1    2  501    0 -0.50650552071E+02  0.30278341662E+02 -0.11419777193E+03  0.21552815944E+03  0.17300000000E+03 0.  1.
         -6    1    1    2    0  502  0.50650552071E+02 -0.30278341662E+02  0.82177684425E+02  0.20041064896E+03  0.17300000000E+03 0.  1.
<mgrwt>
<rscale>  2 0.18278746E+03</rscale>
<asrwt>0</asrwt>
<pdfrwt beam="1">  1       21 0.29532209E-01 0.18278746E+03</pdfrwt>
<pdfrwt beam="2">  1       21 0.34458377E-01 0.18278746E+03</pdfrwt>
<totfact> 0.89522253E+04</totfact>
</mgrwt>
</event>
<event>
 4    1  0.4050555E+000  0.2573553E+03  0.7546771E-02  0.1108743E+00
         21   -1    0    0  501  502  0.00000000000E+00  0.00000000000E+00  0.48283584710E+03  0.48283584710E+03  0.00000000000E+00 0. -1.
         21   -1    0    0  502  503 -0.00000000000E+00 -0.00000000000E+00 -0.13899821714E+03  0.13899821714E+03  0.00000000000E+00 0.  1.
          6    1    1    2  501    0  0.14165342593E+03 -0.12742478991E+03  0.20755277212E+03  0.33062051264E+03  0.17300000000E+03 0.  1.
         -6    1    1    2    0  503 -0.14165342593E+03  0.12742478991E+03  0.13628485784E+03  0.29121355160E+03  0.17300000000E+03 0.  1.
<mgrwt>
<rscale>  2 0.25735534E+03</rscale>
<asrwt>0</asrwt>
<pdfrwt beam="1">  1       21 0.74282437E-01 0.25735534E+03</pdfrwt>
<pdfrwt beam="2">  1       21 0.21384341E-01 0.25735534E+03</pdfrwt>
<totfact> 0.32039902E+04</totfact>
</mgrwt>
</event>
<event>
 4    1  0.4050555E+000  0.1783862E+03  0.7546771E-02  0.1169374E+00
         21   -1    0    0  503  502  0.00000000000E+00  0.00000000000E+00  0.60170768319E+02  0.60170768319E+02  0.00000000000E+00 0.  1.
         21   -1    0    0  501  503 -0.00000000000E+00 -0.00000000000E+00 -0.26595215101E+04  0.26595215101E+04  0.00000000000E+00 0. -1.
          6    1    1    2  501    0 -0.10616002760E+01 -0.43491495896E+02 -0.25168298891E+04  0.25231437390E+04  0.17300000000E+03 0. -1.
         -6    1    1    2    0  502  0.10616002760E+01  0.43491495896E+02 -0.82520852713E+02  0.19654853941E+03  0.17300000000E+03 0.  1.
<mgrwt>
<rscale>  2 0.17838620E+03</rscale>
<asrwt>0</asrwt>
<pdfrwt beam="1">  1       21 0.92570424E-02 0.17838620E+03</pdfrwt>
<pdfrwt beam="2">  1       21 0.40915711E+00 0.17838620E+03</pdfrwt>
<totfact> 0.72711870E+02</totfact>
</mgrwt>
</event>
<event>
 4    1  0.4050555E+000  0.1780460E+03  0.7546771E-02  0.1169708E+00
         21   -1    0    0  503  502  0.00000000000E+00  0.00000000000E+00  0.38245846892E+03  0.38245846892E+03  0.00000000000E+00 0. -1.
         21   -1    0    0  501  503 -0.00000000000E+00 -0.00000000000E+00 -0.83506582400E+02  0.83506582400E+02  0.00000000000E+00 0. -1.
          6    1    1    2  501    0 -0.41687201251E+02  0.57921770000E+01  0.12938795519E+03  0.22009455925E+03  0.17300000000E+03 0. -1.
         -6    1    1    2    0  502  0.41687201251E+02 -0.57921770000E+01  0.16956393133E+03  0.24587049207E+03  0.17300000000E+03 0. -1.
<mgrwt>
<rscale>  2 0.17804598E+03</rscale>
<asrwt>0</asrwt>
<pdfrwt beam="1">  1       21 0.58839763E-01 0.17804598E+03</pdfrwt>
<pdfrwt beam="2">  1       21 0.12847167E-01 0.17804598E+03</pdfrwt>
<totfact> 0.14099348E+05</totfact>
</mgrwt>
</event>
<event>
 4    1  0.4050555E+000  0.2237287E+03  0.7546771E-02  0.1131133E+00
         21   -1    0    0  503  502  0.00000000000E+00  0.00000000000E+00  0.89473552916E+02  0.89473552916E+02  0.00000000000E+00 0. -1.
         21   -1    0    0  501  503 -0.00000000000E+00 -0.00000000000E+00 -0.96102382957E+03  0.96102382957E+03  0.00000000000E+00 0.  1.
          6    1    1    2  501    0  0.11972438524E+03  0.76102679083E+02 -0.77531382308E+03  0.80694861698E+03  0.17300000000E+03 0.  1.
         -6    1    1    2    0  502 -0.11972438524E+03 -0.76102679083E+02 -0.96236453575E+02  0.24354876551E+03  0.17300000000E+03 0. -1.
<mgrwt>
<rscale>  2 0.22372873E+03</rscale>
<asrwt>0</asrwt>
<pdfrwt beam="1">  1       21 0.13765163E-01 0.22372873E+03</pdfrwt>
<pdfrwt beam="2">  1       21 0.14784981E+00 0.22372873E+03</pdfrwt>
<totfact> 0.13933293E+04</totfact>
</mgrwt>
</event>
<event>
 4    1  0.4050555E+000  0.2438786E+03  0.7546771E-02  0.1117236E+00
         21   -1    0    0  503  502  0.00000000000E+00  0.00000000000E+00  0.99351211983E+03  0.99351211983E+03  0.00000000000E+00 0. -1.
         21   -1    0    0  501  503 -0.00000000000E+00 -0.00000000000E+00 -0.64652888030E+02  0.64652888030E+02  0.00000000000E+00 0.  1.
          6    1    1    2  501    0 -0.14125396885E+03 -0.97954444356E+02  0.32045218967E+03  0.40269884871E+03  0.17300000000E+03 0. -1.
         -6    1    1    2    0  502  0.14125396885E+03  0.97954444356E+02  0.60840704213E+03  0.65546615915E+03  0.17300000000E+03 0.  1.
<mgrwt>
<rscale>  2 0.24387857E+03</rscale>
<asrwt>0</asrwt>
<pdfrwt beam="1">  1       21 0.15284801E+00 0.24387857E+03</pdfrwt>
<pdfrwt beam="2">  1       21 0.99465989E-02 0.24387857E+03</pdfrwt>
<totfact> 0.22581603E+04</totfact>
</mgrwt>
</event>
<event>
 4    1  0.4050555E+000  0.2174856E+03  0.7546771E-02  0.1135772E+00
         21   -1    0    0  501  502  0.00000000000E+00  0.00000000000E+00  0.97045226293E+02  0.97045226293E+02  0.00000000000E+00 0.  1.
         21   -1    0    0  502  503 -0.00000000000E+00 -0.00000000000E+00 -0.10894575697E+04  0.10894575697E+04  0.00000000000E+00 0.  1.
          6    1    1    2  501    0  0.29287572829E+02  0.12850383930E+03 -0.55192510064E+02  0.22437961539E+03  0.17300000000E+03 0.  1.
         -6    1    1    2    0  503 -0.29287572829E+02 -0.12850383930E+03 -0.93721983339E+03  0.96212318064E+03  0.17300000000E+03 0.  1.
<mgrwt>
<rscale>  2 0.21748563E+03</rscale>
<asrwt>0</asrwt>
<pdfrwt beam="1">  1       21 0.14930034E-01 0.21748563E+03</pdfrwt>
<pdfrwt beam="2">  1       21 0.16760886E+00 0.21748563E+03</pdfrwt>
<totfact> 0.86091846E+03</totfact>
</mgrwt>
</event>
<event>
 4    1  0.4050555E+000  0.3600645E+03  0.7546771E-02  0.1058558E+00
         21   -1    0    0  503  502  0.00000000000E+00  0.00000000000E+00  0.19009208903E+04  0.19009208903E+04  0.00000000000E+00 0. -1.
         21   -1    0    0  501  503 -0.00000000000E+00 -0.00000000000E+00 -0.12127119203E+03  0.12127119203E+03  0.00000000000E+00 0.  1.
          6    1    1    2  501    0 -0.45055548880E+02  0.31254989832E+03  0.22096491770E+03  0.42245939009E+03  0.17300000000E+03 0.  1.
         -6    1    1    2    0  502  0.45055548880E+02 -0.31254989832E+03  0.15586847806E+04  0.15997326923E+04  0.17300000000E+03 0. -1.
<mgrwt>
<rscale>  2 0.36006450E+03</rscale>
<asrwt>0</asrwt>
<pdfrwt beam="1">  1       21 0.29244935E+00 0.36006450E+03</pdfrwt>
<pdfrwt beam="2">  1       21 0.18657108E-01 0.36006450E+03</pdfrwt>
<totfact> 0.84431702E+02</totfact>
</mgrwt>
</event>
<event>
 4    1  0.4050555E+000  0.2195465E+03  0.7546771E-02  0.1134222E+00
         21   -1    0    0  503  502  0.00000000000E+00  0.00000000000E+00  0.21857115194E+03  0.21857115194E+03  0.00000000000E+00 0.  1.
         21   -1    0    0  501  503 -0.00000000000E+00 -0.00000000000E+00 -0.30106600634E+03  0.30106600634E+03  0.00000000000E+00 0. -1.
          6    1    1    2  501    0 -0.27449410019E+02  0.13235629515E+03 -0.17563054548E+03  0.28115253419E+03  0.17300000000E+03 0.  1.
         -6    1    1    2    0  502  0.27449410019E+02 -0.13235629515E+03  0.93135691081E+02  0.23848462410E+03  0.17300000000E+03 0.  1.
<mgrwt>
<rscale>  2 0.21954648E+03</rscale>
<asrwt>0</asrwt>
<pdfrwt beam="1">  1       21 0.33626331E-01 0.21954648E+03</pdfrwt>
<pdfrwt beam="2">  1       21 0.46317847E-01 0.21954648E+03</pdfrwt>
<totfact> 0.37522877E+04</totfact>
</mgrwt>
</event>
<event>
 4    1  0.4050555E+000  0.1868885E+03  0.7546771E-02  0.1161298E+00
         21   -1    0    0  503  502  0.00000000000E+00  0.00000000000E+00  0.10720665379E+04  0.10720665379E+04  0.00000000000E+00 0. -1.
         21   -1    0    0  501  503 -0.00000000000E+00 -0.00000000000E+00 -0.47540367973E+02  0.47540367973E+02  0.00000000000E+00 0. -1.
          6    1    1    2  501    0 -0.24799457912E+02  0.66206421559E+02  0.19822386099E+03  0.27243348259E+03  0.17300000000E+03 0. -1.
         -6    1    1    2    0  502  0.24799457912E+02 -0.66206421559E+02  0.82630230893E+03  0.84717342328E+03  0.17300000000E+03 0. -1.
<mgrwt>
<rscale>  2 0.18688848E+03</rscale>
<asrwt>0</asrwt>
<pdfrwt beam="1">  1       21 0.16493330E+00 0.18688848E+03</pdfrwt>
<pdfrwt beam="2">  1       21 0.73139036E-02 0.18688848E+03</pdfrwt>
<totfact> 0.32622090E+04</totfact>
</mgrwt>
</event>
<event>
 4    1  0.4050555E+000  0.1925347E+03  0.7546771E-02  0.1156195E+00
         21   -1    0    0  501  502  0.00000000000E+00  0.00000000000E+00  0.42408966236E+02  0.42408966236E+02  0.00000000000E+00 0.  1.
         21   -1    0    0  502  503 -0.00000000000E+00 -0.00000000000E+00 -0.92975572239E+03  0.92975572239E+03  0.00000000000E+00 0.  1.
          6    1    1    2  501    0  0.10781301326E+01  0.84495175804E+02 -0.32474439232E+03  0.37752949215E+03  0.17300000000E+03 0.  1.
         -6    1    1    2    0  503 -0.10781301326E+01 -0.84495175804E+02 -0.56260236383E+03  0.59463519647E+03  0.17300000000E+03 0.  1.
<mgrwt>
<rscale>  2 0.19253466E+03</rscale>
<asrwt>0</asrwt>
<pdfrwt beam="1">  1       21 0.65244566E-02 0.19253466E+03</pdfrwt>
<pdfrwt beam="2">  1       21 0.14303934E+00 0.19253466E+03</pdfrwt>
<totfact> 0.57803436E+04</totfact>
</mgrwt>
</event>
<event>
 4    1  0.4050555E+000  0.2349486E+03  0.7546771E-02  0.1123204E+00
         21   -1    0    0  501  502  0.00000000000E+00  0.00000000000E+00  0.20078919182E+03  0.20078919182E+03  0.00000000000E+00 0.  1.
         21   -1    0    0  502  503 -0.00000000000E+00 -0.00000000000E+00 -0.27777446630E+03  0.27777446630E+03  0.00000000000E+00 0. -1.
          6    1    1    2  501    0 -0.13344889886E+03  0.86389908989E+02 -0.62751973548E+02  0.24318436456E+03  0.17300000000E+03 0. -1.
         -6    1    1    2    0  503  0.13344889886E+03 -0.86389908989E+02 -0.14233300934E+02  0.23537929356E+03  0.17300000000E+03 0.  1.
<mgrwt>
<rscale>  2 0.23494856E+03</rscale>
<asrwt>0</asrwt>
<pdfrwt beam="1">  1       21 0.30890645E-01 0.23494856E+03</pdfrwt>
<pdfrwt beam="2">  1       21 0.42734533E-01 0.23494856E+03</pdfrwt>
<totfact> 0.52001365E+04</totfact>
</mgrwt>
</event>
<event>
 4    1  0.4050555E+000  0.2137879E+03  0.7546771E-02  0.1138601E+00
         21   -1    0    0  501  502  0.00000000000E+00  0.00000000000E+00  0.12297735594E+03  0.12297735594E+03  0.00000000000E+00 0.  1.
         21   -1    0    0  502  503 -0.00000000000E+00 -0.00000000000E+00 -0.46664640064E+03  0.46664640064E+03  0.00000000000E+00 0. -1.
          6    1    1    2  501    0  0.12449656470E+03 -0.16639292562E+02 -0.38822440340E+02  0.21728424368E+03  0.17300000000E+03 0.  1.
         -6    1    1    2    0  503 -0.12449656470E+03  0.16639292562E+02 -0.30484660436E+03  0.37233951290E+03  0.17300000000E+03 0. -1.
<mgrwt>
<rscale>  2 0.21378789E+03</rscale>
<asrwt>0</asrwt>
<pdfrwt beam="1">  1       21 0.18919593E-01 0.21378789E+03</pdfrwt>
<pdfrwt beam="2">  1       21 0.71791755E-01 0.21378789E+03</pdfrwt>
<totfact> 0.44383942E+04</totfact>
</mgrwt>
</event>
<event>
 4    1  0.4050555E+000  0.2208746E+03  0.7546771E-02  0.1133233E+00
         21   -1    0    0  503  502  0.00000000000E+00  0.00000000000E+00  0.16321144964E+03  0.16321144964E+03  0.00000000000E+00 0. -1.
         21   -1    0    0  501  503 -0.00000000000E+00 -0.00000000000E+00 -0.31376933489E+03  0.31376933489E+03  0.00000000000E+00 0.  1.
          6    1    1    2  501    0 -0.28825818304E+02  0.13425968117E+03 -0.12717810712E+03  0.25487224392E+03  0.17300000000E+03 0.  1.
         -6    1    1    2    0  502  0.28825818304E+02 -0.13425968117E+03 -0.23379778129E+02  0.22210854061E+03  0.17300000000E+03 0. -1.
<mgrwt>
<rscale>  2 0.22087460E+03</rscale>
<asrwt>0</asrwt>
<pdfrwt beam="1">  1       21 0.25109454E-01 0.22087460E+03</pdfrwt>
<pdfrwt beam="2">  1       21 0.48272204E-01 0.22087460E+03</pdfrwt>
<totfact> 0.60800975E+04</totfact>
</mgrwt>
</event>
<event>
 4    1  0.4050555E+000  0.2224058E+03  0.7546771E-02  0.1132102E+00
         21   -1    0    0  501  502  0.00000000000E+00  0.00000000000E+00  0.15490615673E+03  0.15490615673E+03  0.00000000000E+00 0. -1.
         21   -1    0    0  502  503 -0.00000000000E+00 -0.00000000000E+00 -0.37305471227E+03  0.37305471227E+03  0.00000000000E+00 0.  1.
          6    1    1    2  501    0  0.11396322777E+03 -0.80917982386E+02 -0.88851303206E+01  0.22258320399E+03  0.17300000000E+03 0. -1.
         -6    1    1    2    0  503 -0.11396322777E+03  0.80917982386E+02 -0.20926342522E+03  0.30537766502E+03  0.17300000000E+03 0.  1.
<mgrwt>
<rscale>  2 0.22240579E+03</rscale>
<asrwt>0</asrwt>
<pdfrwt beam="1">  1       21 0.23831717E-01 0.22240579E+03</pdfrwt>
<pdfrwt beam="2">  1       21 0.57393032E-01 0.22240579E+03</pdfrwt>
<totfact> 0.46607018E+04</totfact>
</mgrwt>
</event>
<event>
 4    1  0.4050555E+000  0.1800498E+03  0.7546771E-02  0.1167755E+00
         21   -1    0    0  503  502  0.00000000000E+00  0.00000000000E+00  0.10805950918E+04  0.10805950918E+04  0.00000000000E+00 0.  1.
         21   -1    0    0  501  503 -0.00000000000E+00 -0.00000000000E+00 -0.37374879392E+02  0.37374879392E+02  0.00000000000E+00 0.  1.
          6    1    1    2  501    0 -0.16134532179E+02  0.47208085369E+02  0.27330497409E+03  0.32728204246E+03  0.17300000000E+03 0. -1.
         -6    1    1    2    0  502  0.16134532179E+02 -0.47208085369E+02  0.76991523829E+03  0.79068792871E+03  0.17300000000E+03 0. -1.
<mgrwt>
<rscale>  2 0.18004979E+03</rscale>
<asrwt>0</asrwt>
<pdfrwt beam="1">  1       21 0.16624538E+00 0.18004979E+03</pdfrwt>
<pdfrwt beam="2">  1       21 0.57499823E-02 0.18004979E+03</pdfrwt>
<totfact> 0.48468143E+04</totfact>
</mgrwt>
</event>
<event>
 4    1  0.4050555E+000  0.1796632E+03  0.7546771E-02  0.1168129E+00
         21   -1    0    0  501  502  0.00000000000E+00  0.00000000000E+00  0.27335924956E+03  0.27335924956E+03  0.00000000000E+00 0.  1.
         21   -1    0    0  502  503 -0.00000000000E+00 -0.00000000000E+00 -0.14656347565E+03  0.14656347565E+03  0.00000000000E+00 0.  1.
          6    1    1    2  501    0  0.36504720307E+02 -0.31894635033E+02  0.15595423317E+03  0.23790877494E+03  0.17300000000E+03 0.  1.
         -6    1    1    2    0  503 -0.36504720307E+02  0.31894635033E+02 -0.29158459263E+02  0.18201395028E+03  0.17300000000E+03 0.  1.
<mgrwt>
<rscale>  2 0.17966319E+03</rscale>
<asrwt>0</asrwt>
<pdfrwt beam="1">  1       21 0.42055269E-01 0.17966319E+03</pdfrwt>
<pdfrwt beam="2">  1       21 0.22548227E-01 0.17966319E+03</pdfrwt>
<totfact> 0.10076408E+05</totfact>
</mgrwt>
</event>
<event>
 4    1  0.4050555E+000  0.1924391E+03  0.7546771E-02  0.1156280E+00
         21   -1    0    0  501  502  0.00000000000E+00  0.00000000000E+00  0.97426083851E+02  0.97426083851E+02  0.00000000000E+00 0.  1.
         21   -1    0    0  502  503 -0.00000000000E+00 -0.00000000000E+00 -0.82635126099E+03  0.82635126099E+03  0.00000000000E+00 0.  1.
          6    1    1    2  501    0 -0.38653616484E+02 -0.74897940353E+02 -0.25041397250E+02  0.19406152404E+03  0.17300000000E+03 0.  1.
         -6    1    1    2    0  503  0.38653616484E+02  0.74897940353E+02 -0.70388377989E+03  0.72971582080E+03  0.17300000000E+03 0.  1.
<mgrwt>
<rscale>  2 0.19243909E+03</rscale>
<asrwt>0</asrwt>
<pdfrwt beam="1">  1       21 0.14988629E-01 0.19243909E+03</pdfrwt>
<pdfrwt beam="2">  1       21 0.12713096E+00 0.19243909E+03</pdfrwt>
<totfact> 0.17964577E+04</totfact>
</mgrwt>
</event>
<event>
 4    1  0.4050555E+000  0.2438798E+03  0.7546771E-02  0.1117235E+00
         21   -1    0    0  503  502  0.00000000000E+00  0.00000000000E+00  0.89990648622E+03  0.89990648622E+03  0.00000000000E+00 0.  1.
         21   -1    0    0  501  503 -0.00000000000E+00 -0.00000000000E+00 -0.74403927933E+02  0.74403927933E+02  0.00000000000E+00 0. -1.
          6    1    1    2  501    0 -0.41374752922E+02  0.16684270386E+03  0.24993461181E+03  0.34920576770E+03  0.17300000000E+03 0. -1.
         -6    1    1    2    0  502  0.41374752922E+02 -0.16684270386E+03  0.57556794647E+03  0.62510464645E+03  0.17300000000E+03 0. -1.
<mgrwt>
<rscale>  2 0.24387980E+03</rscale>
<asrwt>0</asrwt>
<pdfrwt beam="1">  1       21 0.13844714E+00 0.24387980E+03</pdfrwt>
<pdfrwt beam="2">  1       21 0.11446759E-01 0.24387980E+03</pdfrwt>
<totfact> 0.22809963E+04</totfact>
</mgrwt>
</event>
<event>
 4    1  0.4050555E+000  0.1832967E+03  0.7546771E-02  0.1164650E+00
         21   -1    0    0  503  502  0.00000000000E+00  0.00000000000E+00  0.18421387942E+03  0.18421387942E+03  0.00000000000E+00 0. -1.
         21   -1    0    0  501  503 -0.00000000000E+00 -0.00000000000E+00 -0.24823419396E+03  0.24823419396E+03  0.00000000000E+00 0. -1.
          6    1    1    2  501    0  0.45335394403E+02  0.40166833880E+02 -0.14337588218E+03  0.23271079932E+03  0.17300000000E+03 0. -1.
         -6    1    1    2    0  502 -0.45335394403E+02 -0.40166833880E+02  0.79355567654E+02  0.19973727406E+03  0.17300000000E+03 0. -1.
<mgrwt>
<rscale>  2 0.18329668E+03</rscale>
<asrwt>0</asrwt>
<pdfrwt beam="1">  1       21 0.28340597E-01 0.18329668E+03</pdfrwt>
<pdfrwt beam="2">  1       21 0.38189876E-01 0.18329668E+03</pdfrwt>
<totfact> 0.78995468E+04</totfact>
</mgrwt>
</event>
<event>
 4    1  0.4050555E+000  0.1839770E+03  0.7546771E-02  0.1164009E+00
         21   -1    0    0  503  502  0.00000000000E+00  0.00000000000E+00  0.14548771303E+04  0.14548771303E+04  0.00000000000E+00 0.  1.
         21   -1    0    0  501  503 -0.00000000000E+00 -0.00000000000E+00 -0.23611614033E+02  0.23611614033E+02  0.00000000000E+00 0.  1.
          6    1    1    2  501    0  0.61934391470E+02  0.90923263602E+01  0.62604997583E+03  0.65252288196E+03  0.17300000000E+03 0.  1.
         -6    1    1    2    0  502 -0.61934391470E+02 -0.90923263602E+01  0.80521554048E+03  0.82596586242E+03  0.17300000000E+03 0.  1.
<mgrwt>
<rscale>  2 0.18397701E+03</rscale>
<asrwt>0</asrwt>
<pdfrwt beam="1">  1       21 0.22382718E+00 0.18397701E+03</pdfrwt>
<pdfrwt beam="2">  1       21 0.36325571E-02 0.18397701E+03</pdfrwt>
<totfact> 0.44161940E+04</totfact>
</mgrwt>
</event>
<event>
 4    1  0.4050555E+000  0.2141216E+03  0.7546771E-02  0.1138343E+00
         21   -1    0    0  501  502  0.00000000000E+00  0.00000000000E+00  0.19077576482E+03  0.19077576482E+03  0.00000000000E+00 0. -1.
         21   -1    0    0  502  503 -0.00000000000E+00 -0.00000000000E+00 -0.55305288526E+03  0.55305288526E+03  0.00000000000E+00 0.  1.
          6    1    1    2  501    0 -0.96230253962E+02  0.81601475636E+02  0.98529794336E+02  0.23570359135E+03  0.17300000000E+03 0. -1.
         -6    1    1    2    0  503  0.96230253962E+02 -0.81601475636E+02 -0.46080691478E+03  0.50812505873E+03  0.17300000000E+03 0.  1.
<mgrwt>
<rscale>  2 0.21412161E+03</rscale>
<asrwt>0</asrwt>
<pdfrwt beam="1">  1       21 0.29350118E-01 0.21412161E+03</pdfrwt>
<pdfrwt beam="2">  1       21 0.85085059E-01 0.21412161E+03</pdfrwt>
<totfact> 0.13110301E+04</totfact>
</mgrwt>
</event>
<event>
 4    1  0.4050555E+000  0.2063059E+03  0.7546771E-02  0.1144525E+00
         21   -1    0    0  501  502  0.00000000000E+00  0.00000000000E+00  0.63933919282E+02  0.63933919282E+02  0.00000000000E+00 0. -1.
         21   -1    0    0  502  503 -0.00000000000E+00 -0.00000000000E+00 -0.66965584777E+03  0.66965584777E+03  0.00000000000E+00 0. -1.
          6    1    1    2  501    0 -0.87653947771E+02 -0.70355658858E+02 -0.27474337155E+03  0.34357830768E+03  0.17300000000E+03 0. -1.
         -6    1    1    2    0  503  0.87653947771E+02  0.70355658858E+02 -0.33097855693E+03  0.39001145937E+03  0.17300000000E+03 0. -1.
<mgrwt>
<rscale>  2 0.20630592E+03</rscale>
<asrwt>0</asrwt>
<pdfrwt beam="1">  1       21 0.98359877E-02 0.20630592E+03</pdfrwt>
<pdfrwt beam="2">  1       21 0.10302398E+00 0.20630592E+03</pdfrwt>
<totfact> 0.63463228E+04</totfact>
</mgrwt>
</event>
<event>
 4    1  0.4050555E+000  0.1904965E+03  0.7546771E-02  0.1158014E+00
         21   -1    0    0  503  502  0.00000000000E+00  0.00000000000E+00  0.43815589044E+02  0.43815589044E+02  0.00000000000E+00 0.  1.
         21   -1    0    0  501  503 -0.00000000000E+00 -0.00000000000E+00 -0.19825421098E+04  0.19825421098E+04  0.00000000000E+00 0. -1.
          6    1    1    2  501    0 -0.41179989171E+02 -0.68294442905E+02 -0.17424683244E+04  0.17528504740E+04  0.17300000000E+03 0. -1.
         -6    1    1    2    0  502  0.41179989171E+02  0.68294442905E+02 -0.19625819635E+03  0.27350722491E+03  0.17300000000E+03 0.  1.
<mgrwt>
<rscale>  2 0.19049652E+03</rscale>
<asrwt>0</asrwt>
<pdfrwt beam="1">  1       21 0.67408604E-02 0.19049652E+03</pdfrwt>
<pdfrwt beam="2">  1       21 0.30500645E+00 0.19049652E+03</pdfrwt>
<totfact> 0.51699426E+03</totfact>
</mgrwt>
</event>
<event>
 4    1  0.4050555E+000  0.1957524E+03  0.7546771E-02  0.1153373E+00
         21   -1    0    0  503  502  0.00000000000E+00  0.00000000000E+00  0.42865771747E+03  0.42865771747E+03  0.00000000000E+00 0. -1.
         21   -1    0    0  501  503 -0.00000000000E+00 -0.00000000000E+00 -0.10964292412E+03  0.10964292412E+03  0.00000000000E+00 0.  1.
          6    1    1    2  501    0 -0.29815745816E+02  0.86608503455E+02  0.43838660297E+02  0.20060119567E+03  0.17300000000E+03 0.  1.
         -6    1    1    2    0  502  0.29815745816E+02 -0.86608503455E+02  0.27517613305E+03  0.33769944591E+03  0.17300000000E+03 0.  1.
<mgrwt>
<rscale>  2 0.19575242E+03</rscale>
<asrwt>0</asrwt>
<pdfrwt beam="1">  1       21 0.65947340E-01 0.19575242E+03</pdfrwt>
<pdfrwt beam="2">  1       21 0.16868142E-01 0.19575242E+03</pdfrwt>
<totfact> 0.66740803E+04</totfact>
</mgrwt>
</event>
<event>
 4    1  0.4050555E+000  0.2161035E+03  0.7546771E-02  0.1136822E+00
         21   -1    0    0  501  502  0.00000000000E+00  0.00000000000E+00  0.63218196854E+02  0.63218196854E+02  0.00000000000E+00 0.  1.
         21   -1    0    0  502  503 -0.00000000000E+00 -0.00000000000E+00 -0.13114461710E+04  0.13114461710E+04  0.00000000000E+00 0. -1.
          6    1    1    2  501    0 -0.69364545151E+02  0.10936304939E+03 -0.16989640800E+03  0.27489180808E+03  0.17300000000E+03 0.  1.
         -6    1    1    2    0  503  0.69364545151E+02 -0.10936304939E+03 -0.10783315662E+04  0.10997725598E+04  0.17300000000E+03 0. -1.
<mgrwt>
<rscale>  2 0.21610349E+03</rscale>
<asrwt>0</asrwt>
<pdfrwt beam="1">  1       21 0.97258765E-02 0.21610349E+03</pdfrwt>
<pdfrwt beam="2">  1       21 0.20176095E+00 0.21610349E+03</pdfrwt>
<totfact> 0.10940276E+04</totfact>
</mgrwt>
</event>
<event>
 4    1  0.4050555E+000  0.1879041E+03  0.7546771E-02  0.1160365E+00
         21   -1    0    0  503  502  0.00000000000E+00  0.00000000000E+00  0.26460703714E+03  0.26460703714E+03  0.00000000000E+00 0.  1.
         21   -1    0    0  501  503 -0.00000000000E+00 -0.00000000000E+00 -0.13755225544E+03  0.13755225544E+03  0.00000000000E+00 0.  1.
          6    1    1    2  501    0  0.68034003332E+02 -0.27391764515E+02  0.28740200806E+02  0.19008927775E+03  0.17300000000E+03 0.  1.
         -6    1    1    2    0  502 -0.68034003332E+02  0.27391764515E+02  0.98314580891E+02  0.21207001483E+03  0.17300000000E+03 0.  1.
<mgrwt>
<rscale>  2 0.18790406E+03</rscale>
<asrwt>0</asrwt>
<pdfrwt beam="1">  1       21 0.40708775E-01 0.18790406E+03</pdfrwt>
<pdfrwt beam="2">  1       21 0.21161886E-01 0.18790406E+03</pdfrwt>
<totfact> 0.12092268E+05</totfact>
</mgrwt>
</event>
<event>
 4    1  0.4050555E+000  0.1837943E+03  0.7546771E-02  0.1164181E+00
         21   -1    0    0  501  502  0.00000000000E+00  0.00000000000E+00  0.20159230615E+04  0.20159230615E+04  0.00000000000E+00 0.  1.
         21   -1    0    0  502  503 -0.00000000000E+00 -0.00000000000E+00 -0.18135507270E+02  0.18135507270E+02  0.00000000000E+00 0. -1.
          6    1    1    2  501    0 -0.62014462718E+02 -0.23555375485E+01  0.12793148749E+04  0.12924499570E+04  0.17300000000E+03 0.  1.
         -6    1    1    2    0  503  0.62014462718E+02  0.23555375485E+01  0.71847267928E+03  0.74160861175E+03  0.17300000000E+03 0. -1.
<mgrwt>
<rscale>  2 0.18379429E+03</rscale>
<asrwt>0</asrwt>
<pdfrwt beam="1">  1       21 0.31014183E+00 0.18379429E+03</pdfrwt>
<pdfrwt beam="2">  1       21 0.27900796E-02 0.18379429E+03</pdfrwt>
<totfact> 0.21481569E+04</totfact>
</mgrwt>
</event>
<event>
 4    1  0.4050555E+000  0.2394368E+03  0.7546771E-02  0.1120169E+00
         21   -1    0    0  501  502  0.00000000000E+00  0.00000000000E+00  0.78007207427E+03  0.78007207427E+03  0.00000000000E+00 0.  1.
         21   -1    0    0  502  503 -0.00000000000E+00 -0.00000000000E+00 -0.73582647365E+02  0.73582647365E+02  0.00000000000E+00 0.  1.
          6    1    1    2  501    0  0.10988895008E+02  0.16516719783E+03  0.33835954170E+03  0.41450830934E+03  0.17300000000E+03 0.  1.
         -6    1    1    2    0  503 -0.10988895008E+02 -0.16516719783E+03  0.36812988521E+03  0.43914641230E+03  0.17300000000E+03 0.  1.
<mgrwt>
<rscale>  2 0.23943675E+03</rscale>
<asrwt>0</asrwt>
<pdfrwt beam="1">  1       21 0.12001108E+00 0.23943675E+03</pdfrwt>
<pdfrwt beam="2">  1       21 0.11320408E-01 0.23943675E+03</pdfrwt>
<totfact> 0.33527074E+04</totfact>
</mgrwt>
</event>
<event>
 4    1  0.4050555E+000  0.2364681E+03  0.7546771E-02  0.1122168E+00
         21   -1    0    0  503  502  0.00000000000E+00  0.00000000000E+00  0.67121164531E+03  0.67121164531E+03  0.00000000000E+00 0.  1.
         21   -1    0    0  501  503 -0.00000000000E+00 -0.00000000000E+00 -0.15322143717E+03  0.15322143717E+03  0.00000000000E+00 0.  1.
          6    1    1    2  501    0 -0.14928137645E+03 -0.60854023587E+02 -0.19454566379E+02  0.23726698399E+03  0.17300000000E+03 0.  1.
         -6    1    1    2    0  502  0.14928137645E+03  0.60854023587E+02  0.53744477452E+03  0.58716609848E+03  0.17300000000E+03 0.  1.
<mgrwt>
<rscale>  2 0.23646806E+03</rscale>
<asrwt>0</asrwt>
<pdfrwt beam="1">  1       21 0.10326333E+00 0.23646806E+03</pdfrwt>
<pdfrwt beam="2">  1       21 0.23572529E-01 0.23646806E+03</pdfrwt>
<totfact> 0.12527869E+04</totfact>
</mgrwt>
</event>
<event>
 4    1  0.4050555E+000  0.1784019E+03  0.7546771E-02  0.1169359E+00
         21   -1    0    0  503  502  0.00000000000E+00  0.00000000000E+00  0.91312978152E+03  0.91312978152E+03  0.00000000000E+00 0.  1.
         21   -1    0    0  501  503 -0.00000000000E+00 -0.00000000000E+00 -0.18005151126E+03  0.18005151126E+03  0.00000000000E+00 0.  1.
          6    1    1    2  501    0 -0.36610092350E+02  0.23620832756E+02 -0.12430287983E+03  0.21743607919E+03  0.17300000000E+03 0.  1.
         -6    1    1    2    0  502  0.36610092350E+02 -0.23620832756E+02  0.85738115008E+03  0.87574521359E+03  0.17300000000E+03 0.  1.
<mgrwt>
<rscale>  2 0.17840191E+03</rscale>
<asrwt>0</asrwt>
<pdfrwt beam="1">  1       21 0.14048150E+00 0.17840191E+03</pdfrwt>
<pdfrwt beam="2">  1       21 0.27700233E-01 0.17840191E+03</pdfrwt>
<totfact> 0.44666353E+03</totfact>
</mgrwt>
</event>
<event>
 4    1  0.4050555E+000  0.2935384E+03  0.7546771E-02  0.1088516E+00
         21   -1    0    0  501  502  0.00000000000E+00  0.00000000000E+00  0.59154054308E+03  0.59154054308E+03  0.00000000000E+00 0. -1.
         21   -1    0    0  502  503 -0.00000000000E+00 -0.00000000000E+00 -0.16308771696E+03  0.16308771696E+03  0.00000000000E+00 0.  1.
          6    1    1    2  501    0  0.16244593999E+03 -0.17276317848E+03  0.33756289270E+03  0.44734048083E+03  0.17300000000E+03 0. -1.
         -6    1    1    2    0  503 -0.16244593999E+03  0.17276317848E+03  0.90889933409E+02  0.30728777921E+03  0.17300000000E+03 0.  1.
<mgrwt>
<rscale>  2 0.29353841E+03</rscale>
<asrwt>0</asrwt>
<pdfrwt beam="1">  1       21 0.91006236E-01 0.29353841E+03</pdfrwt>
<pdfrwt beam="2">  1       21 0.25090418E-01 0.29353841E+03</pdfrwt>
<totfact> 0.14582498E+04</totfact>
</mgrwt>
</event>
<event>
 4    1  0.4050555E+000  0.1841083E+03  0.7546771E-02  0.1163885E+00
         21   -1    0    0  501  502  0.00000000000E+00  0.00000000000E+00  0.16203776723E+03  0.16203776723E+03  0.00000000000E+00 0. -1.
         21   -1    0    0  502  503 -0.00000000000E+00 -0.00000000000E+00 -0.21171595479E+03  0.21171595479E+03  0.00000000000E+00 0. -1.
          6    1    1    2  501    0 -0.35222092363E+01 -0.62884506316E+02 -0.44065400584E+01  0.18416102923E+03  0.17300000000E+03 0. -1.
         -6    1    1    2    0  503  0.35222092363E+01  0.62884506316E+02 -0.45271647496E+02  0.18959269279E+03  0.17300000000E+03 0. -1.
<mgrwt>
<rscale>  2 0.18410830E+03</rscale>
<asrwt>0</asrwt>
<pdfrwt beam="1">  1       21 0.24928887E-01 0.18410830E+03</pdfrwt>
<pdfrwt beam="2">  1       21 0.32571685E-01 0.18410830E+03</pdfrwt>
<totfact> 0.13853544E+05</totfact>
</mgrwt>
</event>
<event>
 4    1  0.4050555E+000  0.1756163E+03  0.7546771E-02  0.1172114E+00
         21   -1    0    0  503  502  0.00000000000E+00  0.00000000000E+00  0.35383505993E+03  0.35383505993E+03  0.00000000000E+00 0. -1.
         21   -1    0    0  501  503 -0.00000000000E+00 -0.00000000000E+00 -0.92612062830E+02  0.92612062830E+02  0.00000000000E+00 0. -1.
          6    1    1    2  501    0  0.24840061718E+02  0.17176720056E+02  0.76461793101E+02  0.19153974570E+03  0.17300000000E+03 0. -1.
         -6    1    1    2    0  502 -0.24840061718E+02 -0.17176720056E+02  0.18476120400E+03  0.25490737706E+03  0.17300000000E+03 0. -1.
<mgrwt>
<rscale>  2 0.17561625E+03</rscale>
<asrwt>0</asrwt>
<pdfrwt beam="1">  1       21 0.54436162E-01 0.17561625E+03</pdfrwt>
<pdfrwt beam="2">  1       21 0.14248010E-01 0.17561625E+03</pdfrwt>
<totfact> 0.13810607E+05</totfact>
</mgrwt>
</event>
<event>
 4    1  0.4050555E+000  0.1850206E+03  0.7546771E-02  0.1163031E+00
         21   -1    0    0  501  502  0.00000000000E+00  0.00000000000E+00  0.56150947128E+02  0.56150947128E+02  0.00000000000E+00 0.  1.
         21   -1    0    0  502  503 -0.00000000000E+00 -0.00000000000E+00 -0.63211181726E+03  0.63211181726E+03  0.00000000000E+00 0.  1.
          6    1    1    2  501    0  0.33190427479E+02  0.56586388913E+02 -0.22311467520E+03  0.28984958543E+03  0.17300000000E+03 0.  1.
         -6    1    1    2    0  503 -0.33190427479E+02 -0.56586388913E+02 -0.35284619493E+03  0.39841317895E+03  0.17300000000E+03 0.  1.
<mgrwt>
<rscale>  2 0.18502060E+03</rscale>
<asrwt>0</asrwt>
<pdfrwt beam="1">  1       21 0.86386071E-02 0.18502060E+03</pdfrwt>
<pdfrwt beam="2">  1       21 0.97247974E-01 0.18502060E+03</pdfrwt>
<totfact> 0.92322278E+04</totfact>
</mgrwt>
</event>
<event>
 4    1  0.4050555E+000  0.2054367E+03  0.7546771E-02  0.1145231E+00
         21   -1    0    0  503  502  0.00000000000E+00  0.00000000000E+00  0.21908268966E+03  0.21908268966E+03  0.00000000000E+00 0.  1.
         21   -1    0    0  501  503 -0.00000000000E+00 -0.00000000000E+00 -0.19376015540E+03  0.19376015540E+03  0.00000000000E+00 0.  1.
          6    1    1    2  501    0 -0.49524465361E+02 -0.99108887607E+02 -0.30287902266E+01  0.20545904176E+03  0.17300000000E+03 0.  1.
         -6    1    1    2    0  502  0.49524465361E+02  0.99108887607E+02  0.28351324482E+02  0.20738380330E+03  0.17300000000E+03 0.  1.
<mgrwt>
<rscale>  2 0.20543672E+03</rscale>
<asrwt>0</asrwt>
<pdfrwt beam="1">  1       21 0.33705029E-01 0.20543672E+03</pdfrwt>
<pdfrwt beam="2">  1       21 0.29809255E-01 0.20543672E+03</pdfrwt>
<totfact> 0.91006138E+04</totfact>
</mgrwt>
</event>
<event>
 4    1  0.4050555E+000  0.2473054E+03  0.7546771E-02  0.1115020E+00
         21   -1    0    0  501  502  0.00000000000E+00  0.00000000000E+00  0.12073469031E+03  0.12073469031E+03  0.00000000000E+00 0.  1.
         21   -1    0    0  502  503 -0.00000000000E+00 -0.00000000000E+00 -0.57275998263E+03  0.57275998263E+03  0.00000000000E+00 0. -1.
          6    1    1    2  501    0 -0.13047505501E+03  0.11919409454E+03 -0.10813288849E+03  0.26991238157E+03  0.17300000000E+03 0.  1.
         -6    1    1    2    0  503  0.13047505501E+03 -0.11919409454E+03 -0.34389240383E+03  0.42358229137E+03  0.17300000000E+03 0. -1.
<mgrwt>
<rscale>  2 0.24730542E+03</rscale>
<asrwt>0</asrwt>
<pdfrwt beam="1">  1       21 0.18574568E-01 0.24730542E+03</pdfrwt>
<pdfrwt beam="2">  1       21 0.88116919E-01 0.24730542E+03</pdfrwt>
<totfact> 0.28399304E+04</totfact>
</mgrwt>
</event>
<event>
 4    1  0.4050555E+000  0.2090329E+03  0.7546771E-02  0.1142334E+00
         21   -1    0    0  503  502  0.00000000000E+00  0.00000000000E+00  0.35314162517E+03  0.35314162517E+03  0.00000000000E+00 0.  1.
         21   -1    0    0  501  503 -0.00000000000E+00 -0.00000000000E+00 -0.25477858557E+03  0.25477858557E+03  0.00000000000E+00 0.  1.
          6    1    1    2  501    0 -0.11600162809E+03  0.17588683332E+02 -0.16881463092E+03  0.26868777254E+03  0.17300000000E+03 0.  1.
         -6    1    1    2    0  502  0.11600162809E+03 -0.17588683332E+02  0.26717767052E+03  0.33923243819E+03  0.17300000000E+03 0.  1.
<mgrwt>
<rscale>  2 0.20903287E+03</rscale>
<asrwt>0</asrwt>
<pdfrwt beam="1">  1       21 0.54329481E-01 0.20903287E+03</pdfrwt>
<pdfrwt beam="2">  1       21 0.39196705E-01 0.20903287E+03</pdfrwt>
<totfact> 0.19892158E+04</totfact>
</mgrwt>
</event>
<event>
 4    1  0.4050555E+000  0.2005653E+03  0.7546771E-02  0.1149263E+00
         21   -1    0    0  503  502  0.00000000000E+00  0.00000000000E+00  0.73642546771E+02  0.73642546771E+02  0.00000000000E+00 0. -1.
         21   -1    0    0  501  503 -0.00000000000E+00 -0.00000000000E+00 -0.58233778889E+03  0.58233778889E+03  0.00000000000E+00 0. -1.
          6    1    1    2  501    0 -0.86844850882E+02 -0.52492070839E+02 -0.33600933076E+03  0.39131664414E+03  0.17300000000E+03 0. -1.
         -6    1    1    2    0  502  0.86844850882E+02  0.52492070839E+02 -0.17268591136E+03  0.26466369152E+03  0.17300000000E+03 0. -1.
<mgrwt>
<rscale>  2 0.20056532E+03</rscale>
<asrwt>0</asrwt>
<pdfrwt beam="1">  1       21 0.11329622E-01 0.20056532E+03</pdfrwt>
<pdfrwt beam="2">  1       21 0.89590434E-01 0.20056532E+03</pdfrwt>
<totfact> 0.68782914E+04</totfact>
</mgrwt>
</event>
<event>
 4    1  0.4050555E+000  0.1882188E+03  0.7546771E-02  0.1160078E+00
         21   -1    0    0  503  502  0.00000000000E+00  0.00000000000E+00  0.81317816069E+02  0.81317816069E+02  0.00000000000E+00 0. -1.
         21   -1    0    0  501  503 -0.00000000000E+00 -0.00000000000E+00 -0.45755531254E+03  0.45755531254E+03  0.00000000000E+00 0. -1.
          6    1    1    2  501    0 -0.67340317516E+02  0.31025730433E+02 -0.24706879199E+03  0.31059507769E+03  0.17300000000E+03 0. -1.
         -6    1    1    2    0  502  0.67340317516E+02 -0.31025730433E+02 -0.12916870448E+03  0.22827805092E+03  0.17300000000E+03 0. -1.
<mgrwt>
<rscale>  2 0.18821879E+03</rscale>
<asrwt>0</asrwt>
<pdfrwt beam="1">  1       21 0.12510433E-01 0.18821879E+03</pdfrwt>
<pdfrwt beam="2">  1       21 0.70393125E-01 0.18821879E+03</pdfrwt>
<totfact> 0.99845425E+04</totfact>
</mgrwt>
</event>
<event>
 4    1  0.4050555E+000  0.1831260E+03  0.7546771E-02  0.1164812E+00
         21   -1    0    0  503  502  0.00000000000E+00  0.00000000000E+00  0.20161102260E+02  0.20161102260E+02  0.00000000000E+00 0. -1.
         21   -1    0    0  501  503 -0.00000000000E+00 -0.00000000000E+00 -0.17423619666E+04  0.17423619666E+04  0.00000000000E+00 0. -1.
          6    1    1    2  501    0  0.58299868228E+01 -0.59767287679E+02 -0.10487561864E+04  0.10646241853E+04  0.17300000000E+03 0. -1.
         -6    1    1    2    0  502 -0.58299868228E+01  0.59767287679E+02 -0.67344467795E+03  0.69789888356E+03  0.17300000000E+03 0. -1.
<mgrwt>
<rscale>  2 0.18312596E+03</rscale>
<asrwt>0</asrwt>
<pdfrwt beam="1">  1       21 0.31017077E-02 0.18312596E+03</pdfrwt>
<pdfrwt beam="2">  1       21 0.26805572E+00 0.18312596E+03</pdfrwt>
<totfact> 0.31501084E+04</totfact>
</mgrwt>
</event>
<event>
 4    1  0.4050555E+000  0.2004785E+03  0.7546771E-02  0.1149336E+00
         21   -1    0    0  501  502  0.00000000000E+00  0.00000000000E+00  0.15484431867E+03  0.15484431867E+03  0.00000000000E+00 0.  1.
         21   -1    0    0  502  503 -0.00000000000E+00 -0.00000000000E+00 -0.32666352226E+03  0.32666352226E+03  0.00000000000E+00 0.  1.
          6    1    1    2  501    0  0.42517567457E+02 -0.91950502202E+02  0.23206927363E+02  0.20181724375E+03  0.17300000000E+03 0.  1.
         -6    1    1    2    0  503 -0.42517567457E+02  0.91950502202E+02 -0.19502613095E+03  0.27969059718E+03  0.17300000000E+03 0.  1.
<mgrwt>
<rscale>  2 0.20047852E+03</rscale>
<asrwt>0</asrwt>
<pdfrwt beam="1">  1       21 0.23822203E-01 0.20047852E+03</pdfrwt>
<pdfrwt beam="2">  1       21 0.50255926E-01 0.20047852E+03</pdfrwt>
<totfact> 0.62374799E+04</totfact>
</mgrwt>
</event>
<event>
 4    1  0.4050555E+000  0.3211095E+03  0.7546771E-02  0.1075140E+00
         21   -1    0    0  503  502  0.00000000000E+00  0.00000000000E+00  0.85445383742E+03  0.85445383742E+03  0.00000000000E+00 0. -1.
         21   -1    0    0  501  503 -0.00000000000E+00 -0.00000000000E+00 -0.15327626259E+03  0.15327626259E+03  0.00000000000E+00 0.  1.
          6    1    1    2  501    0 -0.26668628485E+03  0.45395300375E+02  0.11821171041E+03  0.34217731705E+03  0.17300000000E+03 0.  1.
         -6    1    1    2    0  502  0.26668628485E+03 -0.45395300375E+02  0.58296586443E+03  0.66555278296E+03  0.17300000000E+03 0. -1.
<mgrwt>
<rscale>  2 0.32110950E+03</rscale>
<asrwt>0</asrwt>
<pdfrwt beam="1">  1       21 0.13145443E+00 0.32110950E+03</pdfrwt>
<pdfrwt beam="2">  1       21 0.23580964E-01 0.32110950E+03</pdfrwt>
<totfact> 0.65751086E+03</totfact>
</mgrwt>
</event>
<event>
 4    1  0.4050555E+000  0.2067418E+03  0.7546771E-02  0.1144172E+00
         21   -1    0    0  501  502  0.00000000000E+00  0.00000000000E+00  0.24453835201E+03  0.24453835201E+03  0.00000000000E+00 0.  1.
         21   -1    0    0  502  503 -0.00000000000E+00 -0.00000000000E+00 -0.28911682980E+03  0.28911682980E+03  0.00000000000E+00 0. -1.
          6    1    1    2  501    0 -0.99888820187E+02  0.53248546500E+02  0.14550357894E+03  0.25281114609E+03  0.17300000000E+03 0.  1.
         -6    1    1    2    0  503  0.99888820187E+02 -0.53248546500E+02 -0.19008205674E+03  0.28084403571E+03  0.17300000000E+03 0. -1.
<mgrwt>
<rscale>  2 0.20674183E+03</rscale>
<asrwt>0</asrwt>
<pdfrwt beam="1">  1       21 0.37621285E-01 0.20674183E+03</pdfrwt>
<pdfrwt beam="2">  1       21 0.44479512E-01 0.20674183E+03</pdfrwt>
<totfact> 0.32820225E+04</totfact>
</mgrwt>
</event>
<event>
 4    1  0.4050555E+000  0.1980084E+03  0.7546771E-02  0.1151430E+00
         21   -1    0    0  501  502  0.00000000000E+00  0.00000000000E+00  0.19082373899E+03  0.19082373899E+03  0.00000000000E+00 0. -1.
         21   -1    0    0  502  503 -0.00000000000E+00 -0.00000000000E+00 -0.20628738457E+03  0.20628738457E+03  0.00000000000E+00 0.  1.
          6    1    1    2  501    0  0.59902663588E+02  0.75431941154E+02 -0.20280207024E+02  0.19904420024E+03  0.17300000000E+03 0. -1.
         -6    1    1    2    0  503 -0.59902663588E+02 -0.75431941154E+02  0.48165614458E+01  0.19806692332E+03  0.17300000000E+03 0.  1.
<mgrwt>
<rscale>  2 0.19800835E+03</rscale>
<asrwt>0</asrwt>
<pdfrwt beam="1">  1       21 0.29357498E-01 0.19800835E+03</pdfrwt>
<pdfrwt beam="2">  1       21 0.31736521E-01 0.19800835E+03</pdfrwt>
<totfact> 0.10587908E+05</totfact>
</mgrwt>
</event>
<event>
 4    1  0.4050555E+000  0.1769477E+03  0.7546771E-02  0.1170790E+00
         21   -1    0    0  503  502  0.00000000000E+00  0.00000000000E+00  0.14693977392E+03  0.14693977392E+03  0.00000000000E+00 0.  1.
         21   -1    0    0  501  503 -0.00000000000E+00 -0.00000000000E+00 -0.37698573185E+03  0.37698573185E+03  0.00000000000E+00 0.  1.
          6    1    1    2  501    0  0.27939634234E+02  0.24512552871E+02 -0.28775350596E+03  0.33780551890E+03  0.17300000000E+03 0.  1.
         -6    1    1    2    0  502 -0.27939634234E+02 -0.24512552871E+02  0.57707548036E+02  0.18611998686E+03  0.17300000000E+03 0.  1.
<mgrwt>
<rscale>  2 0.17694770E+03</rscale>
<asrwt>0</asrwt>
<pdfrwt beam="1">  1       21 0.22606119E-01 0.17694770E+03</pdfrwt>
<pdfrwt beam="2">  1       21 0.57997805E-01 0.17694770E+03</pdfrwt>
<totfact> 0.51479744E+04</totfact>
</mgrwt>
</event>
<event>
 4    1  0.4050555E+000  0.1794118E+03  0.7546771E-02  0.1168374E+00
         21   -1    0    0  501  502  0.00000000000E+00  0.00000000000E+00  0.48923409031E+03  0.48923409031E+03  0.00000000000E+00 0. -1.
         21   -1    0    0  502  503 -0.00000000000E+00 -0.00000000000E+00 -0.72076817375E+02  0.72076817375E+02  0.00000000000E+00 0.  1.
          6    1    1    2  501    0  0.47020737534E+02  0.69746617519E+01  0.29144112937E+03  0.34223753090E+03  0.17300000000E+03 0. -1.
         -6    1    1    2    0  503 -0.47020737534E+02 -0.69746617519E+01  0.12571614356E+03  0.21907337679E+03  0.17300000000E+03 0.  1.
<mgrwt>
<rscale>  2 0.17941180E+03</rscale>
<asrwt>0</asrwt>
<pdfrwt beam="1">  1       21 0.75266781E-01 0.17941180E+03</pdfrwt>
<pdfrwt beam="2">  1       21 0.11088741E-01 0.17941180E+03</pdfrwt>
<totfact> 0.10710936E+05</totfact>
</mgrwt>
</event>
<event>
 4    1  0.4050555E+000  0.2142518E+03  0.7546771E-02  0.1138243E+00
         21   -1    0    0  503  502  0.00000000000E+00  0.00000000000E+00  0.68329452000E+03  0.68329452000E+03  0.00000000000E+00 0.  1.
         21   -1    0    0  501  503 -0.00000000000E+00 -0.00000000000E+00 -0.10088071420E+03  0.10088071420E+03  0.00000000000E+00 0.  1.
          6    1    1    2  501    0  0.11748067753E+03 -0.46616612060E+02  0.64587163960E+02  0.22377515470E+03  0.17300000000E+03 0.  1.
         -6    1    1    2    0  502 -0.11748067753E+03  0.46616612060E+02  0.51782664184E+03  0.56040007950E+03  0.17300000000E+03 0.  1.
<mgrwt>
<rscale>  2 0.21425176E+03</rscale>
<asrwt>0</asrwt>
<pdfrwt beam="1">  1       21 0.10512223E+00 0.21425176E+03</pdfrwt>
<pdfrwt beam="2">  1       21 0.15520110E-01 0.21425176E+03</pdfrwt>
<totfact> 0.26523610E+04</totfact>
</mgrwt>
</event>
<event>
 4    1  0.4050555E+000  0.2371562E+03  0.7546771E-02  0.1121702E+00
         21   -1    0    0  503  502  0.00000000000E+00  0.00000000000E+00  0.16636501323E+03  0.16636501323E+03  0.00000000000E+00 0.  1.
         21   -1    0    0  501  503 -0.00000000000E+00 -0.00000000000E+00 -0.64485953980E+03  0.64485953980E+03  0.00000000000E+00 0.  1.
          6    1    1    2  501    0 -0.54853289625E+02 -0.15266035619E+03 -0.51901562368E+03  0.57063147947E+03  0.17300000000E+03 0.  1.
         -6    1    1    2    0  502  0.54853289625E+02  0.15266035619E+03  0.40521097107E+02  0.24059307356E+03  0.17300000000E+03 0.  1.
<mgrwt>
<rscale>  2 0.23715621E+03</rscale>
<asrwt>0</asrwt>
<pdfrwt beam="1">  1       21 0.25594618E-01 0.23715621E+03</pdfrwt>
<pdfrwt beam="2">  1       21 0.99209159E-01 0.23715621E+03</pdfrwt>
<totfact> 0.11774697E+04</totfact>
</mgrwt>
</event>
<event>
 4    1  0.4050555E+000  0.2517898E+03  0.7546771E-02  0.1112179E+00
         21   -1    0    0  501  502  0.00000000000E+00  0.00000000000E+00  0.13085396394E+04  0.13085396394E+04  0.00000000000E+00 0.  1.
         21   -1    0    0  502  503 -0.00000000000E+00 -0.00000000000E+00 -0.50796426026E+02  0.50796426026E+02  0.00000000000E+00 0. -1.
          6    1    1    2  501    0 -0.82121555283E+02 -0.16347836828E+03  0.77496395076E+03  0.81484185688E+03  0.17300000000E+03 0.  1.
         -6    1    1    2    0  503  0.82121555283E+02  0.16347836828E+03  0.48277926261E+03  0.54449420855E+03  0.17300000000E+03 0.  1.
<mgrwt>
<rscale>  2 0.25178985E+03</rscale>
<asrwt>0</asrwt>
<pdfrwt beam="1">  1       21 0.20131377E+00 0.25178985E+03</pdfrwt>
<pdfrwt beam="2">  1       21 0.78148358E-02 0.25178985E+03</pdfrwt>
<totfact> 0.15784066E+04</totfact>
</mgrwt>
</event>
<event>
 4    1  0.4050555E+000  0.1870650E+03  0.7546771E-02  0.1161135E+00
         21   -1    0    0  503  502  0.00000000000E+00  0.00000000000E+00  0.22103333838E+03  0.22103333838E+03  0.00000000000E+00 0. -1.
         21   -1    0    0  501  503 -0.00000000000E+00 -0.00000000000E+00 -0.16367630280E+03  0.16367630280E+03  0.00000000000E+00 0.  1.
          6    1    1    2  501    0  0.64584812191E+02  0.29885265014E+02 -0.61284174954E+01  0.18716539352E+03  0.17300000000E+03 0.  1.
         -6    1    1    2    0  502 -0.64584812191E+02 -0.29885265014E+02  0.63485453084E+02  0.19754424766E+03  0.17300000000E+03 0.  1.
<mgrwt>
<rscale>  2 0.18706503E+03</rscale>
<asrwt>0</asrwt>
<pdfrwt beam="1">  1       21 0.34005129E-01 0.18706503E+03</pdfrwt>
<pdfrwt beam="2">  1       21 0.25180970E-01 0.18706503E+03</pdfrwt>
<totfact> 0.12471849E+05</totfact>
</mgrwt>
</event>
<event>
 4    1  0.4050555E+000  0.1758108E+03  0.7546771E-02  0.1171920E+00
         21   -1    0    0  503  502  0.00000000000E+00  0.00000000000E+00  0.73689847881E+02  0.73689847881E+02  0.00000000000E+00 0.  1.
         21   -1    0    0  501  503 -0.00000000000E+00 -0.00000000000E+00 -0.42457094432E+03  0.42457094432E+03  0.00000000000E+00 0.  1.
          6    1    1    2  501    0 -0.18334206107E+02  0.25382868960E+02 -0.20279299995E+03  0.26839231356E+03  0.17300000000E+03 0.  1.
         -6    1    1    2    0  502  0.18334206107E+02 -0.25382868960E+02 -0.14808809649E+03  0.22986847864E+03  0.17300000000E+03 0.  1.
<mgrwt>
<rscale>  2 0.17581079E+03</rscale>
<asrwt>0</asrwt>
<pdfrwt beam="1">  1       21 0.11336899E-01 0.17581079E+03</pdfrwt>
<pdfrwt beam="2">  1       21 0.65318608E-01 0.17581079E+03</pdfrwt>
<totfact> 0.14087276E+05</totfact>
</mgrwt>
</event>
<event>
 4    1  0.4050555E+000  0.1901825E+03  0.7546771E-02  0.1158297E+00
         21   -1    0    0  503  502  0.00000000000E+00  0.00000000000E+00  0.38789702799E+02  0.38789702799E+02  0.00000000000E+00 0. -1.
         21   -1    0    0  501  503 -0.00000000000E+00 -0.00000000000E+00 -0.10167282161E+04  0.10167282161E+04  0.00000000000E+00 0. -1.
          6    1    1    2  501    0 -0.59960050241E+01  0.78768153274E+02 -0.64091776643E+03  0.66853942095E+03  0.17300000000E+03 0. -1.
         -6    1    1    2    0  502  0.59960050241E+01 -0.78768153274E+02 -0.33702074685E+03  0.38697849793E+03  0.17300000000E+03 0. -1.
<mgrwt>
<rscale>  2 0.19018248E+03</rscale>
<asrwt>0</asrwt>
<pdfrwt beam="1">  1       21 0.59676472E-02 0.19018248E+03</pdfrwt>
<pdfrwt beam="2">  1       21 0.15641971E+00 0.19018248E+03</pdfrwt>
<totfact> 0.53305664E+04</totfact>
</mgrwt>
</event>
<event>
 4    1  0.4050555E+000  0.2408305E+03  0.7546771E-02  0.1119241E+00
         21   -1    0    0  503  502  0.00000000000E+00  0.00000000000E+00  0.14957804348E+04  0.14957804348E+04  0.00000000000E+00 0. -1.
         21   -1    0    0  501  503 -0.00000000000E+00 -0.00000000000E+00 -0.99054206480E+02  0.99054206480E+02  0.00000000000E+00 0. -1.
          6    1    1    2  501    0 -0.13113209232E+03 -0.10428190837E+03  0.76303697261E+02  0.25262936541E+03  0.17300000000E+03 0. -1.
         -6    1    1    2    0  502  0.13113209232E+03  0.10428190837E+03  0.13204225311E+04  0.13422052759E+04  0.17300000000E+03 0. -1.
<mgrwt>
<rscale>  2 0.24083053E+03</rscale>
<asrwt>0</asrwt>
<pdfrwt beam="1">  1       21 0.23012005E+00 0.24083053E+03</pdfrwt>
<pdfrwt beam="2">  1       21 0.15239110E-01 0.24083053E+03</pdfrwt>
<totfact> 0.31786625E+03</totfact>
</mgrwt>
</event>
<event>
 4    1  0.4050555E+000  0.1833909E+03  0.7546771E-02  0.1164561E+00
         21   -1    0    0  503  502  0.00000000000E+00  0.00000000000E+00  0.36325708479E+03  0.36325708479E+03  0.00000000000E+00 0. -1.
         21   -1    0    0  501  503 -0.00000000000E+00 -0.00000000000E+00 -0.92789206738E+02  0.92789206738E+02  0.00000000000E+00 0.  1.
          6    1    1    2  501    0 -0.71058691359E+01 -0.60437903626E+02  0.14592551055E+03  0.23436400790E+03  0.17300000000E+03 0. -1.
         -6    1    1    2    0  502  0.71058691359E+01  0.60437903626E+02  0.12454236750E+03  0.22168228363E+03  0.17300000000E+03 0.  1.
<mgrwt>
<rscale>  2 0.18339093E+03</rscale>
<asrwt>0</asrwt>
<pdfrwt beam="1">  1       21 0.55885705E-01 0.18339093E+03</pdfrwt>
<pdfrwt beam="2">  1       21 0.14275263E-01 0.18339093E+03</pdfrwt>
<totfact> 0.12984288E+05</totfact>
</mgrwt>
</event>
<event>
 4    1  0.4050555E+000  0.2042117E+03  0.7546771E-02  0.1146233E+00
         21   -1    0    0  503  502  0.00000000000E+00  0.00000000000E+00  0.38864913277E+03  0.38864913277E+03  0.00000000000E+00 0.  1.
         21   -1    0    0  501  503 -0.00000000000E+00 -0.00000000000E+00 -0.26039172230E+03  0.26039172230E+03  0.00000000000E+00 0. -1.
          6    1    1    2  501    0 -0.90339852992E+02 -0.60101104150E+02 -0.18470139854E+03  0.27534893932E+03  0.17300000000E+03 0. -1.
         -6    1    1    2    0  502  0.90339852992E+02  0.60101104150E+02  0.31295880901E+03  0.37369191575E+03  0.17300000000E+03 0.  1.
<mgrwt>
<rscale>  2 0.20421173E+03</rscale>
<asrwt>0</asrwt>
<pdfrwt beam="1">  1       21 0.59792174E-01 0.20421173E+03</pdfrwt>
<pdfrwt beam="2">  1       21 0.40060265E-01 0.20421173E+03</pdfrwt>
<totfact> 0.15562910E+04</totfact>
</mgrwt>
</event>
<event>
 4    1  0.4050555E+000  0.1738076E+03  0.7546771E-02  0.1173934E+00
         21   -1    0    0  501  502  0.00000000000E+00  0.00000000000E+00  0.20352866055E+02  0.20352866055E+02  0.00000000000E+00 0.  1.
         21   -1    0    0  502  503 -0.00000000000E+00 -0.00000000000E+00 -0.19037215868E+04  0.19037215868E+04  0.00000000000E+00 0.  1.
          6    1    1    2  501    0 -0.10338936456E+02 -0.13160133173E+02 -0.49010638252E+03  0.52001283532E+03  0.17300000000E+03 0.  1.
         -6    1    1    2    0  503  0.10338936456E+02  0.13160133173E+02 -0.13932623382E+04  0.14040616175E+04  0.17300000000E+03 0.  1.
<mgrwt>
<rscale>  2 0.17380760E+03</rscale>
<asrwt>0</asrwt>
<pdfrwt beam="1">  1       21 0.31312092E-02 0.17380760E+03</pdfrwt>
<pdfrwt beam="2">  1       21 0.29288033E+00 0.17380760E+03</pdfrwt>
<totfact> 0.22535385E+04</totfact>
</mgrwt>
</event>
<event>
 4    1  0.4050555E+000  0.2042086E+03  0.7546771E-02  0.1146236E+00
         21   -1    0    0  501  502  0.00000000000E+00  0.00000000000E+00  0.29237049180E+03  0.29237049180E+03  0.00000000000E+00 0. -1.
         21   -1    0    0  502  503 -0.00000000000E+00 -0.00000000000E+00 -0.20171027995E+03  0.20171027995E+03  0.00000000000E+00 0. -1.
          6    1    1    2  501    0 -0.90085423916E+02  0.60471283135E+02  0.17902681961E+03  0.27157275605E+03  0.17300000000E+03 0. -1.
         -6    1    1    2    0  503  0.90085423916E+02 -0.60471283135E+02 -0.88366607759E+02  0.22250801571E+03  0.17300000000E+03 0. -1.
<mgrwt>
<rscale>  2 0.20420862E+03</rscale>
<asrwt>0</asrwt>
<pdfrwt beam="1">  1       21 0.44980076E-01 0.20420862E+03</pdfrwt>
<pdfrwt beam="2">  1       21 0.31032351E-01 0.20420862E+03</pdfrwt>
<totfact> 0.47040902E+04</totfact>
</mgrwt>
</event>
<event>
 4    1  0.4050555E+000  0.1895502E+03  0.7546771E-02  0.1158868E+00
         21   -1    0    0  501  502  0.00000000000E+00  0.00000000000E+00  0.31086607819E+03  0.31086607819E+03  0.00000000000E+00 0.  1.
         21   -1    0    0  502  503 -0.00000000000E+00 -0.00000000000E+00 -0.35496118758E+03  0.35496118758E+03  0.00000000000E+00 0.  1.
          6    1    1    2  501    0 -0.73692132138E+02 -0.23869722805E+02  0.25134578256E+03  0.31480787223E+03  0.17300000000E+03 0.  1.
         -6    1    1    2    0  503  0.73692132138E+02  0.23869722805E+02 -0.29544089196E+03  0.35101939355E+03  0.17300000000E+03 0.  1.
<mgrwt>
<rscale>  2 0.18955024E+03</rscale>
<asrwt>0</asrwt>
<pdfrwt beam="1">  1       21 0.47825551E-01 0.18955024E+03</pdfrwt>
<pdfrwt beam="2">  1       21 0.54609413E-01 0.18955024E+03</pdfrwt>
<totfact> 0.13260834E+04</totfact>
</mgrwt>
</event>
<event>
 4    1  0.4050555E+000  0.1887954E+03  0.7546771E-02  0.1159552E+00
         21   -1    0    0  503  502  0.00000000000E+00  0.00000000000E+00  0.58211198099E+03  0.58211198099E+03  0.00000000000E+00 0. -1.
         21   -1    0    0  501  503 -0.00000000000E+00 -0.00000000000E+00 -0.62443267270E+02  0.62443267270E+02  0.00000000000E+00 0. -1.
          6    1    1    2  501    0 -0.16421553714E+02 -0.73790528382E+02  0.21494327332E+03  0.28608446349E+03  0.17300000000E+03 0. -1.
         -6    1    1    2    0  502  0.16421553714E+02  0.73790528382E+02  0.30472544040E+03  0.35847078477E+03  0.17300000000E+03 0. -1.
<mgrwt>
<rscale>  2 0.18879542E+03</rscale>
<asrwt>0</asrwt>
<pdfrwt beam="1">  1       21 0.89555686E-01 0.18879542E+03</pdfrwt>
<pdfrwt beam="2">  1       21 0.96066569E-02 0.18879542E+03</pdfrwt>
<totfact> 0.92704963E+04</totfact>
</mgrwt>
</event>
<event>
 4    1  0.4050555E+000  0.2784807E+03  0.7546771E-02  0.1096522E+00
         21   -1    0    0  503  502  0.00000000000E+00  0.00000000000E+00  0.18204571455E+04  0.18204571455E+04  0.00000000000E+00 0. -1.
         21   -1    0    0  501  503 -0.00000000000E+00 -0.00000000000E+00 -0.42332553899E+03  0.42332553899E+03  0.00000000000E+00 0.  1.
          6    1    1    2  501    0  0.11147933173E+03  0.18760299965E+03 -0.36538010865E+03  0.45940630239E+03  0.17300000000E+03 0.  1.
         -6    1    1    2    0  502 -0.11147933173E+03 -0.18760299965E+03  0.17625117151E+04  0.17843763821E+04  0.17300000000E+03 0. -1.
<mgrwt>
<rscale>  2 0.27848075E+03</rscale>
<asrwt>0</asrwt>
<pdfrwt beam="1">  1       21 0.28007033E+00 0.27848075E+03</pdfrwt>
<pdfrwt beam="2">  1       21 0.65127007E-01 0.27848075E+03</pdfrwt>
<totfact> 0.86042144E+01</totfact>
</mgrwt>
</event>
<event>
 4    1  0.4050555E+000  0.2029178E+03  0.7546771E-02  0.1147300E+00
         21   -1    0    0  503  502  0.00000000000E+00  0.00000000000E+00  0.13181206144E+04  0.13181206144E+04  0.00000000000E+00 0.  1.
         21   -1    0    0  501  503 -0.00000000000E+00 -0.00000000000E+00 -0.61870923224E+02  0.61870923224E+02  0.00000000000E+00 0.  1.
          6    1    1    2  501    0  0.96873685740E+02 -0.43152405587E+02  0.14261691062E+03  0.24802262859E+03  0.17300000000E+03 0.  1.
         -6    1    1    2    0  502 -0.96873685740E+02  0.43152405587E+02  0.11136327805E+04  0.11319689090E+04  0.17300000000E+03 0.  1.
<mgrwt>
<rscale>  2 0.20291782E+03</rscale>
<asrwt>0</asrwt>
<pdfrwt beam="1">  1       21 0.20278777E+00 0.20291782E+03</pdfrwt>
<pdfrwt beam="2">  1       21 0.95186045E-02 0.20291782E+03</pdfrwt>
<totfact> 0.11311271E+04</totfact>
</mgrwt>
</event>
<event>
 4    1  0.4050555E+000  0.1739684E+03  0.7546771E-02  0.1173772E+00
         21   -1    0    0  503  502  0.00000000000E+00  0.00000000000E+00  0.16026180189E+03  0.16026180189E+03  0.00000000000E+00 0.  1.
         21   -1    0    0  501  503 -0.00000000000E+00 -0.00000000000E+00 -0.19927274010E+03  0.19927274010E+03  0.00000000000E+00 0.  1.
          6    1    1    2  501    0  0.90841986964E+01 -0.15920840253E+02 -0.60623805586E+02  0.18422877523E+03  0.17300000000E+03 0. -1.
         -6    1    1    2    0  502 -0.90841986964E+01  0.15920840253E+02  0.21612867382E+02  0.17530576675E+03  0.17300000000E+03 0. -1.
<mgrwt>
<rscale>  2 0.17396838E+03</rscale>
<asrwt>0</asrwt>
<pdfrwt beam="1">  1       21 0.24655662E-01 0.17396838E+03</pdfrwt>
<pdfrwt beam="2">  1       21 0.30657344E-01 0.17396838E+03</pdfrwt>
<totfact> 0.15981080E+05</totfact>
</mgrwt>
</event>
<event>
 4    1  0.4050555E+000  0.1952533E+03  0.7546771E-02  0.1153807E+00
         21   -1    0    0  501  502  0.00000000000E+00  0.00000000000E+00  0.34671142270E+03  0.34671142270E+03  0.00000000000E+00 0.  1.
         21   -1    0    0  502  503 -0.00000000000E+00 -0.00000000000E+00 -0.54919737483E+03  0.54919737483E+03  0.00000000000E+00 0.  1.
          6    1    1    2  501    0 -0.22042755246E+02  0.87800626511E+02  0.29936538964E+03  0.35741218444E+03  0.17300000000E+03 0.  1.
         -6    1    1    2    0  503  0.22042755246E+02 -0.87800626511E+02 -0.50185134177E+03  0.53849661309E+03  0.17300000000E+03 0.  1.
<mgrwt>
<rscale>  2 0.19525325E+03</rscale>
<asrwt>0</asrwt>
<pdfrwt beam="1">  1       21 0.53340219E-01 0.19525325E+03</pdfrwt>
<pdfrwt beam="2">  1       21 0.84491903E-01 0.19525325E+03</pdfrwt>
<totfact> 0.40338995E+03</totfact>
</mgrwt>
</event>
<event>
 4    1  0.4050555E+000  0.2189218E+03  0.7546771E-02  0.1134689E+00
         21   -1    0    0  503  502  0.00000000000E+00  0.00000000000E+00  0.57818738311E+03  0.57818738311E+03  0.00000000000E+00 0. -1.
         21   -1    0    0  501  503 -0.00000000000E+00 -0.00000000000E+00 -0.10197000643E+03  0.10197000643E+03  0.00000000000E+00 0. -1.
          6    1    1    2  501    0 -0.13381708895E+03  0.95253080977E+01  0.91007270677E+02  0.23708451680E+03  0.17300000000E+03 0. -1.
         -6    1    1    2    0  502  0.13381708895E+03 -0.95253080977E+01  0.38521010600E+03  0.44307287274E+03  0.17300000000E+03 0. -1.
<mgrwt>
<rscale>  2 0.21892178E+03</rscale>
<asrwt>0</asrwt>
<pdfrwt beam="1">  1       21 0.88951903E-01 0.21892178E+03</pdfrwt>
<pdfrwt beam="2">  1       21 0.15687694E-01 0.21892178E+03</pdfrwt>
<totfact> 0.38488339E+04</totfact>
</mgrwt>
</event>
<event>
 4    1  0.4050555E+000  0.1884303E+03  0.7546771E-02  0.1159885E+00
         21   -1    0    0  501  502  0.00000000000E+00  0.00000000000E+00  0.29300201607E+03  0.29300201607E+03  0.00000000000E+00 0. -1.
         21   -1    0    0  502  503 -0.00000000000E+00 -0.00000000000E+00 -0.13952989106E+03  0.13952989106E+03  0.00000000000E+00 0. -1.
          6    1    1    2  501    0  0.61271342464E+02  0.42694140160E+02  0.15516421247E+03  0.24409403893E+03  0.17300000000E+03 0. -1.
         -6    1    1    2    0  503 -0.61271342464E+02 -0.42694140160E+02 -0.16920874569E+01  0.18843786820E+03  0.17300000000E+03 0. -1.
<mgrwt>
<rscale>  2 0.18843027E+03</rscale>
<asrwt>0</asrwt>
<pdfrwt beam="1">  1       21 0.45077233E-01 0.18843027E+03</pdfrwt>
<pdfrwt beam="2">  1       21 0.21466137E-01 0.18843027E+03</pdfrwt>
<totfact> 0.95619029E+04</totfact>
</mgrwt>
</event>
<event>
 4    1  0.4050555E+000  0.2176368E+03  0.7546771E-02  0.1135657E+00
         21   -1    0    0  501  502  0.00000000000E+00  0.00000000000E+00  0.13637361646E+04  0.13637361646E+04  0.00000000000E+00 0.  1.
         21   -1    0    0  502  503 -0.00000000000E+00 -0.00000000000E+00 -0.39790650940E+02  0.39790650940E+02  0.00000000000E+00 0. -1.
          6    1    1    2  501    0 -0.85851425356E+02 -0.10033099726E+03  0.91218126496E+03  0.93778485613E+03  0.17300000000E+03 0.  1.
         -6    1    1    2    0  503  0.85851425356E+02  0.10033099726E+03  0.41176424871E+03  0.46574195942E+03  0.17300000000E+03 0.  1.
<mgrwt>
<rscale>  2 0.21763680E+03</rscale>
<asrwt>0</asrwt>
<pdfrwt beam="1">  1       21 0.20980553E+00 0.21763680E+03</pdfrwt>
<pdfrwt beam="2">  1       21 0.61216396E-02 0.21763680E+03</pdfrwt>
<totfact> 0.21760438E+04</totfact>
</mgrwt>
</event>
<event>
 4    1  0.4050555E+000  0.1870154E+03  0.7546771E-02  0.1161181E+00
         21   -1    0    0  503  502  0.00000000000E+00  0.00000000000E+00  0.40965336801E+03  0.40965336801E+03  0.00000000000E+00 0.  1.
         21   -1    0    0  501  503 -0.00000000000E+00 -0.00000000000E+00 -0.25074910970E+03  0.25074910970E+03  0.00000000000E+00 0.  1.
          6    1    1    2  501    0 -0.53686189443E+01  0.70830328541E+02 -0.18870591597E+03  0.26567777519E+03  0.17300000000E+03 0.  1.
         -6    1    1    2    0  502  0.53686189443E+01 -0.70830328541E+02  0.34761017428E+03  0.39472470251E+03  0.17300000000E+03 0.  1.
<mgrwt>
<rscale>  2 0.18701539E+03</rscale>
<asrwt>0</asrwt>
<pdfrwt beam="1">  1       21 0.63023595E-01 0.18701539E+03</pdfrwt>
<pdfrwt beam="2">  1       21 0.38576786E-01 0.18701539E+03</pdfrwt>
<totfact> 0.15155205E+04</totfact>
</mgrwt>
</event>
<event>
 4    1  0.4050555E+000  0.2987589E+03  0.7546771E-02  0.1085863E+00
         21   -1    0    0  503  502  0.00000000000E+00  0.00000000000E+00  0.91004458046E+03  0.91004458046E+03  0.00000000000E+00 0.  1.
         21   -1    0    0  501  503 -0.00000000000E+00 -0.00000000000E+00 -0.56493153274E+03  0.56493153274E+03  0.00000000000E+00 0.  1.
          6    1    1    2  501    0  0.18716065825E+03  0.15588054972E+03 -0.49786297731E+03  0.58062414862E+03  0.17300000000E+03 0.  1.
         -6    1    1    2    0  502 -0.18716065825E+03 -0.15588054972E+03  0.84297602503E+03  0.89435196458E+03  0.17300000000E+03 0.  1.
<mgrwt>
<rscale>  2 0.29875886E+03</rscale>
<asrwt>0</asrwt>
<pdfrwt beam="1">  1       21 0.14000686E+00 0.29875886E+03</pdfrwt>
<pdfrwt beam="2">  1       21 0.86912543E-01 0.29875886E+03</pdfrwt>
<totfact> 0.36877233E+02</totfact>
</mgrwt>
</event>
<event>
 4    1  0.4050555E+000  0.3829085E+03  0.7546771E-02  0.1049864E+00
         21   -1    0    0  503  502  0.00000000000E+00  0.00000000000E+00  0.12688740291E+04  0.12688740291E+04  0.00000000000E+00 0.  1.
         21   -1    0    0  501  503 -0.00000000000E+00 -0.00000000000E+00 -0.27670929245E+03  0.27670929245E+03  0.00000000000E+00 0.  1.
          6    1    1    2  501    0  0.29798152210E+03  0.16702371615E+03 -0.93680850598E+02  0.39420173901E+03  0.17300000000E+03 0.  1.
         -6    1    1    2    0  502 -0.29798152210E+03 -0.16702371615E+03  0.10858455872E+04  0.11513815825E+04  0.17300000000E+03 0.  1.
<mgrwt>
<rscale>  2 0.38290849E+03</rscale>
<asrwt>0</asrwt>
<pdfrwt beam="1">  1       21 0.19521139E+00 0.38290849E+03</pdfrwt>
<pdfrwt beam="2">  1       21 0.42570661E-01 0.38290849E+03</pdfrwt>
<totfact> 0.65649500E+02</totfact>
</mgrwt>
</event>
<event>
 4    1  0.4050555E+000  0.1967780E+03  0.7546771E-02  0.1152486E+00
         21   -1    0    0  503  502  0.00000000000E+00  0.00000000000E+00  0.33967180604E+03  0.33967180604E+03  0.00000000000E+00 0. -1.
         21   -1    0    0  501  503 -0.00000000000E+00 -0.00000000000E+00 -0.12588800682E+03  0.12588800682E+03  0.00000000000E+00 0. -1.
          6    1    1    2  501    0 -0.35927306821E+02  0.86613009463E+02  0.35349803262E+02  0.19992797046E+03  0.17300000000E+03 0. -1.
         -6    1    1    2    0  502  0.35927306821E+02 -0.86613009463E+02  0.17843399595E+03  0.26563184240E+03  0.17300000000E+03 0. -1.
<mgrwt>
<rscale>  2 0.19677801E+03</rscale>
<asrwt>0</asrwt>
<pdfrwt beam="1">  1       21 0.52257201E-01 0.19677801E+03</pdfrwt>
<pdfrwt beam="2">  1       21 0.19367386E-01 0.19677801E+03</pdfrwt>
<totfact> 0.85002917E+04</totfact>
</mgrwt>
</event>
<event>
 4    1  0.4050555E+000  0.1890693E+03  0.7546771E-02  0.1159303E+00
         21   -1    0    0  501  502  0.00000000000E+00  0.00000000000E+00  0.55881955803E+02  0.55881955803E+02  0.00000000000E+00 0. -1.
         21   -1    0    0  502  503 -0.00000000000E+00 -0.00000000000E+00 -0.67043373052E+03  0.67043373052E+03  0.00000000000E+00 0. -1.
          6    1    1    2  501    0 -0.61117704288E+02  0.45638127303E+02 -0.22951071335E+03  0.29735900858E+03  0.17300000000E+03 0. -1.
         -6    1    1    2    0  503  0.61117704288E+02 -0.45638127303E+02 -0.38504106136E+03  0.42895667774E+03  0.17300000000E+03 0. -1.
<mgrwt>
<rscale>  2 0.18906933E+03</rscale>
<asrwt>0</asrwt>
<pdfrwt beam="1">  1       21 0.85972242E-02 0.18906933E+03</pdfrwt>
<pdfrwt beam="2">  1       21 0.10314365E+00 0.18906933E+03</pdfrwt>
<totfact> 0.80832168E+04</totfact>
</mgrwt>
</event>
<event>
 4    1  0.4050555E+000  0.1838935E+03  0.7546771E-02  0.1164087E+00
         21   -1    0    0  503  502  0.00000000000E+00  0.00000000000E+00  0.21925804369E+03  0.21925804369E+03  0.00000000000E+00 0. -1.
         21   -1    0    0  501  503 -0.00000000000E+00 -0.00000000000E+00 -0.22472592503E+03  0.22472592503E+03  0.00000000000E+00 0. -1.
          6    1    1    2  501    0  0.43303679272E+02 -0.44862233748E+02 -0.12706608713E+03  0.22352319601E+03  0.17300000000E+03 0. -1.
         -6    1    1    2    0  502 -0.43303679272E+02  0.44862233748E+02  0.12159820579E+03  0.22046077272E+03  0.17300000000E+03 0. -1.
<mgrwt>
<rscale>  2 0.18389353E+03</rscale>
<asrwt>0</asrwt>
<pdfrwt beam="1">  1       21 0.33732007E-01 0.18389353E+03</pdfrwt>
<pdfrwt beam="2">  1       21 0.34573219E-01 0.18389353E+03</pdfrwt>
<totfact> 0.68517620E+04</totfact>
</mgrwt>
</event>
<event>
 4    1  0.4050555E+000  0.1757589E+03  0.7546771E-02  0.1171972E+00
         21   -1    0    0  501  502  0.00000000000E+00  0.00000000000E+00  0.68260234870E+02  0.68260234870E+02  0.00000000000E+00 0. -1.
         21   -1    0    0  502  503 -0.00000000000E+00 -0.00000000000E+00 -0.82775817327E+03  0.82775817327E+03  0.00000000000E+00 0. -1.
          6    1    1    2  501    0 -0.18628994530E+02 -0.24802121839E+02 -0.78121276393E+02  0.19233855180E+03  0.17300000000E+03 0. -1.
         -6    1    1    2    0  503  0.18628994530E+02  0.24802121839E+02 -0.68137666201E+03  0.70367985634E+03  0.17300000000E+03 0. -1.
<mgrwt>
<rscale>  2 0.17575888E+03</rscale>
<asrwt>0</asrwt>
<pdfrwt beam="1">  1       21 0.10501574E-01 0.17575888E+03</pdfrwt>
<pdfrwt beam="2">  1       21 0.12734741E+00 0.17575888E+03</pdfrwt>
<totfact> 0.34214121E+04</totfact>
</mgrwt>
</event>
<event>
 4    1  0.4050555E+000  0.1811642E+03  0.7546771E-02  0.1166681E+00
         21   -1    0    0  501  502  0.00000000000E+00  0.00000000000E+00  0.11042439388E+03  0.11042439388E+03  0.00000000000E+00 0. -1.
         21   -1    0    0  502  503 -0.00000000000E+00 -0.00000000000E+00 -0.29773952489E+03  0.29773952489E+03  0.00000000000E+00 0. -1.
          6    1    1    2  501    0  0.19014314765E+02  0.50298182209E+02 -0.85141056862E+02  0.20017355186E+03  0.17300000000E+03 0. -1.
         -6    1    1    2    0  503 -0.19014314765E+02 -0.50298182209E+02 -0.10217407415E+03  0.20799036691E+03  0.17300000000E+03 0. -1.
<mgrwt>
<rscale>  2 0.18116416E+03</rscale>
<asrwt>0</asrwt>
<pdfrwt beam="1">  1       21 0.16988368E-01 0.18116416E+03</pdfrwt>
<pdfrwt beam="2">  1       21 0.45806080E-01 0.18116416E+03</pdfrwt>
<totfact> 0.14325318E+05</totfact>
</mgrwt>
</event>
<event>
 4    1  0.4050555E+000  0.1777468E+03  0.7546771E-02  0.1170002E+00
         21   -1    0    0  503  502  0.00000000000E+00  0.00000000000E+00  0.35858016031E+03  0.35858016031E+03  0.00000000000E+00 0. -1.
         21   -1    0    0  501  503 -0.00000000000E+00 -0.00000000000E+00 -0.90194317726E+02  0.90194317726E+02  0.00000000000E+00 0. -1.
          6    1    1    2  501    0 -0.27575095193E+02 -0.30075746731E+02  0.10006941846E+03  0.20397996207E+03  0.17300000000E+03 0. -1.
         -6    1    1    2    0  502  0.27575095193E+02  0.30075746731E+02  0.16831642412E+03  0.24479451596E+03  0.17300000000E+03 0. -1.
<mgrwt>
<rscale>  2 0.17774683E+03</rscale>
<asrwt>0</asrwt>
<pdfrwt beam="1">  1       21 0.55166178E-01 0.17774683E+03</pdfrwt>
<pdfrwt beam="2">  1       21 0.13876049E-01 0.17774683E+03</pdfrwt>
<totfact> 0.14075158E+05</totfact>
</mgrwt>
</event>
<event>
 4    1  0.4050555E+000  0.1911089E+03  0.7546771E-02  0.1157465E+00
         21   -1    0    0  501  502  0.00000000000E+00  0.00000000000E+00  0.38305438776E+03  0.38305438776E+03  0.00000000000E+00 0. -1.
         21   -1    0    0  502  503 -0.00000000000E+00 -0.00000000000E+00 -0.13260841238E+03  0.13260841238E+03  0.00000000000E+00 0. -1.
          6    1    1    2  501    0  0.30965562483E+02  0.75065040220E+02  0.26189731011E+03  0.32421108458E+03  0.17300000000E+03 0. -1.
         -6    1    1    2    0  503 -0.30965562483E+02 -0.75065040220E+02 -0.11451334721E+02  0.19145171556E+03  0.17300000000E+03 0. -1.
<mgrwt>
<rscale>  2 0.19110894E+03</rscale>
<asrwt>0</asrwt>
<pdfrwt beam="1">  1       21 0.58931444E-01 0.19110894E+03</pdfrwt>
<pdfrwt beam="2">  1       21 0.20401294E-01 0.19110894E+03</pdfrwt>
<totfact> 0.59939607E+04</totfact>
</mgrwt>
</event>
<event>
 4    1  0.4050555E+000  0.1793403E+03  0.7546771E-02  0.1168443E+00
         21   -1    0    0  501  502  0.00000000000E+00  0.00000000000E+00  0.25912391641E+03  0.25912391641E+03  0.00000000000E+00 0. -1.
         21   -1    0    0  502  503 -0.00000000000E+00 -0.00000000000E+00 -0.12417704802E+03  0.12417704802E+03  0.00000000000E+00 0. -1.
          6    1    1    2  501    0 -0.45226809116E+02  0.13728614529E+02  0.71514189857E+02  0.19307309101E+03  0.17300000000E+03 0. -1.
         -6    1    1    2    0  503  0.45226809116E+02 -0.13728614529E+02  0.63432678539E+02  0.19022787342E+03  0.17300000000E+03 0. -1.
<mgrwt>
<rscale>  2 0.17934029E+03</rscale>
<asrwt>0</asrwt>
<pdfrwt beam="1">  1       21 0.39865218E-01 0.17934029E+03</pdfrwt>
<pdfrwt beam="2">  1       21 0.19104161E-01 0.17934029E+03</pdfrwt>
<totfact> 0.15312636E+05</totfact>
</mgrwt>
</event>
<event>
 4    1  0.4050555E+000  0.2090511E+03  0.7546771E-02  0.1142320E+00
         21   -1    0    0  501  502  0.00000000000E+00  0.00000000000E+00  0.53940788289E+02  0.53940788289E+02  0.00000000000E+00 0.  1.
         21   -1    0    0  502  503 -0.00000000000E+00 -0.00000000000E+00 -0.82874925349E+03  0.82874925349E+03  0.00000000000E+00 0. -1.
          6    1    1    2  501    0  0.80710569565E+02  0.85200840805E+02 -0.32136121009E+03  0.38337371671E+03  0.17300000000E+03 0.  1.
         -6    1    1    2    0  503 -0.80710569565E+02 -0.85200840805E+02 -0.45344725510E+03  0.49931632506E+03  0.17300000000E+03 0. -1.
<mgrwt>
<rscale>  2 0.20905114E+03</rscale>
<asrwt>0</asrwt>
<pdfrwt beam="1">  1       21 0.82985828E-02 0.20905114E+03</pdfrwt>
<pdfrwt beam="2">  1       21 0.12749988E+00 0.20905114E+03</pdfrwt>
<totfact> 0.50656012E+04</totfact>
</mgrwt>
</event>
<event>
 4    1  0.4050555E+000  0.1905838E+03  0.7546771E-02  0.1157936E+00
         21   -1    0    0  503  502  0.00000000000E+00  0.00000000000E+00  0.16344706952E+03  0.16344706952E+03  0.00000000000E+00 0. -1.
         21   -1    0    0  501  503 -0.00000000000E+00 -0.00000000000E+00 -0.24843397260E+03  0.24843397260E+03  0.00000000000E+00 0. -1.
          6    1    1    2  501    0  0.33184436136E+02  0.72745962245E+02 -0.10938224545E+03  0.21974225229E+03  0.17300000000E+03 0. -1.
         -6    1    1    2    0  502 -0.33184436136E+02 -0.72745962245E+02  0.24395342369E+02  0.19213878982E+03  0.17300000000E+03 0. -1.
<mgrwt>
<rscale>  2 0.19058379E+03</rscale>
<asrwt>0</asrwt>
<pdfrwt beam="1">  1       21 0.25145703E-01 0.19058379E+03</pdfrwt>
<pdfrwt beam="2">  1       21 0.38220611E-01 0.19058379E+03</pdfrwt>
<totfact> 0.98967957E+04</totfact>
</mgrwt>
</event>
<event>
 4    1  0.4050555E+000  0.1827896E+03  0.7546771E-02  0.1165130E+00
         21   -1    0    0  501  502  0.00000000000E+00  0.00000000000E+00  0.80475533643E+03  0.80475533643E+03  0.00000000000E+00 0. -1.
         21   -1    0    0  502  503 -0.00000000000E+00 -0.00000000000E+00 -0.11636558554E+03  0.11636558554E+03  0.00000000000E+00 0. -1.
          6    1    1    2  501    0  0.12685411443E+02  0.57637712414E+02  0.71356568530E+03  0.73660573769E+03  0.17300000000E+03 0. -1.
         -6    1    1    2    0  503 -0.12685411443E+02 -0.57637712414E+02 -0.25175934410E+02  0.18451518428E+03  0.17300000000E+03 0. -1.
<mgrwt>
<rscale>  2 0.18278957E+03</rscale>
<asrwt>0</asrwt>
<pdfrwt beam="1">  1       21 0.12380851E+00 0.18278957E+03</pdfrwt>
<pdfrwt beam="2">  1       21 0.17902398E-01 0.18278957E+03</pdfrwt>
<totfact> 0.13950003E+04</totfact>
</mgrwt>
</event>
<event>
 4    1  0.4050555E+000  0.2368296E+03  0.7546771E-02  0.1121923E+00
         21   -1    0    0  503  502  0.00000000000E+00  0.00000000000E+00  0.16044797485E+03  0.16044797485E+03  0.00000000000E+00 0.  1.
         21   -1    0    0  501  503 -0.00000000000E+00 -0.00000000000E+00 -0.35249052633E+03  0.35249052633E+03  0.00000000000E+00 0. -1.
          6    1    1    2  501    0  0.92213003562E+02 -0.13287599012E+03 -0.11935451655E+03  0.26520514210E+03  0.17300000000E+03 0. -1.
         -6    1    1    2    0  502 -0.92213003562E+02  0.13287599012E+03 -0.72688034930E+02  0.24773335908E+03  0.17300000000E+03 0. -1.
<mgrwt>
<rscale>  2 0.23682962E+03</rscale>
<asrwt>0</asrwt>
<pdfrwt beam="1">  1       21 0.24684304E-01 0.23682962E+03</pdfrwt>
<pdfrwt beam="2">  1       21 0.54229312E-01 0.23682962E+03</pdfrwt>
<totfact> 0.48864276E+04</totfact>
</mgrwt>
</event>
<event>
 4    1  0.4050555E+000  0.1934804E+03  0.7546771E-02  0.1155359E+00
         21   -1    0    0  501  502  0.00000000000E+00  0.00000000000E+00  0.19424234832E+03  0.19424234832E+03  0.00000000000E+00 0.  1.
         21   -1    0    0  502  503 -0.00000000000E+00 -0.00000000000E+00 -0.19714965570E+03  0.19714965570E+03  0.00000000000E+00 0.  1.
          6    1    1    2  501    0 -0.78504795526E+02  0.36642557120E+02  0.27875165613E+02  0.19547814397E+03  0.17300000000E+03 0.  1.
         -6    1    1    2    0  503  0.78504795526E+02 -0.36642557120E+02 -0.30782472994E+02  0.19591386004E+03  0.17300000000E+03 0.  1.
<mgrwt>
<rscale>  2 0.19348044E+03</rscale>
<asrwt>0</asrwt>
<pdfrwt beam="1">  1       21 0.29883438E-01 0.19348044E+03</pdfrwt>
<pdfrwt beam="2">  1       21 0.30330716E-01 0.19348044E+03</pdfrwt>
<totfact> 0.11197138E+05</totfact>
</mgrwt>
</event>
<event>
 4    1  0.4050555E+000  0.2679431E+03  0.7546771E-02  0.1102463E+00
         21   -1    0    0  503  502  0.00000000000E+00  0.00000000000E+00  0.35165361939E+03  0.35165361939E+03  0.00000000000E+00 0. -1.
         21   -1    0    0  501  503 -0.00000000000E+00 -0.00000000000E+00 -0.26978552097E+03  0.26978552097E+03  0.00000000000E+00 0.  1.
          6    1    1    2  501    0 -0.91074734507E+02 -0.18322096061E+03 -0.11231450245E+03  0.29053067847E+03  0.17300000000E+03 0.  1.
         -6    1    1    2    0  502  0.91074734507E+02  0.18322096061E+03  0.19418260087E+03  0.33090846189E+03  0.17300000000E+03 0. -1.
<mgrwt>
<rscale>  2 0.26794314E+03</rscale>
<asrwt>0</asrwt>
<pdfrwt beam="1">  1       21 0.54100557E-01 0.26794314E+03</pdfrwt>
<pdfrwt beam="2">  1       21 0.41505465E-01 0.26794314E+03</pdfrwt>
<totfact> 0.17332218E+04</totfact>
</mgrwt>
</event>
<event>
 4    1  0.4050555E+000  0.1753696E+03  0.7546771E-02  0.1172361E+00
         21   -1    0    0  501  502  0.00000000000E+00  0.00000000000E+00  0.39839661130E+02  0.39839661130E+02  0.00000000000E+00 0.  1.
         21   -1    0    0  502  503 -0.00000000000E+00 -0.00000000000E+00 -0.12089715464E+04  0.12089715464E+04  0.00000000000E+00 0.  1.
          6    1    1    2  501    0  0.32452654008E+01 -0.28547783885E+02 -0.20915522390E+03  0.27294764223E+03  0.17300000000E+03 0.  1.
         -6    1    1    2    0  503 -0.32452654008E+01  0.28547783885E+02 -0.95997666137E+03  0.97586356530E+03  0.17300000000E+03 0.  1.
<mgrwt>
<rscale>  2 0.17536963E+03</rscale>
<asrwt>0</asrwt>
<pdfrwt beam="1">  1       21 0.61291792E-02 0.17536963E+03</pdfrwt>
<pdfrwt beam="2">  1       21 0.18599560E+00 0.17536963E+03</pdfrwt>
<totfact> 0.31899802E+04</totfact>
</mgrwt>
</event>
<event>
 4    1  0.4050555E+000  0.1914348E+03  0.7546771E-02  0.1157174E+00
         21   -1    0    0  503  502  0.00000000000E+00  0.00000000000E+00  0.24248322783E+04  0.24248322783E+04  0.00000000000E+00 0.  1.
         21   -1    0    0  501  503 -0.00000000000E+00 -0.00000000000E+00 -0.16323983809E+02  0.16323983809E+02  0.00000000000E+00 0. -1.
          6    1    1    2  501    0  0.78596072947E+02  0.23257942306E+02  0.87185211843E+03  0.89262163932E+03  0.17300000000E+03 0. -1.
         -6    1    1    2    0  502 -0.78596072947E+02 -0.23257942306E+02  0.15366561761E+04  0.15485346228E+04  0.17300000000E+03 0.  1.
<mgrwt>
<rscale>  2 0.19143478E+03</rscale>
<asrwt>0</asrwt>
<pdfrwt beam="1">  1       21 0.37305083E+00 0.19143478E+03</pdfrwt>
<pdfrwt beam="2">  1       21 0.25113840E-02 0.19143478E+03</pdfrwt>
<totfact> 0.10822954E+04</totfact>
</mgrwt>
</event>
<event>
 4    1  0.4050555E+000  0.2178278E+03  0.7546771E-02  0.1135513E+00
         21   -1    0    0  503  502  0.00000000000E+00  0.00000000000E+00  0.13806920054E+03  0.13806920054E+03  0.00000000000E+00 0.  1.
         21   -1    0    0  501  503 -0.00000000000E+00 -0.00000000000E+00 -0.35088858293E+03  0.35088858293E+03  0.00000000000E+00 0. -1.
          6    1    1    2  501    0 -0.97288576029E+02 -0.89749101270E+02 -0.14149781180E+03  0.25975103262E+03  0.17300000000E+03 0. -1.
         -6    1    1    2    0  502  0.97288576029E+02  0.89749101270E+02 -0.71321570586E+02  0.22920675085E+03  0.17300000000E+03 0. -1.
<mgrwt>
<rscale>  2 0.21782784E+03</rscale>
<asrwt>0</asrwt>
<pdfrwt beam="1">  1       21 0.21241415E-01 0.21782784E+03</pdfrwt>
<pdfrwt beam="2">  1       21 0.53982860E-01 0.21782784E+03</pdfrwt>
<totfact> 0.66161406E+04</totfact>
</mgrwt>
</event>
<event>
 4    1  0.4050555E+000  0.2184674E+03  0.7546771E-02  0.1135031E+00
         21   -1    0    0  503  502  0.00000000000E+00  0.00000000000E+00  0.22276249657E+03  0.22276249657E+03  0.00000000000E+00 0.  1.
         21   -1    0    0  501  503 -0.00000000000E+00 -0.00000000000E+00 -0.30428603517E+03  0.30428603517E+03  0.00000000000E+00 0. -1.
          6    1    1    2  501    0 -0.13316495317E+03 -0.81292480111E+01 -0.18410447807E+03  0.28569642678E+03  0.17300000000E+03 0. -1.
         -6    1    1    2    0  502  0.13316495317E+03  0.81292480111E+01  0.10258093947E+03  0.24135210496E+03  0.17300000000E+03 0.  1.
<mgrwt>
<rscale>  2 0.21846736E+03</rscale>
<asrwt>0</asrwt>
<pdfrwt beam="1">  1       21 0.34271154E-01 0.21846736E+03</pdfrwt>
<pdfrwt beam="2">  1       21 0.46813236E-01 0.21846736E+03</pdfrwt>
<totfact> 0.35366738E+04</totfact>
</mgrwt>
</event>
<event>
 4    1  0.4050555E+000  0.1994109E+03  0.7546771E-02  0.1150237E+00
         21   -1    0    0  503  502  0.00000000000E+00  0.00000000000E+00  0.65716389399E+03  0.65716389399E+03  0.00000000000E+00 0. -1.
         21   -1    0    0  501  503 -0.00000000000E+00 -0.00000000000E+00 -0.75944796383E+02  0.75944796383E+02  0.00000000000E+00 0.  1.
          6    1    1    2  501    0  0.25795632542E+02  0.95761666874E+02  0.12535793247E+03  0.23554049065E+03  0.17300000000E+03 0.  1.
         -6    1    1    2    0  502 -0.25795632542E+02 -0.95761666874E+02  0.45586116513E+03  0.49756819973E+03  0.17300000000E+03 0. -1.
<mgrwt>
<rscale>  2 0.19941091E+03</rscale>
<asrwt>0</asrwt>
<pdfrwt beam="1">  1       21 0.10110213E+00 0.19941091E+03</pdfrwt>
<pdfrwt beam="2">  1       21 0.11683815E-01 0.19941091E+03</pdfrwt>
<totfact> 0.49057860E+04</totfact>
</mgrwt>
</event>
<event>
 4    1  0.4050555E+000  0.1841584E+03  0.7546771E-02  0.1163838E+00
         21   -1    0    0  503  502  0.00000000000E+00  0.00000000000E+00  0.19606517337E+03  0.19606517337E+03  0.00000000000E+00 0. -1.
         21   -1    0    0  501  503 -0.00000000000E+00 -0.00000000000E+00 -0.21449181823E+03  0.21449181823E+03  0.00000000000E+00 0. -1.
          6    1    1    2  501    0 -0.60417999885E+02  0.18302991611E+02 -0.99526509228E+02  0.20933193796E+03  0.17300000000E+03 0. -1.
         -6    1    1    2    0  502  0.60417999885E+02 -0.18302991611E+02  0.81099864371E+02  0.20122505364E+03  0.17300000000E+03 0. -1.
<mgrwt>
<rscale>  2 0.18415845E+03</rscale>
<asrwt>0</asrwt>
<pdfrwt beam="1">  1       21 0.30163873E-01 0.18415845E+03</pdfrwt>
<pdfrwt beam="2">  1       21 0.32998741E-01 0.18415845E+03</pdfrwt>
<totfact> 0.93522350E+04</totfact>
</mgrwt>
</event>
<event>
 4    1  0.4050555E+000  0.3282126E+03  0.7546771E-02  0.1071930E+00
         21   -1    0    0  501  502  0.00000000000E+00  0.00000000000E+00  0.19152787738E+03  0.19152787738E+03  0.00000000000E+00 0. -1.
         21   -1    0    0  502  503 -0.00000000000E+00 -0.00000000000E+00 -0.67578850749E+03  0.67578850749E+03  0.00000000000E+00 0. -1.
          6    1    1    2  501    0  0.10610497046E+03  0.25794618987E+03 -0.64529713204E+02  0.33449601718E+03  0.17300000000E+03 0. -1.
         -6    1    1    2    0  503 -0.10610497046E+03 -0.25794618987E+03 -0.41973091691E+03  0.53282036769E+03  0.17300000000E+03 0. -1.
<mgrwt>
<rscale>  2 0.32821259E+03</rscale>
<asrwt>0</asrwt>
<pdfrwt beam="1">  1       21 0.29465827E-01 0.32821259E+03</pdfrwt>
<pdfrwt beam="2">  1       21 0.10396746E+00 0.32821259E+03</pdfrwt>
<totfact> 0.76381805E+03</totfact>
</mgrwt>
</event>
<event>
 4    1  0.4050555E+000  0.1856481E+03  0.7546771E-02  0.1162446E+00
         21   -1    0    0  503  502  0.00000000000E+00  0.00000000000E+00  0.69131774688E+03  0.69131774688E+03  0.00000000000E+00 0. -1.
         21   -1    0    0  501  503 -0.00000000000E+00 -0.00000000000E+00 -0.94754419453E+02  0.94754419453E+02  0.00000000000E+00 0.  1.
          6    1    1    2  501    0 -0.18742042853E+02  0.64691231117E+02  0.27726371363E+02  0.18770714217E+03  0.17300000000E+03 0.  1.
         -6    1    1    2    0  502  0.18742042853E+02 -0.64691231117E+02  0.56883695606E+03  0.59836502416E+03  0.17300000000E+03 0. -1.
<mgrwt>
<rscale>  2 0.18564811E+03</rscale>
<asrwt>0</asrwt>
<pdfrwt beam="1">  1       21 0.10635657E+00 0.18564811E+03</pdfrwt>
<pdfrwt beam="2">  1       21 0.14577603E-01 0.18564811E+03</pdfrwt>
<totfact> 0.29388787E+04</totfact>
</mgrwt>
</event>
<event>
 4    1  0.4050555E+000  0.1868667E+03  0.7546771E-02  0.1161318E+00
         21   -1    0    0  503  502  0.00000000000E+00  0.00000000000E+00  0.65868009033E+03  0.65868009033E+03  0.00000000000E+00 0.  1.
         21   -1    0    0  501  503 -0.00000000000E+00 -0.00000000000E+00 -0.10302042548E+03  0.10302042548E+03  0.00000000000E+00 0. -1.
          6    1    1    2  501    0  0.70481146201E+02  0.47515714222E+01  0.12487752463E+02  0.18728351065E+03  0.17300000000E+03 0. -1.
         -6    1    1    2    0  502 -0.70481146201E+02 -0.47515714222E+01  0.54317191239E+03  0.57441700515E+03  0.17300000000E+03 0.  1.
<mgrwt>
<rscale>  2 0.18686672E+03</rscale>
<asrwt>0</asrwt>
<pdfrwt beam="1">  1       21 0.10133540E+00 0.18686672E+03</pdfrwt>
<pdfrwt beam="2">  1       21 0.15849297E-01 0.18686672E+03</pdfrwt>
<totfact> 0.28313259E+04</totfact>
</mgrwt>
</event>
<event>
 4    1  0.4050555E+000  0.1838613E+03  0.7546771E-02  0.1164118E+00
         21   -1    0    0  501  502  0.00000000000E+00  0.00000000000E+00  0.13277984696E+03  0.13277984696E+03  0.00000000000E+00 0.  1.
         21   -1    0    0  502  503 -0.00000000000E+00 -0.00000000000E+00 -0.35269276496E+03  0.35269276496E+03  0.00000000000E+00 0.  1.
          6    1    1    2  501    0  0.29333681554E+02  0.54913621191E+02  0.18060624161E+02  0.18474619566E+03  0.17300000000E+03 0.  1.
         -6    1    1    2    0  503 -0.29333681554E+02 -0.54913621191E+02 -0.23797354216E+03  0.30072641626E+03  0.17300000000E+03 0.  1.
<mgrwt>
<rscale>  2 0.18386128E+03</rscale>
<asrwt>0</asrwt>
<pdfrwt beam="1">  1       21 0.20427669E-01 0.18386128E+03</pdfrwt>
<pdfrwt beam="2">  1       21 0.54260426E-01 0.18386128E+03</pdfrwt>
<totfact> 0.71481308E+04</totfact>
</mgrwt>
</event>
<event>
 4    1  0.4050555E+000  0.1865497E+03  0.7546771E-02  0.1161611E+00
         21   -1    0    0  503  502  0.00000000000E+00  0.00000000000E+00  0.75740088090E+03  0.75740088090E+03  0.00000000000E+00 0. -1.
         21   -1    0    0  501  503 -0.00000000000E+00 -0.00000000000E+00 -0.66574035168E+02  0.66574035168E+02  0.00000000000E+00 0.  1.
          6    1    1    2  501    0  0.69793562019E+02 -0.79966235029E+00  0.11609272599E+03  0.21972323907E+03  0.17300000000E+03 0.  1.
         -6    1    1    2    0  502 -0.69793562019E+02  0.79966235029E+00  0.57473411974E+03  0.60425167700E+03  0.17300000000E+03 0. -1.
<mgrwt>
<rscale>  2 0.18654967E+03</rscale>
<asrwt>0</asrwt>
<pdfrwt beam="1">  1       21 0.11652321E+00 0.18654967E+03</pdfrwt>
<pdfrwt beam="2">  1       21 0.10242160E-01 0.18654967E+03</pdfrwt>
<totfact> 0.44302557E+04</totfact>
</mgrwt>
</event>
<event>
 4    1  0.4050555E+000  0.2627269E+03  0.7546771E-02  0.1105516E+00
         21   -1    0    0  501  502  0.00000000000E+00  0.00000000000E+00  0.18155774067E+03  0.18155774067E+03  0.00000000000E+00 0. -1.
         21   -1    0    0  502  503 -0.00000000000E+00 -0.00000000000E+00 -0.51025958224E+03  0.51025958224E+03  0.00000000000E+00 0. -1.
          6    1    1    2  501    0 -0.18317253352E+03 -0.74459597938E+02  0.10296905045E+02  0.26292857398E+03  0.17300000000E+03 0. -1.
         -6    1    1    2    0  503  0.18317253352E+03  0.74459597938E+02 -0.33899874661E+03  0.42888874894E+03  0.17300000000E+03 0. -1.
<mgrwt>
<rscale>  2 0.26272687E+03</rscale>
<asrwt>0</asrwt>
<pdfrwt beam="1">  1       21 0.27931960E-01 0.26272687E+03</pdfrwt>
<pdfrwt beam="2">  1       21 0.78501475E-01 0.26272687E+03</pdfrwt>
<totfact> 0.16899422E+04</totfact>
</mgrwt>
</event>
<event>
 4    1  0.4050555E+000  0.2238802E+03  0.7546771E-02  0.1131023E+00
         21   -1    0    0  503  502  0.00000000000E+00  0.00000000000E+00  0.13306093486E+03  0.13306093486E+03  0.00000000000E+00 0. -1.
         21   -1    0    0  501  503 -0.00000000000E+00 -0.00000000000E+00 -0.42914735955E+03  0.42914735955E+03  0.00000000000E+00 0. -1.
          6    1    1    2  501    0  0.46578927350E+02  0.13425249503E+03 -0.24632646507E+03  0.33286492199E+03  0.17300000000E+03 0. -1.
         -6    1    1    2    0  502 -0.46578927350E+02 -0.13425249503E+03 -0.49759959619E+02  0.22934337243E+03  0.17300000000E+03 0. -1.
<mgrwt>
<rscale>  2 0.22388017E+03</rscale>
<asrwt>0</asrwt>
<pdfrwt beam="1">  1       21 0.20470913E-01 0.22388017E+03</pdfrwt>
<pdfrwt beam="2">  1       21 0.66022670E-01 0.22388017E+03</pdfrwt>
<totfact> 0.45855896E+04</totfact>
</mgrwt>
</event>
<event>
 4    1  0.4050555E+000  0.1990077E+03  0.7546771E-02  0.1150579E+00
         21   -1    0    0  503  502  0.00000000000E+00  0.00000000000E+00  0.43864482559E+03  0.43864482559E+03  0.00000000000E+00 0. -1.
         21   -1    0    0  501  503 -0.00000000000E+00 -0.00000000000E+00 -0.96246205329E+02  0.96246205329E+02  0.00000000000E+00 0. -1.
          6    1    1    2  501    0  0.94157202596E+02 -0.28451394312E+02  0.10465262155E+03  0.22484712993E+03  0.17300000000E+03 0. -1.
         -6    1    1    2    0  502 -0.94157202596E+02  0.28451394312E+02  0.23774599871E+03  0.31004390099E+03  0.17300000000E+03 0. -1.
<mgrwt>
<rscale>  2 0.19900769E+03</rscale>
<asrwt>0</asrwt>
<pdfrwt beam="1">  1       21 0.67483819E-01 0.19900769E+03</pdfrwt>
<pdfrwt beam="2">  1       21 0.14807109E-01 0.19900769E+03</pdfrwt>
<totfact> 0.80430053E+04</totfact>
</mgrwt>
</event>
<event>
 4    1  0.4050555E+000  0.1803055E+03  0.7546771E-02  0.1167508E+00
         21   -1    0    0  501  502  0.00000000000E+00  0.00000000000E+00  0.20671532814E+02  0.20671532814E+02  0.00000000000E+00 0.  1.
         21   -1    0    0  502  503 -0.00000000000E+00 -0.00000000000E+00 -0.21037443131E+04  0.21037443131E+04  0.00000000000E+00 0.  1.
          6    1    1    2  501    0  0.48082755015E+02 -0.16404406950E+02 -0.50785789698E+03  0.53891529893E+03  0.17300000000E+03 0. -1.
         -6    1    1    2    0  503 -0.48082755015E+02  0.16404406950E+02 -0.15752148833E+04  0.15855005470E+04  0.17300000000E+03 0. -1.
<mgrwt>
<rscale>  2 0.18030545E+03</rscale>
<asrwt>0</asrwt>
<pdfrwt beam="1">  1       21 0.31802349E-02 0.18030545E+03</pdfrwt>
<pdfrwt beam="2">  1       21 0.32365307E+00 0.18030545E+03</pdfrwt>
<totfact> 0.14520577E+04</totfact>
</mgrwt>
</event>
<event>
 4    1  0.4050555E+000  0.2592875E+03  0.7546771E-02  0.1107572E+00
         21   -1    0    0  501  502  0.00000000000E+00  0.00000000000E+00  0.44719918226E+03  0.44719918226E+03  0.00000000000E+00 0. -1.
         21   -1    0    0  502  503 -0.00000000000E+00 -0.00000000000E+00 -0.23128951301E+03  0.23128951301E+03  0.00000000000E+00 0.  1.
          6    1    1    2  501    0 -0.23787987806E+02  0.19166412583E+03  0.30865756643E+03  0.40311226577E+03  0.17300000000E+03 0. -1.
         -6    1    1    2    0  503  0.23787987806E+02 -0.19166412583E+03 -0.92747897179E+02  0.27537642950E+03  0.17300000000E+03 0.  1.
<mgrwt>
<rscale>  2 0.25928750E+03</rscale>
<asrwt>0</asrwt>
<pdfrwt beam="1">  1       21 0.68799874E-01 0.25928750E+03</pdfrwt>
<pdfrwt beam="2">  1       21 0.35583002E-01 0.25928750E+03</pdfrwt>
<totfact> 0.14107105E+04</totfact>
</mgrwt>
</event>
<event>
 4    1  0.4050555E+000  0.1786922E+03  0.7546771E-02  0.1169075E+00
         21   -1    0    0  501  502  0.00000000000E+00  0.00000000000E+00  0.37796496031E+03  0.37796496031E+03  0.00000000000E+00 0.  1.
         21   -1    0    0  502  503 -0.00000000000E+00 -0.00000000000E+00 -0.89784983237E+02  0.89784983237E+02  0.00000000000E+00 0.  1.
          6    1    1    2  501    0  0.25519908188E+02 -0.36750802094E+02  0.20093335450E+03  0.26889607680E+03  0.17300000000E+03 0.  1.
         -6    1    1    2    0  503 -0.25519908188E+02  0.36750802094E+02  0.87246622567E+02  0.19885386674E+03  0.17300000000E+03 0.  1.
<mgrwt>
<rscale>  2 0.17869216E+03</rscale>
<asrwt>0</asrwt>
<pdfrwt beam="1">  1       21 0.58148454E-01 0.17869216E+03</pdfrwt>
<pdfrwt beam="2">  1       21 0.13813075E-01 0.17869216E+03</pdfrwt>
<totfact> 0.12687161E+05</totfact>
</mgrwt>
</event>
<event>
 4    1  0.4050555E+000  0.2252772E+03  0.7546771E-02  0.1130009E+00
         21   -1    0    0  503  502  0.00000000000E+00  0.00000000000E+00  0.21653233856E+03  0.21653233856E+03  0.00000000000E+00 0.  1.
         21   -1    0    0  501  503 -0.00000000000E+00 -0.00000000000E+00 -0.24367082012E+03  0.24367082012E+03  0.00000000000E+00 0.  1.
          6    1    1    2  501    0  0.75306614071E+02 -0.12308419607E+03 -0.58511772017E+02  0.23275186983E+03  0.17300000000E+03 0.  1.
         -6    1    1    2    0  502 -0.75306614071E+02  0.12308419607E+03  0.31373290453E+02  0.22745128885E+03  0.17300000000E+03 0.  1.
<mgrwt>
<rscale>  2 0.22527717E+03</rscale>
<asrwt>0</asrwt>
<pdfrwt beam="1">  1       21 0.33312667E-01 0.22527717E+03</pdfrwt>
<pdfrwt beam="2">  1       21 0.37487819E-01 0.22527717E+03</pdfrwt>
<totfact> 0.58686281E+04</totfact>
</mgrwt>
</event>
<event>
 4    1  0.4050555E+000  0.1925827E+03  0.7546771E-02  0.1156152E+00
         21   -1    0    0  501  502  0.00000000000E+00  0.00000000000E+00  0.54985736567E+03  0.54985736567E+03  0.00000000000E+00 0.  1.
         21   -1    0    0  502  503 -0.00000000000E+00 -0.00000000000E+00 -0.69970253259E+02  0.69970253259E+02  0.00000000000E+00 0. -1.
          6    1    1    2  501    0 -0.35979299524E+02  0.76580521817E+02  0.29875662745E+03  0.35544846147E+03  0.17300000000E+03 0.  1.
         -6    1    1    2    0  503  0.35979299524E+02 -0.76580521817E+02  0.18113048496E+03  0.26437915745E+03  0.17300000000E+03 0. -1.
<mgrwt>
<rscale>  2 0.19258267E+03</rscale>
<asrwt>0</asrwt>
<pdfrwt beam="1">  1       21 0.84593438E-01 0.19258267E+03</pdfrwt>
<pdfrwt beam="2">  1       21 0.10764655E-01 0.19258267E+03</pdfrwt>
<totfact> 0.86285396E+04</totfact>
</mgrwt>
</event>
<event>
 4    1  0.4050555E+000  0.2259192E+03  0.7546771E-02  0.1129545E+00
         21   -1    0    0  501  502  0.00000000000E+00  0.00000000000E+00  0.76172972862E+02  0.76172972862E+02  0.00000000000E+00 0. -1.
         21   -1    0    0  502  503 -0.00000000000E+00 -0.00000000000E+00 -0.67120247051E+03  0.67120247051E+03  0.00000000000E+00 0. -1.
          6    1    1    2  501    0 -0.55416519479E+02  0.13431110350E+03 -0.28200934148E+03  0.36134295598E+03  0.17300000000E+03 0. -1.
         -6    1    1    2    0  503  0.55416519479E+02 -0.13431110350E+03 -0.31302015616E+03  0.38603248739E+03  0.17300000000E+03 0. -1.
<mgrwt>
<rscale>  2 0.22591915E+03</rscale>
<asrwt>0</asrwt>
<pdfrwt beam="1">  1       21 0.11718919E-01 0.22591915E+03</pdfrwt>
<pdfrwt beam="2">  1       21 0.10326192E+00 0.22591915E+03</pdfrwt>
<totfact> 0.45779736E+04</totfact>
</mgrwt>
</event>
<event>
 4    1  0.4050555E+000  0.1922214E+03  0.7546771E-02  0.1156473E+00
         21   -1    0    0  503  502  0.00000000000E+00  0.00000000000E+00  0.50997420937E+03  0.50997420937E+03  0.00000000000E+00 0. -1.
         21   -1    0    0  501  503 -0.00000000000E+00 -0.00000000000E+00 -0.79574412087E+02  0.79574412087E+02  0.00000000000E+00 0. -1.
          6    1    1    2  501    0  0.47912025217E+02 -0.68735169240E+02  0.12701575527E+03  0.23039550286E+03  0.17300000000E+03 0. -1.
         -6    1    1    2    0  502 -0.47912025217E+02  0.68735169240E+02  0.30338404201E+03  0.35915311860E+03  0.17300000000E+03 0. -1.
<mgrwt>
<rscale>  2 0.19222145E+03</rscale>
<asrwt>0</asrwt>
<pdfrwt beam="1">  1       21 0.78457569E-01 0.19222145E+03</pdfrwt>
<pdfrwt beam="2">  1       21 0.12242218E-01 0.19222145E+03</pdfrwt>
<totfact> 0.81387301E+04</totfact>
</mgrwt>
</event>
<event>
 4    1  0.4050555E+000  0.2347104E+03  0.7546771E-02  0.1123368E+00
         21   -1    0    0  501  502  0.00000000000E+00  0.00000000000E+00  0.21544126076E+04  0.21544126076E+04  0.00000000000E+00 0. -1.
         21   -1    0    0  502  503 -0.00000000000E+00 -0.00000000000E+00 -0.57279311674E+02  0.57279311674E+02  0.00000000000E+00 0. -1.
          6    1    1    2  501    0  0.13710761663E+03  0.79758948858E+02  0.18713529558E+04  0.18860145475E+04  0.17300000000E+03 0. -1.
         -6    1    1    2    0  503 -0.13710761663E+03 -0.79758948858E+02  0.22578034016E+03  0.32567737174E+03  0.17300000000E+03 0. -1.
<mgrwt>
<rscale>  2 0.23471044E+03</rscale>
<asrwt>0</asrwt>
<pdfrwt beam="1">  1       21 0.33144803E+00 0.23471044E+03</pdfrwt>
<pdfrwt beam="2">  1       21 0.88122034E-02 0.23471044E+03</pdfrwt>
<totfact> 0.21629204E+03</totfact>
</mgrwt>
</event>
<event>
 4    1  0.4050555E+000  0.3132970E+03  0.7546771E-02  0.1078776E+00
         21   -1    0    0  501  502  0.00000000000E+00  0.00000000000E+00  0.32873314922E+03  0.32873314922E+03  0.00000000000E+00 0. -1.
         21   -1    0    0  502  503 -0.00000000000E+00 -0.00000000000E+00 -0.31339129860E+03  0.31339129860E+03  0.00000000000E+00 0.  1.
          6    1    1    2  501    0  0.16113043976E+03  0.20557957980E+03 -0.62113788162E+02  0.31939490435E+03  0.17300000000E+03 0.  1.
         -6    1    1    2    0  503 -0.16113043976E+03 -0.20557957980E+03  0.77455638786E+02  0.32272954347E+03  0.17300000000E+03 0. -1.
<mgrwt>
<rscale>  2 0.31329696E+03</rscale>
<asrwt>0</asrwt>
<pdfrwt beam="1">  1       21 0.50574331E-01 0.31329696E+03</pdfrwt>
<pdfrwt beam="2">  1       21 0.48214046E-01 0.31329696E+03</pdfrwt>
<totfact> 0.14374420E+04</totfact>
</mgrwt>
</event>
<event>
 4    1  0.4050555E+000  0.1752866E+03  0.7546771E-02  0.1172444E+00
         21   -1    0    0  501  502  0.00000000000E+00  0.00000000000E+00  0.40926284529E+03  0.40926284529E+03  0.00000000000E+00 0.  1.
         21   -1    0    0  502  503 -0.00000000000E+00 -0.00000000000E+00 -0.98336137581E+02  0.98336137581E+02  0.00000000000E+00 0.  1.
          6    1    1    2  501    0 -0.27731137682E+02  0.52305607443E+01  0.27890178974E+03  0.32941096382E+03  0.17300000000E+03 0.  1.
         -6    1    1    2    0  503  0.27731137682E+02 -0.52305607443E+01  0.32024917968E+02  0.17818801905E+03  0.17300000000E+03 0.  1.
<mgrwt>
<rscale>  2 0.17528655E+03</rscale>
<asrwt>0</asrwt>
<pdfrwt beam="1">  1       21 0.62963514E-01 0.17528655E+03</pdfrwt>
<pdfrwt beam="2">  1       21 0.15128637E-01 0.17528655E+03</pdfrwt>
<totfact> 0.90829417E+04</totfact>
</mgrwt>
</event>
<event>
 4    1  0.4050555E+000  0.1805102E+03  0.7546771E-02  0.1167310E+00
         21   -1    0    0  503  502  0.00000000000E+00  0.00000000000E+00  0.21524317733E+03  0.21524317733E+03  0.00000000000E+00 0. -1.
         21   -1    0    0  501  503 -0.00000000000E+00 -0.00000000000E+00 -0.18373553037E+03  0.18373553037E+03  0.00000000000E+00 0.  1.
          6    1    1    2  501    0  0.48671897771E+02  0.16911238697E+02 -0.67957451911E+02  0.19287861182E+03  0.17300000000E+03 0.  1.
         -6    1    1    2    0  502 -0.48671897771E+02 -0.16911238697E+02  0.99465098871E+02  0.20610009588E+03  0.17300000000E+03 0. -1.
<mgrwt>
<rscale>  2 0.18051023E+03</rscale>
<asrwt>0</asrwt>
<pdfrwt beam="1">  1       21 0.33114335E-01 0.18051023E+03</pdfrwt>
<pdfrwt beam="2">  1       21 0.28267005E-01 0.18051023E+03</pdfrwt>
<totfact> 0.10550122E+05</totfact>
</mgrwt>
</event>
<event>
 4    1  0.4050555E+000  0.2206327E+03  0.7546771E-02  0.1133412E+00
         21   -1    0    0  503  502  0.00000000000E+00  0.00000000000E+00  0.58511765486E+02  0.58511765486E+02  0.00000000000E+00 0.  1.
         21   -1    0    0  501  503 -0.00000000000E+00 -0.00000000000E+00 -0.86884607108E+03  0.86884607108E+03  0.00000000000E+00 0. -1.
          6    1    1    2  501    0  0.13360735479E+03 -0.29981215635E+02 -0.50071975172E+03  0.54717370944E+03  0.17300000000E+03 0. -1.
         -6    1    1    2    0  502 -0.13360735479E+03  0.29981215635E+02 -0.30961455388E+03  0.38018412713E+03  0.17300000000E+03 0.  1.
<mgrwt>
<rscale>  2 0.22063272E+03</rscale>
<asrwt>0</asrwt>
<pdfrwt beam="1">  1       21 0.90018100E-02 0.22063272E+03</pdfrwt>
<pdfrwt beam="2">  1       21 0.13366863E+00 0.22063272E+03</pdfrwt>
<totfact> 0.38728295E+04</totfact>
</mgrwt>
</event>
<event>
 4    1  0.4050555E+000  0.1799734E+03  0.7546771E-02  0.1167829E+00
         21   -1    0    0  503  502  0.00000000000E+00  0.00000000000E+00  0.12090939588E+04  0.12090939588E+04  0.00000000000E+00 0. -1.
         21   -1    0    0  501  503 -0.00000000000E+00 -0.00000000000E+00 -0.50138195986E+02  0.50138195986E+02  0.00000000000E+00 0. -1.
          6    1    1    2  501    0  0.44923890338E+02  0.21053941388E+02  0.14981545743E+03  0.23416894682E+03  0.17300000000E+03 0. -1.
         -6    1    1    2    0  502 -0.44923890338E+02 -0.21053941388E+02  0.10091403054E+04  0.10250632080E+04  0.17300000000E+03 0. -1.
<mgrwt>
<rscale>  2 0.17997340E+03</rscale>
<asrwt>0</asrwt>
<pdfrwt beam="1">  1       21 0.18601443E+00 0.17997340E+03</pdfrwt>
<pdfrwt beam="2">  1       21 0.77135695E-02 0.17997340E+03</pdfrwt>
<totfact> 0.21390739E+04</totfact>
</mgrwt>
</event>
<event>
 4    1  0.4050555E+000  0.2150394E+03  0.7546771E-02  0.1137636E+00
         21   -1    0    0  501  502  0.00000000000E+00  0.00000000000E+00  0.80812650413E+03  0.80812650413E+03  0.00000000000E+00 0. -1.
         21   -1    0    0  502  503 -0.00000000000E+00 -0.00000000000E+00 -0.15915648743E+03  0.15915648743E+03  0.00000000000E+00 0.  1.
          6    1    1    2  501    0  0.37164694538E+02 -0.12219550630E+03  0.71154090705E+03  0.74332524422E+03  0.17300000000E+03 0. -1.
         -6    1    1    2    0  503 -0.37164694538E+02  0.12219550630E+03 -0.62570890353E+02  0.22395774735E+03  0.17300000000E+03 0.  1.
<mgrwt>
<rscale>  2 0.21503943E+03</rscale>
<asrwt>0</asrwt>
<pdfrwt beam="1">  1       21 0.12432715E+00 0.21503943E+03</pdfrwt>
<pdfrwt beam="2">  1       21 0.24485614E-01 0.21503943E+03</pdfrwt>
<totfact> 0.74941151E+03</totfact>
</mgrwt>
</event>
<event>
 4    1  0.4050555E+000  0.1920400E+03  0.7546771E-02  0.1156634E+00
         21   -1    0    0  501  502  0.00000000000E+00  0.00000000000E+00  0.27434279107E+03  0.27434279107E+03  0.00000000000E+00 0.  1.
         21   -1    0    0  502  503 -0.00000000000E+00 -0.00000000000E+00 -0.13897961762E+03  0.13897961762E+03  0.00000000000E+00 0.  1.
          6    1    1    2  501    0 -0.64980066243E+02 -0.52229835068E+02  0.10508094969E+03  0.21890950338E+03  0.17300000000E+03 0.  1.
         -6    1    1    2    0  503  0.64980066243E+02  0.52229835068E+02  0.30282223760E+02  0.19441290532E+03  0.17300000000E+03 0.  1.
<mgrwt>
<rscale>  2 0.19204001E+03</rscale>
<asrwt>0</asrwt>
<pdfrwt beam="1">  1       21 0.42206583E-01 0.19204001E+03</pdfrwt>
<pdfrwt beam="2">  1       21 0.21381480E-01 0.19204001E+03</pdfrwt>
<totfact> 0.11005685E+05</totfact>
</mgrwt>
</event>
<event>
 4    1  0.4050555E+000  0.1809420E+03  0.7546771E-02  0.1166894E+00
         21   -1    0    0  503  502  0.00000000000E+00  0.00000000000E+00  0.10232687816E+04  0.10232687816E+04  0.00000000000E+00 0.  1.
         21   -1    0    0  501  503 -0.00000000000E+00 -0.00000000000E+00 -0.32416342818E+02  0.32416342818E+02  0.00000000000E+00 0.  1.
          6    1    1    2  501    0 -0.52301055512E+02  0.86955990107E+01  0.43528482279E+03  0.47139462322E+03  0.17300000000E+03 0.  1.
         -6    1    1    2    0  502  0.52301055512E+02 -0.86955990107E+01  0.55556761595E+03  0.58429050116E+03  0.17300000000E+03 0.  1.
<mgrwt>
<rscale>  2 0.18094202E+03</rscale>
<asrwt>0</asrwt>
<pdfrwt beam="1">  1       21 0.15742594E+00 0.18094202E+03</pdfrwt>
<pdfrwt beam="2">  1       21 0.49871304E-02 0.18094202E+03</pdfrwt>
<totfact> 0.71474621E+04</totfact>
</mgrwt>
</event>
<event>
 4    1  0.4050555E+000  0.2186502E+03  0.7546771E-02  0.1134893E+00
         21   -1    0    0  503  502  0.00000000000E+00  0.00000000000E+00  0.20483232849E+04  0.20483232849E+04  0.00000000000E+00 0. -1.
         21   -1    0    0  501  503 -0.00000000000E+00 -0.00000000000E+00 -0.72367480219E+02  0.72367480219E+02  0.00000000000E+00 0. -1.
          6    1    1    2  501    0 -0.96417738822E+02 -0.92641868277E+02  0.11521687613E+03  0.24714939746E+03  0.17300000000E+03 0. -1.
         -6    1    1    2    0  502  0.96417738822E+02  0.92641868277E+02  0.18607389285E+04  0.18735413676E+04  0.17300000000E+03 0. -1.
<mgrwt>
<rscale>  2 0.21865017E+03</rscale>
<asrwt>0</asrwt>
<pdfrwt beam="1">  1       21 0.31512662E+00 0.21865017E+03</pdfrwt>
<pdfrwt beam="2">  1       21 0.11133460E-01 0.21865017E+03</pdfrwt>
<totfact> 0.18137264E+03</totfact>
</mgrwt>
</event>
<event>
 4    1  0.4050555E+000  0.3296695E+03  0.7546771E-02  0.1071283E+00
         21   -1    0    0  501  502  0.00000000000E+00  0.00000000000E+00  0.52194436729E+03  0.52194436729E+03  0.00000000000E+00 0. -1.
         21   -1    0    0  502  503 -0.00000000000E+00 -0.00000000000E+00 -0.10936899974E+04  0.10936899974E+04  0.00000000000E+00 0.  1.
          6    1    1    2  501    0 -0.10922131841E+02  0.28041695733E+03  0.44098860761E+03  0.55059323912E+03  0.17300000000E+03 0. -1.
         -6    1    1    2    0  503  0.10922131841E+02 -0.28041695733E+03 -0.10127342378E+04  0.10650411256E+04  0.17300000000E+03 0.  1.
<mgrwt>
<rscale>  2 0.32966948E+03</rscale>
<asrwt>0</asrwt>
<pdfrwt beam="1">  1       21 0.80299134E-01 0.32966948E+03</pdfrwt>
<pdfrwt beam="2">  1       21 0.16826000E+00 0.32966948E+03</pdfrwt>
<totfact> 0.26308569E+02</totfact>
</mgrwt>
</event>
<event>
 4    1  0.4050555E+000  0.1972864E+03  0.7546771E-02  0.1152049E+00
         21   -1    0    0  503  502  0.00000000000E+00  0.00000000000E+00  0.55142169525E+03  0.55142169525E+03  0.00000000000E+00 0.  1.
         21   -1    0    0  501  503 -0.00000000000E+00 -0.00000000000E+00 -0.70614672658E+02  0.70614672658E+02  0.00000000000E+00 0.  1.
          6    1    1    2  501    0 -0.44070072464E+02  0.83968794861E+02  0.24681218849E+03  0.31597181233E+03  0.17300000000E+03 0.  1.
         -6    1    1    2    0  502  0.44070072464E+02 -0.83968794861E+02  0.23399483411E+03  0.30606455558E+03  0.17300000000E+03 0.  1.
<mgrwt>
<rscale>  2 0.19728642E+03</rscale>
<asrwt>0</asrwt>
<pdfrwt beam="1">  1       21 0.84834104E-01 0.19728642E+03</pdfrwt>
<pdfrwt beam="2">  1       21 0.10863796E-01 0.19728642E+03</pdfrwt>
<totfact> 0.84164082E+04</totfact>
</mgrwt>
</event>
<event>
 4    1  0.4050555E+000  0.1847729E+03  0.7546771E-02  0.1163262E+00
         21   -1    0    0  501  502  0.00000000000E+00  0.00000000000E+00  0.27688439662E+03  0.27688439662E+03  0.00000000000E+00 0. -1.
         21   -1    0    0  502  503 -0.00000000000E+00 -0.00000000000E+00 -0.13203680253E+03  0.13203680253E+03  0.00000000000E+00 0.  1.
          6    1    1    2  501    0 -0.17173610403E+02 -0.62586750202E+02  0.12500514510E+03  0.22308590385E+03  0.17300000000E+03 0. -1.
         -6    1    1    2    0  503  0.17173610403E+02  0.62586750202E+02  0.19842448992E+02  0.18583529529E+03  0.17300000000E+03 0.  1.
<mgrwt>
<rscale>  2 0.18477293E+03</rscale>
<asrwt>0</asrwt>
<pdfrwt beam="1">  1       21 0.42597599E-01 0.18477293E+03</pdfrwt>
<pdfrwt beam="2">  1       21 0.20313354E-01 0.18477293E+03</pdfrwt>
<totfact> 0.11920036E+05</totfact>
</mgrwt>
</event>
<event>
 4    1  0.4050555E+000  0.1943469E+03  0.7546771E-02  0.1154598E+00
         21   -1    0    0  501  502  0.00000000000E+00  0.00000000000E+00  0.11912277948E+03  0.11912277948E+03  0.00000000000E+00 0. -1.
         21   -1    0    0  502  503 -0.00000000000E+00 -0.00000000000E+00 -0.61105254440E+03  0.61105254440E+03  0.00000000000E+00 0. -1.
          6    1    1    2  501    0 -0.49850358637E+02 -0.73189078688E+02  0.72655653472E+01  0.19448261602E+03  0.17300000000E+03 0. -1.
         -6    1    1    2    0  503  0.49850358637E+02  0.73189078688E+02 -0.49919533026E+03  0.53569270786E+03  0.17300000000E+03 0. -1.
<mgrwt>
<rscale>  2 0.19434685E+03</rscale>
<asrwt>0</asrwt>
<pdfrwt beam="1">  1       21 0.18326582E-01 0.19434685E+03</pdfrwt>
<pdfrwt beam="2">  1       21 0.94008083E-01 0.19434685E+03</pdfrwt>
<totfact> 0.25757479E+04</totfact>
</mgrwt>
</event>
<event>
 4    1  0.4050555E+000  0.1988262E+03  0.7546771E-02  0.1150733E+00
         21   -1    0    0  503  502  0.00000000000E+00  0.00000000000E+00  0.71471402090E+02  0.71471402090E+02  0.00000000000E+00 0. -1.
         21   -1    0    0  501  503 -0.00000000000E+00 -0.00000000000E+00 -0.10180099579E+04  0.10180099579E+04  0.00000000000E+00 0.  1.
          6    1    1    2  501    0 -0.91733314301E+02 -0.34465366951E+02 -0.84139103692E+03  0.86456390133E+03  0.17300000000E+03 0.  1.
         -6    1    1    2    0  502  0.91733314301E+02  0.34465366951E+02 -0.10514751885E+03  0.22491745862E+03  0.17300000000E+03 0. -1.
<mgrwt>
<rscale>  2 0.19882621E+03</rscale>
<asrwt>0</asrwt>
<pdfrwt beam="1">  1       21 0.10995601E-01 0.19882621E+03</pdfrwt>
<pdfrwt beam="2">  1       21 0.15661691E+00 0.19882621E+03</pdfrwt>
<totfact> 0.18203931E+04</totfact>
</mgrwt>
</event>
<event>
 4    1  0.4050555E+000  0.2007471E+03  0.7546771E-02  0.1149110E+00
         21   -1    0    0  503  502  0.00000000000E+00  0.00000000000E+00  0.97922342686E+02  0.97922342686E+02  0.00000000000E+00 0.  1.
         21   -1    0    0  501  503 -0.00000000000E+00 -0.00000000000E+00 -0.49308222628E+03  0.49308222628E+03  0.00000000000E+00 0. -1.
          6    1    1    2  501    0  0.37690501140E+02 -0.94603409296E+02 -0.31774579726E+03  0.37584806851E+03  0.17300000000E+03 0. -1.
         -6    1    1    2    0  502 -0.37690501140E+02  0.94603409296E+02 -0.77414086340E+02  0.21515650046E+03  0.17300000000E+03 0.  1.
<mgrwt>
<rscale>  2 0.20074705E+03</rscale>
<asrwt>0</asrwt>
<pdfrwt beam="1">  1       21 0.15064976E-01 0.20074705E+03</pdfrwt>
<pdfrwt beam="2">  1       21 0.75858803E-01 0.20074705E+03</pdfrwt>
<totfact> 0.60093911E+04</totfact>
</mgrwt>
</event>
<event>
 4    1  0.4050555E+000  0.1839520E+03  0.7546771E-02  0.1164032E+00
         21   -1    0    0  501  502  0.00000000000E+00  0.00000000000E+00  0.21738587972E+02  0.21738587972E+02  0.00000000000E+00 0. -1.
         21   -1    0    0  502  503 -0.00000000000E+00 -0.00000000000E+00 -0.15896623822E+04  0.15896623822E+04  0.00000000000E+00 0.  1.
          6    1    1    2  501    0 -0.86347633082E+01 -0.61925671163E+02 -0.66777168078E+03  0.69264519455E+03  0.17300000000E+03 0.  1.
         -6    1    1    2    0  503  0.86347633082E+01  0.61925671163E+02 -0.90015211346E+03  0.91875577563E+03  0.17300000000E+03 0.  1.
<mgrwt>
<rscale>  2 0.18395203E+03</rscale>
<asrwt>0</asrwt>
<pdfrwt beam="1">  1       21 0.33443997E-02 0.18395203E+03</pdfrwt>
<pdfrwt beam="2">  1       21 0.24456333E+00 0.18395203E+03</pdfrwt>
<totfact> 0.38086660E+04</totfact>
</mgrwt>
</event>
<event>
 4    1  0.4050555E+000  0.1920991E+03  0.7546771E-02  0.1156582E+00
         21   -1    0    0  503  502  0.00000000000E+00  0.00000000000E+00  0.38800550992E+04  0.38800550992E+04  0.00000000000E+00 0.  1.
         21   -1    0    0  501  503 -0.00000000000E+00 -0.00000000000E+00 -0.33161897175E+02  0.33161897175E+02  0.00000000000E+00 0.  1.
          6    1    1    2  501    0 -0.35733831603E+02  0.75472810911E+02  0.27106333723E+03  0.33223092074E+03  0.17300000000E+03 0.  1.
         -6    1    1    2    0  502  0.35733831603E+02 -0.75472810911E+02  0.35758298648E+04  0.35809860756E+04  0.17300000000E+03 0.  1.
<mgrwt>
<rscale>  2 0.19209907E+03</rscale>
<asrwt>0</asrwt>
<pdfrwt beam="1">  1       21 0.59693120E+00 0.19209907E+03</pdfrwt>
<pdfrwt beam="2">  1       21 0.51018334E-02 0.19209907E+03</pdfrwt>
<totfact> 0.93765517E+01</totfact>
</mgrwt>
</event>
<event>
 4    1  0.4050555E+000  0.2636538E+03  0.7546771E-02  0.1104968E+00
         21   -1    0    0  501  502  0.00000000000E+00  0.00000000000E+00  0.21328195854E+03  0.21328195854E+03  0.00000000000E+00 0. -1.
         21   -1    0    0  502  503 -0.00000000000E+00 -0.00000000000E+00 -0.49518045947E+03  0.49518045947E+03  0.00000000000E+00 0. -1.
          6    1    1    2  501    0  0.10538814494E+03 -0.16875327026E+03  0.66150699703E+02  0.27182575740E+03  0.17300000000E+03 0. -1.
         -6    1    1    2    0  503 -0.10538814494E+03  0.16875327026E+03 -0.34804920064E+03  0.43663666060E+03  0.17300000000E+03 0. -1.
<mgrwt>
<rscale>  2 0.26365380E+03</rscale>
<asrwt>0</asrwt>
<pdfrwt beam="1">  1       21 0.32812609E-01 0.26365380E+03</pdfrwt>
<pdfrwt beam="2">  1       21 0.76181609E-01 0.26365380E+03</pdfrwt>
<totfact> 0.13173233E+04</totfact>
</mgrwt>
</event>
<event>
 4    1  0.4050555E+000  0.1753240E+03  0.7546771E-02  0.1172407E+00
         21   -1    0    0  503  502  0.00000000000E+00  0.00000000000E+00  0.66173549300E+03  0.66173549300E+03  0.00000000000E+00 0.  1.
         21   -1    0    0  501  503 -0.00000000000E+00 -0.00000000000E+00 -0.46872896790E+02  0.46872896790E+02  0.00000000000E+00 0.  1.
          6    1    1    2  501    0  0.21430653477E+02 -0.18714450970E+02  0.27383116915E+03  0.32514921618E+03  0.17300000000E+03 0. -1.
         -6    1    1    2    0  502 -0.21430653477E+02  0.18714450970E+02  0.34103142706E+03  0.38345917361E+03  0.17300000000E+03 0. -1.
<mgrwt>
<rscale>  2 0.17532400E+03</rscale>
<asrwt>0</asrwt>
<pdfrwt beam="1">  1       21 0.10180545E+00 0.17532400E+03</pdfrwt>
<pdfrwt beam="2">  1       21 0.72112154E-02 0.17532400E+03</pdfrwt>
<totfact> 0.11382788E+05</totfact>
</mgrwt>
</event>
<event>
 4    1  0.4050555E+000  0.2351460E+03  0.7546771E-02  0.1123069E+00
         21   -1    0    0  503  502  0.00000000000E+00  0.00000000000E+00  0.82760442521E+02  0.82760442521E+02  0.00000000000E+00 0. -1.
         21   -1    0    0  501  503 -0.00000000000E+00 -0.00000000000E+00 -0.70811255058E+03  0.70811255058E+03  0.00000000000E+00 0. -1.
          6    1    1    2  501    0 -0.15037892350E+03  0.52448321194E+02 -0.40665535301E+03  0.46974697781E+03  0.17300000000E+03 0. -1.
         -6    1    1    2    0  502  0.15037892350E+03 -0.52448321194E+02 -0.21869675505E+03  0.32112601529E+03  0.17300000000E+03 0. -1.
<mgrwt>
<rscale>  2 0.23514601E+03</rscale>
<asrwt>0</asrwt>
<pdfrwt beam="1">  1       21 0.12732375E-01 0.23514601E+03</pdfrwt>
<pdfrwt beam="2">  1       21 0.10894040E+00 0.23514601E+03</pdfrwt>
<totfact> 0.34492959E+04</totfact>
</mgrwt>
</event>
<event>
 4    1  0.4050555E+000  0.1820935E+03  0.7546771E-02  0.1165792E+00
         21   -1    0    0  501  502  0.00000000000E+00  0.00000000000E+00  0.94362797514E+02  0.94362797514E+02  0.00000000000E+00 0.  1.
         21   -1    0    0  502  503 -0.00000000000E+00 -0.00000000000E+00 -0.36365570579E+03  0.36365570579E+03  0.00000000000E+00 0.  1.
          6    1    1    2  501    0  0.38238125580E+00 -0.56823512328E+02 -0.92586367348E+02  0.20427993829E+03  0.17300000000E+03 0.  1.
         -6    1    1    2    0  503 -0.38238125580E+00  0.56823512328E+02 -0.17670654093E+03  0.25373856501E+03  0.17300000000E+03 0.  1.
<mgrwt>
<rscale>  2 0.18209354E+03</rscale>
<asrwt>0</asrwt>
<pdfrwt beam="1">  1       21 0.14517353E-01 0.18209354E+03</pdfrwt>
<pdfrwt beam="2">  1       21 0.55947032E-01 0.18209354E+03</pdfrwt>
<totfact> 0.12570959E+05</totfact>
</mgrwt>
</event>
<event>
 4    1  0.4050555E+000  0.1815448E+03  0.7546771E-02  0.1166316E+00
         21   -1    0    0  503  502  0.00000000000E+00  0.00000000000E+00  0.20733780527E+03  0.20733780527E+03  0.00000000000E+00 0. -1.
         21   -1    0    0  501  503 -0.00000000000E+00 -0.00000000000E+00 -0.16976896232E+03  0.16976896232E+03  0.00000000000E+00 0. -1.
          6    1    1    2  501    0  0.11798239696E+02  0.53761813765E+02 -0.28791387552E+02  0.18381369665E+03  0.17300000000E+03 0. -1.
         -6    1    1    2    0  502 -0.11798239696E+02 -0.53761813765E+02  0.66360230499E+02  0.19329307093E+03  0.17300000000E+03 0. -1.
<mgrwt>
<rscale>  2 0.18154485E+03</rscale>
<asrwt>0</asrwt>
<pdfrwt beam="1">  1       21 0.31898124E-01 0.18154485E+03</pdfrwt>
<pdfrwt beam="2">  1       21 0.26118302E-01 0.18154485E+03</pdfrwt>
<totfact> 0.13215065E+05</totfact>
</mgrwt>
</event>
<event>
 4    1  0.4050555E+000  0.1738301E+03  0.7546771E-02  0.1173912E+00
         21   -1    0    0  501  502  0.00000000000E+00  0.00000000000E+00  0.24107486993E+03  0.24107486993E+03  0.00000000000E+00 0.  1.
         21   -1    0    0  502  503 -0.00000000000E+00 -0.00000000000E+00 -0.26878020625E+03  0.26878020625E+03  0.00000000000E+00 0.  1.
          6    1    1    2  501    0 -0.53702666123E+01  0.16095477082E+02  0.17237745011E+03  0.24480786232E+03  0.17300000000E+03 0.  1.
         -6    1    1    2    0  503  0.53702666123E+01 -0.16095477082E+02 -0.20008278644E+03  0.26504721386E+03  0.17300000000E+03 0.  1.
<mgrwt>
<rscale>  2 0.17383010E+03</rscale>
<asrwt>0</asrwt>
<pdfrwt beam="1">  1       21 0.37088442E-01 0.17383010E+03</pdfrwt>
<pdfrwt beam="2">  1       21 0.41350801E-01 0.17383010E+03</pdfrwt>
<totfact> 0.39864771E+04</totfact>
</mgrwt>
</event>
<event>
 4    1  0.4050555E+000  0.1869947E+03  0.7546771E-02  0.1161200E+00
         21   -1    0    0  501  502  0.00000000000E+00  0.00000000000E+00  0.28710460254E+03  0.28710460254E+03  0.00000000000E+00 0.  1.
         21   -1    0    0  502  503 -0.00000000000E+00 -0.00000000000E+00 -0.54797520450E+03  0.54797520450E+03  0.00000000000E+00 0.  1.
          6    1    1    2  501    0 -0.69879859046E+02 -0.12443184929E+02  0.23779178141E+03  0.30250943598E+03  0.17300000000E+03 0.  1.
         -6    1    1    2    0  503  0.69879859046E+02  0.12443184929E+02 -0.49866238337E+03  0.53257037107E+03  0.17300000000E+03 0.  1.
<mgrwt>
<rscale>  2 0.18699473E+03</rscale>
<asrwt>0</asrwt>
<pdfrwt beam="1">  1       21 0.44169939E-01 0.18699473E+03</pdfrwt>
<pdfrwt beam="2">  1       21 0.84303878E-01 0.18699473E+03</pdfrwt>
<totfact> 0.60370618E+03</totfact>
</mgrwt>
</event>
<event>
 4    1  0.4050555E+000  0.2101288E+03  0.7546771E-02  0.1141464E+00
         21   -1    0    0  501  502  0.00000000000E+00  0.00000000000E+00  0.16418076720E+03  0.16418076720E+03  0.00000000000E+00 0.  1.
         21   -1    0    0  502  503 -0.00000000000E+00 -0.00000000000E+00 -0.33725520189E+03  0.33725520189E+03  0.00000000000E+00 0.  1.
          6    1    1    2  501    0  0.11228310828E+03 -0.40219678349E+02  0.26306542799E+02  0.21176910333E+03  0.17300000000E+03 0.  1.
         -6    1    1    2    0  503 -0.11228310828E+03  0.40219678349E+02 -0.19938097749E+03  0.28966686575E+03  0.17300000000E+03 0.  1.
<mgrwt>
<rscale>  2 0.21012882E+03</rscale>
<asrwt>0</asrwt>
<pdfrwt beam="1">  1       21 0.25258580E-01 0.21012882E+03</pdfrwt>
<pdfrwt beam="2">  1       21 0.51885415E-01 0.21012882E+03</pdfrwt>
<totfact> 0.51940225E+04</totfact>
</mgrwt>
</event>
<event>
 4    1  0.4050555E+000  0.2227974E+03  0.7546771E-02  0.1131815E+00
         21   -1    0    0  503  502  0.00000000000E+00  0.00000000000E+00  0.35057931394E+03  0.35057931394E+03  0.00000000000E+00 0. -1.
         21   -1    0    0  501  503 -0.00000000000E+00 -0.00000000000E+00 -0.16451523670E+03  0.16451523670E+03  0.00000000000E+00 0.  1.
          6    1    1    2  501    0  0.48348740546E+02  0.13180312571E+03 -0.31086080186E+01  0.22281904789E+03  0.17300000000E+03 0.  1.
         -6    1    1    2    0  502 -0.48348740546E+02 -0.13180312571E+03  0.18917268526E+03  0.29227550275E+03  0.17300000000E+03 0. -1.
<mgrwt>
<rscale>  2 0.22279736E+03</rscale>
<asrwt>0</asrwt>
<pdfrwt beam="1">  1       21 0.53935279E-01 0.22279736E+03</pdfrwt>
<pdfrwt beam="2">  1       21 0.25310037E-01 0.22279736E+03</pdfrwt>
<totfact> 0.47402485E+04</totfact>
</mgrwt>
</event>
<event>
 4    1  0.4050555E+000  0.2046463E+03  0.7546771E-02  0.1145877E+00
         21   -1    0    0  503  502  0.00000000000E+00  0.00000000000E+00  0.28905079238E+03  0.28905079238E+03  0.00000000000E+00 0. -1.
         21   -1    0    0  501  503 -0.00000000000E+00 -0.00000000000E+00 -0.14841692312E+03  0.14841692312E+03  0.00000000000E+00 0. -1.
          6    1    1    2  501    0 -0.61542200318E+02 -0.90353079326E+02  0.36590713004E+02  0.20789180273E+03  0.17300000000E+03 0. -1.
         -6    1    1    2    0  502  0.61542200318E+02  0.90353079326E+02  0.10404315626E+03  0.22957591278E+03  0.17300000000E+03 0. -1.
<mgrwt>
<rscale>  2 0.20464633E+03</rscale>
<asrwt>0</asrwt>
<pdfrwt beam="1">  1       21 0.44469353E-01 0.20464633E+03</pdfrwt>
<pdfrwt beam="2">  1       21 0.22833373E-01 0.20464633E+03</pdfrwt>
<totfact> 0.86930468E+04</totfact>
</mgrwt>
</event>
<event>
 4    1  0.4050555E+000  0.1861741E+03  0.7546771E-02  0.1161958E+00
         21   -1    0    0  501  502  0.00000000000E+00  0.00000000000E+00  0.87412949995E+02  0.87412949995E+02  0.00000000000E+00 0.  1.
         21   -1    0    0  502  503 -0.00000000000E+00 -0.00000000000E+00 -0.57123414566E+03  0.57123414566E+03  0.00000000000E+00 0.  1.
          6    1    1    2  501    0  0.64798558223E+02 -0.23085593543E+02 -0.59780226653E+02  0.19553637328E+03  0.17300000000E+03 0.  1.
         -6    1    1    2    0  503 -0.64798558223E+02  0.23085593543E+02 -0.42404096901E+03  0.46311072237E+03  0.17300000000E+03 0.  1.
<mgrwt>
<rscale>  2 0.18617411E+03</rscale>
<asrwt>0</asrwt>
<pdfrwt beam="1">  1       21 0.13448146E-01 0.18617411E+03</pdfrwt>
<pdfrwt beam="2">  1       21 0.87882178E-01 0.18617411E+03</pdfrwt>
<totfact> 0.53240645E+04</totfact>
</mgrwt>
</event>
<event>
 4    1  0.4050555E+000  0.1898380E+03  0.7546771E-02  0.1158608E+00
         21   -1    0    0  501  502  0.00000000000E+00  0.00000000000E+00  0.18745238901E+03  0.18745238901E+03  0.00000000000E+00 0.  1.
         21   -1    0    0  502  503 -0.00000000000E+00 -0.00000000000E+00 -0.23170892779E+03  0.23170892779E+03  0.00000000000E+00 0.  1.
          6    1    1    2  501    0  0.75464197414E+02 -0.20362385970E+02  0.64354668690E+02  0.20044948300E+03  0.17300000000E+03 0.  1.
         -6    1    1    2    0  503 -0.75464197414E+02  0.20362385970E+02 -0.10861120747E+03  0.21871183379E+03  0.17300000000E+03 0.  1.
<mgrwt>
<rscale>  2 0.18983801E+03</rscale>
<asrwt>0</asrwt>
<pdfrwt beam="1">  1       21 0.28838829E-01 0.18983801E+03</pdfrwt>
<pdfrwt beam="2">  1       21 0.35647527E-01 0.18983801E+03</pdfrwt>
<totfact> 0.87408099E+04</totfact>
</mgrwt>
</event>
<event>
 4    1  0.4050555E+000  0.2041053E+03  0.7546771E-02  0.1146321E+00
         21   -1    0    0  501  502  0.00000000000E+00  0.00000000000E+00  0.55023933493E+03  0.55023933493E+03  0.00000000000E+00 0.  1.
         21   -1    0    0  502  503 -0.00000000000E+00 -0.00000000000E+00 -0.10785182091E+03  0.10785182091E+03  0.00000000000E+00 0.  1.
          6    1    1    2  501    0  0.45710001844E+02  0.98186445222E+02  0.40082137400E+03  0.44979634964E+03  0.17300000000E+03 0.  1.
         -6    1    1    2    0  503 -0.45710001844E+02 -0.98186445222E+02  0.41566140030E+02  0.20829480620E+03  0.17300000000E+03 0.  1.
<mgrwt>
<rscale>  2 0.20410532E+03</rscale>
<asrwt>0</asrwt>
<pdfrwt beam="1">  1       21 0.84652204E-01 0.20410532E+03</pdfrwt>
<pdfrwt beam="2">  1       21 0.16592588E-01 0.20410532E+03</pdfrwt>
<totfact> 0.39215385E+04</totfact>
</mgrwt>
</event>
<event>
 4    1  0.4050555E+000  0.1966109E+03  0.7546771E-02  0.1152630E+00
         21   -1    0    0  503  502  0.00000000000E+00  0.00000000000E+00  0.54499537682E+02  0.54499537682E+02  0.00000000000E+00 0.  1.
         21   -1    0    0  501  503 -0.00000000000E+00 -0.00000000000E+00 -0.96306123340E+03  0.96306123340E+03  0.00000000000E+00 0. -1.
          6    1    1    2  501    0  0.90572771859E+02 -0.22878107097E+02 -0.71545298255E+03  0.74197628333E+03  0.17300000000E+03 0. -1.
         -6    1    1    2    0  502 -0.90572771859E+02  0.22878107097E+02 -0.19310871316E+03  0.27558448774E+03  0.17300000000E+03 0.  1.
<mgrwt>
<rscale>  2 0.19661087E+03</rscale>
<asrwt>0</asrwt>
<pdfrwt beam="1">  1       21 0.83845445E-02 0.19661087E+03</pdfrwt>
<pdfrwt beam="2">  1       21 0.14816326E+00 0.19661087E+03</pdfrwt>
<totfact> 0.34055476E+04</totfact>
</mgrwt>
</event>
<event>
 4    1  0.4050555E+000  0.1797598E+03  0.7546771E-02  0.1168036E+00
         21   -1    0    0  503  502  0.00000000000E+00  0.00000000000E+00  0.28622333603E+02  0.28622333603E+02  0.00000000000E+00 0. -1.
         21   -1    0    0  501  503 -0.00000000000E+00 -0.00000000000E+00 -0.14182114314E+04  0.14182114314E+04  0.00000000000E+00 0. -1.
          6    1    1    2  501    0 -0.42034333681E+02 -0.24853720935E+02 -0.10214972188E+04  0.10371934056E+04  0.17300000000E+03 0. -1.
         -6    1    1    2    0  502  0.42034333681E+02  0.24853720935E+02 -0.36809187904E+03  0.40964035942E+03  0.17300000000E+03 0. -1.
<mgrwt>
<rscale>  2 0.17975982E+03</rscale>
<asrwt>0</asrwt>
<pdfrwt beam="1">  1       21 0.44034366E-02 0.17975982E+03</pdfrwt>
<pdfrwt beam="2">  1       21 0.21818634E+00 0.17975982E+03</pdfrwt>
<totfact> 0.34746560E+04</totfact>
</mgrwt>
</event>
<event>
 4    1  0.4050555E+000  0.2162401E+03  0.7546771E-02  0.1136718E+00
         21   -1    0    0  501  502  0.00000000000E+00  0.00000000000E+00  0.13777870582E+04  0.13777870582E+04  0.00000000000E+00 0.  1.
         21   -1    0    0  502  503 -0.00000000000E+00 -0.00000000000E+00 -0.43908564547E+02  0.43908564547E+02  0.00000000000E+00 0. -1.
          6    1    1    2  501    0  0.11581447413E+03  0.58461896056E+02  0.10056701308E+04  0.10286555292E+04  0.17300000000E+03 0.  1.
         -6    1    1    2    0  503 -0.11581447413E+03 -0.58461896056E+02  0.32820836281E+03  0.39304009354E+03  0.17300000000E+03 0. -1.
<mgrwt>
<rscale>  2 0.21624011E+03</rscale>
<asrwt>0</asrwt>
<pdfrwt beam="1">  1       21 0.21196721E+00 0.21624011E+03</pdfrwt>
<pdfrwt beam="2">  1       21 0.67551648E-02 0.21624011E+03</pdfrwt>
<totfact> 0.17815354E+04</totfact>
</mgrwt>
</event>
<event>
 4    1  0.4050555E+000  0.1853069E+03  0.7546771E-02  0.1162764E+00
         21   -1    0    0  501  502  0.00000000000E+00  0.00000000000E+00  0.10067925496E+03  0.10067925496E+03  0.00000000000E+00 0.  1.
         21   -1    0    0  502  503 -0.00000000000E+00 -0.00000000000E+00 -0.46606599450E+03  0.46606599450E+03  0.00000000000E+00 0.  1.
          6    1    1    2  501    0  0.22523465102E+02  0.62468792703E+02 -0.35941877882E+02  0.18876036429E+03  0.17300000000E+03 0.  1.
         -6    1    1    2    0  503 -0.22523465102E+02 -0.62468792703E+02 -0.32944486166E+03  0.37798488517E+03  0.17300000000E+03 0.  1.
<mgrwt>
<rscale>  2 0.18530693E+03</rscale>
<asrwt>0</asrwt>
<pdfrwt beam="1">  1       21 0.15489116E-01 0.18530693E+03</pdfrwt>
<pdfrwt beam="2">  1       21 0.71702460E-01 0.18530693E+03</pdfrwt>
<totfact> 0.65222389E+04</totfact>
</mgrwt>
</event>
<event>
 4    1  0.4050555E+000  0.1950481E+03  0.7546771E-02  0.1153985E+00
         21   -1    0    0  503  502  0.00000000000E+00  0.00000000000E+00  0.15704296567E+04  0.15704296567E+04  0.00000000000E+00 0.  1.
         21   -1    0    0  501  503 -0.00000000000E+00 -0.00000000000E+00 -0.31026124491E+02  0.31026124491E+02  0.00000000000E+00 0.  1.
          6    1    1    2  501    0  0.11516927049E+02  0.89342700723E+02  0.39480686564E+03  0.44035919309E+03  0.17300000000E+03 0.  1.
         -6    1    1    2    0  502 -0.11516927049E+02 -0.89342700723E+02  0.11445966665E+04  0.11610965881E+04  0.17300000000E+03 0.  1.
<mgrwt>
<rscale>  2 0.19504809E+03</rscale>
<asrwt>0</asrwt>
<pdfrwt beam="1">  1       21 0.24160450E+00 0.19504809E+03</pdfrwt>
<pdfrwt beam="2">  1       21 0.47732511E-02 0.19504809E+03</pdfrwt>
<totfact> 0.21644394E+04</totfact>
</mgrwt>
</event>
<event>
 4    1  0.4050555E+000  0.2002384E+03  0.7546771E-02  0.1149538E+00
         21   -1    0    0  503  502  0.00000000000E+00  0.00000000000E+00  0.99102206900E+02  0.99102206900E+02  0.00000000000E+00 0. -1.
         21   -1    0    0  501  503 -0.00000000000E+00 -0.00000000000E+00 -0.10739077954E+04  0.10739077954E+04  0.00000000000E+00 0. -1.
          6    1    1    2  501    0  0.49914867242E+02 -0.87606614200E+02 -0.95042897831E+03  0.97129329023E+03  0.17300000000E+03 0. -1.
         -6    1    1    2    0  502 -0.49914867242E+02  0.87606614200E+02 -0.24376610237E+02  0.20171671212E+03  0.17300000000E+03 0. -1.
<mgrwt>
<rscale>  2 0.20023839E+03</rscale>
<asrwt>0</asrwt>
<pdfrwt beam="1">  1       21 0.15246494E-01 0.20023839E+03</pdfrwt>
<pdfrwt beam="2">  1       21 0.16521657E+00 0.20023839E+03</pdfrwt>
<totfact> 0.87332531E+03</totfact>
</mgrwt>
</event>
<event>
 4    1  0.4050555E+000  0.1852132E+03  0.7546771E-02  0.1162851E+00
         21   -1    0    0  501  502  0.00000000000E+00  0.00000000000E+00  0.28019711214E+03  0.28019711214E+03  0.00000000000E+00 0.  1.
         21   -1    0    0  502  503 -0.00000000000E+00 -0.00000000000E+00 -0.14666974000E+03  0.14666974000E+03  0.00000000000E+00 0.  1.
          6    1    1    2  501    0 -0.65771176984E+02  0.70056642869E+01  0.15353486689E+03  0.24057614679E+03  0.17300000000E+03 0.  1.
         -6    1    1    2    0  503  0.65771176984E+02 -0.70056642869E+01 -0.20007494751E+02  0.18629070535E+03  0.17300000000E+03 0.  1.
<mgrwt>
<rscale>  2 0.18521319E+03</rscale>
<asrwt>0</asrwt>
<pdfrwt beam="1">  1       21 0.43107248E-01 0.18521319E+03</pdfrwt>
<pdfrwt beam="2">  1       21 0.22564576E-01 0.18521319E+03</pdfrwt>
<totfact> 0.95489713E+04</totfact>
</mgrwt>
</event>
<event>
 4    1  0.4050555E+000  0.1775080E+03  0.7546771E-02  0.1170237E+00
         21   -1    0    0  503  502  0.00000000000E+00  0.00000000000E+00  0.69480954695E+03  0.69480954695E+03  0.00000000000E+00 0.  1.
         21   -1    0    0  501  503 -0.00000000000E+00 -0.00000000000E+00 -0.49805488440E+02  0.49805488440E+02  0.00000000000E+00 0.  1.
          6    1    1    2  501    0 -0.22913343757E+02 -0.32482037567E+02  0.21113758458E+03  0.27584086664E+03  0.17300000000E+03 0.  1.
         -6    1    1    2    0  502  0.22913343757E+02  0.32482037567E+02  0.43386647393E+03  0.46877416875E+03  0.17300000000E+03 0.  1.
<mgrwt>
<rscale>  2 0.17750804E+03</rscale>
<asrwt>0</asrwt>
<pdfrwt beam="1">  1       21 0.10689377E+00 0.17750804E+03</pdfrwt>
<pdfrwt beam="2">  1       21 0.76623833E-02 0.17750804E+03</pdfrwt>
<totfact> 0.91118084E+04</totfact>
</mgrwt>
</event>
<event>
 4    1  0.4050555E+000  0.1797759E+03  0.7546771E-02  0.1168020E+00
         21   -1    0    0  503  502  0.00000000000E+00  0.00000000000E+00  0.92741718586E+03  0.92741718586E+03  0.00000000000E+00 0. -1.
         21   -1    0    0  501  503 -0.00000000000E+00 -0.00000000000E+00 -0.45351012915E+02  0.45351012915E+02  0.00000000000E+00 0. -1.
          6    1    1    2  501    0  0.42440084290E+02  0.24273685009E+02  0.20697353950E+03  0.27414853381E+03  0.17300000000E+03 0.  1.
         -6    1    1    2    0  502 -0.42440084290E+02 -0.24273685009E+02  0.67509263345E+03  0.69861966497E+03  0.17300000000E+03 0.  1.
<mgrwt>
<rscale>  2 0.17977590E+03</rscale>
<asrwt>0</asrwt>
<pdfrwt beam="1">  1       21 0.14267955E+00 0.17977590E+03</pdfrwt>
<pdfrwt beam="2">  1       21 0.69770796E-02 0.17977590E+03</pdfrwt>
<totfact> 0.52190853E+04</totfact>
</mgrwt>
</event>
<event>
 4    1  0.4050555E+000  0.1813041E+03  0.7546771E-02  0.1166547E+00
         21   -1    0    0  501  502  0.00000000000E+00  0.00000000000E+00  0.64870680406E+02  0.64870680406E+02  0.00000000000E+00 0.  1.
         21   -1    0    0  502  503 -0.00000000000E+00 -0.00000000000E+00 -0.51112543115E+03  0.51112543115E+03  0.00000000000E+00 0.  1.
          6    1    1    2  501    0  0.44202662980E+00 -0.54240173406E+02 -0.19638621031E+03  0.26728025628E+03  0.17300000000E+03 0.  1.
         -6    1    1    2    0  503 -0.44202662980E+00  0.54240173406E+02 -0.24986854043E+03  0.30871585527E+03  0.17300000000E+03 0.  1.
<mgrwt>
<rscale>  2 0.18130414E+03</rscale>
<asrwt>0</asrwt>
<pdfrwt beam="1">  1       21 0.99801048E-02 0.18130414E+03</pdfrwt>
<pdfrwt beam="2">  1       21 0.78634681E-01 0.18130414E+03</pdfrwt>
<totfact> 0.11692555E+05</totfact>
</mgrwt>
</event>
<event>
 4    1  0.4050555E+000  0.2601657E+03  0.7546771E-02  0.1107044E+00
         21   -1    0    0  501  502  0.00000000000E+00  0.00000000000E+00  0.59348257121E+03  0.59348257121E+03  0.00000000000E+00 0. -1.
         21   -1    0    0  502  503 -0.00000000000E+00 -0.00000000000E+00 -0.17753473626E+03  0.17753473626E+03  0.00000000000E+00 0. -1.
          6    1    1    2  501    0 -0.27399913209E+02 -0.19237060725E+03  0.43850521593E+03  0.50987550458E+03  0.17300000000E+03 0. -1.
         -6    1    1    2    0  503  0.27399913209E+02  0.19237060725E+03 -0.22557380984E+02  0.26114180289E+03  0.17300000000E+03 0. -1.
<mgrwt>
<rscale>  2 0.26016573E+03</rscale>
<asrwt>0</asrwt>
<pdfrwt beam="1">  1       21 0.91305010E-01 0.26016573E+03</pdfrwt>
<pdfrwt beam="2">  1       21 0.27313037E-01 0.26016573E+03</pdfrwt>
<totfact> 0.12476083E+04</totfact>
</mgrwt>
</event>
<event>
 4    1  0.4050555E+000  0.3033438E+03  0.7546771E-02  0.1083581E+00
         21   -1    0    0  503  502  0.00000000000E+00  0.00000000000E+00  0.19182964880E+03  0.19182964880E+03  0.00000000000E+00 0. -1.
         21   -1    0    0  501  503 -0.00000000000E+00 -0.00000000000E+00 -0.59883572808E+03  0.59883572808E+03  0.00000000000E+00 0. -1.
          6    1    1    2  501    0 -0.15345090115E+03  0.19631933158E+03 -0.37984696835E+03  0.48610819617E+03  0.17300000000E+03 0. -1.
         -6    1    1    2    0  502  0.15345090115E+03 -0.19631933158E+03 -0.27159110917E+02  0.30455718071E+03  0.17300000000E+03 0. -1.
<mgrwt>
<rscale>  2 0.30334380E+03</rscale>
<asrwt>0</asrwt>
<pdfrwt beam="1">  1       21 0.29512254E-01 0.30334380E+03</pdfrwt>
<pdfrwt beam="2">  1       21 0.92128573E-01 0.30334380E+03</pdfrwt>
<totfact> 0.10283879E+04</totfact>
</mgrwt>
</event>
<event>
 4    1  0.4050555E+000  0.1819035E+03  0.7546771E-02  0.1165973E+00
         21   -1    0    0  503  502  0.00000000000E+00  0.00000000000E+00  0.40338639624E+03  0.40338639624E+03  0.00000000000E+00 0. -1.
         21   -1    0    0  501  503 -0.00000000000E+00 -0.00000000000E+00 -0.11965867496E+03  0.11965867496E+03  0.00000000000E+00 0. -1.
          6    1    1    2  501    0 -0.46896277031E+02 -0.30993822303E+02 -0.47953960281E+01  0.18196668278E+03  0.17300000000E+03 0. -1.
         -6    1    1    2    0  502  0.46896277031E+02  0.30993822303E+02  0.28852311731E+03  0.34107838841E+03  0.17300000000E+03 0. -1.
<mgrwt>
<rscale>  2 0.18190348E+03</rscale>
<asrwt>0</asrwt>
<pdfrwt beam="1">  1       21 0.62059445E-01 0.18190348E+03</pdfrwt>
<pdfrwt beam="2">  1       21 0.18409027E-01 0.18190348E+03</pdfrwt>
<totfact> 0.65201711E+04</totfact>
</mgrwt>
</event>
<event>
 4    1  0.4050555E+000  0.3166258E+03  0.7546771E-02  0.1077213E+00
         21   -1    0    0  501  502  0.00000000000E+00  0.00000000000E+00  0.13902851312E+04  0.13902851312E+04  0.00000000000E+00 0.  1.
         21   -1    0    0  502  503 -0.00000000000E+00 -0.00000000000E+00 -0.86282414912E+02  0.86282414912E+02  0.00000000000E+00 0. -1.
          6    1    1    2  501    0 -0.26491308324E+03 -0.11996998493E+02  0.95122895263E+03  0.10025409667E+04  0.17300000000E+03 0.  1.
         -6    1    1    2    0  503  0.26491308324E+03  0.11996998493E+02  0.35277376367E+03  0.47402657940E+03  0.17300000000E+03 0. -1.
<mgrwt>
<rscale>  2 0.31662576E+03</rscale>
<asrwt>0</asrwt>
<pdfrwt beam="1">  1       21 0.21389000E+00 0.31662576E+03</pdfrwt>
<pdfrwt beam="2">  1       21 0.13274219E-01 0.31662576E+03</pdfrwt>
<totfact> 0.48969916E+03</totfact>
</mgrwt>
</event>
<event>
 4    1  0.4050555E+000  0.1792214E+03  0.7546771E-02  0.1168559E+00
         21   -1    0    0  501  502  0.00000000000E+00  0.00000000000E+00  0.65120322794E+03  0.65120322794E+03  0.00000000000E+00 0.  1.
         21   -1    0    0  502  503 -0.00000000000E+00 -0.00000000000E+00 -0.11998039829E+03  0.11998039829E+03  0.00000000000E+00 0.  1.
          6    1    1    2  501    0 -0.32564076510E+02 -0.33628830809E+02  0.56151256923E+03  0.58942063311E+03  0.17300000000E+03 0.  1.
         -6    1    1    2    0  503  0.32564076510E+02  0.33628830809E+02 -0.30289739580E+02  0.18176299311E+03  0.17300000000E+03 0.  1.
<mgrwt>
<rscale>  2 0.17922142E+03</rscale>
<asrwt>0</asrwt>
<pdfrwt beam="1">  1       21 0.10018511E+00 0.17922142E+03</pdfrwt>
<pdfrwt beam="2">  1       21 0.18458523E-01 0.17922142E+03</pdfrwt>
<totfact> 0.22083620E+04</totfact>
</mgrwt>
</event>
<event>
 4    1  0.4050555E+000  0.2018624E+03  0.7546771E-02  0.1148177E+00
         21   -1    0    0  503  502  0.00000000000E+00  0.00000000000E+00  0.24761581335E+03  0.24761581335E+03  0.00000000000E+00 0. -1.
         21   -1    0    0  501  503 -0.00000000000E+00 -0.00000000000E+00 -0.23958083075E+03  0.23958083075E+03  0.00000000000E+00 0.  1.
          6    1    1    2  501    0 -0.10393047447E+03 -0.42313010515E+01 -0.13229321508E+03  0.24135024796E+03  0.17300000000E+03 0.  1.
         -6    1    1    2    0  502  0.10393047447E+03  0.42313010515E+01  0.14032819768E+03  0.24584639614E+03  0.17300000000E+03 0. -1.
<mgrwt>
<rscale>  2 0.20186245E+03</rscale>
<asrwt>0</asrwt>
<pdfrwt beam="1">  1       21 0.38094740E-01 0.20186245E+03</pdfrwt>
<pdfrwt beam="2">  1       21 0.36858589E-01 0.20186245E+03</pdfrwt>
<totfact> 0.46960321E+04</totfact>
</mgrwt>
</event>
<event>
 4    1  0.4050555E+000  0.2393491E+03  0.7546771E-02  0.1120227E+00
         21   -1    0    0  503  502  0.00000000000E+00  0.00000000000E+00  0.34471854125E+02  0.34471854125E+02  0.00000000000E+00 0.  1.
         21   -1    0    0  501  503 -0.00000000000E+00 -0.00000000000E+00 -0.19280749285E+04  0.19280749285E+04  0.00000000000E+00 0. -1.
          6    1    1    2  501    0  0.13483030970E+03 -0.95811189335E+02 -0.13114127766E+04  0.13330759420E+04  0.17300000000E+03 0. -1.
         -6    1    1    2    0  502 -0.13483030970E+03  0.95811189335E+02 -0.58219029776E+03  0.62947084064E+03  0.17300000000E+03 0. -1.
<mgrwt>
<rscale>  2 0.23934911E+03</rscale>
<asrwt>0</asrwt>
<pdfrwt beam="1">  1       21 0.53033603E-02 0.23934911E+03</pdfrwt>
<pdfrwt beam="2">  1       21 0.29662702E+00 0.23934911E+03</pdfrwt>
<totfact> 0.82948690E+03</totfact>
</mgrwt>
</event>
<event>
 4    1  0.4050555E+000  0.2198411E+03  0.7546771E-02  0.1134002E+00
         21   -1    0    0  501  502  0.00000000000E+00  0.00000000000E+00  0.13555816218E+04  0.13555816218E+04  0.00000000000E+00 0. -1.
         21   -1    0    0  502  503 -0.00000000000E+00 -0.00000000000E+00 -0.35819903770E+02  0.35819903770E+02  0.00000000000E+00 0.  1.
          6    1    1    2  501    0  0.60002769220E+02  0.12165852747E+03  0.61234756291E+03  0.65061483800E+03  0.17300000000E+03 0.  1.
         -6    1    1    2    0  503 -0.60002769220E+02 -0.12165852747E+03  0.70741415511E+03  0.74078668756E+03  0.17300000000E+03 0.  1.
<mgrwt>
<rscale>  2 0.21984115E+03</rscale>
<asrwt>0</asrwt>
<pdfrwt beam="1">  1       21 0.20855098E+00 0.21984115E+03</pdfrwt>
<pdfrwt beam="2">  1       21 0.55107555E-02 0.21984115E+03</pdfrwt>
<totfact> 0.26493805E+04</totfact>
</mgrwt>
</event>
<event>
 4    1  0.4050555E+000  0.2027150E+03  0.7546771E-02  0.1147468E+00
         21   -1    0    0  501  502  0.00000000000E+00  0.00000000000E+00  0.61835410221E+02  0.61835410221E+02  0.00000000000E+00 0. -1.
         21   -1    0    0  502  503 -0.00000000000E+00 -0.00000000000E+00 -0.74367920794E+03  0.74367920794E+03  0.00000000000E+00 0. -1.
          6    1    1    2  501    0  0.49433501795E+02  0.93384697004E+02 -0.20955373404E+03  0.29155812488E+03  0.17300000000E+03 0.  1.
         -6    1    1    2    0  503 -0.49433501795E+02 -0.93384697004E+02 -0.47229006368E+03  0.51395649328E+03  0.17300000000E+03 0.  1.
<mgrwt>
<rscale>  2 0.20271500E+03</rscale>
<asrwt>0</asrwt>
<pdfrwt beam="1">  1       21 0.95131393E-02 0.20271500E+03</pdfrwt>
<pdfrwt beam="2">  1       21 0.11441219E+00 0.20271500E+03</pdfrwt>
<totfact> 0.52327434E+04</totfact>
</mgrwt>
</event>
<event>
 4    1  0.4050555E+000  0.2538325E+03  0.7546771E-02  0.1110906E+00
         21   -1    0    0  501  502  0.00000000000E+00  0.00000000000E+00  0.64534237187E+03  0.64534237187E+03  0.00000000000E+00 0. -1.
         21   -1    0    0  502  503 -0.00000000000E+00 -0.00000000000E+00 -0.31102296561E+03  0.31102296561E+03  0.00000000000E+00 0. -1.
          6    1    1    2  501    0 -0.10150629796E+03 -0.15555841050E+03  0.56118771744E+03  0.61592418512E+03  0.17300000000E+03 0. -1.
         -6    1    1    2    0  503  0.10150629796E+03  0.15555841050E+03 -0.22686831119E+03  0.34044115236E+03  0.17300000000E+03 0. -1.
<mgrwt>
<rscale>  2 0.25383252E+03</rscale>
<asrwt>0</asrwt>
<pdfrwt beam="1">  1       21 0.99283442E-01 0.25383252E+03</pdfrwt>
<pdfrwt beam="2">  1       21 0.47849687E-01 0.25383252E+03</pdfrwt>
<totfact> 0.33296699E+03</totfact>
</mgrwt>
</event>
<event>
 4    1  0.4050555E+000  0.1999072E+03  0.7546771E-02  0.1149817E+00
         21   -1    0    0  503  502  0.00000000000E+00  0.00000000000E+00  0.22928692999E+04  0.22928692999E+04  0.00000000000E+00 0. -1.
         21   -1    0    0  501  503 -0.00000000000E+00 -0.00000000000E+00 -0.17576551270E+02  0.17576551270E+02  0.00000000000E+00 0. -1.
          6    1    1    2  501    0 -0.60205663064E+02 -0.80057186099E+02  0.10318726885E+04  0.10510585713E+04  0.17300000000E+03 0. -1.
         -6    1    1    2    0  502  0.60205663064E+02  0.80057186099E+02  0.12434200601E+04  0.12593872799E+04  0.17300000000E+03 0. -1.
<mgrwt>
<rscale>  2 0.19990717E+03</rscale>
<asrwt>0</asrwt>
<pdfrwt beam="1">  1       21 0.35274889E+00 0.19990717E+03</pdfrwt>
<pdfrwt beam="2">  1       21 0.27040866E-02 0.19990717E+03</pdfrwt>
<totfact> 0.12546838E+04</totfact>
</mgrwt>
</event>
<event>
 4    1  0.4050555E+000  0.2334799E+03  0.7546771E-02  0.1124214E+00
         21   -1    0    0  501  502  0.00000000000E+00  0.00000000000E+00  0.10975628581E+04  0.10975628581E+04  0.00000000000E+00 0. -1.
         21   -1    0    0  502  503 -0.00000000000E+00 -0.00000000000E+00 -0.50304159942E+02  0.50304159942E+02  0.00000000000E+00 0.  1.
          6    1    1    2  501    0 -0.15675520465E+03 -0.34188424721E+01  0.58821157280E+03  0.63285522598E+03  0.17300000000E+03 0.  1.
         -6    1    1    2    0  503  0.15675520465E+03  0.34188424721E+01  0.45904712536E+03  0.51501179207E+03  0.17300000000E+03 0.  1.
<mgrwt>
<rscale>  2 0.23347994E+03</rscale>
<asrwt>0</asrwt>
<pdfrwt beam="1">  1       21 0.16885581E+00 0.23347994E+03</pdfrwt>
<pdfrwt beam="2">  1       21 0.77391024E-02 0.23347994E+03</pdfrwt>
<totfact> 0.26931428E+04</totfact>
</mgrwt>
</event>
<event>
 4    1  0.4050555E+000  0.2266771E+03  0.7546771E-02  0.1129001E+00
         21   -1    0    0  503  502  0.00000000000E+00  0.00000000000E+00  0.12909668509E+04  0.12909668509E+04  0.00000000000E+00 0.  1.
         21   -1    0    0  501  503 -0.00000000000E+00 -0.00000000000E+00 -0.39886977832E+02  0.39886977832E+02  0.00000000000E+00 0.  1.
          6    1    1    2  501    0  0.10069387529E+03  0.10636853428E+03  0.59475020980E+03  0.63648278348E+03  0.17300000000E+03 0.  1.
         -6    1    1    2    0  502 -0.10069387529E+03 -0.10636853428E+03  0.65632966330E+03  0.69437104528E+03  0.17300000000E+03 0.  1.
<mgrwt>
<rscale>  2 0.22667713E+03</rscale>
<asrwt>0</asrwt>
<pdfrwt beam="1">  1       21 0.19861025E+00 0.22667713E+03</pdfrwt>
<pdfrwt beam="2">  1       21 0.61364591E-02 0.22667713E+03</pdfrwt>
<totfact> 0.25395816E+04</totfact>
</mgrwt>
</event>
<event>
 4    1  0.4050555E+000  0.1736395E+03  0.7546771E-02  0.1174105E+00
         21   -1    0    0  503  502  0.00000000000E+00  0.00000000000E+00  0.13741220273E+03  0.13741220273E+03  0.00000000000E+00 0.  1.
         21   -1    0    0  501  503 -0.00000000000E+00 -0.00000000000E+00 -0.37025630386E+03  0.37025630386E+03  0.00000000000E+00 0.  1.
          6    1    1    2  501    0  0.14612371840E+02 -0.28571293953E+01 -0.27843700007E+03  0.32814302919E+03  0.17300000000E+03 0.  1.
         -6    1    1    2    0  502 -0.14612371840E+02  0.28571293953E+01  0.45592898952E+02  0.17952547740E+03  0.17300000000E+03 0.  1.
<mgrwt>
<rscale>  2 0.17363952E+03</rscale>
<asrwt>0</asrwt>
<pdfrwt beam="1">  1       21 0.21140339E-01 0.17363952E+03</pdfrwt>
<pdfrwt beam="2">  1       21 0.56962507E-01 0.17363952E+03</pdfrwt>
<totfact> 0.60768106E+04</totfact>
</mgrwt>
</event>
<event>
 4    1  0.4050555E+000  0.1752352E+03  0.7546771E-02  0.1172496E+00
         21   -1    0    0  501  502  0.00000000000E+00  0.00000000000E+00  0.48683335717E+02  0.48683335717E+02  0.00000000000E+00 0.  1.
         21   -1    0    0  502  503 -0.00000000000E+00 -0.00000000000E+00 -0.64227520389E+03  0.64227520389E+03  0.00000000000E+00 0.  1.
          6    1    1    2  501    0  0.98376950583E+01 -0.26107152057E+02 -0.25053116802E+03  0.30573391990E+03  0.17300000000E+03 0.  1.
         -6    1    1    2    0  503 -0.98376950583E+01  0.26107152057E+02 -0.34306070016E+03  0.38522461970E+03  0.17300000000E+03 0.  1.
<mgrwt>
<rscale>  2 0.17523517E+03</rscale>
<asrwt>0</asrwt>
<pdfrwt beam="1">  1       21 0.74897444E-02 0.17523517E+03</pdfrwt>
<pdfrwt beam="2">  1       21 0.98811565E-01 0.17523517E+03</pdfrwt>
<totfact> 0.11442557E+05</totfact>
</mgrwt>
</event>
<event>
 4    1  0.4050555E+000  0.1843228E+03  0.7546771E-02  0.1163684E+00
         21   -1    0    0  501  502  0.00000000000E+00  0.00000000000E+00  0.50038506882E+03  0.50038506882E+03  0.00000000000E+00 0.  1.
         21   -1    0    0  502  503 -0.00000000000E+00 -0.00000000000E+00 -0.11298056669E+03  0.11298056669E+03  0.00000000000E+00 0.  1.
          6    1    1    2  501    0 -0.60702058533E+02  0.19003796988E+02  0.38743114617E+03  0.42904286176E+03  0.17300000000E+03 0.  1.
         -6    1    1    2    0  503  0.60702058533E+02 -0.19003796988E+02 -0.26644032130E-01  0.18432277374E+03  0.17300000000E+03 0.  1.
<mgrwt>
<rscale>  2 0.18432277E+03</rscale>
<asrwt>0</asrwt>
<pdfrwt beam="1">  1       21 0.76982317E-01 0.18432277E+03</pdfrwt>
<pdfrwt beam="2">  1       21 0.17381626E-01 0.18432277E+03</pdfrwt>
<totfact> 0.45098170E+04</totfact>
</mgrwt>
</event>
<event>
 4    1  0.4050555E+000  0.2479621E+03  0.7546771E-02  0.1114600E+00
         21   -1    0    0  501  502  0.00000000000E+00  0.00000000000E+00  0.41110785768E+03  0.41110785768E+03  0.00000000000E+00 0.  1.
         21   -1    0    0  502  503 -0.00000000000E+00 -0.00000000000E+00 -0.15137081627E+03  0.15137081627E+03  0.00000000000E+00 0. -1.
          6    1    1    2  501    0  0.13352114668E+03 -0.11716787817E+03  0.99106393387E+02  0.26703424031E+03  0.17300000000E+03 0. -1.
         -6    1    1    2    0  503 -0.13352114668E+03  0.11716787817E+03  0.16063064802E+03  0.29544443364E+03  0.17300000000E+03 0. -1.
<mgrwt>
<rscale>  2 0.24796211E+03</rscale>
<asrwt>0</asrwt>
<pdfrwt beam="1">  1       21 0.63247362E-01 0.24796211E+03</pdfrwt>
<pdfrwt beam="2">  1       21 0.23287818E-01 0.24796211E+03</pdfrwt>
<totfact> 0.39048671E+04</totfact>
</mgrwt>
</event>
<event>
 4    1  0.4050555E+000  0.1742732E+03  0.7546771E-02  0.1173463E+00
         21   -1    0    0  503  502  0.00000000000E+00  0.00000000000E+00  0.16916158235E+03  0.16916158235E+03  0.00000000000E+00 0. -1.
         21   -1    0    0  501  503 -0.00000000000E+00 -0.00000000000E+00 -0.19258820846E+03  0.19258820846E+03  0.00000000000E+00 0. -1.
          6    1    1    2  501    0  0.16458415287E+02  0.13087322252E+02 -0.58794782813E+02  0.18392385360E+03  0.17300000000E+03 0.  1.
         -6    1    1    2    0  502 -0.16458415287E+02 -0.13087322252E+02  0.35368156700E+02  0.17782593721E+03  0.17300000000E+03 0.  1.
<mgrwt>
<rscale>  2 0.17427323E+03</rscale>
<asrwt>0</asrwt>
<pdfrwt beam="1">  1       21 0.26024859E-01 0.17427323E+03</pdfrwt>
<pdfrwt beam="2">  1       21 0.29628955E-01 0.17427323E+03</pdfrwt>
<totfact> 0.15403713E+05</totfact>
</mgrwt>
</event>
<event>
 4    1  0.4050555E+000  0.1901952E+03  0.7546771E-02  0.1158285E+00
         21   -1    0    0  501  502  0.00000000000E+00  0.00000000000E+00  0.20493208708E+03  0.20493208708E+03  0.00000000000E+00 0. -1.
         21   -1    0    0  502  503 -0.00000000000E+00 -0.00000000000E+00 -0.19525612307E+03  0.19525612307E+03  0.00000000000E+00 0. -1.
          6    1    1    2  501    0 -0.62580669291E+02  0.48258361487E+02  0.66824120758E+02  0.20159283900E+03  0.17300000000E+03 0. -1.
         -6    1    1    2    0  503  0.62580669291E+02 -0.48258361487E+02 -0.57148156742E+02  0.19859537115E+03  0.17300000000E+03 0. -1.
<mgrwt>
<rscale>  2 0.19019519E+03</rscale>
<asrwt>0</asrwt>
<pdfrwt beam="1">  1       21 0.31528013E-01 0.19019519E+03</pdfrwt>
<pdfrwt beam="2">  1       21 0.30039404E-01 0.19019519E+03</pdfrwt>
<totfact> 0.10288016E+05</totfact>
</mgrwt>
</event>
<event>
 4    1  0.4050555E+000  0.3286213E+03  0.7546771E-02  0.1071749E+00
         21   -1    0    0  501  502  0.00000000000E+00  0.00000000000E+00  0.27795087874E+03  0.27795087874E+03  0.00000000000E+00 0.  1.
         21   -1    0    0  502  503 -0.00000000000E+00 -0.00000000000E+00 -0.40317160190E+03  0.40317160190E+03  0.00000000000E+00 0.  1.
          6    1    1    2  501    0  0.24548741386E+03 -0.13341242939E+03  0.22920740562E+01  0.32862927484E+03  0.17300000000E+03 0.  1.
         -6    1    1    2    0  503 -0.24548741386E+03  0.13341242939E+03 -0.12751279722E+03  0.35249320580E+03  0.17300000000E+03 0.  1.
<mgrwt>
<rscale>  2 0.32862128E+03</rscale>
<asrwt>0</asrwt>
<pdfrwt beam="1">  1       21 0.42761674E-01 0.32862128E+03</pdfrwt>
<pdfrwt beam="2">  1       21 0.62026400E-01 0.32862128E+03</pdfrwt>
<totfact> 0.11826365E+04</totfact>
</mgrwt>
</event>
<event>
 4    1  0.4050555E+000  0.2166894E+03  0.7546771E-02  0.1136376E+00
         21   -1    0    0  501  502  0.00000000000E+00  0.00000000000E+00  0.21776544923E+03  0.21776544923E+03  0.00000000000E+00 0. -1.
         21   -1    0    0  502  503 -0.00000000000E+00 -0.00000000000E+00 -0.36319213909E+03  0.36319213909E+03  0.00000000000E+00 0. -1.
          6    1    1    2  501    0 -0.33329529427E+02  0.12615245079E+03  0.11244800735E+03  0.24412876260E+03  0.17300000000E+03 0. -1.
         -6    1    1    2    0  503  0.33329529427E+02 -0.12615245079E+03 -0.25787469720E+03  0.33682882571E+03  0.17300000000E+03 0. -1.
<mgrwt>
<rscale>  2 0.21668941E+03</rscale>
<asrwt>0</asrwt>
<pdfrwt beam="1">  1       21 0.33502377E-01 0.21668941E+03</pdfrwt>
<pdfrwt beam="2">  1       21 0.55875713E-01 0.21668941E+03</pdfrwt>
<totfact> 0.25540070E+04</totfact>
</mgrwt>
</event>
<event>
 4    1  0.4050555E+000  0.1887434E+03  0.7546771E-02  0.1159600E+00
         21   -1    0    0  501  502  0.00000000000E+00  0.00000000000E+00  0.24978455025E+03  0.24978455025E+03  0.00000000000E+00 0.  1.
         21   -1    0    0  502  503 -0.00000000000E+00 -0.00000000000E+00 -0.17990808962E+03  0.17990808962E+03  0.00000000000E+00 0. -1.
          6    1    1    2  501    0 -0.58024775243E+02  0.48251264202E+02  0.13275033814E+03  0.23075248930E+03  0.17300000000E+03 0.  1.
         -6    1    1    2    0  503  0.58024775243E+02 -0.48251264202E+02 -0.62873877510E+02  0.19894015058E+03  0.17300000000E+03 0. -1.
<mgrwt>
<rscale>  2 0.18874337E+03</rscale>
<asrwt>0</asrwt>
<pdfrwt beam="1">  1       21 0.38428392E-01 0.18874337E+03</pdfrwt>
<pdfrwt beam="2">  1       21 0.27678168E-01 0.18874337E+03</pdfrwt>
<totfact> 0.81485180E+04</totfact>
</mgrwt>
</event>
<event>
 4    1  0.4050555E+000  0.1863211E+03  0.7546771E-02  0.1161822E+00
         21   -1    0    0  503  502  0.00000000000E+00  0.00000000000E+00  0.33695155138E+03  0.33695155138E+03  0.00000000000E+00 0. -1.
         21   -1    0    0  501  503 -0.00000000000E+00 -0.00000000000E+00 -0.17097032351E+03  0.17097032351E+03  0.00000000000E+00 0. -1.
          6    1    1    2  501    0  0.57951214245E+02  0.37791513763E+02 -0.77103671195E+02  0.20164453342E+03  0.17300000000E+03 0. -1.
         -6    1    1    2    0  502 -0.57951214245E+02 -0.37791513763E+02  0.24308489907E+03  0.30627734147E+03  0.17300000000E+03 0. -1.
<mgrwt>
<rscale>  2 0.18632107E+03</rscale>
<asrwt>0</asrwt>
<pdfrwt beam="1">  1       21 0.51838700E-01 0.18632107E+03</pdfrwt>
<pdfrwt beam="2">  1       21 0.26303127E-01 0.18632107E+03</pdfrwt>
<totfact> 0.48703375E+04</totfact>
</mgrwt>
</event>
<event>
 4    1  0.4050555E+000  0.2195298E+03  0.7546771E-02  0.1134234E+00
         21   -1    0    0  501  502  0.00000000000E+00  0.00000000000E+00  0.20040675802E+04  0.20040675802E+04  0.00000000000E+00 0. -1.
         21   -1    0    0  502  503 -0.00000000000E+00 -0.00000000000E+00 -0.64251994439E+02  0.64251994439E+02  0.00000000000E+00 0. -1.
          6    1    1    2  501    0  0.12413996421E+03  0.53419238082E+02  0.17879584779E+04  0.18013852627E+04  0.17300000000E+03 0. -1.
         -6    1    1    2    0  503 -0.12413996421E+03 -0.53419238082E+02  0.15185710782E+03  0.26693431197E+03  0.17300000000E+03 0. -1.
<mgrwt>
<rscale>  2 0.21952983E+03</rscale>
<asrwt>0</asrwt>
<pdfrwt beam="1">  1       21 0.30831804E+00 0.21952983E+03</pdfrwt>
<pdfrwt beam="2">  1       21 0.98849238E-02 0.21952983E+03</pdfrwt>
<totfact> 0.24519565E+03</totfact>
</mgrwt>
</event>
<event>
 4    1  0.4050555E+000  0.2356835E+03  0.7546771E-02  0.1122702E+00
         21   -1    0    0  501  502  0.00000000000E+00  0.00000000000E+00  0.16789312875E+03  0.16789312875E+03  0.00000000000E+00 0. -1.
         21   -1    0    0  502  503 -0.00000000000E+00 -0.00000000000E+00 -0.98466891203E+03  0.98466891203E+03  0.00000000000E+00 0. -1.
          6    1    1    2  501    0 -0.11673128644E+03  0.10950584536E+03  0.61202674226E+02  0.24350049432E+03  0.17300000000E+03 0. -1.
         -6    1    1    2    0  503  0.11673128644E+03 -0.10950584536E+03 -0.87797845751E+03  0.90906154646E+03  0.17300000000E+03 0. -1.
<mgrwt>
<rscale>  2 0.23568352E+03</rscale>
<asrwt>0</asrwt>
<pdfrwt beam="1">  1       21 0.25829712E-01 0.23568352E+03</pdfrwt>
<pdfrwt beam="2">  1       21 0.15148752E+00 0.23568352E+03</pdfrwt>
<totfact> 0.40021344E+03</totfact>
</mgrwt>
</event>
<event>
 4    1  0.4050555E+000  0.1894685E+03  0.7546771E-02  0.1158942E+00
         21   -1    0    0  503  502  0.00000000000E+00  0.00000000000E+00  0.93490524756E+03  0.93490524756E+03  0.00000000000E+00 0.  1.
         21   -1    0    0  501  503 -0.00000000000E+00 -0.00000000000E+00 -0.44247865347E+02  0.44247865347E+02  0.00000000000E+00 0. -1.
          6    1    1    2  501    0 -0.23497045864E+02 -0.73601659025E+02  0.26731459773E+03  0.32765135363E+03  0.17300000000E+03 0. -1.
         -6    1    1    2    0  502  0.23497045864E+02  0.73601659025E+02  0.62334278449E+03  0.65150175928E+03  0.17300000000E+03 0.  1.
<mgrwt>
<rscale>  2 0.18946851E+03</rscale>
<asrwt>0</asrwt>
<pdfrwt beam="1">  1       21 0.14383156E+00 0.18946851E+03</pdfrwt>
<pdfrwt beam="2">  1       21 0.68073646E-02 0.18946851E+03</pdfrwt>
<totfact> 0.53048101E+04</totfact>
</mgrwt>
</event>
<event>
 4    1  0.4050555E+000  0.2137631E+03  0.7546771E-02  0.1138620E+00
         21   -1    0    0  503  502  0.00000000000E+00  0.00000000000E+00  0.66682179096E+03  0.66682179096E+03  0.00000000000E+00 0.  1.
         21   -1    0    0  501  503 -0.00000000000E+00 -0.00000000000E+00 -0.10295085167E+03  0.10295085167E+03  0.00000000000E+00 0.  1.
          6    1    1    2  501    0 -0.10614085528E+03  0.67080267431E+02  0.59372238856E+02  0.22185514686E+03  0.17300000000E+03 0.  1.
         -6    1    1    2    0  502  0.10614085528E+03 -0.67080267431E+02  0.50449870044E+03  0.54791749578E+03  0.17300000000E+03 0.  1.
<mgrwt>
<rscale>  2 0.21376305E+03</rscale>
<asrwt>0</asrwt>
<pdfrwt beam="1">  1       21 0.10258797E+00 0.21376305E+03</pdfrwt>
<pdfrwt beam="2">  1       21 0.15838593E-01 0.21376305E+03</pdfrwt>
<totfact> 0.27106040E+04</totfact>
</mgrwt>
</event>
<event>
 4    1  0.4050555E+000  0.1772465E+03  0.7546771E-02  0.1170495E+00
         21   -1    0    0  501  502  0.00000000000E+00  0.00000000000E+00  0.99428159531E+03  0.99428159531E+03  0.00000000000E+00 0.  1.
         21   -1    0    0  502  503 -0.00000000000E+00 -0.00000000000E+00 -0.40468654378E+02  0.40468654378E+02  0.00000000000E+00 0.  1.
          6    1    1    2  501    0  0.37468289720E+02 -0.91357924358E+01  0.71914765428E+03  0.74066840360E+03  0.17300000000E+03 0.  1.
         -6    1    1    2    0  503 -0.37468289720E+02  0.91357924358E+01  0.23466528665E+03  0.29408184609E+03  0.17300000000E+03 0.  1.
<mgrwt>
<rscale>  2 0.17724654E+03</rscale>
<asrwt>0</asrwt>
<pdfrwt beam="1">  1       21 0.15296638E+00 0.17724654E+03</pdfrwt>
<pdfrwt beam="2">  1       21 0.62259476E-02 0.17724654E+03</pdfrwt>
<totfact> 0.52990408E+04</totfact>
</mgrwt>
</event>
<event>
 4    1  0.4050555E+000  0.1801513E+03  0.7546771E-02  0.1167657E+00
         21   -1    0    0  503  502  0.00000000000E+00  0.00000000000E+00  0.87302965490E+02  0.87302965490E+02  0.00000000000E+00 0. -1.
         21   -1    0    0  501  503 -0.00000000000E+00 -0.00000000000E+00 -0.41341698991E+03  0.41341698991E+03  0.00000000000E+00 0. -1.
          6    1    1    2  501    0 -0.22802690320E+02  0.44782996466E+02 -0.24254299758E+03  0.30212842490E+03  0.17300000000E+03 0. -1.
         -6    1    1    2    0  502  0.22802690320E+02 -0.44782996466E+02 -0.83571026838E+02  0.19859153050E+03  0.17300000000E+03 0. -1.
<mgrwt>
<rscale>  2 0.18015127E+03</rscale>
<asrwt>0</asrwt>
<pdfrwt beam="1">  1       21 0.13431226E-01 0.18015127E+03</pdfrwt>
<pdfrwt beam="2">  1       21 0.63602613E-01 0.18015127E+03</pdfrwt>
<totfact> 0.11001607E+05</totfact>
</mgrwt>
</event>
<event>
 4    1  0.4050555E+000  0.1962154E+03  0.7546771E-02  0.1152972E+00
         21   -1    0    0  501  502  0.00000000000E+00  0.00000000000E+00  0.42951335998E+02  0.42951335998E+02  0.00000000000E+00 0. -1.
         21   -1    0    0  502  503 -0.00000000000E+00 -0.00000000000E+00 -0.90425084257E+03  0.90425084257E+03  0.00000000000E+00 0.  1.
          6    1    1    2  501    0 -0.47258879326E+02 -0.79612189828E+02 -0.38645022665E+03  0.43341006001E+03  0.17300000000E+03 0.  1.
         -6    1    1    2    0  503  0.47258879326E+02  0.79612189828E+02 -0.47484927992E+03  0.51379211855E+03  0.17300000000E+03 0. -1.
<mgrwt>
<rscale>  2 0.19621545E+03</rscale>
<asrwt>0</asrwt>
<pdfrwt beam="1">  1       21 0.66078983E-02 0.19621545E+03</pdfrwt>
<pdfrwt beam="2">  1       21 0.13911550E+00 0.19621545E+03</pdfrwt>
<totfact> 0.60656495E+04</totfact>
</mgrwt>
</event>
<event>
 4    1  0.4050555E+000  0.2104438E+03  0.7546771E-02  0.1141215E+00
         21   -1    0    0  503  502  0.00000000000E+00  0.00000000000E+00  0.11909185062E+03  0.11909185062E+03  0.00000000000E+00 0. -1.
         21   -1    0    0  501  503 -0.00000000000E+00 -0.00000000000E+00 -0.40007347761E+03  0.40007347761E+03  0.00000000000E+00 0. -1.
          6    1    1    2  501    0 -0.65623069036E+02  0.10025570969E+03 -0.20941364035E+03  0.29688493946E+03  0.17300000000E+03 0. -1.
         -6    1    1    2    0  502  0.65623069036E+02 -0.10025570969E+03 -0.71567986644E+02  0.22228038876E+03  0.17300000000E+03 0. -1.
<mgrwt>
<rscale>  2 0.21044380E+03</rscale>
<asrwt>0</asrwt>
<pdfrwt beam="1">  1       21 0.18321823E-01 0.21044380E+03</pdfrwt>
<pdfrwt beam="2">  1       21 0.61549765E-01 0.21044380E+03</pdfrwt>
<totfact> 0.66107955E+04</totfact>
</mgrwt>
</event>
<event>
 4    1  0.4050555E+000  0.2451460E+03  0.7546771E-02  0.1116411E+00
         21   -1    0    0  503  502  0.00000000000E+00  0.00000000000E+00  0.52801502977E+03  0.52801502977E+03  0.00000000000E+00 0.  1.
         21   -1    0    0  501  503 -0.00000000000E+00 -0.00000000000E+00 -0.13879940231E+03  0.13879940231E+03  0.00000000000E+00 0. -1.
          6    1    1    2  501    0  0.74065436885E+02 -0.15710461516E+03  0.53156447763E+02  0.25084289303E+03  0.17300000000E+03 0. -1.
         -6    1    1    2    0  502 -0.74065436885E+02  0.15710461516E+03  0.33605917969E+03  0.41597153905E+03  0.17300000000E+03 0.  1.
<mgrwt>
<rscale>  2 0.24514597E+03</rscale>
<asrwt>0</asrwt>
<pdfrwt beam="1">  1       21 0.81233080E-01 0.24514597E+03</pdfrwt>
<pdfrwt beam="2">  1       21 0.21353754E-01 0.24514597E+03</pdfrwt>
<totfact> 0.26382475E+04</totfact>
</mgrwt>
</event>
<event>
 4    1  0.4050555E+000  0.2490080E+03  0.7546771E-02  0.1113933E+00
         21   -1    0    0  501  502  0.00000000000E+00  0.00000000000E+00  0.18640942625E+03  0.18640942625E+03  0.00000000000E+00 0. -1.
         21   -1    0    0  502  503 -0.00000000000E+00 -0.00000000000E+00 -0.35420452849E+03  0.35420452849E+03  0.00000000000E+00 0. -1.
          6    1    1    2  501    0  0.92516897372E+02  0.15335123179E+03 -0.17182786043E+02  0.24960012966E+03  0.17300000000E+03 0. -1.
         -6    1    1    2    0  503 -0.92516897372E+02 -0.15335123179E+03 -0.15061231620E+03  0.29101382507E+03  0.17300000000E+03 0. -1.
<mgrwt>
<rscale>  2 0.24900798E+03</rscale>
<asrwt>0</asrwt>
<pdfrwt beam="1">  1       21 0.28678373E-01 0.24900798E+03</pdfrwt>
<pdfrwt beam="2">  1       21 0.54493004E-01 0.24900798E+03</pdfrwt>
<totfact> 0.36006441E+04</totfact>
</mgrwt>
</event>
<event>
 4    1  0.4050555E+000  0.2027401E+03  0.7546771E-02  0.1147448E+00
         21   -1    0    0  501  502  0.00000000000E+00  0.00000000000E+00  0.13793001800E+04  0.13793001800E+04  0.00000000000E+00 0.  1.
         21   -1    0    0  502  503 -0.00000000000E+00 -0.00000000000E+00 -0.33536747076E+02  0.33536747076E+02  0.00000000000E+00 0.  1.
          6    1    1    2  501    0 -0.10032184956E+03 -0.33317571675E+02  0.90867533547E+03  0.93101793719E+03  0.17300000000E+03 0.  1.
         -6    1    1    2    0  503  0.10032184956E+03  0.33317571675E+02  0.43708809750E+03  0.48181898993E+03  0.17300000000E+03 0.  1.
<mgrwt>
<rscale>  2 0.20274007E+03</rscale>
<asrwt>0</asrwt>
<pdfrwt beam="1">  1       21 0.21219998E+00 0.20274007E+03</pdfrwt>
<pdfrwt beam="2">  1       21 0.51595006E-02 0.20274007E+03</pdfrwt>
<totfact> 0.28457704E+04</totfact>
</mgrwt>
</event>
<event>
 4    1  0.4050555E+000  0.1882326E+03  0.7546771E-02  0.1160065E+00
         21   -1    0    0  503  502  0.00000000000E+00  0.00000000000E+00  0.17876192995E+03  0.17876192995E+03  0.00000000000E+00 0.  1.
         21   -1    0    0  501  503 -0.00000000000E+00 -0.00000000000E+00 -0.39697327094E+03  0.39697327094E+03  0.00000000000E+00 0.  1.
          6    1    1    2  501    0 -0.36206938082E+02 -0.64742411782E+02 -0.31280312395E+03  0.36507165955E+03  0.17300000000E+03 0.  1.
         -6    1    1    2    0  502  0.36206938082E+02  0.64742411782E+02  0.94591782956E+02  0.21066354134E+03  0.17300000000E+03 0.  1.
<mgrwt>
<rscale>  2 0.18823263E+03</rscale>
<asrwt>0</asrwt>
<pdfrwt beam="1">  1       21 0.27501835E-01 0.18823263E+03</pdfrwt>
<pdfrwt beam="2">  1       21 0.61072811E-01 0.18823263E+03</pdfrwt>
<totfact> 0.31536302E+04</totfact>
</mgrwt>
</event>
<event>
 4    1  0.4050555E+000  0.2853734E+03  0.7546771E-02  0.1092790E+00
         21   -1    0    0  503  502  0.00000000000E+00  0.00000000000E+00  0.15002342058E+03  0.15002342058E+03  0.00000000000E+00 0. -1.
         21   -1    0    0  501  503 -0.00000000000E+00 -0.00000000000E+00 -0.54810270370E+03  0.54810270370E+03  0.00000000000E+00 0. -1.
          6    1    1    2  501    0 -0.13045138382E+03 -0.18571861674E+03 -0.23325982376E+03  0.36857579074E+03  0.17300000000E+03 0. -1.
         -6    1    1    2    0  502  0.13045138382E+03  0.18571861674E+03 -0.16481945936E+03  0.32955033353E+03  0.17300000000E+03 0. -1.
<mgrwt>
<rscale>  2 0.28537338E+03</rscale>
<asrwt>0</asrwt>
<pdfrwt beam="1">  1       21 0.23080526E-01 0.28537338E+03</pdfrwt>
<pdfrwt beam="2">  1       21 0.84323494E-01 0.28537338E+03</pdfrwt>
<totfact> 0.20515672E+04</totfact>
</mgrwt>
</event>
<event>
 4    1  0.4050555E+000  0.2258150E+03  0.7546771E-02  0.1129621E+00
         21   -1    0    0  501  502  0.00000000000E+00  0.00000000000E+00  0.10544298198E+04  0.10544298198E+04  0.00000000000E+00 0.  1.
         21   -1    0    0  502  503 -0.00000000000E+00 -0.00000000000E+00 -0.14913180464E+03  0.14913180464E+03  0.00000000000E+00 0.  1.
          6    1    1    2  501    0  0.14455049376E+03 -0.12983258896E+02  0.94732671706E+03  0.97386873813E+03  0.17300000000E+03 0.  1.
         -6    1    1    2    0  503 -0.14455049376E+03  0.12983258896E+02 -0.42028701856E+02  0.22969288635E+03  0.17300000000E+03 0.  1.
<mgrwt>
<rscale>  2 0.22581499E+03</rscale>
<asrwt>0</asrwt>
<pdfrwt beam="1">  1       21 0.16221997E+00 0.22581499E+03</pdfrwt>
<pdfrwt beam="2">  1       21 0.22943355E-01 0.22581499E+03</pdfrwt>
<totfact> 0.42056472E+03</totfact>
</mgrwt>
</event>
<event>
 4    1  0.4050555E+000  0.2017388E+03  0.7546771E-02  0.1148280E+00
         21   -1    0    0  501  502  0.00000000000E+00  0.00000000000E+00  0.92327372981E+03  0.92327372981E+03  0.00000000000E+00 0.  1.
         21   -1    0    0  502  503 -0.00000000000E+00 -0.00000000000E+00 -0.44584256647E+02  0.44584256647E+02  0.00000000000E+00 0.  1.
          6    1    1    2  501    0 -0.11843697178E+02 -0.10309839778E+03  0.38791493877E+03  0.43723740978E+03  0.17300000000E+03 0.  1.
         -6    1    1    2    0  503  0.11843697178E+02  0.10309839778E+03  0.49077453439E+03  0.53062057668E+03  0.17300000000E+03 0.  1.
<mgrwt>
<rscale>  2 0.20173882E+03</rscale>
<asrwt>0</asrwt>
<pdfrwt beam="1">  1       21 0.14204210E+00 0.20173882E+03</pdfrwt>
<pdfrwt beam="2">  1       21 0.68591170E-02 0.20173882E+03</pdfrwt>
<totfact> 0.53728379E+04</totfact>
</mgrwt>
</event>
<event>
 4    1  0.4050555E+000  0.2152213E+03  0.7546771E-02  0.1137497E+00
         21   -1    0    0  501  502  0.00000000000E+00  0.00000000000E+00  0.18513065754E+03  0.18513065754E+03  0.00000000000E+00 0.  1.
         21   -1    0    0  502  503 -0.00000000000E+00 -0.00000000000E+00 -0.27047123353E+03  0.27047123353E+03  0.00000000000E+00 0.  1.
          6    1    1    2  501    0  0.10458615989E+03  0.73844027538E+02  0.19689593997E+02  0.21612007161E+03  0.17300000000E+03 0.  1.
         -6    1    1    2    0  503 -0.10458615989E+03 -0.73844027538E+02 -0.10503016998E+03  0.23948181945E+03  0.17300000000E+03 0.  1.
<mgrwt>
<rscale>  2 0.21522129E+03</rscale>
<asrwt>0</asrwt>
<pdfrwt beam="1">  1       21 0.28481639E-01 0.21522129E+03</pdfrwt>
<pdfrwt beam="2">  1       21 0.41610959E-01 0.21522129E+03</pdfrwt>
<totfact> 0.64887706E+04</totfact>
</mgrwt>
</event>
<event>
 4    1  0.4050555E+000  0.2867025E+03  0.7546771E-02  0.1092083E+00
         21   -1    0    0  503  502  0.00000000000E+00  0.00000000000E+00  0.10480853177E+03  0.10480853177E+03  0.00000000000E+00 0.  1.
         21   -1    0    0  501  503 -0.00000000000E+00 -0.00000000000E+00 -0.88737975279E+03  0.88737975279E+03  0.00000000000E+00 0.  1.
          6    1    1    2  501    0  0.22791010000E+03 -0.18063643313E+02 -0.56039073526E+03  0.62947286284E+03  0.17300000000E+03 0.  1.
         -6    1    1    2    0  502 -0.22791010000E+03  0.18063643313E+02 -0.22218048577E+03  0.36271542171E+03  0.17300000000E+03 0.  1.
<mgrwt>
<rscale>  2 0.28670247E+03</rscale>
<asrwt>0</asrwt>
<pdfrwt beam="1">  1       21 0.16124389E-01 0.28670247E+03</pdfrwt>
<pdfrwt beam="2">  1       21 0.13651996E+00 0.28670247E+03</pdfrwt>
<totfact> 0.12406239E+04</totfact>
</mgrwt>
</event>
<event>
 4    1  0.4050555E+000  0.1897737E+03  0.7546771E-02  0.1158666E+00
         21   -1    0    0  501  502  0.00000000000E+00  0.00000000000E+00  0.26503783321E+02  0.26503783321E+02  0.00000000000E+00 0. -1.
         21   -1    0    0  502  503 -0.00000000000E+00 -0.00000000000E+00 -0.16683809867E+04  0.16683809867E+04  0.00000000000E+00 0. -1.
          6    1    1    2  501    0  0.77073582169E+02  0.12029346353E+02 -0.45590643137E+03  0.49382660561E+03  0.17300000000E+03 0. -1.
         -6    1    1    2    0  503 -0.77073582169E+02 -0.12029346353E+02 -0.11859707720E+04  0.12010581644E+04  0.17300000000E+03 0. -1.
<mgrwt>
<rscale>  2 0.18977366E+03</rscale>
<asrwt>0</asrwt>
<pdfrwt beam="1">  1       21 0.40775041E-02 0.18977366E+03</pdfrwt>
<pdfrwt beam="2">  1       21 0.25667406E+00 0.18977366E+03</pdfrwt>
<totfact> 0.23114815E+04</totfact>
</mgrwt>
</event>
<event>
 4    1  0.4050555E+000  0.2107228E+03  0.7546771E-02  0.1140995E+00
         21   -1    0    0  501  502  0.00000000000E+00  0.00000000000E+00  0.76357730638E+03  0.76357730638E+03  0.00000000000E+00 0. -1.
         21   -1    0    0  502  503 -0.00000000000E+00 -0.00000000000E+00 -0.15430148559E+03  0.15430148559E+03  0.00000000000E+00 0. -1.
          6    1    1    2  501    0  0.49157718831E+02  0.10981165206E+03  0.66691610342E+03  0.69941487634E+03  0.17300000000E+03 0. -1.
         -6    1    1    2    0  503 -0.49157718831E+02 -0.10981165206E+03 -0.57640282627E+02  0.21846391562E+03  0.17300000000E+03 0. -1.
<mgrwt>
<rscale>  2 0.21072276E+03</rscale>
<asrwt>0</asrwt>
<pdfrwt beam="1">  1       21 0.11747343E+00 0.21072276E+03</pdfrwt>
<pdfrwt beam="2">  1       21 0.23738691E-01 0.21072276E+03</pdfrwt>
<totfact> 0.91833581E+03</totfact>
</mgrwt>
</event>
<event>
 4    1  0.4050555E+000  0.1751557E+03  0.7546771E-02  0.1172575E+00
         21   -1    0    0  501  502  0.00000000000E+00  0.00000000000E+00  0.19928901565E+03  0.19928901565E+03  0.00000000000E+00 0. -1.
         21   -1    0    0  502  503 -0.00000000000E+00 -0.00000000000E+00 -0.43964635382E+03  0.43964635382E+03  0.00000000000E+00 0. -1.
          6    1    1    2  501    0  0.69986681754E+01 -0.26486662008E+02  0.13735346869E+03  0.22258818473E+03  0.17300000000E+03 0. -1.
         -6    1    1    2    0  503 -0.69986681754E+01  0.26486662008E+02 -0.37771080686E+03  0.41634718473E+03  0.17300000000E+03 0. -1.
<mgrwt>
<rscale>  2 0.17515572E+03</rscale>
<asrwt>0</asrwt>
<pdfrwt beam="1">  1       21 0.30659848E-01 0.17515572E+03</pdfrwt>
<pdfrwt beam="2">  1       21 0.67637901E-01 0.17515572E+03</pdfrwt>
<totfact> 0.20623701E+04</totfact>
</mgrwt>
</event>
<event>
 4    1  0.4050555E+000  0.2090989E+03  0.7546771E-02  0.1142282E+00
         21   -1    0    0  501  502  0.00000000000E+00  0.00000000000E+00  0.35515585024E+03  0.35515585024E+03  0.00000000000E+00 0. -1.
         21   -1    0    0  502  503 -0.00000000000E+00 -0.00000000000E+00 -0.14713471332E+03  0.14713471332E+03  0.00000000000E+00 0. -1.
          6    1    1    2  501    0 -0.90968177613E+02 -0.74284057429E+02  0.20549971908E+03  0.29317650839E+03  0.17300000000E+03 0. -1.
         -6    1    1    2    0  503  0.90968177613E+02  0.74284057429E+02  0.25214178371E+01  0.20911405518E+03  0.17300000000E+03 0. -1.
<mgrwt>
<rscale>  2 0.20909885E+03</rscale>
<asrwt>0</asrwt>
<pdfrwt beam="1">  1       21 0.54639361E-01 0.20909885E+03</pdfrwt>
<pdfrwt beam="2">  1       21 0.22636110E-01 0.20909885E+03</pdfrwt>
<totfact> 0.57410507E+04</totfact>
</mgrwt>
</event>
<event>
 4    1  0.4050555E+000  0.1805823E+03  0.7546771E-02  0.1167241E+00
         21   -1    0    0  501  502  0.00000000000E+00  0.00000000000E+00  0.16763888187E+03  0.16763888187E+03  0.00000000000E+00 0. -1.
         21   -1    0    0  502  503 -0.00000000000E+00 -0.00000000000E+00 -0.21620243056E+03  0.21620243056E+03  0.00000000000E+00 0. -1.
          6    1    1    2  501    0  0.37318814189E+02  0.35892711697E+02  0.36488852133E+02  0.18423196513E+03  0.17300000000E+03 0. -1.
         -6    1    1    2    0  503 -0.37318814189E+02 -0.35892711697E+02 -0.85052400814E+02  0.19960934730E+03  0.17300000000E+03 0. -1.
<mgrwt>
<rscale>  2 0.18058234E+03</rscale>
<asrwt>0</asrwt>
<pdfrwt beam="1">  1       21 0.25790597E-01 0.18058234E+03</pdfrwt>
<pdfrwt beam="2">  1       21 0.33261913E-01 0.18058234E+03</pdfrwt>
<totfact> 0.12473427E+05</totfact>
</mgrwt>
</event>
<event>
 4    1  0.4050555E+000  0.2206504E+03  0.7546771E-02  0.1133399E+00
         21   -1    0    0  501  502  0.00000000000E+00  0.00000000000E+00  0.14518798688E+04  0.14518798688E+04  0.00000000000E+00 0.  1.
         21   -1    0    0  502  503 -0.00000000000E+00 -0.00000000000E+00 -0.43351663003E+02  0.43351663003E+02  0.00000000000E+00 0.  1.
          6    1    1    2  501    0 -0.81630934654E+02  0.10997271148E+03  0.10600516908E+04  0.10827724572E+04  0.17300000000E+03 0.  1.
         -6    1    1    2    0  503  0.81630934654E+02 -0.10997271148E+03  0.34847651494E+03  0.41245907461E+03  0.17300000000E+03 0.  1.
<mgrwt>
<rscale>  2 0.22065042E+03</rscale>
<asrwt>0</asrwt>
<pdfrwt beam="1">  1       21 0.22336610E+00 0.22065042E+03</pdfrwt>
<pdfrwt beam="2">  1       21 0.66694877E-02 0.22065042E+03</pdfrwt>
<totfact> 0.15422846E+04</totfact>
</mgrwt>
</event>
<event>
 4    1  0.4050555E+000  0.2551393E+03  0.7546771E-02  0.1110099E+00
         21   -1    0    0  503  502  0.00000000000E+00  0.00000000000E+00  0.37635295691E+03  0.37635295691E+03  0.00000000000E+00 0.  1.
         21   -1    0    0  501  503 -0.00000000000E+00 -0.00000000000E+00 -0.24303120191E+03  0.24303120191E+03  0.00000000000E+00 0. -1.
          6    1    1    2  501    0  0.10358397780E+03  0.15632480425E+03 -0.99623618111E+02  0.27389952568E+03  0.17300000000E+03 0. -1.
         -6    1    1    2    0  502 -0.10358397780E+03 -0.15632480425E+03  0.23294537312E+03  0.34548463314E+03  0.17300000000E+03 0.  1.
<mgrwt>
<rscale>  2 0.25513934E+03</rscale>
<asrwt>0</asrwt>
<pdfrwt beam="1">  1       21 0.57900455E-01 0.25513934E+03</pdfrwt>
<pdfrwt beam="2">  1       21 0.37389416E-01 0.25513934E+03</pdfrwt>
<totfact> 0.18644300E+04</totfact>
</mgrwt>
</event>
<event>
 4    1  0.4050555E+000  0.2460089E+03  0.7546771E-02  0.1115853E+00
         21   -1    0    0  501  502  0.00000000000E+00  0.00000000000E+00  0.22721658631E+03  0.22721658631E+03  0.00000000000E+00 0.  1.
         21   -1    0    0  502  503 -0.00000000000E+00 -0.00000000000E+00 -0.41013592642E+03  0.41013592642E+03  0.00000000000E+00 0.  1.
          6    1    1    2  501    0 -0.14896651793E+03  0.91653350811E+02  0.97224673313E+02  0.26452409584E+03  0.17300000000E+03 0.  1.
         -6    1    1    2    0  503  0.14896651793E+03 -0.91653350811E+02 -0.28014401343E+03  0.37282841689E+03  0.17300000000E+03 0.  1.
<mgrwt>
<rscale>  2 0.24600886E+03</rscale>
<asrwt>0</asrwt>
<pdfrwt beam="1">  1       21 0.34956398E-01 0.24600886E+03</pdfrwt>
<pdfrwt beam="2">  1       21 0.63097834E-01 0.24600886E+03</pdfrwt>
<totfact> 0.17794632E+04</totfact>
</mgrwt>
</event>
<event>
 4    1  0.4050555E+000  0.2693014E+03  0.7546771E-02  0.1101680E+00
         21   -1    0    0  503  502  0.00000000000E+00  0.00000000000E+00  0.22121055220E+03  0.22121055220E+03  0.00000000000E+00 0.  1.
         21   -1    0    0  501  503 -0.00000000000E+00 -0.00000000000E+00 -0.44626016684E+03  0.44626016684E+03  0.00000000000E+00 0.  1.
          6    1    1    2  501    0  0.18170786902E+03  0.97859626536E+02 -0.28443745356E+03  0.39169876328E+03  0.17300000000E+03 0.  1.
         -6    1    1    2    0  502 -0.18170786902E+03 -0.97859626536E+02  0.59387838913E+02  0.27577195575E+03  0.17300000000E+03 0.  1.
<mgrwt>
<rscale>  2 0.26930142E+03</rscale>
<asrwt>0</asrwt>
<pdfrwt beam="1">  1       21 0.34032393E-01 0.26930142E+03</pdfrwt>
<pdfrwt beam="2">  1       21 0.68655410E-01 0.26930142E+03</pdfrwt>
<totfact> 0.15417851E+04</totfact>
</mgrwt>
</event>
<event>
 4    1  0.4050555E+000  0.3464562E+03  0.7546771E-02  0.1064079E+00
         21   -1    0    0  503  502  0.00000000000E+00  0.00000000000E+00  0.98751010694E+03  0.98751010694E+03  0.00000000000E+00 0. -1.
         21   -1    0    0  501  503 -0.00000000000E+00 -0.00000000000E+00 -0.21970128080E+03  0.21970128080E+03  0.00000000000E+00 0.  1.
          6    1    1    2  501    0  0.21807194394E+03  0.20627059606E+03 -0.19541057670E+02  0.34700689398E+03  0.17300000000E+03 0.  1.
         -6    1    1    2    0  502 -0.21807194394E+03 -0.20627059606E+03  0.78734988381E+03  0.86020449375E+03  0.17300000000E+03 0. -1.
<mgrwt>
<rscale>  2 0.34645625E+03</rscale>
<asrwt>0</asrwt>
<pdfrwt beam="1">  1       21 0.15192463E+00 0.34645625E+03</pdfrwt>
<pdfrwt beam="2">  1       21 0.33800198E-01 0.34645625E+03</pdfrwt>
<totfact> 0.21875555E+03</totfact>
</mgrwt>
</event>
<event>
 4    1  0.4050555E+000  0.1948271E+03  0.7546771E-02  0.1154178E+00
         21   -1    0    0  501  502  0.00000000000E+00  0.00000000000E+00  0.62987071550E+02  0.62987071550E+02  0.00000000000E+00 0.  1.
         21   -1    0    0  502  503 -0.00000000000E+00 -0.00000000000E+00 -0.94896077764E+03  0.94896077764E+03  0.00000000000E+00 0.  1.
          6    1    1    2  501    0  0.89085719976E+02 -0.96090017140E+01 -0.13731704790E+03  0.23835597341E+03  0.17300000000E+03 0.  1.
         -6    1    1    2    0  503 -0.89085719976E+02  0.96090017140E+01 -0.74865665819E+03  0.77359187577E+03  0.17300000000E+03 0.  1.
<mgrwt>
<rscale>  2 0.19482710E+03</rscale>
<asrwt>0</asrwt>
<pdfrwt beam="1">  1       21 0.96903193E-02 0.19482710E+03</pdfrwt>
<pdfrwt beam="2">  1       21 0.14599396E+00 0.19482710E+03</pdfrwt>
<totfact> 0.27488188E+04</totfact>
</mgrwt>
</event>
<event>
 4    1  0.4050555E+000  0.2060937E+03  0.7546771E-02  0.1144697E+00
         21   -1    0    0  501  502  0.00000000000E+00  0.00000000000E+00  0.86476825062E+03  0.86476825062E+03  0.00000000000E+00 0.  1.
         21   -1    0    0  502  503 -0.00000000000E+00 -0.00000000000E+00 -0.15136629148E+03  0.15136629148E+03  0.00000000000E+00 0. -1.
          6    1    1    2  501    0  0.93981467833E+02  0.60935229671E+02  0.77427866972E+03  0.80123784040E+03  0.17300000000E+03 0.  1.
         -6    1    1    2    0  503 -0.93981467833E+02 -0.60935229671E+02 -0.60876710580E+02  0.21489670170E+03  0.17300000000E+03 0. -1.
<mgrwt>
<rscale>  2 0.20609371E+03</rscale>
<asrwt>0</asrwt>
<pdfrwt beam="1">  1       21 0.13304127E+00 0.20609371E+03</pdfrwt>
<pdfrwt beam="2">  1       21 0.23287122E-01 0.20609371E+03</pdfrwt>
<totfact> 0.69948032E+03</totfact>
</mgrwt>
</event>
<event>
 4    1  0.4050555E+000  0.1757693E+03  0.7546771E-02  0.1171962E+00
         21   -1    0    0  503  502  0.00000000000E+00  0.00000000000E+00  0.27789963108E+03  0.27789963108E+03  0.00000000000E+00 0.  1.
         21   -1    0    0  501  503 -0.00000000000E+00 -0.00000000000E+00 -0.12003662222E+03  0.12003662222E+03  0.00000000000E+00 0.  1.
          6    1    1    2  501    0  0.31034903265E+02 -0.16340018132E+01  0.24863404672E+02  0.17751908087E+03  0.17300000000E+03 0.  1.
         -6    1    1    2    0  502 -0.31034903265E+02  0.16340018132E+01  0.13299960419E+03  0.22041717242E+03  0.17300000000E+03 0.  1.
<mgrwt>
<rscale>  2 0.17576927E+03</rscale>
<asrwt>0</asrwt>
<pdfrwt beam="1">  1       21 0.42753789E-01 0.17576927E+03</pdfrwt>
<pdfrwt beam="2">  1       21 0.18467173E-01 0.17576927E+03</pdfrwt>
<totfact> 0.14168878E+05</totfact>
</mgrwt>
</event>
<event>
 4    1  0.4050555E+000  0.1825314E+03  0.7546771E-02  0.1165375E+00
         21   -1    0    0  503  502  0.00000000000E+00  0.00000000000E+00  0.19224831434E+03  0.19224831434E+03  0.00000000000E+00 0. -1.
         21   -1    0    0  501  503 -0.00000000000E+00 -0.00000000000E+00 -0.22757614308E+03  0.22757614308E+03  0.00000000000E+00 0. -1.
          6    1    1    2  501    0  0.24880794326E+02  0.52627426861E+02 -0.12017165336E+03  0.21853815744E+03  0.17300000000E+03 0. -1.
         -6    1    1    2    0  502 -0.24880794326E+02 -0.52627426861E+02  0.84843824627E+02  0.20128629998E+03  0.17300000000E+03 0. -1.
<mgrwt>
<rscale>  2 0.18253137E+03</rscale>
<asrwt>0</asrwt>
<pdfrwt beam="1">  1       21 0.29576664E-01 0.18253137E+03</pdfrwt>
<pdfrwt beam="2">  1       21 0.35011714E-01 0.18253137E+03</pdfrwt>
<totfact> 0.86497689E+04</totfact>
</mgrwt>
</event>
<event>
 4    1  0.4050555E+000  0.1998267E+03  0.7546771E-02  0.1149885E+00
         21   -1    0    0  503  502  0.00000000000E+00  0.00000000000E+00  0.76937948031E+03  0.76937948031E+03  0.00000000000E+00 0.  1.
         21   -1    0    0  501  503 -0.00000000000E+00 -0.00000000000E+00 -0.53013437978E+02  0.53013437978E+02  0.00000000000E+00 0.  1.
          6    1    1    2  501    0 -0.55264575712E+02  0.83351872092E+02  0.41777824819E+03  0.46310838102E+03  0.17300000000E+03 0.  1.
         -6    1    1    2    0  502  0.55264575712E+02 -0.83351872092E+02  0.29858779415E+03  0.35928453727E+03  0.17300000000E+03 0.  1.
<mgrwt>
<rscale>  2 0.19982669E+03</rscale>
<asrwt>0</asrwt>
<pdfrwt beam="1">  1       21 0.11836607E+00 0.19982669E+03</pdfrwt>
<pdfrwt beam="2">  1       21 0.81559141E-02 0.19982669E+03</pdfrwt>
<totfact> 0.63165685E+04</totfact>
</mgrwt>
</event>
<event>
 4    1  0.4050555E+000  0.3090104E+03  0.7546771E-02  0.1080821E+00
         21   -1    0    0  501  502  0.00000000000E+00  0.00000000000E+00  0.63319810015E+03  0.63319810015E+03  0.00000000000E+00 0. -1.
         21   -1    0    0  502  503 -0.00000000000E+00 -0.00000000000E+00 -0.16905441105E+03  0.16905441105E+03  0.00000000000E+00 0.  1.
          6    1    1    2  501    0  0.10141578234E+03 -0.23510271764E+03  0.36387617184E+03  0.47738173109E+03  0.17300000000E+03 0. -1.
         -6    1    1    2    0  503 -0.10141578234E+03  0.23510271764E+03  0.10026751726E+03  0.32487078011E+03  0.17300000000E+03 0.  1.
<mgrwt>
<rscale>  2 0.30901043E+03</rscale>
<asrwt>0</asrwt>
<pdfrwt beam="1">  1       21 0.97415091E-01 0.30901043E+03</pdfrwt>
<pdfrwt beam="2">  1       21 0.26008371E-01 0.30901043E+03</pdfrwt>
<totfact> 0.11501917E+04</totfact>
</mgrwt>
</event>
<event>
 4    1  0.4050555E+000  0.2200410E+03  0.7546771E-02  0.1133852E+00
         21   -1    0    0  501  502  0.00000000000E+00  0.00000000000E+00  0.16393456142E+03  0.16393456142E+03  0.00000000000E+00 0.  1.
         21   -1    0    0  502  503 -0.00000000000E+00 -0.00000000000E+00 -0.49501650732E+03  0.49501650732E+03  0.00000000000E+00 0. -1.
          6    1    1    2  501    0 -0.11992303152E+03  0.64089947317E+02  0.43709312628E+02  0.22434027469E+03  0.17300000000E+03 0.  1.
         -6    1    1    2    0  503  0.11992303152E+03 -0.64089947317E+02 -0.37479125853E+03  0.43461079405E+03  0.17300000000E+03 0. -1.
<mgrwt>
<rscale>  2 0.22004103E+03</rscale>
<asrwt>0</asrwt>
<pdfrwt beam="1">  1       21 0.25220702E-01 0.22004103E+03</pdfrwt>
<pdfrwt beam="2">  1       21 0.76156386E-01 0.22004103E+03</pdfrwt>
<totfact> 0.22527280E+04</totfact>
</mgrwt>
</event>
<event>
 4    1  0.4050555E+000  0.3234692E+03  0.7546771E-02  0.1074064E+00
         21   -1    0    0  503  502  0.00000000000E+00  0.00000000000E+00  0.18348257794E+03  0.18348257794E+03  0.00000000000E+00 0.  1.
         21   -1    0    0  501  503 -0.00000000000E+00 -0.00000000000E+00 -0.57678803497E+03  0.57678803497E+03  0.00000000000E+00 0.  1.
          6    1    1    2  501    0  0.23140885653E+02  0.27233775214E+03 -0.23710081747E+03  0.40106003226E+03  0.17300000000E+03 0.  1.
         -6    1    1    2    0  502 -0.23140885653E+02 -0.27233775214E+03 -0.15620463956E+03  0.35921058065E+03  0.17300000000E+03 0.  1.
<mgrwt>
<rscale>  2 0.32346924E+03</rscale>
<asrwt>0</asrwt>
<pdfrwt beam="1">  1       21 0.28228090E-01 0.32346924E+03</pdfrwt>
<pdfrwt beam="2">  1       21 0.88736619E-01 0.32346924E+03</pdfrwt>
<totfact> 0.12149882E+04</totfact>
</mgrwt>
</event>
<event>
 4    1  0.4050555E+000  0.2646218E+03  0.7546771E-02  0.1104398E+00
         21   -1    0    0  503  502  0.00000000000E+00  0.00000000000E+00  0.70975890416E+03  0.70975890416E+03  0.00000000000E+00 0. -1.
         21   -1    0    0  501  503 -0.00000000000E+00 -0.00000000000E+00 -0.17391693158E+03  0.17391693158E+03  0.00000000000E+00 0. -1.
          6    1    1    2  501    0  0.94431712932E+02 -0.17657387469E+03 -0.22726011245E+02  0.26559584563E+03  0.17300000000E+03 0. -1.
         -6    1    1    2    0  502 -0.94431712932E+02  0.17657387469E+03  0.55856798383E+03  0.61807999012E+03  0.17300000000E+03 0. -1.
<mgrwt>
<rscale>  2 0.26462177E+03</rscale>
<asrwt>0</asrwt>
<pdfrwt beam="1">  1       21 0.10919368E+00 0.26462177E+03</pdfrwt>
<pdfrwt beam="2">  1       21 0.26756451E-01 0.26462177E+03</pdfrwt>
<totfact> 0.84424170E+03</totfact>
</mgrwt>
</event>
<event>
 4    1  0.4050555E+000  0.2092657E+03  0.7546771E-02  0.1142149E+00
         21   -1    0    0  501  502  0.00000000000E+00  0.00000000000E+00  0.19299833934E+02  0.19299833934E+02  0.00000000000E+00 0.  1.
         21   -1    0    0  502  503 -0.00000000000E+00 -0.00000000000E+00 -0.29968247421E+04  0.29968247421E+04  0.00000000000E+00 0. -1.
          6    1    1    2  501    0 -0.60287300154E+02 -0.10113640150E+03 -0.74559011327E+03  0.77440089570E+03  0.17300000000E+03 0.  1.
         -6    1    1    2    0  503  0.60287300154E+02  0.10113640150E+03 -0.22319347949E+04  0.22417236803E+04  0.17300000000E+03 0. -1.
<mgrwt>
<rscale>  2 0.20926569E+03</rscale>
<asrwt>0</asrwt>
<pdfrwt beam="1">  1       21 0.29692050E-02 0.20926569E+03</pdfrwt>
<pdfrwt beam="2">  1       21 0.46105000E+00 0.20926569E+03</pdfrwt>
<totfact> 0.22062661E+03</totfact>
</mgrwt>
</event>
<event>
 4    1  0.4050555E+000  0.2272695E+03  0.7546771E-02  0.1128576E+00
         21   -1    0    0  501  502  0.00000000000E+00  0.00000000000E+00  0.17398972314E+03  0.17398972314E+03  0.00000000000E+00 0. -1.
         21   -1    0    0  502  503 -0.00000000000E+00 -0.00000000000E+00 -0.49927205825E+03  0.49927205825E+03  0.00000000000E+00 0. -1.
          6    1    1    2  501    0  0.72324603806E+02  0.12841960513E+03  0.51696381245E+02  0.23307500752E+03  0.17300000000E+03 0. -1.
         -6    1    1    2    0  503 -0.72324603806E+02 -0.12841960513E+03 -0.37697871635E+03  0.44018677386E+03  0.17300000000E+03 0. -1.
<mgrwt>
<rscale>  2 0.22726954E+03</rscale>
<asrwt>0</asrwt>
<pdfrwt beam="1">  1       21 0.26767650E-01 0.22726954E+03</pdfrwt>
<pdfrwt beam="2">  1       21 0.76811085E-01 0.22726954E+03</pdfrwt>
<totfact> 0.19629367E+04</totfact>
</mgrwt>
</event>
<event>
 4    1  0.4050555E+000  0.1985971E+03  0.7546771E-02  0.1150928E+00
         21   -1    0    0  501  502  0.00000000000E+00  0.00000000000E+00  0.33477776918E+03  0.33477776918E+03  0.00000000000E+00 0. -1.
         21   -1    0    0  502  503 -0.00000000000E+00 -0.00000000000E+00 -0.17524173766E+03  0.17524173766E+03  0.00000000000E+00 0. -1.
          6    1    1    2  501    0  0.95621783256E+02 -0.19190827798E+02  0.22575250580E+03  0.30067425427E+03  0.17300000000E+03 0. -1.
         -6    1    1    2    0  503 -0.95621783256E+02  0.19190827798E+02 -0.66216474281E+02  0.20934525256E+03  0.17300000000E+03 0. -1.
<mgrwt>
<rscale>  2 0.19859711E+03</rscale>
<asrwt>0</asrwt>
<pdfrwt beam="1">  1       21 0.51504272E-01 0.19859711E+03</pdfrwt>
<pdfrwt beam="2">  1       21 0.26960267E-01 0.19859711E+03</pdfrwt>
<totfact> 0.46802873E+04</totfact>
</mgrwt>
</event>
<event>
 4    1  0.4050555E+000  0.1740608E+03  0.7546771E-02  0.1173678E+00
         21   -1    0    0  501  502  0.00000000000E+00  0.00000000000E+00  0.54608000118E+03  0.54608000118E+03  0.00000000000E+00 0.  1.
         21   -1    0    0  502  503 -0.00000000000E+00 -0.00000000000E+00 -0.19015623232E+03  0.19015623232E+03  0.00000000000E+00 0.  1.
          6    1    1    2  501    0  0.14601877836E+02 -0.12448042618E+02  0.48775764412E+03  0.51788482117E+03  0.17300000000E+03 0.  1.
         -6    1    1    2    0  503 -0.14601877836E+02  0.12448042618E+02 -0.13183387526E+03  0.21835141233E+03  0.17300000000E+03 0.  1.
<mgrwt>
<rscale>  2 0.17406082E+03</rscale>
<asrwt>0</asrwt>
<pdfrwt beam="1">  1       21 0.84012307E-01 0.17406082E+03</pdfrwt>
<pdfrwt beam="2">  1       21 0.29254805E-01 0.17406082E+03</pdfrwt>
<totfact> 0.13943827E+04</totfact>
</mgrwt>
</event>
<event>
 4    1  0.4050555E+000  0.2389434E+03  0.7546771E-02  0.1120499E+00
         21   -1    0    0  501  502  0.00000000000E+00  0.00000000000E+00  0.52249065820E+02  0.52249065820E+02  0.00000000000E+00 0.  1.
         21   -1    0    0  502  503 -0.00000000000E+00 -0.00000000000E+00 -0.11842101674E+04  0.11842101674E+04  0.00000000000E+00 0.  1.
          6    1    1    2  501    0 -0.55773851960E+02  0.15509417599E+03 -0.39414707312E+03  0.46091847570E+03  0.17300000000E+03 0.  1.
         -6    1    1    2    0  503  0.55773851960E+02 -0.15509417599E+03 -0.73781402841E+03  0.77554075747E+03  0.17300000000E+03 0.  1.
<mgrwt>
<rscale>  2 0.23894335E+03</rscale>
<asrwt>0</asrwt>
<pdfrwt beam="1">  1       21 0.80383181E-02 0.23894335E+03</pdfrwt>
<pdfrwt beam="2">  1       21 0.18218617E+00 0.23894335E+03</pdfrwt>
<totfact> 0.20286637E+04</totfact>
</mgrwt>
</event>
<event>
 4    1  0.4050555E+000  0.2377965E+03  0.7546771E-02  0.1121269E+00
         21   -1    0    0  501  502  0.00000000000E+00  0.00000000000E+00  0.45598320067E+02  0.45598320067E+02  0.00000000000E+00 0. -1.
         21   -1    0    0  502  503 -0.00000000000E+00 -0.00000000000E+00 -0.18588612728E+04  0.18588612728E+04  0.00000000000E+00 0.  1.
          6    1    1    2  501    0 -0.15761909394E+03  0.42123743329E+02 -0.35724955881E+03  0.42915549139E+03  0.17300000000E+03 0. -1.
         -6    1    1    2    0  503  0.15761909394E+03 -0.42123743329E+02 -0.14560133940E+04  0.14753041015E+04  0.17300000000E+03 0.  1.
<mgrwt>
<rscale>  2 0.23779653E+03</rscale>
<asrwt>0</asrwt>
<pdfrwt beam="1">  1       21 0.70151253E-02 0.23779653E+03</pdfrwt>
<pdfrwt beam="2">  1       21 0.28597869E+00 0.23779653E+03</pdfrwt>
<totfact> 0.59193705E+03</totfact>
</mgrwt>
</event>
<event>
 4    1  0.4050555E+000  0.1982395E+03  0.7546771E-02  0.1151233E+00
         21   -1    0    0  503  502  0.00000000000E+00  0.00000000000E+00  0.82437761883E+03  0.82437761883E+03  0.00000000000E+00 0. -1.
         21   -1    0    0  501  503 -0.00000000000E+00 -0.00000000000E+00 -0.50419742633E+02  0.50419742633E+02  0.00000000000E+00 0. -1.
          6    1    1    2  501    0 -0.71285534179E+02  0.65484948039E+02  0.28485109412E+03  0.34704329935E+03  0.17300000000E+03 0. -1.
         -6    1    1    2    0  502  0.71285534179E+02 -0.65484948039E+02  0.48910678208E+03  0.52775406212E+03  0.17300000000E+03 0. -1.
<mgrwt>
<rscale>  2 0.19823952E+03</rscale>
<asrwt>0</asrwt>
<pdfrwt beam="1">  1       21 0.12682732E+00 0.19823952E+03</pdfrwt>
<pdfrwt beam="2">  1       21 0.77568841E-02 0.19823952E+03</pdfrwt>
<totfact> 0.58073236E+04</totfact>
</mgrwt>
</event>
<event>
 4    1  0.4050555E+000  0.2087111E+03  0.7546771E-02  0.1142591E+00
         21   -1    0    0  501  502  0.00000000000E+00  0.00000000000E+00  0.92862185291E+02  0.92862185291E+02  0.00000000000E+00 0.  1.
         21   -1    0    0  502  503 -0.00000000000E+00 -0.00000000000E+00 -0.99931696241E+03  0.99931696241E+03  0.00000000000E+00 0. -1.
          6    1    1    2  501    0  0.94670323720E+02 -0.68328951285E+02 -0.55445547877E+02  0.21595028260E+03  0.17300000000E+03 0.  1.
         -6    1    1    2    0  503 -0.94670323720E+02  0.68328951285E+02 -0.85100922924E+03  0.87622886509E+03  0.17300000000E+03 0. -1.
<mgrwt>
<rscale>  2 0.20871108E+03</rscale>
<asrwt>0</asrwt>
<pdfrwt beam="1">  1       21 0.14286490E-01 0.20871108E+03</pdfrwt>
<pdfrwt beam="2">  1       21 0.15374107E+00 0.20871108E+03</pdfrwt>
<totfact> 0.11863852E+04</totfact>
</mgrwt>
</event>
<event>
 4    1  0.4050555E+000  0.2567478E+03  0.7546771E-02  0.1109113E+00
         21   -1    0    0  503  502  0.00000000000E+00  0.00000000000E+00  0.44249461270E+03  0.44249461270E+03  0.00000000000E+00 0.  1.
         21   -1    0    0  501  503 -0.00000000000E+00 -0.00000000000E+00 -0.32591632143E+03  0.32591632143E+03  0.00000000000E+00 0.  1.
          6    1    1    2  501    0  0.53313343799E+02  0.18206625761E+03 -0.22480340872E+03  0.34125651255E+03  0.17300000000E+03 0.  1.
         -6    1    1    2    0  502 -0.53313343799E+02 -0.18206625761E+03  0.34138169999E+03  0.42715442158E+03  0.17300000000E+03 0.  1.
<mgrwt>
<rscale>  2 0.25674780E+03</rscale>
<asrwt>0</asrwt>
<pdfrwt beam="1">  1       21 0.68076094E-01 0.25674780E+03</pdfrwt>
<pdfrwt beam="2">  1       21 0.50140973E-01 0.25674780E+03</pdfrwt>
<totfact> 0.71574332E+03</totfact>
</mgrwt>
</event>
<event>
 4    1  0.4050555E+000  0.3209036E+03  0.7546771E-02  0.1075234E+00
         21   -1    0    0  501  502  0.00000000000E+00  0.00000000000E+00  0.84095183505E+02  0.84095183505E+02  0.00000000000E+00 0. -1.
         21   -1    0    0  502  503 -0.00000000000E+00 -0.00000000000E+00 -0.13648118150E+04  0.13648118150E+04  0.00000000000E+00 0. -1.
          6    1    1    2  501    0 -0.19757119230E+03  0.18443361586E+03 -0.40811838086E+03  0.51917217518E+03  0.17300000000E+03 0. -1.
         -6    1    1    2    0  503  0.19757119230E+03 -0.18443361586E+03 -0.87259825061E+03  0.92973482330E+03  0.17300000000E+03 0. -1.
<mgrwt>
<rscale>  2 0.32090362E+03</rscale>
<asrwt>0</asrwt>
<pdfrwt beam="1">  1       21 0.12937721E-01 0.32090362E+03</pdfrwt>
<pdfrwt beam="2">  1       21 0.20997104E+00 0.32090362E+03</pdfrwt>
<totfact> 0.54232711E+03</totfact>
</mgrwt>
</event>
<event>
 4    1  0.4050555E+000  0.2060727E+03  0.7546771E-02  0.1144714E+00
         21   -1    0    0  501  502  0.00000000000E+00  0.00000000000E+00  0.27931879458E+03  0.27931879458E+03  0.00000000000E+00 0.  1.
         21   -1    0    0  502  503 -0.00000000000E+00 -0.00000000000E+00 -0.15380236560E+03  0.15380236560E+03  0.00000000000E+00 0.  1.
          6    1    1    2  501    0  0.11158773587E+03 -0.92267706642E+01  0.85979317137E+02  0.22328994395E+03  0.17300000000E+03 0.  1.
         -6    1    1    2    0  503 -0.11158773587E+03  0.92267706642E+01  0.39537111844E+02  0.20983121623E+03  0.17300000000E+03 0.  1.
<mgrwt>
<rscale>  2 0.20607270E+03</rscale>
<asrwt>0</asrwt>
<pdfrwt beam="1">  1       21 0.42972122E-01 0.20607270E+03</pdfrwt>
<pdfrwt beam="2">  1       21 0.23661902E-01 0.20607270E+03</pdfrwt>
<totfact> 0.87097472E+04</totfact>
</mgrwt>
</event>
<event>
 4    1  0.4050555E+000  0.2010237E+03  0.7546771E-02  0.1148878E+00
         21   -1    0    0  501  502  0.00000000000E+00  0.00000000000E+00  0.27736954425E+02  0.27736954425E+02  0.00000000000E+00 0. -1.
         21   -1    0    0  502  503 -0.00000000000E+00 -0.00000000000E+00 -0.14814153615E+04  0.14814153615E+04  0.00000000000E+00 0.  1.
          6    1    1    2  501    0 -0.10159744655E+03  0.12628041943E+02 -0.62980800548E+03  0.66111166406E+03  0.17300000000E+03 0. -1.
         -6    1    1    2    0  503  0.10159744655E+03 -0.12628041943E+02 -0.82387040156E+03  0.84804065183E+03  0.17300000000E+03 0.  1.
<mgrwt>
<rscale>  2 0.20102365E+03</rscale>
<asrwt>0</asrwt>
<pdfrwt beam="1">  1       21 0.42672238E-02 0.20102365E+03</pdfrwt>
<pdfrwt beam="2">  1       21 0.22791005E+00 0.20102365E+03</pdfrwt>
<totfact> 0.31447962E+04</totfact>
</mgrwt>
</event>
<event>
 4    1  0.4050555E+000  0.2346220E+03  0.7546771E-02  0.1123428E+00
         21   -1    0    0  503  502  0.00000000000E+00  0.00000000000E+00  0.19135289767E+03  0.19135289767E+03  0.00000000000E+00 0.  1.
         21   -1    0    0  501  503 -0.00000000000E+00 -0.00000000000E+00 -0.31368714618E+03  0.31368714618E+03  0.00000000000E+00 0. -1.
          6    1    1    2  501    0 -0.14234330597E+03 -0.69691235285E+02 -0.13388376307E+03  0.27013394278E+03  0.17300000000E+03 0. -1.
         -6    1    1    2    0  502  0.14234330597E+03  0.69691235285E+02  0.11549514564E+02  0.23490610106E+03  0.17300000000E+03 0. -1.
<mgrwt>
<rscale>  2 0.23462200E+03</rscale>
<asrwt>0</asrwt>
<pdfrwt beam="1">  1       21 0.29438908E-01 0.23462200E+03</pdfrwt>
<pdfrwt beam="2">  1       21 0.48259561E-01 0.23462200E+03</pdfrwt>
<totfact> 0.44454695E+04</totfact>
</mgrwt>
</event>
<event>
 4    1  0.4050555E+000  0.2542373E+03  0.7546771E-02  0.1110656E+00
         21   -1    0    0  503  502  0.00000000000E+00  0.00000000000E+00  0.46695451379E+03  0.46695451379E+03  0.00000000000E+00 0.  1.
         21   -1    0    0  501  503 -0.00000000000E+00 -0.00000000000E+00 -0.13847606167E+03  0.13847606167E+03  0.00000000000E+00 0.  1.
          6    1    1    2  501    0  0.12025126973E+03 -0.14229277475E+03  0.17024129757E+03  0.30597173238E+03  0.17300000000E+03 0.  1.
         -6    1    1    2    0  502 -0.12025126973E+03  0.14229277475E+03  0.15823715455E+03  0.29945884308E+03  0.17300000000E+03 0.  1.
<mgrwt>
<rscale>  2 0.25423729E+03</rscale>
<asrwt>0</asrwt>
<pdfrwt beam="1">  1       21 0.71839155E-01 0.25423729E+03</pdfrwt>
<pdfrwt beam="2">  1       21 0.21304010E-01 0.25423729E+03</pdfrwt>
<totfact> 0.34823875E+04</totfact>
</mgrwt>
</event>
<event>
 4    1  0.4050555E+000  0.1783976E+03  0.7546771E-02  0.1169363E+00
         21   -1    0    0  503  502  0.00000000000E+00  0.00000000000E+00  0.41156035433E+03  0.41156035433E+03  0.00000000000E+00 0.  1.
         21   -1    0    0  501  503 -0.00000000000E+00 -0.00000000000E+00 -0.81192396743E+02  0.81192396743E+02  0.00000000000E+00 0.  1.
          6    1    1    2  501    0  0.43549848512E+02 -0.34070348287E+00  0.11144308297E+03  0.21034558737E+03  0.17300000000E+03 0.  1.
         -6    1    1    2    0  502 -0.43549848512E+02  0.34070348287E+00  0.21892487462E+03  0.28240716370E+03  0.17300000000E+03 0.  1.
<mgrwt>
<rscale>  2 0.17839760E+03</rscale>
<asrwt>0</asrwt>
<pdfrwt beam="1">  1       21 0.63316977E-01 0.17839760E+03</pdfrwt>
<pdfrwt beam="2">  1       21 0.12491138E-01 0.17839760E+03</pdfrwt>
<totfact> 0.12664404E+05</totfact>
</mgrwt>
</event>
<event>
 4    1  0.4050555E+000  0.1748421E+03  0.7546771E-02  0.1172890E+00
         21   -1    0    0  501  502  0.00000000000E+00  0.00000000000E+00  0.59625175556E+02  0.59625175556E+02  0.00000000000E+00 0. -1.
         21   -1    0    0  502  503 -0.00000000000E+00 -0.00000000000E+00 -0.54111246805E+03  0.54111246805E+03  0.00000000000E+00 0. -1.
          6    1    1    2  501    0 -0.16234588427E+01 -0.25260842043E+02 -0.17191392053E+03  0.24520224679E+03  0.17300000000E+03 0. -1.
         -6    1    1    2    0  503  0.16234588427E+01  0.25260842043E+02 -0.30957337196E+03  0.35553539681E+03  0.17300000000E+03 0. -1.
<mgrwt>
<rscale>  2 0.17484206E+03</rscale>
<asrwt>0</asrwt>
<pdfrwt beam="1">  1       21 0.91731036E-02 0.17484206E+03</pdfrwt>
<pdfrwt beam="2">  1       21 0.83248075E-01 0.17484206E+03</pdfrwt>
<totfact> 0.11951138E+05</totfact>
</mgrwt>
</event>
<event>
 4    1  0.4050555E+000  0.2108422E+03  0.7546771E-02  0.1140901E+00
         21   -1    0    0  501  502  0.00000000000E+00  0.00000000000E+00  0.26996711800E+04  0.26996711800E+04  0.00000000000E+00 0.  1.
         21   -1    0    0  502  503 -0.00000000000E+00 -0.00000000000E+00 -0.23600399673E+02  0.23600399673E+02  0.00000000000E+00 0.  1.
          6    1    1    2  501    0 -0.10380622484E+03 -0.61234890697E+02  0.20866551697E+04  0.20972802010E+04  0.17300000000E+03 0.  1.
         -6    1    1    2    0  503  0.10380622484E+03  0.61234890697E+02  0.58941561060E+03  0.62599137867E+03  0.17300000000E+03 0.  1.
<mgrwt>
<rscale>  2 0.21084223E+03</rscale>
<asrwt>0</asrwt>
<pdfrwt beam="1">  1       21 0.41533378E+00 0.21084223E+03</pdfrwt>
<pdfrwt beam="2">  1       21 0.36308329E-02 0.21084223E+03</pdfrwt>
<totfact> 0.31369973E+03</totfact>
</mgrwt>
</event>
<event>
 4    1  0.4050555E+000  0.1985759E+03  0.7546771E-02  0.1150946E+00
         21   -1    0    0  501  502  0.00000000000E+00  0.00000000000E+00  0.69337494694E+03  0.69337494694E+03  0.00000000000E+00 0.  1.
         21   -1    0    0  502  503 -0.00000000000E+00 -0.00000000000E+00 -0.76502450430E+02  0.76502450430E+02  0.00000000000E+00 0. -1.
          6    1    1    2  501    0  0.80397024754E+02  0.55133417701E+02  0.50343816880E+03  0.54118607257E+03  0.17300000000E+03 0. -1.
         -6    1    1    2    0  503 -0.80397024754E+02 -0.55133417701E+02  0.11343432771E+03  0.22869132480E+03  0.17300000000E+03 0.  1.
<mgrwt>
<rscale>  2 0.19857587E+03</rscale>
<asrwt>0</asrwt>
<pdfrwt beam="1">  1       21 0.10667306E+00 0.19857587E+03</pdfrwt>
<pdfrwt beam="2">  1       21 0.11769608E-01 0.19857587E+03</pdfrwt>
<totfact> 0.42594423E+04</totfact>
</mgrwt>
</event>
<event>
 4    1  0.4050555E+000  0.1731548E+03  0.7546771E-02  0.1174597E+00
         21   -1    0    0  501  502  0.00000000000E+00  0.00000000000E+00  0.17197083908E+03  0.17197083908E+03  0.00000000000E+00 0. -1.
         21   -1    0    0  502  503 -0.00000000000E+00 -0.00000000000E+00 -0.31964001997E+03  0.31964001997E+03  0.00000000000E+00 0. -1.
          6    1    1    2  501    0 -0.28605015985E+01  0.67388015673E+01  0.91888614794E+02  0.19602579280E+03  0.17300000000E+03 0. -1.
         -6    1    1    2    0  503  0.28605015985E+01 -0.67388015673E+01 -0.23955779568E+03  0.29558506624E+03  0.17300000000E+03 0. -1.
<mgrwt>
<rscale>  2 0.17315483E+03</rscale>
<asrwt>0</asrwt>
<pdfrwt beam="1">  1       21 0.26457053E-01 0.17315483E+03</pdfrwt>
<pdfrwt beam="2">  1       21 0.49175387E-01 0.17315483E+03</pdfrwt>
<totfact> 0.54098605E+04</totfact>
</mgrwt>
</event>
<event>
 4    1  0.4050555E+000  0.1844960E+03  0.7546771E-02  0.1163521E+00
         21   -1    0    0  501  502  0.00000000000E+00  0.00000000000E+00  0.64751033441E+02  0.64751033441E+02  0.00000000000E+00 0. -1.
         21   -1    0    0  502  503 -0.00000000000E+00 -0.00000000000E+00 -0.75762330636E+03  0.75762330636E+03  0.00000000000E+00 0. -1.
          6    1    1    2  501    0 -0.13107807781E+02 -0.62753127912E+02 -0.11892777686E+03  0.21950532066E+03  0.17300000000E+03 0. -1.
         -6    1    1    2    0  503  0.13107807781E+02  0.62753127912E+02 -0.57394449606E+03  0.60286901915E+03  0.17300000000E+03 0. -1.
<mgrwt>
<rscale>  2 0.18449599E+03</rscale>
<asrwt>0</asrwt>
<pdfrwt beam="1">  1       21 0.99616975E-02 0.18449599E+03</pdfrwt>
<pdfrwt beam="2">  1       21 0.11655743E+00 0.18449599E+03</pdfrwt>
<totfact> 0.46546125E+04</totfact>
</mgrwt>
</event>
<event>
 4    1  0.4050555E+000  0.2024133E+03  0.7546771E-02  0.1147719E+00
         21   -1    0    0  501  502  0.00000000000E+00  0.00000000000E+00  0.35317654279E+02  0.35317654279E+02  0.00000000000E+00 0.  1.
         21   -1    0    0  502  503 -0.00000000000E+00 -0.00000000000E+00 -0.16391320576E+04  0.16391320576E+04  0.00000000000E+00 0.  1.
          6    1    1    2  501    0  0.10508152691E+03  0.51211785469E-01 -0.34929241782E+03  0.40370326115E+03  0.17300000000E+03 0.  1.
         -6    1    1    2    0  503 -0.10508152691E+03 -0.51211785469E-01 -0.12545219855E+04  0.12707464507E+04  0.17300000000E+03 0.  1.
<mgrwt>
<rscale>  2 0.20241327E+03</rscale>
<asrwt>0</asrwt>
<pdfrwt beam="1">  1       21 0.54334867E-02 0.20241327E+03</pdfrwt>
<pdfrwt beam="2">  1       21 0.25217410E+00 0.20241327E+03</pdfrwt>
<totfact> 0.14947500E+04</totfact>
</mgrwt>
</event>
<event>
 4    1  0.4050555E+000  0.2263695E+03  0.7546771E-02  0.1129221E+00
         21   -1    0    0  503  502  0.00000000000E+00  0.00000000000E+00  0.17303283861E+03  0.17303283861E+03  0.00000000000E+00 0.  1.
         21   -1    0    0  501  503 -0.00000000000E+00 -0.00000000000E+00 -0.34131173830E+03  0.34131173830E+03  0.00000000000E+00 0.  1.
          6    1    1    2  501    0  0.23774173525E+02  0.14404490741E+03 -0.17769047841E+03  0.28777952116E+03  0.17300000000E+03 0.  1.
         -6    1    1    2    0  502 -0.23774173525E+02 -0.14404490741E+03  0.94115787175E+01  0.22656505576E+03  0.17300000000E+03 0.  1.
<mgrwt>
<rscale>  2 0.22636949E+03</rscale>
<asrwt>0</asrwt>
<pdfrwt beam="1">  1       21 0.26620437E-01 0.22636949E+03</pdfrwt>
<pdfrwt beam="2">  1       21 0.52509497E-01 0.22636949E+03</pdfrwt>
<totfact> 0.45448305E+04</totfact>
</mgrwt>
</event>
<event>
 4    1  0.4050555E+000  0.1798008E+03  0.7546771E-02  0.1167996E+00
         21   -1    0    0  501  502  0.00000000000E+00  0.00000000000E+00  0.21632486405E+03  0.21632486405E+03  0.00000000000E+00 0.  1.
         21   -1    0    0  502  503 -0.00000000000E+00 -0.00000000000E+00 -0.15085542017E+03  0.15085542017E+03  0.00000000000E+00 0. -1.
          6    1    1    2  501    0 -0.44571449580E+02  0.20315469247E+02  0.50496350905E+02  0.18675709856E+03  0.17300000000E+03 0. -1.
         -6    1    1    2    0  503  0.44571449580E+02 -0.20315469247E+02  0.14973092978E+02  0.18042318565E+03  0.17300000000E+03 0.  1.
<mgrwt>
<rscale>  2 0.17980081E+03</rscale>
<asrwt>0</asrwt>
<pdfrwt beam="1">  1       21 0.33280748E-01 0.17980081E+03</pdfrwt>
<pdfrwt beam="2">  1       21 0.23208526E-01 0.17980081E+03</pdfrwt>
<totfact> 0.15231552E+05</totfact>
</mgrwt>
</event>
<event>
 4    1  0.4050555E+000  0.2660507E+03  0.7546771E-02  0.1103561E+00
         21   -1    0    0  503  502  0.00000000000E+00  0.00000000000E+00  0.15618647846E+03  0.15618647846E+03  0.00000000000E+00 0.  1.
         21   -1    0    0  501  503 -0.00000000000E+00 -0.00000000000E+00 -0.75877278748E+03  0.75877278748E+03  0.00000000000E+00 0.  1.
          6    1    1    2  501    0  0.16807472903E+03 -0.11227143077E+03 -0.59161286323E+03  0.64868233262E+03  0.17300000000E+03 0.  1.
         -6    1    1    2    0  502 -0.16807472903E+03  0.11227143077E+03 -0.10973445786E+02  0.26627693332E+03  0.17300000000E+03 0.  1.
<mgrwt>
<rscale>  2 0.26605073E+03</rscale>
<asrwt>0</asrwt>
<pdfrwt beam="1">  1       21 0.24028689E-01 0.26605073E+03</pdfrwt>
<pdfrwt beam="2">  1       21 0.11673428E+00 0.26605073E+03</pdfrwt>
<totfact> 0.88083455E+03</totfact>
</mgrwt>
</event>
<event>
 4    1  0.4050555E+000  0.1902246E+03  0.7546771E-02  0.1158259E+00
         21   -1    0    0  503  502  0.00000000000E+00  0.00000000000E+00  0.18583388893E+03  0.18583388893E+03  0.00000000000E+00 0.  1.
         21   -1    0    0  501  503 -0.00000000000E+00 -0.00000000000E+00 -0.38211560836E+03  0.38211560836E+03  0.00000000000E+00 0.  1.
          6    1    1    2  501    0  0.21975370588E+02 -0.75983500223E+02 -0.29700801996E+03  0.35270266959E+03  0.17300000000E+03 0.  1.
         -6    1    1    2    0  502 -0.21975370588E+02  0.75983500223E+02  0.10072630052E+03  0.21524682770E+03  0.17300000000E+03 0.  1.
<mgrwt>
<rscale>  2 0.19022463E+03</rscale>
<asrwt>0</asrwt>
<pdfrwt beam="1">  1       21 0.28589829E-01 0.19022463E+03</pdfrwt>
<pdfrwt beam="2">  1       21 0.58787017E-01 0.19022463E+03</pdfrwt>
<totfact> 0.31719794E+04</totfact>
</mgrwt>
</event>
<event>
 4    1  0.4050555E+000  0.1771925E+03  0.7546771E-02  0.1170548E+00
         21   -1    0    0  503  502  0.00000000000E+00  0.00000000000E+00  0.32278938248E+03  0.32278938248E+03  0.00000000000E+00 0.  1.
         21   -1    0    0  501  503 -0.00000000000E+00 -0.00000000000E+00 -0.11605676520E+03  0.11605676520E+03  0.00000000000E+00 0.  1.
          6    1    1    2  501    0  0.17886623906E+02  0.33885903570E+02  0.15080212748E+02  0.17783306383E+03  0.17300000000E+03 0.  1.
         -6    1    1    2    0  502 -0.17886623906E+02 -0.33885903570E+02  0.19165240454E+03  0.26101308385E+03  0.17300000000E+03 0.  1.
<mgrwt>
<rscale>  2 0.17719251E+03</rscale>
<asrwt>0</asrwt>
<pdfrwt beam="1">  1       21 0.49659905E-01 0.17719251E+03</pdfrwt>
<pdfrwt beam="2">  1       21 0.17854887E-01 0.17719251E+03</pdfrwt>
<totfact> 0.11077551E+05</totfact>
</mgrwt>
</event>
<event>
 4    1  0.4050555E+000  0.1801289E+03  0.7546771E-02  0.1167678E+00
         21   -1    0    0  503  502  0.00000000000E+00  0.00000000000E+00  0.17458325367E+04  0.17458325367E+04  0.00000000000E+00 0. -1.
         21   -1    0    0  501  503 -0.00000000000E+00 -0.00000000000E+00 -0.18889673988E+02  0.18889673988E+02  0.00000000000E+00 0. -1.
          6    1    1    2  501    0  0.17921821153E+02  0.46864035060E+02  0.75142500312E+03  0.77271337814E+03  0.17300000000E+03 0. -1.
         -6    1    1    2    0  502 -0.17921821153E+02 -0.46864035060E+02  0.97551785964E+03  0.99200883259E+03  0.17300000000E+03 0. -1.
<mgrwt>
<rscale>  2 0.18012892E+03</rscale>
<asrwt>0</asrwt>
<pdfrwt beam="1">  1       21 0.26858949E+00 0.18012892E+03</pdfrwt>
<pdfrwt beam="2">  1       21 0.29061051E-02 0.18012892E+03</pdfrwt>
<totfact> 0.34928240E+04</totfact>
</mgrwt>
</event>
<event>
 4    1  0.4050555E+000  0.1961932E+03  0.7546771E-02  0.1152991E+00
         21   -1    0    0  503  502  0.00000000000E+00  0.00000000000E+00  0.57093675798E+02  0.57093675798E+02  0.00000000000E+00 0.  1.
         21   -1    0    0  501  503 -0.00000000000E+00 -0.00000000000E+00 -0.76901741999E+03  0.76901741999E+03  0.00000000000E+00 0. -1.
          6    1    1    2  501    0 -0.86688952111E+02 -0.32369583992E+02 -0.50101135935E+03  0.53805589541E+03  0.17300000000E+03 0. -1.
         -6    1    1    2    0  502  0.86688952111E+02  0.32369583992E+02 -0.21091238484E+03  0.28805520038E+03  0.17300000000E+03 0.  1.
<mgrwt>
<rscale>  2 0.19619318E+03</rscale>
<asrwt>0</asrwt>
<pdfrwt beam="1">  1       21 0.87836430E-02 0.19619318E+03</pdfrwt>
<pdfrwt beam="2">  1       21 0.11831036E+00 0.19619318E+03</pdfrwt>
<totfact> 0.55656146E+04</totfact>
</mgrwt>
</event>
<event>
 4    1  0.4050555E+000  0.2720543E+03  0.7546771E-02  0.1100110E+00
         21   -1    0    0  501  502  0.00000000000E+00  0.00000000000E+00  0.38618045145E+02  0.38618045145E+02  0.00000000000E+00 0.  1.
         21   -1    0    0  502  503 -0.00000000000E+00 -0.00000000000E+00 -0.20763944272E+04  0.20763944272E+04  0.00000000000E+00 0.  1.
          6    1    1    2  501    0  0.17421609716E+03 -0.11718924720E+03 -0.72548059632E+03  0.77481330900E+03  0.17300000000E+03 0.  1.
         -6    1    1    2    0  503 -0.17421609716E+03  0.11718924720E+03 -0.13122957858E+04  0.13401991634E+04  0.17300000000E+03 0.  1.
<mgrwt>
<rscale>  2 0.27205435E+03</rscale>
<asrwt>0</asrwt>
<pdfrwt beam="1">  1       21 0.59412350E-02 0.27205435E+03</pdfrwt>
<pdfrwt beam="2">  1       21 0.31944544E+00 0.27205435E+03</pdfrwt>
<totfact> 0.48782897E+03</totfact>
</mgrwt>
</event>
<event>
 4    1  0.4050555E+000  0.1901998E+03  0.7546771E-02  0.1158281E+00
         21   -1    0    0  501  502  0.00000000000E+00  0.00000000000E+00  0.18363674354E+03  0.18363674354E+03  0.00000000000E+00 0.  1.
         21   -1    0    0  502  503 -0.00000000000E+00 -0.00000000000E+00 -0.19937411674E+03  0.19937411674E+03  0.00000000000E+00 0.  1.
          6    1    1    2  501    0  0.74168237995E+02 -0.27313851802E+02  0.13040105577E+02  0.19064631751E+03  0.17300000000E+03 0.  1.
         -6    1    1    2    0  503 -0.74168237995E+02  0.27313851802E+02 -0.28777478773E+02  0.19236454276E+03  0.17300000000E+03 0.  1.
<mgrwt>
<rscale>  2 0.19019983E+03</rscale>
<asrwt>0</asrwt>
<pdfrwt beam="1">  1       21 0.28251807E-01 0.19019983E+03</pdfrwt>
<pdfrwt beam="2">  1       21 0.30672941E-01 0.19019983E+03</pdfrwt>
<totfact> 0.12230231E+05</totfact>
</mgrwt>
</event>
<event>
 4    1  0.4050555E+000  0.3376792E+03  0.7546771E-02  0.1067789E+00
         21   -1    0    0  501  502  0.00000000000E+00  0.00000000000E+00  0.11776867295E+04  0.11776867295E+04  0.00000000000E+00 0.  1.
         21   -1    0    0  502  503 -0.00000000000E+00 -0.00000000000E+00 -0.11294630717E+03  0.11294630717E+03  0.00000000000E+00 0.  1.
          6    1    1    2  501    0  0.28267468266E+03 -0.64755631257E+02  0.77618644479E+03  0.84645889745E+03  0.17300000000E+03 0.  1.
         -6    1    1    2    0  503 -0.28267468266E+03  0.64755631257E+02  0.28855397753E+03  0.44417413922E+03  0.17300000000E+03 0.  1.
<mgrwt>
<rscale>  2 0.33767924E+03</rscale>
<asrwt>0</asrwt>
<pdfrwt beam="1">  1       21 0.18118256E+00 0.33767924E+03</pdfrwt>
<pdfrwt beam="2">  1       21 0.17376356E-01 0.33767924E+03</pdfrwt>
<totfact> 0.48528678E+03</totfact>
</mgrwt>
</event>
<event>
 4    1  0.4050555E+000  0.1800147E+03  0.7546771E-02  0.1167789E+00
         21   -1    0    0  503  502  0.00000000000E+00  0.00000000000E+00  0.13029072422E+03  0.13029072422E+03  0.00000000000E+00 0. -1.
         21   -1    0    0  501  503 -0.00000000000E+00 -0.00000000000E+00 -0.47384802684E+03  0.47384802684E+03  0.00000000000E+00 0.  1.
          6    1    1    2  501    0 -0.49651971596E+02  0.33102388611E+01 -0.37999106935E+03  0.42047412376E+03  0.17300000000E+03 0.  1.
         -6    1    1    2    0  502  0.49651971596E+02 -0.33102388611E+01  0.36433766728E+02  0.18366462730E+03  0.17300000000E+03 0. -1.
<mgrwt>
<rscale>  2 0.18001465E+03</rscale>
<asrwt>0</asrwt>
<pdfrwt beam="1">  1       21 0.20044727E-01 0.18001465E+03</pdfrwt>
<pdfrwt beam="2">  1       21 0.72899696E-01 0.18001465E+03</pdfrwt>
<totfact> 0.39186680E+04</totfact>
</mgrwt>
</event>
<event>
 4    1  0.4050555E+000  0.3324610E+03  0.7546771E-02  0.1070053E+00
         21   -1    0    0  503  502  0.00000000000E+00  0.00000000000E+00  0.11371946496E+04  0.11371946496E+04  0.00000000000E+00 0.  1.
         21   -1    0    0  501  503 -0.00000000000E+00 -0.00000000000E+00 -0.97432544270E+02  0.97432544270E+02  0.00000000000E+00 0. -1.
          6    1    1    2  501    0 -0.14841630595E+02 -0.28351545873E+03  0.48943726835E+03  0.59167485073E+03  0.17300000000E+03 0. -1.
         -6    1    1    2    0  502  0.14841630595E+02  0.28351545873E+03  0.55032483693E+03  0.64295234309E+03  0.17300000000E+03 0.  1.
<mgrwt>
<rscale>  2 0.33246096E+03</rscale>
<asrwt>0</asrwt>
<pdfrwt beam="1">  1       21 0.17495301E+00 0.33246096E+03</pdfrwt>
<pdfrwt beam="2">  1       21 0.14989623E-01 0.33246096E+03</pdfrwt>
<totfact> 0.70774544E+03</totfact>
</mgrwt>
</event>
<event>
 4    1  0.4050555E+000  0.1989506E+03  0.7546771E-02  0.1150627E+00
         21   -1    0    0  501  502  0.00000000000E+00  0.00000000000E+00  0.16677996494E+03  0.16677996494E+03  0.00000000000E+00 0.  1.
         21   -1    0    0  502  503 -0.00000000000E+00 -0.00000000000E+00 -0.28735621068E+03  0.28735621068E+03  0.00000000000E+00 0.  1.
          6    1    1    2  501    0  0.83351327204E+02  0.52008785149E+02  0.34457345648E+02  0.20191252103E+03  0.17300000000E+03 0.  1.
         -6    1    1    2    0  503 -0.83351327204E+02 -0.52008785149E+02 -0.15503359138E+03  0.25222365459E+03  0.17300000000E+03 0.  1.
<mgrwt>
<rscale>  2 0.19895064E+03</rscale>
<asrwt>0</asrwt>
<pdfrwt beam="1">  1       21 0.25658456E-01 0.19895064E+03</pdfrwt>
<pdfrwt beam="2">  1       21 0.44208648E-01 0.19895064E+03</pdfrwt>
<totfact> 0.70628077E+04</totfact>
</mgrwt>
</event>
<event>
 4    1  0.4050555E+000  0.1962655E+03  0.7546771E-02  0.1152929E+00
         21   -1    0    0  503  502  0.00000000000E+00  0.00000000000E+00  0.15090441844E+03  0.15090441844E+03  0.00000000000E+00 0. -1.
         21   -1    0    0  501  503 -0.00000000000E+00 -0.00000000000E+00 -0.47969010775E+03  0.47969010775E+03  0.00000000000E+00 0. -1.
          6    1    1    2  501    0 -0.15200876644E+02  0.91433458186E+02 -0.38005729859E+03  0.42774255591E+03  0.17300000000E+03 0. -1.
         -6    1    1    2    0  502  0.15200876644E+02 -0.91433458186E+02  0.51271609290E+02  0.20285197028E+03  0.17300000000E+03 0. -1.
<mgrwt>
<rscale>  2 0.19626549E+03</rscale>
<asrwt>0</asrwt>
<pdfrwt beam="1">  1       21 0.23216065E-01 0.19626549E+03</pdfrwt>
<pdfrwt beam="2">  1       21 0.73798476E-01 0.19626549E+03</pdfrwt>
<totfact> 0.28681896E+04</totfact>
</mgrwt>
</event>
<event>
 4    1  0.4050555E+000  0.1915015E+03  0.7546771E-02  0.1157114E+00
         21   -1    0    0  501  502  0.00000000000E+00  0.00000000000E+00  0.29520840067E+02  0.29520840067E+02  0.00000000000E+00 0.  1.
         21   -1    0    0  502  503 -0.00000000000E+00 -0.00000000000E+00 -0.12993301486E+04  0.12993301486E+04  0.00000000000E+00 0.  1.
          6    1    1    2  501    0 -0.75432143528E+02  0.32462392041E+02 -0.49566658800E+03  0.53137386239E+03  0.17300000000E+03 0.  1.
         -6    1    1    2    0  503  0.75432143528E+02 -0.32462392041E+02 -0.77414272049E+03  0.79747712623E+03  0.17300000000E+03 0.  1.
<mgrwt>
<rscale>  2 0.19150148E+03</rscale>
<asrwt>0</asrwt>
<pdfrwt beam="1">  1       21 0.45416694E-02 0.19150148E+03</pdfrwt>
<pdfrwt beam="2">  1       21 0.19989687E+00 0.19150148E+03</pdfrwt>
<totfact> 0.42592830E+04</totfact>
</mgrwt>
</event>
<event>
 4    1  0.4050555E+000  0.2046187E+03  0.7546771E-02  0.1145900E+00
         21   -1    0    0  503  502  0.00000000000E+00  0.00000000000E+00  0.84270510418E+03  0.84270510418E+03  0.00000000000E+00 0. -1.
         21   -1    0    0  501  503 -0.00000000000E+00 -0.00000000000E+00 -0.53889198317E+02  0.53889198317E+02  0.00000000000E+00 0.  1.
          6    1    1    2  501    0 -0.46002157717E+02 -0.99114159693E+02  0.26917539319E+03  0.33811862928E+03  0.17300000000E+03 0.  1.
         -6    1    1    2    0  502  0.46002157717E+02  0.99114159693E+02  0.51964051267E+03  0.55847567322E+03  0.17300000000E+03 0. -1.
<mgrwt>
<rscale>  2 0.20461871E+03</rscale>
<asrwt>0</asrwt>
<pdfrwt beam="1">  1       21 0.12964693E+00 0.20461871E+03</pdfrwt>
<pdfrwt beam="2">  1       21 0.82906465E-02 0.20461871E+03</pdfrwt>
<totfact> 0.48760830E+04</totfact>
</mgrwt>
</event>
<event>
 4    1  0.4050555E+000  0.2519941E+03  0.7546771E-02  0.1112051E+00
         21   -1    0    0  503  502  0.00000000000E+00  0.00000000000E+00  0.76653891842E+03  0.76653891842E+03  0.00000000000E+00 0.  1.
         21   -1    0    0  501  503 -0.00000000000E+00 -0.00000000000E+00 -0.19095253597E+03  0.19095253597E+03  0.00000000000E+00 0.  1.
          6    1    1    2  501    0  0.62525415454E+02  0.17222826549E+03 -0.72435097476E+02  0.26219810518E+03  0.17300000000E+03 0.  1.
         -6    1    1    2    0  502 -0.62525415454E+02 -0.17222826549E+03  0.64802147993E+03  0.69529334921E+03  0.17300000000E+03 0.  1.
<mgrwt>
<rscale>  2 0.25199405E+03</rscale>
<asrwt>0</asrwt>
<pdfrwt beam="1">  1       21 0.11792906E+00 0.25199405E+03</pdfrwt>
<pdfrwt beam="2">  1       21 0.29377314E-01 0.25199405E+03</pdfrwt>
<totfact> 0.58690714E+03</totfact>
</mgrwt>
</event>
<event>
 4    1  0.4050555E+000  0.1905243E+03  0.7546771E-02  0.1157989E+00
         21   -1    0    0  503  502  0.00000000000E+00  0.00000000000E+00  0.78773241960E+03  0.78773241960E+03  0.00000000000E+00 0.  1.
         21   -1    0    0  501  503 -0.00000000000E+00 -0.00000000000E+00 -0.56344933085E+02  0.56344933085E+02  0.00000000000E+00 0. -1.
          6    1    1    2  501    0  0.78436859415E+02  0.14770140499E+02  0.18556554064E+03  0.26595877094E+03  0.17300000000E+03 0. -1.
         -6    1    1    2    0  502 -0.78436859415E+02 -0.14770140499E+02  0.54582194588E+03  0.57811858175E+03  0.17300000000E+03 0.  1.
<mgrwt>
<rscale>  2 0.19052427E+03</rscale>
<asrwt>0</asrwt>
<pdfrwt beam="1">  1       21 0.12118960E+00 0.19052427E+03</pdfrwt>
<pdfrwt beam="2">  1       21 0.86684518E-02 0.19052427E+03</pdfrwt>
<totfact> 0.53818175E+04</totfact>
</mgrwt>
</event>
<event>
 4    1  0.4050555E+000  0.1797929E+03  0.7546771E-02  0.1168004E+00
         21   -1    0    0  503  502  0.00000000000E+00  0.00000000000E+00  0.10629115953E+03  0.10629115953E+03  0.00000000000E+00 0.  1.
         21   -1    0    0  501  503 -0.00000000000E+00 -0.00000000000E+00 -0.67959088609E+03  0.67959088609E+03  0.00000000000E+00 0.  1.
          6    1    1    2  501    0 -0.47241403253E+02 -0.12834512552E+02 -0.57872231974E+03  0.60600742426E+03  0.17300000000E+03 0.  1.
         -6    1    1    2    0  502  0.47241403253E+02  0.12834512552E+02  0.54225931855E+01  0.17987462136E+03  0.17300000000E+03 0.  1.
<mgrwt>
<rscale>  2 0.17979287E+03</rscale>
<asrwt>0</asrwt>
<pdfrwt beam="1">  1       21 0.16352486E-01 0.17979287E+03</pdfrwt>
<pdfrwt beam="2">  1       21 0.10455245E+00 0.17979287E+03</pdfrwt>
<totfact> 0.24920134E+04</totfact>
</mgrwt>
</event>
<event>
 4    1  0.4050555E+000  0.2654465E+03  0.7546771E-02  0.1103914E+00
         21   -1    0    0  501  502  0.00000000000E+00  0.00000000000E+00  0.77288966930E+03  0.77288966930E+03  0.00000000000E+00 0.  1.
         21   -1    0    0  502  503 -0.00000000000E+00 -0.00000000000E+00 -0.11099325466E+03  0.11099325466E+03  0.00000000000E+00 0. -1.
          6    1    1    2  501    0  0.15877829966E+03 -0.12378318834E+03  0.51773222756E+03  0.58181482072E+03  0.17300000000E+03 0.  1.
         -6    1    1    2    0  503 -0.15877829966E+03  0.12378318834E+03  0.14416418708E+03  0.30206810324E+03  0.17300000000E+03 0. -1.
<mgrwt>
<rscale>  2 0.26544647E+03</rscale>
<asrwt>0</asrwt>
<pdfrwt beam="1">  1       21 0.11890610E+00 0.26544647E+03</pdfrwt>
<pdfrwt beam="2">  1       21 0.17075886E-01 0.26544647E+03</pdfrwt>
<totfact> 0.16022068E+04</totfact>
</mgrwt>
</event>
<event>
 4    1  0.4050555E+000  0.2086357E+03  0.7546771E-02  0.1142651E+00
         21   -1    0    0  501  502  0.00000000000E+00  0.00000000000E+00  0.99241026867E+03  0.99241026867E+03  0.00000000000E+00 0.  1.
         21   -1    0    0  502  503 -0.00000000000E+00 -0.00000000000E+00 -0.82600510439E+02  0.82600510439E+02  0.00000000000E+00 0.  1.
          6    1    1    2  501    0 -0.36394134129E+02  0.11079410341E+03  0.82300353501E+03  0.84903691615E+03  0.17300000000E+03 0.  1.
         -6    1    1    2    0  503  0.36394134129E+02 -0.11079410341E+03  0.86806223222E+02  0.22597386296E+03  0.17300000000E+03 0.  1.
<mgrwt>
<rscale>  2 0.20863573E+03</rscale>
<asrwt>0</asrwt>
<pdfrwt beam="1">  1       21 0.15267849E+00 0.20863573E+03</pdfrwt>
<pdfrwt beam="2">  1       21 0.12707772E-01 0.20863573E+03</pdfrwt>
<totfact> 0.14936212E+04</totfact>
</mgrwt>
</event>
<event>
 4    1  0.4050555E+000  0.1970333E+03  0.7546771E-02  0.1152266E+00
         21   -1    0    0  501  502  0.00000000000E+00  0.00000000000E+00  0.36524372706E+02  0.36524372706E+02  0.00000000000E+00 0.  1.
         21   -1    0    0  502  503 -0.00000000000E+00 -0.00000000000E+00 -0.10732141575E+04  0.10732141575E+04  0.00000000000E+00 0. -1.
          6    1    1    2  501    0 -0.16270856400E+02 -0.92889050476E+02 -0.57271451631E+03  0.60565999840E+03  0.17300000000E+03 0. -1.
         -6    1    1    2    0  503  0.16270856400E+02  0.92889050476E+02 -0.46397526850E+03  0.50407853183E+03  0.17300000000E+03 0. -1.
<mgrwt>
<rscale>  2 0.19703329E+03</rscale>
<asrwt>0</asrwt>
<pdfrwt beam="1">  1       21 0.56191349E-02 0.19703329E+03</pdfrwt>
<pdfrwt beam="2">  1       21 0.16510985E+00 0.19703329E+03</pdfrwt>
<totfact> 0.50846612E+04</totfact>
</mgrwt>
</event>
<event>
 4    1  0.4050555E+000  0.1798446E+03  0.7546771E-02  0.1167954E+00
         21   -1    0    0  503  502  0.00000000000E+00  0.00000000000E+00  0.18418585205E+02  0.18418585205E+02  0.00000000000E+00 0.  1.
         21   -1    0    0  501  503 -0.00000000000E+00 -0.00000000000E+00 -0.23860431533E+04  0.23860431533E+04  0.00000000000E+00 0.  1.
          6    1    1    2  501    0 -0.43254528563E+02  0.23326460768E+02 -0.18015645822E+04  0.18105189924E+04  0.17300000000E+03 0.  1.
         -6    1    1    2    0  502  0.43254528563E+02 -0.23326460768E+02 -0.56605998585E+03  0.59394274605E+03  0.17300000000E+03 0.  1.
<mgrwt>
<rscale>  2 0.17984459E+03</rscale>
<asrwt>0</asrwt>
<pdfrwt beam="1">  1       21 0.28336287E-02 0.17984459E+03</pdfrwt>
<pdfrwt beam="2">  1       21 0.36708353E+00 0.17984459E+03</pdfrwt>
<totfact> 0.97815330E+03</totfact>
</mgrwt>
</event>
<event>
 4    1  0.4050555E+000  0.1804194E+03  0.7546771E-02  0.1167398E+00
         21   -1    0    0  501  502  0.00000000000E+00  0.00000000000E+00  0.10705689434E+03  0.10705689434E+03  0.00000000000E+00 0. -1.
         21   -1    0    0  502  503 -0.00000000000E+00 -0.00000000000E+00 -0.37402165611E+03  0.37402165611E+03  0.00000000000E+00 0. -1.
          6    1    1    2  501    0 -0.50950223309E+02 -0.51228881261E+01 -0.29446389270E+02  0.18280661662E+03  0.17300000000E+03 0.  1.
         -6    1    1    2    0  503  0.50950223309E+02  0.51228881261E+01 -0.23751837250E+03  0.29827193383E+03  0.17300000000E+03 0.  1.
<mgrwt>
<rscale>  2 0.18041943E+03</rscale>
<asrwt>0</asrwt>
<pdfrwt beam="1">  1       21 0.16470291E-01 0.18041943E+03</pdfrwt>
<pdfrwt beam="2">  1       21 0.57541794E-01 0.18041943E+03</pdfrwt>
<totfact> 0.94149543E+04</totfact>
</mgrwt>
</event>
<event>
 4    1  0.4050555E+000  0.2043504E+03  0.7546771E-02  0.1146120E+00
         21   -1    0    0  503  502  0.00000000000E+00  0.00000000000E+00  0.20157049007E+03  0.20157049007E+03  0.00000000000E+00 0.  1.
         21   -1    0    0  501  503 -0.00000000000E+00 -0.00000000000E+00 -0.29698974387E+03  0.29698974387E+03  0.00000000000E+00 0. -1.
          6    1    1    2  501    0  0.23046461664E+02 -0.10629641576E+03 -0.18479979549E+03  0.27551775227E+03  0.17300000000E+03 0. -1.
         -6    1    1    2    0  502 -0.23046461664E+02  0.10629641576E+03  0.89380541696E+02  0.22304248168E+03  0.17300000000E+03 0.  1.
<mgrwt>
<rscale>  2 0.20435035E+03</rscale>
<asrwt>0</asrwt>
<pdfrwt beam="1">  1       21 0.31010845E-01 0.20435035E+03</pdfrwt>
<pdfrwt beam="2">  1       21 0.45690730E-01 0.20435035E+03</pdfrwt>
<totfact> 0.45605739E+04</totfact>
</mgrwt>
</event>
<event>
 4    1  0.4050555E+000  0.1869560E+03  0.7546771E-02  0.1161236E+00
         21   -1    0    0  503  502  0.00000000000E+00  0.00000000000E+00  0.38497128678E+03  0.38497128678E+03  0.00000000000E+00 0. -1.
         21   -1    0    0  501  503 -0.00000000000E+00 -0.00000000000E+00 -0.11441719876E+03  0.11441719876E+03  0.00000000000E+00 0. -1.
          6    1    1    2  501    0  0.69110003369E+02  0.15727903278E+02  0.21816535655E+02  0.18822465496E+03  0.17300000000E+03 0. -1.
         -6    1    1    2    0  502 -0.69110003369E+02 -0.15727903278E+02  0.24873755236E+03  0.31116383058E+03  0.17300000000E+03 0. -1.
<mgrwt>
<rscale>  2 0.18695604E+03</rscale>
<asrwt>0</asrwt>
<pdfrwt beam="1">  1       21 0.59226351E-01 0.18695604E+03</pdfrwt>
<pdfrwt beam="2">  1       21 0.17602646E-01 0.18695604E+03</pdfrwt>
<totfact> 0.78135871E+04</totfact>
</mgrwt>
</event>
<event>
 4    1  0.4050555E+000  0.2291156E+03  0.7546771E-02  0.1127264E+00
         21   -1    0    0  501  502  0.00000000000E+00  0.00000000000E+00  0.13620249875E+03  0.13620249875E+03  0.00000000000E+00 0.  1.
         21   -1    0    0  502  503 -0.00000000000E+00 -0.00000000000E+00 -0.41668274253E+03  0.41668274253E+03  0.00000000000E+00 0.  1.
          6    1    1    2  501    0  0.86277622039E+02  0.12296807934E+03 -0.64508635187E+02  0.23802382363E+03  0.17300000000E+03 0.  1.
         -6    1    1    2    0  503 -0.86277622039E+02 -0.12296807934E+03 -0.21597160860E+03  0.31486141765E+03  0.17300000000E+03 0.  1.
<mgrwt>
<rscale>  2 0.22911564E+03</rscale>
<asrwt>0</asrwt>
<pdfrwt beam="1">  1       21 0.20954231E-01 0.22911564E+03</pdfrwt>
<pdfrwt beam="2">  1       21 0.64105037E-01 0.22911564E+03</pdfrwt>
<totfact> 0.46697177E+04</totfact>
</mgrwt>
</event>
<event>
 4    1  0.4050555E+000  0.2187767E+03  0.7546771E-02  0.1134798E+00
         21   -1    0    0  501  502  0.00000000000E+00  0.00000000000E+00  0.18813944475E+03  0.18813944475E+03  0.00000000000E+00 0. -1.
         21   -1    0    0  502  503 -0.00000000000E+00 -0.00000000000E+00 -0.29269920393E+03  0.29269920393E+03  0.00000000000E+00 0.  1.
          6    1    1    2  501    0 -0.50900079066E+02  0.12386861007E+03  0.34683442156E+02  0.22150889772E+03  0.17300000000E+03 0. -1.
         -6    1    1    2    0  503  0.50900079066E+02 -0.12386861007E+03 -0.13924320135E+03  0.25932975096E+03  0.17300000000E+03 0. -1.
<mgrwt>
<rscale>  2 0.21877671E+03</rscale>
<asrwt>0</asrwt>
<pdfrwt beam="1">  1       21 0.28944530E-01 0.21877671E+03</pdfrwt>
<pdfrwt beam="2">  1       21 0.45030646E-01 0.21877671E+03</pdfrwt>
<totfact> 0.53407837E+04</totfact>
</mgrwt>
</event>
<event>
 4    1  0.4050555E+000  0.2199786E+03  0.7546771E-02  0.1133899E+00
         21   -1    0    0  503  502  0.00000000000E+00  0.00000000000E+00  0.64265466189E+03  0.64265466189E+03  0.00000000000E+00 0. -1.
         21   -1    0    0  501  503 -0.00000000000E+00 -0.00000000000E+00 -0.64447138431E+03  0.64447138431E+03  0.00000000000E+00 0. -1.
          6    1    1    2  501    0  0.13473099558E+03  0.17582111179E+02 -0.60570807723E+03  0.64441667159E+03  0.17300000000E+03 0. -1.
         -6    1    1    2    0  502 -0.13473099558E+03 -0.17582111179E+02  0.60389135481E+03  0.64270937461E+03  0.17300000000E+03 0. -1.
<mgrwt>
<rscale>  2 0.21997857E+03</rscale>
<asrwt>0</asrwt>
<pdfrwt beam="1">  1       21 0.98869948E-01 0.21997857E+03</pdfrwt>
<pdfrwt beam="2">  1       21 0.99149444E-01 0.21997857E+03</pdfrwt>
<totfact> 0.68714181E+02</totfact>
</mgrwt>
</event>
<event>
 4    1  0.4050555E+000  0.2213049E+03  0.7546771E-02  0.1132914E+00
         21   -1    0    0  503  502  0.00000000000E+00  0.00000000000E+00  0.12578724407E+03  0.12578724407E+03  0.00000000000E+00 0. -1.
         21   -1    0    0  501  503 -0.00000000000E+00 -0.00000000000E+00 -0.58224535824E+03  0.58224535824E+03  0.00000000000E+00 0. -1.
          6    1    1    2  501    0 -0.13390570744E+03 -0.33408530092E+02 -0.43199224084E+03  0.48537940264E+03  0.17300000000E+03 0.  1.
         -6    1    1    2    0  502  0.13390570744E+03  0.33408530092E+02 -0.24465873332E+02  0.22265319967E+03  0.17300000000E+03 0.  1.
<mgrwt>
<rscale>  2 0.22130492E+03</rscale>
<asrwt>0</asrwt>
<pdfrwt beam="1">  1       21 0.19351884E-01 0.22130492E+03</pdfrwt>
<pdfrwt beam="2">  1       21 0.89576208E-01 0.22130492E+03</pdfrwt>
<totfact> 0.25651575E+04</totfact>
</mgrwt>
</event>
<event>
 4    1  0.4050555E+000  0.1822433E+03  0.7546771E-02  0.1165649E+00
         21   -1    0    0  503  502  0.00000000000E+00  0.00000000000E+00  0.42783901386E+03  0.42783901386E+03  0.00000000000E+00 0.  1.
         21   -1    0    0  501  503 -0.00000000000E+00 -0.00000000000E+00 -0.31000200865E+03  0.31000200865E+03  0.00000000000E+00 0.  1.
          6    1    1    2  501    0  0.17430940413E+02  0.54587479224E+02 -0.26048786686E+03  0.31790967169E+03  0.17300000000E+03 0.  1.
         -6    1    1    2    0  502 -0.17430940413E+02 -0.54587479224E+02  0.37832487207E+03  0.41993135082E+03  0.17300000000E+03 0.  1.
<mgrwt>
<rscale>  2 0.18224333E+03</rscale>
<asrwt>0</asrwt>
<pdfrwt beam="1">  1       21 0.65821387E-01 0.18224333E+03</pdfrwt>
<pdfrwt beam="2">  1       21 0.47692617E-01 0.18224333E+03</pdfrwt>
<totfact> 0.89800042E+03</totfact>
</mgrwt>
</event>
<event>
 4    1  0.4050555E+000  0.2024210E+03  0.7546771E-02  0.1147712E+00
         21   -1    0    0  501  502  0.00000000000E+00  0.00000000000E+00  0.37258717881E+03  0.37258717881E+03  0.00000000000E+00 0. -1.
         21   -1    0    0  502  503 -0.00000000000E+00 -0.00000000000E+00 -0.12264496268E+03  0.12264496268E+03  0.00000000000E+00 0. -1.
          6    1    1    2  501    0 -0.47021664389E+02 -0.93990631056E+02  0.20456644070E+03  0.28778760277E+03  0.17300000000E+03 0. -1.
         -6    1    1    2    0  503  0.47021664389E+02  0.93990631056E+02  0.45375775427E+02  0.20744453872E+03  0.17300000000E+03 0. -1.
<mgrwt>
<rscale>  2 0.20242104E+03</rscale>
<asrwt>0</asrwt>
<pdfrwt beam="1">  1       21 0.57321104E-01 0.20242104E+03</pdfrwt>
<pdfrwt beam="2">  1       21 0.18868456E-01 0.20242104E+03</pdfrwt>
<totfact> 0.73191504E+04</totfact>
</mgrwt>
</event>
<event>
 4    1  0.4050555E+000  0.1751357E+03  0.7546771E-02  0.1172596E+00
         21   -1    0    0  503  502  0.00000000000E+00  0.00000000000E+00  0.68742378221E+03  0.68742378221E+03  0.00000000000E+00 0.  1.
         21   -1    0    0  501  503 -0.00000000000E+00 -0.00000000000E+00 -0.50483726264E+02  0.50483726264E+02  0.00000000000E+00 0.  1.
          6    1    1    2  501    0  0.18858157115E+02  0.19694475033E+02  0.19272183471E+03  0.26041161267E+03  0.17300000000E+03 0.  1.
         -6    1    1    2    0  502 -0.18858157115E+02 -0.19694475033E+02  0.44421822123E+03  0.47749589580E+03  0.17300000000E+03 0.  1.
<mgrwt>
<rscale>  2 0.17513567E+03</rscale>
<asrwt>0</asrwt>
<pdfrwt beam="1">  1       21 0.10575750E+00 0.17513567E+03</pdfrwt>
<pdfrwt beam="2">  1       21 0.77667276E-02 0.17513567E+03</pdfrwt>
<totfact> 0.91415123E+04</totfact>
</mgrwt>
</event>
<event>
 4    1  0.4050555E+000  0.2522384E+03  0.7546771E-02  0.1111898E+00
         21   -1    0    0  501  502  0.00000000000E+00  0.00000000000E+00  0.14210336658E+04  0.14210336658E+04  0.00000000000E+00 0. -1.
         21   -1    0    0  502  503 -0.00000000000E+00 -0.00000000000E+00 -0.45095751345E+02  0.45095751345E+02  0.00000000000E+00 0.  1.
          6    1    1    2  501    0 -0.17953589512E+03 -0.38236881961E+02  0.74996829790E+03  0.79125005191E+03  0.17300000000E+03 0.  1.
         -6    1    1    2    0  503  0.17953589512E+03  0.38236881961E+02  0.62596961653E+03  0.67487936522E+03  0.17300000000E+03 0.  1.
<mgrwt>
<rscale>  2 0.25223837E+03</rscale>
<asrwt>0</asrwt>
<pdfrwt beam="1">  1       21 0.21862053E+00 0.25223837E+03</pdfrwt>
<pdfrwt beam="2">  1       21 0.69378090E-02 0.25223837E+03</pdfrwt>
<totfact> 0.15074246E+04</totfact>
</mgrwt>
</event>
<event>
 4    1  0.4050555E+000  0.2819676E+03  0.7546771E-02  0.1094619E+00
         21   -1    0    0  501  502  0.00000000000E+00  0.00000000000E+00  0.93699439760E+02  0.93699439760E+02  0.00000000000E+00 0. -1.
         21   -1    0    0  502  503 -0.00000000000E+00 -0.00000000000E+00 -0.10825622678E+04  0.10825622678E+04  0.00000000000E+00 0. -1.
          6    1    1    2  501    0  0.98231447803E+02 -0.19981817883E+03 -0.22097008267E+03  0.35823665273E+03  0.17300000000E+03 0. -1.
         -6    1    1    2    0  503 -0.98231447803E+02  0.19981817883E+03 -0.76789274532E+03  0.81802505478E+03  0.17300000000E+03 0. -1.
<mgrwt>
<rscale>  2 0.28196759E+03</rscale>
<asrwt>0</asrwt>
<pdfrwt beam="1">  1       21 0.14415299E-01 0.28196759E+03</pdfrwt>
<pdfrwt beam="2">  1       21 0.16654804E+00 0.28196759E+03</pdfrwt>
<totfact> 0.89648296E+03</totfact>
</mgrwt>
</event>
<event>
 4    1  0.4050555E+000  0.1844840E+03  0.7546771E-02  0.1163533E+00
         21   -1    0    0  503  502  0.00000000000E+00  0.00000000000E+00  0.16923952961E+02  0.16923952961E+02  0.00000000000E+00 0.  1.
         21   -1    0    0  501  503 -0.00000000000E+00 -0.00000000000E+00 -0.20364370026E+04  0.20364370026E+04  0.00000000000E+00 0.  1.
          6    1    1    2  501    0 -0.35718735738E+02 -0.53193156230E+02 -0.89504784796E+03  0.91386267573E+03  0.17300000000E+03 0.  1.
         -6    1    1    2    0  502  0.35718735738E+02  0.53193156230E+02 -0.11244652017E+04  0.11394982798E+04  0.17300000000E+03 0.  1.
<mgrwt>
<rscale>  2 0.18448398E+03</rscale>
<asrwt>0</asrwt>
<pdfrwt beam="1">  1       21 0.26036841E-02 0.18448398E+03</pdfrwt>
<pdfrwt beam="2">  1       21 0.31329811E+00 0.18448398E+03</pdfrwt>
<totfact> 0.23067681E+04</totfact>
</mgrwt>
</event>
<event>
 4    1  0.4050555E+000  0.1822463E+03  0.7546771E-02  0.1165647E+00
         21   -1    0    0  501  502  0.00000000000E+00  0.00000000000E+00  0.26666266736E+03  0.26666266736E+03  0.00000000000E+00 0.  1.
         21   -1    0    0  502  503 -0.00000000000E+00 -0.00000000000E+00 -0.23042090028E+03  0.23042090028E+03  0.00000000000E+00 0.  1.
          6    1    1    2  501    0 -0.36404742220E+02  0.44265011514E+02  0.18658994437E+03  0.26082466111E+03  0.17300000000E+03 0.  1.
         -6    1    1    2    0  503  0.36404742220E+02 -0.44265011514E+02 -0.15034817730E+03  0.23625890654E+03  0.17300000000E+03 0.  1.
<mgrwt>
<rscale>  2 0.18224625E+03</rscale>
<asrwt>0</asrwt>
<pdfrwt beam="1">  1       21 0.41025026E-01 0.18224625E+03</pdfrwt>
<pdfrwt beam="2">  1       21 0.35449369E-01 0.18224625E+03</pdfrwt>
<totfact> 0.44130093E+04</totfact>
</mgrwt>
</event>
<event>
 4    1  0.4050555E+000  0.1942708E+03  0.7546771E-02  0.1154665E+00
         21   -1    0    0  503  502  0.00000000000E+00  0.00000000000E+00  0.32711282177E+03  0.32711282177E+03  0.00000000000E+00 0. -1.
         21   -1    0    0  501  503 -0.00000000000E+00 -0.00000000000E+00 -0.43557394252E+03  0.43557394252E+03  0.00000000000E+00 0. -1.
          6    1    1    2  501    0 -0.74720726119E+02  0.47211844527E+02 -0.38119021929E+03  0.42784007346E+03  0.17300000000E+03 0. -1.
         -6    1    1    2    0  502  0.74720726119E+02 -0.47211844527E+02  0.27272909854E+03  0.33484669084E+03  0.17300000000E+03 0. -1.
<mgrwt>
<rscale>  2 0.19427080E+03</rscale>
<asrwt>0</asrwt>
<pdfrwt beam="1">  1       21 0.50325049E-01 0.19427080E+03</pdfrwt>
<pdfrwt beam="2">  1       21 0.67011376E-01 0.19427080E+03</pdfrwt>
<totfact> 0.76575179E+03</totfact>
</mgrwt>
</event>
<event>
 4    1  0.4050555E+000  0.1742357E+03  0.7546771E-02  0.1173501E+00
         21   -1    0    0  503  502  0.00000000000E+00  0.00000000000E+00  0.43841044380E+03  0.43841044380E+03  0.00000000000E+00 0. -1.
         21   -1    0    0  501  503 -0.00000000000E+00 -0.00000000000E+00 -0.94651816378E+02  0.94651816378E+02  0.00000000000E+00 0. -1.
          6    1    1    2  501    0  0.46703077535E+01  0.20181191396E+02  0.33792709563E+02  0.17748250472E+03  0.17300000000E+03 0. -1.
         -6    1    1    2    0  502 -0.46703077535E+01 -0.20181191396E+02  0.30996591786E+03  0.35557975547E+03  0.17300000000E+03 0. -1.
<mgrwt>
<rscale>  2 0.17423574E+03</rscale>
<asrwt>0</asrwt>
<pdfrwt beam="1">  1       21 0.67447760E-01 0.17423574E+03</pdfrwt>
<pdfrwt beam="2">  1       21 0.14561818E-01 0.17423574E+03</pdfrwt>
<totfact> 0.83875133E+04</totfact>
</mgrwt>
</event>
<event>
 4    1  0.4050555E+000  0.2221979E+03  0.7546771E-02  0.1132255E+00
         21   -1    0    0  501  502  0.00000000000E+00  0.00000000000E+00  0.51520701236E+03  0.51520701236E+03  0.00000000000E+00 0.  1.
         21   -1    0    0  502  503 -0.00000000000E+00 -0.00000000000E+00 -0.96385279614E+02  0.96385279614E+02  0.00000000000E+00 0. -1.
          6    1    1    2  501    0 -0.13354954623E+03  0.40092947297E+02  0.23263595183E+03  0.32170081101E+03  0.17300000000E+03 0.  1.
         -6    1    1    2    0  503  0.13354954623E+03 -0.40092947297E+02  0.18618578091E+03  0.28989148096E+03  0.17300000000E+03 0. -1.
<mgrwt>
<rscale>  2 0.22219794E+03</rscale>
<asrwt>0</asrwt>
<pdfrwt beam="1">  1       21 0.79262615E-01 0.22219794E+03</pdfrwt>
<pdfrwt beam="2">  1       21 0.14828505E-01 0.22219794E+03</pdfrwt>
<totfact> 0.55480534E+04</totfact>
</mgrwt>
</event>
<event>
 4    1  0.4050555E+000  0.1926425E+03  0.7546771E-02  0.1156099E+00
         21   -1    0    0  503  502  0.00000000000E+00  0.00000000000E+00  0.87630793394E+02  0.87630793394E+02  0.00000000000E+00 0. -1.
         21   -1    0    0  501  503 -0.00000000000E+00 -0.00000000000E+00 -0.46867847851E+03  0.46867847851E+03  0.00000000000E+00 0.  1.
          6    1    1    2  501    0 -0.82669264641E+02 -0.18653174880E+02 -0.27688960723E+03  0.33731143301E+03  0.17300000000E+03 0.  1.
         -6    1    1    2    0  502  0.82669264641E+02  0.18653174880E+02 -0.10415807789E+03  0.21899783889E+03  0.17300000000E+03 0.  1.
<mgrwt>
<rscale>  2 0.19264254E+03</rscale>
<asrwt>0</asrwt>
<pdfrwt beam="1">  1       21 0.13481661E-01 0.19264254E+03</pdfrwt>
<pdfrwt beam="2">  1       21 0.72104381E-01 0.19264254E+03</pdfrwt>
<totfact> 0.82619551E+04</totfact>
</mgrwt>
</event>
<event>
 4    1  0.4050555E+000  0.2342357E+03  0.7546771E-02  0.1123694E+00
         21   -1    0    0  503  502  0.00000000000E+00  0.00000000000E+00  0.67662949620E+03  0.67662949620E+03  0.00000000000E+00 0. -1.
         21   -1    0    0  501  503 -0.00000000000E+00 -0.00000000000E+00 -0.82266203916E+02  0.82266203916E+02  0.00000000000E+00 0. -1.
          6    1    1    2  501    0  0.19653404444E+02 -0.15668792700E+03  0.25176679988E+03  0.34387917107E+03  0.17300000000E+03 0. -1.
         -6    1    1    2    0  502 -0.19653404444E+02  0.15668792700E+03  0.34259649241E+03  0.41501652905E+03  0.17300000000E+03 0. -1.
<mgrwt>
<rscale>  2 0.23423570E+03</rscale>
<asrwt>0</asrwt>
<pdfrwt beam="1">  1       21 0.10409684E+00 0.23423570E+03</pdfrwt>
<pdfrwt beam="2">  1       21 0.12656340E-01 0.23423570E+03</pdfrwt>
<totfact> 0.38944117E+04</totfact>
</mgrwt>
</event>
<event>
 4    1  0.4050555E+000  0.2341114E+03  0.7546771E-02  0.1123779E+00
         21   -1    0    0  501  502  0.00000000000E+00  0.00000000000E+00  0.80716746555E+02  0.80716746555E+02  0.00000000000E+00 0.  1.
         21   -1    0    0  502  503 -0.00000000000E+00 -0.00000000000E+00 -0.69304912234E+03  0.69304912234E+03  0.00000000000E+00 0.  1.
          6    1    1    2  501    0 -0.89783838015E+02  0.12968433404E+03 -0.25111888412E+03  0.34332034316E+03  0.17300000000E+03 0.  1.
         -6    1    1    2    0  503  0.89783838015E+02 -0.12968433404E+03 -0.36121349167E+03  0.43044552574E+03  0.17300000000E+03 0.  1.
<mgrwt>
<rscale>  2 0.23411144E+03</rscale>
<asrwt>0</asrwt>
<pdfrwt beam="1">  1       21 0.12417961E-01 0.23411144E+03</pdfrwt>
<pdfrwt beam="2">  1       21 0.10662294E+00 0.23411144E+03</pdfrwt>
<totfact> 0.38035345E+04</totfact>
</mgrwt>
</event>
<event>
 4    1  0.4050555E+000  0.1831941E+03  0.7546771E-02  0.1164747E+00
         21   -1    0    0  501  502  0.00000000000E+00  0.00000000000E+00  0.55901995011E+02  0.55901995011E+02  0.00000000000E+00 0.  1.
         21   -1    0    0  502  503 -0.00000000000E+00 -0.00000000000E+00 -0.13716902091E+04  0.13716902091E+04  0.00000000000E+00 0.  1.
          6    1    1    2  501    0  0.10645591775E+02 -0.59310682447E+02 -0.12262454542E+03  0.22044696599E+03  0.17300000000E+03 0.  1.
         -6    1    1    2    0  503 -0.10645591775E+02  0.59310682447E+02 -0.11931636687E+04  0.12071452381E+04  0.17300000000E+03 0.  1.
<mgrwt>
<rscale>  2 0.18319412E+03</rscale>
<asrwt>0</asrwt>
<pdfrwt beam="1">  1       21 0.86003079E-02 0.18319412E+03</pdfrwt>
<pdfrwt beam="2">  1       21 0.21102924E+00 0.18319412E+03</pdfrwt>
<totfact> 0.12191032E+04</totfact>
</mgrwt>
</event>
<event>
 4    1  0.4050555E+000  0.1759016E+03  0.7546771E-02  0.1171829E+00
         21   -1    0    0  501  502  0.00000000000E+00  0.00000000000E+00  0.36003834431E+02  0.36003834431E+02  0.00000000000E+00 0. -1.
         21   -1    0    0  502  503 -0.00000000000E+00 -0.00000000000E+00 -0.13249455903E+04  0.13249455903E+04  0.00000000000E+00 0. -1.
          6    1    1    2  501    0  0.94775925002E+01 -0.30373477189E+02 -0.24110583828E+03  0.29845166799E+03  0.17300000000E+03 0. -1.
         -6    1    1    2    0  503 -0.94775925002E+01  0.30373477189E+02 -0.10478359176E+04  0.10624977567E+04  0.17300000000E+03 0. -1.
<mgrwt>
<rscale>  2 0.17590160E+03</rscale>
<asrwt>0</asrwt>
<pdfrwt beam="1">  1       21 0.55390505E-02 0.17590160E+03</pdfrwt>
<pdfrwt beam="2">  1       21 0.20383782E+00 0.17590160E+03</pdfrwt>
<totfact> 0.29040786E+04</totfact>
</mgrwt>
</event>
<event>
 4    1  0.4050555E+000  0.2786919E+03  0.7546771E-02  0.1096406E+00
         21   -1    0    0  501  502  0.00000000000E+00  0.00000000000E+00  0.75381117720E+02  0.75381117720E+02  0.00000000000E+00 0.  1.
         21   -1    0    0  502  503 -0.00000000000E+00 -0.00000000000E+00 -0.10588159723E+04  0.10588159723E+04  0.00000000000E+00 0.  1.
          6    1    1    2  501    0  0.21452727737E+03  0.41451613211E+02 -0.58469657561E+03  0.64771851487E+03  0.17300000000E+03 0.  1.
         -6    1    1    2    0  503 -0.21452727737E+03 -0.41451613211E+02 -0.39873827899E+03  0.48647857518E+03  0.17300000000E+03 0.  1.
<mgrwt>
<rscale>  2 0.27869192E+03</rscale>
<asrwt>0</asrwt>
<pdfrwt beam="1">  1       21 0.11597095E-01 0.27869192E+03</pdfrwt>
<pdfrwt beam="2">  1       21 0.16289476E+00 0.27869192E+03</pdfrwt>
<totfact> 0.14171657E+04</totfact>
</mgrwt>
</event>
<event>
 4    1  0.4050555E+000  0.1897538E+03  0.7546771E-02  0.1158684E+00
         21   -1    0    0  501  502  0.00000000000E+00  0.00000000000E+00  0.19724699292E+04  0.19724699292E+04  0.00000000000E+00 0. -1.
         21   -1    0    0  502  503 -0.00000000000E+00 -0.00000000000E+00 -0.54882284021E+02  0.54882284021E+02  0.00000000000E+00 0. -1.
          6    1    1    2  501    0  0.70390884176E+02 -0.33505775891E+02  0.17869042621E+04  0.17969511277E+04  0.17300000000E+03 0. -1.
         -6    1    1    2    0  503 -0.70390884176E+02  0.33505775891E+02  0.13068338317E+03  0.23040108557E+03  0.17300000000E+03 0. -1.
<mgrwt>
<rscale>  2 0.18975382E+03</rscale>
<asrwt>0</asrwt>
<pdfrwt beam="1">  1       21 0.30345686E+00 0.18975382E+03</pdfrwt>
<pdfrwt beam="2">  1       21 0.84434298E-02 0.18975382E+03</pdfrwt>
<totfact> 0.35742168E+03</totfact>
</mgrwt>
</event>
<event>
 4    1  0.4050555E+000  0.1876580E+03  0.7546771E-02  0.1160591E+00
         21   -1    0    0  503  502  0.00000000000E+00  0.00000000000E+00  0.35239566852E+03  0.35239566852E+03  0.00000000000E+00 0.  1.
         21   -1    0    0  501  503 -0.00000000000E+00 -0.00000000000E+00 -0.10549946942E+03  0.10549946942E+03  0.00000000000E+00 0. -1.
          6    1    1    2  501    0 -0.63743007865E+02  0.34976666314E+02  0.70852780822E+02  0.20058827181E+03  0.17300000000E+03 0. -1.
         -6    1    1    2    0  502  0.63743007865E+02 -0.34976666314E+02  0.17604341827E+03  0.25730686613E+03  0.17300000000E+03 0.  1.
<mgrwt>
<rscale>  2 0.18765804E+03</rscale>
<asrwt>0</asrwt>
<pdfrwt beam="1">  1       21 0.54214718E-01 0.18765804E+03</pdfrwt>
<pdfrwt beam="2">  1       21 0.16230688E-01 0.18765804E+03</pdfrwt>
<totfact> 0.10941603E+05</totfact>
</mgrwt>
</event>
<event>
 4    1  0.4050555E+000  0.2310302E+03  0.7546771E-02  0.1125917E+00
         21   -1    0    0  503  502  0.00000000000E+00  0.00000000000E+00  0.56106162989E+02  0.56106162989E+02  0.00000000000E+00 0. -1.
         21   -1    0    0  501  503 -0.00000000000E+00 -0.00000000000E+00 -0.11168955482E+04  0.11168955482E+04  0.00000000000E+00 0.  1.
          6    1    1    2  501    0  0.62681648461E+02 -0.13970306727E+03 -0.75621343164E+03  0.79071719992E+03  0.17300000000E+03 0.  1.
         -6    1    1    2    0  502 -0.62681648461E+02  0.13970306727E+03 -0.30457595355E+03  0.38228451125E+03  0.17300000000E+03 0. -1.
<mgrwt>
<rscale>  2 0.23103016E+03</rscale>
<asrwt>0</asrwt>
<pdfrwt beam="1">  1       21 0.86317175E-02 0.23103016E+03</pdfrwt>
<pdfrwt beam="2">  1       21 0.17183008E+00 0.23103016E+03</pdfrwt>
<totfact> 0.21225863E+04</totfact>
</mgrwt>
</event>
<event>
 4    1  0.4050555E+000  0.1846943E+03  0.7546771E-02  0.1163336E+00
         21   -1    0    0  501  502  0.00000000000E+00  0.00000000000E+00  0.48450588825E+03  0.48450588825E+03  0.00000000000E+00 0. -1.
         21   -1    0    0  502  503 -0.00000000000E+00 -0.00000000000E+00 -0.10852741589E+03  0.10852741589E+03  0.00000000000E+00 0. -1.
          6    1    1    2  501    0  0.83441570811E+01 -0.64135569820E+02  0.36372709924E+03  0.40793308152E+03  0.17300000000E+03 0. -1.
         -6    1    1    2    0  503 -0.83441570811E+01  0.64135569820E+02  0.12251373120E+02  0.18510022263E+03  0.17300000000E+03 0. -1.
<mgrwt>
<rscale>  2 0.18469433E+03</rscale>
<asrwt>0</asrwt>
<pdfrwt beam="1">  1       21 0.74539366E-01 0.18469433E+03</pdfrwt>
<pdfrwt beam="2">  1       21 0.16696526E-01 0.18469433E+03</pdfrwt>
<totfact> 0.52176298E+04</totfact>
</mgrwt>
</event>
<event>
 4    1  0.4050555E+000  0.1844909E+03  0.7546771E-02  0.1163526E+00
         21   -1    0    0  501  502  0.00000000000E+00  0.00000000000E+00  0.41101497853E+02  0.41101497853E+02  0.00000000000E+00 0. -1.
         21   -1    0    0  502  503 -0.00000000000E+00 -0.00000000000E+00 -0.18165731844E+04  0.18165731844E+04  0.00000000000E+00 0.  1.
          6    1    1    2  501    0  0.59069654574E+02 -0.24873025328E+02 -0.20257631443E+03  0.27399645007E+03  0.17300000000E+03 0. -1.
         -6    1    1    2    0  503 -0.59069654574E+02  0.24873025328E+02 -0.15728953721E+04  0.15836782322E+04  0.17300000000E+03 0.  1.
<mgrwt>
<rscale>  2 0.18449090E+03</rscale>
<asrwt>0</asrwt>
<pdfrwt beam="1">  1       21 0.63233082E-02 0.18449090E+03</pdfrwt>
<pdfrwt beam="2">  1       21 0.27947276E+00 0.18449090E+03</pdfrwt>
<totfact> 0.81470242E+03</totfact>
</mgrwt>
</event>
<event>
 4    1  0.4050555E+000  0.3328178E+03  0.7546771E-02  0.1069897E+00
         21   -1    0    0  503  502  0.00000000000E+00  0.00000000000E+00  0.79216191187E+02  0.79216191187E+02  0.00000000000E+00 0. -1.
         21   -1    0    0  501  503 -0.00000000000E+00 -0.00000000000E+00 -0.15410604821E+04  0.15410604821E+04  0.00000000000E+00 0.  1.
          6    1    1    2  501    0 -0.27013148539E+03 -0.88699927006E+02 -0.97750289943E+03  0.10326081613E+04  0.17300000000E+03 0.  1.
         -6    1    1    2    0  502  0.27013148539E+03  0.88699927006E+02 -0.48434139150E+03  0.58766851198E+03  0.17300000000E+03 0. -1.
<mgrwt>
<rscale>  2 0.33281781E+03</rscale>
<asrwt>0</asrwt>
<pdfrwt beam="1">  1       21 0.12187107E-01 0.33281781E+03</pdfrwt>
<pdfrwt beam="2">  1       21 0.23708622E+00 0.33281781E+03</pdfrwt>
<totfact> 0.40583335E+03</totfact>
</mgrwt>
</event>
<event>
 4    1  0.4050555E+000  0.1798843E+03  0.7546771E-02  0.1167915E+00
         21   -1    0    0  501  502  0.00000000000E+00  0.00000000000E+00  0.13762428800E+04  0.13762428800E+04  0.00000000000E+00 0. -1.
         21   -1    0    0  502  503 -0.00000000000E+00 -0.00000000000E+00 -0.29467254504E+02  0.29467254504E+02  0.00000000000E+00 0. -1.
          6    1    1    2  501    0  0.47197216501E+02  0.14204938433E+02  0.98935539828E+03  0.10055756867E+04  0.17300000000E+03 0. -1.
         -6    1    1    2    0  503 -0.47197216501E+02 -0.14204938433E+02  0.35742022725E+03  0.40013444786E+03  0.17300000000E+03 0. -1.
<mgrwt>
<rscale>  2 0.17988429E+03</rscale>
<asrwt>0</asrwt>
<pdfrwt beam="1">  1       21 0.21172962E+00 0.17988429E+03</pdfrwt>
<pdfrwt beam="2">  1       21 0.45334248E-02 0.17988429E+03</pdfrwt>
<totfact> 0.36266314E+04</totfact>
</mgrwt>
</event>
<event>
 4    1  0.4050555E+000  0.1813645E+03  0.7546771E-02  0.1166489E+00
         21   -1    0    0  503  502  0.00000000000E+00  0.00000000000E+00  0.40383960727E+03  0.40383960727E+03  0.00000000000E+00 0.  1.
         21   -1    0    0  501  503 -0.00000000000E+00 -0.00000000000E+00 -0.13738425633E+03  0.13738425633E+03  0.00000000000E+00 0.  1.
          6    1    1    2  501    0  0.17194941233E+02  0.51656631403E+02 -0.39441234366E+02  0.18560356823E+03  0.17300000000E+03 0.  1.
         -6    1    1    2    0  502 -0.17194941233E+02 -0.51656631403E+02  0.30589658531E+03  0.35562029536E+03  0.17300000000E+03 0.  1.
<mgrwt>
<rscale>  2 0.18136448E+03</rscale>
<asrwt>0</asrwt>
<pdfrwt beam="1">  1       21 0.62129170E-01 0.18136448E+03</pdfrwt>
<pdfrwt beam="2">  1       21 0.21136040E-01 0.18136448E+03</pdfrwt>
<totfact> 0.50299948E+04</totfact>
</mgrwt>
</event>
<event>
 4    1  0.4050555E+000  0.2210034E+03  0.7546771E-02  0.1133137E+00
         21   -1    0    0  501  502  0.00000000000E+00  0.00000000000E+00  0.81915226725E+03  0.81915226725E+03  0.00000000000E+00 0. -1.
         21   -1    0    0  502  503 -0.00000000000E+00 -0.00000000000E+00 -0.68235467382E+02  0.68235467382E+02  0.00000000000E+00 0. -1.
          6    1    1    2  501    0 -0.60546593913E+02  0.12348130409E+03  0.53306492687E+03  0.57706216195E+03  0.17300000000E+03 0. -1.
         -6    1    1    2    0  503  0.60546593913E+02 -0.12348130409E+03  0.21785187300E+03  0.31032557268E+03  0.17300000000E+03 0. -1.
<mgrwt>
<rscale>  2 0.22100344E+03</rscale>
<asrwt>0</asrwt>
<pdfrwt beam="1">  1       21 0.12602342E+00 0.22100344E+03</pdfrwt>
<pdfrwt beam="2">  1       21 0.10497765E-01 0.22100344E+03</pdfrwt>
<totfact> 0.34250507E+04</totfact>
</mgrwt>
</event>
<event>
 4    1  0.4050555E+000  0.2579234E+03  0.7546771E-02  0.1108397E+00
         21   -1    0    0  501  502  0.00000000000E+00  0.00000000000E+00  0.79371416839E+02  0.79371416839E+02  0.00000000000E+00 0. -1.
         21   -1    0    0  502  503 -0.00000000000E+00 -0.00000000000E+00 -0.84013370302E+03  0.84013370302E+03  0.00000000000E+00 0. -1.
          6    1    1    2  501    0  0.12910727673E+03  0.14116220508E+03 -0.35799155913E+03  0.44122830083E+03  0.17300000000E+03 0. -1.
         -6    1    1    2    0  503 -0.12910727673E+03 -0.14116220508E+03 -0.40277072705E+03  0.47827681902E+03  0.17300000000E+03 0. -1.
<mgrwt>
<rscale>  2 0.25792335E+03</rscale>
<asrwt>0</asrwt>
<pdfrwt beam="1">  1       21 0.12210988E-01 0.25792335E+03</pdfrwt>
<pdfrwt beam="2">  1       21 0.12925133E+00 0.25792335E+03</pdfrwt>
<totfact> 0.24052785E+04</totfact>
</mgrwt>
</event>
<event>
 4    1  0.4050555E+000  0.1886732E+03  0.7546771E-02  0.1159664E+00
         21   -1    0    0  501  502  0.00000000000E+00  0.00000000000E+00  0.43785524654E+02  0.43785524654E+02  0.00000000000E+00 0.  1.
         21   -1    0    0  502  503 -0.00000000000E+00 -0.00000000000E+00 -0.11347566606E+04  0.11347566606E+04  0.00000000000E+00 0.  1.
          6    1    1    2  501    0 -0.66918370741E+02 -0.34503588652E+02 -0.23170318987E+03  0.29880417361E+03  0.17300000000E+03 0.  1.
         -6    1    1    2    0  503  0.66918370741E+02  0.34503588652E+02 -0.85926794611E+03  0.87973801168E+03  0.17300000000E+03 0.  1.
<mgrwt>
<rscale>  2 0.18867317E+03</rscale>
<asrwt>0</asrwt>
<pdfrwt beam="1">  1       21 0.67362341E-02 0.18867317E+03</pdfrwt>
<pdfrwt beam="2">  1       21 0.17457796E+00 0.18867317E+03</pdfrwt>
<totfact> 0.32127336E+04</totfact>
</mgrwt>
</event>
<event>
 4    1  0.4050555E+000  0.2866936E+03  0.7546771E-02  0.1092088E+00
         21   -1    0    0  501  502  0.00000000000E+00  0.00000000000E+00  0.24207915950E+03  0.24207915950E+03  0.00000000000E+00 0. -1.
         21   -1    0    0  502  503 -0.00000000000E+00 -0.00000000000E+00 -0.37230345443E+03  0.37230345443E+03  0.00000000000E+00 0.  1.
          6    1    1    2  501    0 -0.40545915045E+02  0.22498939650E+03  0.26030110066E+02  0.28787283025E+03  0.17300000000E+03 0. -1.
         -6    1    1    2    0  503  0.40545915045E+02 -0.22498939650E+03 -0.15625440500E+03  0.32650978369E+03  0.17300000000E+03 0.  1.
<mgrwt>
<rscale>  2 0.28669356E+03</rscale>
<asrwt>0</asrwt>
<pdfrwt beam="1">  1       21 0.37242948E-01 0.28669356E+03</pdfrwt>
<pdfrwt beam="2">  1       21 0.57277454E-01 0.28669356E+03</pdfrwt>
<totfact> 0.18964135E+04</totfact>
</mgrwt>
</event>
<event>
 4    1  0.4050555E+000  0.1915053E+03  0.7546771E-02  0.1157111E+00
         21   -1    0    0  503  502  0.00000000000E+00  0.00000000000E+00  0.90530565902E+03  0.90530565902E+03  0.00000000000E+00 0.  1.
         21   -1    0    0  501  503 -0.00000000000E+00 -0.00000000000E+00 -0.46107312597E+02  0.46107312597E+02  0.00000000000E+00 0. -1.
          6    1    1    2  501    0  0.81414129497E+02  0.10818248574E+02  0.26385876511E+03  0.32603027913E+03  0.17300000000E+03 0. -1.
         -6    1    1    2    0  502 -0.81414129497E+02 -0.10818248574E+02  0.59533958131E+03  0.62538269249E+03  0.17300000000E+03 0.  1.
<mgrwt>
<rscale>  2 0.19150534E+03</rscale>
<asrwt>0</asrwt>
<pdfrwt beam="1">  1       21 0.13927778E+00 0.19150534E+03</pdfrwt>
<pdfrwt beam="2">  1       21 0.70934334E-02 0.19150534E+03</pdfrwt>
<totfact> 0.53647350E+04</totfact>
</mgrwt>
</event>
<event>
 4    1  0.4050555E+000  0.2812053E+03  0.7546771E-02  0.1095032E+00
         21   -1    0    0  503  502  0.00000000000E+00  0.00000000000E+00  0.78679850728E+03  0.78679850728E+03  0.00000000000E+00 0.  1.
         21   -1    0    0  501  503 -0.00000000000E+00 -0.00000000000E+00 -0.11281382706E+03  0.11281382706E+03  0.00000000000E+00 0. -1.
          6    1    1    2  501    0  0.20247655571E+03 -0.90280930764E+02  0.18840900392E+03  0.33848833780E+03  0.17300000000E+03 0. -1.
         -6    1    1    2    0  502 -0.20247655571E+03  0.90280930764E+02  0.48557567630E+03  0.56112399653E+03  0.17300000000E+03 0.  1.
<mgrwt>
<rscale>  2 0.28120527E+03</rscale>
<asrwt>0</asrwt>
<pdfrwt beam="1">  1       21 0.12104592E+00 0.28120527E+03</pdfrwt>
<pdfrwt beam="2">  1       21 0.17355974E-01 0.28120527E+03</pdfrwt>
<totfact> 0.14750362E+04</totfact>
</mgrwt>
</event>
<event>
 4    1  0.4050555E+000  0.2099282E+03  0.7546771E-02  0.1141623E+00
         21   -1    0    0  503  502  0.00000000000E+00  0.00000000000E+00  0.57460532523E+03  0.57460532523E+03  0.00000000000E+00 0. -1.
         21   -1    0    0  501  503 -0.00000000000E+00 -0.00000000000E+00 -0.82557192519E+02  0.82557192519E+02  0.00000000000E+00 0.  1.
          6    1    1    2  501    0 -0.23336820823E+02 -0.11660284606E+03  0.15847233986E+03  0.26302721041E+03  0.17300000000E+03 0.  1.
         -6    1    1    2    0  502  0.23336820823E+02  0.11660284606E+03  0.33357579285E+03  0.39413530734E+03  0.17300000000E+03 0. -1.
<mgrwt>
<rscale>  2 0.20992816E+03</rscale>
<asrwt>0</asrwt>
<pdfrwt beam="1">  1       21 0.88400817E-01 0.20992816E+03</pdfrwt>
<pdfrwt beam="2">  1       21 0.12701107E-01 0.20992816E+03</pdfrwt>
<totfact> 0.57555251E+04</totfact>
</mgrwt>
</event>
<event>
 4    1  0.4050555E+000  0.1765339E+03  0.7546771E-02  0.1171200E+00
         21   -1    0    0  501  502  0.00000000000E+00  0.00000000000E+00  0.11762171005E+03  0.11762171005E+03  0.00000000000E+00 0. -1.
         21   -1    0    0  502  503 -0.00000000000E+00 -0.00000000000E+00 -0.10636774800E+04  0.10636774800E+04  0.00000000000E+00 0. -1.
          6    1    1    2  501    0  0.35102377038E+02 -0.17423033895E+01  0.38799424425E+02  0.18074735912E+03  0.17300000000E+03 0. -1.
         -6    1    1    2    0  503 -0.35102377038E+02  0.17423033895E+01 -0.98485519439E+03  0.10005518309E+04  0.17300000000E+03 0. -1.
<mgrwt>
<rscale>  2 0.17653388E+03</rscale>
<asrwt>0</asrwt>
<pdfrwt beam="1">  1       21 0.18095647E-01 0.17653388E+03</pdfrwt>
<pdfrwt beam="2">  1       21 0.16364269E+00 0.17653388E+03</pdfrwt>
<totfact> 0.66746774E+03</totfact>
</mgrwt>
</event>
<event>
 4    1  0.4050555E+000  0.2068595E+03  0.7546771E-02  0.1144077E+00
         21   -1    0    0  503  502  0.00000000000E+00  0.00000000000E+00  0.66308790953E+03  0.66308790953E+03  0.00000000000E+00 0. -1.
         21   -1    0    0  501  503 -0.00000000000E+00 -0.00000000000E+00 -0.69467339617E+02  0.69467339617E+02  0.00000000000E+00 0. -1.
          6    1    1    2  501    0 -0.77986877589E+02  0.82340093647E+02  0.19918813320E+03  0.28717025700E+03  0.17300000000E+03 0. -1.
         -6    1    1    2    0  502  0.77986877589E+02 -0.82340093647E+02  0.39443243671E+03  0.44538499214E+03  0.17300000000E+03 0. -1.
<mgrwt>
<rscale>  2 0.20685948E+03</rscale>
<asrwt>0</asrwt>
<pdfrwt beam="1">  1       21 0.10201352E+00 0.20685948E+03</pdfrwt>
<pdfrwt beam="2">  1       21 0.10687283E-01 0.20685948E+03</pdfrwt>
<totfact> 0.56074446E+04</totfact>
</mgrwt>
</event>
<event>
 4    1  0.4050555E+000  0.2137157E+03  0.7546771E-02  0.1138657E+00
         21   -1    0    0  503  502  0.00000000000E+00  0.00000000000E+00  0.30740149116E+03  0.30740149116E+03  0.00000000000E+00 0.  1.
         21   -1    0    0  501  503 -0.00000000000E+00 -0.00000000000E+00 -0.19291646487E+03  0.19291646487E+03  0.00000000000E+00 0.  1.
          6    1    1    2  501    0  0.42000391933E+02  0.11824275458E+03 -0.62680167634E+02  0.22271772572E+03  0.17300000000E+03 0.  1.
         -6    1    1    2    0  502 -0.42000391933E+02 -0.11824275458E+03  0.17716519392E+03  0.27760023031E+03  0.17300000000E+03 0.  1.
<mgrwt>
<rscale>  2 0.21371566E+03</rscale>
<asrwt>0</asrwt>
<pdfrwt beam="1">  1       21 0.47292537E-01 0.21371566E+03</pdfrwt>
<pdfrwt beam="2">  1       21 0.29679456E-01 0.21371566E+03</pdfrwt>
<totfact> 0.46066987E+04</totfact>
</mgrwt>
</event>
<event>
 4    1  0.4050555E+000  0.1963279E+03  0.7546771E-02  0.1152875E+00
         21   -1    0    0  501  502  0.00000000000E+00  0.00000000000E+00  0.10043629305E+04  0.10043629305E+04  0.00000000000E+00 0. -1.
         21   -1    0    0  502  503 -0.00000000000E+00 -0.00000000000E+00 -0.56064973837E+02  0.56064973837E+02  0.00000000000E+00 0. -1.
          6    1    1    2  501    0 -0.29699240584E+02  0.87940846689E+02  0.77196079354E+03  0.79653506149E+03  0.17300000000E+03 0. -1.
         -6    1    1    2    0  503  0.29699240584E+02 -0.87940846689E+02  0.17633716310E+03  0.26389284283E+03  0.17300000000E+03 0. -1.
<mgrwt>
<rscale>  2 0.19632788E+03</rscale>
<asrwt>0</asrwt>
<pdfrwt beam="1">  1       21 0.15451736E+00 0.19632788E+03</pdfrwt>
<pdfrwt beam="2">  1       21 0.86253814E-02 0.19632788E+03</pdfrwt>
<totfact> 0.29014080E+04</totfact>
</mgrwt>
</event>
<event>
 4    1  0.4050555E+000  0.2093979E+03  0.7546771E-02  0.1142044E+00
         21   -1    0    0  503  502  0.00000000000E+00  0.00000000000E+00  0.22124361406E+04  0.22124361406E+04  0.00000000000E+00 0. -1.
         21   -1    0    0  501  503 -0.00000000000E+00 -0.00000000000E+00 -0.26632185702E+02  0.26632185702E+02  0.00000000000E+00 0.  1.
          6    1    1    2  501    0  0.86452139563E+02 -0.80277647481E+02  0.52663587482E+03  0.56673875619E+03  0.17300000000E+03 0.  1.
         -6    1    1    2    0  502 -0.86452139563E+02  0.80277647481E+02  0.16591680800E+04  0.16723295701E+04  0.17300000000E+03 0. -1.
<mgrwt>
<rscale>  2 0.20939788E+03</rscale>
<asrwt>0</asrwt>
<pdfrwt beam="1">  1       21 0.34037465E+00 0.20939788E+03</pdfrwt>
<pdfrwt beam="2">  1       21 0.40972611E-02 0.20939788E+03</pdfrwt>
<totfact> 0.73532919E+03</totfact>
</mgrwt>
</event>
<event>
 4    1  0.4050555E+000  0.1747492E+03  0.7546771E-02  0.1172984E+00
         21   -1    0    0  501  502  0.00000000000E+00  0.00000000000E+00  0.65885123908E+02  0.65885123908E+02  0.00000000000E+00 0.  1.
         21   -1    0    0  502  503 -0.00000000000E+00 -0.00000000000E+00 -0.77168012287E+03  0.77168012287E+03  0.00000000000E+00 0.  1.
          6    1    1    2  501    0 -0.22909477231E+02 -0.91336715137E+01 -0.88244077010E+02  0.19576589394E+03  0.17300000000E+03 0.  1.
         -6    1    1    2    0  503  0.22909477231E+02  0.91336715137E+01 -0.61755092196E+03  0.64179935284E+03  0.17300000000E+03 0.  1.
<mgrwt>
<rscale>  2 0.17474916E+03</rscale>
<asrwt>0</asrwt>
<pdfrwt beam="1">  1       21 0.10136173E-01 0.17474916E+03</pdfrwt>
<pdfrwt beam="2">  1       21 0.11872002E+00 0.17474916E+03</pdfrwt>
<totfact> 0.43386179E+04</totfact>
</mgrwt>
</event>
<event>
 4    1  0.4050555E+000  0.2496393E+03  0.7546771E-02  0.1113533E+00
         21   -1    0    0  501  502  0.00000000000E+00  0.00000000000E+00  0.14570340992E+04  0.14570340992E+04  0.00000000000E+00 0.  1.
         21   -1    0    0  502  503 -0.00000000000E+00 -0.00000000000E+00 -0.46116487178E+02  0.46116487178E+02  0.00000000000E+00 0. -1.
          6    1    1    2  501    0 -0.42160196030E+01  0.17992499832E+03  0.90786819763E+03  0.94156489108E+03  0.17300000000E+03 0.  1.
         -6    1    1    2    0  503  0.42160196030E+01 -0.17992499832E+03  0.50304941436E+03  0.56158569527E+03  0.17300000000E+03 0.  1.
<mgrwt>
<rscale>  2 0.24963930E+03</rscale>
<asrwt>0</asrwt>
<pdfrwt beam="1">  1       21 0.22415906E+00 0.24963930E+03</pdfrwt>
<pdfrwt beam="2">  1       21 0.70948453E-02 0.24963930E+03</pdfrwt>
<totfact> 0.13419262E+04</totfact>
</mgrwt>
</event>
<event>
 4    1  0.4050555E+000  0.3907542E+03  0.7546771E-02  0.1047029E+00
         21   -1    0    0  503  502  0.00000000000E+00  0.00000000000E+00  0.77365106553E+02  0.77365106553E+02  0.00000000000E+00 0. -1.
         21   -1    0    0  501  503 -0.00000000000E+00 -0.00000000000E+00 -0.30932214623E+04  0.30932214623E+04  0.00000000000E+00 0.  1.
          6    1    1    2  501    0  0.34443437441E+03  0.64224437800E+02 -0.24616837906E+04  0.24925039422E+04  0.17300000000E+03 0.  1.
         -6    1    1    2    0  502 -0.34443437441E+03 -0.64224437800E+02 -0.55417256513E+03  0.67808262670E+03  0.17300000000E+03 0. -1.
<mgrwt>
<rscale>  2 0.39075416E+03</rscale>
<asrwt>0</asrwt>
<pdfrwt beam="1">  1       21 0.11902326E-01 0.39075416E+03</pdfrwt>
<pdfrwt beam="2">  1       21 0.47588016E+00 0.39075416E+03</pdfrwt>
<totfact> 0.13046497E+02</totfact>
</mgrwt>
</event>
<event>
 4    1  0.4050555E+000  0.2052032E+03  0.7546771E-02  0.1145422E+00
         21   -1    0    0  501  502  0.00000000000E+00  0.00000000000E+00  0.73087645242E+02  0.73087645242E+02  0.00000000000E+00 0.  1.
         21   -1    0    0  502  503 -0.00000000000E+00 -0.00000000000E+00 -0.16796090541E+04  0.16796090541E+04  0.00000000000E+00 0.  1.
          6    1    1    2  501    0 -0.23939736067E+01  0.11033421956E+03 -0.92941302832E+02  0.22526974251E+03  0.17300000000E+03 0.  1.
         -6    1    1    2    0  503  0.23939736067E+01 -0.11033421956E+03 -0.15135801061E+04  0.15274269569E+04  0.17300000000E+03 0.  1.
<mgrwt>
<rscale>  2 0.20520324E+03</rscale>
<asrwt>0</asrwt>
<pdfrwt beam="1">  1       21 0.11244255E-01 0.20520324E+03</pdfrwt>
<pdfrwt beam="2">  1       21 0.25840136E+00 0.20520324E+03</pdfrwt>
<totfact> 0.38608978E+03</totfact>
</mgrwt>
</event>
<event>
 4    1  0.4050555E+000  0.1857592E+03  0.7546771E-02  0.1162343E+00
         21   -1    0    0  501  502  0.00000000000E+00  0.00000000000E+00  0.86558673534E+02  0.86558673534E+02  0.00000000000E+00 0.  1.
         21   -1    0    0  502  503 -0.00000000000E+00 -0.00000000000E+00 -0.74930358840E+03  0.74930358840E+03  0.00000000000E+00 0.  1.
          6    1    1    2  501    0 -0.49064488476E+02 -0.46585102663E+02 -0.45471365608E+02  0.19124366894E+03  0.17300000000E+03 0.  1.
         -6    1    1    2    0  503  0.49064488476E+02  0.46585102663E+02 -0.61727354926E+03  0.64461859299E+03  0.17300000000E+03 0.  1.
<mgrwt>
<rscale>  2 0.18575924E+03</rscale>
<asrwt>0</asrwt>
<pdfrwt beam="1">  1       21 0.13316719E-01 0.18575924E+03</pdfrwt>
<pdfrwt beam="2">  1       21 0.11527747E+00 0.18575924E+03</pdfrwt>
<totfact> 0.28481887E+04</totfact>
</mgrwt>
</event>
<event>
 4    1  0.4050555E+000  0.2222706E+03  0.7546771E-02  0.1132202E+00
         21   -1    0    0  503  502  0.00000000000E+00  0.00000000000E+00  0.19037025245E+03  0.19037025245E+03  0.00000000000E+00 0. -1.
         21   -1    0    0  501  503 -0.00000000000E+00 -0.00000000000E+00 -0.49660669458E+03  0.49660669458E+03  0.00000000000E+00 0. -1.
          6    1    1    2  501    0  0.11182524131E+03 -0.83488415163E+02 -0.39045376459E+03  0.44928648137E+03  0.17300000000E+03 0. -1.
         -6    1    1    2    0  502 -0.11182524131E+03  0.83488415163E+02  0.84217322458E+02  0.23769046565E+03  0.17300000000E+03 0. -1.
<mgrwt>
<rscale>  2 0.22227056E+03</rscale>
<asrwt>0</asrwt>
<pdfrwt beam="1">  1       21 0.29287732E-01 0.22227056E+03</pdfrwt>
<pdfrwt beam="2">  1       21 0.76401028E-01 0.22227056E+03</pdfrwt>
<totfact> 0.16730414E+04</totfact>
</mgrwt>
</event>
<event>
 4    1  0.4050555E+000  0.1740926E+03  0.7546771E-02  0.1173646E+00
         21   -1    0    0  503  502  0.00000000000E+00  0.00000000000E+00  0.34322124729E+03  0.34322124729E+03  0.00000000000E+00 0. -1.
         21   -1    0    0  501  503 -0.00000000000E+00 -0.00000000000E+00 -0.11045039957E+03  0.11045039957E+03  0.00000000000E+00 0. -1.
          6    1    1    2  501    0  0.16232439365E+02  0.10757823579E+02  0.14814888960E+02  0.17472178969E+03  0.17300000000E+03 0. -1.
         -6    1    1    2    0  502 -0.16232439365E+02 -0.10757823579E+02  0.21795595877E+03  0.27894985718E+03  0.17300000000E+03 0. -1.
<mgrwt>
<rscale>  2 0.17409257E+03</rscale>
<asrwt>0</asrwt>
<pdfrwt beam="1">  1       21 0.52803268E-01 0.17409257E+03</pdfrwt>
<pdfrwt beam="2">  1       21 0.16992369E-01 0.17409257E+03</pdfrwt>
<totfact> 0.10687383E+05</totfact>
</mgrwt>
</event>
<event>
 4    1  0.4050555E+000  0.2565261E+03  0.7546771E-02  0.1109249E+00
         21   -1    0    0  501  502  0.00000000000E+00  0.00000000000E+00  0.12356786344E+03  0.12356786344E+03  0.00000000000E+00 0.  1.
         21   -1    0    0  502  503 -0.00000000000E+00 -0.00000000000E+00 -0.82842359454E+03  0.82842359454E+03  0.00000000000E+00 0. -1.
          6    1    1    2  501    0 -0.14044147255E+03  0.12709379313E+03 -0.67960492992E+02  0.26537571116E+03  0.17300000000E+03 0.  1.
         -6    1    1    2    0  503  0.14044147255E+03 -0.12709379313E+03 -0.63689523811E+03  0.68661574683E+03  0.17300000000E+03 0. -1.
<mgrwt>
<rscale>  2 0.25652610E+03</rscale>
<asrwt>0</asrwt>
<pdfrwt beam="1">  1       21 0.19010440E-01 0.25652610E+03</pdfrwt>
<pdfrwt beam="2">  1       21 0.12744979E+00 0.25652610E+03</pdfrwt>
<totfact> 0.11067082E+04</totfact>
</mgrwt>
</event>
<event>
 4    1  0.4050555E+000  0.1929152E+03  0.7546771E-02  0.1155858E+00
         21   -1    0    0  501  502  0.00000000000E+00  0.00000000000E+00  0.19650127416E+03  0.19650127416E+03  0.00000000000E+00 0. -1.
         21   -1    0    0  502  503 -0.00000000000E+00 -0.00000000000E+00 -0.21727824175E+03  0.21727824175E+03  0.00000000000E+00 0. -1.
          6    1    1    2  501    0 -0.39087922069E+02 -0.75890761768E+02 -0.84503445890E+02  0.21061126689E+03  0.17300000000E+03 0. -1.
         -6    1    1    2    0  503  0.39087922069E+02  0.75890761768E+02  0.63726478295E+02  0.20316824902E+03  0.17300000000E+03 0. -1.
<mgrwt>
<rscale>  2 0.19291520E+03</rscale>
<asrwt>0</asrwt>
<pdfrwt beam="1">  1       21 0.30230965E-01 0.19291520E+03</pdfrwt>
<pdfrwt beam="2">  1       21 0.33427422E-01 0.19291520E+03</pdfrwt>
<totfact> 0.90479972E+04</totfact>
</mgrwt>
</event>
<event>
 4    1  0.4050555E+000  0.2331365E+03  0.7546771E-02  0.1124451E+00
         21   -1    0    0  501  502  0.00000000000E+00  0.00000000000E+00  0.65015924445E+02  0.65015924445E+02  0.00000000000E+00 0.  1.
         21   -1    0    0  502  503 -0.00000000000E+00 -0.00000000000E+00 -0.18661008076E+04  0.18661008076E+04  0.00000000000E+00 0. -1.
          6    1    1    2  501    0 -0.11306443046E+03  0.10788912324E+03 -0.18315616604E+03  0.29647733388E+03  0.17300000000E+03 0.  1.
         -6    1    1    2    0  503  0.11306443046E+03 -0.10788912324E+03 -0.16179287172E+04  0.16346393982E+04  0.17300000000E+03 0. -1.
<mgrwt>
<rscale>  2 0.23313650E+03</rscale>
<asrwt>0</asrwt>
<pdfrwt beam="1">  1       21 0.10002451E-01 0.23313650E+03</pdfrwt>
<pdfrwt beam="2">  1       21 0.28709241E+00 0.23313650E+03</pdfrwt>
<totfact> 0.31432222E+03</totfact>
</mgrwt>
</event>
<event>
 4    1  0.4050555E+000  0.1730740E+03  0.7546771E-02  0.1174680E+00
         21   -1    0    0  501  502  0.00000000000E+00  0.00000000000E+00  0.58865106100E+03  0.58865106100E+03  0.00000000000E+00 0.  1.
         21   -1    0    0  502  503 -0.00000000000E+00 -0.00000000000E+00 -0.38339251046E+03  0.38339251046E+03  0.00000000000E+00 0.  1.
          6    1    1    2  501    0  0.18830230506E+01  0.46955883810E+01  0.55524897299E+03  0.58159781321E+03  0.17300000000E+03 0.  1.
         -6    1    1    2    0  503 -0.18830230506E+01 -0.46955883810E+01 -0.34999042245E+03  0.39044575824E+03  0.17300000000E+03 0.  1.
<mgrwt>
<rscale>  2 0.17307396E+03</rscale>
<asrwt>0</asrwt>
<pdfrwt beam="1">  1       21 0.90561701E-01 0.17307396E+03</pdfrwt>
<pdfrwt beam="2">  1       21 0.58983463E-01 0.17307396E+03</pdfrwt>
<totfact> 0.28326743E+03</totfact>
</mgrwt>
</event>
<event>
 4    1  0.4050555E+000  0.1821436E+03  0.7546771E-02  0.1165744E+00
         21   -1    0    0  501  502  0.00000000000E+00  0.00000000000E+00  0.17015711003E+03  0.17015711003E+03  0.00000000000E+00 0. -1.
         21   -1    0    0  502  503 -0.00000000000E+00 -0.00000000000E+00 -0.42782714584E+03  0.42782714584E+03  0.00000000000E+00 0. -1.
          6    1    1    2  501    0  0.36708619482E+02  0.43586280047E+02  0.91745033536E+02  0.20394469282E+03  0.17300000000E+03 0. -1.
         -6    1    1    2    0  503 -0.36708619482E+02 -0.43586280047E+02 -0.34941506935E+03  0.39403956304E+03  0.17300000000E+03 0. -1.
<mgrwt>
<rscale>  2 0.18214359E+03</rscale>
<asrwt>0</asrwt>
<pdfrwt beam="1">  1       21 0.26178018E-01 0.18214359E+03</pdfrwt>
<pdfrwt beam="2">  1       21 0.65819559E-01 0.18214359E+03</pdfrwt>
<totfact> 0.29582614E+04</totfact>
</mgrwt>
</event>
<event>
 4    1  0.4050555E+000  0.1833814E+03  0.7546771E-02  0.1164570E+00
         21   -1    0    0  501  502  0.00000000000E+00  0.00000000000E+00  0.87805812205E+02  0.87805812205E+02  0.00000000000E+00 0.  1.
         21   -1    0    0  502  503 -0.00000000000E+00 -0.00000000000E+00 -0.49078706440E+03  0.49078706440E+03  0.00000000000E+00 0.  1.
          6    1    1    2  501    0 -0.91196811575E+01  0.60137842905E+02 -0.65909123592E+02  0.19486595728E+03  0.17300000000E+03 0.  1.
         -6    1    1    2    0  503  0.91196811575E+01 -0.60137842905E+02 -0.33707212860E+03  0.38372691932E+03  0.17300000000E+03 0.  1.
<mgrwt>
<rscale>  2 0.18338138E+03</rscale>
<asrwt>0</asrwt>
<pdfrwt beam="1">  1       21 0.13508586E-01 0.18338138E+03</pdfrwt>
<pdfrwt beam="2">  1       21 0.75505703E-01 0.18338138E+03</pdfrwt>
<totfact> 0.74584633E+04</totfact>
</mgrwt>
</event>
<event>
 4    1  0.4050555E+000  0.1839350E+03  0.7546771E-02  0.1164048E+00
         21   -1    0    0  503  502  0.00000000000E+00  0.00000000000E+00  0.15219127609E+03  0.15219127609E+03  0.00000000000E+00 0.  1.
         21   -1    0    0  501  503 -0.00000000000E+00 -0.00000000000E+00 -0.25488664988E+03  0.25488664988E+03  0.00000000000E+00 0.  1.
          6    1    1    2  501    0 -0.41421317246E+02  0.46769351681E+02 -0.12412480812E+03  0.22189877370E+03  0.17300000000E+03 0.  1.
         -6    1    1    2    0  502  0.41421317246E+02 -0.46769351681E+02  0.21429434331E+02  0.18517915227E+03  0.17300000000E+03 0.  1.
<mgrwt>
<rscale>  2 0.18393504E+03</rscale>
<asrwt>0</asrwt>
<pdfrwt beam="1">  1       21 0.23414043E-01 0.18393504E+03</pdfrwt>
<pdfrwt beam="2">  1       21 0.39213330E-01 0.18393504E+03</pdfrwt>
<totfact> 0.10792247E+05</totfact>
</mgrwt>
</event>
<event>
 4    1  0.4050555E+000  0.1801621E+03  0.7546771E-02  0.1167646E+00
         21   -1    0    0  503  502  0.00000000000E+00  0.00000000000E+00  0.78844128162E+02  0.78844128162E+02  0.00000000000E+00 0. -1.
         21   -1    0    0  501  503 -0.00000000000E+00 -0.00000000000E+00 -0.45360738493E+03  0.45360738493E+03  0.00000000000E+00 0. -1.
          6    1    1    2  501    0 -0.12230888820E+02 -0.48783072321E+02 -0.26832288228E+03  0.32319584147E+03  0.17300000000E+03 0. -1.
         -6    1    1    2    0  502  0.12230888820E+02  0.48783072321E+02 -0.10644037449E+03  0.20925567163E+03  0.17300000000E+03 0. -1.
<mgrwt>
<rscale>  2 0.18016210E+03</rscale>
<asrwt>0</asrwt>
<pdfrwt beam="1">  1       21 0.12129866E-01 0.18016210E+03</pdfrwt>
<pdfrwt beam="2">  1       21 0.69785751E-01 0.18016210E+03</pdfrwt>
<totfact> 0.10788898E+05</totfact>
</mgrwt>
</event>
<event>
 4    1  0.4050555E+000  0.1744845E+03  0.7546771E-02  0.1173250E+00
         21   -1    0    0  501  502  0.00000000000E+00  0.00000000000E+00  0.31294707477E+03  0.31294707477E+03  0.00000000000E+00 0. -1.
         21   -1    0    0  502  503 -0.00000000000E+00 -0.00000000000E+00 -0.15639221647E+03  0.15639221647E+03  0.00000000000E+00 0. -1.
          6    1    1    2  501    0  0.52558280816E+01  0.22095686688E+02  0.22254612478E+03  0.28279254013E+03  0.17300000000E+03 0. -1.
         -6    1    1    2    0  503 -0.52558280816E+01 -0.22095686688E+02 -0.65991266483E+02  0.18654675111E+03  0.17300000000E+03 0. -1.
<mgrwt>
<rscale>  2 0.17448451E+03</rscale>
<asrwt>0</asrwt>
<pdfrwt beam="1">  1       21 0.48145704E-01 0.17448451E+03</pdfrwt>
<pdfrwt beam="2">  1       21 0.24060341E-01 0.17448451E+03</pdfrwt>
<totfact> 0.67695007E+04</totfact>
</mgrwt>
</event>
<event>
 4    1  0.4050555E+000  0.1813693E+03  0.7546771E-02  0.1166484E+00
         21   -1    0    0  501  502  0.00000000000E+00  0.00000000000E+00  0.99922207227E+03  0.99922207227E+03  0.00000000000E+00 0.  1.
         21   -1    0    0  502  503 -0.00000000000E+00 -0.00000000000E+00 -0.52531675222E+02  0.52531675222E+02  0.00000000000E+00 0.  1.
          6    1    1    2  501    0 -0.40322986163E+02 -0.36604472459E+02  0.79465643824E+03  0.81509121297E+03  0.17300000000E+03 0. -1.
         -6    1    1    2    0  503  0.40322986163E+02  0.36604472459E+02  0.15203395880E+03  0.23666253452E+03  0.17300000000E+03 0. -1.
<mgrwt>
<rscale>  2 0.18136932E+03</rscale>
<asrwt>0</asrwt>
<pdfrwt beam="1">  1       21 0.15372646E+00 0.18136932E+03</pdfrwt>
<pdfrwt beam="2">  1       21 0.80817969E-02 0.18136932E+03</pdfrwt>
<totfact> 0.33258562E+04</totfact>
</mgrwt>
</event>
<event>
 4    1  0.4050555E+000  0.1744719E+03  0.7546771E-02  0.1173263E+00
         21   -1    0    0  501  502  0.00000000000E+00  0.00000000000E+00  0.13137978253E+04  0.13137978253E+04  0.00000000000E+00 0. -1.
         21   -1    0    0  502  503 -0.00000000000E+00 -0.00000000000E+00 -0.23872664206E+02  0.23872664206E+02  0.00000000000E+00 0. -1.
          6    1    1    2  501    0  0.16082555931E+01 -0.22557630890E+02  0.75972622679E+03  0.77950264456E+03  0.17300000000E+03 0. -1.
         -6    1    1    2    0  503 -0.16082555931E+01  0.22557630890E+02  0.53019893427E+03  0.55816784491E+03  0.17300000000E+03 0. -1.
<mgrwt>
<rscale>  2 0.17447187E+03</rscale>
<asrwt>0</asrwt>
<pdfrwt beam="1">  1       21 0.20212269E+00 0.17447187E+03</pdfrwt>
<pdfrwt beam="2">  1       21 0.36727186E-02 0.17447187E+03</pdfrwt>
<totfact> 0.59521944E+04</totfact>
</mgrwt>
</event>
<event>
 4    1  0.4050555E+000  0.2072005E+03  0.7546771E-02  0.1143802E+00
         21   -1    0    0  503  502  0.00000000000E+00  0.00000000000E+00  0.13593441806E+04  0.13593441806E+04  0.00000000000E+00 0.  1.
         21   -1    0    0  501  503 -0.00000000000E+00 -0.00000000000E+00 -0.33512130004E+02  0.33512130004E+02  0.00000000000E+00 0.  1.
          6    1    1    2  501    0 -0.95220066839E+02 -0.62738911048E+02  0.49581956706E+03  0.53737238035E+03  0.17300000000E+03 0.  1.
         -6    1    1    2    0  502  0.95220066839E+02  0.62738911048E+02  0.83001248353E+03  0.85548393024E+03  0.17300000000E+03 0.  1.
<mgrwt>
<rscale>  2 0.20720046E+03</rscale>
<asrwt>0</asrwt>
<pdfrwt beam="1">  1       21 0.20912983E+00 0.20720046E+03</pdfrwt>
<pdfrwt beam="2">  1       21 0.51557134E-02 0.20720046E+03</pdfrwt>
<totfact> 0.29690752E+04</totfact>
</mgrwt>
</event>
<event>
 4    1  0.4050555E+000  0.2429613E+03  0.7546771E-02  0.1117836E+00
         21   -1    0    0  501  502  0.00000000000E+00  0.00000000000E+00  0.73411732717E+02  0.73411732717E+02  0.00000000000E+00 0.  1.
         21   -1    0    0  502  503 -0.00000000000E+00 -0.00000000000E+00 -0.10731760688E+04  0.10731760688E+04  0.00000000000E+00 0. -1.
          6    1    1    2  501    0  0.13516379318E+02 -0.17005442512E+03 -0.21281648109E+03  0.32298770044E+03  0.17300000000E+03 0.  1.
         -6    1    1    2    0  503 -0.13516379318E+02  0.17005442512E+03 -0.78694785497E+03  0.82360010105E+03  0.17300000000E+03 0.  1.
<mgrwt>
<rscale>  2 0.24296131E+03</rscale>
<asrwt>0</asrwt>
<pdfrwt beam="1">  1       21 0.11294113E-01 0.24296131E+03</pdfrwt>
<pdfrwt beam="2">  1       21 0.16510400E+00 0.24296131E+03</pdfrwt>
<totfact> 0.14610825E+04</totfact>
</mgrwt>
</event>
<event>
 4    1  0.4050555E+000  0.1812622E+03  0.7546771E-02  0.1166587E+00
         21   -1    0    0  503  502  0.00000000000E+00  0.00000000000E+00  0.88074697891E+03  0.88074697891E+03  0.00000000000E+00 0.  1.
         21   -1    0    0  501  503 -0.00000000000E+00 -0.00000000000E+00 -0.78145896881E+02  0.78145896881E+02  0.00000000000E+00 0.  1.
          6    1    1    2  501    0  0.50593917081E+02  0.19163688636E+02  0.54694362793E+02  0.18933426718E+03  0.17300000000E+03 0.  1.
         -6    1    1    2    0  502 -0.50593917081E+02 -0.19163688636E+02  0.74790671923E+03  0.76955860861E+03  0.17300000000E+03 0.  1.
<mgrwt>
<rscale>  2 0.18126222E+03</rscale>
<asrwt>0</asrwt>
<pdfrwt beam="1">  1       21 0.13549953E+00 0.18126222E+03</pdfrwt>
<pdfrwt beam="2">  1       21 0.12022446E-01 0.18126222E+03</pdfrwt>
<totfact> 0.22926413E+04</totfact>
</mgrwt>
</event>
<event>
 4    1  0.4050555E+000  0.1732848E+03  0.7546771E-02  0.1174465E+00
         21   -1    0    0  503  502  0.00000000000E+00  0.00000000000E+00  0.14886612219E+04  0.14886612219E+04  0.00000000000E+00 0.  1.
         21   -1    0    0  501  503 -0.00000000000E+00 -0.00000000000E+00 -0.20181450844E+02  0.20181450844E+02  0.00000000000E+00 0.  1.
          6    1    1    2  501    0  0.27899353813E+01 -0.95316733078E+01  0.71699013449E+03  0.73763303173E+03  0.17300000000E+03 0. -1.
         -6    1    1    2    0  502 -0.27899353813E+01  0.95316733078E+01  0.75148963661E+03  0.77120964106E+03  0.17300000000E+03 0. -1.
<mgrwt>
<rscale>  2 0.17328484E+03</rscale>
<asrwt>0</asrwt>
<pdfrwt beam="1">  1       21 0.22902472E+00 0.17328484E+03</pdfrwt>
<pdfrwt beam="2">  1       21 0.31048398E-02 0.17328484E+03</pdfrwt>
<totfact> 0.53745425E+04</totfact>
</mgrwt>
</event>
<event>
 4    1  0.4050555E+000  0.1848660E+03  0.7546771E-02  0.1163175E+00
         21   -1    0    0  503  502  0.00000000000E+00  0.00000000000E+00  0.58560665715E+02  0.58560665715E+02  0.00000000000E+00 0. -1.
         21   -1    0    0  501  503 -0.00000000000E+00 -0.00000000000E+00 -0.68579967684E+03  0.68579967684E+03  0.00000000000E+00 0. -1.
          6    1    1    2  501    0  0.39784512782E+02 -0.51610363777E+02 -0.45730070361E+03  0.49325386023E+03  0.17300000000E+03 0. -1.
         -6    1    1    2    0  502 -0.39784512782E+02  0.51610363777E+02 -0.16993830751E+03  0.25110648233E+03  0.17300000000E+03 0. -1.
<mgrwt>
<rscale>  2 0.18486600E+03</rscale>
<asrwt>0</asrwt>
<pdfrwt beam="1">  1       21 0.90093340E-02 0.18486600E+03</pdfrwt>
<pdfrwt beam="2">  1       21 0.10550763E+00 0.18486600E+03</pdfrwt>
<totfact> 0.70669365E+04</totfact>
</mgrwt>
</event>
<event>
 4    1  0.4050555E+000  0.1800383E+03  0.7546771E-02  0.1167766E+00
         21   -1    0    0  503  502  0.00000000000E+00  0.00000000000E+00  0.21270968077E+03  0.21270968077E+03  0.00000000000E+00 0. -1.
         21   -1    0    0  501  503 -0.00000000000E+00 -0.00000000000E+00 -0.15534211433E+03  0.15534211433E+03  0.00000000000E+00 0. -1.
          6    1    1    2  501    0 -0.55579187770E+01 -0.49536842818E+02  0.32939457710E+01  0.18006842959E+03  0.17300000000E+03 0. -1.
         -6    1    1    2    0  502  0.55579187770E+01  0.49536842818E+02  0.54073620670E+02  0.18798336551E+03  0.17300000000E+03 0. -1.
<mgrwt>
<rscale>  2 0.18003830E+03</rscale>
<asrwt>0</asrwt>
<pdfrwt beam="1">  1       21 0.32724566E-01 0.18003830E+03</pdfrwt>
<pdfrwt beam="2">  1       21 0.23898787E-01 0.18003830E+03</pdfrwt>
<totfact> 0.14893554E+05</totfact>
</mgrwt>
</event>
<event>
 4    1  0.4050555E+000  0.2664810E+03  0.7546771E-02  0.1103311E+00
         21   -1    0    0  503  502  0.00000000000E+00  0.00000000000E+00  0.61316371836E+03  0.61316371836E+03  0.00000000000E+00 0.  1.
         21   -1    0    0  501  503 -0.00000000000E+00 -0.00000000000E+00 -0.12354533278E+03  0.12354533278E+03  0.00000000000E+00 0.  1.
          6    1    1    2  501    0  0.13090429589E+03  0.15474877826E+03  0.15265443658E+03  0.30710828068E+03  0.17300000000E+03 0.  1.
         -6    1    1    2    0  502 -0.13090429589E+03 -0.15474877826E+03  0.33696394900E+03  0.42960077046E+03  0.17300000000E+03 0.  1.
<mgrwt>
<rscale>  2 0.26648099E+03</rscale>
<asrwt>0</asrwt>
<pdfrwt beam="1">  1       21 0.94332878E-01 0.26648099E+03</pdfrwt>
<pdfrwt beam="2">  1       21 0.19006975E-01 0.26648099E+03</pdfrwt>
<totfact> 0.22990430E+04</totfact>
</mgrwt>
</event>
<event>
 4    1  0.4050555E+000  0.1977008E+03  0.7546771E-02  0.1151693E+00
         21   -1    0    0  503  502  0.00000000000E+00  0.00000000000E+00  0.21675798857E+03  0.21675798857E+03  0.00000000000E+00 0.  1.
         21   -1    0    0  501  503 -0.00000000000E+00 -0.00000000000E+00 -0.20025993685E+03  0.20025993685E+03  0.00000000000E+00 0.  1.
          6    1    1    2  501    0  0.49079989658E+02  0.82144731892E+02 -0.57546980506E+02  0.20590594292E+03  0.17300000000E+03 0.  1.
         -6    1    1    2    0  502 -0.49079989658E+02 -0.82144731892E+02  0.74045032224E+02  0.21111198251E+03  0.17300000000E+03 0.  1.
<mgrwt>
<rscale>  2 0.19770079E+03</rscale>
<asrwt>0</asrwt>
<pdfrwt beam="1">  1       21 0.33347383E-01 0.19770079E+03</pdfrwt>
<pdfrwt beam="2">  1       21 0.30809221E-01 0.19770079E+03</pdfrwt>
<totfact> 0.87426126E+04</totfact>
</mgrwt>
</event>
<event>
 4    1  0.4050555E+000  0.1822942E+03  0.7546771E-02  0.1165601E+00
         21   -1    0    0  503  502  0.00000000000E+00  0.00000000000E+00  0.37756536004E+03  0.37756536004E+03  0.00000000000E+00 0. -1.
         21   -1    0    0  501  503 -0.00000000000E+00 -0.00000000000E+00 -0.12887310514E+03  0.12887310514E+03  0.00000000000E+00 0. -1.
          6    1    1    2  501    0 -0.26245126468E+02  0.51121252019E+02 -0.18233618067E+02  0.18320385885E+03  0.17300000000E+03 0. -1.
         -6    1    1    2    0  502  0.26245126468E+02 -0.51121252019E+02  0.26692587297E+03  0.32323460633E+03  0.17300000000E+03 0. -1.
<mgrwt>
<rscale>  2 0.18229424E+03</rscale>
<asrwt>0</asrwt>
<pdfrwt beam="1">  1       21 0.58086978E-01 0.18229424E+03</pdfrwt>
<pdfrwt beam="2">  1       21 0.19826632E-01 0.18229424E+03</pdfrwt>
<totfact> 0.65456576E+04</totfact>
</mgrwt>
</event>
<event>
 4    1  0.4050555E+000  0.3024810E+03  0.7546771E-02  0.1084007E+00
         21   -1    0    0  503  502  0.00000000000E+00  0.00000000000E+00  0.54676862385E+03  0.54676862385E+03  0.00000000000E+00 0. -1.
         21   -1    0    0  501  503 -0.00000000000E+00 -0.00000000000E+00 -0.29539430474E+03  0.29539430474E+03  0.00000000000E+00 0. -1.
          6    1    1    2  501    0  0.24624211076E+03 -0.30505429065E+02 -0.15155981705E+03  0.33832696679E+03  0.17300000000E+03 0. -1.
         -6    1    1    2    0  502 -0.24624211076E+03  0.30505429065E+02  0.40293413616E+03  0.50383596180E+03  0.17300000000E+03 0. -1.
<mgrwt>
<rscale>  2 0.30248100E+03</rscale>
<asrwt>0</asrwt>
<pdfrwt beam="1">  1       21 0.84118250E-01 0.30248100E+03</pdfrwt>
<pdfrwt beam="2">  1       21 0.45445278E-01 0.30248100E+03</pdfrwt>
<totfact> 0.53192938E+03</totfact>
</mgrwt>
</event>
<event>
 4    1  0.4050555E+000  0.1872129E+03  0.7546771E-02  0.1160999E+00
         21   -1    0    0  503  502  0.00000000000E+00  0.00000000000E+00  0.32237564221E+03  0.32237564221E+03  0.00000000000E+00 0.  1.
         21   -1    0    0  501  503 -0.00000000000E+00 -0.00000000000E+00 -0.13435064770E+03  0.13435064770E+03  0.00000000000E+00 0.  1.
          6    1    1    2  501    0 -0.54441880132E+02  0.46429873483E+02 -0.57314771034E+01  0.18730056405E+03  0.17300000000E+03 0.  1.
         -6    1    1    2    0  502  0.54441880132E+02 -0.46429873483E+02  0.19375647161E+03  0.26942572586E+03  0.17300000000E+03 0.  1.
<mgrwt>
<rscale>  2 0.18721285E+03</rscale>
<asrwt>0</asrwt>
<pdfrwt beam="1">  1       21 0.49596253E-01 0.18721285E+03</pdfrwt>
<pdfrwt beam="2">  1       21 0.20669330E-01 0.18721285E+03</pdfrwt>
<totfact> 0.84295663E+04</totfact>
</mgrwt>
</event>
<event>
 4    1  0.4050555E+000  0.2201889E+03  0.7546771E-02  0.1133742E+00
         21   -1    0    0  503  502  0.00000000000E+00  0.00000000000E+00  0.12987703101E+03  0.12987703101E+03  0.00000000000E+00 0. -1.
         21   -1    0    0  501  503 -0.00000000000E+00 -0.00000000000E+00 -0.43700949370E+03  0.43700949370E+03  0.00000000000E+00 0. -1.
          6    1    1    2  501    0  0.12775727179E+03  0.47246409505E+02 -0.26178971723E+03  0.34207747624E+03  0.17300000000E+03 0. -1.
         -6    1    1    2    0  502 -0.12775727179E+03 -0.47246409505E+02 -0.45342745465E+02  0.22480904847E+03  0.17300000000E+03 0. -1.
<mgrwt>
<rscale>  2 0.22018888E+03</rscale>
<asrwt>0</asrwt>
<pdfrwt beam="1">  1       21 0.19981082E-01 0.22018888E+03</pdfrwt>
<pdfrwt beam="2">  1       21 0.67232230E-01 0.22018888E+03</pdfrwt>
<totfact> 0.46192063E+04</totfact>
</mgrwt>
</event>
<event>
 4    1  0.4050555E+000  0.1768700E+03  0.7546771E-02  0.1170867E+00
         21   -1    0    0  503  502  0.00000000000E+00  0.00000000000E+00  0.19427470714E+03  0.19427470714E+03  0.00000000000E+00 0. -1.
         21   -1    0    0  501  503 -0.00000000000E+00 -0.00000000000E+00 -0.33432849884E+03  0.33432849884E+03  0.00000000000E+00 0. -1.
          6    1    1    2  501    0  0.34648506999E+02 -0.12388957482E+02 -0.26031746959E+03  0.31471922452E+03  0.17300000000E+03 0. -1.
         -6    1    1    2    0  502 -0.34648506999E+02  0.12388957482E+02  0.12026367789E+03  0.21388398146E+03  0.17300000000E+03 0. -1.
<mgrwt>
<rscale>  2 0.17687002E+03</rscale>
<asrwt>0</asrwt>
<pdfrwt beam="1">  1       21 0.29888417E-01 0.17687002E+03</pdfrwt>
<pdfrwt beam="2">  1       21 0.51435153E-01 0.17687002E+03</pdfrwt>
<totfact> 0.38863087E+04</totfact>
</mgrwt>
</event>
<event>
 4    1  0.4050555E+000  0.2070971E+03  0.7546771E-02  0.1143886E+00
         21   -1    0    0  501  502  0.00000000000E+00  0.00000000000E+00  0.20733430481E+03  0.20733430481E+03  0.00000000000E+00 0.  1.
         21   -1    0    0  502  503 -0.00000000000E+00 -0.00000000000E+00 -0.28484578952E+03  0.28484578952E+03  0.00000000000E+00 0. -1.
          6    1    1    2  501    0 -0.11090201140E+03  0.25708655370E+02  0.90008909613E+02  0.22581141447E+03  0.17300000000E+03 0.  1.
         -6    1    1    2    0  503  0.11090201140E+03 -0.25708655370E+02 -0.16752039432E+03  0.26636867986E+03  0.17300000000E+03 0. -1.
<mgrwt>
<rscale>  2 0.20709706E+03</rscale>
<asrwt>0</asrwt>
<pdfrwt beam="1">  1       21 0.31897586E-01 0.20709706E+03</pdfrwt>
<pdfrwt beam="2">  1       21 0.43822429E-01 0.20709706E+03</pdfrwt>
<totfact> 0.46953973E+04</totfact>
</mgrwt>
</event>
<event>
 4    1  0.4050555E+000  0.1765998E+03  0.7546771E-02  0.1171135E+00
         21   -1    0    0  501  502  0.00000000000E+00  0.00000000000E+00  0.63612308597E+02  0.63612308597E+02  0.00000000000E+00 0. -1.
         21   -1    0    0  502  503 -0.00000000000E+00 -0.00000000000E+00 -0.52235093469E+03  0.52235093469E+03  0.00000000000E+00 0. -1.
          6    1    1    2  501    0 -0.32112545647E+02 -0.15075918291E+02 -0.15676681138E+03  0.23614260956E+03  0.17300000000E+03 0. -1.
         -6    1    1    2    0  503  0.32112545647E+02  0.15075918291E+02 -0.30197181471E+03  0.34982063372E+03  0.17300000000E+03 0. -1.
<mgrwt>
<rscale>  2 0.17659983E+03</rscale>
<asrwt>0</asrwt>
<pdfrwt beam="1">  1       21 0.97865090E-02 0.17659983E+03</pdfrwt>
<pdfrwt beam="2">  1       21 0.80361682E-01 0.17659983E+03</pdfrwt>
<totfact> 0.11545966E+05</totfact>
</mgrwt>
</event>
<event>
 4    1  0.4050555E+000  0.1947189E+03  0.7546771E-02  0.1154273E+00
         21   -1    0    0  501  502  0.00000000000E+00  0.00000000000E+00  0.60788431036E+02  0.60788431036E+02  0.00000000000E+00 0. -1.
         21   -1    0    0  502  503 -0.00000000000E+00 -0.00000000000E+00 -0.71737913217E+03  0.71737913217E+03  0.00000000000E+00 0. -1.
          6    1    1    2  501    0 -0.58903921905E+02 -0.67206977213E+02 -0.18771482936E+03  0.27046683154E+03  0.17300000000E+03 0. -1.
         -6    1    1    2    0  503  0.58903921905E+02  0.67206977213E+02 -0.46887587177E+03  0.50770073167E+03  0.17300000000E+03 0. -1.
<mgrwt>
<rscale>  2 0.19471890E+03</rscale>
<asrwt>0</asrwt>
<pdfrwt beam="1">  1       21 0.93520665E-02 0.19471890E+03</pdfrwt>
<pdfrwt beam="2">  1       21 0.11036602E+00 0.19471890E+03</pdfrwt>
<totfact> 0.59101581E+04</totfact>
</mgrwt>
</event>
<event>
 4    1  0.4050555E+000  0.2157415E+03  0.7546771E-02  0.1137098E+00
         21   -1    0    0  503  502  0.00000000000E+00  0.00000000000E+00  0.81073497503E+03  0.81073497503E+03  0.00000000000E+00 0. -1.
         21   -1    0    0  501  503 -0.00000000000E+00 -0.00000000000E+00 -0.62880142790E+02  0.62880142790E+02  0.00000000000E+00 0. -1.
          6    1    1    2  501    0  0.98747002935E+02  0.82851733594E+02  0.24509399663E+03  0.32652020999E+03  0.17300000000E+03 0. -1.
         -6    1    1    2    0  502 -0.98747002935E+02 -0.82851733594E+02  0.50276083561E+03  0.54709490783E+03  0.17300000000E+03 0. -1.
<mgrwt>
<rscale>  2 0.21574147E+03</rscale>
<asrwt>0</asrwt>
<pdfrwt beam="1">  1       21 0.12472845E+00 0.21574147E+03</pdfrwt>
<pdfrwt beam="2">  1       21 0.96738687E-02 0.21574147E+03</pdfrwt>
<totfact> 0.40745504E+04</totfact>
</mgrwt>
</event>
<event>
 4    1  0.4050555E+000  0.1789356E+03  0.7546771E-02  0.1168837E+00
         21   -1    0    0  501  502  0.00000000000E+00  0.00000000000E+00  0.63536374210E+03  0.63536374210E+03  0.00000000000E+00 0.  1.
         21   -1    0    0  502  503 -0.00000000000E+00 -0.00000000000E+00 -0.11977040554E+03  0.11977040554E+03  0.00000000000E+00 0.  1.
          6    1    1    2  501    0  0.12768981792E+02  0.43884937483E+02  0.54515787401E+03  0.57377263984E+03  0.17300000000E+03 0.  1.
         -6    1    1    2    0  503 -0.12768981792E+02 -0.43884937483E+02 -0.29564537455E+02  0.18136150779E+03  0.17300000000E+03 0.  1.
<mgrwt>
<rscale>  2 0.17893556E+03</rscale>
<asrwt>0</asrwt>
<pdfrwt beam="1">  1       21 0.97748266E-01 0.17893556E+03</pdfrwt>
<pdfrwt beam="2">  1       21 0.18426217E-01 0.17893556E+03</pdfrwt>
<totfact> 0.23483722E+04</totfact>
</mgrwt>
</event>
<event>
 4    1  0.4050555E+000  0.3098856E+03  0.7546771E-02  0.1080401E+00
         21   -1    0    0  501  502  0.00000000000E+00  0.00000000000E+00  0.89200825075E+03  0.89200825075E+03  0.00000000000E+00 0. -1.
         21   -1    0    0  502  503 -0.00000000000E+00 -0.00000000000E+00 -0.11762924198E+03  0.11762924198E+03  0.00000000000E+00 0. -1.
          6    1    1    2  501    0 -0.25358692322E+03 -0.42352713226E+02  0.53419021749E+03  0.61756640809E+03  0.17300000000E+03 0. -1.
         -6    1    1    2    0  503  0.25358692322E+03  0.42352713226E+02  0.24018879129E+03  0.39207108463E+03  0.17300000000E+03 0. -1.
<mgrwt>
<rscale>  2 0.30988559E+03</rscale>
<asrwt>0</asrwt>
<pdfrwt beam="1">  1       21 0.13723203E+00 0.30988559E+03</pdfrwt>
<pdfrwt beam="2">  1       21 0.18096807E-01 0.30988559E+03</pdfrwt>
<totfact> 0.97670429E+03</totfact>
</mgrwt>
</event>
<event>
 4    1  0.4050555E+000  0.2017704E+03  0.7546771E-02  0.1148254E+00
         21   -1    0    0  503  502  0.00000000000E+00  0.00000000000E+00  0.17585920195E+03  0.17585920195E+03  0.00000000000E+00 0.  1.
         21   -1    0    0  501  503 -0.00000000000E+00 -0.00000000000E+00 -0.32973844148E+03  0.32973844148E+03  0.00000000000E+00 0.  1.
          6    1    1    2  501    0  0.40255723668E+02  0.95717121493E+02 -0.21492479440E+03  0.29479477248E+03  0.17300000000E+03 0.  1.
         -6    1    1    2    0  502 -0.40255723668E+02 -0.95717121493E+02  0.61045554868E+02  0.21080287096E+03  0.17300000000E+03 0.  1.
<mgrwt>
<rscale>  2 0.20177039E+03</rscale>
<asrwt>0</asrwt>
<pdfrwt beam="1">  1       21 0.27055262E-01 0.20177039E+03</pdfrwt>
<pdfrwt beam="2">  1       21 0.50728991E-01 0.20177039E+03</pdfrwt>
<totfact> 0.47911037E+04</totfact>
</mgrwt>
</event>
<event>
 4    1  0.4050555E+000  0.1874644E+03  0.7546771E-02  0.1160768E+00
         21   -1    0    0  501  502  0.00000000000E+00  0.00000000000E+00  0.11502256590E+04  0.11502256590E+04  0.00000000000E+00 0. -1.
         21   -1    0    0  502  503 -0.00000000000E+00 -0.00000000000E+00 -0.38307977268E+02  0.38307977268E+02  0.00000000000E+00 0. -1.
          6    1    1    2  501    0  0.40441599341E+02  0.59819442036E+02  0.82333708276E+03  0.84440916649E+03  0.17300000000E+03 0. -1.
         -6    1    1    2    0  503 -0.40441599341E+02 -0.59819442036E+02  0.28858059901E+03  0.34412446982E+03  0.17300000000E+03 0. -1.
<mgrwt>
<rscale>  2 0.18746437E+03</rscale>
<asrwt>0</asrwt>
<pdfrwt beam="1">  1       21 0.17695777E+00 0.18746437E+03</pdfrwt>
<pdfrwt beam="2">  1       21 0.58935358E-02 0.18746437E+03</pdfrwt>
<totfact> 0.38938682E+04</totfact>
</mgrwt>
</event>
<event>
 4    1  0.4050555E+000  0.1919051E+03  0.7546771E-02  0.1156754E+00
         21   -1    0    0  501  502  0.00000000000E+00  0.00000000000E+00  0.12894850543E+03  0.12894850543E+03  0.00000000000E+00 0.  1.
         21   -1    0    0  502  503 -0.00000000000E+00 -0.00000000000E+00 -0.44691994442E+03  0.44691994442E+03  0.00000000000E+00 0.  1.
          6    1    1    2  501    0 -0.82163135082E+02 -0.12156461087E+02  0.14005412389E+02  0.19241546686E+03  0.17300000000E+03 0.  1.
         -6    1    1    2    0  503  0.82163135082E+02  0.12156461087E+02 -0.33197685137E+03  0.38345298298E+03  0.17300000000E+03 0.  1.
<mgrwt>
<rscale>  2 0.19190508E+03</rscale>
<asrwt>0</asrwt>
<pdfrwt beam="1">  1       21 0.19838232E-01 0.19190508E+03</pdfrwt>
<pdfrwt beam="2">  1       21 0.68756913E-01 0.19190508E+03</pdfrwt>
<totfact> 0.45190192E+04</totfact>
</mgrwt>
</event>
<event>
 4    1  0.4050555E+000  0.2518952E+03  0.7546771E-02  0.1112113E+00
         21   -1    0    0  503  502  0.00000000000E+00  0.00000000000E+00  0.11498267276E+03  0.11498267276E+03  0.00000000000E+00 0.  1.
         21   -1    0    0  501  503 -0.00000000000E+00 -0.00000000000E+00 -0.56063404167E+03  0.56063404167E+03  0.00000000000E+00 0.  1.
          6    1    1    2  501    0  0.18150937961E+03  0.24011219563E+02 -0.26515158588E+03  0.36572743545E+03  0.17300000000E+03 0.  1.
         -6    1    1    2    0  502 -0.18150937961E+03 -0.24011219563E+02 -0.18049978304E+03  0.30988927898E+03  0.17300000000E+03 0.  1.
<mgrwt>
<rscale>  2 0.25189520E+03</rscale>
<asrwt>0</asrwt>
<pdfrwt beam="1">  1       21 0.17689642E-01 0.25189520E+03</pdfrwt>
<pdfrwt beam="2">  1       21 0.86251392E-01 0.25189520E+03</pdfrwt>
<totfact> 0.32612891E+04</totfact>
</mgrwt>
</event>
<event>
 4    1  0.4050555E+000  0.1816332E+03  0.7546771E-02  0.1166232E+00
         21   -1    0    0  501  502  0.00000000000E+00  0.00000000000E+00  0.24611036917E+03  0.24611036917E+03  0.00000000000E+00 0. -1.
         21   -1    0    0  502  503 -0.00000000000E+00 -0.00000000000E+00 -0.50151178096E+03  0.50151178096E+03  0.00000000000E+00 0. -1.
          6    1    1    2  501    0  0.45579496757E+02  0.31370756739E+02  0.19227634773E+03  0.26450105633E+03  0.17300000000E+03 0. -1.
         -6    1    1    2    0  503 -0.45579496757E+02 -0.31370756739E+02 -0.44767775952E+03  0.48312109380E+03  0.17300000000E+03 0. -1.
<mgrwt>
<rscale>  2 0.18163319E+03</rscale>
<asrwt>0</asrwt>
<pdfrwt beam="1">  1       21 0.37863134E-01 0.18163319E+03</pdfrwt>
<pdfrwt beam="2">  1       21 0.77155658E-01 0.18163319E+03</pdfrwt>
<totfact> 0.10115248E+04</totfact>
</mgrwt>
</event>
<event>
 4    1  0.4050555E+000  0.2028827E+03  0.7546771E-02  0.1147329E+00
         21   -1    0    0  503  502  0.00000000000E+00  0.00000000000E+00  0.34209310406E+03  0.34209310406E+03  0.00000000000E+00 0.  1.
         21   -1    0    0  501  503 -0.00000000000E+00 -0.00000000000E+00 -0.22676921096E+03  0.22676921096E+03  0.00000000000E+00 0.  1.
          6    1    1    2  501    0  0.10362708293E+03 -0.22222113968E+02 -0.13721113869E+03  0.24492507272E+03  0.17300000000E+03 0.  1.
         -6    1    1    2    0  502 -0.10362708293E+03  0.22222113968E+02  0.25253503180E+03  0.32393724230E+03  0.17300000000E+03 0.  1.
<mgrwt>
<rscale>  2 0.20288271E+03</rscale>
<asrwt>0</asrwt>
<pdfrwt beam="1">  1       21 0.52629709E-01 0.20288271E+03</pdfrwt>
<pdfrwt beam="2">  1       21 0.34887571E-01 0.20288271E+03</pdfrwt>
<totfact> 0.26951485E+04</totfact>
</mgrwt>
</event>
<event>
 4    1  0.4050555E+000  0.1927916E+03  0.7546771E-02  0.1155967E+00
         21   -1    0    0  501  502  0.00000000000E+00  0.00000000000E+00  0.23964372137E+03  0.23964372137E+03  0.00000000000E+00 0.  1.
         21   -1    0    0  502  503 -0.00000000000E+00 -0.00000000000E+00 -0.18118891389E+03  0.18118891389E+03  0.00000000000E+00 0.  1.
          6    1    1    2  501    0  0.63413875409E+02 -0.56729976423E+02  0.10907211733E+03  0.22150696738E+03  0.17300000000E+03 0.  1.
         -6    1    1    2    0  503 -0.63413875409E+02  0.56729976423E+02 -0.50617309849E+02  0.19932566788E+03  0.17300000000E+03 0.  1.
<mgrwt>
<rscale>  2 0.19279162E+03</rscale>
<asrwt>0</asrwt>
<pdfrwt beam="1">  1       21 0.36868265E-01 0.19279162E+03</pdfrwt>
<pdfrwt beam="2">  1       21 0.27875217E-01 0.19279162E+03</pdfrwt>
<totfact> 0.87196126E+04</totfact>
</mgrwt>
</event>
<event>
 4    1  0.4050555E+000  0.1750301E+03  0.7546771E-02  0.1172701E+00
         21   -1    0    0  501  502  0.00000000000E+00  0.00000000000E+00  0.54044739691E+03  0.54044739691E+03  0.00000000000E+00 0. -1.
         21   -1    0    0  502  503 -0.00000000000E+00 -0.00000000000E+00 -0.89480825492E+02  0.89480825492E+02  0.00000000000E+00 0. -1.
          6    1    1    2  501    0 -0.26559147491E+02  0.10766322246E+01  0.41616183973E+03  0.45147117771E+03  0.17300000000E+03 0. -1.
         -6    1    1    2    0  503  0.26559147491E+02 -0.10766322246E+01  0.34804731683E+02  0.17845704469E+03  0.17300000000E+03 0. -1.
<mgrwt>
<rscale>  2 0.17503013E+03</rscale>
<asrwt>0</asrwt>
<pdfrwt beam="1">  1       21 0.83145751E-01 0.17503013E+03</pdfrwt>
<pdfrwt beam="2">  1       21 0.13766281E-01 0.17503013E+03</pdfrwt>
<totfact> 0.58245202E+04</totfact>
</mgrwt>
</event>
<event>
 4    1  0.4050555E+000  0.1842159E+03  0.7546771E-02  0.1163784E+00
         21   -1    0    0  501  502  0.00000000000E+00  0.00000000000E+00  0.10863613357E+04  0.10863613357E+04  0.00000000000E+00 0. -1.
         21   -1    0    0  502  503 -0.00000000000E+00 -0.00000000000E+00 -0.99853066120E+02  0.99853066120E+02  0.00000000000E+00 0. -1.
          6    1    1    2  501    0  0.57218754662E+02 -0.27064823459E+02  0.98491202018E+03  0.10019916058E+04  0.17300000000E+03 0. -1.
         -6    1    1    2    0  503 -0.57218754662E+02  0.27064823459E+02  0.15962493576E+01  0.18422279600E+03  0.17300000000E+03 0. -1.
<mgrwt>
<rscale>  2 0.18421588E+03</rscale>
<asrwt>0</asrwt>
<pdfrwt beam="1">  1       21 0.16713251E+00 0.18421588E+03</pdfrwt>
<pdfrwt beam="2">  1       21 0.15362011E-01 0.18421588E+03</pdfrwt>
<totfact> 0.84551165E+03</totfact>
</mgrwt>
</event>
<event>
 4    1  0.4050555E+000  0.2440037E+03  0.7546771E-02  0.1117154E+00
         21   -1    0    0  503  502  0.00000000000E+00  0.00000000000E+00  0.15984163949E+03  0.15984163949E+03  0.00000000000E+00 0. -1.
         21   -1    0    0  501  503 -0.00000000000E+00 -0.00000000000E+00 -0.49641508656E+03  0.49641508656E+03  0.00000000000E+00 0.  1.
          6    1    1    2  501    0 -0.89778715801E+02 -0.14679442471E+03 -0.33223933777E+03  0.41221450545E+03  0.17300000000E+03 0.  1.
         -6    1    1    2    0  502  0.89778715801E+02  0.14679442471E+03 -0.43341092925E+01  0.24404222061E+03  0.17300000000E+03 0. -1.
<mgrwt>
<rscale>  2 0.24400373E+03</rscale>
<asrwt>0</asrwt>
<pdfrwt beam="1">  1       21 0.24591022E-01 0.24400373E+03</pdfrwt>
<pdfrwt beam="2">  1       21 0.76371551E-01 0.24400373E+03</pdfrwt>
<totfact> 0.23209465E+04</totfact>
</mgrwt>
</event>
<event>
 4    1  0.4050555E+000  0.2712906E+03  0.7546771E-02  0.1100543E+00
         21   -1    0    0  501  502  0.00000000000E+00  0.00000000000E+00  0.40725076695E+03  0.40725076695E+03  0.00000000000E+00 0.  1.
         21   -1    0    0  502  503 -0.00000000000E+00 -0.00000000000E+00 -0.18811073097E+03  0.18811073097E+03  0.00000000000E+00 0. -1.
          6    1    1    2  501    0 -0.20885599724E+03  0.69846607186E+01  0.16857236695E+03  0.31939827171E+03  0.17300000000E+03 0.  1.
         -6    1    1    2    0  503  0.20885599724E+03 -0.69846607186E+01  0.50567669030E+02  0.27596322621E+03  0.17300000000E+03 0. -1.
<mgrwt>
<rscale>  2 0.27129064E+03</rscale>
<asrwt>0</asrwt>
<pdfrwt beam="1">  1       21 0.62653964E-01 0.27129064E+03</pdfrwt>
<pdfrwt beam="2">  1       21 0.28940112E-01 0.27129064E+03</pdfrwt>
<totfact> 0.25943505E+04</totfact>
</mgrwt>
</event>
<event>
 4    1  0.4050555E+000  0.2248784E+03  0.7546771E-02  0.1130297E+00
         21   -1    0    0  501  502  0.00000000000E+00  0.00000000000E+00  0.67872574928E+03  0.67872574928E+03  0.00000000000E+00 0. -1.
         21   -1    0    0  502  503 -0.00000000000E+00 -0.00000000000E+00 -0.77557496972E+02  0.77557496972E+02  0.00000000000E+00 0. -1.
          6    1    1    2  501    0 -0.54651988601E+02 -0.13287003590E+03  0.37556990689E+03  0.43774769133E+03  0.17300000000E+03 0. -1.
         -6    1    1    2    0  503  0.54651988601E+02  0.13287003590E+03  0.22559834542E+03  0.31853555493E+03  0.17300000000E+03 0. -1.
<mgrwt>
<rscale>  2 0.22487838E+03</rscale>
<asrwt>0</asrwt>
<pdfrwt beam="1">  1       21 0.10441934E+00 0.22487838E+03</pdfrwt>
<pdfrwt beam="2">  1       21 0.11931923E-01 0.22487838E+03</pdfrwt>
<totfact> 0.43172061E+04</totfact>
</mgrwt>
</event>
<event>
 4    1  0.4050555E+000  0.1796718E+03  0.7546771E-02  0.1168121E+00
         21   -1    0    0  503  502  0.00000000000E+00  0.00000000000E+00  0.43643200451E+03  0.43643200451E+03  0.00000000000E+00 0.  1.
         21   -1    0    0  501  503 -0.00000000000E+00 -0.00000000000E+00 -0.11076155114E+03  0.11076155114E+03  0.00000000000E+00 0.  1.
          6    1    1    2  501    0  0.29565077436E+02  0.38456017647E+02  0.51456803283E+01  0.17974547873E+03  0.17300000000E+03 0.  1.
         -6    1    1    2    0  502 -0.29565077436E+02 -0.38456017647E+02  0.32052477304E+03  0.36744807692E+03  0.17300000000E+03 0.  1.
<mgrwt>
<rscale>  2 0.17967181E+03</rscale>
<asrwt>0</asrwt>
<pdfrwt beam="1">  1       21 0.67143384E-01 0.17967181E+03</pdfrwt>
<pdfrwt beam="2">  1       21 0.17040239E-01 0.17967181E+03</pdfrwt>
<totfact> 0.63436977E+04</totfact>
</mgrwt>
</event>
<event>
 4    1  0.4050555E+000  0.1872951E+03  0.7546771E-02  0.1160924E+00
         21   -1    0    0  501  502  0.00000000000E+00  0.00000000000E+00  0.12390722434E+04  0.12390722434E+04  0.00000000000E+00 0. -1.
         21   -1    0    0  502  503 -0.00000000000E+00 -0.00000000000E+00 -0.54166119979E+02  0.54166119979E+02  0.00000000000E+00 0.  1.
          6    1    1    2  501    0  0.29258603008E+02  0.65531669063E+02  0.10391956750E+04  0.10559389738E+04  0.17300000000E+03 0. -1.
         -6    1    1    2    0  503 -0.29258603008E+02 -0.65531669063E+02  0.14571044840E+03  0.23729938953E+03  0.17300000000E+03 0.  1.
<mgrwt>
<rscale>  2 0.18729513E+03</rscale>
<asrwt>0</asrwt>
<pdfrwt beam="1">  1       21 0.19062648E+00 0.18729513E+03</pdfrwt>
<pdfrwt beam="2">  1       21 0.83332501E-02 0.18729513E+03</pdfrwt>
<totfact> 0.17337452E+04</totfact>
</mgrwt>
</event>
<event>
 4    1  0.4050555E+000  0.1799858E+03  0.7546771E-02  0.1167817E+00
         21   -1    0    0  503  502  0.00000000000E+00  0.00000000000E+00  0.75942104013E+03  0.75942104013E+03  0.00000000000E+00 0. -1.
         21   -1    0    0  501  503 -0.00000000000E+00 -0.00000000000E+00 -0.10493974676E+03  0.10493974676E+03  0.00000000000E+00 0. -1.
          6    1    1    2  501    0  0.31779104083E+02  0.38157302508E+02 -0.57083445740E+01  0.18007630713E+03  0.17300000000E+03 0. -1.
         -6    1    1    2    0  502 -0.31779104083E+02 -0.38157302508E+02  0.66018963795E+03  0.68428447976E+03  0.17300000000E+03 0. -1.
<mgrwt>
<rscale>  2 0.17998581E+03</rscale>
<asrwt>0</asrwt>
<pdfrwt beam="1">  1       21 0.11683400E+00 0.17998581E+03</pdfrwt>
<pdfrwt beam="2">  1       21 0.16144577E-01 0.17998581E+03</pdfrwt>
<totfact> 0.19502884E+04</totfact>
</mgrwt>
</event>
<event>
 4    1  0.4050555E+000  0.2224829E+03  0.7546771E-02  0.1132045E+00
         21   -1    0    0  501  502  0.00000000000E+00  0.00000000000E+00  0.14775193361E+03  0.14775193361E+03  0.00000000000E+00 0.  1.
         21   -1    0    0  502  503 -0.00000000000E+00 -0.00000000000E+00 -0.70949075481E+03  0.70949075481E+03  0.00000000000E+00 0. -1.
          6    1    1    2  501    0  0.10256475832E+03  0.95132081739E+02  0.30527375657E+02  0.22456750275E+03  0.17300000000E+03 0.  1.
         -6    1    1    2    0  503 -0.10256475832E+03 -0.95132081739E+02 -0.59226619686E+03  0.63267518568E+03  0.17300000000E+03 0. -1.
<mgrwt>
<rscale>  2 0.22248290E+03</rscale>
<asrwt>0</asrwt>
<pdfrwt beam="1">  1       21 0.22731067E-01 0.22248290E+03</pdfrwt>
<pdfrwt beam="2">  1       21 0.10915242E+00 0.22248290E+03</pdfrwt>
<totfact> 0.11838636E+04</totfact>
</mgrwt>
</event>
<event>
 4    1  0.4050555E+000  0.1742948E+03  0.7546771E-02  0.1173442E+00
         21   -1    0    0  503  502  0.00000000000E+00  0.00000000000E+00  0.13962472295E+02  0.13962472295E+02  0.00000000000E+00 0. -1.
         21   -1    0    0  501  503 -0.00000000000E+00 -0.00000000000E+00 -0.21872439307E+04  0.21872439307E+04  0.00000000000E+00 0. -1.
          6    1    1    2  501    0  0.52524805827E+01  0.20545207775E+02 -0.10068180961E+04  0.10217932142E+04  0.17300000000E+03 0. -1.
         -6    1    1    2    0  502 -0.52524805827E+01 -0.20545207775E+02 -0.11664633624E+04  0.11794131888E+04  0.17300000000E+03 0. -1.
<mgrwt>
<rscale>  2 0.17429485E+03</rscale>
<asrwt>0</asrwt>
<pdfrwt beam="1">  1       21 0.21480742E-02 0.17429485E+03</pdfrwt>
<pdfrwt beam="2">  1       21 0.33649882E+00 0.17429485E+03</pdfrwt>
<totfact> 0.23471326E+04</totfact>
</mgrwt>
</event>
<event>
 4    1  0.4050555E+000  0.3757356E+03  0.7546771E-02  0.1052521E+00
         21   -1    0    0  501  502  0.00000000000E+00  0.00000000000E+00  0.11833813371E+03  0.11833813371E+03  0.00000000000E+00 0.  1.
         21   -1    0    0  502  503 -0.00000000000E+00 -0.00000000000E+00 -0.12352781550E+04  0.12352781550E+04  0.00000000000E+00 0. -1.
          6    1    1    2  501    0  0.28826021527E+03 -0.16779242044E+03 -0.43325755831E+03  0.57348876179E+03  0.17300000000E+03 0. -1.
         -6    1    1    2    0  503 -0.28826021527E+03  0.16779242044E+03 -0.68368246297E+03  0.78012752691E+03  0.17300000000E+03 0. -1.
<mgrwt>
<rscale>  2 0.37573561E+03</rscale>
<asrwt>0</asrwt>
<pdfrwt beam="1">  1       21 0.18205868E-01 0.37573561E+03</pdfrwt>
<pdfrwt beam="2">  1       21 0.19004278E+00 0.37573561E+03</pdfrwt>
<totfact> 0.37948533E+03</totfact>
</mgrwt>
</event>
<event>
 4    1  0.4050555E+000  0.2517509E+03  0.7546771E-02  0.1112203E+00
         21   -1    0    0  501  502  0.00000000000E+00  0.00000000000E+00  0.83244007288E+02  0.83244007288E+02  0.00000000000E+00 0. -1.
         21   -1    0    0  502  503 -0.00000000000E+00 -0.00000000000E+00 -0.76650490044E+03  0.76650490044E+03  0.00000000000E+00 0.  1.
          6    1    1    2  501    0 -0.17998394193E+03  0.32485298716E+02 -0.37644528106E+03  0.45286815258E+03  0.17300000000E+03 0. -1.
         -6    1    1    2    0  503  0.17998394193E+03 -0.32485298716E+02 -0.30681561209E+03  0.39688075515E+03  0.17300000000E+03 0.  1.
<mgrwt>
<rscale>  2 0.25175090E+03</rscale>
<asrwt>0</asrwt>
<pdfrwt beam="1">  1       21 0.12806771E-01 0.25175090E+03</pdfrwt>
<pdfrwt beam="2">  1       21 0.11792383E+00 0.25175090E+03</pdfrwt>
<totfact> 0.27887063E+04</totfact>
</mgrwt>
</event>
<event>
 4    1  0.4050555E+000  0.2526249E+03  0.7546771E-02  0.1111657E+00
         21   -1    0    0  501  502  0.00000000000E+00  0.00000000000E+00  0.34102693328E+04  0.34102693328E+04  0.00000000000E+00 0.  1.
         21   -1    0    0  502  503 -0.00000000000E+00 -0.00000000000E+00 -0.24436055161E+02  0.24436055161E+02  0.00000000000E+00 0. -1.
          6    1    1    2  501    0 -0.12462276971E+03  0.13549716112E+03  0.25239627863E+04  0.25365739615E+04  0.17300000000E+03 0.  1.
         -6    1    1    2    0  503  0.12462276971E+03 -0.13549716112E+03  0.86187049128E+03  0.89813142643E+03  0.17300000000E+03 0.  1.
<mgrwt>
<rscale>  2 0.25262485E+03</rscale>
<asrwt>0</asrwt>
<pdfrwt beam="1">  1       21 0.52465644E+00 0.25262485E+03</pdfrwt>
<pdfrwt beam="2">  1       21 0.37593958E-02 0.25262485E+03</pdfrwt>
<totfact> 0.50323516E+02</totfact>
</mgrwt>
</event>
<event>
 4    1  0.4050555E+000  0.1765108E+03  0.7546771E-02  0.1171223E+00
         21   -1    0    0  501  502  0.00000000000E+00  0.00000000000E+00  0.22455802495E+03  0.22455802495E+03  0.00000000000E+00 0. -1.
         21   -1    0    0  502  503 -0.00000000000E+00 -0.00000000000E+00 -0.75668644506E+03  0.75668644506E+03  0.00000000000E+00 0. -1.
          6    1    1    2  501    0 -0.31621412549E+02  0.15071969547E+02  0.17730268642E+03  0.25018457308E+03  0.17300000000E+03 0. -1.
         -6    1    1    2    0  503  0.31621412549E+02 -0.15071969547E+02 -0.70943110653E+03  0.73105989694E+03  0.17300000000E+03 0. -1.
<mgrwt>
<rscale>  2 0.17651084E+03</rscale>
<asrwt>0</asrwt>
<pdfrwt beam="1">  1       21 0.34547389E-01 0.17651084E+03</pdfrwt>
<pdfrwt beam="2">  1       21 0.11641330E+00 0.17651084E+03</pdfrwt>
<totfact> 0.46575152E+03</totfact>
</mgrwt>
</event>
<event>
 4    1  0.4050555E+000  0.2158833E+03  0.7546771E-02  0.1136990E+00
         21   -1    0    0  501  502  0.00000000000E+00  0.00000000000E+00  0.89358107729E+02  0.89358107729E+02  0.00000000000E+00 0. -1.
         21   -1    0    0  502  503 -0.00000000000E+00 -0.00000000000E+00 -0.65202764104E+03  0.65202764104E+03  0.00000000000E+00 0.  1.
          6    1    1    2  501    0  0.70757510550E+02 -0.10802774432E+03 -0.11551642719E+03  0.24484620437E+03  0.17300000000E+03 0. -1.
         -6    1    1    2    0  503 -0.70757510550E+02  0.10802774432E+03 -0.44715310612E+03  0.49653954440E+03  0.17300000000E+03 0.  1.
<mgrwt>
<rscale>  2 0.21588335E+03</rscale>
<asrwt>0</asrwt>
<pdfrwt beam="1">  1       21 0.13747401E-01 0.21588335E+03</pdfrwt>
<pdfrwt beam="2">  1       21 0.10031194E+00 0.21588335E+03</pdfrwt>
<totfact> 0.36983840E+04</totfact>
</mgrwt>
</event>
<event>
 4    1  0.4050555E+000  0.1776469E+03  0.7546771E-02  0.1170100E+00
         21   -1    0    0  501  502  0.00000000000E+00  0.00000000000E+00  0.61358110045E+03  0.61358110045E+03  0.00000000000E+00 0.  1.
         21   -1    0    0  502  503 -0.00000000000E+00 -0.00000000000E+00 -0.92829262112E+02  0.92829262112E+02  0.00000000000E+00 0.  1.
          6    1    1    2  501    0  0.38866853954E+02 -0.10899722906E+02  0.49624127645E+03  0.52708048792E+03  0.17300000000E+03 0.  1.
         -6    1    1    2    0  503 -0.38866853954E+02  0.10899722906E+02  0.24510561894E+02  0.17932987464E+03  0.17300000000E+03 0.  1.
<mgrwt>
<rscale>  2 0.17764694E+03</rscale>
<asrwt>0</asrwt>
<pdfrwt beam="1">  1       21 0.94397090E-01 0.17764694E+03</pdfrwt>
<pdfrwt beam="2">  1       21 0.14281425E-01 0.17764694E+03</pdfrwt>
<totfact> 0.40644532E+04</totfact>
</mgrwt>
</event>
<event>
 4    1  0.4050555E+000  0.1954093E+03  0.7546771E-02  0.1153671E+00
         21   -1    0    0  501  502  0.00000000000E+00  0.00000000000E+00  0.27582966924E+03  0.27582966924E+03  0.00000000000E+00 0. -1.
         21   -1    0    0  502  503 -0.00000000000E+00 -0.00000000000E+00 -0.16422402421E+03  0.16422402421E+03  0.00000000000E+00 0. -1.
          6    1    1    2  501    0  0.23261519369E+02 -0.87833355002E+02  0.14299251175E+03  0.24213974261E+03  0.17300000000E+03 0. -1.
         -6    1    1    2    0  503 -0.23261519369E+02  0.87833355002E+02 -0.31386866722E+02  0.19791395084E+03  0.17300000000E+03 0. -1.
<mgrwt>
<rscale>  2 0.19540931E+03</rscale>
<asrwt>0</asrwt>
<pdfrwt beam="1">  1       21 0.42435334E-01 0.19540931E+03</pdfrwt>
<pdfrwt beam="2">  1       21 0.25265235E-01 0.19540931E+03</pdfrwt>
<totfact> 0.79221659E+04</totfact>
</mgrwt>
</event>
<event>
 4    1  0.4050555E+000  0.1804618E+03  0.7546771E-02  0.1167357E+00
         21   -1    0    0  503  502  0.00000000000E+00  0.00000000000E+00  0.10881885406E+04  0.10881885406E+04  0.00000000000E+00 0.  1.
         21   -1    0    0  501  503 -0.00000000000E+00 -0.00000000000E+00 -0.16878075544E+03  0.16878075544E+03  0.00000000000E+00 0.  1.
          6    1    1    2  501    0 -0.44765524617E+02  0.25169846603E+02 -0.11034441311E+03  0.21152390616E+03  0.17300000000E+03 0.  1.
         -6    1    1    2    0  502  0.44765524617E+02 -0.25169846603E+02  0.10297521983E+04  0.10454453899E+04  0.17300000000E+03 0.  1.
<mgrwt>
<rscale>  2 0.18046183E+03</rscale>
<asrwt>0</asrwt>
<pdfrwt beam="1">  1       21 0.16741362E+00 0.18046183E+03</pdfrwt>
<pdfrwt beam="2">  1       21 0.25966271E-01 0.18046183E+03</pdfrwt>
<totfact> 0.31714512E+03</totfact>
</mgrwt>
</event>
<event>
 4    1  0.4050555E+000  0.1989838E+03  0.7546771E-02  0.1150599E+00
         21   -1    0    0  501  502  0.00000000000E+00  0.00000000000E+00  0.18017674256E+02  0.18017674256E+02  0.00000000000E+00 0.  1.
         21   -1    0    0  502  503 -0.00000000000E+00 -0.00000000000E+00 -0.22012133030E+04  0.22012133030E+04  0.00000000000E+00 0.  1.
          6    1    1    2  501    0 -0.60743489426E+02  0.77303163865E+02 -0.10462663117E+04  0.10650200682E+04  0.17300000000E+03 0.  1.
         -6    1    1    2    0  503  0.60743489426E+02 -0.77303163865E+02 -0.11369293170E+04  0.11542109090E+04  0.17300000000E+03 0.  1.
<mgrwt>
<rscale>  2 0.19898379E+03</rscale>
<asrwt>0</asrwt>
<pdfrwt beam="1">  1       21 0.27719519E-02 0.19898379E+03</pdfrwt>
<pdfrwt beam="2">  1       21 0.33864796E+00 0.19898379E+03</pdfrwt>
<totfact> 0.14598607E+04</totfact>
</mgrwt>
</event>
<event>
 4    1  0.4050555E+000  0.2755159E+03  0.7546771E-02  0.1098164E+00
         21   -1    0    0  501  502  0.00000000000E+00  0.00000000000E+00  0.17737988992E+03  0.17737988992E+03  0.00000000000E+00 0. -1.
         21   -1    0    0  502  503 -0.00000000000E+00 -0.00000000000E+00 -0.21105371481E+04  0.21105371481E+04  0.00000000000E+00 0. -1.
          6    1    1    2  501    0 -0.43474864347E+02 -0.20997607991E+03  0.54838352091E+02  0.28092038520E+03  0.17300000000E+03 0. -1.
         -6    1    1    2    0  503  0.43474864347E+02  0.20997607991E+03 -0.19879956103E+04  0.20069966528E+04  0.17300000000E+03 0. -1.
<mgrwt>
<rscale>  2 0.27551591E+03</rscale>
<asrwt>0</asrwt>
<pdfrwt beam="1">  1       21 0.27289214E-01 0.27551591E+03</pdfrwt>
<pdfrwt beam="2">  1       21 0.32469802E+00 0.27551591E+03</pdfrwt>
<totfact> 0.28271258E+02</totfact>
</mgrwt>
</event>
<event>
 4    1  0.4050555E+000  0.1731583E+03  0.7546771E-02  0.1174594E+00
         21   -1    0    0  503  502  0.00000000000E+00  0.00000000000E+00  0.49610776125E+03  0.49610776125E+03  0.00000000000E+00 0.  1.
         21   -1    0    0  501  503 -0.00000000000E+00 -0.00000000000E+00 -0.11834515698E+03  0.11834515698E+03  0.00000000000E+00 0.  1.
          6    1    1    2  501    0 -0.43689408244E+01 -0.59769131579E+01 -0.26024980608E+02  0.17510314318E+03  0.17300000000E+03 0.  1.
         -6    1    1    2    0  502  0.43689408244E+01  0.59769131579E+01  0.40378758488E+03  0.43934977505E+03  0.17300000000E+03 0.  1.
<mgrwt>
<rscale>  2 0.17315834E+03</rscale>
<asrwt>0</asrwt>
<pdfrwt beam="1">  1       21 0.76324270E-01 0.17315834E+03</pdfrwt>
<pdfrwt beam="2">  1       21 0.18206947E-01 0.17315834E+03</pdfrwt>
<totfact> 0.42447316E+04</totfact>
</mgrwt>
</event>
<event>
 4    1  0.4050555E+000  0.1733828E+03  0.7546771E-02  0.1174365E+00
         21   -1    0    0  501  502  0.00000000000E+00  0.00000000000E+00  0.41221866755E+02  0.41221866755E+02  0.00000000000E+00 0.  1.
         21   -1    0    0  502  503 -0.00000000000E+00 -0.00000000000E+00 -0.74705640392E+03  0.74705640392E+03  0.00000000000E+00 0.  1.
          6    1    1    2  501    0 -0.91908353367E+01  0.69377448812E+01 -0.29209032371E+03  0.33967390386E+03  0.17300000000E+03 0.  1.
         -6    1    1    2    0  503  0.91908353367E+01 -0.69377448812E+01 -0.41374421345E+03  0.44860436681E+03  0.17300000000E+03 0.  1.
<mgrwt>
<rscale>  2 0.17338282E+03</rscale>
<asrwt>0</asrwt>
<pdfrwt beam="1">  1       21 0.63418256E-02 0.17338282E+03</pdfrwt>
<pdfrwt beam="2">  1       21 0.11493176E+00 0.17338282E+03</pdfrwt>
<totfact> 0.10613960E+05</totfact>
</mgrwt>
</event>
<event>
 4    1  0.4050555E+000  0.2434592E+03  0.7546771E-02  0.1117510E+00
         21   -1    0    0  501  502  0.00000000000E+00  0.00000000000E+00  0.20875275179E+03  0.20875275179E+03  0.00000000000E+00 0. -1.
         21   -1    0    0  502  503 -0.00000000000E+00 -0.00000000000E+00 -0.44438871904E+03  0.44438871904E+03  0.00000000000E+00 0.  1.
          6    1    1    2  501    0 -0.16206768347E+03  0.55474683457E+02  0.78413910254E+02  0.25577551847E+03  0.17300000000E+03 0. -1.
         -6    1    1    2    0  503  0.16206768347E+03 -0.55474683457E+02 -0.31404987751E+03  0.39736595236E+03  0.17300000000E+03 0.  1.
<mgrwt>
<rscale>  2 0.24345918E+03</rscale>
<asrwt>0</asrwt>
<pdfrwt beam="1">  1       21 0.32115808E-01 0.24345918E+03</pdfrwt>
<pdfrwt beam="2">  1       21 0.68367495E-01 0.24345918E+03</pdfrwt>
<totfact> 0.17681339E+04</totfact>
</mgrwt>
</event>
<event>
 4    1  0.4050555E+000  0.2032241E+03  0.7546771E-02  0.1147047E+00
         21   -1    0    0  503  502  0.00000000000E+00  0.00000000000E+00  0.13656515049E+03  0.13656515049E+03  0.00000000000E+00 0.  1.
         21   -1    0    0  501  503 -0.00000000000E+00 -0.00000000000E+00 -0.10030880617E+04  0.10030880617E+04  0.00000000000E+00 0. -1.
          6    1    1    2  501    0  0.10355478266E+03  0.25444767199E+02 -0.90950528481E+03  0.93193341623E+03  0.17300000000E+03 0. -1.
         -6    1    1    2    0  502 -0.10355478266E+03 -0.25444767199E+02  0.42982373612E+02  0.20771979595E+03  0.17300000000E+03 0.  1.
<mgrwt>
<rscale>  2 0.20322409E+03</rscale>
<asrwt>0</asrwt>
<pdfrwt beam="1">  1       21 0.21010023E-01 0.20322409E+03</pdfrwt>
<pdfrwt beam="2">  1       21 0.15432124E+00 0.20322409E+03</pdfrwt>
<totfact> 0.57859616E+03</totfact>
</mgrwt>
</event>
<event>
 4    1  0.4050555E+000  0.3015571E+03  0.7546771E-02  0.1084465E+00
         21   -1    0    0  501  502  0.00000000000E+00  0.00000000000E+00  0.36250392131E+03  0.36250392131E+03  0.00000000000E+00 0. -1.
         21   -1    0    0  502  503 -0.00000000000E+00 -0.00000000000E+00 -0.56514195270E+03  0.56514195270E+03  0.00000000000E+00 0. -1.
          6    1    1    2  501    0  0.20231581525E+03  0.14168985208E+03  0.24456869590E+03  0.38826608183E+03  0.17300000000E+03 0. -1.
         -6    1    1    2    0  503 -0.20231581525E+03 -0.14168985208E+03 -0.44720672728E+03  0.53937979218E+03  0.17300000000E+03 0. -1.
<mgrwt>
<rscale>  2 0.30155713E+03</rscale>
<asrwt>0</asrwt>
<pdfrwt beam="1">  1       21 0.55769834E-01 0.30155713E+03</pdfrwt>
<pdfrwt beam="2">  1       21 0.86944916E-01 0.30155713E+03</pdfrwt>
<totfact> 0.31997533E+03</totfact>
</mgrwt>
</event>
<event>
 4    1  0.4050555E+000  0.1901210E+03  0.7546771E-02  0.1158352E+00
         21   -1    0    0  503  502  0.00000000000E+00  0.00000000000E+00  0.35639708636E+03  0.35639708636E+03  0.00000000000E+00 0.  1.
         21   -1    0    0  501  503 -0.00000000000E+00 -0.00000000000E+00 -0.10463695529E+03  0.10463695529E+03  0.00000000000E+00 0. -1.
          6    1    1    2  501    0  0.49222969109E+02  0.61596312226E+02  0.85465077614E+02  0.20844732154E+03  0.17300000000E+03 0. -1.
         -6    1    1    2    0  502 -0.49222969109E+02 -0.61596312226E+02  0.16629505346E+03  0.25258672010E+03  0.17300000000E+03 0.  1.
<mgrwt>
<rscale>  2 0.19012103E+03</rscale>
<asrwt>0</asrwt>
<pdfrwt beam="1">  1       21 0.54830320E-01 0.19012103E+03</pdfrwt>
<pdfrwt beam="2">  1       21 0.16097993E-01 0.19012103E+03</pdfrwt>
<totfact> 0.10836036E+05</totfact>
</mgrwt>
</event>
<event>
 4    1  0.4050555E+000  0.2003449E+03  0.7546771E-02  0.1149448E+00
         21   -1    0    0  501  502  0.00000000000E+00  0.00000000000E+00  0.79568662183E+03  0.79568662183E+03  0.00000000000E+00 0. -1.
         21   -1    0    0  502  503 -0.00000000000E+00 -0.00000000000E+00 -0.50523455937E+02  0.50523455937E+02  0.00000000000E+00 0. -1.
          6    1    1    2  501    0 -0.10094740671E+03 -0.43265911446E+01  0.38929640449E+03  0.43782392449E+03  0.17300000000E+03 0. -1.
         -6    1    1    2    0  503  0.10094740671E+03  0.43265911446E+01  0.35586676140E+03  0.40838615327E+03  0.17300000000E+03 0. -1.
<mgrwt>
<rscale>  2 0.20034495E+03</rscale>
<asrwt>0</asrwt>
<pdfrwt beam="1">  1       21 0.12241332E+00 0.20034495E+03</pdfrwt>
<pdfrwt beam="2">  1       21 0.77728400E-02 0.20034495E+03</pdfrwt>
<totfact> 0.63163921E+04</totfact>
</mgrwt>
</event>
<event>
 4    1  0.4050555E+000  0.1988640E+03  0.7546771E-02  0.1150701E+00
         21   -1    0    0  501  502  0.00000000000E+00  0.00000000000E+00  0.32245153143E+03  0.32245153143E+03  0.00000000000E+00 0.  1.
         21   -1    0    0  502  503 -0.00000000000E+00 -0.00000000000E+00 -0.13327113010E+03  0.13327113010E+03  0.00000000000E+00 0.  1.
          6    1    1    2  501    0 -0.97961337371E+02 -0.46324759628E+01  0.15893328175E+03  0.25457154495E+03  0.17300000000E+03 0.  1.
         -6    1    1    2    0  503  0.97961337371E+02  0.46324759628E+01  0.30247119582E+02  0.20115111657E+03  0.17300000000E+03 0.  1.
<mgrwt>
<rscale>  2 0.19886398E+03</rscale>
<asrwt>0</asrwt>
<pdfrwt beam="1">  1       21 0.49607928E-01 0.19886398E+03</pdfrwt>
<pdfrwt beam="2">  1       21 0.20503251E-01 0.19886398E+03</pdfrwt>
<totfact> 0.85126813E+04</totfact>
</mgrwt>
</event>
<event>
 4    1  0.4050555E+000  0.1804616E+03  0.7546771E-02  0.1167357E+00
         21   -1    0    0  503  502  0.00000000000E+00  0.00000000000E+00  0.22296672725E+03  0.22296672725E+03  0.00000000000E+00 0.  1.
         21   -1    0    0  501  503 -0.00000000000E+00 -0.00000000000E+00 -0.15683628551E+03  0.15683628551E+03  0.00000000000E+00 0.  1.
          6    1    1    2  501    0  0.50031225740E+02 -0.11587599080E+02 -0.16714321848E+02  0.18123400497E+03  0.17300000000E+03 0.  1.
         -6    1    1    2    0  502 -0.50031225740E+02  0.11587599080E+02  0.82844763591E+02  0.19856900779E+03  0.17300000000E+03 0.  1.
<mgrwt>
<rscale>  2 0.18046162E+03</rscale>
<asrwt>0</asrwt>
<pdfrwt beam="1">  1       21 0.34302574E-01 0.18046162E+03</pdfrwt>
<pdfrwt beam="2">  1       21 0.24128659E-01 0.18046162E+03</pdfrwt>
<totfact> 0.13326987E+05</totfact>
</mgrwt>
</event>
<event>
 4    1  0.4050555E+000  0.2262168E+03  0.7546771E-02  0.1129331E+00
         21   -1    0    0  503  502  0.00000000000E+00  0.00000000000E+00  0.10754402704E+03  0.10754402704E+03  0.00000000000E+00 0.  1.
         21   -1    0    0  501  503 -0.00000000000E+00 -0.00000000000E+00 -0.69264844248E+03  0.69264844248E+03  0.00000000000E+00 0.  1.
          6    1    1    2  501    0 -0.73229446212E+02 -0.12602569143E+03 -0.51639522418E+03  0.56377127831E+03  0.17300000000E+03 0.  1.
         -6    1    1    2    0  502  0.73229446212E+02  0.12602569143E+03 -0.68709191258E+02  0.23642119121E+03  0.17300000000E+03 0.  1.
<mgrwt>
<rscale>  2 0.22621677E+03</rscale>
<asrwt>0</asrwt>
<pdfrwt beam="1">  1       21 0.16545236E-01 0.22621677E+03</pdfrwt>
<pdfrwt beam="2">  1       21 0.10656129E+00 0.22621677E+03</pdfrwt>
<totfact> 0.22672137E+04</totfact>
</mgrwt>
</event>
<event>
 4    1  0.4050555E+000  0.1879449E+03  0.7546771E-02  0.1160328E+00
         21   -1    0    0  503  502  0.00000000000E+00  0.00000000000E+00  0.16917225433E+04  0.16917225433E+04  0.00000000000E+00 0.  1.
         21   -1    0    0  501  503 -0.00000000000E+00 -0.00000000000E+00 -0.23872758800E+03  0.23872758800E+03  0.00000000000E+00 0.  1.
          6    1    1    2  501    0 -0.43396199267E+02  0.59254149116E+02 -0.19555066001E+03  0.27122563472E+03  0.17300000000E+03 0.  1.
         -6    1    1    2    0  502  0.43396199267E+02 -0.59254149116E+02  0.16485456153E+04  0.16592244965E+04  0.17300000000E+03 0.  1.
<mgrwt>
<rscale>  2 0.18794490E+03</rscale>
<asrwt>0</asrwt>
<pdfrwt beam="1">  1       21 0.26026500E+00 0.18794490E+03</pdfrwt>
<pdfrwt beam="2">  1       21 0.36727322E-01 0.18794490E+03</pdfrwt>
<totfact> 0.41672236E+02</totfact>
</mgrwt>
</event>
<event>
 4    1  0.4050555E+000  0.1914481E+03  0.7546771E-02  0.1157162E+00
         21   -1    0    0  503  502  0.00000000000E+00  0.00000000000E+00  0.11855211727E+04  0.11855211727E+04  0.00000000000E+00 0.  1.
         21   -1    0    0  501  503 -0.00000000000E+00 -0.00000000000E+00 -0.37600757469E+02  0.37600757469E+02  0.00000000000E+00 0.  1.
          6    1    1    2  501    0  0.77250450744E+02  0.27491125642E+02  0.31611338992E+03  0.36956740849E+03  0.17300000000E+03 0.  1.
         -6    1    1    2    0  502 -0.77250450744E+02 -0.27491125642E+02  0.83180702535E+03  0.85355452172E+03  0.17300000000E+03 0.  1.
<mgrwt>
<rscale>  2 0.19144815E+03</rscale>
<asrwt>0</asrwt>
<pdfrwt beam="1">  1       21 0.18238784E+00 0.19144815E+03</pdfrwt>
<pdfrwt beam="2">  1       21 0.57847328E-02 0.19144815E+03</pdfrwt>
<totfact> 0.36824276E+04</totfact>
</mgrwt>
</event>
<event>
 4    1  0.4050555E+000  0.2749994E+03  0.7546771E-02  0.1098452E+00
         21   -1    0    0  503  502  0.00000000000E+00  0.00000000000E+00  0.88294083718E+03  0.88294083718E+03  0.00000000000E+00 0.  1.
         21   -1    0    0  501  503 -0.00000000000E+00 -0.00000000000E+00 -0.88163696839E+02  0.88163696839E+02  0.00000000000E+00 0. -1.
          6    1    1    2  501    0  0.16716243419E+03 -0.13323813608E+03  0.31541582322E+03  0.41846364460E+03  0.17300000000E+03 0.  1.
         -6    1    1    2    0  502 -0.16716243419E+03  0.13323813608E+03  0.47936131713E+03  0.55264088943E+03  0.17300000000E+03 0.  1.
<mgrwt>
<rscale>  2 0.27499942E+03</rscale>
<asrwt>0</asrwt>
<pdfrwt beam="1">  1       21 0.13583705E+00 0.27499942E+03</pdfrwt>
<pdfrwt beam="2">  1       21 0.13563646E-01 0.27499942E+03</pdfrwt>
<totfact> 0.17360191E+04</totfact>
</mgrwt>
</event>
<event>
 4    1  0.4050555E+000  0.2605887E+03  0.7546771E-02  0.1106790E+00
         21   -1    0    0  501  502  0.00000000000E+00  0.00000000000E+00  0.34256863596E+03  0.34256863596E+03  0.00000000000E+00 0. -1.
         21   -1    0    0  502  503 -0.00000000000E+00 -0.00000000000E+00 -0.21490708886E+03  0.21490708886E+03  0.00000000000E+00 0.  1.
          6    1    1    2  501    0 -0.14623941251E+03 -0.12880802419E+03  0.14148502171E+03  0.29652063037E+03  0.17300000000E+03 0. -1.
         -6    1    1    2    0  503  0.14623941251E+03  0.12880802419E+03 -0.13823474606E+02  0.26095509445E+03  0.17300000000E+03 0.  1.
<mgrwt>
<rscale>  2 0.26058870E+03</rscale>
<asrwt>0</asrwt>
<pdfrwt beam="1">  1       21 0.52702867E-01 0.26058870E+03</pdfrwt>
<pdfrwt beam="2">  1       21 0.33062629E-01 0.26058870E+03</pdfrwt>
<totfact> 0.29068344E+04</totfact>
</mgrwt>
</event>
<event>
 4    1  0.4050555E+000  0.2449618E+03  0.7546771E-02  0.1116531E+00
         21   -1    0    0  503  502  0.00000000000E+00  0.00000000000E+00  0.36796061410E+03  0.36796061410E+03  0.00000000000E+00 0.  1.
         21   -1    0    0  501  503 -0.00000000000E+00 -0.00000000000E+00 -0.32148268496E+03  0.32148268496E+03  0.00000000000E+00 0.  1.
          6    1    1    2  501    0 -0.13417760277E+03 -0.10988012147E+03 -0.21873788454E+03  0.32840909292E+03  0.17300000000E+03 0.  1.
         -6    1    1    2    0  502  0.13417760277E+03  0.10988012147E+03  0.26521581367E+03  0.36103420614E+03  0.17300000000E+03 0.  1.
<mgrwt>
<rscale>  2 0.24496177E+03</rscale>
<asrwt>0</asrwt>
<pdfrwt beam="1">  1       21 0.56609325E-01 0.24496177E+03</pdfrwt>
<pdfrwt beam="2">  1       21 0.49458875E-01 0.24496177E+03</pdfrwt>
<totfact> 0.11072855E+04</totfact>
</mgrwt>
</event>
<event>
 4    1  0.4050555E+000  0.2310538E+03  0.7546771E-02  0.1125900E+00
         21   -1    0    0  503  502  0.00000000000E+00  0.00000000000E+00  0.10864265223E+04  0.10864265223E+04  0.00000000000E+00 0. -1.
         21   -1    0    0  501  503 -0.00000000000E+00 -0.00000000000E+00 -0.61799651268E+02  0.61799651268E+02  0.00000000000E+00 0. -1.
          6    1    1    2  501    0  0.14683543311E+03 -0.43545280434E+02  0.25245688234E+03  0.34222845192E+03  0.17300000000E+03 0. -1.
         -6    1    1    2    0  502 -0.14683543311E+03  0.43545280434E+02  0.77216998874E+03  0.80599772170E+03  0.17300000000E+03 0. -1.
<mgrwt>
<rscale>  2 0.23105375E+03</rscale>
<asrwt>0</asrwt>
<pdfrwt beam="1">  1       21 0.16714253E+00 0.23105375E+03</pdfrwt>
<pdfrwt beam="2">  1       21 0.95076394E-02 0.23105375E+03</pdfrwt>
<totfact> 0.19326989E+04</totfact>
</mgrwt>
</event>
<event>
 4    1  0.4050555E+000  0.2179824E+03  0.7546771E-02  0.1135396E+00
         21   -1    0    0  503  502  0.00000000000E+00  0.00000000000E+00  0.85633185868E+03  0.85633185868E+03  0.00000000000E+00 0. -1.
         21   -1    0    0  501  503 -0.00000000000E+00 -0.00000000000E+00 -0.10394307392E+03  0.10394307392E+03  0.00000000000E+00 0. -1.
          6    1    1    2  501    0 -0.11620560239E+02  0.13210714613E+03  0.48373644393E+02  0.22328534424E+03  0.17300000000E+03 0. -1.
         -6    1    1    2    0  502  0.11620560239E+02 -0.13210714613E+03  0.70401514037E+03  0.73698958836E+03  0.17300000000E+03 0. -1.
<mgrwt>
<rscale>  2 0.21798242E+03</rscale>
<asrwt>0</asrwt>
<pdfrwt beam="1">  1       21 0.13174336E+00 0.21798242E+03</pdfrwt>
<pdfrwt beam="2">  1       21 0.15991243E-01 0.21798242E+03</pdfrwt>
<totfact> 0.14341723E+04</totfact>
</mgrwt>
</event>
<event>
 4    1  0.4050555E+000  0.2364145E+03  0.7546771E-02  0.1122205E+00
         21   -1    0    0  501  502  0.00000000000E+00  0.00000000000E+00  0.28346620458E+03  0.28346620458E+03  0.00000000000E+00 0. -1.
         21   -1    0    0  502  503 -0.00000000000E+00 -0.00000000000E+00 -0.26443020591E+03  0.26443020591E+03  0.00000000000E+00 0.  1.
          6    1    1    2  501    0 -0.14256156594E+03 -0.75093344305E+02  0.14767826293E+03  0.27874841665E+03  0.17300000000E+03 0. -1.
         -6    1    1    2    0  503  0.14256156594E+03  0.75093344305E+02 -0.12864226425E+03  0.26914799385E+03  0.17300000000E+03 0.  1.
<mgrwt>
<rscale>  2 0.23641449E+03</rscale>
<asrwt>0</asrwt>
<pdfrwt beam="1">  1       21 0.43610185E-01 0.23641449E+03</pdfrwt>
<pdfrwt beam="2">  1       21 0.40681570E-01 0.23641449E+03</pdfrwt>
<totfact> 0.28754034E+04</totfact>
</mgrwt>
</event>
<event>
 4    1  0.4050555E+000  0.1793206E+03  0.7546771E-02  0.1168462E+00
         21   -1    0    0  503  502  0.00000000000E+00  0.00000000000E+00  0.63507822637E+02  0.63507822637E+02  0.00000000000E+00 0. -1.
         21   -1    0    0  501  503 -0.00000000000E+00 -0.00000000000E+00 -0.55113992075E+03  0.55113992075E+03  0.00000000000E+00 0.  1.
          6    1    1    2  501    0 -0.12538989004E+02 -0.45493380053E+02 -0.33144662194E+03  0.37684577358E+03  0.17300000000E+03 0.  1.
         -6    1    1    2    0  502  0.12538989004E+02  0.45493380053E+02 -0.15618547617E+03  0.23780196980E+03  0.17300000000E+03 0. -1.
<mgrwt>
<rscale>  2 0.17932059E+03</rscale>
<asrwt>0</asrwt>
<pdfrwt beam="1">  1       21 0.97704346E-02 0.17932059E+03</pdfrwt>
<pdfrwt beam="2">  1       21 0.84790754E-01 0.17932059E+03</pdfrwt>
<totfact> 0.10241218E+05</totfact>
</mgrwt>
</event>
<event>
 4    1  0.4050555E+000  0.2568437E+03  0.7546771E-02  0.1109055E+00
         21   -1    0    0  501  502  0.00000000000E+00  0.00000000000E+00  0.95053170298E+02  0.95053170298E+02  0.00000000000E+00 0. -1.
         21   -1    0    0  502  503 -0.00000000000E+00 -0.00000000000E+00 -0.96531904450E+03  0.96531904450E+03  0.00000000000E+00 0.  1.
          6    1    1    2  501    0 -0.75740774043E+02  0.17407758815E+03 -0.15406058324E+03  0.29950514997E+03  0.17300000000E+03 0. -1.
         -6    1    1    2    0  503  0.75740774043E+02 -0.17407758815E+03 -0.71620529096E+03  0.76086706484E+03  0.17300000000E+03 0.  1.
<mgrwt>
<rscale>  2 0.25684367E+03</rscale>
<asrwt>0</asrwt>
<pdfrwt beam="1">  1       21 0.14623564E-01 0.25684367E+03</pdfrwt>
<pdfrwt beam="2">  1       21 0.14851063E+00 0.25684367E+03</pdfrwt>
<totfact> 0.12089894E+04</totfact>
</mgrwt>
</event>
<event>
 4    1  0.4050555E+000  0.2080044E+03  0.7546771E-02  0.1143156E+00
         21   -1    0    0  501  502  0.00000000000E+00  0.00000000000E+00  0.14175424938E+03  0.14175424938E+03  0.00000000000E+00 0.  1.
         21   -1    0    0  502  503 -0.00000000000E+00 -0.00000000000E+00 -0.44155245481E+03  0.44155245481E+03  0.00000000000E+00 0.  1.
          6    1    1    2  501    0 -0.85964107463E+02 -0.77116763627E+02  0.12162467831E+02  0.20835966171E+03  0.17300000000E+03 0.  1.
         -6    1    1    2    0  503  0.85964107463E+02  0.77116763627E+02 -0.31196067326E+03  0.37494704248E+03  0.17300000000E+03 0.  1.
<mgrwt>
<rscale>  2 0.20800438E+03</rscale>
<asrwt>0</asrwt>
<pdfrwt beam="1">  1       21 0.21808346E-01 0.20800438E+03</pdfrwt>
<pdfrwt beam="2">  1       21 0.67931147E-01 0.20800438E+03</pdfrwt>
<totfact> 0.38531281E+04</totfact>
</mgrwt>
</event>
<event>
 4    1  0.4050555E+000  0.1861418E+03  0.7546771E-02  0.1161988E+00
         21   -1    0    0  501  502  0.00000000000E+00  0.00000000000E+00  0.18180478565E+03  0.18180478565E+03  0.00000000000E+00 0.  1.
         21   -1    0    0  502  503 -0.00000000000E+00 -0.00000000000E+00 -0.19972669736E+03  0.19972669736E+03  0.00000000000E+00 0.  1.
          6    1    1    2  501    0  0.12664392286E+02 -0.67523249466E+02  0.31857787244E+02  0.18884833772E+03  0.17300000000E+03 0.  1.
         -6    1    1    2    0  503 -0.12664392286E+02  0.67523249466E+02 -0.49779698961E+02  0.19268314529E+03  0.17300000000E+03 0.  1.
<mgrwt>
<rscale>  2 0.18614182E+03</rscale>
<asrwt>0</asrwt>
<pdfrwt beam="1">  1       21 0.27969967E-01 0.18614182E+03</pdfrwt>
<pdfrwt beam="2">  1       21 0.30727184E-01 0.18614182E+03</pdfrwt>
<totfact> 0.12443743E+05</totfact>
</mgrwt>
</event>
<event>
 4    1  0.4050555E+000  0.1875944E+03  0.7546771E-02  0.1160649E+00
         21   -1    0    0  501  502  0.00000000000E+00  0.00000000000E+00  0.55501298912E+03  0.55501298912E+03  0.00000000000E+00 0. -1.
         21   -1    0    0  502  503 -0.00000000000E+00 -0.00000000000E+00 -0.75260130275E+02  0.75260130275E+02  0.00000000000E+00 0.  1.
          6    1    1    2  501    0 -0.72541827303E+02  0.58158355996E+00  0.36494108934E+03  0.41033358824E+03  0.17300000000E+03 0. -1.
         -6    1    1    2    0  503  0.72541827303E+02 -0.58158355996E+00  0.11481176950E+03  0.21993953115E+03  0.17300000000E+03 0.  1.
<mgrwt>
<rscale>  2 0.18759439E+03</rscale>
<asrwt>0</asrwt>
<pdfrwt beam="1">  1       21 0.85386611E-01 0.18759439E+03</pdfrwt>
<pdfrwt beam="2">  1       21 0.11578482E-01 0.18759439E+03</pdfrwt>
<totfact> 0.74344025E+04</totfact>
</mgrwt>
</event>
<event>
 4    1  0.4050555E+000  0.1878156E+03  0.7546771E-02  0.1160446E+00
         21   -1    0    0  501  502  0.00000000000E+00  0.00000000000E+00  0.11791446920E+04  0.11791446920E+04  0.00000000000E+00 0.  1.
         21   -1    0    0  502  503 -0.00000000000E+00 -0.00000000000E+00 -0.52005803776E+02  0.52005803776E+02  0.00000000000E+00 0.  1.
          6    1    1    2  501    0  0.66090872349E+02 -0.31268416473E+02  0.96476486494E+03  0.98287637163E+03  0.17300000000E+03 0.  1.
         -6    1    1    2    0  503 -0.66090872349E+02  0.31268416473E+02  0.16237402323E+03  0.24827412410E+03  0.17300000000E+03 0.  1.
<mgrwt>
<rscale>  2 0.18781565E+03</rscale>
<asrwt>0</asrwt>
<pdfrwt beam="1">  1       21 0.18140686E+00 0.18781565E+03</pdfrwt>
<pdfrwt beam="2">  1       21 0.80008937E-02 0.18781565E+03</pdfrwt>
<totfact> 0.21430654E+04</totfact>
</mgrwt>
</event>
<event>
 4    1  0.4050555E+000  0.2489706E+03  0.7546771E-02  0.1113957E+00
         21   -1    0    0  501  502  0.00000000000E+00  0.00000000000E+00  0.88421039874E+02  0.88421039874E+02  0.00000000000E+00 0. -1.
         21   -1    0    0  502  503 -0.00000000000E+00 -0.00000000000E+00 -0.75865417687E+03  0.75865417687E+03  0.00000000000E+00 0. -1.
          6    1    1    2  501    0  0.17693715984E+03  0.27396958403E+02 -0.21839557711E+03  0.33118420850E+03  0.17300000000E+03 0. -1.
         -6    1    1    2    0  503 -0.17693715984E+03 -0.27396958403E+02 -0.45183755988E+03  0.51589100824E+03  0.17300000000E+03 0. -1.
<mgrwt>
<rscale>  2 0.24897058E+03</rscale>
<asrwt>0</asrwt>
<pdfrwt beam="1">  1       21 0.13603237E-01 0.24897058E+03</pdfrwt>
<pdfrwt beam="2">  1       21 0.11671603E+00 0.24897058E+03</pdfrwt>
<totfact> 0.25674155E+04</totfact>
</mgrwt>
</event>
<event>
 4    1  0.4050555E+000  0.2753291E+03  0.7546771E-02  0.1098268E+00
         21   -1    0    0  503  502  0.00000000000E+00  0.00000000000E+00  0.21630133887E+03  0.21630133887E+03  0.00000000000E+00 0.  1.
         21   -1    0    0  501  503 -0.00000000000E+00 -0.00000000000E+00 -0.54665719881E+03  0.54665719881E+03  0.00000000000E+00 0.  1.
          6    1    1    2  501    0  0.10807468336E+03  0.18492430268E+03 -0.39371351440E+03  0.48043362323E+03  0.17300000000E+03 0.  1.
         -6    1    1    2    0  502 -0.10807468336E+03 -0.18492430268E+03  0.63357654462E+02  0.28252491445E+03  0.17300000000E+03 0.  1.
<mgrwt>
<rscale>  2 0.27532914E+03</rscale>
<asrwt>0</asrwt>
<pdfrwt beam="1">  1       21 0.33277129E-01 0.27532914E+03</pdfrwt>
<pdfrwt beam="2">  1       21 0.84101107E-01 0.27532914E+03</pdfrwt>
<totfact> 0.10163576E+04</totfact>
</mgrwt>
</event>
<event>
 4    1  0.4050555E+000  0.2812987E+03  0.7546771E-02  0.1094982E+00
         21   -1    0    0  503  502  0.00000000000E+00  0.00000000000E+00  0.89703933745E+03  0.89703933745E+03  0.00000000000E+00 0. -1.
         21   -1    0    0  501  503 -0.00000000000E+00 -0.00000000000E+00 -0.10166825032E+03  0.10166825032E+03  0.00000000000E+00 0. -1.
          6    1    1    2  501    0  0.33109527724E+02  0.21932562085E+03  0.21601284177E+03  0.35466958792E+03  0.17300000000E+03 0. -1.
         -6    1    1    2    0  502 -0.33109527724E+02 -0.21932562085E+03  0.57935824537E+03  0.64403799986E+03  0.17300000000E+03 0. -1.
<mgrwt>
<rscale>  2 0.28129872E+03</rscale>
<asrwt>0</asrwt>
<pdfrwt beam="1">  1       21 0.13800605E+00 0.28129872E+03</pdfrwt>
<pdfrwt beam="2">  1       21 0.15641270E-01 0.28129872E+03</pdfrwt>
<totfact> 0.12791738E+04</totfact>
</mgrwt>
</event>
<event>
 4    1  0.4050555E+000  0.2959673E+03  0.7546771E-02  0.1087274E+00
         21   -1    0    0  503  502  0.00000000000E+00  0.00000000000E+00  0.18822405287E+03  0.18822405287E+03  0.00000000000E+00 0.  1.
         21   -1    0    0  501  503 -0.00000000000E+00 -0.00000000000E+00 -0.58003267100E+03  0.58003267100E+03  0.00000000000E+00 0. -1.
          6    1    1    2  501    0 -0.12030263625E+03  0.20783391407E+03 -0.36668260315E+03  0.47122477819E+03  0.17300000000E+03 0. -1.
         -6    1    1    2    0  502  0.12030263625E+03 -0.20783391407E+03 -0.25126014983E+02  0.29703194568E+03  0.17300000000E+03 0.  1.
<mgrwt>
<rscale>  2 0.29596733E+03</rscale>
<asrwt>0</asrwt>
<pdfrwt beam="1">  1       21 0.28957547E-01 0.29596733E+03</pdfrwt>
<pdfrwt beam="2">  1       21 0.89235794E-01 0.29596733E+03</pdfrwt>
<totfact> 0.11542601E+04</totfact>
</mgrwt>
</event>
<event>
 4    1  0.4050555E+000  0.2098463E+03  0.7546771E-02  0.1141688E+00
         21   -1    0    0  501  502  0.00000000000E+00  0.00000000000E+00  0.35817308328E+03  0.35817308328E+03  0.00000000000E+00 0.  1.
         21   -1    0    0  502  503 -0.00000000000E+00 -0.00000000000E+00 -0.14589445555E+03  0.14589445555E+03  0.00000000000E+00 0.  1.
          6    1    1    2  501    0  0.83441404649E+02  0.84522269330E+02  0.20609980460E+03  0.29413026277E+03  0.17300000000E+03 0.  1.
         -6    1    1    2    0  503 -0.83441404649E+02 -0.84522269330E+02  0.61788231371E+01  0.20993727606E+03  0.17300000000E+03 0.  1.
<mgrwt>
<rscale>  2 0.20984633E+03</rscale>
<asrwt>0</asrwt>
<pdfrwt beam="1">  1       21 0.55103551E-01 0.20984633E+03</pdfrwt>
<pdfrwt beam="2">  1       21 0.22445301E-01 0.20984633E+03</pdfrwt>
<totfact> 0.57281825E+04</totfact>
</mgrwt>
</event>
<event>
 4    1  0.4050555E+000  0.1841300E+03  0.7546771E-02  0.1163865E+00
         21   -1    0    0  501  502  0.00000000000E+00  0.00000000000E+00  0.72466213787E+03  0.72466213787E+03  0.00000000000E+00 0.  1.
         21   -1    0    0  502  503 -0.00000000000E+00 -0.00000000000E+00 -0.50132487070E+02  0.50132487070E+02  0.00000000000E+00 0.  1.
          6    1    1    2  501    0 -0.27417666004E+02  0.56772708117E+02  0.43735861509E+03  0.47453811964E+03  0.17300000000E+03 0.  1.
         -6    1    1    2    0  503  0.27417666004E+02 -0.56772708117E+02  0.23717103571E+03  0.30025650530E+03  0.17300000000E+03 0.  1.
<mgrwt>
<rscale>  2 0.18413003E+03</rscale>
<asrwt>0</asrwt>
<pdfrwt beam="1">  1       21 0.11148648E+00 0.18413003E+03</pdfrwt>
<pdfrwt beam="2">  1       21 0.77126908E-02 0.18413003E+03</pdfrwt>
<totfact> 0.81156507E+04</totfact>
</mgrwt>
</event>
<event>
 4    1  0.4050555E+000  0.1751282E+03  0.7546771E-02  0.1172603E+00
         21   -1    0    0  501  502  0.00000000000E+00  0.00000000000E+00  0.91532306583E+03  0.91532306583E+03  0.00000000000E+00 0. -1.
         21   -1    0    0  502  503 -0.00000000000E+00 -0.00000000000E+00 -0.33801090414E+02  0.33801090414E+02  0.00000000000E+00 0. -1.
          6    1    1    2  501    0 -0.25450260326E+02  0.96519673259E+01  0.48501473950E+03  0.51566381855E+03  0.17300000000E+03 0. -1.
         -6    1    1    2    0  503  0.25450260326E+02 -0.96519673259E+01  0.39650723592E+03  0.43346033770E+03  0.17300000000E+03 0. -1.
<mgrwt>
<rscale>  2 0.17512817E+03</rscale>
<asrwt>0</asrwt>
<pdfrwt beam="1">  1       21 0.14081891E+00 0.17512817E+03</pdfrwt>
<pdfrwt beam="2">  1       21 0.52001685E-02 0.17512817E+03</pdfrwt>
<totfact> 0.89450633E+04</totfact>
</mgrwt>
</event>
<event>
 4    1  0.4050555E+000  0.2050707E+03  0.7546771E-02  0.1145530E+00
         21   -1    0    0  503  502  0.00000000000E+00  0.00000000000E+00  0.11144593085E+04  0.11144593085E+04  0.00000000000E+00 0.  1.
         21   -1    0    0  501  503 -0.00000000000E+00 -0.00000000000E+00 -0.61781931899E+02  0.61781931899E+02  0.00000000000E+00 0. -1.
          6    1    1    2  501    0 -0.10929913716E+03 -0.13367680043E+02  0.15942279841E+03  0.25974915766E+03  0.17300000000E+03 0. -1.
         -6    1    1    2    0  502  0.10929913716E+03  0.13367680043E+02  0.89325457817E+03  0.91649208271E+03  0.17300000000E+03 0.  1.
<mgrwt>
<rscale>  2 0.20507071E+03</rscale>
<asrwt>0</asrwt>
<pdfrwt beam="1">  1       21 0.17145526E+00 0.20507071E+03</pdfrwt>
<pdfrwt beam="2">  1       21 0.95049134E-02 0.20507071E+03</pdfrwt>
<totfact> 0.18334015E+04</totfact>
</mgrwt>
</event>
<event>
 4    1  0.4050555E+000  0.1837801E+03  0.7546771E-02  0.1164194E+00
         21   -1    0    0  501  502  0.00000000000E+00  0.00000000000E+00  0.44840694900E+02  0.44840694900E+02  0.00000000000E+00 0. -1.
         21   -1    0    0  502  503 -0.00000000000E+00 -0.00000000000E+00 -0.84813596086E+03  0.84813596086E+03  0.00000000000E+00 0. -1.
          6    1    1    2  501    0 -0.57162286438E+02 -0.24054281936E+02 -0.25228725622E+03  0.31212817098E+03  0.17300000000E+03 0. -1.
         -6    1    1    2    0  503  0.57162286438E+02  0.24054281936E+02 -0.55100800974E+03  0.58084848478E+03  0.17300000000E+03 0. -1.
<mgrwt>
<rscale>  2 0.18378013E+03</rscale>
<asrwt>0</asrwt>
<pdfrwt beam="1">  1       21 0.68985687E-02 0.18378013E+03</pdfrwt>
<pdfrwt beam="2">  1       21 0.13048245E+00 0.18378013E+03</pdfrwt>
<totfact> 0.66721638E+04</totfact>
</mgrwt>
</event>
<event>
 4    1  0.4050555E+000  0.1866385E+03  0.7546771E-02  0.1161529E+00
         21   -1    0    0  501  502  0.00000000000E+00  0.00000000000E+00  0.98173984233E+03  0.98173984233E+03  0.00000000000E+00 0.  1.
         21   -1    0    0  502  503 -0.00000000000E+00 -0.00000000000E+00 -0.40916785505E+02  0.40916785505E+02  0.00000000000E+00 0.  1.
          6    1    1    2  501    0  0.69734623970E+02  0.64806899859E+01  0.65676927633E+03  0.68277360776E+03  0.17300000000E+03 0.  1.
         -6    1    1    2    0  503 -0.69734623970E+02 -0.64806899859E+01  0.28405378050E+03  0.33988302008E+03  0.17300000000E+03 0.  1.
<mgrwt>
<rscale>  2 0.18663847E+03</rscale>
<asrwt>0</asrwt>
<pdfrwt beam="1">  1       21 0.15103688E+00 0.18663847E+03</pdfrwt>
<pdfrwt beam="2">  1       21 0.62948908E-02 0.18663847E+03</pdfrwt>
<totfact> 0.53484287E+04</totfact>
</mgrwt>
</event>
<event>
 4    1  0.4050555E+000  0.1740427E+03  0.7546771E-02  0.1173696E+00
         21   -1    0    0  501  502  0.00000000000E+00  0.00000000000E+00  0.11000452458E+03  0.11000452458E+03  0.00000000000E+00 0. -1.
         21   -1    0    0  502  503 -0.00000000000E+00 -0.00000000000E+00 -0.31110564208E+03  0.31110564208E+03  0.00000000000E+00 0. -1.
          6    1    1    2  501    0  0.18217006554E+02 -0.54758649072E+01 -0.29179289653E+02  0.17647174099E+03  0.17300000000E+03 0.  1.
         -6    1    1    2    0  503 -0.18217006554E+02  0.54758649072E+01 -0.17192182785E+03  0.24463842567E+03  0.17300000000E+03 0.  1.
<mgrwt>
<rscale>  2 0.17404265E+03</rscale>
<asrwt>0</asrwt>
<pdfrwt beam="1">  1       21 0.16923773E-01 0.17404265E+03</pdfrwt>
<pdfrwt beam="2">  1       21 0.47862406E-01 0.17404265E+03</pdfrwt>
<totfact> 0.13210157E+05</totfact>
</mgrwt>
</event>
<event>
 4    1  0.4050555E+000  0.1883041E+03  0.7546771E-02  0.1160000E+00
         21   -1    0    0  503  502  0.00000000000E+00  0.00000000000E+00  0.11745404041E+03  0.11745404041E+03  0.00000000000E+00 0.  1.
         21   -1    0    0  501  503 -0.00000000000E+00 -0.00000000000E+00 -0.66004856848E+03  0.66004856848E+03  0.00000000000E+00 0.  1.
          6    1    1    2  501    0 -0.53729498613E+02  0.51406115512E+02 -0.55766250880E+03  0.58859656935E+03  0.17300000000E+03 0.  1.
         -6    1    1    2    0  502  0.53729498613E+02 -0.51406115512E+02  0.15067980724E+02  0.18890603954E+03  0.17300000000E+03 0.  1.
<mgrwt>
<rscale>  2 0.18830414E+03</rscale>
<asrwt>0</asrwt>
<pdfrwt beam="1">  1       21 0.18069852E-01 0.18830414E+03</pdfrwt>
<pdfrwt beam="2">  1       21 0.10154593E+00 0.18830414E+03</pdfrwt>
<totfact> 0.22121649E+04</totfact>
</mgrwt>
</event>
<event>
 4    1  0.4050555E+000  0.1740698E+03  0.7546771E-02  0.1173669E+00
         21   -1    0    0  501  502  0.00000000000E+00  0.00000000000E+00  0.18479661288E+03  0.18479661288E+03  0.00000000000E+00 0. -1.
         21   -1    0    0  502  503 -0.00000000000E+00 -0.00000000000E+00 -0.16542618618E+03  0.16542618618E+03  0.00000000000E+00 0. -1.
          6    1    1    2  501    0 -0.15549514277E+02  0.11379538271E+02 -0.67691427272E+01  0.17420132772E+03  0.17300000000E+03 0. -1.
         -6    1    1    2    0  503  0.15549514277E+02 -0.11379538271E+02  0.26139569427E+02  0.17602147135E+03  0.17300000000E+03 0. -1.
<mgrwt>
<rscale>  2 0.17406976E+03</rscale>
<asrwt>0</asrwt>
<pdfrwt beam="1">  1       21 0.28430248E-01 0.17406976E+03</pdfrwt>
<pdfrwt beam="2">  1       21 0.25450183E-01 0.17406976E+03</pdfrwt>
<totfact> 0.17414637E+05</totfact>
</mgrwt>
</event>
<event>
 4    1  0.4050555E+000  0.1730186E+03  0.7546771E-02  0.1174736E+00
         21   -1    0    0  503  502  0.00000000000E+00  0.00000000000E+00  0.84100457312E+02  0.84100457312E+02  0.00000000000E+00 0. -1.
         21   -1    0    0  501  503 -0.00000000000E+00 -0.00000000000E+00 -0.35596654281E+03  0.35596654281E+03  0.00000000000E+00 0. -1.
          6    1    1    2  501    0  0.24875942887E+01  0.51056250125E+00 -0.13749067599E+03  0.22099578001E+03  0.17300000000E+03 0. -1.
         -6    1    1    2    0  502 -0.24875942887E+01 -0.51056250125E+00 -0.13437540951E+03  0.21907122011E+03  0.17300000000E+03 0. -1.
<mgrwt>
<rscale>  2 0.17301864E+03</rscale>
<asrwt>0</asrwt>
<pdfrwt beam="1">  1       21 0.12938532E-01 0.17301864E+03</pdfrwt>
<pdfrwt beam="2">  1       21 0.54764084E-01 0.17301864E+03</pdfrwt>
<totfact> 0.16239196E+05</totfact>
</mgrwt>
</event>
<event>
 4    1  0.4050555E+000  0.1791672E+03  0.7546771E-02  0.1168611E+00
         21   -1    0    0  501  502  0.00000000000E+00  0.00000000000E+00  0.26822526113E+02  0.26822526113E+02  0.00000000000E+00 0. -1.
         21   -1    0    0  502  503 -0.00000000000E+00 -0.00000000000E+00 -0.12932450895E+04  0.12932450895E+04  0.00000000000E+00 0. -1.
          6    1    1    2  501    0 -0.16370926308E+02 -0.43633393746E+02 -0.45295409201E+03  0.48710192953E+03  0.17300000000E+03 0. -1.
         -6    1    1    2    0  503  0.16370926308E+02  0.43633393746E+02 -0.81346847137E+03  0.83296568608E+03  0.17300000000E+03 0. -1.
<mgrwt>
<rscale>  2 0.17916719E+03</rscale>
<asrwt>0</asrwt>
<pdfrwt beam="1">  1       21 0.41265418E-02 0.17916719E+03</pdfrwt>
<pdfrwt beam="2">  1       21 0.19896081E+00 0.17916719E+03</pdfrwt>
<totfact> 0.51159487E+04</totfact>
</mgrwt>
</event>
<event>
 4    1  0.4050555E+000  0.2227429E+03  0.7546771E-02  0.1131854E+00
         21   -1    0    0  501  502  0.00000000000E+00  0.00000000000E+00  0.36242581914E+03  0.36242581914E+03  0.00000000000E+00 0.  1.
         21   -1    0    0  502  503 -0.00000000000E+00 -0.00000000000E+00 -0.15567650615E+03  0.15567650615E+03  0.00000000000E+00 0.  1.
          6    1    1    2  501    0  0.11631031112E+03 -0.78468493379E+02  0.19335252351E+03  0.29495693122E+03  0.17300000000E+03 0.  1.
         -6    1    1    2    0  503 -0.11631031112E+03  0.78468493379E+02  0.13396789482E+02  0.22314539407E+03  0.17300000000E+03 0.  1.
<mgrwt>
<rscale>  2 0.22274289E+03</rscale>
<asrwt>0</asrwt>
<pdfrwt beam="1">  1       21 0.55757818E-01 0.22274289E+03</pdfrwt>
<pdfrwt beam="2">  1       21 0.23950232E-01 0.22274289E+03</pdfrwt>
<totfact> 0.49096819E+04</totfact>
</mgrwt>
</event>
<event>
 4    1  0.4050555E+000  0.2180534E+03  0.7546771E-02  0.1135343E+00
         21   -1    0    0  501  502  0.00000000000E+00  0.00000000000E+00  0.24999767449E+03  0.24999767449E+03  0.00000000000E+00 0.  1.
         21   -1    0    0  502  503 -0.00000000000E+00 -0.00000000000E+00 -0.10409780882E+04  0.10409780882E+04  0.00000000000E+00 0.  1.
          6    1    1    2  501    0 -0.11258919522E+03 -0.70299193801E+02  0.18805935652E+03  0.28794726098E+03  0.17300000000E+03 0.  1.
         -6    1    1    2    0  503  0.11258919522E+03  0.70299193801E+02 -0.97903977025E+03  0.10030285017E+04  0.17300000000E+03 0.  1.
<mgrwt>
<rscale>  2 0.21805344E+03</rscale>
<asrwt>0</asrwt>
<pdfrwt beam="1">  1       21 0.38461180E-01 0.21805344E+03</pdfrwt>
<pdfrwt beam="2">  1       21 0.16015048E+00 0.21805344E+03</pdfrwt>
<totfact> 0.15971374E+03</totfact>
</mgrwt>
</event>
<event>
 4    1  0.4050555E+000  0.1788705E+03  0.7546771E-02  0.1168901E+00
         21   -1    0    0  503  502  0.00000000000E+00  0.00000000000E+00  0.65919610326E+02  0.65919610326E+02  0.00000000000E+00 0.  1.
         21   -1    0    0  501  503 -0.00000000000E+00 -0.00000000000E+00 -0.86023899755E+03  0.86023899755E+03  0.00000000000E+00 0.  1.
          6    1    1    2  501    0 -0.27605227550E+02 -0.36105703061E+02 -0.70285726842E+03  0.72526064981E+03  0.17300000000E+03 0.  1.
         -6    1    1    2    0  502  0.27605227550E+02  0.36105703061E+02 -0.91462118803E+02  0.20089795807E+03  0.17300000000E+03 0.  1.
<mgrwt>
<rscale>  2 0.17887054E+03</rscale>
<asrwt>0</asrwt>
<pdfrwt beam="1">  1       21 0.10141480E-01 0.17887054E+03</pdfrwt>
<pdfrwt beam="2">  1       21 0.13234445E+00 0.17887054E+03</pdfrwt>
<totfact> 0.32970275E+04</totfact>
</mgrwt>
</event>
<event>
 4    1  0.4050555E+000  0.1794748E+03  0.7546771E-02  0.1168312E+00
         21   -1    0    0  501  502  0.00000000000E+00  0.00000000000E+00  0.23524795971E+03  0.23524795971E+03  0.00000000000E+00 0.  1.
         21   -1    0    0  502  503 -0.00000000000E+00 -0.00000000000E+00 -0.23982133718E+03  0.23982133718E+03  0.00000000000E+00 0.  1.
          6    1    1    2  501    0  0.43585492336E+02  0.19558028903E+02  0.15330415978E+03  0.23603681289E+03  0.17300000000E+03 0.  1.
         -6    1    1    2    0  503 -0.43585492336E+02 -0.19558028903E+02 -0.15787753724E+03  0.23903248399E+03  0.17300000000E+03 0.  1.
<mgrwt>
<rscale>  2 0.17947482E+03</rscale>
<asrwt>0</asrwt>
<pdfrwt beam="1">  1       21 0.36191994E-01 0.17947482E+03</pdfrwt>
<pdfrwt beam="2">  1       21 0.36895590E-01 0.17947482E+03</pdfrwt>
<totfact> 0.52479558E+04</totfact>
</mgrwt>
</event>
<event>
 4    1  0.4050555E+000  0.2497174E+03  0.7546771E-02  0.1113484E+00
         21   -1    0    0  501  502  0.00000000000E+00  0.00000000000E+00  0.11436648730E+03  0.11436648730E+03  0.00000000000E+00 0. -1.
         21   -1    0    0  502  503 -0.00000000000E+00 -0.00000000000E+00 -0.62832378456E+03  0.62832378456E+03  0.00000000000E+00 0.  1.
          6    1    1    2  501    0  0.97242840882E+02 -0.15157042096E+03 -0.12195556071E+03  0.27790631767E+03  0.17300000000E+03 0. -1.
         -6    1    1    2    0  503 -0.97242840882E+02  0.15157042096E+03 -0.39200173655E+03  0.46478395419E+03  0.17300000000E+03 0.  1.
<mgrwt>
<rscale>  2 0.24971737E+03</rscale>
<asrwt>0</asrwt>
<pdfrwt beam="1">  1       21 0.17594845E-01 0.24971737E+03</pdfrwt>
<pdfrwt beam="2">  1       21 0.96665195E-01 0.24971737E+03</pdfrwt>
<totfact> 0.25255260E+04</totfact>
</mgrwt>
</event>
<event>
 4    1  0.4050555E+000  0.1851076E+03  0.7546771E-02  0.1162949E+00
         21   -1    0    0  501  502  0.00000000000E+00  0.00000000000E+00  0.45619153152E+02  0.45619153152E+02  0.00000000000E+00 0. -1.
         21   -1    0    0  502  503 -0.00000000000E+00 -0.00000000000E+00 -0.75394093201E+03  0.75394093201E+03  0.00000000000E+00 0. -1.
          6    1    1    2  501    0 -0.17528756392E+02  0.63471106205E+02 -0.32964814661E+03  0.37806446433E+03  0.17300000000E+03 0. -1.
         -6    1    1    2    0  503  0.17528756392E+02 -0.63471106205E+02 -0.37867363225E+03  0.42149562084E+03  0.17300000000E+03 0. -1.
<mgrwt>
<rscale>  2 0.18510764E+03</rscale>
<asrwt>0</asrwt>
<pdfrwt beam="1">  1       21 0.70183317E-02 0.18510764E+03</pdfrwt>
<pdfrwt beam="2">  1       21 0.11599090E+00 0.18510764E+03</pdfrwt>
<totfact> 0.86742381E+04</totfact>
</mgrwt>
</event>
<event>
 4    1  0.4050555E+000  0.2959723E+03  0.7546771E-02  0.1087272E+00
         21   -1    0    0  503  502  0.00000000000E+00  0.00000000000E+00  0.22195525301E+03  0.22195525301E+03  0.00000000000E+00 0.  1.
         21   -1    0    0  501  503 -0.00000000000E+00 -0.00000000000E+00 -0.53887547201E+03  0.53887547201E+03  0.00000000000E+00 0. -1.
          6    1    1    2  501    0  0.23824087938E+03  0.30197208976E+02 -0.35524930954E+03  0.46238691587E+03  0.17300000000E+03 0. -1.
         -6    1    1    2    0  502 -0.23824087938E+03 -0.30197208976E+02  0.38329090533E+02  0.29844380915E+03  0.17300000000E+03 0.  1.
<mgrwt>
<rscale>  2 0.29597228E+03</rscale>
<asrwt>0</asrwt>
<pdfrwt beam="1">  1       21 0.34146962E-01 0.29597228E+03</pdfrwt>
<pdfrwt beam="2">  1       21 0.82903919E-01 0.29597228E+03</pdfrwt>
<totfact> 0.98797596E+03</totfact>
</mgrwt>
</event>
<event>
 4    1  0.4050555E+000  0.2055497E+03  0.7546771E-02  0.1145139E+00
         21   -1    0    0  501  502  0.00000000000E+00  0.00000000000E+00  0.30931645637E+03  0.30931645637E+03  0.00000000000E+00 0.  1.
         21   -1    0    0  502  503 -0.00000000000E+00 -0.00000000000E+00 -0.14936845862E+03  0.14936845862E+03  0.00000000000E+00 0.  1.
          6    1    1    2  501    0 -0.11082482550E+03 -0.62894484907E+01  0.14704430242E+03  0.25273054027E+03  0.17300000000E+03 0.  1.
         -6    1    1    2    0  503  0.11082482550E+03  0.62894484907E+01  0.12903695328E+02  0.20595437471E+03  0.17300000000E+03 0.  1.
<mgrwt>
<rscale>  2 0.20554975E+03</rscale>
<asrwt>0</asrwt>
<pdfrwt beam="1">  1       21 0.47587147E-01 0.20554975E+03</pdfrwt>
<pdfrwt beam="2">  1       21 0.22979763E-01 0.20554975E+03</pdfrwt>
<totfact> 0.74649316E+04</totfact>
</mgrwt>
</event>
<event>
 4    1  0.4050555E+000  0.2483877E+03  0.7546771E-02  0.1114328E+00
         21   -1    0    0  501  502  0.00000000000E+00  0.00000000000E+00  0.70451523289E+02  0.70451523289E+02  0.00000000000E+00 0. -1.
         21   -1    0    0  502  503 -0.00000000000E+00 -0.00000000000E+00 -0.12807846584E+04  0.12807846584E+04  0.00000000000E+00 0.  1.
          6    1    1    2  501    0 -0.15017740244E+03  0.95990612938E+02 -0.22522176941E+03  0.33529285019E+03  0.17300000000E+03 0. -1.
         -6    1    1    2    0  503  0.15017740244E+03 -0.95990612938E+02 -0.98511136569E+03  0.10159433315E+04  0.17300000000E+03 0.  1.
<mgrwt>
<rscale>  2 0.24838770E+03</rscale>
<asrwt>0</asrwt>
<pdfrwt beam="1">  1       21 0.10838696E-01 0.24838770E+03</pdfrwt>
<pdfrwt beam="2">  1       21 0.19704379E+00 0.24838770E+03</pdfrwt>
<totfact> 0.94609380E+03</totfact>
</mgrwt>
</event>
<event>
 4    1  0.4050555E+000  0.1970378E+03  0.7546771E-02  0.1152263E+00
         21   -1    0    0  503  502  0.00000000000E+00  0.00000000000E+00  0.25526822698E+03  0.25526822698E+03  0.00000000000E+00 0.  1.
         21   -1    0    0  501  503 -0.00000000000E+00 -0.00000000000E+00 -0.15247909523E+03  0.15247909523E+03  0.00000000000E+00 0.  1.
          6    1    1    2  501    0 -0.91349606390E+02 -0.23455234539E+02  0.61685316101E+02  0.20646785909E+03  0.17300000000E+03 0.  1.
         -6    1    1    2    0  502  0.91349606390E+02  0.23455234539E+02  0.41103815653E+02  0.20127946313E+03  0.17300000000E+03 0.  1.
<mgrwt>
<rscale>  2 0.19703781E+03</rscale>
<asrwt>0</asrwt>
<pdfrwt beam="1">  1       21 0.39272035E-01 0.19703781E+03</pdfrwt>
<pdfrwt beam="2">  1       21 0.23458322E-01 0.19703781E+03</pdfrwt>
<totfact> 0.10669075E+05</totfact>
</mgrwt>
</event>
<event>
 4    1  0.4050555E+000  0.3124956E+03  0.7546771E-02  0.1079156E+00
         21   -1    0    0  503  502  0.00000000000E+00  0.00000000000E+00  0.12310025389E+04  0.12310025389E+04  0.00000000000E+00 0. -1.
         21   -1    0    0  501  503 -0.00000000000E+00 -0.00000000000E+00 -0.79691729410E+02  0.79691729410E+02  0.00000000000E+00 0.  1.
          6    1    1    2  501    0  0.22633297691E+02 -0.25925325813E+03  0.53140800417E+03  0.61648031997E+03  0.17300000000E+03 0.  1.
         -6    1    1    2    0  502 -0.22633297691E+02  0.25925325813E+03  0.61990280528E+03  0.69421394830E+03  0.17300000000E+03 0. -1.
<mgrwt>
<rscale>  2 0.31249563E+03</rscale>
<asrwt>0</asrwt>
<pdfrwt beam="1">  1       21 0.18938499E+00 0.31249563E+03</pdfrwt>
<pdfrwt beam="2">  1       21 0.12260267E-01 0.31249563E+03</pdfrwt>
<totfact> 0.82050381E+03</totfact>
</mgrwt>
</event>
<event>
 4    1  0.4050555E+000  0.2172608E+03  0.7546771E-02  0.1135942E+00
         21   -1    0    0  501  502  0.00000000000E+00  0.00000000000E+00  0.29830233460E+02  0.29830233460E+02  0.00000000000E+00 0. -1.
         21   -1    0    0  502  503 -0.00000000000E+00 -0.00000000000E+00 -0.15841826034E+04  0.15841826034E+04  0.00000000000E+00 0. -1.
          6    1    1    2  501    0 -0.43175300124E+02  0.12413355031E+03 -0.74982260614E+03  0.78066393893E+03  0.17300000000E+03 0. -1.
         -6    1    1    2    0  503  0.43175300124E+02 -0.12413355031E+03 -0.80452976378E+03  0.83334889792E+03  0.17300000000E+03 0. -1.
<mgrwt>
<rscale>  2 0.21726078E+03</rscale>
<asrwt>0</asrwt>
<pdfrwt beam="1">  1       21 0.45892662E-02 0.21726078E+03</pdfrwt>
<pdfrwt beam="2">  1       21 0.24372043E+00 0.21726078E+03</pdfrwt>
<totfact> 0.22070517E+04</totfact>
</mgrwt>
</event>
<event>
 4    1  0.4050555E+000  0.3012628E+03  0.7546771E-02  0.1084611E+00
         21   -1    0    0  501  502  0.00000000000E+00  0.00000000000E+00  0.17097486864E+03  0.17097486864E+03  0.00000000000E+00 0. -1.
         21   -1    0    0  502  503 -0.00000000000E+00 -0.00000000000E+00 -0.27819919051E+04  0.27819919051E+04  0.00000000000E+00 0. -1.
          6    1    1    2  501    0 -0.23892125326E+03 -0.61211856057E+02  0.22661348547E+02  0.30211387472E+03  0.17300000000E+03 0. -1.
         -6    1    1    2    0  503  0.23892125326E+03  0.61211856057E+02 -0.26336783850E+04  0.26508528990E+04  0.17300000000E+03 0. -1.
<mgrwt>
<rscale>  2 0.30126277E+03</rscale>
<asrwt>0</asrwt>
<pdfrwt beam="1">  1       21 0.26303829E-01 0.30126277E+03</pdfrwt>
<pdfrwt beam="2">  1       21 0.42799871E+00 0.30126277E+03</pdfrwt>
<totfact> 0.67799191E+01</totfact>
</mgrwt>
</event>
<event>
 4    1  0.4050555E+000  0.2452676E+03  0.7546771E-02  0.1116333E+00
         21   -1    0    0  503  502  0.00000000000E+00  0.00000000000E+00  0.22999926732E+03  0.22999926732E+03  0.00000000000E+00 0. -1.
         21   -1    0    0  501  503 -0.00000000000E+00 -0.00000000000E+00 -0.66206355750E+03  0.66206355750E+03  0.00000000000E+00 0. -1.
          6    1    1    2  501    0  0.17259856301E+03  0.20902836238E+02 -0.56294827099E+03  0.61405777279E+03  0.17300000000E+03 0. -1.
         -6    1    1    2    0  502 -0.17259856301E+03 -0.20902836238E+02  0.13088398081E+03  0.27800505202E+03  0.17300000000E+03 0. -1.
<mgrwt>
<rscale>  2 0.24526759E+03</rscale>
<asrwt>0</asrwt>
<pdfrwt beam="1">  1       21 0.35384502E-01 0.24526759E+03</pdfrwt>
<pdfrwt beam="2">  1       21 0.10185593E+00 0.24526759E+03</pdfrwt>
<totfact> 0.58304089E+03</totfact>
</mgrwt>
</event>
<event>
 4    1  0.4050555E+000  0.1788845E+03  0.7546771E-02  0.1168887E+00
         21   -1    0    0  501  502  0.00000000000E+00  0.00000000000E+00  0.31684599431E+03  0.31684599431E+03  0.00000000000E+00 0. -1.
         21   -1    0    0  502  503 -0.00000000000E+00 -0.00000000000E+00 -0.10121076224E+04  0.10121076224E+04  0.00000000000E+00 0. -1.
          6    1    1    2  501    0  0.38589596629E+02  0.24114455605E+02  0.28282210513E+03  0.33464609229E+03  0.17300000000E+03 0. -1.
         -6    1    1    2    0  503 -0.38589596629E+02 -0.24114455605E+02 -0.97808373320E+03  0.99430752441E+03  0.17300000000E+03 0. -1.
<mgrwt>
<rscale>  2 0.17888450E+03</rscale>
<asrwt>0</asrwt>
<pdfrwt beam="1">  1       21 0.48745536E-01 0.17888450E+03</pdfrwt>
<pdfrwt beam="2">  1       21 0.15570887E+00 0.17888450E+03</pdfrwt>
<totfact> 0.11039800E+03</totfact>
</mgrwt>
</event>
<event>
 4    1  0.4050555E+000  0.2837528E+03  0.7546771E-02  0.1093657E+00
         21   -1    0    0  503  502  0.00000000000E+00  0.00000000000E+00  0.16171751425E+03  0.16171751425E+03  0.00000000000E+00 0.  1.
         21   -1    0    0  501  503 -0.00000000000E+00 -0.00000000000E+00 -0.51249006320E+03  0.51249006320E+03  0.00000000000E+00 0. -1.
          6    1    1    2  501    0 -0.19749775910E+03  0.10761638564E+03 -0.23230711199E+03  0.36671821006E+03  0.17300000000E+03 0. -1.
         -6    1    1    2    0  502  0.19749775910E+03 -0.10761638564E+03 -0.11846543696E+03  0.30748936739E+03  0.17300000000E+03 0.  1.
<mgrwt>
<rscale>  2 0.28375280E+03</rscale>
<asrwt>0</asrwt>
<pdfrwt beam="1">  1       21 0.24879618E-01 0.28375280E+03</pdfrwt>
<pdfrwt beam="2">  1       21 0.78844624E-01 0.28375280E+03</pdfrwt>
<totfact> 0.20736837E+04</totfact>
</mgrwt>
</event>
<event>
 4    1  0.4050555E+000  0.1846399E+03  0.7546771E-02  0.1163387E+00
         21   -1    0    0  501  502  0.00000000000E+00  0.00000000000E+00  0.42189781533E+03  0.42189781533E+03  0.00000000000E+00 0. -1.
         21   -1    0    0  502  503 -0.00000000000E+00 -0.00000000000E+00 -0.13052692482E+03  0.13052692482E+03  0.00000000000E+00 0. -1.
          6    1    1    2  501    0 -0.31293986513E+02  0.56423168463E+02  0.31616116754E+03  0.36612808058E+03  0.17300000000E+03 0. -1.
         -6    1    1    2    0  503  0.31293986513E+02 -0.56423168463E+02 -0.24790277020E+02  0.18629665957E+03  0.17300000000E+03 0. -1.
<mgrwt>
<rscale>  2 0.18463989E+03</rscale>
<asrwt>0</asrwt>
<pdfrwt beam="1">  1       21 0.64907356E-01 0.18463989E+03</pdfrwt>
<pdfrwt beam="2">  1       21 0.20081066E-01 0.18463989E+03</pdfrwt>
<totfact> 0.50275886E+04</totfact>
</mgrwt>
</event>
<event>
 4    1  0.4050555E+000  0.1736431E+03  0.7546771E-02  0.1174101E+00
         21   -1    0    0  503  502  0.00000000000E+00  0.00000000000E+00  0.36245699862E+02  0.36245699862E+02  0.00000000000E+00 0. -1.
         21   -1    0    0  501  503 -0.00000000000E+00 -0.00000000000E+00 -0.10293345352E+04  0.10293345352E+04  0.00000000000E+00 0. -1.
          6    1    1    2  501    0 -0.42779949755E+01 -0.14304942152E+02 -0.72989865901E+03  0.75026927502E+03  0.17300000000E+03 0. -1.
         -6    1    1    2    0  502  0.42779949755E+01  0.14304942152E+02 -0.26319017635E+03  0.31531096007E+03  0.17300000000E+03 0. -1.
<mgrwt>
<rscale>  2 0.17364312E+03</rscale>
<asrwt>0</asrwt>
<pdfrwt beam="1">  1       21 0.55762617E-02 0.17364312E+03</pdfrwt>
<pdfrwt beam="2">  1       21 0.15835915E+00 0.17364312E+03</pdfrwt>
<totfact> 0.58449771E+04</totfact>
</mgrwt>
</event>
<event>
 4    1  0.4050555E+000  0.1750979E+03  0.7546771E-02  0.1172633E+00
         21   -1    0    0  503  502  0.00000000000E+00  0.00000000000E+00  0.16275516301E+03  0.16275516301E+03  0.00000000000E+00 0. -1.
         21   -1    0    0  501  503 -0.00000000000E+00 -0.00000000000E+00 -0.18982215331E+03  0.18982215331E+03  0.00000000000E+00 0. -1.
          6    1    1    2  501    0  0.36502415592E+00  0.27021416170E+02  0.18496112042E+01  0.17510771324E+03  0.17300000000E+03 0.  1.
         -6    1    1    2    0  502 -0.36502415592E+00 -0.27021416170E+02 -0.28916601500E+02  0.17746960308E+03  0.17300000000E+03 0.  1.
<mgrwt>
<rscale>  2 0.17509794E+03</rscale>
<asrwt>0</asrwt>
<pdfrwt beam="1">  1       21 0.25039256E-01 0.17509794E+03</pdfrwt>
<pdfrwt beam="2">  1       21 0.29203408E-01 0.17509794E+03</pdfrwt>
<totfact> 0.17048982E+05</totfact>
</mgrwt>
</event>
<event>
 4    1  0.4050555E+000  0.1752991E+03  0.7546771E-02  0.1172432E+00
         21   -1    0    0  503  502  0.00000000000E+00  0.00000000000E+00  0.15489953067E+03  0.15489953067E+03  0.00000000000E+00 0.  1.
         21   -1    0    0  501  503 -0.00000000000E+00 -0.00000000000E+00 -0.10921015170E+04  0.10921015170E+04  0.00000000000E+00 0.  1.
          6    1    1    2  501    0 -0.25045505118E+02 -0.13172188098E+02 -0.10326348141E+04  0.10474084414E+04  0.17300000000E+03 0.  1.
         -6    1    1    2    0  502  0.25045505118E+02  0.13172188098E+02  0.95432827749E+02  0.19959260627E+03  0.17300000000E+03 0.  1.
<mgrwt>
<rscale>  2 0.17529913E+03</rscale>
<asrwt>0</asrwt>
<pdfrwt beam="1">  1       21 0.23830697E-01 0.17529913E+03</pdfrwt>
<pdfrwt beam="2">  1       21 0.16801562E+00 0.17529913E+03</pdfrwt>
<totfact> 0.37167845E+03</totfact>
</mgrwt>
</event>
<event>
 4    1  0.4050555E+000  0.2082994E+03  0.7546771E-02  0.1142920E+00
         21   -1    0    0  501  502  0.00000000000E+00  0.00000000000E+00  0.65396854597E+02  0.65396854597E+02  0.00000000000E+00 0. -1.
         21   -1    0    0  502  503 -0.00000000000E+00 -0.00000000000E+00 -0.75253169093E+03  0.75253169093E+03  0.00000000000E+00 0. -1.
          6    1    1    2  501    0 -0.10739360814E+03 -0.43889123984E+02 -0.20287320759E+03  0.29076825932E+03  0.17300000000E+03 0. -1.
         -6    1    1    2    0  503  0.10739360814E+03  0.43889123984E+02 -0.48426162875E+03  0.52716028621E+03  0.17300000000E+03 0. -1.
<mgrwt>
<rscale>  2 0.20829941E+03</rscale>
<asrwt>0</asrwt>
<pdfrwt beam="1">  1       21 0.10061054E-01 0.20829941E+03</pdfrwt>
<pdfrwt beam="2">  1       21 0.11577411E+00 0.20829941E+03</pdfrwt>
<totfact> 0.45914596E+04</totfact>
</mgrwt>
</event>
<event>
 4    1  0.4050555E+000  0.2218251E+03  0.7546771E-02  0.1132530E+00
         21   -1    0    0  501  502  0.00000000000E+00  0.00000000000E+00  0.22929487977E+03  0.22929487977E+03  0.00000000000E+00 0. -1.
         21   -1    0    0  502  503 -0.00000000000E+00 -0.00000000000E+00 -0.21465869138E+03  0.21465869138E+03  0.00000000000E+00 0. -1.
          6    1    1    2  501    0  0.10751322371E+03 -0.87853643550E+02  0.36035457216E+01  0.22185432495E+03  0.17300000000E+03 0.  1.
         -6    1    1    2    0  503 -0.10751322371E+03  0.87853643550E+02  0.11032642668E+02  0.22209924620E+03  0.17300000000E+03 0.  1.
<mgrwt>
<rscale>  2 0.22182506E+03</rscale>
<asrwt>0</asrwt>
<pdfrwt beam="1">  1       21 0.35276135E-01 0.22182506E+03</pdfrwt>
<pdfrwt beam="2">  1       21 0.33024414E-01 0.22182506E+03</pdfrwt>
<totfact> 0.67528811E+04</totfact>
</mgrwt>
</event>
<event>
 4    1  0.4050555E+000  0.2497018E+03  0.7546771E-02  0.1113493E+00
         21   -1    0    0  503  502  0.00000000000E+00  0.00000000000E+00  0.53843964982E+03  0.53843964982E+03  0.00000000000E+00 0. -1.
         21   -1    0    0  501  503 -0.00000000000E+00 -0.00000000000E+00 -0.30990750110E+03  0.30990750110E+03  0.00000000000E+00 0. -1.
          6    1    1    2  501    0 -0.66946609288E+02  0.16715303856E+03 -0.22143242489E+03  0.33374137530E+03  0.17300000000E+03 0. -1.
         -6    1    1    2    0  502  0.66946609288E+02 -0.16715303856E+03  0.44996457361E+03  0.51460577562E+03  0.17300000000E+03 0. -1.
<mgrwt>
<rscale>  2 0.24970180E+03</rscale>
<asrwt>0</asrwt>
<pdfrwt beam="1">  1       21 0.82836869E-01 0.24970180E+03</pdfrwt>
<pdfrwt beam="2">  1       21 0.47678077E-01 0.24970180E+03</pdfrwt>
<totfact> 0.51353015E+03</totfact>
</mgrwt>
</event>
<event>
 4    1  0.4050555E+000  0.1776781E+03  0.7546771E-02  0.1170069E+00
         21   -1    0    0  503  502  0.00000000000E+00  0.00000000000E+00  0.13492771149E+04  0.13492771149E+04  0.00000000000E+00 0.  1.
         21   -1    0    0  501  503 -0.00000000000E+00 -0.00000000000E+00 -0.31264456411E+02  0.31264456411E+02  0.00000000000E+00 0. -1.
          6    1    1    2  501    0 -0.40496843838E+02 -0.70744621300E+00  0.31274670610E+03  0.35969431051E+03  0.17300000000E+03 0. -1.
         -6    1    1    2    0  502  0.40496843838E+02  0.70744621300E+00  0.10052659524E+04  0.10208472608E+04  0.17300000000E+03 0.  1.
<mgrwt>
<rscale>  2 0.17767807E+03</rscale>
<asrwt>0</asrwt>
<pdfrwt beam="1">  1       21 0.20758105E+00 0.17767807E+03</pdfrwt>
<pdfrwt beam="2">  1       21 0.48099174E-02 0.17767807E+03</pdfrwt>
<totfact> 0.34893881E+04</totfact>
</mgrwt>
</event>
<event>
 4    1  0.4050555E+000  0.2099697E+03  0.7546771E-02  0.1141590E+00
         21   -1    0    0  503  502  0.00000000000E+00  0.00000000000E+00  0.25570736725E+02  0.25570736725E+02  0.00000000000E+00 0. -1.
         21   -1    0    0  501  503 -0.00000000000E+00 -0.00000000000E+00 -0.20089500831E+04  0.20089500831E+04  0.00000000000E+00 0. -1.
          6    1    1    2  501    0 -0.11889926641E+03 -0.46083694574E+01 -0.13747197914E+04  0.13906623521E+04  0.17300000000E+03 0. -1.
         -6    1    1    2    0  502  0.11889926641E+03  0.46083694574E+01 -0.60865955490E+03  0.64385846768E+03  0.17300000000E+03 0. -1.
<mgrwt>
<rscale>  2 0.20996969E+03</rscale>
<asrwt>0</asrwt>
<pdfrwt beam="1">  1       21 0.39339600E-02 0.20996969E+03</pdfrwt>
<pdfrwt beam="2">  1       21 0.30906920E+00 0.20996969E+03</pdfrwt>
<totfact> 0.11977864E+04</totfact>
</mgrwt>
</event>
<event>
 4    1  0.4050555E+000  0.1783620E+03  0.7546771E-02  0.1169398E+00
         21   -1    0    0  503  502  0.00000000000E+00  0.00000000000E+00  0.35595612998E+03  0.35595612998E+03  0.00000000000E+00 0.  1.
         21   -1    0    0  501  503 -0.00000000000E+00 -0.00000000000E+00 -0.91632965494E+02  0.91632965494E+02  0.00000000000E+00 0.  1.
          6    1    1    2  501    0 -0.43261985319E+02 -0.35237955318E+01  0.97018954752E+02  0.20304111428E+03  0.17300000000E+03 0. -1.
         -6    1    1    2    0  502  0.43261985319E+02  0.35237955318E+01  0.16730420973E+03  0.24454798119E+03  0.17300000000E+03 0. -1.
<mgrwt>
<rscale>  2 0.17836204E+03</rscale>
<asrwt>0</asrwt>
<pdfrwt beam="1">  1       21 0.54762481E-01 0.17836204E+03</pdfrwt>
<pdfrwt beam="2">  1       21 0.14097380E-01 0.17836204E+03</pdfrwt>
<totfact> 0.13889069E+05</totfact>
</mgrwt>
</event>
<event>
 4    1  0.4050555E+000  0.1922782E+03  0.7546771E-02  0.1156422E+00
         21   -1    0    0  503  502  0.00000000000E+00  0.00000000000E+00  0.10901691518E+04  0.10901691518E+04  0.00000000000E+00 0. -1.
         21   -1    0    0  501  503 -0.00000000000E+00 -0.00000000000E+00 -0.35859761531E+03  0.35859761531E+03  0.00000000000E+00 0. -1.
          6    1    1    2  501    0  0.79626586715E+02  0.26486404155E+02 -0.32349415079E+03  0.37632351575E+03  0.17300000000E+03 0. -1.
         -6    1    1    2    0  502 -0.79626586715E+02 -0.26486404155E+02  0.10550656873E+04  0.10724432514E+04  0.17300000000E+03 0. -1.
<mgrwt>
<rscale>  2 0.19227824E+03</rscale>
<asrwt>0</asrwt>
<pdfrwt beam="1">  1       21 0.16771833E+00 0.19227824E+03</pdfrwt>
<pdfrwt beam="2">  1       21 0.55168864E-01 0.19227824E+03</pdfrwt>
<totfact> 0.68657787E+02</totfact>
</mgrwt>
</event>
<event>
 4    1  0.4050555E+000  0.1819290E+03  0.7546771E-02  0.1165949E+00
         21   -1    0    0  503  502  0.00000000000E+00  0.00000000000E+00  0.51257678694E+02  0.51257678694E+02  0.00000000000E+00 0.  1.
         21   -1    0    0  501  503 -0.00000000000E+00 -0.00000000000E+00 -0.90064198826E+03  0.90064198826E+03  0.00000000000E+00 0.  1.
          6    1    1    2  501    0  0.55334603677E+02  0.10355175406E+02 -0.67790636385E+03  0.70189399924E+03  0.17300000000E+03 0.  1.
         -6    1    1    2    0  502 -0.55334603677E+02 -0.10355175406E+02 -0.17147794572E+03  0.25000566771E+03  0.17300000000E+03 0.  1.
<mgrwt>
<rscale>  2 0.18192896E+03</rscale>
<asrwt>0</asrwt>
<pdfrwt beam="1">  1       21 0.78857971E-02 0.18192896E+03</pdfrwt>
<pdfrwt beam="2">  1       21 0.13856030E+00 0.18192896E+03</pdfrwt>
<totfact> 0.45488247E+04</totfact>
</mgrwt>
</event>
<event>
 4    1  0.4050555E+000  0.2013782E+03  0.7546771E-02  0.1148581E+00
         21   -1    0    0  503  502  0.00000000000E+00  0.00000000000E+00  0.63451997591E+02  0.63451997591E+02  0.00000000000E+00 0.  1.
         21   -1    0    0  501  503 -0.00000000000E+00 -0.00000000000E+00 -0.95818199823E+03  0.95818199823E+03  0.00000000000E+00 0.  1.
          6    1    1    2  501    0  0.10238980275E+03 -0.11853838307E+02 -0.74213387106E+03  0.76897065469E+03  0.17300000000E+03 0.  1.
         -6    1    1    2    0  502 -0.10238980275E+03  0.11853838307E+02 -0.15259612957E+03  0.25266334113E+03  0.17300000000E+03 0.  1.
<mgrwt>
<rscale>  2 0.20137821E+03</rscale>
<asrwt>0</asrwt>
<pdfrwt beam="1">  1       21 0.97618465E-02 0.20137821E+03</pdfrwt>
<pdfrwt beam="2">  1       21 0.14741260E+00 0.20137821E+03</pdfrwt>
<totfact> 0.26344374E+04</totfact>
</mgrwt>
</event>
<event>
 4    1  0.4050555E+000  0.1752540E+03  0.7546771E-02  0.1172477E+00
         21   -1    0    0  503  502  0.00000000000E+00  0.00000000000E+00  0.31468194850E+03  0.31468194850E+03  0.00000000000E+00 0.  1.
         21   -1    0    0  501  503 -0.00000000000E+00 -0.00000000000E+00 -0.13097808510E+03  0.13097808510E+03  0.00000000000E+00 0.  1.
          6    1    1    2  501    0 -0.18744263079E+02  0.20823233527E+02 -0.20630445345E+02  0.17646407489E+03  0.17300000000E+03 0.  1.
         -6    1    1    2    0  502  0.18744263079E+02 -0.20823233527E+02  0.20433430874E+03  0.26919595870E+03  0.17300000000E+03 0.  1.
<mgrwt>
<rscale>  2 0.17525397E+03</rscale>
<asrwt>0</asrwt>
<pdfrwt beam="1">  1       21 0.48412607E-01 0.17525397E+03</pdfrwt>
<pdfrwt beam="2">  1       21 0.20150475E-01 0.17525397E+03</pdfrwt>
<totfact> 0.93386969E+04</totfact>
</mgrwt>
</event>
<event>
 4    1  0.4050555E+000  0.1791138E+03  0.7546771E-02  0.1168663E+00
         21   -1    0    0  501  502  0.00000000000E+00  0.00000000000E+00  0.60121035690E+02  0.60121035690E+02  0.00000000000E+00 0. -1.
         21   -1    0    0  502  503 -0.00000000000E+00 -0.00000000000E+00 -0.82194683008E+03  0.82194683008E+03  0.00000000000E+00 0. -1.
          6    1    1    2  501    0 -0.34714163308E+02  0.30784329030E+02 -0.11970087576E+03  0.21542991367E+03  0.17300000000E+03 0. -1.
         -6    1    1    2    0  503  0.34714163308E+02 -0.30784329030E+02 -0.64212491863E+03  0.66663795210E+03  0.17300000000E+03 0. -1.
<mgrwt>
<rscale>  2 0.17911379E+03</rscale>
<asrwt>0</asrwt>
<pdfrwt beam="1">  1       21 0.92493895E-02 0.17911379E+03</pdfrwt>
<pdfrwt beam="2">  1       21 0.12645337E+00 0.17911379E+03</pdfrwt>
<totfact> 0.43465810E+04</totfact>
</mgrwt>
</event>
<event>
 4    1  0.4050555E+000  0.2306975E+03  0.7546771E-02  0.1126150E+00
         21   -1    0    0  503  502  0.00000000000E+00  0.00000000000E+00  0.35143563118E+03  0.35143563118E+03  0.00000000000E+00 0. -1.
         21   -1    0    0  501  503 -0.00000000000E+00 -0.00000000000E+00 -0.26209769878E+03  0.26209769878E+03  0.00000000000E+00 0.  1.
          6    1    1    2  501    0 -0.75350264841E+02  0.13272032921E+03 -0.15465876999E+03  0.27774211660E+03  0.17300000000E+03 0. -1.
         -6    1    1    2    0  502  0.75350264841E+02 -0.13272032921E+03  0.24399670239E+03  0.33579121337E+03  0.17300000000E+03 0. -1.
<mgrwt>
<rscale>  2 0.23069753E+03</rscale>
<asrwt>0</asrwt>
<pdfrwt beam="1">  1       21 0.54067020E-01 0.23069753E+03</pdfrwt>
<pdfrwt beam="2">  1       21 0.40322723E-01 0.23069753E+03</pdfrwt>
<totfact> 0.18749866E+04</totfact>
</mgrwt>
</event>
<event>
 4    1  0.4050555E+000  0.2368103E+03  0.7546771E-02  0.1121936E+00
         21   -1    0    0  503  502  0.00000000000E+00  0.00000000000E+00  0.34579934265E+03  0.34579934265E+03  0.00000000000E+00 0. -1.
         21   -1    0    0  501  503 -0.00000000000E+00 -0.00000000000E+00 -0.16479284006E+03  0.16479284006E+03  0.00000000000E+00 0. -1.
          6    1    1    2  501    0  0.15495721916E+03  0.46242554057E+02  0.58310277896E+02  0.24388358306E+03  0.17300000000E+03 0. -1.
         -6    1    1    2    0  502 -0.15495721916E+03 -0.46242554057E+02  0.12269622469E+03  0.26670859965E+03  0.17300000000E+03 0. -1.
<mgrwt>
<rscale>  2 0.23681029E+03</rscale>
<asrwt>0</asrwt>
<pdfrwt beam="1">  1       21 0.53199899E-01 0.23681029E+03</pdfrwt>
<pdfrwt beam="2">  1       21 0.25352745E-01 0.23681029E+03</pdfrwt>
<totfact> 0.48346587E+04</totfact>
</mgrwt>
</event>
<event>
 4    1  0.4050555E+000  0.1751650E+03  0.7546771E-02  0.1172566E+00
         21   -1    0    0  503  502  0.00000000000E+00  0.00000000000E+00  0.59334191584E+03  0.59334191584E+03  0.00000000000E+00 0. -1.
         21   -1    0    0  501  503 -0.00000000000E+00 -0.00000000000E+00 -0.10416424200E+03  0.10416424200E+03  0.00000000000E+00 0. -1.
          6    1    1    2  501    0 -0.14970757691E+02 -0.23014157958E+02 -0.28920145316E+01  0.17518886609E+03  0.17300000000E+03 0. -1.
         -6    1    1    2    0  502  0.14970757691E+02  0.23014157958E+02  0.49206968837E+03  0.52231729176E+03  0.17300000000E+03 0. -1.
<mgrwt>
<rscale>  2 0.17516499E+03</rscale>
<asrwt>0</asrwt>
<pdfrwt beam="1">  1       21 0.91283369E-01 0.17516499E+03</pdfrwt>
<pdfrwt beam="2">  1       21 0.16025268E-01 0.17516499E+03</pdfrwt>
<totfact> 0.35683395E+04</totfact>
</mgrwt>
</event>
<event>
 4    1  0.4050555E+000  0.2560199E+03  0.7546771E-02  0.1109558E+00
         21   -1    0    0  501  502  0.00000000000E+00  0.00000000000E+00  0.14884005132E+03  0.14884005132E+03  0.00000000000E+00 0.  1.
         21   -1    0    0  502  503 -0.00000000000E+00 -0.00000000000E+00 -0.79653654833E+03  0.79653654833E+03  0.00000000000E+00 0.  1.
          6    1    1    2  501    0 -0.99932845891E+02 -0.16009558831E+03 -0.77715288389E+01  0.25613779054E+03  0.17300000000E+03 0.  1.
         -6    1    1    2    0  503  0.99932845891E+02  0.16009558831E+03 -0.63992496818E+03  0.68923880911E+03  0.17300000000E+03 0.  1.
<mgrwt>
<rscale>  2 0.25601986E+03</rscale>
<asrwt>0</asrwt>
<pdfrwt beam="1">  1       21 0.22898470E-01 0.25601986E+03</pdfrwt>
<pdfrwt beam="2">  1       21 0.12254408E+00 0.25601986E+03</pdfrwt>
<totfact> 0.86028721E+03</totfact>
</mgrwt>
</event>
<event>
 4    1  0.4050555E+000  0.1864060E+03  0.7546771E-02  0.1161743E+00
         21   -1    0    0  501  502  0.00000000000E+00  0.00000000000E+00  0.57036356774E+03  0.57036356774E+03  0.00000000000E+00 0. -1.
         21   -1    0    0  502  503 -0.00000000000E+00 -0.00000000000E+00 -0.61382752158E+02  0.61382752158E+02  0.00000000000E+00 0.  1.
          6    1    1    2  501    0 -0.45407455704E+02  0.52500949761E+02  0.28188331112E+03  0.33794287660E+03  0.17300000000E+03 0.  1.
         -6    1    1    2    0  503  0.45407455704E+02 -0.52500949761E+02  0.22709750446E+03  0.29380344330E+03  0.17300000000E+03 0. -1.
<mgrwt>
<rscale>  2 0.18640597E+03</rscale>
<asrwt>0</asrwt>
<pdfrwt beam="1">  1       21 0.87748238E-01 0.18640597E+03</pdfrwt>
<pdfrwt beam="2">  1       21 0.94435007E-02 0.18640597E+03</pdfrwt>
<totfact> 0.10023560E+05</totfact>
</mgrwt>
</event>
